                         Program Version 4.2.1 -  RELEASE  -
|  1> ! wB97X-D3 SP def2-SVP
|  2> %pal
|  3> nprocs 16
|  4> end
|  5>
|  6> * xyz 0 1
|  7> S 	 12.6872 	 1.68916 	 67.6595
|  8> C 	 11.972 	 2.13112 	 66.1922
|  9> C 	 12.3951 	 1.40869 	 65.0928
| 10> C 	 13.4583 	 0.541625 	 65.5307
| 11> C 	 13.737 	 0.530356 	 66.8739
| 12> H 	 14.0504 	 -0.11394 	 64.841
| 13> C 	 11.9691 	 1.58472 	 63.6731
| 14> H 	 11.0969 	 2.08655 	 63.5821
| 15> H 	 11.7799 	 0.61431 	 63.1531
| 16> C 	 12.9097 	 2.48903 	 62.817
| 17> H 	 12.3585 	 2.7961 	 61.9327
| 18> H 	 13.2509 	 3.24508 	 63.5297
| 19> C 	 14.1021 	 1.6107 	 62.3152
| 20> H 	 13.8607 	 0.744272 	 61.7767
| 21> H 	 14.6912 	 2.1338 	 61.6306
| 22> H 	 14.835 	 1.271 	 63.0725
| 23> S 	 14.3783 	 -1.20743 	 68.8675
| 24> C 	 16.0234 	 -1.9023 	 68.8999
| 25> C 	 16.8182 	 -1.35127 	 67.9152
| 26> C 	 16.1064 	 -0.442857 	 67.0863
| 27> C 	 14.8302 	 -0.192379 	 67.5139
| 28> H 	 17.8725 	 -1.54372 	 67.8352
| 29> C 	 16.7631 	 0.157572 	 65.8895
| 30> H 	 16.3024 	 -0.293646 	 65.0355
| 31> H 	 17.7894 	 -0.241852 	 65.8505
| 32> C 	 16.7782 	 1.70737 	 65.7293
| 33> H 	 15.8277 	 2.11333 	 65.4938
| 34> H 	 17.4072 	 1.95296 	 64.8834
| 35> C 	 17.4001 	 2.45825 	 66.9097
| 36> H 	 17.3523 	 3.48261 	 66.8129
| 37> H 	 18.4602 	 2.24288 	 66.9748
| 38> H 	 16.8571 	 2.17477 	 67.7851
| 39> H 	 11.3842 	 3.07249 	 65.9626
| 40> H 	 16.4184 	 -2.54204 	 69.6595
| 41> *
| 42>
| 43>                          ****END OF INPUT****

CARTESIAN COORDINATES (ANGSTROEM)
---------------------------------
  S     12.687200    1.689160   67.659500
  C     11.972000    2.131120   66.192200
  C     12.395100    1.408690   65.092800
  C     13.458300    0.541625   65.530700
  C     13.737000    0.530356   66.873900
  H     14.050400   -0.113940   64.841000
  C     11.969100    1.584720   63.673100
  H     11.096900    2.086550   63.582100
  H     11.779900    0.614310   63.153100
  C     12.909700    2.489030   62.817000
  H     12.358500    2.796100   61.932700
  H     13.250900    3.245080   63.529700
  C     14.102100    1.610700   62.315200
  H     13.860700    0.744272   61.776700
  H     14.691200    2.133800   61.630600
  H     14.835000    1.271000   63.072500
  S     14.378300   -1.207430   68.867500
  C     16.023400   -1.902300   68.899900
  C     16.818200   -1.351270   67.915200
  C     16.106400   -0.442857   67.086300
  C     14.830200   -0.192379   67.513900
  H     17.872500   -1.543720   67.835200
  C     16.763100    0.157572   65.889500
  H     16.302400   -0.293646   65.035500
  H     17.789400   -0.241852   65.850500
  C     16.778200    1.707370   65.729300
  H     15.827700    2.113330   65.493800
  H     17.407200    1.952960   64.883400
  C     17.400100    2.458250   66.909700
  H     17.352300    3.482610   66.812900
  H     18.460200    2.242880   66.974800
  H     16.857100    2.174770   67.785100
  H     11.384200    3.072490   65.962600
  H     16.418400   -2.542040   69.659500

 Total Charge           Charge          ....    0
 Multiplicity           Mult            ....    1
 Number of Electrons    NEL             ....  134
 Basis Dimension        Dim             ....  322

ORBITAL ENERGIES
----------------

  NO   OCC          E(Eh)            E(eV)
   0   2.0000     -88.968903     -2420.9669
   1   2.0000     -88.964915     -2420.8584
   2   2.0000     -10.326243      -280.9913
   3   2.0000     -10.323927      -280.9283
   4   2.0000     -10.318007      -280.7672
   5   2.0000     -10.315237      -280.6919
   6   2.0000     -10.300602      -280.2936
   7   2.0000     -10.297801      -280.2174
   8   2.0000     -10.295761      -280.1619
   9   2.0000     -10.294628      -280.1311
  10   2.0000     -10.292802      -280.0814
  11   2.0000     -10.289493      -279.9913
  12   2.0000     -10.285857      -279.8924
  13   2.0000     -10.278878      -279.7025
  14   2.0000     -10.270779      -279.4821
  15   2.0000     -10.261066      -279.2178
  16   2.0000      -8.084498      -219.9904
  17   2.0000      -8.079221      -219.8468
  18   2.0000      -6.042957      -164.4372
  19   2.0000      -6.038808      -164.3243
  20   2.0000      -6.037791      -164.2966
  21   2.0000      -6.035342      -164.2300
  22   2.0000      -6.033851      -164.1894
  23   2.0000      -6.029882      -164.0814
  24   2.0000      -1.011209       -27.5164
  25   2.0000      -0.987704       -26.8768
  26   2.0000      -0.915262       -24.9055
  27   2.0000      -0.906366       -24.6635
  28   2.0000      -0.871264       -23.7083
  29   2.0000      -0.851649       -23.1746
  30   2.0000      -0.846125       -23.0242
  31   2.0000      -0.816147       -22.2085
  32   2.0000      -0.788919       -21.4676
  33   2.0000      -0.775702       -21.1079
  34   2.0000      -0.709835       -19.3156
  35   2.0000      -0.705282       -19.1917
  36   2.0000      -0.689018       -18.7491
  37   2.0000      -0.669332       -18.2134
  38   2.0000      -0.638789       -17.3823
  39   2.0000      -0.620903       -16.8956
  40   2.0000      -0.590902       -16.0793
  41   2.0000      -0.580549       -15.7975
  42   2.0000      -0.556529       -15.1439
  43   2.0000      -0.549851       -14.9622
  44   2.0000      -0.544012       -14.8033
  45   2.0000      -0.541046       -14.7226
  46   2.0000      -0.516515       -14.0551
  47   2.0000      -0.512202       -13.9377
  48   2.0000      -0.500863       -13.6292
  49   2.0000      -0.496158       -13.5011
  50   2.0000      -0.490021       -13.3342
  51   2.0000      -0.480114       -13.0646
  52   2.0000      -0.473084       -12.8733
  53   2.0000      -0.466103       -12.6833
  54   2.0000      -0.459394       -12.5008
  55   2.0000      -0.445767       -12.1299
  56   2.0000      -0.440775       -11.9941
  57   2.0000      -0.439236       -11.9522
  58   2.0000      -0.435155       -11.8412
  59   2.0000      -0.433180       -11.7874
  60   2.0000      -0.420242       -11.4354
  61   2.0000      -0.417490       -11.3605
  62   2.0000      -0.414782       -11.2868
  63   2.0000      -0.351488        -9.5645
  64   2.0000      -0.331936        -9.0324
  65   2.0000      -0.329211        -8.9583
  66   2.0000      -0.291139        -7.9223
  67   0.0000       0.031850         0.8667
  68   0.0000       0.067650         1.8408
  69   0.0000       0.110345         3.0026
  70   0.0000       0.121679         3.3111
  71   0.0000       0.128818         3.5053

MULLIKEN ATOMIC CHARGES
-----------------------
   0 S :    0.131013
   1 C :   -0.124731
   2 C :   -0.109353
   3 C :   -0.006254
   4 C :   -0.142748
   5 H :    0.021612
   6 C :    0.101038
   7 H :   -0.017251
   8 H :    0.034257
   9 C :   -0.056537
  10 H :    0.038756
  11 H :    0.040655
  12 C :   -0.038760
  13 H :    0.011553
  14 H :    0.010269
  15 H :    0.024913
  16 S :    0.096083
  17 C :   -0.078100
  18 C :   -0.028844
  19 C :   -0.072382
  20 C :   -0.134030
  21 H :    0.017122
  22 C :    0.083803
  23 H :    0.022701
  24 H :    0.006469
  25 C :   -0.058385
  26 H :    0.031655
  27 H :    0.017964
  28 C :   -0.004452
  29 H :    0.011619
  30 H :    0.018305
  31 H :    0.035257
  32 H :    0.067174
  33 H :    0.049608
Sum of atomic charges:    0.0000000

LOEWDIN ATOMIC CHARGES
----------------------
   0 S :    0.430258
   1 C :   -0.223295
   2 C :   -0.068159
   3 C :   -0.060966
   4 C :   -0.207700
   5 H :    0.034186
   6 C :   -0.029854
   7 H :    0.013359
   8 H :    0.037305
   9 C :   -0.021641
  10 H :    0.027556
  11 H :    0.029585
  12 C :   -0.070078
  13 H :    0.017116
  14 H :    0.016240
  15 H :    0.027459
  16 S :    0.391441
  17 C :   -0.168897
  18 C :   -0.065064
  19 C :   -0.061436
  20 C :   -0.195610
  21 H :    0.031630
  22 C :   -0.029674
  23 H :    0.028032
  24 H :    0.031182
  25 C :   -0.032532
  26 H :    0.017147
  27 H :    0.022984
  28 C :   -0.053380
  29 H :    0.015653
  30 H :    0.023266
  31 H :    0.023871
  32 H :    0.044718
  33 H :    0.025301

  Mayer bond orders larger than 0.100000
B(  0-S ,  1-C ) :   1.1632 B(  0-S ,  4-C ) :   1.1397 B(  1-C ,  2-C ) :   1.6084
B(  1-C , 32-H ) :   0.9473 B(  2-C ,  3-C ) :   1.2459 B(  2-C ,  6-C ) :   1.0521
B(  3-C ,  4-C ) :   1.5853 B(  3-C ,  5-H ) :   0.9852 B(  4-C , 20-C ) :   1.0176
B(  6-C ,  7-H ) :   0.9261 B(  6-C ,  8-H ) :   0.9379 B(  6-C ,  9-C ) :   1.0591
B(  9-C , 10-H ) :   0.9567 B(  9-C , 11-H ) :   0.9531 B(  9-C , 12-C ) :   1.0814
B( 12-C , 13-H ) :   0.9738 B( 12-C , 14-H ) :   0.9704 B( 12-C , 15-H ) :   0.9706
B( 16-S , 17-C ) :   1.1452 B( 16-S , 20-C ) :   1.1327 B( 17-C , 18-C ) :   1.6180
B( 17-C , 33-H ) :   0.9677 B( 18-C , 19-C ) :   1.2396 B( 18-C , 21-H ) :   0.9881
B( 19-C , 20-C ) :   1.6163 B( 19-C , 22-C ) :   1.0414 B( 22-C , 23-H ) :   0.9226
B( 22-C , 24-H ) :   0.9276 B( 22-C , 25-C ) :   1.0758 B( 25-C , 26-H ) :   0.9507
B( 25-C , 27-H ) :   0.9533 B( 25-C , 28-C ) :   1.0858 B( 28-C , 29-H ) :   0.9711
B( 28-C , 30-H ) :   0.9751 B( 28-C , 31-H ) :   0.9734

Dispersion correction           -0.016636404
FINAL SINGLE POINT ENERGY     -1339.871597139116

DIPOLE MOMENT
-------------
                                X             Y             Z
Electronic contribution:    -11.27077     -10.27092      23.71976
Nuclear contribution   :     11.61960      10.47608     -24.45630
                        -----------------------------------------
Total Dipole Moment    :      0.34883       0.20516      -0.73654
                        -----------------------------------------
Magnitude (a.u.)       :      0.84039
Magnitude (Debye)      :      2.13611

Rotational constants in cm-1:     0.019800     0.010061     0.008110
Rotational constants in MHz :   593.583006   301.610522   243.138162

                             ****ORCA TERMINATED NORMALLY****
TOTAL RUN TIME: 0 days 0 hours 0 minutes 38 seconds 959 msec
