                         Program Version 4.2.1 -  RELEASE  -
|  1> ! wB97X-D3 SP def2-SVP
|  2> %pal
|  3> nprocs 16
|  4> end
|  5>
|  6> * xyz 0 1
|  7> S 	 42.0886 	 22.4394 	 46.7375
|  8> C 	 40.9612 	 21.7192 	 45.6016
|  9> C 	 40.3214 	 22.753 	 44.9003
| 10> C 	 40.6397 	 24.0223 	 45.3834
| 11> C 	 41.6841 	 24.0867 	 46.2944
| 12> H 	 40.2705 	 24.9517 	 45.004
| 13> C 	 39.3029 	 22.5964 	 43.762
| 14> H 	 39.0335 	 21.5348 	 43.7795
| 15> H 	 39.8989 	 22.7525 	 42.7774
| 16> C 	 38.1228 	 23.5487 	 43.7963
| 17> H 	 38.4464 	 24.5168 	 43.6523
| 18> H 	 37.3786 	 23.2373 	 42.9922
| 19> C 	 37.4262 	 23.6617 	 45.2081
| 20> H 	 37.1271 	 22.6817 	 45.472
| 21> H 	 38.0693 	 24.0502 	 45.9791
| 22> H 	 36.4772 	 24.2112 	 45.0882
| 23> S 	 44.1213 	 25.1786 	 46.8242
| 24> C 	 44.3347 	 26.8694 	 46.9837
| 25> C 	 43.0685 	 27.4643 	 47.0362
| 26> C 	 41.9705 	 26.5846 	 47.1013
| 27> C 	 42.3698 	 25.276 	 46.7376
| 28> H 	 43.0499 	 28.4774 	 47.0329
| 29> C 	 40.524 	 27.0405 	 47.0585
| 30> H 	 39.9186 	 26.1417 	 47.3047
| 31> H 	 40.1909 	 27.2797 	 46.022
| 32> C 	 40.2988 	 28.2099 	 47.9827
| 33> H 	 40.8636 	 29.1355 	 47.6615
| 34> H 	 40.7127 	 28.0314 	 48.9833
| 35> C 	 38.8856 	 28.7194 	 48.0513
| 36> H 	 38.4637 	 29.0413 	 47.0926
| 37> H 	 38.712 	 29.5799 	 48.676
| 38> H 	 38.2201 	 27.8835 	 48.5637
| 39> H 	 40.8496 	 20.6618 	 45.5756
| 40> H 	 45.2136 	 27.4546 	 46.8926
| 41> *
| 42>
| 43>                          ****END OF INPUT****

CARTESIAN COORDINATES (ANGSTROEM)
---------------------------------
  S     42.088600   22.439400   46.737500
  C     40.961200   21.719200   45.601600
  C     40.321400   22.753000   44.900300
  C     40.639700   24.022300   45.383400
  C     41.684100   24.086700   46.294400
  H     40.270500   24.951700   45.004000
  C     39.302900   22.596400   43.762000
  H     39.033500   21.534800   43.779500
  H     39.898900   22.752500   42.777400
  C     38.122800   23.548700   43.796300
  H     38.446400   24.516800   43.652300
  H     37.378600   23.237300   42.992200
  C     37.426200   23.661700   45.208100
  H     37.127100   22.681700   45.472000
  H     38.069300   24.050200   45.979100
  H     36.477200   24.211200   45.088200
  S     44.121300   25.178600   46.824200
  C     44.334700   26.869400   46.983700
  C     43.068500   27.464300   47.036200
  C     41.970500   26.584600   47.101300
  C     42.369800   25.276000   46.737600
  H     43.049900   28.477400   47.032900
  C     40.524000   27.040500   47.058500
  H     39.918600   26.141700   47.304700
  H     40.190900   27.279700   46.022000
  C     40.298800   28.209900   47.982700
  H     40.863600   29.135500   47.661500
  H     40.712700   28.031400   48.983300
  C     38.885600   28.719400   48.051300
  H     38.463700   29.041300   47.092600
  H     38.712000   29.579900   48.676000
  H     38.220100   27.883500   48.563700
  H     40.849600   20.661800   45.575600
  H     45.213600   27.454600   46.892600

 Total Charge           Charge          ....    0
 Multiplicity           Mult            ....    1
 Number of Electrons    NEL             ....  134
 Basis Dimension        Dim             ....  322

ORBITAL ENERGIES
----------------

  NO   OCC          E(Eh)            E(eV)
   0   2.0000     -88.966055     -2420.8894
   1   2.0000     -88.965361     -2420.8705
   2   2.0000     -10.332590      -281.1641
   3   2.0000     -10.331448      -281.1330
   4   2.0000     -10.318703      -280.7862
   5   2.0000     -10.313069      -280.6329
   6   2.0000     -10.305482      -280.4264
   7   2.0000     -10.304373      -280.3962
   8   2.0000     -10.299930      -280.2753
   9   2.0000     -10.298083      -280.2251
  10   2.0000     -10.290355      -280.0148
  11   2.0000     -10.289902      -280.0025
  12   2.0000     -10.289237      -279.9844
  13   2.0000     -10.286101      -279.8990
  14   2.0000     -10.284941      -279.8675
  15   2.0000     -10.273834      -279.5652
  16   2.0000      -8.080655      -219.8858
  17   2.0000      -8.080582      -219.8838
  18   2.0000      -6.039169      -164.3341
  19   2.0000      -6.038969      -164.3287
  20   2.0000      -6.035019      -164.2212
  21   2.0000      -6.034852      -164.2167
  22   2.0000      -6.031594      -164.1280
  23   2.0000      -6.031572      -164.1274
  24   2.0000      -1.010340       -27.4928
  25   2.0000      -0.988125       -26.8883
  26   2.0000      -0.915216       -24.9043
  27   2.0000      -0.911116       -24.7927
  28   2.0000      -0.872853       -23.7515
  29   2.0000      -0.853957       -23.2373
  30   2.0000      -0.842254       -22.9189
  31   2.0000      -0.816403       -22.2155
  32   2.0000      -0.784271       -21.3411
  33   2.0000      -0.773442       -21.0464
  34   2.0000      -0.711604       -19.3637
  35   2.0000      -0.702818       -19.1247
  36   2.0000      -0.695749       -18.9323
  37   2.0000      -0.655856       -17.8468
  38   2.0000      -0.644941       -17.5497
  39   2.0000      -0.629978       -17.1426
  40   2.0000      -0.599931       -16.3250
  41   2.0000      -0.568877       -15.4799
  42   2.0000      -0.565826       -15.3969
  43   2.0000      -0.547406       -14.8957
  44   2.0000      -0.539588       -14.6829
  45   2.0000      -0.533712       -14.5230
  46   2.0000      -0.520914       -14.1748
  47   2.0000      -0.517697       -14.0873
  48   2.0000      -0.510671       -13.8961
  49   2.0000      -0.507529       -13.8106
  50   2.0000      -0.492624       -13.4050
  51   2.0000      -0.482134       -13.1195
  52   2.0000      -0.470475       -12.8023
  53   2.0000      -0.467447       -12.7199
  54   2.0000      -0.459425       -12.5016
  55   2.0000      -0.449975       -12.2444
  56   2.0000      -0.443758       -12.0753
  57   2.0000      -0.437076       -11.8935
  58   2.0000      -0.434659       -11.8277
  59   2.0000      -0.421367       -11.4660
  60   2.0000      -0.418239       -11.3809
  61   2.0000      -0.411220       -11.1899
  62   2.0000      -0.405811       -11.0427
  63   2.0000      -0.352054        -9.5799
  64   2.0000      -0.331787        -9.0284
  65   2.0000      -0.331119        -9.0102
  66   2.0000      -0.283909        -7.7256
  67   0.0000       0.020083         0.5465
  68   0.0000       0.069993         1.9046
  69   0.0000       0.116236         3.1629
  70   0.0000       0.119962         3.2643
  71   0.0000       0.127576         3.4715

MULLIKEN ATOMIC CHARGES
-----------------------
   0 S :    0.104637
   1 C :   -0.131277
   2 C :   -0.087269
   3 C :    0.005959
   4 C :   -0.130585
   5 H :   -0.003317
   6 C :    0.071264
   7 H :    0.018806
   8 H :    0.058993
   9 C :   -0.082787
  10 H :    0.017070
  11 H :    0.048689
  12 C :   -0.044218
  13 H :    0.013607
  14 H :    0.046465
  15 H :    0.036245
  16 S :    0.112815
  17 C :   -0.069404
  18 C :   -0.033303
  19 C :   -0.008515
  20 C :   -0.152945
  21 H :   -0.019836
  22 C :    0.041001
  23 H :    0.036731
  24 H :    0.045745
  25 C :   -0.100137
  26 H :    0.033051
  27 H :    0.036422
  28 C :   -0.055534
  29 H :    0.030692
  30 H :    0.028436
  31 H :    0.037945
  32 H :    0.047197
  33 H :    0.047358
Sum of atomic charges:    0.0000000

LOEWDIN ATOMIC CHARGES
----------------------
   0 S :    0.405191
   1 C :   -0.191301
   2 C :   -0.064271
   3 C :   -0.068132
   4 C :   -0.194583
   5 H :    0.025267
   6 C :   -0.036259
   7 H :    0.026931
   8 H :    0.046878
   9 C :   -0.040943
  10 H :    0.010056
  11 H :    0.037859
  12 C :   -0.060261
  13 H :    0.016966
  14 H :    0.024290
  15 H :    0.029842
  16 S :    0.428212
  17 C :   -0.196715
  18 C :   -0.058760
  19 C :   -0.059213
  20 C :   -0.188826
  21 H :    0.010467
  22 C :   -0.036540
  23 H :    0.035271
  24 H :    0.034195
  25 C :   -0.053406
  26 H :    0.029791
  27 H :    0.029402
  28 C :   -0.073601
  29 H :    0.024030
  30 H :    0.022994
  31 H :    0.033776
  32 H :    0.023701
  33 H :    0.027690

  Mayer bond orders larger than 0.100000
B(  0-S ,  1-C ) :   1.1478 B(  0-S ,  4-C ) :   1.1588 B(  1-C ,  2-C ) :   1.5542
B(  1-C ,  4-C ) :   0.1081 B(  1-C , 32-H ) :   0.9812 B(  2-C ,  3-C ) :   1.2817
B(  2-C ,  6-C ) :   1.0081 B(  3-C ,  4-C ) :   1.5332 B(  3-C ,  5-H ) :   0.9934
B(  4-C , 20-C ) :   1.0817 B(  6-C ,  7-H ) :   0.9434 B(  6-C ,  8-H ) :   0.9355
B(  6-C ,  9-C ) :   1.0748 B(  9-C , 10-H ) :   0.9481 B(  9-C , 11-H ) :   0.9547
B(  9-C , 12-C ) :   1.0803 B( 12-C , 13-H ) :   0.9766 B( 12-C , 14-H ) :   0.9691
B( 12-C , 15-H ) :   0.9737 B( 16-S , 17-C ) :   1.1662 B( 16-S , 20-C ) :   1.1627
B( 17-C , 18-C ) :   1.5839 B( 17-C , 20-C ) :   0.1106 B( 17-C , 33-H ) :   0.9726
B( 18-C , 19-C ) :   1.2519 B( 18-C , 21-H ) :   1.0039 B( 19-C , 20-C ) :   1.5135
B( 19-C , 22-C ) :   1.0603 B( 22-C , 23-H ) :   0.9310 B( 22-C , 24-H ) :   0.9305
B( 22-C , 25-C ) :   1.0595 B( 25-C , 26-H ) :   0.9447 B( 25-C , 27-H ) :   0.9579
B( 25-C , 28-C ) :   1.0941 B( 28-C , 29-H ) :   0.9700 B( 28-C , 30-H ) :   0.9721
B( 28-C , 31-H ) :   0.9710

Dispersion correction           -0.014396642
FINAL SINGLE POINT ENERGY     -1339.865005424866

DIPOLE MOMENT
-------------
                                X             Y             Z
Electronic contribution:     27.25795     -12.84034       4.08378
Nuclear contribution   :    -27.74239      13.25819      -4.46321
                        -----------------------------------------
Total Dipole Moment    :     -0.48444       0.41785      -0.37943
                        -----------------------------------------
Magnitude (a.u.)       :      0.74380
Magnitude (Debye)      :      1.89059

Rotational constants in cm-1:     0.016023     0.010219     0.006858
Rotational constants in MHz :   480.363046   306.362728   205.608767

                             ****ORCA TERMINATED NORMALLY****
TOTAL RUN TIME: 0 days 0 hours 0 minutes 34 seconds 755 msec
