                         Program Version 4.2.1 -  RELEASE  -
|  1> ! wB97X-D3 SP def2-SVP
|  2> %pal
|  3> nprocs 16
|  4> end
|  5>
|  6> * xyz 0 1
|  7> S 	 52.1894 	 15.7045 	 82.3044
|  8> C 	 51.6576 	 15.313 	 83.9436
|  9> C 	 50.5286 	 16.0498 	 84.2276
| 10> C 	 50.0076 	 16.8067 	 83.1086
| 11> C 	 50.8968 	 16.7986 	 82.0128
| 12> H 	 49.1236 	 17.2917 	 82.9444
| 13> C 	 49.8578 	 16.1015 	 85.6118
| 14> H 	 49.6939 	 17.0686 	 85.8973
| 15> H 	 50.6402 	 15.8059 	 86.3
| 16> C 	 48.6967 	 15.1856 	 85.6928
| 17> H 	 48.0839 	 15.3704 	 84.7584
| 18> H 	 48.983 	 14.1435 	 85.5909
| 19> C 	 47.7707 	 15.4406 	 86.8962
| 20> H 	 48.175 	 15.489 	 87.9444
| 21> H 	 47.3144 	 16.3842 	 86.7579
| 22> H 	 46.9804 	 14.6867 	 86.9534
| 23> S 	 51.1439 	 16.7918 	 79.2251
| 24> C 	 50.8468 	 18.2581 	 78.3781
| 25> C 	 50.3004 	 19.1664 	 79.1737
| 26> C 	 50.2319 	 18.8118 	 80.566
| 27> C 	 50.743 	 17.5299 	 80.7721
| 28> H 	 50.0563 	 20.078 	 78.7261
| 29> C 	 49.6804 	 19.7364 	 81.559
| 30> H 	 50.2092 	 20.6765 	 81.5445
| 31> H 	 49.8537 	 19.3611 	 82.5271
| 32> C 	 48.152 	 19.9305 	 81.2738
| 33> H 	 47.5377 	 19.0527 	 81.405
| 34> H 	 48.0338 	 20.288 	 80.2315
| 35> C 	 47.8043 	 21.1234 	 82.1907
| 36> H 	 48.3956 	 22.0467 	 81.9008
| 37> H 	 47.9049 	 20.8535 	 83.3125
| 38> H 	 46.7876 	 21.3975 	 82.1126
| 39> H 	 52.1317 	 14.4907 	 84.5441
| 40> H 	 51.0596 	 18.4128 	 77.3345
| 41> *
| 42>
| 43>                          ****END OF INPUT****

CARTESIAN COORDINATES (ANGSTROEM)
---------------------------------
  S     52.189400   15.704500   82.304400
  C     51.657600   15.313000   83.943600
  C     50.528600   16.049800   84.227600
  C     50.007600   16.806700   83.108600
  C     50.896800   16.798600   82.012800
  H     49.123600   17.291700   82.944400
  C     49.857800   16.101500   85.611800
  H     49.693900   17.068600   85.897300
  H     50.640200   15.805900   86.300000
  C     48.696700   15.185600   85.692800
  H     48.083900   15.370400   84.758400
  H     48.983000   14.143500   85.590900
  C     47.770700   15.440600   86.896200
  H     48.175000   15.489000   87.944400
  H     47.314400   16.384200   86.757900
  H     46.980400   14.686700   86.953400
  S     51.143900   16.791800   79.225100
  C     50.846800   18.258100   78.378100
  C     50.300400   19.166400   79.173700
  C     50.231900   18.811800   80.566000
  C     50.743000   17.529900   80.772100
  H     50.056300   20.078000   78.726100
  C     49.680400   19.736400   81.559000
  H     50.209200   20.676500   81.544500
  H     49.853700   19.361100   82.527100
  C     48.152000   19.930500   81.273800
  H     47.537700   19.052700   81.405000
  H     48.033800   20.288000   80.231500
  C     47.804300   21.123400   82.190700
  H     48.395600   22.046700   81.900800
  H     47.904900   20.853500   83.312500
  H     46.787600   21.397500   82.112600
  H     52.131700   14.490700   84.544100
  H     51.059600   18.412800   77.334500

 Total Charge           Charge          ....    0
 Multiplicity           Mult            ....    1
 Number of Electrons    NEL             ....  134
 Basis Dimension        Dim             ....  322

ORBITAL ENERGIES
----------------

  NO   OCC          E(Eh)            E(eV)
   0   2.0000     -88.962606     -2420.7956
   1   2.0000     -88.960060     -2420.7263
   2   2.0000     -10.328569      -281.0547
   3   2.0000     -10.325162      -280.9619
   4   2.0000     -10.318768      -280.7879
   5   2.0000     -10.308590      -280.5110
   6   2.0000     -10.305377      -280.4236
   7   2.0000     -10.300058      -280.2788
   8   2.0000     -10.294279      -280.1216
   9   2.0000     -10.290464      -280.0178
  10   2.0000     -10.287776      -279.9446
  11   2.0000     -10.286791      -279.9178
  12   2.0000     -10.283925      -279.8398
  13   2.0000     -10.282168      -279.7920
  14   2.0000     -10.280518      -279.7471
  15   2.0000     -10.278579      -279.6944
  16   2.0000      -8.077693      -219.8052
  17   2.0000      -8.075584      -219.7478
  18   2.0000      -6.036154      -164.2521
  19   2.0000      -6.034161      -164.1979
  20   2.0000      -6.032025      -164.1397
  21   2.0000      -6.030048      -164.0859
  22   2.0000      -6.028598      -164.0465
  23   2.0000      -6.026169      -163.9804
  24   2.0000      -1.009252       -27.4631
  25   2.0000      -0.986292       -26.8384
  26   2.0000      -0.917109       -24.9558
  27   2.0000      -0.916566       -24.9410
  28   2.0000      -0.873197       -23.7609
  29   2.0000      -0.850919       -23.1547
  30   2.0000      -0.841823       -22.9072
  31   2.0000      -0.817882       -22.2557
  32   2.0000      -0.784878       -21.3576
  33   2.0000      -0.770026       -20.9535
  34   2.0000      -0.708075       -19.2677
  35   2.0000      -0.704517       -19.1709
  36   2.0000      -0.699209       -19.0264
  37   2.0000      -0.663912       -18.0660
  38   2.0000      -0.643801       -17.5187
  39   2.0000      -0.620235       -16.8774
  40   2.0000      -0.602756       -16.4018
  41   2.0000      -0.574509       -15.6332
  42   2.0000      -0.571217       -15.5436
  43   2.0000      -0.556685       -15.1482
  44   2.0000      -0.529433       -14.4066
  45   2.0000      -0.523973       -14.2580
  46   2.0000      -0.519509       -14.1366
  47   2.0000      -0.514700       -14.0057
  48   2.0000      -0.513021       -13.9600
  49   2.0000      -0.503422       -13.6988
  50   2.0000      -0.495676       -13.4880
  51   2.0000      -0.474719       -12.9178
  52   2.0000      -0.470907       -12.8140
  53   2.0000      -0.464161       -12.6305
  54   2.0000      -0.457428       -12.4472
  55   2.0000      -0.454371       -12.3641
  56   2.0000      -0.447926       -12.1887
  57   2.0000      -0.447509       -12.1773
  58   2.0000      -0.437904       -11.9160
  59   2.0000      -0.428524       -11.6607
  60   2.0000      -0.416882       -11.3439
  61   2.0000      -0.410250       -11.1635
  62   2.0000      -0.408242       -11.1088
  63   2.0000      -0.352820        -9.6007
  64   2.0000      -0.327828        -8.9206
  65   2.0000      -0.326644        -8.8884
  66   2.0000      -0.288967        -7.8632
  67   0.0000       0.026645         0.7250
  68   0.0000       0.088941         2.4202
  69   0.0000       0.115553         3.1444
  70   0.0000       0.119844         3.2611
  71   0.0000       0.132328         3.6008

MULLIKEN ATOMIC CHARGES
-----------------------
   0 S :    0.101345
   1 C :   -0.145554
   2 C :   -0.105290
   3 C :    0.053448
   4 C :   -0.160407
   5 H :   -0.025305
   6 C :    0.141338
   7 H :   -0.001910
   8 H :    0.006902
   9 C :   -0.081316
  10 H :    0.031074
  11 H :    0.025833
  12 C :   -0.038026
  13 H :    0.034457
  14 H :    0.019523
  15 H :    0.032232
  16 S :    0.097876
  17 C :   -0.077541
  18 C :   -0.014403
  19 C :   -0.031134
  20 C :   -0.133668
  21 H :   -0.008838
  22 C :    0.089744
  23 H :    0.024173
  24 H :    0.000646
  25 C :   -0.086663
  26 H :    0.041411
  27 H :    0.037897
  28 C :   -0.060896
  29 H :    0.045425
  30 H :    0.040957
  31 H :    0.018283
  32 H :    0.076623
  33 H :    0.051762
Sum of atomic charges:    0.0000000

LOEWDIN ATOMIC CHARGES
----------------------
   0 S :    0.409786
   1 C :   -0.206246
   2 C :   -0.053364
   3 C :   -0.061447
   4 C :   -0.194082
   5 H :    0.013830
   6 C :   -0.024863
   7 H :    0.016967
   8 H :    0.029844
   9 C :   -0.041940
  10 H :    0.031669
  11 H :    0.023824
  12 C :   -0.070235
  13 H :    0.029146
  14 H :    0.018777
  15 H :    0.026972
  16 S :    0.398003
  17 C :   -0.181152
  18 C :   -0.071199
  19 C :   -0.047510
  20 C :   -0.200695
  21 H :    0.021665
  22 C :   -0.027354
  23 H :    0.033078
  24 H :    0.020886
  25 C :   -0.028492
  26 H :    0.024286
  27 H :    0.028149
  28 C :   -0.072467
  29 H :    0.033673
  30 H :    0.033264
  31 H :    0.012222
  32 H :    0.043787
  33 H :    0.031219

  Mayer bond orders larger than 0.100000
B(  0-S ,  1-C ) :   1.1288 B(  0-S ,  4-C ) :   1.1708 B(  1-C ,  2-C ) :   1.6132
B(  1-C , 32-H ) :   0.9648 B(  2-C ,  3-C ) :   1.2242 B(  2-C ,  6-C ) :   1.0154
B(  3-C ,  4-C ) :   1.5432 B(  3-C ,  5-H ) :   1.0060 B(  4-C , 20-C ) :   1.0697
B(  6-C ,  7-H ) :   0.9414 B(  6-C ,  8-H ) :   0.9294 B(  6-C ,  9-C ) :   1.0624
B(  9-C , 10-H ) :   0.9590 B(  9-C , 11-H ) :   0.9539 B(  9-C , 12-C ) :   1.0715
B( 12-C , 13-H ) :   0.9757 B( 12-C , 14-H ) :   0.9749 B( 12-C , 15-H ) :   0.9744
B( 16-S , 17-C ) :   1.1416 B( 16-S , 20-C ) :   1.1269 B( 17-C , 18-C ) :   1.6451
B( 17-C , 33-H ) :   0.9663 B( 18-C , 19-C ) :   1.2025 B( 18-C , 21-H ) :   1.0000
B( 19-C , 20-C ) :   1.5893 B( 19-C , 22-C ) :   1.0640 B( 22-C , 23-H ) :   0.9309
B( 22-C , 24-H ) :   0.9224 B( 22-C , 25-C ) :   1.0468 B( 25-C , 26-H ) :   0.9568
B( 25-C , 27-H ) :   0.9578 B( 25-C , 28-C ) :   1.0771 B( 28-C , 29-H ) :   0.9748
B( 28-C , 30-H ) :   0.9716 B( 28-C , 31-H ) :   0.9727

Dispersion correction           -0.013832698
FINAL SINGLE POINT ENERGY     -1339.868607733361

DIPOLE MOMENT
-------------
                                X             Y             Z
Electronic contribution:     21.05344     -10.86562     -20.72463
Nuclear contribution   :    -21.56687      11.33031      20.98973
                        -----------------------------------------
Total Dipole Moment    :     -0.51343       0.46470       0.26510
                        -----------------------------------------
Magnitude (a.u.)       :      0.74151
Magnitude (Debye)      :      1.88476

Rotational constants in cm-1:     0.017466     0.008933     0.006326
Rotational constants in MHz :   523.631250   267.819413   189.644094

                             ****ORCA TERMINATED NORMALLY****
TOTAL RUN TIME: 0 days 0 hours 0 minutes 29 seconds 886 msec
