                         Program Version 4.2.1 -  RELEASE  -
|  1> ! wB97X-D3 SP def2-SVP
|  2> %pal
|  3> nprocs 16
|  4> end
|  5>
|  6> * xyz 0 1
|  7> S 	 -115.663 	 55.2404 	 111.981
|  8> C 	 -114.955 	 54.8343 	 110.402
|  9> C 	 -113.595 	 55.3017 	 110.375
| 10> C 	 -113.139 	 55.8109 	 111.649
| 11> C 	 -114.182 	 55.9732 	 112.551
| 12> H 	 -112.079 	 56.0627 	 111.773
| 13> C 	 -112.711 	 55.1411 	 109.188
| 14> H 	 -112.824 	 54.0785 	 108.822
| 15> H 	 -111.657 	 55.4813 	 109.368
| 16> C 	 -113.215 	 55.8942 	 107.893
| 17> H 	 -112.677 	 55.6507 	 106.907
| 18> H 	 -114.269 	 55.7622 	 107.701
| 19> C 	 -113.024 	 57.3964 	 108.123
| 20> H 	 -112.063 	 57.7627 	 108.569
| 21> H 	 -113.202 	 57.929 	 107.142
| 22> H 	 -113.852 	 57.7315 	 108.821
| 23> S 	 -113.861 	 58.4528 	 113.855
| 24> C 	 -114.835 	 58.7313 	 115.269
| 25> C 	 -115.356 	 57.5597 	 115.724
| 26> C 	 -114.943 	 56.3751 	 114.98
| 27> C 	 -114.251 	 56.6884 	 113.82
| 28> H 	 -115.87 	 57.6146 	 116.628
| 29> C 	 -115.433 	 55.0321 	 115.429
| 30> H 	 -116.31 	 54.6915 	 114.837
| 31> H 	 -115.791 	 55.2026 	 116.464
| 32> C 	 -114.481 	 53.8584 	 115.475
| 33> H 	 -113.799 	 53.932 	 116.343
| 34> H 	 -113.92 	 53.7209 	 114.606
| 35> C 	 -115.24 	 52.58 	 115.755
| 36> H 	 -115.733 	 52.1376 	 114.865
| 37> H 	 -115.925 	 52.7421 	 116.6
| 38> H 	 -114.619 	 51.7364 	 115.985
| 39> H 	 -115.439 	 54.2731 	 109.609
| 40> H 	 -114.902 	 59.6788 	 115.821
| 41> *
| 42>
| 43>                          ****END OF INPUT****

CARTESIAN COORDINATES (ANGSTROEM)
---------------------------------
  S    -115.663000   55.240400  111.981000
  C    -114.955000   54.834300  110.402000
  C    -113.595000   55.301700  110.375000
  C    -113.139000   55.810900  111.649000
  C    -114.182000   55.973200  112.551000
  H    -112.079000   56.062700  111.773000
  C    -112.711000   55.141100  109.188000
  H    -112.824000   54.078500  108.822000
  H    -111.657000   55.481300  109.368000
  C    -113.215000   55.894200  107.893000
  H    -112.677000   55.650700  106.907000
  H    -114.269000   55.762200  107.701000
  C    -113.024000   57.396400  108.123000
  H    -112.063000   57.762700  108.569000
  H    -113.202000   57.929000  107.142000
  H    -113.852000   57.731500  108.821000
  S    -113.861000   58.452800  113.855000
  C    -114.835000   58.731300  115.269000
  C    -115.356000   57.559700  115.724000
  C    -114.943000   56.375100  114.980000
  C    -114.251000   56.688400  113.820000
  H    -115.870000   57.614600  116.628000
  C    -115.433000   55.032100  115.429000
  H    -116.310000   54.691500  114.837000
  H    -115.791000   55.202600  116.464000
  C    -114.481000   53.858400  115.475000
  H    -113.799000   53.932000  116.343000
  H    -113.920000   53.720900  114.606000
  C    -115.240000   52.580000  115.755000
  H    -115.733000   52.137600  114.865000
  H    -115.925000   52.742100  116.600000
  H    -114.619000   51.736400  115.985000
  H    -115.439000   54.273100  109.609000
  H    -114.902000   59.678800  115.821000

 Total Charge           Charge          ....    0
 Multiplicity           Mult            ....    1
 Number of Electrons    NEL             ....  134
 Basis Dimension        Dim             ....  322

ORBITAL ENERGIES
----------------

  NO   OCC          E(Eh)            E(eV)
   0   2.0000     -88.970934     -2421.0222
   1   2.0000     -88.961490     -2420.7652
   2   2.0000     -10.335911      -281.2544
   3   2.0000     -10.329856      -281.0897
   4   2.0000     -10.322241      -280.8824
   5   2.0000     -10.318777      -280.7882
   6   2.0000     -10.309870      -280.5458
   7   2.0000     -10.307569      -280.4832
   8   2.0000     -10.301540      -280.3191
   9   2.0000     -10.301521      -280.3186
  10   2.0000     -10.293127      -280.0902
  11   2.0000     -10.291279      -280.0399
  12   2.0000     -10.289285      -279.9857
  13   2.0000     -10.280585      -279.7489
  14   2.0000     -10.275907      -279.6216
  15   2.0000     -10.272126      -279.5188
  16   2.0000      -8.084600      -219.9932
  17   2.0000      -8.075896      -219.7563
  18   2.0000      -6.043152      -164.4425
  19   2.0000      -6.039125      -164.3329
  20   2.0000      -6.035511      -164.2346
  21   2.0000      -6.034548      -164.2084
  22   2.0000      -6.030418      -164.0960
  23   2.0000      -6.026534      -163.9903
  24   2.0000      -1.002410       -27.2770
  25   2.0000      -0.978779       -26.6339
  26   2.0000      -0.913514       -24.8580
  27   2.0000      -0.908878       -24.7318
  28   2.0000      -0.865142       -23.5417
  29   2.0000      -0.851211       -23.1626
  30   2.0000      -0.844116       -22.9696
  31   2.0000      -0.813320       -22.1316
  32   2.0000      -0.779128       -21.2011
  33   2.0000      -0.762897       -20.7595
  34   2.0000      -0.708081       -19.2679
  35   2.0000      -0.695880       -18.9359
  36   2.0000      -0.686795       -18.6887
  37   2.0000      -0.660513       -17.9735
  38   2.0000      -0.636495       -17.3199
  39   2.0000      -0.615434       -16.7468
  40   2.0000      -0.596501       -16.2316
  41   2.0000      -0.574409       -15.6305
  42   2.0000      -0.572324       -15.5737
  43   2.0000      -0.545796       -14.8519
  44   2.0000      -0.543764       -14.7966
  45   2.0000      -0.524571       -14.2743
  46   2.0000      -0.516041       -14.0422
  47   2.0000      -0.508923       -13.8485
  48   2.0000      -0.501906       -13.6576
  49   2.0000      -0.493125       -13.4186
  50   2.0000      -0.486740       -13.2449
  51   2.0000      -0.484145       -13.1743
  52   2.0000      -0.469272       -12.7695
  53   2.0000      -0.463691       -12.6177
  54   2.0000      -0.455609       -12.3978
  55   2.0000      -0.441739       -12.0203
  56   2.0000      -0.441100       -12.0029
  57   2.0000      -0.433641       -11.8000
  58   2.0000      -0.429519       -11.6878
  59   2.0000      -0.420584       -11.4447
  60   2.0000      -0.416783       -11.3412
  61   2.0000      -0.413278       -11.2459
  62   2.0000      -0.408008       -11.1025
  63   2.0000      -0.343159        -9.3378
  64   2.0000      -0.328402        -8.9363
  65   2.0000      -0.326520        -8.8851
  66   2.0000      -0.291663        -7.9365
  67   0.0000       0.019848         0.5401
  68   0.0000       0.062524         1.7014
  69   0.0000       0.099466         2.7066
  70   0.0000       0.115751         3.1497
  71   0.0000       0.127327         3.4647

MULLIKEN ATOMIC CHARGES
-----------------------
   0 S :    0.119069
   1 C :   -0.132714
   2 C :   -0.102535
   3 C :    0.037602
   4 C :   -0.151095
   5 H :    0.026354
   6 C :    0.027591
   7 H :    0.051769
   8 H :    0.040851
   9 C :   -0.089528
  10 H :    0.044019
  11 H :    0.028731
  12 C :   -0.115269
  13 H :    0.039221
  14 H :    0.038728
  15 H :    0.052668
  16 S :    0.089996
  17 C :   -0.096126
  18 C :   -0.013797
  19 C :   -0.044786
  20 C :   -0.108719
  21 H :   -0.001269
  22 C :    0.026781
  23 H :    0.046564
  24 H :    0.020059
  25 C :   -0.028371
  26 H :    0.029651
  27 H :    0.024203
  28 C :   -0.069093
  29 H :    0.031526
  30 H :    0.030168
  31 H :    0.018876
  32 H :    0.058729
  33 H :    0.070143
Sum of atomic charges:   -0.0000000

LOEWDIN ATOMIC CHARGES
----------------------
   0 S :    0.418516
   1 C :   -0.202512
   2 C :   -0.057457
   3 C :   -0.065904
   4 C :   -0.189007
   5 H :    0.038164
   6 C :   -0.041817
   7 H :    0.043056
   8 H :    0.035454
   9 C :   -0.046771
  10 H :    0.030176
  11 H :    0.021169
  12 C :   -0.084384
  13 H :    0.023902
  14 H :    0.027697
  15 H :    0.033186
  16 S :    0.382025
  17 C :   -0.179778
  18 C :   -0.071475
  19 C :   -0.052056
  20 C :   -0.191383
  21 H :    0.021352
  22 C :   -0.042849
  23 H :    0.033762
  24 H :    0.034541
  25 C :   -0.036677
  26 H :    0.028832
  27 H :    0.016711
  28 C :   -0.069040
  29 H :    0.027324
  30 H :    0.024843
  31 H :    0.022208
  32 H :    0.029185
  33 H :    0.039005

  Mayer bond orders larger than 0.100000
B(  0-S ,  1-C ) :   1.1398 B(  0-S ,  4-C ) :   1.1631 B(  1-C ,  2-C ) :   1.5572
B(  1-C ,  4-C ) :   0.1054 B(  1-C , 32-H ) :   0.9717 B(  2-C ,  3-C ) :   1.2651
B(  2-C ,  6-C ) :   1.0347 B(  3-C ,  4-C ) :   1.5290 B(  3-C ,  5-H ) :   0.9925
B(  4-C , 20-C ) :   1.0630 B(  6-C ,  7-H ) :   0.9379 B(  6-C ,  8-H ) :   0.9511
B(  6-C ,  9-C ) :   1.0529 B(  9-C , 10-H ) :   0.9634 B(  9-C , 11-H ) :   0.9557
B(  9-C , 12-C ) :   1.0627 B( 12-C , 13-H ) :   0.9776 B( 12-C , 14-H ) :   0.9751
B( 12-C , 15-H ) :   0.9753 B( 16-S , 17-C ) :   1.1544 B( 16-S , 20-C ) :   1.1044
B( 17-C , 18-C ) :   1.6302 B( 17-C , 33-H ) :   0.9608 B( 18-C , 19-C ) :   1.2282
B( 18-C , 21-H ) :   0.9965 B( 19-C , 20-C ) :   1.5742 B( 19-C , 22-C ) :   1.0445
B( 22-C , 23-H ) :   0.9333 B( 22-C , 24-H ) :   0.9286 B( 22-C , 25-C ) :   1.0668
B( 25-C , 26-H ) :   0.9537 B( 25-C , 27-H ) :   0.9543 B( 25-C , 28-C ) :   1.0923
B( 28-C , 29-H ) :   0.9705 B( 28-C , 30-H ) :   0.9729 B( 28-C , 31-H ) :   0.9707

Dispersion correction           -0.014524110
FINAL SINGLE POINT ENERGY     -1339.865465350501

DIPOLE MOMENT
-------------
                                X             Y             Z
Electronic contribution:     -3.47800      11.46436       6.75387
Nuclear contribution   :      3.48864     -11.69968      -6.74631
                        -----------------------------------------
Total Dipole Moment    :      0.01064      -0.23531       0.00756
                        -----------------------------------------
Magnitude (a.u.)       :      0.23567
Magnitude (Debye)      :      0.59903

Rotational constants in cm-1:     0.020168     0.008805     0.006759
Rotational constants in MHz :   604.621015   263.953627   202.616581

                             ****ORCA TERMINATED NORMALLY****
TOTAL RUN TIME: 0 days 0 hours 0 minutes 33 seconds 533 msec
