                         Program Version 4.2.1 -  RELEASE  -
|  1> ! wB97X-D3 SP def2-SVP
|  2> %pal
|  3> nprocs 16
|  4> end
|  5>
|  6> * xyz 0 1
|  7> S 	 -46.5138 	 28.2538 	 88.3224
|  8> C 	 -46.3143 	 28.0775 	 90.0415
|  9> C 	 -47.035 	 28.9942 	 90.7673
| 10> C 	 -47.6076 	 29.9981 	 89.9304
| 11> C 	 -47.4932 	 29.6796 	 88.5774
| 12> H 	 -48.0557 	 30.9481 	 90.2541
| 13> C 	 -47.0436 	 29.1518 	 92.2385
| 14> H 	 -46.6344 	 28.2732 	 92.7176
| 15> H 	 -48.0527 	 29.3238 	 92.59
| 16> C 	 -46.1873 	 30.3543 	 92.6577
| 17> H 	 -45.3064 	 30.5425 	 92.0249
| 18> H 	 -46.7807 	 31.2559 	 92.5011
| 19> C 	 -45.8852 	 30.2938 	 94.1654
| 20> H 	 -46.7966 	 30.0752 	 94.7224
| 21> H 	 -45.3349 	 29.3912 	 94.3463
| 22> H 	 -45.6919 	 31.2514 	 94.634
| 23> S 	 -49.212 	 30.0586 	 86.4554
| 24> C 	 -49.2079 	 31.538 	 85.5135
| 25> C 	 -48.4268 	 32.5069 	 86.1023
| 26> C 	 -47.6843 	 31.961 	 87.2258
| 27> C 	 -47.9596 	 30.6058 	 87.5212
| 28> H 	 -48.4615 	 33.4026 	 85.6153
| 29> C 	 -46.6436 	 32.7753 	 88.0284
| 30> H 	 -45.8746 	 33.0559 	 87.2584
| 31> H 	 -46.1145 	 32.0855 	 88.714
| 32> C 	 -47.0746 	 34.037 	 88.8583
| 33> H 	 -46.1365 	 34.2773 	 89.4227
| 34> H 	 -47.7905 	 33.6369 	 89.6329
| 35> C 	 -47.7048 	 35.1843 	 88.0416
| 36> H 	 -47.1333 	 35.1298 	 87.1339
| 37> H 	 -47.6086 	 36.259 	 88.4304
| 38> H 	 -48.7278 	 35.0604 	 87.7961
| 39> H 	 -45.9863 	 27.138 	 90.4896
| 40> H 	 -49.7459 	 31.7675 	 84.6687
| 41> *
| 42>
| 43>                          ****END OF INPUT****

CARTESIAN COORDINATES (ANGSTROEM)
---------------------------------
  S    -46.513800   28.253800   88.322400
  C    -46.314300   28.077500   90.041500
  C    -47.035000   28.994200   90.767300
  C    -47.607600   29.998100   89.930400
  C    -47.493200   29.679600   88.577400
  H    -48.055700   30.948100   90.254100
  C    -47.043600   29.151800   92.238500
  H    -46.634400   28.273200   92.717600
  H    -48.052700   29.323800   92.590000
  C    -46.187300   30.354300   92.657700
  H    -45.306400   30.542500   92.024900
  H    -46.780700   31.255900   92.501100
  C    -45.885200   30.293800   94.165400
  H    -46.796600   30.075200   94.722400
  H    -45.334900   29.391200   94.346300
  H    -45.691900   31.251400   94.634000
  S    -49.212000   30.058600   86.455400
  C    -49.207900   31.538000   85.513500
  C    -48.426800   32.506900   86.102300
  C    -47.684300   31.961000   87.225800
  C    -47.959600   30.605800   87.521200
  H    -48.461500   33.402600   85.615300
  C    -46.643600   32.775300   88.028400
  H    -45.874600   33.055900   87.258400
  H    -46.114500   32.085500   88.714000
  C    -47.074600   34.037000   88.858300
  H    -46.136500   34.277300   89.422700
  H    -47.790500   33.636900   89.632900
  C    -47.704800   35.184300   88.041600
  H    -47.133300   35.129800   87.133900
  H    -47.608600   36.259000   88.430400
  H    -48.727800   35.060400   87.796100
  H    -45.986300   27.138000   90.489600
  H    -49.745900   31.767500   84.668700

 Total Charge           Charge          ....    0
 Multiplicity           Mult            ....    1
 Number of Electrons    NEL             ....  134
 Basis Dimension        Dim             ....  322

ORBITAL ENERGIES
----------------

  NO   OCC          E(Eh)            E(eV)
   0   2.0000     -88.970244     -2421.0034
   1   2.0000     -88.961766     -2420.7727
   2   2.0000     -10.332484      -281.1612
   3   2.0000     -10.327546      -281.0268
   4   2.0000     -10.312898      -280.6282
   5   2.0000     -10.310460      -280.5619
   6   2.0000     -10.310440      -280.5613
   7   2.0000     -10.298758      -280.2435
   8   2.0000     -10.298517      -280.2369
   9   2.0000     -10.297215      -280.2015
  10   2.0000     -10.295545      -280.1560
  11   2.0000     -10.290323      -280.0139
  12   2.0000     -10.289588      -279.9939
  13   2.0000     -10.287969      -279.9499
  14   2.0000     -10.281369      -279.7703
  15   2.0000     -10.277918      -279.6764
  16   2.0000      -8.084983      -220.0036
  17   2.0000      -8.076777      -219.7803
  18   2.0000      -6.043452      -164.4507
  19   2.0000      -6.039537      -164.3441
  20   2.0000      -6.035731      -164.2406
  21   2.0000      -6.035261      -164.2278
  22   2.0000      -6.031153      -164.1160
  23   2.0000      -6.027637      -164.0204
  24   2.0000      -1.005742       -27.3676
  25   2.0000      -0.984694       -26.7949
  26   2.0000      -0.919206       -25.0129
  27   2.0000      -0.898213       -24.4416
  28   2.0000      -0.871599       -23.7174
  29   2.0000      -0.853061       -23.2130
  30   2.0000      -0.840813       -22.8797
  31   2.0000      -0.818646       -22.2765
  32   2.0000      -0.782631       -21.2965
  33   2.0000      -0.771478       -20.9930
  34   2.0000      -0.712127       -19.3780
  35   2.0000      -0.700813       -19.0701
  36   2.0000      -0.689915       -18.7735
  37   2.0000      -0.660390       -17.9701
  38   2.0000      -0.642398       -17.4805
  39   2.0000      -0.624932       -17.0053
  40   2.0000      -0.583953       -15.8902
  41   2.0000      -0.577180       -15.7059
  42   2.0000      -0.572871       -15.5886
  43   2.0000      -0.553347       -15.0573
  44   2.0000      -0.533949       -14.5295
  45   2.0000      -0.526566       -14.3286
  46   2.0000      -0.518151       -14.0996
  47   2.0000      -0.509339       -13.8598
  48   2.0000      -0.502237       -13.6666
  49   2.0000      -0.497137       -13.5278
  50   2.0000      -0.495371       -13.4797
  51   2.0000      -0.482093       -13.1184
  52   2.0000      -0.472089       -12.8462
  53   2.0000      -0.470148       -12.7934
  54   2.0000      -0.457602       -12.4520
  55   2.0000      -0.448721       -12.2103
  56   2.0000      -0.439468       -11.9585
  57   2.0000      -0.437390       -11.9020
  58   2.0000      -0.431134       -11.7318
  59   2.0000      -0.428594       -11.6626
  60   2.0000      -0.421163       -11.4604
  61   2.0000      -0.415245       -11.2994
  62   2.0000      -0.407627       -11.0921
  63   2.0000      -0.339767        -9.2455
  64   2.0000      -0.331529        -9.0214
  65   2.0000      -0.324533        -8.8310
  66   2.0000      -0.301592        -8.2067
  67   0.0000       0.034536         0.9398
  68   0.0000       0.066289         1.8038
  69   0.0000       0.113256         3.0818
  70   0.0000       0.119312         3.2467
  71   0.0000       0.125352         3.4110

MULLIKEN ATOMIC CHARGES
-----------------------
   0 S :    0.127091
   1 C :   -0.120504
   2 C :   -0.085531
   3 C :    0.003822
   4 C :   -0.145525
   5 H :    0.027717
   6 C :    0.092864
   7 H :    0.008546
   8 H :    0.032050
   9 C :   -0.104287
  10 H :    0.044867
  11 H :    0.017706
  12 C :   -0.011319
  13 H :    0.005056
  14 H :    0.031362
  15 H :    0.036973
  16 S :    0.103245
  17 C :   -0.058821
  18 C :   -0.017130
  19 C :   -0.012665
  20 C :   -0.166849
  21 H :   -0.015072
  22 C :   -0.007341
  23 H :    0.041164
  24 H :    0.034531
  25 C :   -0.076595
  26 H :    0.044461
  27 H :    0.030706
  28 C :   -0.048745
  29 H :    0.022699
  30 H :    0.049705
  31 H :    0.037648
  32 H :    0.056209
  33 H :    0.021960
Sum of atomic charges:    0.0000000

LOEWDIN ATOMIC CHARGES
----------------------
   0 S :    0.417966
   1 C :   -0.206225
   2 C :   -0.062755
   3 C :   -0.053453
   4 C :   -0.201187
   5 H :    0.035532
   6 C :   -0.026986
   7 H :    0.024635
   8 H :    0.033853
   9 C :   -0.039005
  10 H :    0.026698
  11 H :    0.020289
  12 C :   -0.070418
  13 H :    0.026304
  14 H :    0.024806
  15 H :    0.030431
  16 S :    0.409532
  17 C :   -0.166894
  18 C :   -0.064167
  19 C :   -0.054184
  20 C :   -0.210405
  21 H :    0.018554
  22 C :   -0.043840
  23 H :    0.033136
  24 H :    0.032583
  25 C :   -0.043807
  26 H :    0.033050
  27 H :    0.023522
  28 C :   -0.073748
  29 H :    0.021782
  30 H :    0.038490
  31 H :    0.022090
  32 H :    0.029680
  33 H :    0.014141

  Mayer bond orders larger than 0.100000
B(  0-S ,  1-C ) :   1.1359 B(  0-S ,  4-C ) :   1.1632 B(  1-C ,  2-C ) :   1.6261
B(  1-C , 32-H ) :   0.9546 B(  2-C ,  3-C ) :   1.2200 B(  2-C ,  6-C ) :   1.0482
B(  3-C ,  4-C ) :   1.5667 B(  3-C ,  5-H ) :   0.9955 B(  4-C , 20-C ) :   1.0128
B(  6-C ,  7-H ) :   0.9464 B(  6-C ,  8-H ) :   0.9250 B(  6-C ,  9-C ) :   1.0510
B(  9-C , 10-H ) :   0.9636 B(  9-C , 11-H ) :   0.9479 B(  9-C , 12-C ) :   1.0875
B( 12-C , 13-H ) :   0.9619 B( 12-C , 14-H ) :   0.9758 B( 12-C , 15-H ) :   0.9707
B( 16-S , 17-C ) :   1.1585 B( 16-S , 20-C ) :   1.1469 B( 17-C , 18-C ) :   1.6290
B( 17-C , 33-H ) :   0.9720 B( 18-C , 19-C ) :   1.2078 B( 18-C , 21-H ) :   1.0093
B( 19-C , 20-C ) :   1.5980 B( 19-C , 22-C ) :   1.0310 B( 22-C , 23-H ) :   0.9372
B( 22-C , 24-H ) :   0.9374 B( 22-C , 25-C ) :   1.0710 B( 25-C , 26-H ) :   0.9550
B( 25-C , 27-H ) :   0.9557 B( 25-C , 28-C ) :   1.0601 B( 28-C , 29-H ) :   0.9754
B( 28-C , 30-H ) :   0.9727 B( 28-C , 31-H ) :   0.9723

Dispersion correction           -0.014679598
FINAL SINGLE POINT ENERGY     -1339.863727213088

DIPOLE MOMENT
-------------
                                X             Y             Z
Electronic contribution:     -6.96780     -19.57132     -21.83016
Nuclear contribution   :      7.01066      20.06460      22.31162
                        -----------------------------------------
Total Dipole Moment    :      0.04286       0.49328       0.48146
                        -----------------------------------------
Magnitude (a.u.)       :      0.69063
Magnitude (Debye)      :      1.75543

Rotational constants in cm-1:     0.017870     0.009048     0.006536
Rotational constants in MHz :   535.723497   271.255612   195.936312

                             ****ORCA TERMINATED NORMALLY****
TOTAL RUN TIME: 0 days 0 hours 0 minutes 30 seconds 294 msec
