                         Program Version 4.2.1 -  RELEASE  -
|  1> ! wB97X-D3 SP def2-SVP
|  2> %pal
|  3> nprocs 16
|  4> end
|  5>
|  6> * xyz 0 1
|  7> S 	 37.6203 	 11.5271 	 84.8462
|  8> C 	 37.7237 	 10.916 	 83.1467
|  9> C 	 39.0285 	 11.0991 	 82.692
| 10> C 	 39.7643 	 11.9046 	 83.5685
| 11> C 	 39.2003 	 12.2808 	 84.777
| 12> H 	 40.7196 	 12.2452 	 83.3201
| 13> C 	 39.6498 	 10.5081 	 81.4471
| 14> H 	 40.0114 	 11.3651 	 80.9298
| 15> H 	 38.8591 	 9.99267 	 80.9016
| 16> C 	 40.8632 	 9.56189 	 81.5816
| 17> H 	 41.6436 	 9.971 	 82.2283
| 18> H 	 40.5203 	 8.67237 	 82.0768
| 19> C 	 41.5092 	 9.23577 	 80.2747
| 20> H 	 42.0876 	 10.0669 	 79.8138
| 21> H 	 42.2771 	 8.43922 	 80.489
| 22> H 	 40.8204 	 8.84251 	 79.5381
| 23> S 	 38.9867 	 14.6178 	 86.1415
| 24> C 	 40.2571 	 14.9319 	 87.317
| 25> C 	 41.2056 	 13.9037 	 87.4096
| 26> C 	 40.95 	 12.7786 	 86.604
| 27> C 	 39.7321 	 12.9734 	 85.8844
| 28> H 	 41.9733 	 13.9901 	 88.1293
| 29> C 	 41.8731 	 11.6243 	 86.478
| 30> H 	 42.7917 	 11.6883 	 87.1251
| 31> H 	 42.1475 	 11.5367 	 85.4504
| 32> C 	 41.2729 	 10.2991 	 86.9791
| 33> H 	 40.279 	 10.3181 	 86.516
| 34> H 	 41.1086 	 10.3289 	 88.1289
| 35> C 	 41.8768 	 9.0055 	 86.4874
| 36> H 	 41.4368 	 8.1521 	 86.8459
| 37> H 	 42.9279 	 8.80556 	 86.849
| 38> H 	 41.8673 	 9.00639 	 85.429
| 39> H 	 37.0191 	 10.2889 	 82.6646
| 40> H 	 40.4631 	 15.8415 	 87.8501
| 41> *
| 42>
| 43>                          ****END OF INPUT****

CARTESIAN COORDINATES (ANGSTROEM)
---------------------------------
  S     37.620300   11.527100   84.846200
  C     37.723700   10.916000   83.146700
  C     39.028500   11.099100   82.692000
  C     39.764300   11.904600   83.568500
  C     39.200300   12.280800   84.777000
  H     40.719600   12.245200   83.320100
  C     39.649800   10.508100   81.447100
  H     40.011400   11.365100   80.929800
  H     38.859100    9.992670   80.901600
  C     40.863200    9.561890   81.581600
  H     41.643600    9.971000   82.228300
  H     40.520300    8.672370   82.076800
  C     41.509200    9.235770   80.274700
  H     42.087600   10.066900   79.813800
  H     42.277100    8.439220   80.489000
  H     40.820400    8.842510   79.538100
  S     38.986700   14.617800   86.141500
  C     40.257100   14.931900   87.317000
  C     41.205600   13.903700   87.409600
  C     40.950000   12.778600   86.604000
  C     39.732100   12.973400   85.884400
  H     41.973300   13.990100   88.129300
  C     41.873100   11.624300   86.478000
  H     42.791700   11.688300   87.125100
  H     42.147500   11.536700   85.450400
  C     41.272900   10.299100   86.979100
  H     40.279000   10.318100   86.516000
  H     41.108600   10.328900   88.128900
  C     41.876800    9.005500   86.487400
  H     41.436800    8.152100   86.845900
  H     42.927900    8.805560   86.849000
  H     41.867300    9.006390   85.429000
  H     37.019100   10.288900   82.664600
  H     40.463100   15.841500   87.850100

 Total Charge           Charge          ....    0
 Multiplicity           Mult            ....    1
 Number of Electrons    NEL             ....  134
 Basis Dimension        Dim             ....  322

ORBITAL ENERGIES
----------------

  NO   OCC          E(Eh)            E(eV)
   0   2.0000     -88.972700     -2421.0702
   1   2.0000     -88.961966     -2420.7782
   2   2.0000     -10.330653      -281.1114
   3   2.0000     -10.325947      -280.9833
   4   2.0000     -10.321212      -280.8545
   5   2.0000     -10.315631      -280.7026
   6   2.0000     -10.311134      -280.5802
   7   2.0000     -10.299272      -280.2574
   8   2.0000     -10.293969      -280.1131
   9   2.0000     -10.292247      -280.0663
  10   2.0000     -10.291235      -280.0387
  11   2.0000     -10.288051      -279.9521
  12   2.0000     -10.287481      -279.9366
  13   2.0000     -10.285364      -279.8790
  14   2.0000     -10.284268      -279.8492
  15   2.0000     -10.270365      -279.4709
  16   2.0000      -8.085937      -220.0295
  17   2.0000      -8.075771      -219.7529
  18   2.0000      -6.044358      -164.4753
  19   2.0000      -6.040753      -164.3772
  20   2.0000      -6.036759      -164.2686
  21   2.0000      -6.034319      -164.2022
  22   2.0000      -6.030406      -164.0957
  23   2.0000      -6.026514      -163.9898
  24   2.0000      -1.002471       -27.2786
  25   2.0000      -0.977691       -26.6043
  26   2.0000      -0.916736       -24.9457
  27   2.0000      -0.912324       -24.8256
  28   2.0000      -0.874344       -23.7921
  29   2.0000      -0.856035       -23.2939
  30   2.0000      -0.845122       -22.9969
  31   2.0000      -0.812826       -22.1181
  32   2.0000      -0.789476       -21.4827
  33   2.0000      -0.772534       -21.0217
  34   2.0000      -0.713905       -19.4263
  35   2.0000      -0.700132       -19.0515
  36   2.0000      -0.688315       -18.7300
  37   2.0000      -0.663031       -18.0420
  38   2.0000      -0.643529       -17.5113
  39   2.0000      -0.624354       -16.9895
  40   2.0000      -0.597863       -16.2687
  41   2.0000      -0.573709       -15.6114
  42   2.0000      -0.572169       -15.5695
  43   2.0000      -0.562535       -15.3073
  44   2.0000      -0.528569       -14.3831
  45   2.0000      -0.523046       -14.2328
  46   2.0000      -0.519316       -14.1313
  47   2.0000      -0.515887       -14.0380
  48   2.0000      -0.505724       -13.7614
  49   2.0000      -0.499954       -13.6044
  50   2.0000      -0.498269       -13.5586
  51   2.0000      -0.483707       -13.1623
  52   2.0000      -0.471903       -12.8411
  53   2.0000      -0.465258       -12.6603
  54   2.0000      -0.458265       -12.4700
  55   2.0000      -0.447836       -12.1862
  56   2.0000      -0.444491       -12.0952
  57   2.0000      -0.442059       -12.0290
  58   2.0000      -0.431841       -11.7510
  59   2.0000      -0.429909       -11.6984
  60   2.0000      -0.425347       -11.5743
  61   2.0000      -0.415897       -11.3171
  62   2.0000      -0.399444       -10.8694
  63   2.0000      -0.339820        -9.2470
  64   2.0000      -0.329165        -8.9570
  65   2.0000      -0.326258        -8.8779
  66   2.0000      -0.293636        -7.9903
  67   0.0000       0.023088         0.6283
  68   0.0000       0.053397         1.4530
  69   0.0000       0.101561         2.7636
  70   0.0000       0.111858         3.0438
  71   0.0000       0.128786         3.5044

MULLIKEN ATOMIC CHARGES
-----------------------
   0 S :    0.092614
   1 C :   -0.110008
   2 C :   -0.087289
   3 C :    0.045944
   4 C :   -0.157831
   5 H :   -0.021565
   6 C :    0.087808
   7 H :    0.021940
   8 H :    0.017442
   9 C :   -0.065617
  10 H :    0.026292
  11 H :    0.026084
  12 C :   -0.065456
  13 H :    0.038637
  14 H :    0.039419
  15 H :    0.032258
  16 S :    0.121699
  17 C :   -0.071172
  18 C :   -0.051748
  19 C :    0.016509
  20 C :   -0.182385
  21 H :    0.002917
  22 C :    0.103824
  23 H :    0.030130
  24 H :    0.017604
  25 C :   -0.137283
  26 H :    0.034072
  27 H :    0.043276
  28 C :    0.012220
  29 H :    0.013378
  30 H :    0.017333
  31 H :    0.023230
  32 H :    0.034610
  33 H :    0.051113
Sum of atomic charges:   -0.0000000

LOEWDIN ATOMIC CHARGES
----------------------
   0 S :    0.383463
   1 C :   -0.178715
   2 C :   -0.061546
   3 C :   -0.062061
   4 C :   -0.202787
   5 H :    0.016260
   6 C :   -0.027107
   7 H :    0.029383
   8 H :    0.029950
   9 C :   -0.041193
  10 H :    0.023986
  11 H :    0.022639
  12 C :   -0.068193
  13 H :    0.028529
  14 H :    0.035384
  15 H :    0.022350
  16 S :    0.395755
  17 C :   -0.177436
  18 C :   -0.066413
  19 C :   -0.035130
  20 C :   -0.190245
  21 H :    0.024430
  22 C :   -0.032288
  23 H :    0.037675
  24 H :    0.028887
  25 C :   -0.046893
  26 H :    0.024178
  27 H :    0.032452
  28 C :   -0.059737
  29 H :    0.017665
  30 H :    0.026548
  31 H :    0.021932
  32 H :    0.020242
  33 H :    0.028033

  Mayer bond orders larger than 0.100000
B(  0-S ,  1-C ) :   1.1313 B(  0-S ,  4-C ) :   1.1418 B(  1-C ,  2-C ) :   1.5931
B(  1-C ,  4-C ) :   0.1075 B(  1-C , 32-H ) :   0.9719 B(  2-C ,  3-C ) :   1.2551
B(  2-C ,  6-C ) :   1.0270 B(  3-C ,  4-C ) :   1.5565 B(  3-C ,  5-H ) :   1.0079
B(  4-C , 20-C ) :   1.0498 B(  6-C ,  7-H ) :   0.9340 B(  6-C ,  8-H ) :   0.9384
B(  6-C ,  9-C ) :   1.0694 B(  9-C , 10-H ) :   0.9501 B(  9-C , 11-H ) :   0.9529
B(  9-C , 12-C ) :   1.0938 B( 12-C , 13-H ) :   0.9726 B( 12-C , 14-H ) :   0.9714
B( 12-C , 15-H ) :   0.9738 B( 16-S , 17-C ) :   1.1585 B( 16-S , 20-C ) :   1.1365
B( 17-C , 18-C ) :   1.6078 B( 17-C , 20-C ) :   0.1153 B( 17-C , 33-H ) :   0.9641
B( 18-C , 19-C ) :   1.2614 B( 18-C , 21-H ) :   0.9915 B( 19-C , 20-C ) :   1.5406
B( 19-C , 22-C ) :   1.0536 B( 22-C , 23-H ) :   0.9347 B( 22-C , 24-H ) :   0.9207
B( 22-C , 25-C ) :   1.0551 B( 25-C , 26-H ) :   0.9591 B( 25-C , 27-H ) :   0.9528
B( 25-C , 28-C ) :   1.0886 B( 28-C , 29-H ) :   0.9681 B( 28-C , 30-H ) :   0.9687
B( 28-C , 31-H ) :   0.9716

Dispersion correction           -0.014786155
FINAL SINGLE POINT ENERGY     -1339.862010866475

DIPOLE MOMENT
-------------
                                X             Y             Z
Electronic contribution:    -19.21818      21.72758      11.27256
Nuclear contribution   :     19.94582     -22.07312     -11.51401
                        -----------------------------------------
Total Dipole Moment    :      0.72764      -0.34554      -0.24145
                        -----------------------------------------
Magnitude (a.u.)       :      0.84092
Magnitude (Debye)      :      2.13746

Rotational constants in cm-1:     0.018267     0.008991     0.007325
Rotational constants in MHz :   547.624252   269.556694   219.591050

                             ****ORCA TERMINATED NORMALLY****
TOTAL RUN TIME: 0 days 0 hours 0 minutes 30 seconds 898 msec
