                         Program Version 4.2.1 -  RELEASE  -
|  1> ! wB97X-D3 SP def2-SVP
|  2> %pal
|  3> nprocs 16
|  4> end
|  5>
|  6> * xyz 0 1
|  7> S 	 -42.5159 	 22.5914 	 80.1651
|  8> C 	 -42.6629 	 24.3112 	 80.4219
|  9> C 	 -41.8027 	 24.9861 	 79.529
| 10> C 	 -41.0181 	 24.0669 	 78.7815
| 11> C 	 -41.3529 	 22.7221 	 78.8216
| 12> H 	 -40.2338 	 24.3108 	 78.0618
| 13> C 	 -41.7766 	 26.4147 	 79.1229
| 14> H 	 -40.743 	 26.5937 	 78.9141
| 15> H 	 -42.1636 	 27.0543 	 79.9085
| 16> C 	 -42.5522 	 26.9593 	 77.852
| 17> H 	 -42.0482 	 27.8477 	 77.4234
| 18> H 	 -42.4647 	 26.2275 	 77.0053
| 19> C 	 -44.0059 	 27.3608 	 78.1277
| 20> H 	 -44.5933 	 26.5159 	 78.6144
| 21> H 	 -43.9549 	 28.1678 	 78.8869
| 22> H 	 -44.5842 	 27.6281 	 77.2961
| 23> S 	 -40.5045 	 20.1958 	 79.0666
| 24> C 	 -39.63 	 19.3862 	 77.7447
| 25> C 	 -39.6188 	 20.1915 	 76.5785
| 26> C 	 -40.2913 	 21.4061 	 76.7909
| 27> C 	 -40.7781 	 21.578 	 78.1026
| 28> H 	 -39.1011 	 19.954 	 75.6415
| 29> C 	 -40.2951 	 22.5241 	 75.759
| 30> H 	 -39.3128 	 23.0274 	 75.5877
| 31> H 	 -41.0021 	 23.319 	 76.0538
| 32> C 	 -40.8334 	 21.9569 	 74.4376
| 33> H 	 -41.8752 	 21.6026 	 74.7073
| 34> H 	 -40.2769 	 21.086 	 74.11
| 35> C 	 -40.8015 	 23.0111 	 73.3098
| 36> H 	 -41.1857 	 23.9623 	 73.6073
| 37> H 	 -41.3604 	 22.7889 	 72.4526
| 38> H 	 -39.7792 	 23.2046 	 73.0399
| 39> H 	 -43.3493 	 24.7487 	 81.1487
| 40> H 	 -38.9974 	 18.537 	 77.8288
| 41> *
| 42>
| 43>                          ****END OF INPUT****

CARTESIAN COORDINATES (ANGSTROEM)
---------------------------------
  S    -42.515900   22.591400   80.165100
  C    -42.662900   24.311200   80.421900
  C    -41.802700   24.986100   79.529000
  C    -41.018100   24.066900   78.781500
  C    -41.352900   22.722100   78.821600
  H    -40.233800   24.310800   78.061800
  C    -41.776600   26.414700   79.122900
  H    -40.743000   26.593700   78.914100
  H    -42.163600   27.054300   79.908500
  C    -42.552200   26.959300   77.852000
  H    -42.048200   27.847700   77.423400
  H    -42.464700   26.227500   77.005300
  C    -44.005900   27.360800   78.127700
  H    -44.593300   26.515900   78.614400
  H    -43.954900   28.167800   78.886900
  H    -44.584200   27.628100   77.296100
  S    -40.504500   20.195800   79.066600
  C    -39.630000   19.386200   77.744700
  C    -39.618800   20.191500   76.578500
  C    -40.291300   21.406100   76.790900
  C    -40.778100   21.578000   78.102600
  H    -39.101100   19.954000   75.641500
  C    -40.295100   22.524100   75.759000
  H    -39.312800   23.027400   75.587700
  H    -41.002100   23.319000   76.053800
  C    -40.833400   21.956900   74.437600
  H    -41.875200   21.602600   74.707300
  H    -40.276900   21.086000   74.110000
  C    -40.801500   23.011100   73.309800
  H    -41.185700   23.962300   73.607300
  H    -41.360400   22.788900   72.452600
  H    -39.779200   23.204600   73.039900
  H    -43.349300   24.748700   81.148700
  H    -38.997400   18.537000   77.828800

 Total Charge           Charge          ....    0
 Multiplicity           Mult            ....    1
 Number of Electrons    NEL             ....  134
 Basis Dimension        Dim             ....  322

ORBITAL ENERGIES
----------------

  NO   OCC          E(Eh)            E(eV)
   0   2.0000     -88.972297     -2421.0593
   1   2.0000     -88.965228     -2420.8669
   2   2.0000     -10.335562      -281.2449
   3   2.0000     -10.331374      -281.1310
   4   2.0000     -10.323656      -280.9210
   5   2.0000     -10.322307      -280.8842
   6   2.0000     -10.305821      -280.4357
   7   2.0000     -10.304776      -280.4072
   8   2.0000     -10.302348      -280.3411
   9   2.0000     -10.295876      -280.1650
  10   2.0000     -10.295471      -280.1540
  11   2.0000     -10.293365      -280.0967
  12   2.0000     -10.292328      -280.0685
  13   2.0000     -10.289640      -279.9953
  14   2.0000     -10.281114      -279.7633
  15   2.0000     -10.270582      -279.4767
  16   2.0000      -8.087045      -220.0597
  17   2.0000      -8.079543      -219.8556
  18   2.0000      -6.045504      -164.5065
  19   2.0000      -6.041406      -164.3950
  20   2.0000      -6.038127      -164.3058
  21   2.0000      -6.037979      -164.3018
  22   2.0000      -6.033966      -164.1926
  23   2.0000      -6.030371      -164.0947
  24   2.0000      -1.008380       -27.4394
  25   2.0000      -0.984670       -26.7942
  26   2.0000      -0.912548       -24.8317
  27   2.0000      -0.906622       -24.6704
  28   2.0000      -0.870217       -23.6798
  29   2.0000      -0.852573       -23.1997
  30   2.0000      -0.846944       -23.0465
  31   2.0000      -0.814764       -22.1709
  32   2.0000      -0.781117       -21.2553
  33   2.0000      -0.772155       -21.0114
  34   2.0000      -0.706075       -19.2133
  35   2.0000      -0.701652       -19.0929
  36   2.0000      -0.697167       -18.9709
  37   2.0000      -0.662299       -18.0221
  38   2.0000      -0.643801       -17.5187
  39   2.0000      -0.622103       -16.9283
  40   2.0000      -0.600095       -16.3294
  41   2.0000      -0.567866       -15.4524
  42   2.0000      -0.566268       -15.4089
  43   2.0000      -0.552236       -15.0271
  44   2.0000      -0.536437       -14.5972
  45   2.0000      -0.523742       -14.2517
  46   2.0000      -0.517861       -14.0917
  47   2.0000      -0.516454       -14.0534
  48   2.0000      -0.507558       -13.8114
  49   2.0000      -0.501870       -13.6566
  50   2.0000      -0.485591       -13.2136
  51   2.0000      -0.482305       -13.1242
  52   2.0000      -0.473986       -12.8978
  53   2.0000      -0.468175       -12.7397
  54   2.0000      -0.460137       -12.5210
  55   2.0000      -0.453993       -12.3538
  56   2.0000      -0.441729       -12.0200
  57   2.0000      -0.435027       -11.8377
  58   2.0000      -0.433368       -11.7925
  59   2.0000      -0.427767       -11.6401
  60   2.0000      -0.422123       -11.4866
  61   2.0000      -0.417522       -11.3613
  62   2.0000      -0.407145       -11.0790
  63   2.0000      -0.355890        -9.6843
  64   2.0000      -0.335692        -9.1347
  65   2.0000      -0.323520        -8.8034
  66   2.0000      -0.285932        -7.7806
  67   0.0000       0.020488         0.5575
  68   0.0000       0.068100         1.8531
  69   0.0000       0.102178         2.7804
  70   0.0000       0.111015         3.0209
  71   0.0000       0.129296         3.5183

MULLIKEN ATOMIC CHARGES
-----------------------
   0 S :    0.090836
   1 C :   -0.119867
   2 C :   -0.066869
   3 C :    0.004442
   4 C :   -0.142349
   5 H :    0.015547
   6 C :    0.073179
   7 H :    0.025650
   8 H :    0.013024
   9 C :   -0.080327
  10 H :    0.032567
  11 H :    0.026860
  12 C :   -0.061943
  13 H :    0.038715
  14 H :    0.031429
  15 H :    0.032481
  16 S :    0.117748
  17 C :   -0.080591
  18 C :   -0.049394
  19 C :   -0.035480
  20 C :   -0.140319
  21 H :    0.035861
  22 C :    0.034556
  23 H :    0.044807
  24 H :    0.031783
  25 C :   -0.128566
  26 H :    0.043312
  27 H :    0.029181
  28 C :    0.020591
  29 H :    0.007022
  30 H :    0.023125
  31 H :    0.018702
  32 H :    0.062006
  33 H :    0.052282
Sum of atomic charges:   -0.0000000

LOEWDIN ATOMIC CHARGES
----------------------
   0 S :    0.390233
   1 C :   -0.195691
   2 C :   -0.070146
   3 C :   -0.068124
   4 C :   -0.186007
   5 H :    0.030440
   6 C :   -0.030551
   7 H :    0.032802
   8 H :    0.027306
   9 C :   -0.041645
  10 H :    0.027218
  11 H :    0.022230
  12 C :   -0.069824
  13 H :    0.031993
  14 H :    0.025883
  15 H :    0.019040
  16 S :    0.430564
  17 C :   -0.176772
  18 C :   -0.063326
  19 C :   -0.061340
  20 C :   -0.209817
  21 H :    0.037719
  22 C :   -0.037024
  23 H :    0.031045
  24 H :    0.031411
  25 C :   -0.040426
  26 H :    0.032643
  27 H :    0.017047
  28 C :   -0.059466
  29 H :    0.020156
  30 H :    0.020166
  31 H :    0.024048
  32 H :    0.034195
  33 H :    0.024022

  Mayer bond orders larger than 0.100000
B(  0-S ,  1-C ) :   1.1516 B(  0-S ,  4-C ) :   1.1369 B(  1-C ,  2-C ) :   1.5588
B(  1-C ,  4-C ) :   0.1056 B(  1-C , 32-H ) :   0.9725 B(  2-C ,  3-C ) :   1.2450
B(  2-C ,  6-C ) :   1.0539 B(  3-C ,  4-C ) :   1.5741 B(  3-C ,  5-H ) :   0.9865
B(  4-C , 20-C ) :   1.0504 B(  6-C ,  7-H ) :   0.9319 B(  6-C ,  8-H ) :   0.9408
B(  6-C ,  9-C ) :   1.0509 B(  9-C , 10-H ) :   0.9569 B(  9-C , 11-H ) :   0.9555
B(  9-C , 12-C ) :   1.0750 B( 12-C , 13-H ) :   0.9767 B( 12-C , 14-H ) :   0.9739
B( 12-C , 15-H ) :   0.9746 B( 16-S , 17-C ) :   1.1661 B( 16-S , 20-C ) :   1.1655
B( 17-C , 18-C ) :   1.5669 B( 17-C , 20-C ) :   0.1077 B( 17-C , 33-H ) :   0.9715
B( 18-C , 19-C ) :   1.2861 B( 18-C , 21-H ) :   0.9822 B( 19-C , 20-C ) :   1.5474
B( 19-C , 22-C ) :   1.0405 B( 22-C , 23-H ) :   0.9411 B( 22-C , 24-H ) :   0.9332
B( 22-C , 25-C ) :   1.0444 B( 25-C , 26-H ) :   0.9573 B( 25-C , 27-H ) :   0.9610
B( 25-C , 28-C ) :   1.0783 B( 28-C , 29-H ) :   0.9709 B( 28-C , 30-H ) :   0.9737
B( 28-C , 31-H ) :   0.9713

Dispersion correction           -0.013799581
FINAL SINGLE POINT ENERGY     -1339.870985949391

DIPOLE MOMENT
-------------
                                X             Y             Z
Electronic contribution:      3.12681     -22.25752      21.79204
Nuclear contribution   :     -2.86808      22.73135     -22.35229
                        -----------------------------------------
Total Dipole Moment    :      0.25873       0.47384      -0.56024
                        -----------------------------------------
Magnitude (a.u.)       :      0.77804
Magnitude (Debye)      :      1.97761

Rotational constants in cm-1:     0.016870     0.009366     0.006420
Rotational constants in MHz :   505.748310   280.772771   192.468244

                             ****ORCA TERMINATED NORMALLY****
TOTAL RUN TIME: 0 days 0 hours 0 minutes 30 seconds 11 msec
