                         Program Version 4.2.1 -  RELEASE  -
|  1> ! wB97X-D3 SP def2-SVP
|  2> %pal
|  3> nprocs 16
|  4> end
|  5>
|  6> * xyz 0 1
|  7> S 	 51.2035 	 20.3322 	 78.616
|  8> C 	 51.3253 	 20.7562 	 80.3108
|  9> C 	 50.0941 	 20.6376 	 80.979
| 10> C 	 49.0933 	 19.9792 	 80.1398
| 11> C 	 49.5272 	 19.95 	 78.7943
| 12> H 	 48.0393 	 19.7304 	 80.4694
| 13> C 	 49.65 	 21.0005 	 82.3742
| 14> H 	 48.794 	 21.6918 	 82.17
| 15> H 	 50.2919 	 21.692 	 82.8877
| 16> C 	 48.9923 	 19.9229 	 83.2925
| 17> H 	 48.9383 	 20.3655 	 84.3308
| 18> H 	 47.9395 	 19.7567 	 82.9533
| 19> C 	 49.6196 	 18.5527 	 83.5398
| 20> H 	 50.1485 	 18.2475 	 82.7246
| 21> H 	 50.3812 	 18.4873 	 84.2816
| 22> H 	 48.9542 	 17.6796 	 83.8405
| 23> S 	 49.3704 	 18.2482 	 76.6285
| 24> C 	 47.789 	 18.0624 	 75.8156
| 25> C 	 46.9107 	 19.004 	 76.3311
| 26> C 	 47.4369 	 19.8915 	 77.3086
| 27> C 	 48.727 	 19.4999 	 77.6627
| 28> H 	 45.8563 	 18.9514 	 75.9933
| 29> C 	 46.6445 	 21.0588 	 77.8567
| 30> H 	 46.9266 	 21.7655 	 77.0833
| 31> H 	 47.111 	 21.3852 	 78.8251
| 32> C 	 45.1466 	 20.883 	 78.0238
| 33> H 	 44.742 	 20.0033 	 78.6318
| 34> H 	 44.974 	 20.6576 	 77.0032
| 35> C 	 44.3091 	 22.1189 	 78.3954
| 36> H 	 44.7461 	 22.6626 	 79.2732
| 37> H 	 43.2506 	 21.9079 	 78.5102
| 38> H 	 44.3192 	 22.976 	 77.7843
| 39> H 	 52.2486 	 21.1701 	 80.6541
| 40> H 	 47.5013 	 17.1228 	 75.3605
| 41> *
| 42>
| 43>                          ****END OF INPUT****

CARTESIAN COORDINATES (ANGSTROEM)
---------------------------------
  S     51.203500   20.332200   78.616000
  C     51.325300   20.756200   80.310800
  C     50.094100   20.637600   80.979000
  C     49.093300   19.979200   80.139800
  C     49.527200   19.950000   78.794300
  H     48.039300   19.730400   80.469400
  C     49.650000   21.000500   82.374200
  H     48.794000   21.691800   82.170000
  H     50.291900   21.692000   82.887700
  C     48.992300   19.922900   83.292500
  H     48.938300   20.365500   84.330800
  H     47.939500   19.756700   82.953300
  C     49.619600   18.552700   83.539800
  H     50.148500   18.247500   82.724600
  H     50.381200   18.487300   84.281600
  H     48.954200   17.679600   83.840500
  S     49.370400   18.248200   76.628500
  C     47.789000   18.062400   75.815600
  C     46.910700   19.004000   76.331100
  C     47.436900   19.891500   77.308600
  C     48.727000   19.499900   77.662700
  H     45.856300   18.951400   75.993300
  C     46.644500   21.058800   77.856700
  H     46.926600   21.765500   77.083300
  H     47.111000   21.385200   78.825100
  C     45.146600   20.883000   78.023800
  H     44.742000   20.003300   78.631800
  H     44.974000   20.657600   77.003200
  C     44.309100   22.118900   78.395400
  H     44.746100   22.662600   79.273200
  H     43.250600   21.907900   78.510200
  H     44.319200   22.976000   77.784300
  H     52.248600   21.170100   80.654100
  H     47.501300   17.122800   75.360500

 Total Charge           Charge          ....    0
 Multiplicity           Mult            ....    1
 Number of Electrons    NEL             ....  134
 Basis Dimension        Dim             ....  322

ORBITAL ENERGIES
----------------

  NO   OCC          E(Eh)            E(eV)
   0   2.0000     -88.966980     -2420.9146
   1   2.0000     -88.964115     -2420.8366
   2   2.0000     -10.331138      -281.1246
   3   2.0000     -10.326455      -280.9971
   4   2.0000     -10.319063      -280.7960
   5   2.0000     -10.316054      -280.7141
   6   2.0000     -10.310767      -280.5702
   7   2.0000     -10.305696      -280.4322
   8   2.0000     -10.302861      -280.3551
   9   2.0000     -10.299311      -280.2585
  10   2.0000     -10.298916      -280.2478
  11   2.0000     -10.298431      -280.2345
  12   2.0000     -10.296627      -280.1855
  13   2.0000     -10.293499      -280.1003
  14   2.0000     -10.280055      -279.7345
  15   2.0000     -10.267676      -279.3977
  16   2.0000      -8.082188      -219.9275
  17   2.0000      -8.078564      -219.8289
  18   2.0000      -6.040648      -164.3744
  19   2.0000      -6.037089      -164.2775
  20   2.0000      -6.036680      -164.2664
  21   2.0000      -6.033098      -164.1689
  22   2.0000      -6.032944      -164.1647
  23   2.0000      -6.029333      -164.0665
  24   2.0000      -1.004749       -27.3406
  25   2.0000      -0.980285       -26.6749
  26   2.0000      -0.913794       -24.8656
  27   2.0000      -0.907351       -24.6903
  28   2.0000      -0.865991       -23.5648
  29   2.0000      -0.852935       -23.2095
  30   2.0000      -0.845480       -23.0067
  31   2.0000      -0.810495       -22.0547
  32   2.0000      -0.788273       -21.4500
  33   2.0000      -0.777826       -21.1657
  34   2.0000      -0.711655       -19.3651
  35   2.0000      -0.702898       -19.1268
  36   2.0000      -0.695938       -18.9374
  37   2.0000      -0.654267       -17.8035
  38   2.0000      -0.637936       -17.3591
  39   2.0000      -0.619292       -16.8518
  40   2.0000      -0.595277       -16.1983
  41   2.0000      -0.566912       -15.4264
  42   2.0000      -0.556439       -15.1415
  43   2.0000      -0.543575       -14.7914
  44   2.0000      -0.540376       -14.7044
  45   2.0000      -0.537876       -14.6364
  46   2.0000      -0.514341       -13.9959
  47   2.0000      -0.511618       -13.9218
  48   2.0000      -0.507460       -13.8087
  49   2.0000      -0.498047       -13.5526
  50   2.0000      -0.489987       -13.3332
  51   2.0000      -0.483306       -13.1514
  52   2.0000      -0.476348       -12.9621
  53   2.0000      -0.459266       -12.4973
  54   2.0000      -0.453166       -12.3313
  55   2.0000      -0.448312       -12.1992
  56   2.0000      -0.446547       -12.1512
  57   2.0000      -0.440738       -11.9931
  58   2.0000      -0.438492       -11.9320
  59   2.0000      -0.422325       -11.4920
  60   2.0000      -0.415748       -11.3131
  61   2.0000      -0.411579       -11.1996
  62   2.0000      -0.402504       -10.9527
  63   2.0000      -0.345460        -9.4004
  64   2.0000      -0.330580        -8.9955
  65   2.0000      -0.326089        -8.8733
  66   2.0000      -0.288107        -7.8398
  67   0.0000       0.027582         0.7505
  68   0.0000       0.065540         1.7834
  69   0.0000       0.104052         2.8314
  70   0.0000       0.109662         2.9841
  71   0.0000       0.127736         3.4759

MULLIKEN ATOMIC CHARGES
-----------------------
   0 S :    0.110200
   1 C :   -0.127546
   2 C :   -0.070080
   3 C :   -0.001443
   4 C :   -0.167214
   5 H :    0.046252
   6 C :    0.069385
   7 H :    0.039530
   8 H :    0.015011
   9 C :   -0.105390
  10 H :    0.042918
  11 H :    0.038790
  12 C :   -0.015171
  13 H :    0.008050
  14 H :    0.009664
  15 H :    0.038279
  16 S :    0.093854
  17 C :   -0.097782
  18 C :   -0.079583
  19 C :   -0.032410
  20 C :   -0.153521
  21 H :    0.040488
  22 C :    0.076891
  23 H :    0.051103
  24 H :    0.029066
  25 C :   -0.085121
  26 H :    0.052159
  27 H :    0.020797
  28 C :   -0.032632
  29 H :    0.021417
  30 H :    0.040677
  31 H :    0.008306
  32 H :    0.043684
  33 H :    0.071372
Sum of atomic charges:    0.0000000

LOEWDIN ATOMIC CHARGES
----------------------
   0 S :    0.412900
   1 C :   -0.201169
   2 C :   -0.057845
   3 C :   -0.067321
   4 C :   -0.197568
   5 H :    0.042469
   6 C :   -0.039998
   7 H :    0.047316
   8 H :    0.025261
   9 C :   -0.046567
  10 H :    0.036685
  11 H :    0.027868
  12 C :   -0.074090
  13 H :    0.012995
  14 H :    0.020229
  15 H :    0.038506
  16 S :    0.387992
  17 C :   -0.183136
  18 C :   -0.073319
  19 C :   -0.057749
  20 C :   -0.200212
  21 H :    0.036611
  22 C :   -0.031398
  23 H :    0.044747
  24 H :    0.028879
  25 C :   -0.049223
  26 H :    0.038707
  27 H :    0.019483
  28 C :   -0.073825
  29 H :    0.030766
  30 H :    0.030165
  31 H :    0.019063
  32 H :    0.020395
  33 H :    0.032382

  Mayer bond orders larger than 0.100000
B(  0-S ,  1-C ) :   1.1282 B(  0-S ,  4-C ) :   1.1717 B(  1-C ,  2-C ) :   1.5997
B(  1-C , 32-H ) :   0.9757 B(  2-C ,  3-C ) :   1.2160 B(  2-C ,  6-C ) :   1.0236
B(  3-C ,  4-C ) :   1.5665 B(  3-C ,  5-H ) :   0.9788 B(  4-C , 20-C ) :   1.0359
B(  6-C ,  7-H ) :   0.9332 B(  6-C ,  8-H ) :   0.9484 B(  6-C ,  9-C ) :   1.0638
B(  9-C , 10-H ) :   0.9577 B(  9-C , 11-H ) :   0.9560 B(  9-C , 12-C ) :   1.0688
B( 12-C , 13-H ) :   0.9711 B( 12-C , 14-H ) :   0.9734 B( 12-C , 15-H ) :   0.9744
B( 16-S , 17-C ) :   1.1369 B( 16-S , 20-C ) :   1.1518 B( 17-C , 18-C ) :   1.6251
B( 17-C , 20-C ) :   0.1021 B( 17-C , 33-H ) :   0.9624 B( 18-C , 19-C ) :   1.2341
B( 18-C , 21-H ) :   0.9753 B( 19-C , 20-C ) :   1.5898 B( 19-C , 22-C ) :   1.0209
B( 22-C , 23-H ) :   0.9330 B( 22-C , 24-H ) :   0.9277 B( 22-C , 25-C ) :   1.0447
B( 25-C , 26-H ) :   0.9623 B( 25-C , 27-H ) :   0.9448 B( 25-C , 28-C ) :   1.0863
B( 28-C , 29-H ) :   0.9701 B( 28-C , 30-H ) :   0.9750 B( 28-C , 31-H ) :   0.9699

Dispersion correction           -0.013875676
FINAL SINGLE POINT ENERGY     -1339.841922175267

DIPOLE MOMENT
-------------
                                X             Y             Z
Electronic contribution:     19.69043      -7.23348     -19.79995
Nuclear contribution   :    -20.31562       7.47918      20.20749
                        -----------------------------------------
Total Dipole Moment    :     -0.62518       0.24570       0.40754
                        -----------------------------------------
Magnitude (a.u.)       :      0.78569
Magnitude (Debye)      :      1.99706

Rotational constants in cm-1:     0.015591     0.009246     0.006941
Rotational constants in MHz :   467.405462   277.183194   208.077946

                             ****ORCA TERMINATED NORMALLY****
TOTAL RUN TIME: 0 days 0 hours 0 minutes 29 seconds 736 msec
