                         Program Version 4.2.1 -  RELEASE  -
|  1> ! wB97X-D3 SP def2-SVP
|  2> %pal
|  3> nprocs 16
|  4> end
|  5>
|  6> * xyz 0 1
|  7> S 	 4.38188 	 -13.9946 	 67.1975
|  8> C 	 6.04926 	 -14.5723 	 67.085
|  9> C 	 6.96497 	 -13.5069 	 67.0715
| 10> C 	 6.31296 	 -12.2666 	 66.943
| 11> C 	 4.95744 	 -12.3542 	 67.1032
| 12> H 	 6.80598 	 -11.2937 	 66.926
| 13> C 	 8.39299 	 -13.7043 	 67.0211
| 14> H 	 8.71287 	 -12.9303 	 66.236
| 15> H 	 8.54578 	 -14.6959 	 66.7771
| 16> C 	 9.13701 	 -13.3492 	 68.2985
| 17> H 	 9.02034 	 -14.2244 	 68.9638
| 18> H 	 10.195 	 -13.2578 	 67.9561
| 19> C 	 8.76889 	 -12.02 	 68.9795
| 20> H 	 9.18595 	 -11.2449 	 68.3702
| 21> H 	 7.69756 	 -12.0222 	 69.2737
| 22> H 	 9.45157 	 -11.9648 	 69.8379
| 23> S 	 3.4804 	 -10.5478 	 65.4597
| 24> C 	 2.68108 	 -9.25897 	 66.3633
| 25> C 	 2.80489 	 -9.37953 	 67.7453
| 26> C 	 3.5586 	 -10.5167 	 68.1297
| 27> C 	 4.02943 	 -11.2218 	 67.0231
| 28> H 	 2.36241 	 -8.63713 	 68.3875
| 29> C 	 3.96042 	 -10.805 	 69.556
| 30> H 	 4.58087 	 -10.034 	 69.951
| 31> H 	 4.63664 	 -11.6091 	 69.5805
| 32> C 	 2.77129 	 -11.0468 	 70.4884
| 33> H 	 1.93009 	 -10.3637 	 70.3677
| 34> H 	 3.21381 	 -11.0069 	 71.502
| 35> C 	 2.2954 	 -12.4898 	 70.2592
| 36> H 	 3.14335 	 -13.179 	 70.3853
| 37> H 	 1.85207 	 -12.5483 	 69.2771
| 38> H 	 1.50348 	 -12.8617 	 70.9773
| 39> H 	 6.26125 	 -15.5853 	 67.0072
| 40> H 	 2.03134 	 -8.49517 	 65.9416
| 41> *
| 42>
| 43>                          ****END OF INPUT****

CARTESIAN COORDINATES (ANGSTROEM)
---------------------------------
  S      4.381880  -13.994600   67.197500
  C      6.049260  -14.572300   67.085000
  C      6.964970  -13.506900   67.071500
  C      6.312960  -12.266600   66.943000
  C      4.957440  -12.354200   67.103200
  H      6.805980  -11.293700   66.926000
  C      8.392990  -13.704300   67.021100
  H      8.712870  -12.930300   66.236000
  H      8.545780  -14.695900   66.777100
  C      9.137010  -13.349200   68.298500
  H      9.020340  -14.224400   68.963800
  H     10.195000  -13.257800   67.956100
  C      8.768890  -12.020000   68.979500
  H      9.185950  -11.244900   68.370200
  H      7.697560  -12.022200   69.273700
  H      9.451570  -11.964800   69.837900
  S      3.480400  -10.547800   65.459700
  C      2.681080   -9.258970   66.363300
  C      2.804890   -9.379530   67.745300
  C      3.558600  -10.516700   68.129700
  C      4.029430  -11.221800   67.023100
  H      2.362410   -8.637130   68.387500
  C      3.960420  -10.805000   69.556000
  H      4.580870  -10.034000   69.951000
  H      4.636640  -11.609100   69.580500
  C      2.771290  -11.046800   70.488400
  H      1.930090  -10.363700   70.367700
  H      3.213810  -11.006900   71.502000
  C      2.295400  -12.489800   70.259200
  H      3.143350  -13.179000   70.385300
  H      1.852070  -12.548300   69.277100
  H      1.503480  -12.861700   70.977300
  H      6.261250  -15.585300   67.007200
  H      2.031340   -8.495170   65.941600

 Total Charge           Charge          ....    0
 Multiplicity           Mult            ....    1
 Number of Electrons    NEL             ....  134
 Basis Dimension        Dim             ....  322

ORBITAL ENERGIES
----------------

  NO   OCC          E(Eh)            E(eV)
   0   2.0000     -88.969477     -2420.9826
   1   2.0000     -88.964967     -2420.8598
   2   2.0000     -10.323784      -280.9244
   3   2.0000     -10.322803      -280.8977
   4   2.0000     -10.318365      -280.7770
   5   2.0000     -10.309156      -280.5264
   6   2.0000     -10.299959      -280.2761
   7   2.0000     -10.294061      -280.1157
   8   2.0000     -10.291845      -280.0553
   9   2.0000     -10.288790      -279.9722
  10   2.0000     -10.288585      -279.9666
  11   2.0000     -10.285376      -279.8793
  12   2.0000     -10.282963      -279.8137
  13   2.0000     -10.281156      -279.7645
  14   2.0000     -10.280831      -279.7556
  15   2.0000     -10.272902      -279.5399
  16   2.0000      -8.082972      -219.9488
  17   2.0000      -8.079378      -219.8510
  18   2.0000      -6.041453      -164.3963
  19   2.0000      -6.037780      -164.2963
  20   2.0000      -6.037756      -164.2957
  21   2.0000      -6.033950      -164.1921
  22   2.0000      -6.033722      -164.1859
  23   2.0000      -6.030286      -164.0924
  24   2.0000      -1.003402       -27.3040
  25   2.0000      -0.980504       -26.6809
  26   2.0000      -0.920829       -25.0570
  27   2.0000      -0.910603       -24.7788
  28   2.0000      -0.864212       -23.5164
  29   2.0000      -0.848324       -23.0841
  30   2.0000      -0.845162       -22.9980
  31   2.0000      -0.815949       -22.2031
  32   2.0000      -0.785691       -21.3798
  33   2.0000      -0.768257       -20.9053
  34   2.0000      -0.700637       -19.0653
  35   2.0000      -0.697540       -18.9810
  36   2.0000      -0.694320       -18.8934
  37   2.0000      -0.653396       -17.7798
  38   2.0000      -0.642062       -17.4714
  39   2.0000      -0.615637       -16.7523
  40   2.0000      -0.602524       -16.3955
  41   2.0000      -0.580590       -15.7987
  42   2.0000      -0.550800       -14.9880
  43   2.0000      -0.547276       -14.8921
  44   2.0000      -0.545937       -14.8557
  45   2.0000      -0.540071       -14.6961
  46   2.0000      -0.520092       -14.1524
  47   2.0000      -0.512652       -13.9500
  48   2.0000      -0.502957       -13.6861
  49   2.0000      -0.489883       -13.3304
  50   2.0000      -0.481435       -13.1005
  51   2.0000      -0.476345       -12.9620
  52   2.0000      -0.467177       -12.7125
  53   2.0000      -0.462264       -12.5788
  54   2.0000      -0.459413       -12.5013
  55   2.0000      -0.446800       -12.1580
  56   2.0000      -0.446235       -12.1427
  57   2.0000      -0.436040       -11.8653
  58   2.0000      -0.434479       -11.8228
  59   2.0000      -0.424708       -11.5569
  60   2.0000      -0.420981       -11.4555
  61   2.0000      -0.414590       -11.2816
  62   2.0000      -0.412156       -11.2153
  63   2.0000      -0.337090        -9.1727
  64   2.0000      -0.329154        -8.9567
  65   2.0000      -0.315572        -8.5872
  66   2.0000      -0.304530        -8.2867
  67   0.0000       0.047669         1.2971
  68   0.0000       0.049181         1.3383
  69   0.0000       0.108867         2.9624
  70   0.0000       0.117597         3.2000
  71   0.0000       0.122770         3.3407

MULLIKEN ATOMIC CHARGES
-----------------------
   0 S :    0.118513
   1 C :   -0.118110
   2 C :   -0.103971
   3 C :    0.034235
   4 C :   -0.202313
   5 H :    0.022328
   6 C :    0.122592
   7 H :    0.032454
   8 H :   -0.003674
   9 C :   -0.114420
  10 H :    0.031120
  11 H :    0.033873
  12 C :   -0.044523
  13 H :    0.025138
  14 H :    0.075163
  15 H :    0.031278
  16 S :    0.125844
  17 C :   -0.100931
  18 C :   -0.033698
  19 C :   -0.019349
  20 C :   -0.176538
  21 H :    0.016678
  22 C :    0.116447
  23 H :    0.021944
  24 H :    0.003649
  25 C :   -0.072373
  26 H :    0.039674
  27 H :    0.029776
  28 C :   -0.075072
  29 H :    0.031873
  30 H :    0.036372
  31 H :    0.036264
  32 H :    0.022862
  33 H :    0.056893
Sum of atomic charges:   -0.0000000

LOEWDIN ATOMIC CHARGES
----------------------
   0 S :    0.407816
   1 C :   -0.187020
   2 C :   -0.063185
   3 C :   -0.060870
   4 C :   -0.198395
   5 H :    0.036713
   6 C :   -0.034367
   7 H :    0.041545
   8 H :    0.021590
   9 C :   -0.041216
  10 H :    0.022593
  11 H :    0.028357
  12 C :   -0.069477
  13 H :    0.024186
  14 H :    0.035078
  15 H :    0.032147
  16 S :    0.389048
  17 C :   -0.180850
  18 C :   -0.069972
  19 C :   -0.048558
  20 C :   -0.198134
  21 H :    0.030518
  22 C :   -0.025231
  23 H :    0.029562
  24 H :    0.022373
  25 C :   -0.036938
  26 H :    0.023418
  27 H :    0.027134
  28 C :   -0.070054
  29 H :    0.023374
  30 H :    0.021641
  31 H :    0.027380
  32 H :    0.010011
  33 H :    0.029785

  Mayer bond orders larger than 0.100000
B(  0-S ,  1-C ) :   1.1399 B(  0-S ,  4-C ) :   1.1643 B(  1-C ,  2-C ) :   1.5810
B(  1-C , 32-H ) :   0.9801 B(  2-C ,  3-C ) :   1.2366 B(  2-C ,  6-C ) :   1.0365
B(  3-C ,  4-C ) :   1.5899 B(  3-C ,  5-H ) :   0.9875 B(  4-C , 20-C ) :   1.0135
B(  6-C ,  7-H ) :   0.9319 B(  6-C ,  8-H ) :   0.9294 B(  6-C ,  9-C ) :   1.0670
B(  9-C , 10-H ) :   0.9532 B(  9-C , 11-H ) :   0.9558 B(  9-C , 12-C ) :   1.0968
B( 12-C , 13-H ) :   0.9697 B( 12-C , 14-H ) :   0.9616 B( 12-C , 15-H ) :   0.9669
B( 16-S , 17-C ) :   1.1481 B( 16-S , 20-C ) :   1.1316 B( 17-C , 18-C ) :   1.6282
B( 17-C , 33-H ) :   0.9625 B( 18-C , 19-C ) :   1.2350 B( 18-C , 21-H ) :   0.9889
B( 19-C , 20-C ) :   1.6016 B( 19-C , 22-C ) :   1.0397 B( 22-C , 23-H ) :   0.9334
B( 22-C , 24-H ) :   0.9209 B( 22-C , 25-C ) :   1.0623 B( 25-C , 26-H ) :   0.9635
B( 25-C , 27-H ) :   0.9527 B( 25-C , 28-C ) :   1.0711 B( 28-C , 29-H ) :   0.9732
B( 28-C , 30-H ) :   0.9777 B( 28-C , 31-H ) :   0.9746

Dispersion correction           -0.015984419
FINAL SINGLE POINT ENERGY     -1339.875613467476

DIPOLE MOMENT
-------------
                                X             Y             Z
Electronic contribution:    -11.74269       0.17062     -18.79648
Nuclear contribution   :     12.18900       0.00696      19.18581
                        -----------------------------------------
Total Dipole Moment    :      0.44632       0.17758       0.38933
                        -----------------------------------------
Magnitude (a.u.)       :      0.61831
Magnitude (Debye)      :      1.57163

Rotational constants in cm-1:     0.018970     0.009226     0.008395
Rotational constants in MHz :   568.715879   276.594823   251.673139

                             ****ORCA TERMINATED NORMALLY****
TOTAL RUN TIME: 0 days 0 hours 0 minutes 35 seconds 476 msec
