                         Program Version 4.2.1 -  RELEASE  -
|  1> ! wB97X-D3 SP def2-SVP
|  2> %pal
|  3> nprocs 16
|  4> end
|  5>
|  6> * xyz 0 1
|  7> S 	 -15.2111 	 38.5119 	 33.4366
|  8> C 	 -16.938 	 38.3278 	 33.429
|  9> C 	 -17.5463 	 38.8204 	 32.2753
| 10> C 	 -16.588 	 39.3087 	 31.3806
| 11> C 	 -15.2575 	 39.3129 	 31.8945
| 12> H 	 -16.7831 	 39.6071 	 30.3808
| 13> C 	 -18.9456 	 38.5729 	 31.8641
| 14> H 	 -19.4618 	 39.3874 	 31.3416
| 15> H 	 -19.4758 	 38.1376 	 32.7043
| 16> C 	 -19.1351 	 37.5623 	 30.7204
| 17> H 	 -20.095 	 37.7494 	 30.2468
| 18> H 	 -18.3398 	 37.667 	 29.9568
| 19> C 	 -19.0421 	 36.1006 	 31.2041
| 20> H 	 -18.7867 	 35.3263 	 30.4215
| 21> H 	 -18.4713 	 35.9541 	 32.0984
| 22> H 	 -19.971 	 35.8033 	 31.6218
| 23> S 	 -12.8164 	 38.6351 	 31.0615
| 24> C 	 -11.8639 	 39.8288 	 30.2483
| 25> C 	 -12.4818 	 41.0807 	 30.182
| 26> C 	 -13.7999 	 41.1354 	 30.7868
| 27> C 	 -14.099 	 39.8521 	 31.2347
| 28> H 	 -11.9026 	 41.826 	 29.7103
| 29> C 	 -14.7569 	 42.3008 	 31.007
| 30> H 	 -14.132 	 43.1444 	 31.4791
| 31> H 	 -15.3977 	 42.1112 	 31.8265
| 32> C 	 -15.4291 	 42.8582 	 29.7546
| 33> H 	 -16.0934 	 43.6801 	 30.1367
| 34> H 	 -16.075 	 42.1355 	 29.1992
| 35> C 	 -14.5789 	 43.6808 	 28.8104
| 36> H 	 -13.7818 	 43.0845 	 28.3087
| 37> H 	 -14.2481 	 44.6299 	 29.2834
| 38> H 	 -15.2072 	 44.0518 	 28.0295
| 39> H 	 -17.4354 	 37.8028 	 34.216
| 40> H 	 -11.0184 	 39.6557 	 29.6165
| 41> *
| 42>
| 43>                          ****END OF INPUT****

CARTESIAN COORDINATES (ANGSTROEM)
---------------------------------
  S    -15.211100   38.511900   33.436600
  C    -16.938000   38.327800   33.429000
  C    -17.546300   38.820400   32.275300
  C    -16.588000   39.308700   31.380600
  C    -15.257500   39.312900   31.894500
  H    -16.783100   39.607100   30.380800
  C    -18.945600   38.572900   31.864100
  H    -19.461800   39.387400   31.341600
  H    -19.475800   38.137600   32.704300
  C    -19.135100   37.562300   30.720400
  H    -20.095000   37.749400   30.246800
  H    -18.339800   37.667000   29.956800
  C    -19.042100   36.100600   31.204100
  H    -18.786700   35.326300   30.421500
  H    -18.471300   35.954100   32.098400
  H    -19.971000   35.803300   31.621800
  S    -12.816400   38.635100   31.061500
  C    -11.863900   39.828800   30.248300
  C    -12.481800   41.080700   30.182000
  C    -13.799900   41.135400   30.786800
  C    -14.099000   39.852100   31.234700
  H    -11.902600   41.826000   29.710300
  C    -14.756900   42.300800   31.007000
  H    -14.132000   43.144400   31.479100
  H    -15.397700   42.111200   31.826500
  C    -15.429100   42.858200   29.754600
  H    -16.093400   43.680100   30.136700
  H    -16.075000   42.135500   29.199200
  C    -14.578900   43.680800   28.810400
  H    -13.781800   43.084500   28.308700
  H    -14.248100   44.629900   29.283400
  H    -15.207200   44.051800   28.029500
  H    -17.435400   37.802800   34.216000
  H    -11.018400   39.655700   29.616500

 Total Charge           Charge          ....    0
 Multiplicity           Mult            ....    1
 Number of Electrons    NEL             ....  134
 Basis Dimension        Dim             ....  322

ORBITAL ENERGIES
----------------

  NO   OCC          E(Eh)            E(eV)
   0   2.0000     -88.969000     -2420.9696
   1   2.0000     -88.965780     -2420.8819
   2   2.0000     -10.326422      -280.9962
   3   2.0000     -10.324291      -280.9382
   4   2.0000     -10.313062      -280.6327
   5   2.0000     -10.311890      -280.6008
   6   2.0000     -10.310048      -280.5507
   7   2.0000     -10.297391      -280.2062
   8   2.0000     -10.297048      -280.1969
   9   2.0000     -10.294947      -280.1397
  10   2.0000     -10.292634      -280.0768
  11   2.0000     -10.290174      -280.0099
  12   2.0000     -10.289835      -280.0006
  13   2.0000     -10.287631      -279.9407
  14   2.0000     -10.279914      -279.7307
  15   2.0000     -10.271072      -279.4901
  16   2.0000      -8.083922      -219.9747
  17   2.0000      -8.080585      -219.8839
  18   2.0000      -6.042250      -164.4180
  19   2.0000      -6.038950      -164.3282
  20   2.0000      -6.038372      -164.3125
  21   2.0000      -6.035194      -164.2260
  22   2.0000      -6.034910      -164.2182
  23   2.0000      -6.031381      -164.1222
  24   2.0000      -1.006277       -27.3822
  25   2.0000      -0.982065       -26.7234
  26   2.0000      -0.916941       -24.9512
  27   2.0000      -0.910101       -24.7651
  28   2.0000      -0.867218       -23.5982
  29   2.0000      -0.854569       -23.2540
  30   2.0000      -0.846783       -23.0421
  31   2.0000      -0.810029       -22.0420
  32   2.0000      -0.787824       -21.4378
  33   2.0000      -0.775233       -21.0952
  34   2.0000      -0.711042       -19.3484
  35   2.0000      -0.695081       -18.9141
  36   2.0000      -0.688724       -18.7411
  37   2.0000      -0.658927       -17.9303
  38   2.0000      -0.641618       -17.4593
  39   2.0000      -0.624065       -16.9817
  40   2.0000      -0.596526       -16.2323
  41   2.0000      -0.572314       -15.5735
  42   2.0000      -0.554608       -15.0916
  43   2.0000      -0.546815       -14.8796
  44   2.0000      -0.546091       -14.8599
  45   2.0000      -0.535188       -14.5632
  46   2.0000      -0.520954       -14.1759
  47   2.0000      -0.507152       -13.8003
  48   2.0000      -0.500032       -13.6066
  49   2.0000      -0.493541       -13.4299
  50   2.0000      -0.487233       -13.2583
  51   2.0000      -0.485534       -13.2120
  52   2.0000      -0.477214       -12.9856
  53   2.0000      -0.465331       -12.6623
  54   2.0000      -0.451960       -12.2985
  55   2.0000      -0.447604       -12.1799
  56   2.0000      -0.444111       -12.0849
  57   2.0000      -0.437593       -11.9075
  58   2.0000      -0.430653       -11.7187
  59   2.0000      -0.425920       -11.5899
  60   2.0000      -0.419447       -11.4137
  61   2.0000      -0.415750       -11.3131
  62   2.0000      -0.411307       -11.1922
  63   2.0000      -0.338712        -9.2168
  64   2.0000      -0.334226        -9.0948
  65   2.0000      -0.330051        -8.9811
  66   2.0000      -0.286789        -7.8039
  67   0.0000       0.031253         0.8504
  68   0.0000       0.063097         1.7169
  69   0.0000       0.110038         2.9943
  70   0.0000       0.120357         3.2751
  71   0.0000       0.126889         3.4528

MULLIKEN ATOMIC CHARGES
-----------------------
   0 S :    0.128317
   1 C :   -0.130526
   2 C :   -0.029358
   3 C :    0.027552
   4 C :   -0.169959
   5 H :   -0.000916
   6 C :    0.070161
   7 H :    0.030790
   8 H :    0.016510
   9 C :   -0.089936
  10 H :    0.032594
  11 H :    0.036352
  12 C :   -0.052276
  13 H :    0.047638
  14 H :    0.018018
  15 H :    0.004660
  16 S :    0.108506
  17 C :   -0.075392
  18 C :   -0.057435
  19 C :    0.014440
  20 C :   -0.195245
  21 H :    0.005691
  22 C :    0.080107
  23 H :    0.030800
  24 H :    0.029198
  25 C :   -0.089246
  26 H :    0.030600
  27 H :    0.040697
  28 C :   -0.050133
  29 H :    0.041837
  30 H :    0.031979
  31 H :    0.022842
  32 H :    0.040811
  33 H :    0.050323
Sum of atomic charges:    0.0000000

LOEWDIN ATOMIC CHARGES
----------------------
   0 S :    0.424319
   1 C :   -0.200700
   2 C :   -0.065830
   3 C :   -0.054793
   4 C :   -0.208545
   5 H :    0.023044
   6 C :   -0.031726
   7 H :    0.038270
   8 H :    0.029034
   9 C :   -0.036285
  10 H :    0.022551
  11 H :    0.025451
  12 C :   -0.076712
  13 H :    0.034173
  14 H :    0.021549
  15 H :    0.017593
  16 S :    0.400802
  17 C :   -0.192784
  18 C :   -0.065533
  19 C :   -0.046896
  20 C :   -0.186910
  21 H :    0.023031
  22 C :   -0.033553
  23 H :    0.043690
  24 H :    0.029723
  25 C :   -0.048139
  26 H :    0.033799
  27 H :    0.026130
  28 C :   -0.070152
  29 H :    0.025385
  30 H :    0.029204
  31 H :    0.024773
  32 H :    0.019741
  33 H :    0.026293

  Mayer bond orders larger than 0.100000
B(  0-S ,  1-C ) :   1.1553 B(  0-S ,  4-C ) :   1.1699 B(  1-C ,  2-C ) :   1.5562
B(  1-C ,  4-C ) :   0.1052 B(  1-C , 32-H ) :   0.9681 B(  2-C ,  3-C ) :   1.2707
B(  2-C ,  6-C ) :   1.0624 B(  3-C ,  4-C ) :   1.5209 B(  3-C ,  5-H ) :   1.0003
B(  4-C , 20-C ) :   1.0493 B(  6-C ,  7-H ) :   0.9321 B(  6-C ,  8-H ) :   0.9430
B(  6-C ,  9-C ) :   1.0550 B(  9-C , 10-H ) :   0.9634 B(  9-C , 11-H ) :   0.9586
B(  9-C , 12-C ) :   1.0621 B( 12-C , 13-H ) :   0.9763 B( 12-C , 14-H ) :   0.9761
B( 12-C , 15-H ) :   0.9691 B( 16-S , 17-C ) :   1.1395 B( 16-S , 20-C ) :   1.1445
B( 17-C , 18-C ) :   1.6509 B( 17-C , 33-H ) :   0.9637 B( 18-C , 19-C ) :   1.1883
B( 18-C , 21-H ) :   0.9925 B( 19-C , 20-C ) :   1.6046 B( 19-C , 22-C ) :   1.0368
B( 22-C , 23-H ) :   0.9318 B( 22-C , 24-H ) :   0.9281 B( 22-C , 25-C ) :   1.0675
B( 25-C , 26-H ) :   0.9506 B( 25-C , 27-H ) :   0.9553 B( 25-C , 28-C ) :   1.0878
B( 28-C , 29-H ) :   0.9710 B( 28-C , 30-H ) :   0.9728 B( 28-C , 31-H ) :   0.9689

Dispersion correction           -0.014536440
FINAL SINGLE POINT ENERGY     -1339.864733884751

DIPOLE MOMENT
-------------
                                X             Y             Z
Electronic contribution:     18.66597      -8.44803      12.18831
Nuclear contribution   :    -19.08184       8.77158     -12.55427
                        -----------------------------------------
Total Dipole Moment    :     -0.41586       0.32355      -0.36596
                        -----------------------------------------
Magnitude (a.u.)       :      0.64153
Magnitude (Debye)      :      1.63063

Rotational constants in cm-1:     0.019168     0.008635     0.007027
Rotational constants in MHz :   574.655510   258.869459   210.666390

                             ****ORCA TERMINATED NORMALLY****
TOTAL RUN TIME: 0 days 0 hours 0 minutes 34 seconds 276 msec
