                         Program Version 4.2.1 -  RELEASE  -
|  1> ! wB97X-D3 SP def2-SVP
|  2> %pal
|  3> nprocs 16
|  4> end
|  5>
|  6> * xyz 0 1
|  7> S 	 50.0251 	 7.7334 	 100.005
|  8> C 	 50.3711 	 8.87553 	 101.276
|  9> C 	 51.4285 	 9.66596 	 100.938
| 10> C 	 52.1432 	 9.18724 	 99.8169
| 11> C 	 51.4608 	 8.21007 	 99.1469
| 12> H 	 53.0868 	 9.57938 	 99.3528
| 13> C 	 52.032 	 10.738 	 101.79
| 14> H 	 51.2496 	 11.104 	 102.44
| 15> H 	 52.5134 	 11.5875 	 101.205
| 16> C 	 53.1015 	 10.2957 	 102.817
| 17> H 	 52.9818 	 9.25057 	 103.096
| 18> H 	 54.1289 	 10.3052 	 102.434
| 19> C 	 53.2106 	 11.1302 	 104.091
| 20> H 	 52.4252 	 10.7141 	 104.794
| 21> H 	 54.2126 	 11.0915 	 104.518
| 22> H 	 53.0004 	 12.2061 	 103.99
| 23> S 	 53.328 	 6.50884 	 98.0179
| 24> C 	 53.0524 	 5.87381 	 96.3802
| 25> C 	 51.8246 	 6.28722 	 95.9039
| 26> C 	 51.2504 	 7.34784 	 96.6849
| 27> C 	 51.8589 	 7.48259 	 97.9289
| 28> H 	 51.4693 	 5.86872 	 94.9452
| 29> C 	 50.1301 	 8.26871 	 96.1216
| 30> H 	 50.5712 	 8.85896 	 95.34
| 31> H 	 49.8139 	 8.99781 	 96.8736
| 32> C 	 48.8801 	 7.45204 	 95.628
| 33> H 	 48.9428 	 6.8274 	 94.7592
| 34> H 	 48.1569 	 8.23997 	 95.2916
| 35> C 	 48.2264 	 6.56395 	 96.7041
| 36> H 	 48.1157 	 7.08155 	 97.6868
| 37> H 	 48.8721 	 5.7333 	 96.8664
| 38> H 	 47.2602 	 6.16898 	 96.5351
| 39> H 	 49.8261 	 9.01868 	 102.194
| 40> H 	 53.6828 	 5.06593 	 96.0714
| 41> *
| 42>
| 43>                          ****END OF INPUT****

CARTESIAN COORDINATES (ANGSTROEM)
---------------------------------
  S     50.025100    7.733400  100.005000
  C     50.371100    8.875530  101.276000
  C     51.428500    9.665960  100.938000
  C     52.143200    9.187240   99.816900
  C     51.460800    8.210070   99.146900
  H     53.086800    9.579380   99.352800
  C     52.032000   10.738000  101.790000
  H     51.249600   11.104000  102.440000
  H     52.513400   11.587500  101.205000
  C     53.101500   10.295700  102.817000
  H     52.981800    9.250570  103.096000
  H     54.128900   10.305200  102.434000
  C     53.210600   11.130200  104.091000
  H     52.425200   10.714100  104.794000
  H     54.212600   11.091500  104.518000
  H     53.000400   12.206100  103.990000
  S     53.328000    6.508840   98.017900
  C     53.052400    5.873810   96.380200
  C     51.824600    6.287220   95.903900
  C     51.250400    7.347840   96.684900
  C     51.858900    7.482590   97.928900
  H     51.469300    5.868720   94.945200
  C     50.130100    8.268710   96.121600
  H     50.571200    8.858960   95.340000
  H     49.813900    8.997810   96.873600
  C     48.880100    7.452040   95.628000
  H     48.942800    6.827400   94.759200
  H     48.156900    8.239970   95.291600
  C     48.226400    6.563950   96.704100
  H     48.115700    7.081550   97.686800
  H     48.872100    5.733300   96.866400
  H     47.260200    6.168980   96.535100
  H     49.826100    9.018680  102.194000
  H     53.682800    5.065930   96.071400

 Total Charge           Charge          ....    0
 Multiplicity           Mult            ....    1
 Number of Electrons    NEL             ....  134
 Basis Dimension        Dim             ....  322

ORBITAL ENERGIES
----------------

  NO   OCC          E(Eh)            E(eV)
   0   2.0000     -88.967684     -2420.9337
   1   2.0000     -88.961085     -2420.7542
   2   2.0000     -10.327496      -281.0254
   3   2.0000     -10.326875      -281.0085
   4   2.0000     -10.318740      -280.7872
   5   2.0000     -10.312645      -280.6213
   6   2.0000     -10.307018      -280.4682
   7   2.0000     -10.299651      -280.2678
   8   2.0000     -10.297795      -280.2173
   9   2.0000     -10.297250      -280.2024
  10   2.0000     -10.294839      -280.1368
  11   2.0000     -10.293569      -280.1023
  12   2.0000     -10.289328      -279.9869
  13   2.0000     -10.283229      -279.8209
  14   2.0000     -10.282274      -279.7949
  15   2.0000     -10.267467      -279.3920
  16   2.0000      -8.082372      -219.9325
  17   2.0000      -8.075568      -219.7474
  18   2.0000      -6.040899      -164.3812
  19   2.0000      -6.036836      -164.2707
  20   2.0000      -6.034033      -164.1944
  21   2.0000      -6.033139      -164.1701
  22   2.0000      -6.030143      -164.0885
  23   2.0000      -6.026355      -163.9855
  24   2.0000      -1.008746       -27.4494
  25   2.0000      -0.983568       -26.7642
  26   2.0000      -0.910648       -24.7800
  27   2.0000      -0.898790       -24.4573
  28   2.0000      -0.868640       -23.6369
  29   2.0000      -0.850901       -23.1542
  30   2.0000      -0.840408       -22.8687
  31   2.0000      -0.814889       -22.1743
  32   2.0000      -0.783549       -21.3215
  33   2.0000      -0.770706       -20.9720
  34   2.0000      -0.704913       -19.1817
  35   2.0000      -0.696905       -18.9637
  36   2.0000      -0.692339       -18.8395
  37   2.0000      -0.660056       -17.9610
  38   2.0000      -0.639342       -17.3974
  39   2.0000      -0.617443       -16.8015
  40   2.0000      -0.598363       -16.2823
  41   2.0000      -0.571944       -15.5634
  42   2.0000      -0.558144       -15.1879
  43   2.0000      -0.552118       -15.0239
  44   2.0000      -0.532055       -14.4779
  45   2.0000      -0.522892       -14.2286
  46   2.0000      -0.517395       -14.0790
  47   2.0000      -0.509082       -13.8528
  48   2.0000      -0.503565       -13.7027
  49   2.0000      -0.499314       -13.5870
  50   2.0000      -0.483006       -13.1433
  51   2.0000      -0.478039       -13.0081
  52   2.0000      -0.467913       -12.7326
  53   2.0000      -0.466286       -12.6883
  54   2.0000      -0.458850       -12.4859
  55   2.0000      -0.446501       -12.1499
  56   2.0000      -0.442602       -12.0438
  57   2.0000      -0.437188       -11.8965
  58   2.0000      -0.434923       -11.8348
  59   2.0000      -0.426737       -11.6121
  60   2.0000      -0.420071       -11.4307
  61   2.0000      -0.406362       -11.0577
  62   2.0000      -0.405955       -11.0466
  63   2.0000      -0.339881        -9.2486
  64   2.0000      -0.334444        -9.1007
  65   2.0000      -0.325794        -8.8653
  66   2.0000      -0.299258        -8.1432
  67   0.0000       0.037907         1.0315
  68   0.0000       0.060750         1.6531
  69   0.0000       0.105308         2.8656
  70   0.0000       0.117519         3.1978
  71   0.0000       0.128024         3.4837

MULLIKEN ATOMIC CHARGES
-----------------------
   0 S :    0.130891
   1 C :   -0.122770
   2 C :   -0.066311
   3 C :    0.009802
   4 C :   -0.155734
   5 H :    0.033738
   6 C :    0.064702
   7 H :    0.010829
   8 H :    0.046873
   9 C :   -0.076234
  10 H :    0.028984
  11 H :    0.021473
  12 C :   -0.087536
  13 H :    0.040721
  14 H :    0.039654
  15 H :    0.033834
  16 S :    0.091678
  17 C :   -0.099628
  18 C :   -0.030291
  19 C :   -0.058274
  20 C :   -0.165297
  21 H :    0.036883
  22 C :    0.098944
  23 H :    0.040281
  24 H :    0.032098
  25 C :   -0.101060
  26 H :    0.028068
  27 H :    0.030586
  28 C :   -0.037955
  29 H :    0.024821
  30 H :    0.027211
  31 H :    0.023545
  32 H :    0.043351
  33 H :    0.062124
Sum of atomic charges:   -0.0000000

LOEWDIN ATOMIC CHARGES
----------------------
   0 S :    0.426181
   1 C :   -0.195328
   2 C :   -0.069154
   3 C :   -0.065390
   4 C :   -0.198239
   5 H :    0.043493
   6 C :   -0.035176
   7 H :    0.026584
   8 H :    0.042277
   9 C :   -0.048944
  10 H :    0.023953
  11 H :    0.021343
  12 C :   -0.073798
  13 H :    0.030540
  14 H :    0.028270
  15 H :    0.024417
  16 S :    0.383545
  17 C :   -0.170900
  18 C :   -0.070365
  19 C :   -0.059626
  20 C :   -0.198800
  21 H :    0.037850
  22 C :   -0.019378
  23 H :    0.033551
  24 H :    0.033175
  25 C :   -0.045262
  26 H :    0.018826
  27 H :    0.027779
  28 C :   -0.067773
  29 H :    0.021896
  30 H :    0.021017
  31 H :    0.020694
  32 H :    0.029011
  33 H :    0.023730

  Mayer bond orders larger than 0.100000
B(  0-S ,  1-C ) :   1.1367 B(  0-S ,  4-C ) :   1.1562 B(  1-C ,  2-C ) :   1.6141
B(  1-C , 32-H ) :   0.9681 B(  2-C ,  3-C ) :   1.2136 B(  2-C ,  6-C ) :   1.0556
B(  3-C ,  4-C ) :   1.5982 B(  3-C ,  5-H ) :   0.9898 B(  4-C , 20-C ) :   1.0122
B(  6-C ,  7-H ) :   0.9396 B(  6-C ,  8-H ) :   0.9362 B(  6-C ,  9-C ) :   1.0443
B(  9-C , 10-H ) :   0.9604 B(  9-C , 11-H ) :   0.9584 B(  9-C , 12-C ) :   1.0774
B( 12-C , 13-H ) :   0.9765 B( 12-C , 14-H ) :   0.9765 B( 12-C , 15-H ) :   0.9764
B( 16-S , 17-C ) :   1.1449 B( 16-S , 20-C ) :   1.1419 B( 17-C , 18-C ) :   1.6261
B( 17-C , 20-C ) :   0.1002 B( 17-C , 33-H ) :   0.9695 B( 18-C , 19-C ) :   1.2119
B( 18-C , 21-H ) :   0.9846 B( 19-C , 20-C ) :   1.6110 B( 19-C , 22-C ) :   1.0328
B( 22-C , 23-H ) :   0.9415 B( 22-C , 24-H ) :   0.9367 B( 22-C , 25-C ) :   1.0579
B( 25-C , 26-H ) :   0.9605 B( 25-C , 27-H ) :   0.9577 B( 25-C , 28-C ) :   1.0687
B( 28-C , 29-H ) :   0.9733 B( 28-C , 30-H ) :   0.9718 B( 28-C , 31-H ) :   0.9741

Dispersion correction           -0.014826773
FINAL SINGLE POINT ENERGY     -1339.877992032021

DIPOLE MOMENT
-------------
                                X             Y             Z
Electronic contribution:      4.94008     -11.18522      -6.19655
Nuclear contribution   :     -4.95635      11.42097       6.13841
                        -----------------------------------------
Total Dipole Moment    :     -0.01627       0.23575      -0.05814
                        -----------------------------------------
Magnitude (a.u.)       :      0.24336
Magnitude (Debye)      :      0.61857

Rotational constants in cm-1:     0.024596     0.007467     0.006291
Rotational constants in MHz :   737.360716   223.848292   188.607455

                             ****ORCA TERMINATED NORMALLY****
TOTAL RUN TIME: 0 days 0 hours 0 minutes 29 seconds 212 msec
