                         Program Version 4.2.1 -  RELEASE  -
|  1> ! wB97X-D3 SP def2-SVP
|  2> %pal
|  3> nprocs 16
|  4> end
|  5>
|  6> * xyz 0 1
|  7> S 	 -3.8297 	 26.9607 	 54.6254
|  8> C 	 -2.53343 	 25.7944 	 54.288
|  9> C 	 -2.03296 	 25.9869 	 53.0414
| 10> C 	 -2.37032 	 27.3141 	 52.5433
| 11> C 	 -3.23593 	 28.0033 	 53.3265
| 12> H 	 -2.06313 	 27.7611 	 51.5733
| 13> C 	 -1.03919 	 25.1307 	 52.3648
| 14> H 	 -1.63203 	 24.3489 	 51.8959
| 15> H 	 -0.473961 	 24.5481 	 53.1207
| 16> C 	 -0.109316 	 25.7476 	 51.4088
| 17> H 	 0.286444 	 24.9456 	 50.8166
| 18> H 	 -0.617692 	 26.4902 	 50.7842
| 19> C 	 1.05211 	 26.4675 	 52.0528
| 20> H 	 1.54897 	 25.6967 	 52.6613
| 21> H 	 1.82571 	 26.7883 	 51.3805
| 22> H 	 0.726283 	 27.3471 	 52.5756
| 23> S 	 -5.35313 	 29.0405 	 52.0184
| 24> C 	 -5.39909 	 30.7754 	 51.7644
| 25> C 	 -4.50785 	 31.4241 	 52.5531
| 26> C 	 -3.60502 	 30.4964 	 53.215
| 27> C 	 -3.94717 	 29.1896 	 52.9938
| 28> H 	 -4.42732 	 32.528 	 52.4893
| 29> C 	 -2.5368 	 31.0008 	 54.194
| 30> H 	 -2.00963 	 31.7729 	 53.6396
| 31> H 	 -1.81463 	 30.1805 	 54.3007
| 32> C 	 -3.18833 	 31.3871 	 55.5007
| 33> H 	 -3.9105 	 32.1872 	 55.4237
| 34> H 	 -2.4284 	 31.6243 	 56.1778
| 35> C 	 -3.90299 	 30.2098 	 56.132
| 36> H 	 -4.1432 	 30.4399 	 57.1467
| 37> H 	 -3.29284 	 29.3728 	 56.319
| 38> H 	 -4.82732 	 29.9575 	 55.6375
| 39> H 	 -2.38381 	 24.8643 	 54.8196
| 40> H 	 -5.91428 	 31.2749 	 50.9421
| 41> *
| 42>
| 43>                          ****END OF INPUT****

CARTESIAN COORDINATES (ANGSTROEM)
---------------------------------
  S     -3.829700   26.960700   54.625400
  C     -2.533430   25.794400   54.288000
  C     -2.032960   25.986900   53.041400
  C     -2.370320   27.314100   52.543300
  C     -3.235930   28.003300   53.326500
  H     -2.063130   27.761100   51.573300
  C     -1.039190   25.130700   52.364800
  H     -1.632030   24.348900   51.895900
  H     -0.473961   24.548100   53.120700
  C     -0.109316   25.747600   51.408800
  H      0.286444   24.945600   50.816600
  H     -0.617692   26.490200   50.784200
  C      1.052110   26.467500   52.052800
  H      1.548970   25.696700   52.661300
  H      1.825710   26.788300   51.380500
  H      0.726283   27.347100   52.575600
  S     -5.353130   29.040500   52.018400
  C     -5.399090   30.775400   51.764400
  C     -4.507850   31.424100   52.553100
  C     -3.605020   30.496400   53.215000
  C     -3.947170   29.189600   52.993800
  H     -4.427320   32.528000   52.489300
  C     -2.536800   31.000800   54.194000
  H     -2.009630   31.772900   53.639600
  H     -1.814630   30.180500   54.300700
  C     -3.188330   31.387100   55.500700
  H     -3.910500   32.187200   55.423700
  H     -2.428400   31.624300   56.177800
  C     -3.902990   30.209800   56.132000
  H     -4.143200   30.439900   57.146700
  H     -3.292840   29.372800   56.319000
  H     -4.827320   29.957500   55.637500
  H     -2.383810   24.864300   54.819600
  H     -5.914280   31.274900   50.942100

 Total Charge           Charge          ....    0
 Multiplicity           Mult            ....    1
 Number of Electrons    NEL             ....  134
 Basis Dimension        Dim             ....  322

ORBITAL ENERGIES
----------------

  NO   OCC          E(Eh)            E(eV)
   0   2.0000     -88.960871     -2420.7484
   1   2.0000     -88.959418     -2420.7088
   2   2.0000     -10.322162      -280.8803
   3   2.0000     -10.314438      -280.6701
   4   2.0000     -10.313392      -280.6417
   5   2.0000     -10.310079      -280.5515
   6   2.0000     -10.298923      -280.2479
   7   2.0000     -10.298339      -280.2320
   8   2.0000     -10.295566      -280.1566
   9   2.0000     -10.293378      -280.0971
  10   2.0000     -10.287003      -279.9236
  11   2.0000     -10.286745      -279.9166
  12   2.0000     -10.279959      -279.7319
  13   2.0000     -10.274997      -279.5969
  14   2.0000     -10.271658      -279.5060
  15   2.0000     -10.255985      -279.0795
  16   2.0000      -8.076515      -219.7731
  17   2.0000      -8.073601      -219.6939
  18   2.0000      -6.035010      -164.2210
  19   2.0000      -6.032225      -164.1452
  20   2.0000      -6.030979      -164.1113
  21   2.0000      -6.028413      -164.0414
  22   2.0000      -6.027134      -164.0067
  23   2.0000      -6.024026      -163.9221
  24   2.0000      -1.010587       -27.4995
  25   2.0000      -0.985070       -26.8051
  26   2.0000      -0.925579       -25.1863
  27   2.0000      -0.912303       -24.8250
  28   2.0000      -0.877211       -23.8701
  29   2.0000      -0.843800       -22.9610
  30   2.0000      -0.842583       -22.9279
  31   2.0000      -0.818187       -22.2640
  32   2.0000      -0.786829       -21.4107
  33   2.0000      -0.773284       -21.0421
  34   2.0000      -0.712367       -19.3845
  35   2.0000      -0.697224       -18.9724
  36   2.0000      -0.688907       -18.7461
  37   2.0000      -0.656357       -17.8604
  38   2.0000      -0.639864       -17.4116
  39   2.0000      -0.624733       -16.9999
  40   2.0000      -0.596228       -16.2242
  41   2.0000      -0.569115       -15.4864
  42   2.0000      -0.562509       -15.3067
  43   2.0000      -0.554333       -15.0842
  44   2.0000      -0.548776       -14.9330
  45   2.0000      -0.540749       -14.7145
  46   2.0000      -0.515742       -14.0340
  47   2.0000      -0.514064       -13.9884
  48   2.0000      -0.501091       -13.6354
  49   2.0000      -0.496618       -13.5137
  50   2.0000      -0.489038       -13.3074
  51   2.0000      -0.474637       -12.9155
  52   2.0000      -0.471969       -12.8429
  53   2.0000      -0.459577       -12.5057
  54   2.0000      -0.457641       -12.4531
  55   2.0000      -0.446708       -12.1555
  56   2.0000      -0.442357       -12.0371
  57   2.0000      -0.440648       -11.9906
  58   2.0000      -0.431313       -11.7366
  59   2.0000      -0.425184       -11.5698
  60   2.0000      -0.418118       -11.3776
  61   2.0000      -0.410798       -11.1784
  62   2.0000      -0.409014       -11.1298
  63   2.0000      -0.338770        -9.2184
  64   2.0000      -0.322150        -8.7661
  65   2.0000      -0.319440        -8.6924
  66   2.0000      -0.308807        -8.4031
  67   0.0000       0.043397         1.1809
  68   0.0000       0.055881         1.5206
  69   0.0000       0.109001         2.9661
  70   0.0000       0.122694         3.3387
  71   0.0000       0.134101         3.6491

MULLIKEN ATOMIC CHARGES
-----------------------
   0 S :    0.087490
   1 C :   -0.112294
   2 C :   -0.092358
   3 C :    0.013974
   4 C :   -0.154406
   5 H :    0.027523
   6 C :    0.071170
   7 H :    0.036058
   8 H :    0.016282
   9 C :   -0.057534
  10 H :    0.021372
  11 H :    0.027788
  12 C :   -0.032517
  13 H :    0.020211
  14 H :    0.026563
  15 H :    0.036700
  16 S :    0.118075
  17 C :   -0.102454
  18 C :   -0.040367
  19 C :   -0.082567
  20 C :   -0.173183
  21 H :    0.032659
  22 C :    0.097651
  23 H :    0.020578
  24 H :    0.026675
  25 C :   -0.015010
  26 H :    0.028314
  27 H :    0.015524
  28 C :   -0.032708
  29 H :    0.006218
  30 H :    0.013653
  31 H :    0.042431
  32 H :    0.045045
  33 H :    0.063445
Sum of atomic charges:    0.0000000

LOEWDIN ATOMIC CHARGES
----------------------
   0 S :    0.384956
   1 C :   -0.185386
   2 C :   -0.060759
   3 C :   -0.061348
   4 C :   -0.187020
   5 H :    0.037907
   6 C :   -0.039319
   7 H :    0.038983
   8 H :    0.034222
   9 C :   -0.043328
  10 H :    0.026559
  11 H :    0.023041
  12 C :   -0.059534
  13 H :    0.025583
  14 H :    0.023574
  15 H :    0.023711
  16 S :    0.410054
  17 C :   -0.183980
  18 C :   -0.078016
  19 C :   -0.048926
  20 C :   -0.223173
  21 H :    0.037957
  22 C :   -0.027967
  23 H :    0.027116
  24 H :    0.031729
  25 C :   -0.030039
  26 H :    0.024756
  27 H :    0.019721
  28 C :   -0.061050
  29 H :    0.022909
  30 H :    0.013340
  31 H :    0.022491
  32 H :    0.027313
  33 H :    0.033926

  Mayer bond orders larger than 0.100000
B(  0-S ,  1-C ) :   1.1147 B(  0-S ,  4-C ) :   1.1264 B(  1-C ,  2-C ) :   1.6620
B(  1-C , 32-H ) :   0.9673 B(  2-C ,  3-C ) :   1.1874 B(  2-C ,  6-C ) :   1.0208
B(  3-C ,  4-C ) :   1.6483 B(  3-C ,  5-H ) :   0.9832 B(  4-C , 20-C ) :   1.0180
B(  6-C ,  7-H ) :   0.9134 B(  6-C ,  8-H ) :   0.9380 B(  6-C ,  9-C ) :   1.0975
B(  9-C , 10-H ) :   0.9443 B(  9-C , 11-H ) :   0.9437 B(  9-C , 12-C ) :   1.0872
B( 12-C , 13-H ) :   0.9719 B( 12-C , 14-H ) :   0.9729 B( 12-C , 15-H ) :   0.9748
B( 16-S , 17-C ) :   1.1429 B( 16-S , 20-C ) :   1.1361 B( 17-C , 18-C ) :   1.6484
B( 17-C , 33-H ) :   0.9633 B( 18-C , 19-C ) :   1.2077 B( 18-C , 21-H ) :   0.9828
B( 19-C , 20-C ) :   1.6375 B( 19-C , 22-C ) :   1.0368 B( 22-C , 23-H ) :   0.9321
B( 22-C , 24-H ) :   0.9299 B( 22-C , 25-C ) :   1.0746 B( 25-C , 26-H ) :   0.9558
B( 25-C , 27-H ) :   0.9511 B( 25-C , 28-C ) :   1.0892 B( 28-C , 29-H ) :   0.9636
B( 28-C , 30-H ) :   0.9672 B( 28-C , 31-H ) :   0.9717

Dispersion correction           -0.015702497
FINAL SINGLE POINT ENERGY     -1339.869048210323

DIPOLE MOMENT
-------------
                                X             Y             Z
Electronic contribution:    -18.73083      -1.44220      -2.85675
Nuclear contribution   :     19.25977       1.48052       2.57296
                        -----------------------------------------
Total Dipole Moment    :      0.52895       0.03832      -0.28379
                        -----------------------------------------
Magnitude (a.u.)       :      0.60149
Magnitude (Debye)      :      1.52887

Rotational constants in cm-1:     0.020729     0.008750     0.008370
Rotational constants in MHz :   621.443342   262.321518   250.937038

                             ****ORCA TERMINATED NORMALLY****
TOTAL RUN TIME: 0 days 0 hours 0 minutes 35 seconds 322 msec
