                         Program Version 4.2.1 -  RELEASE  -
|  1> ! wB97X-D3 SP def2-SVP
|  2> %pal
|  3> nprocs 16
|  4> end
|  5>
|  6> * xyz 0 1
|  7> S 	 45.5247 	 11.9214 	 88.8276
|  8> C 	 47.1388 	 12.0367 	 88.2829
|  9> C 	 47.624 	 10.7898 	 87.83
| 10> C 	 46.6332 	 9.77566 	 87.8472
| 11> C 	 45.5026 	 10.1548 	 88.5139
| 12> H 	 46.6888 	 8.69663 	 87.594
| 13> C 	 49.0937 	 10.6001 	 87.4879
| 14> H 	 49.3051 	 9.5632 	 87.4419
| 15> H 	 49.5286 	 11.12 	 88.3747
| 16> C 	 49.4214 	 11.2503 	 86.1235
| 17> H 	 49.1935 	 12.3116 	 86.0942
| 18> H 	 50.5186 	 11.2397 	 86.1226
| 19> C 	 48.9008 	 10.695 	 84.8488
| 20> H 	 47.8331 	 10.5689 	 84.828
| 21> H 	 49.2779 	 11.3499 	 84.0194
| 22> H 	 49.1751 	 9.65544 	 84.6251
| 23> S 	 43.4233 	 9.8527 	 90.2931
| 24> C 	 42.3306 	 8.4582 	 90.1974
| 25> C 	 42.6317 	 7.70885 	 89.1036
| 26> C 	 43.7371 	 8.1927 	 88.3473
| 27> C 	 44.3511 	 9.37051 	 88.8383
| 28> H 	 42.2003 	 6.79963 	 88.9947
| 29> C 	 44.1602 	 7.50429 	 87.0638
| 30> H 	 45.1493 	 7.12298 	 87.2717
| 31> H 	 44.2243 	 8.2182 	 86.2536
| 32> C 	 43.2837 	 6.33468 	 86.615
| 33> H 	 42.3826 	 6.89038 	 86.3852
| 34> H 	 43.1194 	 5.52329 	 87.3339
| 35> C 	 43.8549 	 5.82415 	 85.2938
| 36> H 	 43.1192 	 5.23579 	 84.7673
| 37> H 	 44.8127 	 5.27413 	 85.2699
| 38> H 	 43.985 	 6.65876 	 84.6564
| 39> H 	 47.7368 	 12.9129 	 88.4002
| 40> H 	 41.6493 	 8.15531 	 90.9676
| 41> *
| 42>
| 43>                          ****END OF INPUT****

CARTESIAN COORDINATES (ANGSTROEM)
---------------------------------
  S     45.524700   11.921400   88.827600
  C     47.138800   12.036700   88.282900
  C     47.624000   10.789800   87.830000
  C     46.633200    9.775660   87.847200
  C     45.502600   10.154800   88.513900
  H     46.688800    8.696630   87.594000
  C     49.093700   10.600100   87.487900
  H     49.305100    9.563200   87.441900
  H     49.528600   11.120000   88.374700
  C     49.421400   11.250300   86.123500
  H     49.193500   12.311600   86.094200
  H     50.518600   11.239700   86.122600
  C     48.900800   10.695000   84.848800
  H     47.833100   10.568900   84.828000
  H     49.277900   11.349900   84.019400
  H     49.175100    9.655440   84.625100
  S     43.423300    9.852700   90.293100
  C     42.330600    8.458200   90.197400
  C     42.631700    7.708850   89.103600
  C     43.737100    8.192700   88.347300
  C     44.351100    9.370510   88.838300
  H     42.200300    6.799630   88.994700
  C     44.160200    7.504290   87.063800
  H     45.149300    7.122980   87.271700
  H     44.224300    8.218200   86.253600
  C     43.283700    6.334680   86.615000
  H     42.382600    6.890380   86.385200
  H     43.119400    5.523290   87.333900
  C     43.854900    5.824150   85.293800
  H     43.119200    5.235790   84.767300
  H     44.812700    5.274130   85.269900
  H     43.985000    6.658760   84.656400
  H     47.736800   12.912900   88.400200
  H     41.649300    8.155310   90.967600

 Total Charge           Charge          ....    0
 Multiplicity           Mult            ....    1
 Number of Electrons    NEL             ....  134
 Basis Dimension        Dim             ....  322

ORBITAL ENERGIES
----------------

  NO   OCC          E(Eh)            E(eV)
   0   2.0000     -88.965960     -2420.8868
   1   2.0000     -88.961091     -2420.7543
   2   2.0000     -10.330429      -281.1053
   3   2.0000     -10.330075      -281.0956
   4   2.0000     -10.316830      -280.7352
   5   2.0000     -10.309643      -280.5396
   6   2.0000     -10.305093      -280.4158
   7   2.0000     -10.301757      -280.3251
   8   2.0000     -10.295703      -280.1603
   9   2.0000     -10.293039      -280.0878
  10   2.0000     -10.289252      -279.9848
  11   2.0000     -10.289153      -279.9821
  12   2.0000     -10.284801      -279.8637
  13   2.0000     -10.284253      -279.8488
  14   2.0000     -10.277881      -279.6754
  15   2.0000     -10.275752      -279.6174
  16   2.0000      -8.080616      -219.8847
  17   2.0000      -8.075017      -219.7324
  18   2.0000      -6.039089      -164.3320
  19   2.0000      -6.035182      -164.2257
  20   2.0000      -6.033649      -164.1839
  21   2.0000      -6.031373      -164.1220
  22   2.0000      -6.029526      -164.0717
  23   2.0000      -6.025800      -163.9703
  24   2.0000      -1.004720       -27.3398
  25   2.0000      -0.981474       -26.7073
  26   2.0000      -0.917030       -24.9536
  27   2.0000      -0.912780       -24.8380
  28   2.0000      -0.875111       -23.8130
  29   2.0000      -0.854877       -23.2624
  30   2.0000      -0.845091       -22.9961
  31   2.0000      -0.821886       -22.3647
  32   2.0000      -0.782111       -21.2823
  33   2.0000      -0.767819       -20.8934
  34   2.0000      -0.711722       -19.3669
  35   2.0000      -0.704267       -19.1641
  36   2.0000      -0.700228       -19.0542
  37   2.0000      -0.657119       -17.8811
  38   2.0000      -0.642471       -17.4825
  39   2.0000      -0.613733       -16.7005
  40   2.0000      -0.599822       -16.3220
  41   2.0000      -0.582431       -15.8487
  42   2.0000      -0.576190       -15.6789
  43   2.0000      -0.553590       -15.0639
  44   2.0000      -0.544008       -14.8032
  45   2.0000      -0.525804       -14.3078
  46   2.0000      -0.520216       -14.1558
  47   2.0000      -0.511972       -13.9315
  48   2.0000      -0.507094       -13.7987
  49   2.0000      -0.500693       -13.6245
  50   2.0000      -0.488069       -13.2810
  51   2.0000      -0.482643       -13.1334
  52   2.0000      -0.478139       -13.0108
  53   2.0000      -0.466178       -12.6853
  54   2.0000      -0.459479       -12.5030
  55   2.0000      -0.452953       -12.3255
  56   2.0000      -0.446578       -12.1520
  57   2.0000      -0.441151       -12.0043
  58   2.0000      -0.433271       -11.7899
  59   2.0000      -0.427280       -11.6269
  60   2.0000      -0.419853       -11.4248
  61   2.0000      -0.405735       -11.0406
  62   2.0000      -0.403591       -10.9823
  63   2.0000      -0.361004        -9.8234
  64   2.0000      -0.333226        -9.0675
  65   2.0000      -0.325639        -8.8611
  66   2.0000      -0.276946        -7.5361
  67   0.0000       0.017471         0.4754
  68   0.0000       0.075063         2.0426
  69   0.0000       0.108159         2.9432
  70   0.0000       0.120751         3.2858
  71   0.0000       0.137735         3.7480

MULLIKEN ATOMIC CHARGES
-----------------------
   0 S :    0.114191
   1 C :   -0.110887
   2 C :   -0.113003
   3 C :   -0.011272
   4 C :   -0.132543
   5 H :    0.019127
   6 C :    0.097956
   7 H :    0.012160
   8 H :    0.047733
   9 C :   -0.077513
  10 H :    0.021928
  11 H :    0.024084
  12 C :   -0.037330
  13 H :    0.028966
  14 H :    0.047876
  15 H :    0.016311
  16 S :    0.073189
  17 C :   -0.066823
  18 C :    0.005354
  19 C :   -0.060234
  20 C :   -0.122090
  21 H :   -0.020999
  22 C :    0.021076
  23 H :    0.032307
  24 H :    0.039613
  25 C :   -0.085865
  26 H :    0.032592
  27 H :    0.048187
  28 C :   -0.011294
  29 H :    0.022888
  30 H :    0.039494
  31 H :    0.006776
  32 H :    0.043754
  33 H :    0.054291
Sum of atomic charges:   -0.0000000

LOEWDIN ATOMIC CHARGES
----------------------
   0 S :    0.406335
   1 C :   -0.212975
   2 C :   -0.060736
   3 C :   -0.074708
   4 C :   -0.177892
   5 H :    0.039155
   6 C :   -0.026097
   7 H :    0.023402
   8 H :    0.045536
   9 C :   -0.047129
  10 H :    0.023711
  11 H :    0.023786
  12 C :   -0.068241
  13 H :    0.023521
  14 H :    0.038968
  15 H :    0.022136
  16 S :    0.375055
  17 C :   -0.165982
  18 C :   -0.067510
  19 C :   -0.055267
  20 C :   -0.184217
  21 H :    0.015253
  22 C :   -0.033099
  23 H :    0.025076
  24 H :    0.033119
  25 C :   -0.039910
  26 H :    0.030622
  27 H :    0.025655
  28 C :   -0.063280
  29 H :    0.024395
  30 H :    0.028589
  31 H :    0.019978
  32 H :    0.022688
  33 H :    0.030063

  Mayer bond orders larger than 0.100000
B(  0-S ,  1-C ) :   1.1503 B(  0-S ,  4-C ) :   1.1355 B(  1-C ,  2-C ) :   1.5825
B(  1-C ,  4-C ) :   0.1069 B(  1-C , 32-H ) :   0.9696 B(  2-C ,  3-C ) :   1.2434
B(  2-C ,  6-C ) :   1.0038 B(  3-C ,  4-C ) :   1.5775 B(  3-C ,  5-H ) :   0.9854
B(  4-C , 20-C ) :   1.1034 B(  6-C ,  7-H ) :   0.9420 B(  6-C ,  8-H ) :   0.9414
B(  6-C ,  9-C ) :   1.0708 B(  9-C , 10-H ) :   0.9562 B(  9-C , 11-H ) :   0.9529
B(  9-C , 12-C ) :   1.0836 B( 12-C , 13-H ) :   0.9713 B( 12-C , 14-H ) :   0.9700
B( 12-C , 15-H ) :   0.9699 B( 16-S , 17-C ) :   1.1525 B( 16-S , 20-C ) :   1.1184
B( 17-C , 18-C ) :   1.5898 B( 17-C , 20-C ) :   0.1014 B( 17-C , 33-H ) :   0.9630
B( 18-C , 19-C ) :   1.2693 B( 18-C , 21-H ) :   0.9993 B( 19-C , 20-C ) :   1.5656
B( 19-C , 22-C ) :   1.0160 B( 22-C , 23-H ) :   0.9201 B( 22-C , 24-H ) :   0.9420
B( 22-C , 25-C ) :   1.0946 B( 25-C , 26-H ) :   0.9457 B( 25-C , 27-H ) :   0.9488
B( 25-C , 28-C ) :   1.0878 B( 28-C , 29-H ) :   0.9701 B( 28-C , 30-H ) :   0.9752
B( 28-C , 31-H ) :   0.9674

Dispersion correction           -0.013589889
FINAL SINGLE POINT ENERGY     -1339.866030325961

DIPOLE MOMENT
-------------
                                X             Y             Z
Electronic contribution:    -12.30249      13.95152      23.31421
Nuclear contribution   :     12.62498     -14.51074     -23.70086
                        -----------------------------------------
Total Dipole Moment    :      0.32249      -0.55922      -0.38664
                        -----------------------------------------
Magnitude (a.u.)       :      0.75248
Magnitude (Debye)      :      1.91265

Rotational constants in cm-1:     0.017471     0.008887     0.006176
Rotational constants in MHz :   523.778804   266.423335   185.157698

                             ****ORCA TERMINATED NORMALLY****
TOTAL RUN TIME: 0 days 0 hours 0 minutes 29 seconds 961 msec
