                         Program Version 4.2.1 -  RELEASE  -
|  1> ! wB97X-D3 SP def2-SVP
|  2> %pal
|  3> nprocs 16
|  4> end
|  5>
|  6> * xyz 0 1
|  7> S 	 9.47788 	 -7.96335 	 63.8349
|  8> C 	 7.83543 	 -7.49808 	 63.9148
|  9> C 	 7.19984 	 -7.98782 	 65.0605
| 10> C 	 8.02209 	 -8.97314 	 65.7123
| 11> C 	 9.29269 	 -9.08873 	 65.1473
| 12> H 	 7.81227 	 -9.55563 	 66.5514
| 13> C 	 5.7209 	 -7.82136 	 65.3471
| 14> H 	 5.15806 	 -8.34807 	 64.5012
| 15> H 	 5.28783 	 -6.74628 	 65.2742
| 16> C 	 5.31177 	 -8.32803 	 66.7533
| 17> H 	 4.20304 	 -8.31755 	 66.7628
| 18> H 	 5.57193 	 -9.37492 	 66.9246
| 19> C 	 5.80593 	 -7.32368 	 67.856
| 20> H 	 5.49427 	 -7.64764 	 68.8006
| 21> H 	 6.93923 	 -7.24927 	 67.7983
| 22> H 	 5.35187 	 -6.33132 	 67.6351
| 23> S 	 12.0858 	 -9.44565 	 65.4291
| 24> C 	 12.7816 	 -10.7998 	 66.2841
| 25> C 	 11.686 	 -11.6651 	 66.6174
| 26> C 	 10.3644 	 -11.2793 	 66.1467
| 27> C 	 10.4318 	 -10.0258 	 65.4904
| 28> H 	 11.9426 	 -12.5758 	 67.1501
| 29> C 	 9.10967 	 -12.0929 	 66.5307
| 30> H 	 8.22898 	 -11.6775 	 66.0541
| 31> H 	 8.8601 	 -12.0507 	 67.5905
| 32> C 	 9.18207 	 -13.5853 	 66.1497
| 33> H 	 8.34801 	 -14.0989 	 66.5194
| 34> H 	 10.0789 	 -14.0507 	 66.5494
| 35> C 	 9.03421 	 -13.8384 	 64.6023
| 36> H 	 8.04291 	 -13.5103 	 64.3008
| 37> H 	 9.14883 	 -14.9469 	 64.4797
| 38> H 	 9.73475 	 -13.3465 	 63.9166
| 39> H 	 7.31915 	 -6.76664 	 63.2431
| 40> H 	 13.8362 	 -11.0242 	 66.5947
| 41> *
| 42>
| 43>                          ****END OF INPUT****

CARTESIAN COORDINATES (ANGSTROEM)
---------------------------------
  S      9.477880   -7.963350   63.834900
  C      7.835430   -7.498080   63.914800
  C      7.199840   -7.987820   65.060500
  C      8.022090   -8.973140   65.712300
  C      9.292690   -9.088730   65.147300
  H      7.812270   -9.555630   66.551400
  C      5.720900   -7.821360   65.347100
  H      5.158060   -8.348070   64.501200
  H      5.287830   -6.746280   65.274200
  C      5.311770   -8.328030   66.753300
  H      4.203040   -8.317550   66.762800
  H      5.571930   -9.374920   66.924600
  C      5.805930   -7.323680   67.856000
  H      5.494270   -7.647640   68.800600
  H      6.939230   -7.249270   67.798300
  H      5.351870   -6.331320   67.635100
  S     12.085800   -9.445650   65.429100
  C     12.781600  -10.799800   66.284100
  C     11.686000  -11.665100   66.617400
  C     10.364400  -11.279300   66.146700
  C     10.431800  -10.025800   65.490400
  H     11.942600  -12.575800   67.150100
  C      9.109670  -12.092900   66.530700
  H      8.228980  -11.677500   66.054100
  H      8.860100  -12.050700   67.590500
  C      9.182070  -13.585300   66.149700
  H      8.348010  -14.098900   66.519400
  H     10.078900  -14.050700   66.549400
  C      9.034210  -13.838400   64.602300
  H      8.042910  -13.510300   64.300800
  H      9.148830  -14.946900   64.479700
  H      9.734750  -13.346500   63.916600
  H      7.319150   -6.766640   63.243100
  H     13.836200  -11.024200   66.594700

 Total Charge           Charge          ....    0
 Multiplicity           Mult            ....    1
 Number of Electrons    NEL             ....  134
 Basis Dimension        Dim             ....  322

ORBITAL ENERGIES
----------------

  NO   OCC          E(Eh)            E(eV)
   0   2.0000     -88.970046     -2420.9980
   1   2.0000     -88.968096     -2420.9450
   2   2.0000     -10.338184      -281.3163
   3   2.0000     -10.335419      -281.2411
   4   2.0000     -10.328542      -281.0539
   5   2.0000     -10.315156      -280.6897
   6   2.0000     -10.313352      -280.6406
   7   2.0000     -10.306285      -280.4483
   8   2.0000     -10.305255      -280.4203
   9   2.0000     -10.301542      -280.3192
  10   2.0000     -10.295971      -280.1676
  11   2.0000     -10.295334      -280.1503
  12   2.0000     -10.293477      -280.0998
  13   2.0000     -10.284791      -279.8634
  14   2.0000     -10.283510      -279.8285
  15   2.0000     -10.278103      -279.6814
  16   2.0000      -8.084214      -219.9826
  17   2.0000      -8.083581      -219.9654
  18   2.0000      -6.042883      -164.4352
  19   2.0000      -6.041964      -164.4102
  20   2.0000      -6.038549      -164.3173
  21   2.0000      -6.037901      -164.2996
  22   2.0000      -6.035068      -164.2225
  23   2.0000      -6.034523      -164.2077
  24   2.0000      -1.004918       -27.3452
  25   2.0000      -0.981526       -26.7087
  26   2.0000      -0.907979       -24.7074
  27   2.0000      -0.905014       -24.6267
  28   2.0000      -0.861893       -23.4533
  29   2.0000      -0.847577       -23.0637
  30   2.0000      -0.838420       -22.8146
  31   2.0000      -0.811270       -22.0758
  32   2.0000      -0.780317       -21.2335
  33   2.0000      -0.770013       -20.9531
  34   2.0000      -0.707156       -19.2427
  35   2.0000      -0.696484       -18.9523
  36   2.0000      -0.685729       -18.6596
  37   2.0000      -0.652182       -17.7468
  38   2.0000      -0.638643       -17.3784
  39   2.0000      -0.627676       -17.0799
  40   2.0000      -0.597644       -16.2627
  41   2.0000      -0.566359       -15.4114
  42   2.0000      -0.551760       -15.0141
  43   2.0000      -0.544542       -14.8177
  44   2.0000      -0.539157       -14.6712
  45   2.0000      -0.528675       -14.3860
  46   2.0000      -0.518369       -14.1055
  47   2.0000      -0.508934       -13.8488
  48   2.0000      -0.500612       -13.6224
  49   2.0000      -0.492476       -13.4010
  50   2.0000      -0.491838       -13.3836
  51   2.0000      -0.477701       -12.9989
  52   2.0000      -0.470145       -12.7933
  53   2.0000      -0.463186       -12.6039
  54   2.0000      -0.460344       -12.5266
  55   2.0000      -0.447671       -12.1817
  56   2.0000      -0.439165       -11.9503
  57   2.0000      -0.433579       -11.7983
  58   2.0000      -0.429800       -11.6954
  59   2.0000      -0.427697       -11.6382
  60   2.0000      -0.422727       -11.5030
  61   2.0000      -0.419662       -11.4196
  62   2.0000      -0.413374       -11.2485
  63   2.0000      -0.352877        -9.6023
  64   2.0000      -0.331492        -9.0204
  65   2.0000      -0.328099        -8.9280
  66   2.0000      -0.285546        -7.7701
  67   0.0000       0.023901         0.6504
  68   0.0000       0.072458         1.9717
  69   0.0000       0.107161         2.9160
  70   0.0000       0.113125         3.0783
  71   0.0000       0.130921         3.5625

MULLIKEN ATOMIC CHARGES
-----------------------
   0 S :    0.123638
   1 C :   -0.126791
   2 C :   -0.065162
   3 C :    0.021760
   4 C :   -0.144862
   5 H :   -0.008346
   6 C :   -0.023746
   7 H :    0.058640
   8 H :    0.041210
   9 C :   -0.098670
  10 H :    0.029737
  11 H :    0.035584
  12 C :   -0.045132
  13 H :    0.028482
  14 H :    0.054589
  15 H :    0.035041
  16 S :    0.107325
  17 C :   -0.117256
  18 C :   -0.068884
  19 C :   -0.040161
  20 C :   -0.110763
  21 H :    0.025067
  22 C :    0.058869
  23 H :    0.012215
  24 H :    0.042035
  25 C :   -0.057808
  26 H :    0.017409
  27 H :    0.030970
  28 C :   -0.077053
  29 H :    0.026772
  30 H :    0.038565
  31 H :    0.046907
  32 H :    0.064452
  33 H :    0.085366
Sum of atomic charges:    0.0000000

LOEWDIN ATOMIC CHARGES
----------------------
   0 S :    0.431484
   1 C :   -0.216305
   2 C :   -0.069755
   3 C :   -0.061642
   4 C :   -0.189088
   5 H :    0.019550
   6 C :   -0.046898
   7 H :    0.042040
   8 H :    0.038329
   9 C :   -0.048164
  10 H :    0.026958
  11 H :    0.019722
  12 C :   -0.060503
  13 H :    0.015422
  14 H :    0.034788
  15 H :    0.029815
  16 S :    0.413224
  17 C :   -0.209882
  18 C :   -0.071520
  19 C :   -0.058500
  20 C :   -0.199070
  21 H :    0.026568
  22 C :   -0.032998
  23 H :    0.026533
  24 H :    0.033497
  25 C :   -0.032923
  26 H :    0.019328
  27 H :    0.019884
  28 C :   -0.065857
  29 H :    0.021414
  30 H :    0.030220
  31 H :    0.025698
  32 H :    0.039228
  33 H :    0.049405

  Mayer bond orders larger than 0.100000
B(  0-S ,  1-C ) :   1.1637 B(  0-S ,  4-C ) :   1.1676 B(  1-C ,  2-C ) :   1.5932
B(  1-C ,  4-C ) :   0.1002 B(  1-C , 32-H ) :   0.9640 B(  2-C ,  3-C ) :   1.2432
B(  2-C ,  6-C ) :   1.0167 B(  3-C ,  4-C ) :   1.5624 B(  3-C ,  5-H ) :   0.9957
B(  4-C , 20-C ) :   1.0166 B(  6-C ,  7-H ) :   0.9423 B(  6-C ,  8-H ) :   0.9436
B(  6-C ,  9-C ) :   1.0813 B(  9-C , 10-H ) :   0.9544 B(  9-C , 11-H ) :   0.9499
B(  9-C , 12-C ) :   1.0648 B( 12-C , 13-H ) :   0.9767 B( 12-C , 14-H ) :   0.9771
B( 12-C , 15-H ) :   0.9731 B( 16-S , 17-C ) :   1.1548 B( 16-S , 20-C ) :   1.1592
B( 17-C , 18-C ) :   1.5876 B( 17-C , 20-C ) :   0.1045 B( 17-C , 33-H ) :   0.9638
B( 18-C , 19-C ) :   1.2584 B( 18-C , 21-H ) :   0.9848 B( 19-C , 20-C ) :   1.5597
B( 19-C , 22-C ) :   1.0363 B( 22-C , 23-H ) :   0.9316 B( 22-C , 24-H ) :   0.9381
B( 22-C , 25-C ) :   1.0785 B( 25-C , 26-H ) :   0.9527 B( 25-C , 27-H ) :   0.9606
B( 25-C , 28-C ) :   1.0656 B( 28-C , 29-H ) :   0.9754 B( 28-C , 30-H ) :   0.9769
B( 28-C , 31-H ) :   0.9806

Dispersion correction           -0.014200977
FINAL SINGLE POINT ENERGY     -1339.874084788506

DIPOLE MOMENT
-------------
                                X             Y             Z
Electronic contribution:     21.77850      11.70422      -9.81442
Nuclear contribution   :    -22.34044     -12.04105      10.20494
                        -----------------------------------------
Total Dipole Moment    :     -0.56194      -0.33683       0.39051
                        -----------------------------------------
Magnitude (a.u.)       :      0.76271
Magnitude (Debye)      :      1.93867

Rotational constants in cm-1:     0.017522     0.008972     0.007265
Rotational constants in MHz :   525.308669   268.979689   217.812872

                             ****ORCA TERMINATED NORMALLY****
TOTAL RUN TIME: 0 days 0 hours 0 minutes 35 seconds 92 msec
