                         Program Version 4.2.1 -  RELEASE  -
|  1> ! wB97X-D3 SP def2-SVP
|  2> %pal
|  3> nprocs 16
|  4> end
|  5>
|  6> * xyz 0 1
|  7> S 	 -45.7483 	 61.8856 	 140.533
|  8> C 	 -45.6621 	 60.1465 	 140.783
|  9> C 	 -46.5856 	 59.5055 	 139.94
| 10> C 	 -47.6083 	 60.396 	 139.529
| 11> C 	 -47.2933 	 61.6962 	 139.779
| 12> H 	 -48.4762 	 60.213 	 138.954
| 13> C 	 -46.7388 	 58.0088 	 139.897
| 14> H 	 -47.7998 	 57.7488 	 139.976
| 15> H 	 -46.3679 	 57.5171 	 140.841
| 16> C 	 -46.1376 	 57.3297 	 138.69
| 17> H 	 -46.6766 	 57.5822 	 137.751
| 18> H 	 -45.0851 	 57.6473 	 138.508
| 19> C 	 -46.0536 	 55.7913 	 138.773
| 20> H 	 -45.4426 	 55.2949 	 137.963
| 21> H 	 -45.6345 	 55.4452 	 139.724
| 22> H 	 -47.1123 	 55.4667 	 138.728
| 23> S 	 -49.0442 	 63.697 	 140.783
| 24> C 	 -49.8881 	 64.6865 	 139.609
| 25> C 	 -49.4926 	 64.4428 	 138.281
| 26> C 	 -48.6199 	 63.2701 	 138.267
| 27> C 	 -48.1577 	 62.8353 	 139.489
| 28> H 	 -49.9505 	 65.0344 	 137.511
| 29> C 	 -48.0212 	 62.8688 	 136.915
| 30> H 	 -48.851 	 62.8392 	 136.143
| 31> H 	 -47.7877 	 61.7992 	 136.895
| 32> C 	 -46.7621 	 63.5701 	 136.414
| 33> H 	 -45.8562 	 63.0834 	 136.763
| 34> H 	 -46.7501 	 64.6084 	 136.595
| 35> C 	 -46.5954 	 63.3724 	 134.904
| 36> H 	 -45.711 	 63.8179 	 134.55
| 37> H 	 -47.4361 	 63.8725 	 134.402
| 38> H 	 -46.6872 	 62.2674 	 134.701
| 39> H 	 -44.8447 	 59.5722 	 141.151
| 40> H 	 -50.432 	 65.5913 	 139.813
| 41> *
| 42>
| 43>                          ****END OF INPUT****

CARTESIAN COORDINATES (ANGSTROEM)
---------------------------------
  S    -45.748300   61.885600  140.533000
  C    -45.662100   60.146500  140.783000
  C    -46.585600   59.505500  139.940000
  C    -47.608300   60.396000  139.529000
  C    -47.293300   61.696200  139.779000
  H    -48.476200   60.213000  138.954000
  C    -46.738800   58.008800  139.897000
  H    -47.799800   57.748800  139.976000
  H    -46.367900   57.517100  140.841000
  C    -46.137600   57.329700  138.690000
  H    -46.676600   57.582200  137.751000
  H    -45.085100   57.647300  138.508000
  C    -46.053600   55.791300  138.773000
  H    -45.442600   55.294900  137.963000
  H    -45.634500   55.445200  139.724000
  H    -47.112300   55.466700  138.728000
  S    -49.044200   63.697000  140.783000
  C    -49.888100   64.686500  139.609000
  C    -49.492600   64.442800  138.281000
  C    -48.619900   63.270100  138.267000
  C    -48.157700   62.835300  139.489000
  H    -49.950500   65.034400  137.511000
  C    -48.021200   62.868800  136.915000
  H    -48.851000   62.839200  136.143000
  H    -47.787700   61.799200  136.895000
  C    -46.762100   63.570100  136.414000
  H    -45.856200   63.083400  136.763000
  H    -46.750100   64.608400  136.595000
  C    -46.595400   63.372400  134.904000
  H    -45.711000   63.817900  134.550000
  H    -47.436100   63.872500  134.402000
  H    -46.687200   62.267400  134.701000
  H    -44.844700   59.572200  141.151000
  H    -50.432000   65.591300  139.813000

 Total Charge           Charge          ....    0
 Multiplicity           Mult            ....    1
 Number of Electrons    NEL             ....  134
 Basis Dimension        Dim             ....  322

ORBITAL ENERGIES
----------------

  NO   OCC          E(Eh)            E(eV)
   0   2.0000     -88.969642     -2420.9870
   1   2.0000     -88.966425     -2420.8995
   2   2.0000     -10.327615      -281.0287
   3   2.0000     -10.324926      -280.9555
   4   2.0000     -10.319311      -280.8027
   5   2.0000     -10.314479      -280.6712
   6   2.0000     -10.307801      -280.4895
   7   2.0000     -10.303244      -280.3655
   8   2.0000     -10.298577      -280.2385
   9   2.0000     -10.295380      -280.1515
  10   2.0000     -10.292370      -280.0696
  11   2.0000     -10.289777      -279.9991
  12   2.0000     -10.289637      -279.9952
  13   2.0000     -10.284993      -279.8689
  14   2.0000     -10.277805      -279.6733
  15   2.0000     -10.274906      -279.5944
  16   2.0000      -8.084364      -219.9867
  17   2.0000      -8.080424      -219.8795
  18   2.0000      -6.042765      -164.4320
  19   2.0000      -6.039031      -164.3304
  20   2.0000      -6.038981      -164.3290
  21   2.0000      -6.035079      -164.2228
  22   2.0000      -6.035035      -164.2216
  23   2.0000      -6.031165      -164.1163
  24   2.0000      -1.007969       -27.4282
  25   2.0000      -0.981118       -26.6976
  26   2.0000      -0.913032       -24.8449
  27   2.0000      -0.907247       -24.6874
  28   2.0000      -0.869009       -23.6469
  29   2.0000      -0.853300       -23.2195
  30   2.0000      -0.846842       -23.0437
  31   2.0000      -0.815777       -22.1984
  32   2.0000      -0.780005       -21.2250
  33   2.0000      -0.767104       -20.8740
  34   2.0000      -0.704585       -19.1727
  35   2.0000      -0.694786       -18.9061
  36   2.0000      -0.691047       -18.8043
  37   2.0000      -0.659399       -17.9432
  38   2.0000      -0.647643       -17.6233
  39   2.0000      -0.620525       -16.8853
  40   2.0000      -0.596555       -16.2331
  41   2.0000      -0.575180       -15.6514
  42   2.0000      -0.563601       -15.3364
  43   2.0000      -0.557286       -15.1645
  44   2.0000      -0.528079       -14.3698
  45   2.0000      -0.524036       -14.2597
  46   2.0000      -0.519983       -14.1494
  47   2.0000      -0.511839       -13.9278
  48   2.0000      -0.507459       -13.8087
  49   2.0000      -0.497562       -13.5393
  50   2.0000      -0.493563       -13.4305
  51   2.0000      -0.477575       -12.9955
  52   2.0000      -0.466494       -12.6940
  53   2.0000      -0.461895       -12.5688
  54   2.0000      -0.450840       -12.2680
  55   2.0000      -0.448068       -12.1926
  56   2.0000      -0.446273       -12.1437
  57   2.0000      -0.434294       -11.8177
  58   2.0000      -0.433417       -11.7939
  59   2.0000      -0.428858       -11.6698
  60   2.0000      -0.418814       -11.3965
  61   2.0000      -0.408639       -11.1196
  62   2.0000      -0.406730       -11.0677
  63   2.0000      -0.339177        -9.2295
  64   2.0000      -0.330219        -8.9857
  65   2.0000      -0.328798        -8.9470
  66   2.0000      -0.305053        -8.3009
  67   0.0000       0.031055         0.8451
  68   0.0000       0.058996         1.6054
  69   0.0000       0.108237         2.9453
  70   0.0000       0.116534         3.1710
  71   0.0000       0.126283         3.4363

MULLIKEN ATOMIC CHARGES
-----------------------
   0 S :    0.125515
   1 C :   -0.095520
   2 C :   -0.068001
   3 C :    0.065969
   4 C :   -0.180160
   5 H :    0.003437
   6 C :    0.022124
   7 H :    0.023950
   8 H :    0.027420
   9 C :   -0.085482
  10 H :    0.032994
  11 H :    0.028925
  12 C :   -0.069617
  13 H :    0.050260
  14 H :    0.028857
  15 H :    0.031277
  16 S :    0.109892
  17 C :   -0.089986
  18 C :   -0.035458
  19 C :   -0.027456
  20 C :   -0.135816
  21 H :    0.026092
  22 C :    0.014918
  23 H :    0.024069
  24 H :    0.010068
  25 C :   -0.012159
  26 H :    0.032111
  27 H :    0.019743
  28 C :   -0.066859
  29 H :    0.029023
  30 H :    0.023896
  31 H :    0.033556
  32 H :    0.045215
  33 H :    0.057202
Sum of atomic charges:   -0.0000000

LOEWDIN ATOMIC CHARGES
----------------------
   0 S :    0.417039
   1 C :   -0.189624
   2 C :   -0.056872
   3 C :   -0.049836
   4 C :   -0.198732
   5 H :    0.029237
   6 C :   -0.040723
   7 H :    0.031524
   8 H :    0.035785
   9 C :   -0.050355
  10 H :    0.026388
  11 H :    0.023920
  12 C :   -0.072205
  13 H :    0.033959
  14 H :    0.021013
  15 H :    0.025559
  16 S :    0.391233
  17 C :   -0.180985
  18 C :   -0.067354
  19 C :   -0.052134
  20 C :   -0.196038
  21 H :    0.033278
  22 C :   -0.044543
  23 H :    0.031992
  24 H :    0.028042
  25 C :   -0.033182
  26 H :    0.028228
  27 H :    0.016174
  28 C :   -0.059020
  29 H :    0.017693
  30 H :    0.020558
  31 H :    0.028688
  32 H :    0.023433
  33 H :    0.027858

  Mayer bond orders larger than 0.100000
B(  0-S ,  1-C ) :   1.1412 B(  0-S ,  4-C ) :   1.1546 B(  1-C ,  2-C ) :   1.6011
B(  1-C , 32-H ) :   0.9658 B(  2-C ,  3-C ) :   1.2251 B(  2-C ,  6-C ) :   1.0303
B(  3-C ,  4-C ) :   1.5981 B(  3-C ,  5-H ) :   0.9976 B(  4-C , 20-C ) :   1.0202
B(  6-C ,  7-H ) :   0.9435 B(  6-C ,  8-H ) :   0.9505 B(  6-C ,  9-C ) :   1.0486
B(  9-C , 10-H ) :   0.9545 B(  9-C , 11-H ) :   0.9597 B(  9-C , 12-C ) :   1.0761
B( 12-C , 13-H ) :   0.9759 B( 12-C , 14-H ) :   0.9751 B( 12-C , 15-H ) :   0.9759
B( 16-S , 17-C ) :   1.1636 B( 16-S , 20-C ) :   1.1120 B( 17-C , 18-C ) :   1.6322
B( 17-C , 33-H ) :   0.9610 B( 18-C , 19-C ) :   1.2041 B( 18-C , 21-H ) :   0.9922
B( 19-C , 20-C ) :   1.6258 B( 19-C , 22-C ) :   1.0598 B( 22-C , 23-H ) :   0.9440
B( 22-C , 24-H ) :   0.9214 B( 22-C , 25-C ) :   1.0576 B( 25-C , 26-H ) :   0.9545
B( 25-C , 27-H ) :   0.9603 B( 25-C , 28-C ) :   1.0768 B( 28-C , 29-H ) :   0.9738
B( 28-C , 30-H ) :   0.9772 B( 28-C , 31-H ) :   0.9764

Dispersion correction           -0.013886306
FINAL SINGLE POINT ENERGY     -1339.866005310677

DIPOLE MOMENT
-------------
                                X             Y             Z
Electronic contribution:     -5.49035      18.20660      21.21690
Nuclear contribution   :      5.47921     -18.47171     -21.72866
                        -----------------------------------------
Total Dipole Moment    :     -0.01114      -0.26511      -0.51176
                        -----------------------------------------
Magnitude (a.u.)       :      0.57646
Magnitude (Debye)      :      1.46524

Rotational constants in cm-1:     0.018202     0.007988     0.006570
Rotational constants in MHz :   545.681024   239.462030   196.977606

                             ****ORCA TERMINATED NORMALLY****
TOTAL RUN TIME: 0 days 0 hours 0 minutes 33 seconds 134 msec
