                         Program Version 4.2.1 -  RELEASE  -
|  1> ! wB97X-D3 SP def2-SVP
|  2> %pal
|  3> nprocs 16
|  4> end
|  5>
|  6> * xyz 0 1
|  7> S 	 36.0003 	 21.1859 	 52.6664
|  8> C 	 35.0153 	 21.3577 	 54.0568
|  9> C 	 33.8436 	 20.6478 	 54.0264
| 10> C 	 33.7535 	 19.9782 	 52.6944
| 11> C 	 34.8688 	 20.1818 	 51.8329
| 12> H 	 32.9923 	 19.2331 	 52.3382
| 13> C 	 32.8637 	 20.5825 	 55.1323
| 14> H 	 31.8333 	 20.7543 	 54.718
| 15> H 	 33.0062 	 21.4344 	 55.8434
| 16> C 	 32.8877 	 19.3624 	 55.975
| 17> H 	 32.8968 	 18.5217 	 55.2727
| 18> H 	 33.8515 	 19.4003 	 56.4588
| 19> C 	 31.8073 	 19.3445 	 56.9478
| 20> H 	 31.9794 	 20.2528 	 57.5322
| 21> H 	 30.7853 	 19.4262 	 56.4651
| 22> H 	 31.9144 	 18.499 	 57.6603
| 23> S 	 33.7946 	 19.2577 	 49.5379
| 24> C 	 34.589 	 18.187 	 48.4783
| 25> C 	 35.9529 	 18.142 	 48.7456
| 26> C 	 36.3091 	 18.9121 	 49.9301
| 27> C 	 35.1828 	 19.4891 	 50.5455
| 28> H 	 36.5374 	 17.4464 	 48.1593
| 29> C 	 37.7036 	 18.9969 	 50.4565
| 30> H 	 38.2536 	 18.07 	 50.2484
| 31> H 	 37.698 	 19.1058 	 51.5375
| 32> C 	 38.5089 	 20.1572 	 49.7819
| 33> H 	 37.7762 	 20.8974 	 49.5656
| 34> H 	 38.9754 	 19.7861 	 48.7555
| 35> C 	 39.581 	 20.7669 	 50.7497
| 36> H 	 39.0817 	 21.1924 	 51.601
| 37> H 	 40.1725 	 21.5613 	 50.2796
| 38> H 	 40.3187 	 19.9781 	 51.0461
| 39> H 	 35.1772 	 21.9536 	 54.835
| 40> H 	 34.1828 	 17.6303 	 47.5985
| 41> *
| 42>
| 43>                          ****END OF INPUT****

CARTESIAN COORDINATES (ANGSTROEM)
---------------------------------
  S     36.000300   21.185900   52.666400
  C     35.015300   21.357700   54.056800
  C     33.843600   20.647800   54.026400
  C     33.753500   19.978200   52.694400
  C     34.868800   20.181800   51.832900
  H     32.992300   19.233100   52.338200
  C     32.863700   20.582500   55.132300
  H     31.833300   20.754300   54.718000
  H     33.006200   21.434400   55.843400
  C     32.887700   19.362400   55.975000
  H     32.896800   18.521700   55.272700
  H     33.851500   19.400300   56.458800
  C     31.807300   19.344500   56.947800
  H     31.979400   20.252800   57.532200
  H     30.785300   19.426200   56.465100
  H     31.914400   18.499000   57.660300
  S     33.794600   19.257700   49.537900
  C     34.589000   18.187000   48.478300
  C     35.952900   18.142000   48.745600
  C     36.309100   18.912100   49.930100
  C     35.182800   19.489100   50.545500
  H     36.537400   17.446400   48.159300
  C     37.703600   18.996900   50.456500
  H     38.253600   18.070000   50.248400
  H     37.698000   19.105800   51.537500
  C     38.508900   20.157200   49.781900
  H     37.776200   20.897400   49.565600
  H     38.975400   19.786100   48.755500
  C     39.581000   20.766900   50.749700
  H     39.081700   21.192400   51.601000
  H     40.172500   21.561300   50.279600
  H     40.318700   19.978100   51.046100
  H     35.177200   21.953600   54.835000
  H     34.182800   17.630300   47.598500

 Total Charge           Charge          ....    0
 Multiplicity           Mult            ....    1
 Number of Electrons    NEL             ....  134
 Basis Dimension        Dim             ....  322

ORBITAL ENERGIES
----------------

  NO   OCC          E(Eh)            E(eV)
   0   2.0000     -88.970049     -2420.9981
   1   2.0000     -88.965419     -2420.8721
   2   2.0000     -10.340150      -281.3698
   3   2.0000     -10.333561      -281.1905
   4   2.0000     -10.317451      -280.7521
   5   2.0000     -10.309777      -280.5433
   6   2.0000     -10.308561      -280.5102
   7   2.0000     -10.307286      -280.4755
   8   2.0000     -10.304691      -280.4049
   9   2.0000     -10.296585      -280.1843
  10   2.0000     -10.294072      -280.1159
  11   2.0000     -10.292284      -280.0673
  12   2.0000     -10.288253      -279.9576
  13   2.0000     -10.282678      -279.8059
  14   2.0000     -10.278929      -279.7039
  15   2.0000     -10.277318      -279.6600
  16   2.0000      -8.085139      -220.0078
  17   2.0000      -8.081086      -219.8975
  18   2.0000      -6.043626      -164.4554
  19   2.0000      -6.039589      -164.3456
  20   2.0000      -6.039472      -164.3424
  21   2.0000      -6.036054      -164.2494
  22   2.0000      -6.035251      -164.2275
  23   2.0000      -6.032005      -164.1392
  24   2.0000      -1.009273       -27.4637
  25   2.0000      -0.989767       -26.9329
  26   2.0000      -0.931893       -25.3581
  27   2.0000      -0.904553       -24.6141
  28   2.0000      -0.875538       -23.8246
  29   2.0000      -0.851849       -23.1800
  30   2.0000      -0.842533       -22.9265
  31   2.0000      -0.814167       -22.1546
  32   2.0000      -0.782879       -21.3032
  33   2.0000      -0.770652       -20.9705
  34   2.0000      -0.704784       -19.1781
  35   2.0000      -0.696179       -18.9440
  36   2.0000      -0.688615       -18.7382
  37   2.0000      -0.665078       -18.0977
  38   2.0000      -0.639423       -17.3996
  39   2.0000      -0.618861       -16.8401
  40   2.0000      -0.594974       -16.1901
  41   2.0000      -0.580795       -15.8042
  42   2.0000      -0.576433       -15.6855
  43   2.0000      -0.558059       -15.1856
  44   2.0000      -0.528111       -14.3706
  45   2.0000      -0.522615       -14.2211
  46   2.0000      -0.520507       -14.1637
  47   2.0000      -0.511844       -13.9280
  48   2.0000      -0.504017       -13.7150
  49   2.0000      -0.500957       -13.6317
  50   2.0000      -0.496226       -13.5030
  51   2.0000      -0.476723       -12.9723
  52   2.0000      -0.470107       -12.7923
  53   2.0000      -0.466944       -12.7062
  54   2.0000      -0.454909       -12.3787
  55   2.0000      -0.453717       -12.3463
  56   2.0000      -0.440675       -11.9914
  57   2.0000      -0.435769       -11.8579
  58   2.0000      -0.432634       -11.7726
  59   2.0000      -0.425322       -11.5736
  60   2.0000      -0.421828       -11.4785
  61   2.0000      -0.414812       -11.2876
  62   2.0000      -0.411792       -11.2054
  63   2.0000      -0.358120        -9.7449
  64   2.0000      -0.329301        -8.9607
  65   2.0000      -0.327015        -8.8985
  66   2.0000      -0.290746        -7.9116
  67   0.0000       0.027185         0.7398
  68   0.0000       0.082263         2.2385
  69   0.0000       0.109438         2.9780
  70   0.0000       0.122700         3.3388
  71   0.0000       0.124820         3.3965

MULLIKEN ATOMIC CHARGES
-----------------------
   0 S :    0.112035
   1 C :   -0.040808
   2 C :   -0.084690
   3 C :    0.000283
   4 C :   -0.135410
   5 H :    0.036004
   6 C :    0.007875
   7 H :    0.032188
   8 H :    0.014883
   9 C :   -0.044016
  10 H :    0.024097
  11 H :    0.017342
  12 C :   -0.022811
  13 H :    0.016206
  14 H :    0.042139
  15 H :    0.044918
  16 S :    0.110754
  17 C :   -0.106715
  18 C :   -0.041458
  19 C :   -0.053692
  20 C :   -0.142640
  21 H :    0.020441
  22 C :    0.050707
  23 H :    0.025634
  24 H :    0.025998
  25 C :   -0.094900
  26 H :    0.030449
  27 H :    0.047290
  28 C :   -0.058095
  29 H :    0.033873
  30 H :    0.036360
  31 H :    0.038135
  32 H :   -0.015256
  33 H :    0.072881
Sum of atomic charges:    0.0000000

LOEWDIN ATOMIC CHARGES
----------------------
   0 S :    0.436658
   1 C :   -0.186496
   2 C :   -0.054886
   3 C :   -0.071789
   4 C :   -0.208448
   5 H :    0.032481
   6 C :   -0.039762
   7 H :    0.034233
   8 H :    0.030249
   9 C :   -0.047847
  10 H :    0.022301
  11 H :    0.025355
  12 C :   -0.065544
  13 H :    0.025777
  14 H :    0.033383
  15 H :    0.032595
  16 S :    0.441216
  17 C :   -0.211963
  18 C :   -0.074317
  19 C :   -0.055439
  20 C :   -0.203490
  21 H :    0.031836
  22 C :   -0.040417
  23 H :    0.031987
  24 H :    0.022864
  25 C :   -0.040466
  26 H :    0.015456
  27 H :    0.034114
  28 C :   -0.068577
  29 H :    0.019270
  30 H :    0.026416
  31 H :    0.028749
  32 H :    0.001309
  33 H :    0.043190

  Mayer bond orders larger than 0.100000
B(  0-S ,  1-C ) :   1.1462 B(  0-S ,  4-C ) :   1.1504 B(  1-C ,  2-C ) :   1.6222
B(  1-C , 32-H ) :   0.9749 B(  2-C ,  3-C ) :   1.2281 B(  2-C ,  6-C ) :   1.0381
B(  3-C ,  4-C ) :   1.5720 B(  3-C ,  5-H ) :   0.9746 B(  4-C , 20-C ) :   1.0192
B(  6-C ,  7-H ) :   0.9356 B(  6-C ,  8-H ) :   0.9359 B(  6-C ,  9-C ) :   1.0638
B(  9-C , 10-H ) :   0.9514 B(  9-C , 11-H ) :   0.9445 B(  9-C , 12-C ) :   1.0927
B( 12-C , 13-H ) :   0.9646 B( 12-C , 14-H ) :   0.9703 B( 12-C , 15-H ) :   0.9696
B( 16-S , 17-C ) :   1.1686 B( 16-S , 20-C ) :   1.1571 B( 17-C , 18-C ) :   1.6057
B( 17-C , 33-H ) :   0.9602 B( 18-C , 19-C ) :   1.2381 B( 18-C , 21-H ) :   0.9924
B( 19-C , 20-C ) :   1.5612 B( 19-C , 22-C ) :   1.0689 B( 22-C , 23-H ) :   0.9280
B( 22-C , 24-H ) :   0.9426 B( 22-C , 25-C ) :   1.0332 B( 25-C , 26-H ) :   0.9642
B( 25-C , 27-H ) :   0.9554 B( 25-C , 28-C ) :   1.0760 B( 28-C , 29-H ) :   0.9745
B( 28-C , 30-H ) :   0.9756 B( 28-C , 31-H ) :   0.9755

Dispersion correction           -0.013944189
FINAL SINGLE POINT ENERGY     -1339.871930214222

DIPOLE MOMENT
-------------
                                X             Y             Z
Electronic contribution:     -4.58082       1.80346     -14.64598
Nuclear contribution   :      4.60312      -2.05300      14.94094
                        -----------------------------------------
Total Dipole Moment    :      0.02230      -0.24954       0.29496
                        -----------------------------------------
Magnitude (a.u.)       :      0.38700
Magnitude (Debye)      :      0.98368

Rotational constants in cm-1:     0.020969     0.007744     0.006130
Rotational constants in MHz :   628.640034   232.152900   183.785389

                             ****ORCA TERMINATED NORMALLY****
TOTAL RUN TIME: 0 days 0 hours 0 minutes 33 seconds 474 msec
