                         Program Version 4.2.1 -  RELEASE  -
|  1> ! wB97X-D3 SP def2-SVP
|  2> %pal
|  3> nprocs 16
|  4> end
|  5>
|  6> * xyz 0 1
|  7> S 	 22.5267 	 -10.5901 	 82.6444
|  8> C 	 24.0489 	 -11.3851 	 82.1845
|  9> C 	 24.9104 	 -10.4624 	 81.5484
| 10> C 	 24.2081 	 -9.28995 	 81.1088
| 11> C 	 22.9431 	 -9.13464 	 81.6433
| 12> H 	 24.6086 	 -8.55742 	 80.497
| 13> C 	 26.4187 	 -10.7003 	 81.3153
| 14> H 	 26.7362 	 -10.5928 	 80.2455
| 15> H 	 26.6467 	 -11.6898 	 81.6096
| 16> C 	 27.3761 	 -9.80223 	 82.1846
| 17> H 	 28.4404 	 -9.86959 	 81.8641
| 18> H 	 27.1173 	 -8.77572 	 81.9162
| 19> C 	 27.2349 	 -10.0557 	 83.6833
| 20> H 	 27.7317 	 -11.0122 	 83.9423
| 21> H 	 27.7703 	 -9.25955 	 84.2517
| 22> H 	 26.1426 	 -10.0272 	 84.0259
| 23> S 	 20.574 	 -8.13598 	 80.4695
| 24> C 	 20.2237 	 -6.48241 	 80.6062
| 25> C 	 20.9546 	 -5.96947 	 81.6044
| 26> C 	 22.0899 	 -6.71753 	 82.0083
| 27> C 	 22.0622 	 -7.96791 	 81.4736
| 28> H 	 20.7906 	 -4.93955 	 81.8837
| 29> C 	 23.0518 	 -6.32616 	 83.1364
| 30> H 	 23.2795 	 -7.16368 	 83.8416
| 31> H 	 22.5342 	 -5.62198 	 83.8125
| 32> C 	 24.3468 	 -5.7728 	 82.585
| 33> H 	 24.1739 	 -4.95628 	 81.8649
| 34> H 	 24.8264 	 -6.52968 	 81.9314
| 35> C 	 25.3808 	 -5.48917 	 83.7346
| 36> H 	 25.8093 	 -6.42652 	 84.0468
| 37> H 	 24.8796 	 -5.0337 	 84.6557
| 38> H 	 26.0581 	 -4.71618 	 83.4886
| 39> H 	 24.2862 	 -12.4031 	 82.4685
| 40> H 	 19.5391 	 -5.89799 	 80.0204
| 41> *
| 42>
| 43>                          ****END OF INPUT****

CARTESIAN COORDINATES (ANGSTROEM)
---------------------------------
  S     22.526700  -10.590100   82.644400
  C     24.048900  -11.385100   82.184500
  C     24.910400  -10.462400   81.548400
  C     24.208100   -9.289950   81.108800
  C     22.943100   -9.134640   81.643300
  H     24.608600   -8.557420   80.497000
  C     26.418700  -10.700300   81.315300
  H     26.736200  -10.592800   80.245500
  H     26.646700  -11.689800   81.609600
  C     27.376100   -9.802230   82.184600
  H     28.440400   -9.869590   81.864100
  H     27.117300   -8.775720   81.916200
  C     27.234900  -10.055700   83.683300
  H     27.731700  -11.012200   83.942300
  H     27.770300   -9.259550   84.251700
  H     26.142600  -10.027200   84.025900
  S     20.574000   -8.135980   80.469500
  C     20.223700   -6.482410   80.606200
  C     20.954600   -5.969470   81.604400
  C     22.089900   -6.717530   82.008300
  C     22.062200   -7.967910   81.473600
  H     20.790600   -4.939550   81.883700
  C     23.051800   -6.326160   83.136400
  H     23.279500   -7.163680   83.841600
  H     22.534200   -5.621980   83.812500
  C     24.346800   -5.772800   82.585000
  H     24.173900   -4.956280   81.864900
  H     24.826400   -6.529680   81.931400
  C     25.380800   -5.489170   83.734600
  H     25.809300   -6.426520   84.046800
  H     24.879600   -5.033700   84.655700
  H     26.058100   -4.716180   83.488600
  H     24.286200  -12.403100   82.468500
  H     19.539100   -5.897990   80.020400

 Total Charge           Charge          ....    0
 Multiplicity           Mult            ....    1
 Number of Electrons    NEL             ....  134
 Basis Dimension        Dim             ....  322

ORBITAL ENERGIES
----------------

  NO   OCC          E(Eh)            E(eV)
   0   2.0000     -88.967503     -2420.9288
   1   2.0000     -88.959341     -2420.7067
   2   2.0000     -10.336081      -281.2591
   3   2.0000     -10.326930      -281.0100
   4   2.0000     -10.323858      -280.9265
   5   2.0000     -10.311505      -280.5903
   6   2.0000     -10.310529      -280.5638
   7   2.0000     -10.302309      -280.3401
   8   2.0000     -10.296998      -280.1956
   9   2.0000     -10.295473      -280.1541
  10   2.0000     -10.294551      -280.1290
  11   2.0000     -10.291956      -280.0584
  12   2.0000     -10.288774      -279.9718
  13   2.0000     -10.286051      -279.8977
  14   2.0000     -10.285894      -279.8934
  15   2.0000     -10.280390      -279.7436
  16   2.0000      -8.080704      -219.8871
  17   2.0000      -8.074921      -219.7298
  18   2.0000      -6.039365      -164.3395
  19   2.0000      -6.035441      -164.2327
  20   2.0000      -6.033382      -164.1767
  21   2.0000      -6.031376      -164.1221
  22   2.0000      -6.029394      -164.0682
  23   2.0000      -6.025551      -163.9636
  24   2.0000      -1.007709       -27.4212
  25   2.0000      -0.980397       -26.6780
  26   2.0000      -0.909069       -24.7370
  27   2.0000      -0.903416       -24.5832
  28   2.0000      -0.867577       -23.6080
  29   2.0000      -0.846531       -23.0353
  30   2.0000      -0.842771       -22.9330
  31   2.0000      -0.814521       -22.1643
  32   2.0000      -0.780612       -21.2415
  33   2.0000      -0.770723       -20.9724
  34   2.0000      -0.708032       -19.2665
  35   2.0000      -0.697057       -18.9679
  36   2.0000      -0.689401       -18.7595
  37   2.0000      -0.658898       -17.9295
  38   2.0000      -0.646121       -17.5818
  39   2.0000      -0.621435       -16.9101
  40   2.0000      -0.601526       -16.3684
  41   2.0000      -0.565188       -15.3796
  42   2.0000      -0.559634       -15.2284
  43   2.0000      -0.546095       -14.8600
  44   2.0000      -0.541641       -14.7388
  45   2.0000      -0.527100       -14.3431
  46   2.0000      -0.517165       -14.0728
  47   2.0000      -0.509508       -13.8644
  48   2.0000      -0.504901       -13.7391
  49   2.0000      -0.500056       -13.6072
  50   2.0000      -0.487809       -13.2739
  51   2.0000      -0.479413       -13.0455
  52   2.0000      -0.471068       -12.8184
  53   2.0000      -0.463886       -12.6230
  54   2.0000      -0.459055       -12.4915
  55   2.0000      -0.445149       -12.1131
  56   2.0000      -0.440906       -11.9977
  57   2.0000      -0.436563       -11.8795
  58   2.0000      -0.434207       -11.8154
  59   2.0000      -0.420849       -11.4519
  60   2.0000      -0.417839       -11.3700
  61   2.0000      -0.416252       -11.3268
  62   2.0000      -0.409458       -11.1419
  63   2.0000      -0.337924        -9.1954
  64   2.0000      -0.331154        -9.0112
  65   2.0000      -0.324404        -8.8275
  66   2.0000      -0.304217        -8.2782
  67   0.0000       0.035529         0.9668
  68   0.0000       0.050767         1.3814
  69   0.0000       0.106911         2.9092
  70   0.0000       0.112478         3.0607
  71   0.0000       0.125408         3.4125

MULLIKEN ATOMIC CHARGES
-----------------------
   0 S :    0.098406
   1 C :   -0.121275
   2 C :   -0.101517
   3 C :    0.078495
   4 C :   -0.150979
   5 H :   -0.004224
   6 C :    0.079777
   7 H :    0.042885
   8 H :   -0.000896
   9 C :   -0.084111
  10 H :    0.036060
  11 H :    0.019704
  12 C :   -0.091226
  13 H :    0.038035
  14 H :    0.040183
  15 H :    0.062000
  16 S :    0.102998
  17 C :   -0.074956
  18 C :   -0.034298
  19 C :   -0.000455
  20 C :   -0.191075
  21 H :    0.009748
  22 C :    0.051312
  23 H :    0.036958
  24 H :    0.024018
  25 C :   -0.096958
  26 H :    0.028453
  27 H :    0.024691
  28 C :   -0.032003
  29 H :    0.042412
  30 H :    0.024891
  31 H :    0.030666
  32 H :    0.057714
  33 H :    0.054563
Sum of atomic charges:    0.0000000

LOEWDIN ATOMIC CHARGES
----------------------
   0 S :    0.366106
   1 C :   -0.182708
   2 C :   -0.059623
   3 C :   -0.045257
   4 C :   -0.174075
   5 H :    0.020465
   6 C :   -0.029327
   7 H :    0.035877
   8 H :    0.018515
   9 C :   -0.046077
  10 H :    0.028668
  11 H :    0.017164
  12 C :   -0.078040
  13 H :    0.026845
  14 H :    0.029292
  15 H :    0.037385
  16 S :    0.399555
  17 C :   -0.186982
  18 C :   -0.080033
  19 C :   -0.050851
  20 C :   -0.184801
  21 H :    0.026796
  22 C :   -0.030608
  23 H :    0.035421
  24 H :    0.030317
  25 C :   -0.046023
  26 H :    0.023496
  27 H :    0.024342
  28 C :   -0.064885
  29 H :    0.026073
  30 H :    0.029764
  31 H :    0.021015
  32 H :    0.028470
  33 H :    0.033725

  Mayer bond orders larger than 0.100000
B(  0-S ,  1-C ) :   1.1373 B(  0-S ,  4-C ) :   1.1206 B(  1-C ,  2-C ) :   1.6024
B(  1-C , 32-H ) :   0.9685 B(  2-C ,  3-C ) :   1.2190 B(  2-C ,  6-C ) :   1.0312
B(  3-C ,  4-C ) :   1.6052 B(  3-C ,  5-H ) :   0.9954 B(  4-C , 20-C ) :   1.0337
B(  6-C ,  7-H ) :   0.9463 B(  6-C ,  8-H ) :   0.9408 B(  6-C ,  9-C ) :   1.0556
B(  9-C , 10-H ) :   0.9570 B(  9-C , 11-H ) :   0.9591 B(  9-C , 12-C ) :   1.0716
B( 12-C , 13-H ) :   0.9741 B( 12-C , 14-H ) :   0.9726 B( 12-C , 15-H ) :   0.9735
B( 16-S , 17-C ) :   1.1631 B( 16-S , 20-C ) :   1.1262 B( 17-C , 18-C ) :   1.6152
B( 17-C , 33-H ) :   0.9687 B( 18-C , 19-C ) :   1.2419 B( 18-C , 21-H ) :   0.9827
B( 19-C , 20-C ) :   1.6188 B( 19-C , 22-C ) :   1.0234 B( 22-C , 23-H ) :   0.9417
B( 22-C , 24-H ) :   0.9414 B( 22-C , 25-C ) :   1.0522 B( 25-C , 26-H ) :   0.9583
B( 25-C , 27-H ) :   0.9548 B( 25-C , 28-C ) :   1.0656 B( 28-C , 29-H ) :   0.9759
B( 28-C , 30-H ) :   0.9748 B( 28-C , 31-H ) :   0.9759

Dispersion correction           -0.015625411
FINAL SINGLE POINT ENERGY     -1339.872205734661

DIPOLE MOMENT
-------------
                                X             Y             Z
Electronic contribution:    -27.58565      -8.87486     -10.21250
Nuclear contribution   :     28.16410       9.28146      10.29886
                        -----------------------------------------
Total Dipole Moment    :      0.57845       0.40661       0.08636
                        -----------------------------------------
Magnitude (a.u.)       :      0.71231
Magnitude (Debye)      :      1.81055

Rotational constants in cm-1:     0.018717     0.009827     0.007290
Rotational constants in MHz :   561.118630   294.598074   218.538330

                             ****ORCA TERMINATED NORMALLY****
TOTAL RUN TIME: 0 days 0 hours 0 minutes 31 seconds 578 msec
