                         Program Version 4.2.1 -  RELEASE  -
|  1> ! wB97X-D3 SP def2-SVP
|  2> %pal
|  3> nprocs 16
|  4> end
|  5>
|  6> * xyz 0 1
|  7> S 	 -48.0052 	 34.2361 	 92.2027
|  8> C 	 -48.6182 	 32.6493 	 91.7348
|  9> C 	 -49.4895 	 32.0381 	 92.5204
| 10> C 	 -49.8182 	 32.9323 	 93.6021
| 11> C 	 -49.0971 	 34.1414 	 93.6187
| 12> H 	 -50.5648 	 32.7114 	 94.315
| 13> C 	 -50.0649 	 30.6646 	 92.3626
| 14> H 	 -50.1053 	 30.2398 	 93.4264
| 15> H 	 -49.232 	 30.0775 	 91.8183
| 16> C 	 -51.462 	 30.4929 	 91.6154
| 17> H 	 -51.3099 	 30.9926 	 90.6238
| 18> H 	 -51.7017 	 29.4286 	 91.4607
| 19> C 	 -52.6613 	 30.9847 	 92.4991
| 20> H 	 -52.482 	 32.0002 	 92.7898
| 21> H 	 -53.525 	 30.9956 	 91.8511
| 22> H 	 -52.8083 	 30.3298 	 93.3063
| 23> S 	 -49.2496 	 36.8605 	 94.0189
| 24> C 	 -48.9625 	 37.5437 	 95.6112
| 25> C 	 -48.9059 	 36.5665 	 96.5916
| 26> C 	 -48.9134 	 35.2921 	 96.0227
| 27> C 	 -49.0987 	 35.2474 	 94.6371
| 28> H 	 -48.7664 	 36.7848 	 97.5945
| 29> C 	 -48.5031 	 34.1613 	 96.8495
| 30> H 	 -48.4064 	 33.314 	 96.2241
| 31> H 	 -49.3534 	 33.8194 	 97.4484
| 32> C 	 -47.2674 	 34.2344 	 97.7211
| 33> H 	 -47.4785 	 34.7136 	 98.6693
| 34> H 	 -46.5751 	 34.9214 	 97.2773
| 35> C 	 -46.6077 	 32.8925 	 97.8793
| 36> H 	 -45.7162 	 32.9777 	 98.5016
| 37> H 	 -46.3972 	 32.4646 	 96.9386
| 38> H 	 -47.2365 	 32.2245 	 98.359
| 39> H 	 -48.2565 	 32.1965 	 90.8471
| 40> H 	 -48.845 	 38.5921 	 95.8029
| 41> *
| 42>
| 43>                          ****END OF INPUT****

CARTESIAN COORDINATES (ANGSTROEM)
---------------------------------
  S    -48.005200   34.236100   92.202700
  C    -48.618200   32.649300   91.734800
  C    -49.489500   32.038100   92.520400
  C    -49.818200   32.932300   93.602100
  C    -49.097100   34.141400   93.618700
  H    -50.564800   32.711400   94.315000
  C    -50.064900   30.664600   92.362600
  H    -50.105300   30.239800   93.426400
  H    -49.232000   30.077500   91.818300
  C    -51.462000   30.492900   91.615400
  H    -51.309900   30.992600   90.623800
  H    -51.701700   29.428600   91.460700
  C    -52.661300   30.984700   92.499100
  H    -52.482000   32.000200   92.789800
  H    -53.525000   30.995600   91.851100
  H    -52.808300   30.329800   93.306300
  S    -49.249600   36.860500   94.018900
  C    -48.962500   37.543700   95.611200
  C    -48.905900   36.566500   96.591600
  C    -48.913400   35.292100   96.022700
  C    -49.098700   35.247400   94.637100
  H    -48.766400   36.784800   97.594500
  C    -48.503100   34.161300   96.849500
  H    -48.406400   33.314000   96.224100
  H    -49.353400   33.819400   97.448400
  C    -47.267400   34.234400   97.721100
  H    -47.478500   34.713600   98.669300
  H    -46.575100   34.921400   97.277300
  C    -46.607700   32.892500   97.879300
  H    -45.716200   32.977700   98.501600
  H    -46.397200   32.464600   96.938600
  H    -47.236500   32.224500   98.359000
  H    -48.256500   32.196500   90.847100
  H    -48.845000   38.592100   95.802900

 Total Charge           Charge          ....    0
 Multiplicity           Mult            ....    1
 Number of Electrons    NEL             ....  134
 Basis Dimension        Dim             ....  322

ORBITAL ENERGIES
----------------

  NO   OCC          E(Eh)            E(eV)
   0   2.0000     -88.966715     -2420.9074
   1   2.0000     -88.964317     -2420.8421
   2   2.0000     -10.337861      -281.3075
   3   2.0000     -10.326290      -280.9926
   4   2.0000     -10.316639      -280.7300
   5   2.0000     -10.308188      -280.5001
   6   2.0000     -10.306415      -280.4518
   7   2.0000     -10.299956      -280.2761
   8   2.0000     -10.295703      -280.1603
   9   2.0000     -10.295488      -280.1545
  10   2.0000     -10.295340      -280.1504
  11   2.0000     -10.285662      -279.8871
  12   2.0000     -10.276554      -279.6392
  13   2.0000     -10.275589      -279.6130
  14   2.0000     -10.274352      -279.5793
  15   2.0000     -10.265143      -279.3287
  16   2.0000      -8.080824      -219.8904
  17   2.0000      -8.079254      -219.8477
  18   2.0000      -6.039314      -164.3381
  19   2.0000      -6.037692      -164.2940
  20   2.0000      -6.035666      -164.2388
  21   2.0000      -6.033655      -164.1841
  22   2.0000      -6.031391      -164.1225
  23   2.0000      -6.030170      -164.0893
  24   2.0000      -1.004285       -27.3280
  25   2.0000      -0.985601       -26.8196
  26   2.0000      -0.917180       -24.9577
  27   2.0000      -0.903513       -24.5858
  28   2.0000      -0.867150       -23.5963
  29   2.0000      -0.856329       -23.3019
  30   2.0000      -0.845805       -23.0155
  31   2.0000      -0.816340       -22.2137
  32   2.0000      -0.782437       -21.2912
  33   2.0000      -0.771024       -20.9806
  34   2.0000      -0.710603       -19.3365
  35   2.0000      -0.702385       -19.1129
  36   2.0000      -0.697880       -18.9903
  37   2.0000      -0.663985       -18.0679
  38   2.0000      -0.640162       -17.4197
  39   2.0000      -0.617407       -16.8005
  40   2.0000      -0.601100       -16.3567
  41   2.0000      -0.573906       -15.6168
  42   2.0000      -0.567605       -15.4453
  43   2.0000      -0.549196       -14.9444
  44   2.0000      -0.540287       -14.7020
  45   2.0000      -0.525993       -14.3130
  46   2.0000      -0.515804       -14.0357
  47   2.0000      -0.514115       -13.9898
  48   2.0000      -0.505426       -13.7533
  49   2.0000      -0.492188       -13.3931
  50   2.0000      -0.486241       -13.2313
  51   2.0000      -0.479639       -13.0517
  52   2.0000      -0.475355       -12.9351
  53   2.0000      -0.465161       -12.6577
  54   2.0000      -0.462293       -12.5796
  55   2.0000      -0.448118       -12.1939
  56   2.0000      -0.446349       -12.1458
  57   2.0000      -0.435010       -11.8372
  58   2.0000      -0.431334       -11.7372
  59   2.0000      -0.430870       -11.7246
  60   2.0000      -0.427391       -11.6299
  61   2.0000      -0.415456       -11.3051
  62   2.0000      -0.411968       -11.2102
  63   2.0000      -0.342902        -9.3308
  64   2.0000      -0.334136        -9.0923
  65   2.0000      -0.328579        -8.9411
  66   2.0000      -0.292047        -7.9470
  67   0.0000       0.030667         0.8345
  68   0.0000       0.070922         1.9299
  69   0.0000       0.105375         2.8674
  70   0.0000       0.118335         3.2201
  71   0.0000       0.136252         3.7076

MULLIKEN ATOMIC CHARGES
-----------------------
   0 S :    0.106211
   1 C :   -0.114396
   2 C :   -0.053014
   3 C :    0.041748
   4 C :   -0.145044
   5 H :   -0.005010
   6 C :   -0.007921
   7 H :    0.040326
   8 H :    0.042784
   9 C :   -0.077215
  10 H :    0.043933
  11 H :    0.039450
  12 C :   -0.028380
  13 H :    0.034635
  14 H :    0.033588
  15 H :    0.029572
  16 S :    0.102737
  17 C :   -0.090630
  18 C :    0.001882
  19 C :   -0.040284
  20 C :   -0.160626
  21 H :   -0.006734
  22 C :    0.090860
  23 H :   -0.013441
  24 H :    0.022103
  25 C :   -0.062442
  26 H :    0.018570
  27 H :    0.023259
  28 C :   -0.004190
  29 H :    0.030047
  30 H :    0.027509
  31 H :    0.008033
  32 H :    0.020145
  33 H :    0.051936
Sum of atomic charges:    0.0000000

LOEWDIN ATOMIC CHARGES
----------------------
   0 S :    0.377473
   1 C :   -0.173092
   2 C :   -0.077040
   3 C :   -0.051668
   4 C :   -0.179667
   5 H :    0.021359
   6 C :   -0.043604
   7 H :    0.037422
   8 H :    0.040424
   9 C :   -0.037122
  10 H :    0.029709
  11 H :    0.026681
  12 C :   -0.056201
  13 H :    0.022518
  14 H :    0.028401
  15 H :    0.019761
  16 S :    0.411417
  17 C :   -0.171713
  18 C :   -0.058610
  19 C :   -0.057343
  20 C :   -0.211792
  21 H :    0.022807
  22 C :   -0.039293
  23 H :    0.022585
  24 H :    0.035290
  25 C :   -0.037516
  26 H :    0.019524
  27 H :    0.021731
  28 C :   -0.049466
  29 H :    0.029685
  30 H :    0.022780
  31 H :    0.014885
  32 H :    0.015289
  33 H :    0.024386

  Mayer bond orders larger than 0.100000
B(  0-S ,  1-C ) :   1.1248 B(  0-S ,  4-C ) :   1.1322 B(  1-C ,  2-C ) :   1.6768
B(  1-C , 32-H ) :   0.9592 B(  2-C ,  3-C ) :   1.2023 B(  2-C ,  6-C ) :   1.0101
B(  3-C ,  4-C ) :   1.6001 B(  3-C ,  5-H ) :   0.9994 B(  4-C , 20-C ) :   1.0139
B(  6-C ,  7-H ) :   0.9416 B(  6-C ,  8-H ) :   0.9426 B(  6-C ,  9-C ) :   1.0539
B(  9-C , 10-H ) :   0.9580 B(  9-C , 11-H ) :   0.9590 B(  9-C , 12-C ) :   1.0688
B( 12-C , 13-H ) :   0.9779 B( 12-C , 14-H ) :   0.9732 B( 12-C , 15-H ) :   0.9768
B( 16-S , 17-C ) :   1.1722 B( 16-S , 20-C ) :   1.1459 B( 17-C , 18-C ) :   1.5698
B( 17-C , 20-C ) :   0.1005 B( 17-C , 33-H ) :   0.9703 B( 18-C , 19-C ) :   1.2640
B( 18-C , 21-H ) :   1.0059 B( 19-C , 20-C ) :   1.5717 B( 19-C , 22-C ) :   1.0693
B( 22-C , 23-H ) :   0.9283 B( 22-C , 24-H ) :   0.9033 B( 22-C , 25-C ) :   1.0585
B( 25-C , 26-H ) :   0.9434 B( 25-C , 27-H ) :   0.9587 B( 25-C , 28-C ) :   1.0998
B( 28-C , 29-H ) :   0.9701 B( 28-C , 30-H ) :   0.9723 B( 28-C , 31-H ) :   0.9732

Dispersion correction           -0.013937707
FINAL SINGLE POINT ENERGY     -1339.869802603650

DIPOLE MOMENT
-------------
                                X             Y             Z
Electronic contribution:      4.60571      21.50168     -10.94663
Nuclear contribution   :     -4.71059     -21.99808      11.29621
                        -----------------------------------------
Total Dipole Moment    :     -0.10488      -0.49640       0.34957
                        -----------------------------------------
Magnitude (a.u.)       :      0.61613
Magnitude (Debye)      :      1.56608

Rotational constants in cm-1:     0.018245     0.008073     0.006925
Rotational constants in MHz :   546.979084   242.015322   207.621067

                             ****ORCA TERMINATED NORMALLY****
TOTAL RUN TIME: 0 days 0 hours 0 minutes 29 seconds 841 msec
