                         Program Version 4.2.1 -  RELEASE  -
|  1> ! wB97X-D3 SP def2-SVP
|  2> %pal
|  3> nprocs 16
|  4> end
|  5>
|  6> * xyz 0 1
|  7> S 	 -46.2445 	 61.5893 	 140.615
|  8> C 	 -45.2619 	 61.0896 	 141.946
|  9> C 	 -43.9109 	 60.8054 	 141.487
| 10> C 	 -43.8128 	 61.0271 	 140.058
| 11> C 	 -44.9735 	 61.4404 	 139.487
| 12> H 	 -42.9434 	 60.9227 	 139.465
| 13> C 	 -42.6993 	 60.6558 	 142.416
| 14> H 	 -42.9601 	 59.9624 	 143.22
| 15> H 	 -42.6501 	 61.6414 	 142.827
| 16> C 	 -41.3808 	 60.2907 	 141.678
| 17> H 	 -41.3053 	 59.2952 	 141.149
| 18> H 	 -41.2008 	 61.0952 	 140.91
| 19> C 	 -40.2729 	 60.3383 	 142.751
| 20> H 	 -39.2688 	 60.5372 	 142.288
| 21> H 	 -40.3624 	 61.0929 	 143.444
| 22> H 	 -40.2286 	 59.315 	 143.133
| 23> S 	 -46.761 	 61.646 	 137.373
| 24> C 	 -46.2232 	 62.1828 	 135.814
| 25> C 	 -44.9064 	 62.576 	 135.864
| 26> C 	 -44.2808 	 62.3606 	 137.172
| 27> C 	 -45.1176 	 61.7819 	 138.079
| 28> H 	 -44.3744 	 62.8478 	 134.944
| 29> C 	 -42.765 	 62.5649 	 137.388
| 30> H 	 -42.4874 	 62.6336 	 138.395
| 31> H 	 -42.5218 	 63.5186 	 136.877
| 32> C 	 -41.9723 	 61.3635 	 136.948
| 33> H 	 -42.1233 	 61.1467 	 135.919
| 34> H 	 -42.227 	 60.4422 	 137.435
| 35> C 	 -40.4405 	 61.5415 	 137.262
| 36> H 	 -39.7236 	 60.7939 	 136.89
| 37> H 	 -40.4671 	 61.5989 	 138.322
| 38> H 	 -40.1158 	 62.5748 	 137.023
| 39> H 	 -45.5788 	 61.064 	 142.987
| 40> H 	 -46.8551 	 62.126 	 134.949
| 41> *
| 42>
| 43>                          ****END OF INPUT****

CARTESIAN COORDINATES (ANGSTROEM)
---------------------------------
  S    -46.244500   61.589300  140.615000
  C    -45.261900   61.089600  141.946000
  C    -43.910900   60.805400  141.487000
  C    -43.812800   61.027100  140.058000
  C    -44.973500   61.440400  139.487000
  H    -42.943400   60.922700  139.465000
  C    -42.699300   60.655800  142.416000
  H    -42.960100   59.962400  143.220000
  H    -42.650100   61.641400  142.827000
  C    -41.380800   60.290700  141.678000
  H    -41.305300   59.295200  141.149000
  H    -41.200800   61.095200  140.910000
  C    -40.272900   60.338300  142.751000
  H    -39.268800   60.537200  142.288000
  H    -40.362400   61.092900  143.444000
  H    -40.228600   59.315000  143.133000
  S    -46.761000   61.646000  137.373000
  C    -46.223200   62.182800  135.814000
  C    -44.906400   62.576000  135.864000
  C    -44.280800   62.360600  137.172000
  C    -45.117600   61.781900  138.079000
  H    -44.374400   62.847800  134.944000
  C    -42.765000   62.564900  137.388000
  H    -42.487400   62.633600  138.395000
  H    -42.521800   63.518600  136.877000
  C    -41.972300   61.363500  136.948000
  H    -42.123300   61.146700  135.919000
  H    -42.227000   60.442200  137.435000
  C    -40.440500   61.541500  137.262000
  H    -39.723600   60.793900  136.890000
  H    -40.467100   61.598900  138.322000
  H    -40.115800   62.574800  137.023000
  H    -45.578800   61.064000  142.987000
  H    -46.855100   62.126000  134.949000

 Total Charge           Charge          ....    0
 Multiplicity           Mult            ....    1
 Number of Electrons    NEL             ....  134
 Basis Dimension        Dim             ....  322

ORBITAL ENERGIES
----------------

  NO   OCC          E(Eh)            E(eV)
   0   2.0000     -88.968654     -2420.9602
   1   2.0000     -88.959453     -2420.7098
   2   2.0000     -10.327688      -281.0307
   3   2.0000     -10.323727      -280.9229
   4   2.0000     -10.318078      -280.7692
   5   2.0000     -10.316802      -280.7345
   6   2.0000     -10.309465      -280.5348
   7   2.0000     -10.306594      -280.4567
   8   2.0000     -10.300591      -280.2933
   9   2.0000     -10.299123      -280.2534
  10   2.0000     -10.297018      -280.1961
  11   2.0000     -10.293373      -280.0969
  12   2.0000     -10.288503      -279.9644
  13   2.0000     -10.284111      -279.8449
  14   2.0000     -10.282135      -279.7911
  15   2.0000     -10.277497      -279.6649
  16   2.0000      -8.084044      -219.9780
  17   2.0000      -8.074423      -219.7162
  18   2.0000      -6.042499      -164.4248
  19   2.0000      -6.038309      -164.3107
  20   2.0000      -6.034984      -164.2203
  21   2.0000      -6.033057      -164.1678
  22   2.0000      -6.028930      -164.0555
  23   2.0000      -6.025020      -163.9491
  24   2.0000      -1.008844       -27.4520
  25   2.0000      -0.982343       -26.7309
  26   2.0000      -0.916310       -24.9341
  27   2.0000      -0.912177       -24.8216
  28   2.0000      -0.870161       -23.6783
  29   2.0000      -0.852767       -23.2050
  30   2.0000      -0.842672       -22.9303
  31   2.0000      -0.815747       -22.1976
  32   2.0000      -0.782069       -21.2812
  33   2.0000      -0.769834       -20.9483
  34   2.0000      -0.711450       -19.3595
  35   2.0000      -0.704554       -19.1719
  36   2.0000      -0.690917       -18.8008
  37   2.0000      -0.662278       -18.0215
  38   2.0000      -0.641330       -17.4515
  39   2.0000      -0.625169       -17.0117
  40   2.0000      -0.601665       -16.3721
  41   2.0000      -0.576300       -15.6819
  42   2.0000      -0.566475       -15.4146
  43   2.0000      -0.560857       -15.2617
  44   2.0000      -0.531090       -14.4517
  45   2.0000      -0.527722       -14.3601
  46   2.0000      -0.518047       -14.0968
  47   2.0000      -0.509574       -13.8662
  48   2.0000      -0.506843       -13.7919
  49   2.0000      -0.503601       -13.7037
  50   2.0000      -0.498163       -13.5557
  51   2.0000      -0.479113       -13.0373
  52   2.0000      -0.471140       -12.8204
  53   2.0000      -0.465749       -12.6737
  54   2.0000      -0.461384       -12.5549
  55   2.0000      -0.453357       -12.3365
  56   2.0000      -0.447877       -12.1873
  57   2.0000      -0.446541       -12.1510
  58   2.0000      -0.436918       -11.8891
  59   2.0000      -0.425579       -11.5806
  60   2.0000      -0.420434       -11.4406
  61   2.0000      -0.412440       -11.2231
  62   2.0000      -0.406567       -11.0633
  63   2.0000      -0.358543        -9.7565
  64   2.0000      -0.330095        -8.9823
  65   2.0000      -0.327425        -8.9097
  66   2.0000      -0.285077        -7.7573
  67   0.0000       0.028953         0.7879
  68   0.0000       0.077071         2.0972
  69   0.0000       0.105687         2.8759
  70   0.0000       0.116347         3.1660
  71   0.0000       0.123843         3.3699

MULLIKEN ATOMIC CHARGES
-----------------------
   0 S :    0.129448
   1 C :   -0.133430
   2 C :   -0.085665
   3 C :   -0.008731
   4 C :   -0.073684
   5 H :   -0.036004
   6 C :    0.054066
   7 H :    0.037182
   8 H :    0.045681
   9 C :   -0.147260
  10 H :    0.055954
  11 H :    0.045051
  12 C :   -0.009285
  13 H :    0.026679
  14 H :    0.016509
  15 H :    0.039558
  16 S :    0.073268
  17 C :   -0.080878
  18 C :   -0.028537
  19 C :   -0.062312
  20 C :   -0.138537
  21 H :    0.028846
  22 C :    0.075998
  23 H :   -0.003372
  24 H :    0.036777
  25 C :   -0.065827
  26 H :    0.011879
  27 H :    0.033791
  28 C :   -0.027561
  29 H :    0.055675
  30 H :    0.000913
  31 H :    0.021195
  32 H :    0.053552
  33 H :    0.059061
Sum of atomic charges:    0.0000000

LOEWDIN ATOMIC CHARGES
----------------------
   0 S :    0.440870
   1 C :   -0.222073
   2 C :   -0.051632
   3 C :   -0.071536
   4 C :   -0.203755
   5 H :    0.019947
   6 C :   -0.031214
   7 H :    0.032905
   8 H :    0.037588
   9 C :   -0.047128
  10 H :    0.034415
  11 H :    0.023733
  12 C :   -0.059951
  13 H :    0.029951
  14 H :    0.011181
  15 H :    0.030387
  16 S :    0.375414
  17 C :   -0.177640
  18 C :   -0.074887
  19 C :   -0.053610
  20 C :   -0.174321
  21 H :    0.034298
  22 C :   -0.024381
  23 H :    0.016889
  24 H :    0.037345
  25 C :   -0.034777
  26 H :    0.015078
  27 H :    0.022401
  28 C :   -0.066025
  29 H :    0.031569
  30 H :    0.015298
  31 H :    0.025574
  32 H :    0.029279
  33 H :    0.028810

  Mayer bond orders larger than 0.100000
B(  0-S ,  1-C ) :   1.1553 B(  0-S ,  4-C ) :   1.1653 B(  1-C ,  2-C ) :   1.5626
B(  1-C , 32-H ) :   0.9750 B(  2-C ,  3-C ) :   1.2623 B(  2-C ,  6-C ) :   1.0054
B(  3-C ,  4-C ) :   1.5421 B(  3-C ,  5-H ) :   0.9990 B(  4-C , 20-C ) :   1.0537
B(  6-C ,  7-H ) :   0.9415 B(  6-C ,  8-H ) :   0.9388 B(  6-C ,  9-C ) :   1.0773
B(  9-C , 10-H ) :   0.9624 B(  9-C , 11-H ) :   0.9418 B(  9-C , 12-C ) :   1.0768
B( 12-C , 13-H ) :   0.9738 B( 12-C , 14-H ) :   0.9752 B( 12-C , 15-H ) :   0.9775
B( 16-S , 17-C ) :   1.1500 B( 16-S , 20-C ) :   1.1086 B( 17-C , 18-C ) :   1.6273
B( 17-C , 33-H ) :   0.9717 B( 18-C , 19-C ) :   1.2043 B( 18-C , 21-H ) :   0.9870
B( 19-C , 20-C ) :   1.6401 B( 19-C , 22-C ) :   1.0522 B( 22-C , 23-H ) :   0.9327
B( 22-C , 24-H ) :   0.9290 B( 22-C , 25-C ) :   1.0599 B( 25-C , 26-H ) :   0.9526
B( 25-C , 27-H ) :   0.9522 B( 25-C , 28-C ) :   1.0636 B( 28-C , 29-H ) :   0.9745
B( 28-C , 30-H ) :   0.9733 B( 28-C , 31-H ) :   0.9709

Dispersion correction           -0.014687885
FINAL SINGLE POINT ENERGY     -1339.870626565366

DIPOLE MOMENT
-------------
                                X             Y             Z
Electronic contribution:    -33.82231       3.56898      -5.19785
Nuclear contribution   :     34.60897      -3.54403       5.24683
                        -----------------------------------------
Total Dipole Moment    :      0.78666       0.02494       0.04899
                        -----------------------------------------
Magnitude (a.u.)       :      0.78858
Magnitude (Debye)      :      2.00440

Rotational constants in cm-1:     0.017943     0.009967     0.006596
Rotational constants in MHz :   537.909069   298.809981   197.757831

                             ****ORCA TERMINATED NORMALLY****
TOTAL RUN TIME: 0 days 0 hours 0 minutes 36 seconds 638 msec
