                         Program Version 4.2.1 -  RELEASE  -
|  1> ! wB97X-D3 SP def2-SVP
|  2> %pal
|  3> nprocs 16
|  4> end
|  5>
|  6> * xyz 0 1
|  7> S 	 13.6922 	 3.29522 	 63.6532
|  8> C 	 12.8191 	 2.82046 	 62.1912
|  9> C 	 13.0995 	 1.4835 	 61.8387
| 10> C 	 14.0334 	 0.88832 	 62.7235
| 11> C 	 14.5602 	 1.75481 	 63.7364
| 12> H 	 14.4802 	 -0.13288 	 62.6995
| 13> C 	 12.5731 	 0.763036 	 60.6099
| 14> H 	 12.8588 	 1.49934 	 59.8701
| 15> H 	 11.5361 	 0.653144 	 60.6596
| 16> C 	 13.3441 	 -0.504547 	 60.2018
| 17> H 	 14.4227 	 -0.312108 	 60.1959
| 18> H 	 13.1336 	 -1.31311 	 60.8466
| 19> C 	 12.9186 	 -1.01514 	 58.7742
| 20> H 	 13.1257 	 -0.276909 	 57.9134
| 21> H 	 13.2333 	 -2.01026 	 58.5042
| 22> H 	 11.8216 	 -1.04265 	 58.6457
| 23> S 	 14.9113 	 1.74847 	 66.4077
| 24> C 	 16.3206 	 1.22466 	 67.1682
| 25> C 	 17.2025 	 0.789465 	 66.227
| 26> C 	 16.738 	 0.855023 	 64.8962
| 27> C 	 15.455 	 1.40062 	 64.8168
| 28> H 	 18.1568 	 0.629454 	 66.6105
| 29> C 	 17.6164 	 0.561271 	 63.6868
| 30> H 	 17.1947 	 -0.292192 	 63.1563
| 31> H 	 18.4861 	 0.0610666 	 64.0756
| 32> C 	 17.8431 	 1.72606 	 62.6569
| 33> H 	 16.8661 	 2.04097 	 62.1505
| 34> H 	 18.3927 	 1.36864 	 61.7891
| 35> C 	 18.6147 	 2.85073 	 63.3101
| 36> H 	 19.5933 	 2.48309 	 63.7596
| 37> H 	 18.0564 	 3.38647 	 64.119
| 38> H 	 18.7202 	 3.63859 	 62.5749
| 39> H 	 12.2909 	 3.6393 	 61.6315
| 40> H 	 16.5023 	 1.30072 	 68.2402
| 41> *
| 42>
| 43>                          ****END OF INPUT****

CARTESIAN COORDINATES (ANGSTROEM)
---------------------------------
  S     13.692200    3.295220   63.653200
  C     12.819100    2.820460   62.191200
  C     13.099500    1.483500   61.838700
  C     14.033400    0.888320   62.723500
  C     14.560200    1.754810   63.736400
  H     14.480200   -0.132880   62.699500
  C     12.573100    0.763036   60.609900
  H     12.858800    1.499340   59.870100
  H     11.536100    0.653144   60.659600
  C     13.344100   -0.504547   60.201800
  H     14.422700   -0.312108   60.195900
  H     13.133600   -1.313110   60.846600
  C     12.918600   -1.015140   58.774200
  H     13.125700   -0.276909   57.913400
  H     13.233300   -2.010260   58.504200
  H     11.821600   -1.042650   58.645700
  S     14.911300    1.748470   66.407700
  C     16.320600    1.224660   67.168200
  C     17.202500    0.789465   66.227000
  C     16.738000    0.855023   64.896200
  C     15.455000    1.400620   64.816800
  H     18.156800    0.629454   66.610500
  C     17.616400    0.561271   63.686800
  H     17.194700   -0.292192   63.156300
  H     18.486100    0.061067   64.075600
  C     17.843100    1.726060   62.656900
  H     16.866100    2.040970   62.150500
  H     18.392700    1.368640   61.789100
  C     18.614700    2.850730   63.310100
  H     19.593300    2.483090   63.759600
  H     18.056400    3.386470   64.119000
  H     18.720200    3.638590   62.574900
  H     12.290900    3.639300   61.631500
  H     16.502300    1.300720   68.240200

 Total Charge           Charge          ....    0
 Multiplicity           Mult            ....    1
 Number of Electrons    NEL             ....  134
 Basis Dimension        Dim             ....  322

ORBITAL ENERGIES
----------------

  NO   OCC          E(Eh)            E(eV)
   0   2.0000     -88.968544     -2420.9572
   1   2.0000     -88.959757     -2420.7180
   2   2.0000     -10.334641      -281.2199
   3   2.0000     -10.322575      -280.8916
   4   2.0000     -10.322219      -280.8819
   5   2.0000     -10.309087      -280.5245
   6   2.0000     -10.308036      -280.4959
   7   2.0000     -10.302014      -280.3320
   8   2.0000     -10.299975      -280.2766
   9   2.0000     -10.292629      -280.0767
  10   2.0000     -10.290679      -280.0236
  11   2.0000     -10.289566      -279.9933
  12   2.0000     -10.288672      -279.9690
  13   2.0000     -10.287951      -279.9494
  14   2.0000     -10.282903      -279.8120
  15   2.0000     -10.276689      -279.6429
  16   2.0000      -8.082335      -219.9315
  17   2.0000      -8.076555      -219.7742
  18   2.0000      -6.040797      -164.3784
  19   2.0000      -6.036782      -164.2692
  20   2.0000      -6.034842      -164.2164
  21   2.0000      -6.033397      -164.1771
  22   2.0000      -6.030476      -164.0976
  23   2.0000      -6.027711      -164.0224
  24   2.0000      -1.012646       -27.5555
  25   2.0000      -0.982540       -26.7363
  26   2.0000      -0.912979       -24.8434
  27   2.0000      -0.902936       -24.5701
  28   2.0000      -0.870698       -23.6929
  29   2.0000      -0.847803       -23.0699
  30   2.0000      -0.842819       -22.9343
  31   2.0000      -0.812339       -22.1049
  32   2.0000      -0.781424       -21.2636
  33   2.0000      -0.770570       -20.9683
  34   2.0000      -0.717350       -19.5201
  35   2.0000      -0.699127       -19.0242
  36   2.0000      -0.685488       -18.6531
  37   2.0000      -0.662672       -18.0322
  38   2.0000      -0.637949       -17.3595
  39   2.0000      -0.615709       -16.7543
  40   2.0000      -0.589168       -16.0321
  41   2.0000      -0.580525       -15.7969
  42   2.0000      -0.565391       -15.3851
  43   2.0000      -0.547847       -14.9077
  44   2.0000      -0.543926       -14.8010
  45   2.0000      -0.527126       -14.3438
  46   2.0000      -0.509378       -13.8609
  47   2.0000      -0.505285       -13.7495
  48   2.0000      -0.499811       -13.6006
  49   2.0000      -0.495475       -13.4826
  50   2.0000      -0.491386       -13.3713
  51   2.0000      -0.480737       -13.0815
  52   2.0000      -0.475044       -12.9266
  53   2.0000      -0.466611       -12.6971
  54   2.0000      -0.459782       -12.5113
  55   2.0000      -0.444627       -12.0989
  56   2.0000      -0.434286       -11.8175
  57   2.0000      -0.431713       -11.7475
  58   2.0000      -0.428960       -11.6726
  59   2.0000      -0.426897       -11.6165
  60   2.0000      -0.423140       -11.5142
  61   2.0000      -0.418345       -11.3838
  62   2.0000      -0.406436       -11.0597
  63   2.0000      -0.346054        -9.4166
  64   2.0000      -0.332420        -9.0456
  65   2.0000      -0.328684        -8.9440
  66   2.0000      -0.286405        -7.7935
  67   0.0000       0.025620         0.6972
  68   0.0000       0.068722         1.8700
  69   0.0000       0.119725         3.2579
  70   0.0000       0.126880         3.4526
  71   0.0000       0.139205         3.7880

MULLIKEN ATOMIC CHARGES
-----------------------
   0 S :    0.109015
   1 C :   -0.168538
   2 C :   -0.080307
   3 C :    0.007253
   4 C :   -0.164214
   5 H :    0.033819
   6 C :    0.092524
   7 H :    0.032776
   8 H :    0.037536
   9 C :   -0.076111
  10 H :    0.042731
  11 H :    0.033765
  12 C :   -0.072787
  13 H :    0.035143
  14 H :    0.036967
  15 H :    0.020805
  16 S :    0.112694
  17 C :   -0.104421
  18 C :   -0.030832
  19 C :   -0.030042
  20 C :   -0.169042
  21 H :   -0.006280
  22 C :    0.088342
  23 H :    0.017924
  24 H :    0.000909
  25 C :   -0.069301
  26 H :    0.051894
  27 H :    0.024322
  28 C :   -0.059022
  29 H :    0.040154
  30 H :    0.044065
  31 H :    0.028741
  32 H :    0.077291
  33 H :    0.062224
Sum of atomic charges:   -0.0000000

LOEWDIN ATOMIC CHARGES
----------------------
   0 S :    0.400335
   1 C :   -0.209042
   2 C :   -0.061376
   3 C :   -0.070274
   4 C :   -0.194745
   5 H :    0.039260
   6 C :   -0.025142
   7 H :    0.040208
   8 H :    0.026728
   9 C :   -0.035457
  10 H :    0.029331
  11 H :    0.019486
  12 C :   -0.076744
  13 H :    0.031802
  14 H :    0.023065
  15 H :    0.024791
  16 S :    0.450322
  17 C :   -0.207117
  18 C :   -0.076203
  19 C :   -0.058780
  20 C :   -0.213698
  21 H :    0.022466
  22 C :   -0.035910
  23 H :    0.029999
  24 H :    0.026450
  25 C :   -0.045098
  26 H :    0.036616
  27 H :    0.023469
  28 C :   -0.074212
  29 H :    0.031662
  30 H :    0.030771
  31 H :    0.023756
  32 H :    0.038750
  33 H :    0.034530

  Mayer bond orders larger than 0.100000
B(  0-S ,  1-C ) :   1.1533 B(  0-S ,  4-C ) :   1.1660 B(  1-C ,  2-C ) :   1.5578
B(  1-C ,  4-C ) :   0.1202 B(  1-C , 32-H ) :   0.9684 B(  2-C ,  3-C ) :   1.2892
B(  2-C ,  6-C ) :   0.9841 B(  3-C ,  4-C ) :   1.5122 B(  3-C ,  5-H ) :   0.9800
B(  4-C , 20-C ) :   1.0598 B(  6-C ,  7-H ) :   0.9414 B(  6-C ,  8-H ) :   0.9380
B(  6-C ,  9-C ) :   1.0936 B(  9-C , 10-H ) :   0.9535 B(  9-C , 11-H ) :   0.9474
B(  9-C , 12-C ) :   1.0744 B( 12-C , 13-H ) :   0.9753 B( 12-C , 14-H ) :   0.9767
B( 12-C , 15-H ) :   0.9735 B( 16-S , 17-C ) :   1.1852 B( 16-S , 20-C ) :   1.1769
B( 17-C , 18-C ) :   1.5720 B( 17-C , 20-C ) :   0.1007 B( 17-C , 33-H ) :   0.9670
B( 18-C , 19-C ) :   1.2663 B( 18-C , 21-H ) :   1.0052 B( 19-C , 20-C ) :   1.5368
B( 19-C , 22-C ) :   1.0424 B( 22-C , 23-H ) :   0.9251 B( 22-C , 24-H ) :   0.9313
B( 22-C , 25-C ) :   1.0658 B( 25-C , 26-H ) :   0.9478 B( 25-C , 27-H ) :   0.9519
B( 25-C , 28-C ) :   1.0757 B( 28-C , 29-H ) :   0.9734 B( 28-C , 30-H ) :   0.9735
B( 28-C , 31-H ) :   0.9717

Dispersion correction           -0.014938930
FINAL SINGLE POINT ENERGY     -1339.871161443771

DIPOLE MOMENT
-------------
                                X             Y             Z
Electronic contribution:     -8.04418      10.01136      23.47099
Nuclear contribution   :      8.23814     -10.26829     -23.95577
                        -----------------------------------------
Total Dipole Moment    :      0.19395      -0.25693      -0.48478
                        -----------------------------------------
Magnitude (a.u.)       :      0.58193
Magnitude (Debye)      :      1.47915

Rotational constants in cm-1:     0.019798     0.008420     0.007324
Rotational constants in MHz :   593.541939   252.417909   219.575748

                             ****ORCA TERMINATED NORMALLY****
TOTAL RUN TIME: 0 days 0 hours 0 minutes 33 seconds 702 msec
