                         Program Version 4.2.1 -  RELEASE  -
|  1> ! wB97X-D3 SP def2-SVP
|  2> %pal
|  3> nprocs 16
|  4> end
|  5>
|  6> * xyz 0 1
|  7> S 	 -4.50977 	 -5.74567 	 84.0075
|  8> C 	 -5.95881 	 -6.45853 	 83.3819
|  9> C 	 -5.85267 	 -7.81901 	 83.1206
| 10> C 	 -4.55986 	 -8.30109 	 83.4107
| 11> C 	 -3.79749 	 -7.34249 	 84.1012
| 12> H 	 -4.16354 	 -9.27203 	 83.2467
| 13> C 	 -6.89341 	 -8.67986 	 82.562
| 14> H 	 -7.86159 	 -8.13438 	 82.6779
| 15> H 	 -6.95813 	 -9.49195 	 83.212
| 16> C 	 -6.76783 	 -9.01776 	 81.0826
| 17> H 	 -7.66997 	 -9.60678 	 80.8798
| 18> H 	 -6.83947 	 -8.06215 	 80.5285
| 19> C 	 -5.58833 	 -9.95239 	 80.6575
| 20> H 	 -5.46276 	 -10.6196 	 81.4477
| 21> H 	 -5.87213 	 -10.4545 	 79.7583
| 22> H 	 -4.58809 	 -9.52216 	 80.3887
| 23> S 	 -1.12463 	 -7.02239 	 83.5694
| 24> C 	 -0.0153931 	 -7.76838 	 84.6826
| 25> C 	 -0.642574 	 -8.35991 	 85.7681
| 26> C 	 -2.06749 	 -8.37373 	 85.6505
| 27> C 	 -2.47337 	 -7.60822 	 84.5984
| 28> H 	 -0.0668636 	 -8.89609 	 86.5557
| 29> C 	 -3.07461 	 -8.92235 	 86.6625
| 30> H 	 -2.54889 	 -9.54436 	 87.371
| 31> H 	 -3.89216 	 -9.4118 	 86.3272
| 32> C 	 -3.56166 	 -7.73571 	 87.5399
| 33> H 	 -4.43292 	 -8.04484 	 88.1274
| 34> H 	 -4.07405 	 -7.0366 	 86.8555
| 35> C 	 -2.4456 	 -7.1351 	 88.4538
| 36> H 	 -1.71013 	 -6.66266 	 87.8107
| 37> H 	 -2.05889 	 -7.81554 	 89.1475
| 38> H 	 -2.71582 	 -6.38674 	 89.1602
| 39> H 	 -6.78933 	 -5.84085 	 83.1001
| 40> H 	 1.04963 	 -7.7803 	 84.4595
| 41> *
| 42>
| 43>                          ****END OF INPUT****

CARTESIAN COORDINATES (ANGSTROEM)
---------------------------------
  S     -4.509770   -5.745670   84.007500
  C     -5.958810   -6.458530   83.381900
  C     -5.852670   -7.819010   83.120600
  C     -4.559860   -8.301090   83.410700
  C     -3.797490   -7.342490   84.101200
  H     -4.163540   -9.272030   83.246700
  C     -6.893410   -8.679860   82.562000
  H     -7.861590   -8.134380   82.677900
  H     -6.958130   -9.491950   83.212000
  C     -6.767830   -9.017760   81.082600
  H     -7.669970   -9.606780   80.879800
  H     -6.839470   -8.062150   80.528500
  C     -5.588330   -9.952390   80.657500
  H     -5.462760  -10.619600   81.447700
  H     -5.872130  -10.454500   79.758300
  H     -4.588090   -9.522160   80.388700
  S     -1.124630   -7.022390   83.569400
  C     -0.015393   -7.768380   84.682600
  C     -0.642574   -8.359910   85.768100
  C     -2.067490   -8.373730   85.650500
  C     -2.473370   -7.608220   84.598400
  H     -0.066864   -8.896090   86.555700
  C     -3.074610   -8.922350   86.662500
  H     -2.548890   -9.544360   87.371000
  H     -3.892160   -9.411800   86.327200
  C     -3.561660   -7.735710   87.539900
  H     -4.432920   -8.044840   88.127400
  H     -4.074050   -7.036600   86.855500
  C     -2.445600   -7.135100   88.453800
  H     -1.710130   -6.662660   87.810700
  H     -2.058890   -7.815540   89.147500
  H     -2.715820   -6.386740   89.160200
  H     -6.789330   -5.840850   83.100100
  H      1.049630   -7.780300   84.459500

 Total Charge           Charge          ....    0
 Multiplicity           Mult            ....    1
 Number of Electrons    NEL             ....  134
 Basis Dimension        Dim             ....  322

ORBITAL ENERGIES
----------------

  NO   OCC          E(Eh)            E(eV)
   0   2.0000     -88.967844     -2420.9381
   1   2.0000     -88.961711     -2420.7712
   2   2.0000     -10.323321      -280.9118
   3   2.0000     -10.317545      -280.7547
   4   2.0000     -10.316710      -280.7320
   5   2.0000     -10.308817      -280.5172
   6   2.0000     -10.301049      -280.3058
   7   2.0000     -10.297099      -280.1983
   8   2.0000     -10.293712      -280.1061
   9   2.0000     -10.291587      -280.0483
  10   2.0000     -10.289366      -279.9879
  11   2.0000     -10.283783      -279.8360
  12   2.0000     -10.282967      -279.8138
  13   2.0000     -10.282906      -279.8121
  14   2.0000     -10.276588      -279.6402
  15   2.0000     -10.266284      -279.3598
  16   2.0000      -8.082524      -219.9366
  17   2.0000      -8.076391      -219.7698
  18   2.0000      -6.040777      -164.3779
  19   2.0000      -6.037178      -164.2800
  20   2.0000      -6.034812      -164.2156
  21   2.0000      -6.033430      -164.1780
  22   2.0000      -6.031018      -164.1124
  23   2.0000      -6.027154      -164.0072
  24   2.0000      -1.005697       -27.3664
  25   2.0000      -0.982780       -26.7428
  26   2.0000      -0.916493       -24.9391
  27   2.0000      -0.905398       -24.6371
  28   2.0000      -0.865263       -23.5450
  29   2.0000      -0.850639       -23.1471
  30   2.0000      -0.840641       -22.8750
  31   2.0000      -0.810881       -22.0652
  32   2.0000      -0.790163       -21.5014
  33   2.0000      -0.773956       -21.0604
  34   2.0000      -0.706977       -19.2378
  35   2.0000      -0.704456       -19.1692
  36   2.0000      -0.689213       -18.7544
  37   2.0000      -0.660223       -17.9656
  38   2.0000      -0.645350       -17.5609
  39   2.0000      -0.612405       -16.6644
  40   2.0000      -0.599179       -16.3045
  41   2.0000      -0.572675       -15.5833
  42   2.0000      -0.556063       -15.1312
  43   2.0000      -0.543590       -14.7918
  44   2.0000      -0.542807       -14.7705
  45   2.0000      -0.536648       -14.6029
  46   2.0000      -0.520223       -14.1560
  47   2.0000      -0.505780       -13.7630
  48   2.0000      -0.497777       -13.5452
  49   2.0000      -0.489167       -13.3109
  50   2.0000      -0.487865       -13.2755
  51   2.0000      -0.478661       -13.0250
  52   2.0000      -0.472212       -12.8496
  53   2.0000      -0.463386       -12.6094
  54   2.0000      -0.462545       -12.5865
  55   2.0000      -0.447307       -12.1718
  56   2.0000      -0.445693       -12.1279
  57   2.0000      -0.441442       -12.0123
  58   2.0000      -0.433156       -11.7868
  59   2.0000      -0.422679       -11.5017
  60   2.0000      -0.420810       -11.4508
  61   2.0000      -0.417726       -11.3669
  62   2.0000      -0.409269       -11.1368
  63   2.0000      -0.336948        -9.1688
  64   2.0000      -0.329461        -8.9651
  65   2.0000      -0.321399        -8.7457
  66   2.0000      -0.296597        -8.0708
  67   0.0000       0.039388         1.0718
  68   0.0000       0.056624         1.5408
  69   0.0000       0.116160         3.1609
  70   0.0000       0.122592         3.3359
  71   0.0000       0.125588         3.4174

MULLIKEN ATOMIC CHARGES
-----------------------
   0 S :    0.127742
   1 C :   -0.119966
   2 C :   -0.074358
   3 C :    0.051228
   4 C :   -0.193961
   5 H :    0.003217
   6 C :    0.075439
   7 H :    0.015577
   8 H :    0.013916
   9 C :   -0.069990
  10 H :    0.032465
  11 H :    0.035341
  12 C :   -0.035376
  13 H :    0.016421
  14 H :    0.029759
  15 H :    0.046939
  16 S :    0.104407
  17 C :   -0.099112
  18 C :   -0.039055
  19 C :   -0.033625
  20 C :   -0.188090
  21 H :    0.032022
  22 C :    0.165183
  23 H :    0.005484
  24 H :   -0.000745
  25 C :   -0.099964
  26 H :    0.018005
  27 H :    0.028670
  28 C :   -0.024938
  29 H :    0.048764
  30 H :    0.012718
  31 H :    0.016979
  32 H :    0.038115
  33 H :    0.060788
Sum of atomic charges:    0.0000000

LOEWDIN ATOMIC CHARGES
----------------------
   0 S :    0.417754
   1 C :   -0.203510
   2 C :   -0.064132
   3 C :   -0.046843
   4 C :   -0.201469
   5 H :    0.027584
   6 C :   -0.036307
   7 H :    0.037328
   8 H :    0.021998
   9 C :   -0.033215
  10 H :    0.028467
  11 H :    0.028581
  12 C :   -0.065949
  13 H :    0.014604
  14 H :    0.025796
  15 H :    0.033208
  16 S :    0.386440
  17 C :   -0.184312
  18 C :   -0.077544
  19 C :   -0.048213
  20 C :   -0.190280
  21 H :    0.037674
  22 C :   -0.012297
  23 H :    0.026434
  24 H :    0.015731
  25 C :   -0.034802
  26 H :    0.019415
  27 H :    0.020725
  28 C :   -0.066790
  29 H :    0.030993
  30 H :    0.018369
  31 H :    0.025366
  32 H :    0.020896
  33 H :    0.028299

  Mayer bond orders larger than 0.100000
B(  0-S ,  1-C ) :   1.1447 B(  0-S ,  4-C ) :   1.1612 B(  1-C ,  2-C ) :   1.5910
B(  1-C , 32-H ) :   0.9680 B(  2-C ,  3-C ) :   1.2479 B(  2-C ,  6-C ) :   1.0306
B(  3-C ,  4-C ) :   1.5562 B(  3-C ,  5-H ) :   0.9981 B(  4-C , 20-C ) :   1.0325
B(  6-C ,  7-H ) :   0.9311 B(  6-C ,  8-H ) :   0.9300 B(  6-C ,  9-C ) :   1.0894
B(  9-C , 10-H ) :   0.9547 B(  9-C , 11-H ) :   0.9525 B(  9-C , 12-C ) :   1.0695
B( 12-C , 13-H ) :   0.9730 B( 12-C , 14-H ) :   0.9740 B( 12-C , 15-H ) :   0.9742
B( 16-S , 17-C ) :   1.1560 B( 16-S , 20-C ) :   1.1325 B( 17-C , 18-C ) :   1.6151
B( 17-C , 20-C ) :   0.1017 B( 17-C , 33-H ) :   0.9677 B( 18-C , 19-C ) :   1.2246
B( 18-C , 21-H ) :   0.9801 B( 19-C , 20-C ) :   1.6234 B( 19-C , 22-C ) :   1.0548
B( 22-C , 23-H ) :   0.9319 B( 22-C , 24-H ) :   0.9254 B( 22-C , 25-C ) :   1.0738
B( 25-C , 26-H ) :   0.9567 B( 25-C , 27-H ) :   0.9576 B( 25-C , 28-C ) :   1.0627
B( 28-C , 29-H ) :   0.9756 B( 28-C , 30-H ) :   0.9724 B( 28-C , 31-H ) :   0.9709

Dispersion correction           -0.015653953
FINAL SINGLE POINT ENERGY     -1339.867037532053

DIPOLE MOMENT
-------------
                                X             Y             Z
Electronic contribution:     10.77663      12.82990      -4.20951
Nuclear contribution   :    -11.07461     -13.33804       4.22645
                        -----------------------------------------
Total Dipole Moment    :     -0.29797      -0.50813       0.01695
                        -----------------------------------------
Magnitude (a.u.)       :      0.58930
Magnitude (Debye)      :      1.49788

Rotational constants in cm-1:     0.020888     0.008701     0.007901
Rotational constants in MHz :   626.221231   260.861237   236.851480

                             ****ORCA TERMINATED NORMALLY****
TOTAL RUN TIME: 0 days 0 hours 0 minutes 33 seconds 905 msec
