                         Program Version 4.2.1 -  RELEASE  -
|  1> ! wB97X-D3 SP def2-SVP
|  2> %pal
|  3> nprocs 16
|  4> end
|  5>
|  6> * xyz 0 1
|  7> S 	 -73.399 	 39.6976 	 124.558
|  8> C 	 -74.1742 	 41.0929 	 125.195
|  9> C 	 -73.3986 	 42.2276 	 125.038
| 10> C 	 -72.0693 	 41.8691 	 124.556
| 11> C 	 -71.8371 	 40.5363 	 124.366
| 12> H 	 -71.2894 	 42.5895 	 124.415
| 13> C 	 -73.9151 	 43.6839 	 125.229
| 14> H 	 -74.9472 	 43.6556 	 124.894
| 15> H 	 -73.5045 	 44.4019 	 124.548
| 16> C 	 -73.7032 	 44.2862 	 126.64
| 17> H 	 -72.6026 	 44.3094 	 126.77
| 18> H 	 -74.1383 	 45.2389 	 126.634
| 19> C 	 -74.3375 	 43.5022 	 127.804
| 20> H 	 -74.0924 	 42.4634 	 127.655
| 21> H 	 -73.8785 	 43.9595 	 128.665
| 22> H 	 -75.435 	 43.5012 	 127.913
| 23> S 	 -70.4405 	 38.534 	 122.916
| 24> C 	 -68.7428 	 38.2861 	 123.248
| 25> C 	 -68.3145 	 39.1276 	 124.282
| 26> C 	 -69.4092 	 39.9314 	 124.786
| 27> C 	 -70.6234 	 39.7318 	 124.147
| 28> H 	 -67.3178 	 39.1354 	 124.538
| 29> C 	 -69.1871 	 40.9067 	 125.941
| 30> H 	 -68.9905 	 40.3225 	 126.743
| 31> H 	 -70.0647 	 41.3641 	 126.4
| 32> C 	 -68.0613 	 41.9717 	 125.713
| 33> H 	 -67.2566 	 41.5806 	 125.082
| 34> H 	 -67.6235 	 42.1512 	 126.695
| 35> C 	 -68.5775 	 43.3202 	 125.134
| 36> H 	 -69.0726 	 43.8124 	 125.928
| 37> H 	 -69.381 	 43.0338 	 124.441
| 38> H 	 -67.831 	 44.027 	 124.718
| 39> H 	 -75.238 	 41.0221 	 125.512
| 40> H 	 -68.1317 	 37.4804 	 122.908
| 41> *
| 42>
| 43>                          ****END OF INPUT****

CARTESIAN COORDINATES (ANGSTROEM)
---------------------------------
  S    -73.399000   39.697600  124.558000
  C    -74.174200   41.092900  125.195000
  C    -73.398600   42.227600  125.038000
  C    -72.069300   41.869100  124.556000
  C    -71.837100   40.536300  124.366000
  H    -71.289400   42.589500  124.415000
  C    -73.915100   43.683900  125.229000
  H    -74.947200   43.655600  124.894000
  H    -73.504500   44.401900  124.548000
  C    -73.703200   44.286200  126.640000
  H    -72.602600   44.309400  126.770000
  H    -74.138300   45.238900  126.634000
  C    -74.337500   43.502200  127.804000
  H    -74.092400   42.463400  127.655000
  H    -73.878500   43.959500  128.665000
  H    -75.435000   43.501200  127.913000
  S    -70.440500   38.534000  122.916000
  C    -68.742800   38.286100  123.248000
  C    -68.314500   39.127600  124.282000
  C    -69.409200   39.931400  124.786000
  C    -70.623400   39.731800  124.147000
  H    -67.317800   39.135400  124.538000
  C    -69.187100   40.906700  125.941000
  H    -68.990500   40.322500  126.743000
  H    -70.064700   41.364100  126.400000
  C    -68.061300   41.971700  125.713000
  H    -67.256600   41.580600  125.082000
  H    -67.623500   42.151200  126.695000
  C    -68.577500   43.320200  125.134000
  H    -69.072600   43.812400  125.928000
  H    -69.381000   43.033800  124.441000
  H    -67.831000   44.027000  124.718000
  H    -75.238000   41.022100  125.512000
  H    -68.131700   37.480400  122.908000

 Total Charge           Charge          ....    0
 Multiplicity           Mult            ....    1
 Number of Electrons    NEL             ....  134
 Basis Dimension        Dim             ....  322

ORBITAL ENERGIES
----------------

  NO   OCC          E(Eh)            E(eV)
   0   2.0000     -88.967567     -2420.9306
   1   2.0000     -88.959912     -2420.7223
   2   2.0000     -10.332912      -281.1728
   3   2.0000     -10.328108      -281.0421
   4   2.0000     -10.320287      -280.8293
   5   2.0000     -10.318364      -280.7770
   6   2.0000     -10.307761      -280.4884
   7   2.0000     -10.306757      -280.4611
   8   2.0000     -10.297237      -280.2021
   9   2.0000     -10.294936      -280.1395
  10   2.0000     -10.292506      -280.0733
  11   2.0000     -10.289949      -280.0037
  12   2.0000     -10.285900      -279.8936
  13   2.0000     -10.283119      -279.8179
  14   2.0000     -10.278905      -279.7032
  15   2.0000     -10.272808      -279.5373
  16   2.0000      -8.082552      -219.9374
  17   2.0000      -8.075440      -219.7439
  18   2.0000      -6.041101      -164.3867
  19   2.0000      -6.036909      -164.2726
  20   2.0000      -6.033979      -164.1929
  21   2.0000      -6.033367      -164.1762
  22   2.0000      -6.029829      -164.0800
  23   2.0000      -6.026124      -163.9792
  24   2.0000      -1.006359       -27.3844
  25   2.0000      -0.985080       -26.8054
  26   2.0000      -0.907077       -24.6828
  27   2.0000      -0.905654       -24.6441
  28   2.0000      -0.870023       -23.6745
  29   2.0000      -0.848270       -23.0826
  30   2.0000      -0.842416       -22.9233
  31   2.0000      -0.819350       -22.2956
  32   2.0000      -0.786395       -21.3989
  33   2.0000      -0.776397       -21.1268
  34   2.0000      -0.708477       -19.2786
  35   2.0000      -0.700483       -19.0611
  36   2.0000      -0.690265       -18.7831
  37   2.0000      -0.661219       -17.9927
  38   2.0000      -0.644900       -17.5486
  39   2.0000      -0.623866       -16.9762
  40   2.0000      -0.602563       -16.3966
  41   2.0000      -0.575327       -15.6554
  42   2.0000      -0.556044       -15.1307
  43   2.0000      -0.551605       -15.0099
  44   2.0000      -0.541996       -14.7485
  45   2.0000      -0.532549       -14.4914
  46   2.0000      -0.524108       -14.2617
  47   2.0000      -0.520502       -14.1636
  48   2.0000      -0.505561       -13.7570
  49   2.0000      -0.497185       -13.5291
  50   2.0000      -0.481778       -13.1098
  51   2.0000      -0.478198       -13.0124
  52   2.0000      -0.468640       -12.7523
  53   2.0000      -0.467747       -12.7280
  54   2.0000      -0.465111       -12.6563
  55   2.0000      -0.447150       -12.1676
  56   2.0000      -0.441022       -12.0008
  57   2.0000      -0.437173       -11.8961
  58   2.0000      -0.430894       -11.7252
  59   2.0000      -0.426491       -11.6054
  60   2.0000      -0.422520       -11.4974
  61   2.0000      -0.414803       -11.2874
  62   2.0000      -0.406405       -11.0588
  63   2.0000      -0.350879        -9.5479
  64   2.0000      -0.331760        -9.0277
  65   2.0000      -0.326959        -8.8970
  66   2.0000      -0.294135        -8.0038
  67   0.0000       0.029791         0.8107
  68   0.0000       0.068808         1.8723
  69   0.0000       0.109380         2.9764
  70   0.0000       0.124203         3.3797
  71   0.0000       0.131307         3.5730

MULLIKEN ATOMIC CHARGES
-----------------------
   0 S :    0.092214
   1 C :   -0.136562
   2 C :   -0.113604
   3 C :    0.051570
   4 C :   -0.146094
   5 H :   -0.025447
   6 C :    0.063781
   7 H :    0.021989
   8 H :    0.021417
   9 C :   -0.057963
  10 H :    0.034378
  11 H :    0.024131
  12 C :   -0.054290
  13 H :    0.032660
  14 H :    0.035566
  15 H :    0.031196
  16 S :    0.112662
  17 C :   -0.088857
  18 C :   -0.011342
  19 C :   -0.052939
  20 C :   -0.105918
  21 H :   -0.002183
  22 C :    0.085789
  23 H :    0.000380
  24 H :    0.019211
  25 C :   -0.081342
  26 H :    0.032918
  27 H :    0.024074
  28 C :   -0.050106
  29 H :    0.017487
  30 H :    0.048051
  31 H :    0.049268
  32 H :    0.070176
  33 H :    0.057728
Sum of atomic charges:   -0.0000000

LOEWDIN ATOMIC CHARGES
----------------------
   0 S :    0.395719
   1 C :   -0.202859
   2 C :   -0.067544
   3 C :   -0.056981
   4 C :   -0.175664
   5 H :    0.022790
   6 C :   -0.032463
   7 H :    0.028457
   8 H :    0.029232
   9 C :   -0.032206
  10 H :    0.028729
  11 H :    0.017482
  12 C :   -0.068484
  13 H :    0.021994
  14 H :    0.027139
  15 H :    0.025338
  16 S :    0.417067
  17 C :   -0.180397
  18 C :   -0.057668
  19 C :   -0.048158
  20 C :   -0.217970
  21 H :    0.018983
  22 C :   -0.033894
  23 H :    0.021775
  24 H :    0.035329
  25 C :   -0.033370
  26 H :    0.021808
  27 H :    0.021860
  28 C :   -0.066865
  29 H :    0.017767
  30 H :    0.025449
  31 H :    0.032494
  32 H :    0.036027
  33 H :    0.029085

  Mayer bond orders larger than 0.100000
B(  0-S ,  1-C ) :   1.1615 B(  0-S ,  4-C ) :   1.1370 B(  1-C ,  2-C ) :   1.6014
B(  1-C , 32-H ) :   0.9633 B(  2-C ,  3-C ) :   1.2341 B(  2-C ,  6-C ) :   1.0092
B(  3-C ,  4-C ) :   1.5929 B(  3-C ,  5-H ) :   1.0033 B(  4-C , 20-C ) :   1.0166
B(  6-C ,  7-H ) :   0.9455 B(  6-C ,  8-H ) :   0.9458 B(  6-C ,  9-C ) :   1.0708
B(  9-C , 10-H ) :   0.9578 B(  9-C , 11-H ) :   0.9545 B(  9-C , 12-C ) :   1.0769
B( 12-C , 13-H ) :   0.9732 B( 12-C , 14-H ) :   0.9751 B( 12-C , 15-H ) :   0.9765
B( 16-S , 17-C ) :   1.1658 B( 16-S , 20-C ) :   1.1341 B( 17-C , 18-C ) :   1.5964
B( 17-C , 33-H ) :   0.9676 B( 18-C , 19-C ) :   1.2449 B( 18-C , 21-H ) :   1.0031
B( 19-C , 20-C ) :   1.5908 B( 19-C , 22-C ) :   1.0334 B( 22-C , 23-H ) :   0.9228
B( 22-C , 24-H ) :   0.9338 B( 22-C , 25-C ) :   1.0568 B( 25-C , 26-H ) :   0.9648
B( 25-C , 27-H ) :   0.9580 B( 25-C , 28-C ) :   1.0649 B( 28-C , 29-H ) :   0.9780
B( 28-C , 30-H ) :   0.9709 B( 28-C , 31-H ) :   0.9710

Dispersion correction           -0.015222181
FINAL SINGLE POINT ENERGY     -1339.865968633575

DIPOLE MOMENT
-------------
                                X             Y             Z
Electronic contribution:     -3.19982     -25.15293     -16.02619
Nuclear contribution   :      3.48104      25.67673      16.42305
                        -----------------------------------------
Total Dipole Moment    :      0.28122       0.52380       0.39686
                        -----------------------------------------
Magnitude (a.u.)       :      0.71481
Magnitude (Debye)      :      1.81689

Rotational constants in cm-1:     0.019865     0.009260     0.006875
Rotational constants in MHz :   595.539449   277.596633   206.107466

                             ****ORCA TERMINATED NORMALLY****
TOTAL RUN TIME: 0 days 0 hours 0 minutes 35 seconds 741 msec
