                         Program Version 4.2.1 -  RELEASE  -
|  1> ! wB97X-D3 SP def2-SVP
|  2> %pal
|  3> nprocs 16
|  4> end
|  5>
|  6> * xyz 0 1
|  7> S 	 -94.7769 	 56.9178 	 131.927
|  8> C 	 -93.7038 	 57.8962 	 132.83
|  9> C 	 -94.3463 	 59.0641 	 133.201
| 10> C 	 -95.7062 	 59.1592 	 132.807
| 11> C 	 -96.0642 	 58.0987 	 132.036
| 12> H 	 -96.3826 	 59.9773 	 132.902
| 13> C 	 -93.6997 	 60.1429 	 134.06
| 14> H 	 -93.2862 	 59.758 	 134.996
| 15> H 	 -94.5044 	 60.7721 	 134.422
| 16> C 	 -92.5047 	 60.9407 	 133.439
| 17> H 	 -91.6486 	 60.2497 	 133.437
| 18> H 	 -92.6658 	 61.29 	 132.469
| 19> C 	 -92.076 	 62.1573 	 134.256
| 20> H 	 -91.1098 	 62.5354 	 133.933
| 21> H 	 -92.7705 	 62.9017 	 133.996
| 22> H 	 -92.1601 	 62.0286 	 135.314
| 23> S 	 -97.9722 	 56.1433 	 132.299
| 24> C 	 -99.5854 	 56.268 	 131.483
| 25> C 	 -99.7272 	 57.5025 	 130.971
| 26> C 	 -98.5087 	 58.3057 	 131.099
| 27> C 	 -97.469 	 57.699 	 131.784
| 28> H 	 -100.603 	 57.7513 	 130.392
| 29> C 	 -98.2676 	 59.5717 	 130.369
| 30> H 	 -97.7071 	 60.3374 	 130.907
| 31> H 	 -99.2548 	 60.031 	 130.256
| 32> C 	 -97.7724 	 59.4126 	 128.906
| 33> H 	 -98.4501 	 58.7124 	 128.362
| 34> H 	 -96.7803 	 59.0476 	 129.067
| 35> C 	 -97.5993 	 60.7414 	 128.222
| 36> H 	 -96.9986 	 61.4484 	 128.837
| 37> H 	 -98.5455 	 61.1455 	 127.862
| 38> H 	 -96.9676 	 60.6922 	 127.3
| 39> H 	 -92.6384 	 57.6143 	 132.911
| 40> H 	 -100.473 	 55.6629 	 131.521
| 41> *
| 42>
| 43>                          ****END OF INPUT****

CARTESIAN COORDINATES (ANGSTROEM)
---------------------------------
  S    -94.776900   56.917800  131.927000
  C    -93.703800   57.896200  132.830000
  C    -94.346300   59.064100  133.201000
  C    -95.706200   59.159200  132.807000
  C    -96.064200   58.098700  132.036000
  H    -96.382600   59.977300  132.902000
  C    -93.699700   60.142900  134.060000
  H    -93.286200   59.758000  134.996000
  H    -94.504400   60.772100  134.422000
  C    -92.504700   60.940700  133.439000
  H    -91.648600   60.249700  133.437000
  H    -92.665800   61.290000  132.469000
  C    -92.076000   62.157300  134.256000
  H    -91.109800   62.535400  133.933000
  H    -92.770500   62.901700  133.996000
  H    -92.160100   62.028600  135.314000
  S    -97.972200   56.143300  132.299000
  C    -99.585400   56.268000  131.483000
  C    -99.727200   57.502500  130.971000
  C    -98.508700   58.305700  131.099000
  C    -97.469000   57.699000  131.784000
  H    -100.603000   57.751300  130.392000
  C    -98.267600   59.571700  130.369000
  H    -97.707100   60.337400  130.907000
  H    -99.254800   60.031000  130.256000
  C    -97.772400   59.412600  128.906000
  H    -98.450100   58.712400  128.362000
  H    -96.780300   59.047600  129.067000
  C    -97.599300   60.741400  128.222000
  H    -96.998600   61.448400  128.837000
  H    -98.545500   61.145500  127.862000
  H    -96.967600   60.692200  127.300000
  H    -92.638400   57.614300  132.911000
  H    -100.473000   55.662900  131.521000

 Total Charge           Charge          ....    0
 Multiplicity           Mult            ....    1
 Number of Electrons    NEL             ....  134
 Basis Dimension        Dim             ....  322

ORBITAL ENERGIES
----------------

  NO   OCC          E(Eh)            E(eV)
   0   2.0000     -88.967865     -2420.9387
   1   2.0000     -88.961871     -2420.7756
   2   2.0000     -10.330361      -281.1034
   3   2.0000     -10.325129      -280.9610
   4   2.0000     -10.317547      -280.7547
   5   2.0000     -10.314749      -280.6786
   6   2.0000     -10.304120      -280.3894
   7   2.0000     -10.298342      -280.2321
   8   2.0000     -10.294457      -280.1264
   9   2.0000     -10.293589      -280.1028
  10   2.0000     -10.291832      -280.0550
  11   2.0000     -10.283360      -279.8244
  12   2.0000     -10.283329      -279.8236
  13   2.0000     -10.281997      -279.7874
  14   2.0000     -10.278932      -279.7040
  15   2.0000     -10.270860      -279.4843
  16   2.0000      -8.083438      -219.9615
  17   2.0000      -8.076243      -219.7657
  18   2.0000      -6.041854      -164.4072
  19   2.0000      -6.037595      -164.2913
  20   2.0000      -6.035020      -164.2213
  21   2.0000      -6.034471      -164.2063
  22   2.0000      -6.030682      -164.1032
  23   2.0000      -6.026805      -163.9977
  24   2.0000      -1.013685       -27.5838
  25   2.0000      -0.987030       -26.8585
  26   2.0000      -0.909409       -24.7463
  27   2.0000      -0.907990       -24.7077
  28   2.0000      -0.876061       -23.8388
  29   2.0000      -0.859205       -23.3802
  30   2.0000      -0.843902       -22.9637
  31   2.0000      -0.826482       -22.4897
  32   2.0000      -0.778498       -21.1840
  33   2.0000      -0.762814       -20.7572
  34   2.0000      -0.705925       -19.2092
  35   2.0000      -0.701583       -19.0910
  36   2.0000      -0.688584       -18.7373
  37   2.0000      -0.664825       -18.0908
  38   2.0000      -0.649983       -17.6869
  39   2.0000      -0.622150       -16.9296
  40   2.0000      -0.591416       -16.0932
  41   2.0000      -0.573004       -15.5922
  42   2.0000      -0.569107       -15.4862
  43   2.0000      -0.564612       -15.3639
  44   2.0000      -0.529278       -14.4024
  45   2.0000      -0.525073       -14.2880
  46   2.0000      -0.517939       -14.0938
  47   2.0000      -0.513711       -13.9788
  48   2.0000      -0.505823       -13.7641
  49   2.0000      -0.497680       -13.5426
  50   2.0000      -0.493495       -13.4287
  51   2.0000      -0.487298       -13.2600
  52   2.0000      -0.470426       -12.8009
  53   2.0000      -0.461133       -12.5481
  54   2.0000      -0.460631       -12.5344
  55   2.0000      -0.449364       -12.2278
  56   2.0000      -0.445994       -12.1361
  57   2.0000      -0.439365       -11.9557
  58   2.0000      -0.431793       -11.7497
  59   2.0000      -0.424942       -11.5633
  60   2.0000      -0.416563       -11.3353
  61   2.0000      -0.413275       -11.2458
  62   2.0000      -0.402609       -10.9556
  63   2.0000      -0.359094        -9.7714
  64   2.0000      -0.332662        -9.0522
  65   2.0000      -0.326374        -8.8811
  66   2.0000      -0.292869        -7.9694
  67   0.0000       0.031263         0.8507
  68   0.0000       0.071075         1.9340
  69   0.0000       0.111588         3.0365
  70   0.0000       0.123719         3.3666
  71   0.0000       0.131077         3.5668

MULLIKEN ATOMIC CHARGES
-----------------------
   0 S :    0.113131
   1 C :   -0.136357
   2 C :   -0.063434
   3 C :    0.040184
   4 C :   -0.134510
   5 H :    0.017236
   6 C :    0.053161
   7 H :    0.028479
   8 H :    0.009095
   9 C :   -0.062933
  10 H :    0.025034
  11 H :    0.018643
  12 C :   -0.023293
  13 H :    0.033416
  14 H :    0.013965
  15 H :    0.025043
  16 S :    0.089676
  17 C :   -0.079497
  18 C :   -0.027108
  19 C :   -0.057592
  20 C :   -0.132605
  21 H :    0.021854
  22 C :    0.029881
  23 H :    0.011750
  24 H :    0.004194
  25 C :   -0.041435
  26 H :    0.038755
  27 H :    0.023059
  28 C :   -0.055837
  29 H :    0.030581
  30 H :    0.031491
  31 H :    0.032187
  32 H :    0.072355
  33 H :    0.051431
Sum of atomic charges:   -0.0000000

LOEWDIN ATOMIC CHARGES
----------------------
   0 S :    0.428351
   1 C :   -0.206169
   2 C :   -0.064927
   3 C :   -0.052086
   4 C :   -0.193888
   5 H :    0.032465
   6 C :   -0.033851
   7 H :    0.032735
   8 H :    0.023881
   9 C :   -0.031525
  10 H :    0.021177
  11 H :    0.014617
  12 C :   -0.058604
  13 H :    0.028238
  14 H :    0.019394
  15 H :    0.020581
  16 S :    0.390412
  17 C :   -0.172822
  18 C :   -0.065943
  19 C :   -0.069615
  20 C :   -0.200081
  21 H :    0.032977
  22 C :   -0.042150
  23 H :    0.024325
  24 H :    0.025021
  25 C :   -0.036513
  26 H :    0.030169
  27 H :    0.022580
  28 C :   -0.072108
  29 H :    0.028828
  30 H :    0.022106
  31 H :    0.030340
  32 H :    0.038023
  33 H :    0.034066

  Mayer bond orders larger than 0.100000
B(  0-S ,  1-C ) :   1.1567 B(  0-S ,  4-C ) :   1.1681 B(  1-C ,  2-C ) :   1.5682
B(  1-C , 32-H ) :   0.9719 B(  2-C ,  3-C ) :   1.2685 B(  2-C ,  6-C ) :   1.0247
B(  3-C ,  4-C ) :   1.5568 B(  3-C ,  5-H ) :   0.9935 B(  4-C , 20-C ) :   1.0056
B(  6-C ,  7-H ) :   0.9390 B(  6-C ,  8-H ) :   0.9489 B(  6-C ,  9-C ) :   1.0525
B(  9-C , 10-H ) :   0.9586 B(  9-C , 11-H ) :   0.9638 B(  9-C , 12-C ) :   1.0830
B( 12-C , 13-H ) :   0.9733 B( 12-C , 14-H ) :   0.9763 B( 12-C , 15-H ) :   0.9745
B( 16-S , 17-C ) :   1.1187 B( 16-S , 20-C ) :   1.1342 B( 17-C , 18-C ) :   1.6662
B( 17-C , 33-H ) :   0.9607 B( 18-C , 19-C ) :   1.2199 B( 18-C , 21-H ) :   0.9867
B( 19-C , 20-C ) :   1.6199 B( 19-C , 22-C ) :   1.0717 B( 22-C , 23-H ) :   0.9320
B( 22-C , 24-H ) :   0.9243 B( 22-C , 25-C ) :   1.0598 B( 25-C , 26-H ) :   0.9539
B( 25-C , 27-H ) :   0.9531 B( 25-C , 28-C ) :   1.0912 B( 28-C , 29-H ) :   0.9690
B( 28-C , 30-H ) :   0.9748 B( 28-C , 31-H ) :   0.9715

Dispersion correction           -0.013710832
FINAL SINGLE POINT ENERGY     -1339.870192785500

DIPOLE MOMENT
-------------
                                X             Y             Z
Electronic contribution:     -8.40249     -26.78234       4.57624
Nuclear contribution   :      8.48072      27.37955      -4.63963
                        -----------------------------------------
Total Dipole Moment    :      0.07823       0.59722      -0.06339
                        -----------------------------------------
Magnitude (a.u.)       :      0.60565
Magnitude (Debye)      :      1.53943

Rotational constants in cm-1:     0.019478     0.007936     0.006384
Rotational constants in MHz :   583.922027   237.905671   191.398868

                             ****ORCA TERMINATED NORMALLY****
TOTAL RUN TIME: 0 days 0 hours 0 minutes 31 seconds 906 msec
