                         Program Version 4.2.1 -  RELEASE  -
|  1> ! wB97X-D3 SP def2-SVP
|  2> %pal
|  3> nprocs 16
|  4> end
|  5>
|  6> * xyz 0 1
|  7> S 	 17.6349 	 2.24238 	 70.7128
|  8> C 	 17.8202 	 1.90012 	 69.019
|  9> C 	 18.9793 	 2.48657 	 68.5654
| 10> C 	 19.7168 	 3.18178 	 69.6009
| 11> C 	 19.0529 	 3.22266 	 70.8417
| 12> H 	 20.6612 	 3.6253 	 69.5689
| 13> C 	 19.4712 	 2.27498 	 67.1349
| 14> H 	 19.9891 	 3.17845 	 66.7914
| 15> H 	 18.6181 	 2.1183 	 66.5088
| 16> C 	 20.4734 	 1.1881 	 67.0808
| 17> H 	 20.7591 	 1.09725 	 66.0161
| 18> H 	 21.356 	 1.45163 	 67.5752
| 19> C 	 19.81 	 -0.172891 	 67.528
| 20> H 	 20.4311 	 -1.08739 	 67.3254
| 21> H 	 19.7125 	 -0.188789 	 68.6046
| 22> H 	 18.8397 	 -0.316195 	 67.0576
| 23> S 	 20.0025 	 2.57029 	 73.3286
| 24> C 	 20.5187 	 3.82127 	 74.3345
| 25> C 	 20.576 	 5.05679 	 73.7094
| 26> C 	 20.0599 	 5.01025 	 72.3236
| 27> C 	 19.5853 	 3.71927 	 72.0211
| 28> H 	 20.8648 	 6.02764 	 74.1305
| 29> C 	 19.8369 	 6.22878 	 71.4814
| 30> H 	 20.2548 	 6.02024 	 70.5081
| 31> H 	 20.4087 	 7.02865 	 71.8391
| 32> C 	 18.3843 	 6.60072 	 71.3393
| 33> H 	 17.7956 	 5.72006 	 71.1511
| 34> H 	 18.2266 	 7.23266 	 70.4432
| 35> C 	 17.7694 	 7.31949 	 72.5797
| 36> H 	 18.3862 	 8.15699 	 73.0033
| 37> H 	 17.6251 	 6.62449 	 73.3294
| 38> H 	 16.7034 	 7.57407 	 72.2557
| 39> H 	 17.2424 	 1.21096 	 68.4536
| 40> H 	 20.8634 	 3.60126 	 75.2991
| 41> *
| 42>
| 43>                          ****END OF INPUT****

CARTESIAN COORDINATES (ANGSTROEM)
---------------------------------
  S     17.634900    2.242380   70.712800
  C     17.820200    1.900120   69.019000
  C     18.979300    2.486570   68.565400
  C     19.716800    3.181780   69.600900
  C     19.052900    3.222660   70.841700
  H     20.661200    3.625300   69.568900
  C     19.471200    2.274980   67.134900
  H     19.989100    3.178450   66.791400
  H     18.618100    2.118300   66.508800
  C     20.473400    1.188100   67.080800
  H     20.759100    1.097250   66.016100
  H     21.356000    1.451630   67.575200
  C     19.810000   -0.172891   67.528000
  H     20.431100   -1.087390   67.325400
  H     19.712500   -0.188789   68.604600
  H     18.839700   -0.316195   67.057600
  S     20.002500    2.570290   73.328600
  C     20.518700    3.821270   74.334500
  C     20.576000    5.056790   73.709400
  C     20.059900    5.010250   72.323600
  C     19.585300    3.719270   72.021100
  H     20.864800    6.027640   74.130500
  C     19.836900    6.228780   71.481400
  H     20.254800    6.020240   70.508100
  H     20.408700    7.028650   71.839100
  C     18.384300    6.600720   71.339300
  H     17.795600    5.720060   71.151100
  H     18.226600    7.232660   70.443200
  C     17.769400    7.319490   72.579700
  H     18.386200    8.156990   73.003300
  H     17.625100    6.624490   73.329400
  H     16.703400    7.574070   72.255700
  H     17.242400    1.210960   68.453600
  H     20.863400    3.601260   75.299100

 Total Charge           Charge          ....    0
 Multiplicity           Mult            ....    1
 Number of Electrons    NEL             ....  134
 Basis Dimension        Dim             ....  322

ORBITAL ENERGIES
----------------

  NO   OCC          E(Eh)            E(eV)
   0   2.0000     -88.964882     -2420.8575
   1   2.0000     -88.963995     -2420.8334
   2   2.0000     -10.323506      -280.9169
   3   2.0000     -10.322464      -280.8885
   4   2.0000     -10.313154      -280.6352
   5   2.0000     -10.310576      -280.5650
   6   2.0000     -10.307587      -280.4837
   7   2.0000     -10.301061      -280.3061
   8   2.0000     -10.299217      -280.2560
   9   2.0000     -10.293115      -280.0899
  10   2.0000     -10.286860      -279.9197
  11   2.0000     -10.282978      -279.8141
  12   2.0000     -10.282787      -279.8089
  13   2.0000     -10.280988      -279.7599
  14   2.0000     -10.279246      -279.7125
  15   2.0000     -10.276192      -279.6294
  16   2.0000      -8.080477      -219.8810
  17   2.0000      -8.079125      -219.8442
  18   2.0000      -6.038908      -164.3271
  19   2.0000      -6.037605      -164.2916
  20   2.0000      -6.034855      -164.2168
  21   2.0000      -6.033335      -164.1754
  22   2.0000      -6.031265      -164.1191
  23   2.0000      -6.030116      -164.0878
  24   2.0000      -1.009264       -27.4635
  25   2.0000      -0.983886       -26.7729
  26   2.0000      -0.920362       -25.0443
  27   2.0000      -0.913880       -24.8679
  28   2.0000      -0.875155       -23.8142
  29   2.0000      -0.845075       -22.9957
  30   2.0000      -0.837318       -22.7846
  31   2.0000      -0.808121       -21.9901
  32   2.0000      -0.786438       -21.4001
  33   2.0000      -0.777983       -21.1700
  34   2.0000      -0.716208       -19.4890
  35   2.0000      -0.698680       -19.0120
  36   2.0000      -0.690173       -18.7806
  37   2.0000      -0.664394       -18.0791
  38   2.0000      -0.647889       -17.6300
  39   2.0000      -0.616355       -16.7719
  40   2.0000      -0.599568       -16.3151
  41   2.0000      -0.568041       -15.4572
  42   2.0000      -0.554733       -15.0951
  43   2.0000      -0.549616       -14.9558
  44   2.0000      -0.547625       -14.9016
  45   2.0000      -0.537566       -14.6279
  46   2.0000      -0.521968       -14.2035
  47   2.0000      -0.516126       -14.0445
  48   2.0000      -0.509476       -13.8635
  49   2.0000      -0.492169       -13.3926
  50   2.0000      -0.487120       -13.2552
  51   2.0000      -0.482892       -13.1402
  52   2.0000      -0.474785       -12.9196
  53   2.0000      -0.462422       -12.5832
  54   2.0000      -0.460874       -12.5410
  55   2.0000      -0.449540       -12.2326
  56   2.0000      -0.442276       -12.0349
  57   2.0000      -0.438073       -11.9206
  58   2.0000      -0.431108       -11.7310
  59   2.0000      -0.427626       -11.6363
  60   2.0000      -0.421653       -11.4738
  61   2.0000      -0.414322       -11.2743
  62   2.0000      -0.405221       -11.0266
  63   2.0000      -0.341458        -9.2915
  64   2.0000      -0.329959        -8.9786
  65   2.0000      -0.324904        -8.8411
  66   2.0000      -0.293655        -7.9908
  67   0.0000       0.026789         0.7290
  68   0.0000       0.068148         1.8544
  69   0.0000       0.114317         3.1107
  70   0.0000       0.121588         3.3086
  71   0.0000       0.133049         3.6204

MULLIKEN ATOMIC CHARGES
-----------------------
   0 S :    0.110173
   1 C :   -0.104235
   2 C :   -0.106794
   3 C :    0.056687
   4 C :   -0.189916
   5 H :   -0.007813
   6 C :    0.082661
   7 H :    0.022232
   8 H :    0.019382
   9 C :   -0.036050
  10 H :    0.028643
  11 H :    0.020060
  12 C :   -0.082754
  13 H :    0.037640
  14 H :    0.050428
  15 H :    0.027252
  16 S :    0.120512
  17 C :   -0.064085
  18 C :   -0.023895
  19 C :   -0.073765
  20 C :   -0.175218
  21 H :    0.020926
  22 C :    0.143958
  23 H :    0.014012
  24 H :   -0.003747
  25 C :   -0.075309
  26 H :    0.031975
  27 H :    0.029204
  28 C :   -0.055573
  29 H :    0.039707
  30 H :    0.021693
  31 H :    0.041210
  32 H :    0.038201
  33 H :    0.042599
Sum of atomic charges:    0.0000000

LOEWDIN ATOMIC CHARGES
----------------------
   0 S :    0.420050
   1 C :   -0.197794
   2 C :   -0.059503
   3 C :   -0.051485
   4 C :   -0.213521
   5 H :    0.019543
   6 C :   -0.029099
   7 H :    0.032170
   8 H :    0.025421
   9 C :   -0.032900
  10 H :    0.026812
  11 H :    0.016987
  12 C :   -0.068685
  13 H :    0.029564
  14 H :    0.025679
  15 H :    0.021144
  16 S :    0.420854
  17 C :   -0.192618
  18 C :   -0.075113
  19 C :   -0.038204
  20 C :   -0.202326
  21 H :    0.031665
  22 C :   -0.031817
  23 H :    0.032696
  24 H :    0.021335
  25 C :   -0.035093
  26 H :    0.024925
  27 H :    0.025032
  28 C :   -0.066817
  29 H :    0.028082
  30 H :    0.013034
  31 H :    0.037887
  32 H :    0.023969
  33 H :    0.018125

  Mayer bond orders larger than 0.100000
B(  0-S ,  1-C ) :   1.1423 B(  0-S ,  4-C ) :   1.1500 B(  1-C ,  2-C ) :   1.5916
B(  1-C , 32-H ) :   0.9752 B(  2-C ,  3-C ) :   1.2422 B(  2-C ,  6-C ) :   1.0235
B(  3-C ,  4-C ) :   1.5418 B(  3-C ,  5-H ) :   1.0011 B(  4-C , 20-C ) :   1.1022
B(  6-C ,  7-H ) :   0.9348 B(  6-C ,  8-H ) :   0.9435 B(  6-C ,  9-C ) :   1.0869
B(  9-C , 10-H ) :   0.9545 B(  9-C , 11-H ) :   0.9568 B(  9-C , 12-C ) :   1.0627
B( 12-C , 13-H ) :   0.9751 B( 12-C , 14-H ) :   0.9734 B( 12-C , 15-H ) :   0.9759
B( 16-S , 17-C ) :   1.1759 B( 16-S , 20-C ) :   1.1323 B( 17-C , 18-C ) :   1.5768
B( 17-C , 33-H ) :   0.9745 B( 18-C , 19-C ) :   1.2454 B( 18-C , 21-H ) :   0.9866
B( 19-C , 20-C ) :   1.5703 B( 19-C , 22-C ) :   1.0611 B( 22-C , 23-H ) :   0.9122
B( 22-C , 24-H ) :   0.9261 B( 22-C , 25-C ) :   1.0769 B( 25-C , 26-H ) :   0.9546
B( 25-C , 27-H ) :   0.9568 B( 25-C , 28-C ) :   1.0700 B( 28-C , 29-H ) :   0.9758
B( 28-C , 30-H ) :   0.9773 B( 28-C , 31-H ) :   0.9723

Dispersion correction           -0.015473760
FINAL SINGLE POINT ENERGY     -1339.875849849139

DIPOLE MOMENT
-------------
                                X             Y             Z
Electronic contribution:     -1.43485      -7.59055      14.68517
Nuclear contribution   :      1.76955       7.77376     -15.04760
                        -----------------------------------------
Total Dipole Moment    :      0.33470       0.18322      -0.36243
                        -----------------------------------------
Magnitude (a.u.)       :      0.52626
Magnitude (Debye)      :      1.33764

Rotational constants in cm-1:     0.022481     0.008409     0.007419
Rotational constants in MHz :   673.956224   252.103017   222.419502

                             ****ORCA TERMINATED NORMALLY****
TOTAL RUN TIME: 0 days 0 hours 0 minutes 34 seconds 428 msec
