                         Program Version 4.2.1 -  RELEASE  -
|  1> ! wB97X-D3 SP def2-SVP
|  2> %pal
|  3> nprocs 16
|  4> end
|  5>
|  6> * xyz 0 1
|  7> S 	 51.5949 	 9.30165 	 95.8463
|  8> C 	 51.8719 	 10.985 	 96.2529
|  9> C 	 50.7025 	 11.6997 	 95.9439
| 10> C 	 49.7467 	 10.9391 	 95.2362
| 11> C 	 50.0707 	 9.61143 	 95.1371
| 12> H 	 48.8353 	 11.29 	 94.8535
| 13> C 	 50.6496 	 13.2083 	 96.2741
| 14> H 	 50.6342 	 13.8224 	 95.3644
| 15> H 	 51.535 	 13.5531 	 96.8406
| 16> C 	 49.4804 	 13.4111 	 97.236
| 17> H 	 48.5848 	 12.9731 	 97.0044
| 18> H 	 49.584 	 12.9228 	 98.1455
| 19> C 	 49.1868 	 14.8733 	 97.6052
| 20> H 	 48.3186 	 15.0045 	 98.1503
| 21> H 	 49.9707 	 15.2848 	 98.1493
| 22> H 	 49.0677 	 15.4215 	 96.6635
| 23> S 	 49.8039 	 7.14048 	 93.8515
| 24> C 	 48.2433 	 6.41191 	 93.6625
| 25> C 	 47.3541 	 7.12369 	 94.3976
| 26> C 	 47.801 	 8.31911 	 94.982
| 27> C 	 49.1545 	 8.54307 	 94.7138
| 28> H 	 46.2907 	 6.85754 	 94.1964
| 29> C 	 46.805 	 9.10051 	 95.8374
| 30> H 	 46.0003 	 9.54465 	 95.1136
| 31> H 	 47.2188 	 9.95831 	 96.2007
| 32> C 	 46.2066 	 8.38248 	 96.9943
| 33> H 	 45.6036 	 7.57593 	 96.5213
| 34> H 	 45.4258 	 8.95599 	 97.5453
| 35> C 	 47.2127 	 7.79258 	 98.013
| 36> H 	 46.7799 	 6.81442 	 98.4506
| 37> H 	 47.5433 	 8.47633 	 98.7022
| 38> H 	 48.1637 	 7.37304 	 97.4636
| 39> H 	 52.7187 	 11.2339 	 96.8578
| 40> H 	 47.9802 	 5.50235 	 93.1838
| 41> *
| 42>
| 43>                          ****END OF INPUT****

CARTESIAN COORDINATES (ANGSTROEM)
---------------------------------
  S     51.594900    9.301650   95.846300
  C     51.871900   10.985000   96.252900
  C     50.702500   11.699700   95.943900
  C     49.746700   10.939100   95.236200
  C     50.070700    9.611430   95.137100
  H     48.835300   11.290000   94.853500
  C     50.649600   13.208300   96.274100
  H     50.634200   13.822400   95.364400
  H     51.535000   13.553100   96.840600
  C     49.480400   13.411100   97.236000
  H     48.584800   12.973100   97.004400
  H     49.584000   12.922800   98.145500
  C     49.186800   14.873300   97.605200
  H     48.318600   15.004500   98.150300
  H     49.970700   15.284800   98.149300
  H     49.067700   15.421500   96.663500
  S     49.803900    7.140480   93.851500
  C     48.243300    6.411910   93.662500
  C     47.354100    7.123690   94.397600
  C     47.801000    8.319110   94.982000
  C     49.154500    8.543070   94.713800
  H     46.290700    6.857540   94.196400
  C     46.805000    9.100510   95.837400
  H     46.000300    9.544650   95.113600
  H     47.218800    9.958310   96.200700
  C     46.206600    8.382480   96.994300
  H     45.603600    7.575930   96.521300
  H     45.425800    8.955990   97.545300
  C     47.212700    7.792580   98.013000
  H     46.779900    6.814420   98.450600
  H     47.543300    8.476330   98.702200
  H     48.163700    7.373040   97.463600
  H     52.718700   11.233900   96.857800
  H     47.980200    5.502350   93.183800

 Total Charge           Charge          ....    0
 Multiplicity           Mult            ....    1
 Number of Electrons    NEL             ....  134
 Basis Dimension        Dim             ....  322

ORBITAL ENERGIES
----------------

  NO   OCC          E(Eh)            E(eV)
   0   2.0000     -88.965029     -2420.8615
   1   2.0000     -88.963929     -2420.8316
   2   2.0000     -10.333864      -281.1987
   3   2.0000     -10.328291      -281.0471
   4   2.0000     -10.314922      -280.6833
   5   2.0000     -10.313562      -280.6463
   6   2.0000     -10.306522      -280.4547
   7   2.0000     -10.305689      -280.4320
   8   2.0000     -10.298376      -280.2331
   9   2.0000     -10.290711      -280.0245
  10   2.0000     -10.289832      -280.0006
  11   2.0000     -10.288718      -279.9703
  12   2.0000     -10.288426      -279.9623
  13   2.0000     -10.281978      -279.7868
  14   2.0000     -10.270645      -279.4785
  15   2.0000     -10.264807      -279.3196
  16   2.0000      -8.079852      -219.8640
  17   2.0000      -8.079572      -219.8563
  18   2.0000      -6.038369      -164.3124
  19   2.0000      -6.037888      -164.2993
  20   2.0000      -6.034279      -164.2011
  21   2.0000      -6.033833      -164.1889
  22   2.0000      -6.030652      -164.1024
  23   2.0000      -6.030596      -164.1009
  24   2.0000      -1.012043       -27.5391
  25   2.0000      -0.990824       -26.9617
  26   2.0000      -0.914623       -24.8881
  27   2.0000      -0.912625       -24.8338
  28   2.0000      -0.872183       -23.7333
  29   2.0000      -0.852266       -23.1913
  30   2.0000      -0.841970       -22.9112
  31   2.0000      -0.819505       -22.2999
  32   2.0000      -0.784683       -21.3523
  33   2.0000      -0.775489       -21.1021
  34   2.0000      -0.716218       -19.4893
  35   2.0000      -0.701891       -19.0994
  36   2.0000      -0.695417       -18.9233
  37   2.0000      -0.656907       -17.8753
  38   2.0000      -0.647380       -17.6161
  39   2.0000      -0.626709       -17.0536
  40   2.0000      -0.604541       -16.4504
  41   2.0000      -0.568954       -15.4820
  42   2.0000      -0.562027       -15.2935
  43   2.0000      -0.549212       -14.9448
  44   2.0000      -0.538103       -14.6425
  45   2.0000      -0.531694       -14.4681
  46   2.0000      -0.522732       -14.2243
  47   2.0000      -0.514354       -13.9963
  48   2.0000      -0.505981       -13.7684
  49   2.0000      -0.504512       -13.7285
  50   2.0000      -0.496786       -13.5182
  51   2.0000      -0.479782       -13.0555
  52   2.0000      -0.477670       -12.9981
  53   2.0000      -0.471217       -12.8225
  54   2.0000      -0.462261       -12.5788
  55   2.0000      -0.449256       -12.2249
  56   2.0000      -0.442862       -12.0509
  57   2.0000      -0.430981       -11.7276
  58   2.0000      -0.429017       -11.6742
  59   2.0000      -0.420642       -11.4462
  60   2.0000      -0.415280       -11.3003
  61   2.0000      -0.410668       -11.1749
  62   2.0000      -0.406395       -11.0586
  63   2.0000      -0.353434        -9.6174
  64   2.0000      -0.333555        -9.0765
  65   2.0000      -0.331837        -9.0297
  66   2.0000      -0.292126        -7.9491
  67   0.0000       0.026886         0.7316
  68   0.0000       0.074311         2.0221
  69   0.0000       0.113313         3.0834
  70   0.0000       0.121627         3.3096
  71   0.0000       0.134790         3.6678

MULLIKEN ATOMIC CHARGES
-----------------------
   0 S :    0.103955
   1 C :   -0.122715
   2 C :   -0.093531
   3 C :    0.037109
   4 C :   -0.109344
   5 H :   -0.007545
   6 C :    0.086565
   7 H :    0.043475
   8 H :    0.021340
   9 C :   -0.056349
  10 H :   -0.007394
  11 H :   -0.000651
  12 C :    0.006251
  13 H :    0.013616
  14 H :    0.013536
  15 H :    0.019822
  16 S :    0.097068
  17 C :   -0.071967
  18 C :   -0.064622
  19 C :   -0.051515
  20 C :   -0.164875
  21 H :    0.038432
  22 C :    0.112710
  23 H :    0.043833
  24 H :   -0.023026
  25 C :   -0.079344
  26 H :    0.023184
  27 H :    0.035830
  28 C :   -0.077677
  29 H :    0.047832
  30 H :    0.030804
  31 H :    0.053272
  32 H :    0.054207
  33 H :    0.047716
Sum of atomic charges:    0.0000000

LOEWDIN ATOMIC CHARGES
----------------------
   0 S :    0.421308
   1 C :   -0.197160
   2 C :   -0.053078
   3 C :   -0.064096
   4 C :   -0.200261
   5 H :    0.023952
   6 C :   -0.021306
   7 H :    0.032428
   8 H :    0.033673
   9 C :   -0.039957
  10 H :    0.010446
  11 H :    0.020095
  12 C :   -0.050058
  13 H :    0.016665
  14 H :    0.014268
  15 H :    0.025219
  16 S :    0.401639
  17 C :   -0.180812
  18 C :   -0.083742
  19 C :   -0.058030
  20 C :   -0.188830
  21 H :    0.038178
  22 C :   -0.033475
  23 H :    0.045707
  24 H :    0.008304
  25 C :   -0.049640
  26 H :    0.022854
  27 H :    0.030461
  28 C :   -0.070334
  29 H :    0.039493
  30 H :    0.010703
  31 H :    0.041135
  32 H :    0.025088
  33 H :    0.029161

  Mayer bond orders larger than 0.100000
B(  0-S ,  1-C ) :   1.1441 B(  0-S ,  4-C ) :   1.1855 B(  1-C ,  2-C ) :   1.5664
B(  1-C ,  4-C ) :   0.1008 B(  1-C , 32-H ) :   0.9784 B(  2-C ,  3-C ) :   1.2567
B(  2-C ,  6-C ) :   1.0229 B(  3-C ,  4-C ) :   1.5401 B(  3-C ,  5-H ) :   1.0130
B(  4-C , 20-C ) :   1.0354 B(  6-C ,  7-H ) :   0.9486 B(  6-C ,  8-H ) :   0.9458
B(  6-C ,  9-C ) :   1.0412 B(  9-C , 10-H ) :   0.9587 B(  9-C , 11-H ) :   0.9443
B(  9-C , 12-C ) :   1.0918 B( 12-C , 13-H ) :   0.9716 B( 12-C , 14-H ) :   0.9747
B( 12-C , 15-H ) :   0.9747 B( 16-S , 17-C ) :   1.1511 B( 16-S , 20-C ) :   1.1432
B( 17-C , 18-C ) :   1.6286 B( 17-C , 20-C ) :   0.1001 B( 17-C , 33-H ) :   0.9694
B( 18-C , 19-C ) :   1.2475 B( 18-C , 21-H ) :   0.9730 B( 19-C , 20-C ) :   1.5755
B( 19-C , 22-C ) :   1.0351 B( 22-C , 23-H ) :   0.9297 B( 22-C , 24-H ) :   0.9256
B( 22-C , 25-C ) :   1.0731 B( 25-C , 26-H ) :   0.9552 B( 25-C , 27-H ) :   0.9528
B( 25-C , 28-C ) :   1.0618 B( 28-C , 29-H ) :   0.9747 B( 28-C , 30-H ) :   0.9786
B( 28-C , 31-H ) :   0.9735

Dispersion correction           -0.014572808
FINAL SINGLE POINT ENERGY     -1339.852811373140

DIPOLE MOMENT
-------------
                                X             Y             Z
Electronic contribution:     15.87962     -18.03370     -16.02122
Nuclear contribution   :    -16.42212      18.38152      16.33933
                        -----------------------------------------
Total Dipole Moment    :     -0.54250       0.34782       0.31811
                        -----------------------------------------
Magnitude (a.u.)       :      0.71867
Magnitude (Debye)      :      1.82671

Rotational constants in cm-1:     0.019640     0.008803     0.006929
Rotational constants in MHz :   588.797024   263.902016   207.715792

                             ****ORCA TERMINATED NORMALLY****
TOTAL RUN TIME: 0 days 0 hours 0 minutes 30 seconds 903 msec
