                         Program Version 4.2.1 -  RELEASE  -
|  1> ! wB97X-D3 SP def2-SVP
|  2> %pal
|  3> nprocs 16
|  4> end
|  5>
|  6> * xyz 0 1
|  7> S 	 -26.2155 	 53.4585 	 109.444
|  8> C 	 -27.8382 	 53.3615 	 110.138
|  9> C 	 -28.1891 	 54.5128 	 110.739
| 10> C 	 -27.0998 	 55.4338 	 110.882
| 11> C 	 -25.9042 	 54.9809 	 110.303
| 12> H 	 -27.109 	 56.4044 	 111.375
| 13> C 	 -29.5786 	 54.8476 	 111.211
| 14> H 	 -30.1524 	 54.8896 	 110.232
| 15> H 	 -29.4273 	 55.7899 	 111.768
| 16> C 	 -30.2117 	 53.7895 	 112.13
| 17> H 	 -31.2468 	 53.9863 	 112.297
| 18> H 	 -29.9874 	 52.7908 	 111.747
| 19> C 	 -29.5031 	 53.8993 	 113.459
| 20> H 	 -29.8102 	 53.0895 	 114.092
| 21> H 	 -28.4387 	 53.7722 	 113.326
| 22> H 	 -29.5662 	 54.9204 	 113.946
| 23> S 	 -24.2053 	 55.9105 	 108.343
| 24> C 	 -23.0026 	 57.1012 	 108.772
| 25> C 	 -23.1059 	 57.5943 	 110.089
| 26> C 	 -24.1424 	 56.8359 	 110.83
| 27> C 	 -24.7887 	 55.8776 	 110.053
| 28> H 	 -22.611 	 58.4104 	 110.504
| 29> C 	 -24.4549 	 57.1401 	 112.321
| 30> H 	 -25.4573 	 57.6253 	 112.341
| 31> H 	 -23.6906 	 57.8189 	 112.832
| 32> C 	 -24.6695 	 55.8748 	 113.26
| 33> H 	 -25.6214 	 55.2581 	 113.225
| 34> H 	 -24.7164 	 56.3879 	 114.205
| 35> C 	 -23.4454 	 54.9538 	 113.225
| 36> H 	 -22.5561 	 55.3251 	 113.659
| 37> H 	 -23.2798 	 54.5598 	 112.253
| 38> H 	 -23.7458 	 54.0882 	 113.78
| 39> H 	 -28.5405 	 52.6802 	 109.891
| 40> H 	 -22.4158 	 57.6154 	 108.052
| 41> *
| 42>
| 43>                          ****END OF INPUT****

CARTESIAN COORDINATES (ANGSTROEM)
---------------------------------
  S    -26.215500   53.458500  109.444000
  C    -27.838200   53.361500  110.138000
  C    -28.189100   54.512800  110.739000
  C    -27.099800   55.433800  110.882000
  C    -25.904200   54.980900  110.303000
  H    -27.109000   56.404400  111.375000
  C    -29.578600   54.847600  111.211000
  H    -30.152400   54.889600  110.232000
  H    -29.427300   55.789900  111.768000
  C    -30.211700   53.789500  112.130000
  H    -31.246800   53.986300  112.297000
  H    -29.987400   52.790800  111.747000
  C    -29.503100   53.899300  113.459000
  H    -29.810200   53.089500  114.092000
  H    -28.438700   53.772200  113.326000
  H    -29.566200   54.920400  113.946000
  S    -24.205300   55.910500  108.343000
  C    -23.002600   57.101200  108.772000
  C    -23.105900   57.594300  110.089000
  C    -24.142400   56.835900  110.830000
  C    -24.788700   55.877600  110.053000
  H    -22.611000   58.410400  110.504000
  C    -24.454900   57.140100  112.321000
  H    -25.457300   57.625300  112.341000
  H    -23.690600   57.818900  112.832000
  C    -24.669500   55.874800  113.260000
  H    -25.621400   55.258100  113.225000
  H    -24.716400   56.387900  114.205000
  C    -23.445400   54.953800  113.225000
  H    -22.556100   55.325100  113.659000
  H    -23.279800   54.559800  112.253000
  H    -23.745800   54.088200  113.780000
  H    -28.540500   52.680200  109.891000
  H    -22.415800   57.615400  108.052000

 Total Charge           Charge          ....    0
 Multiplicity           Mult            ....    1
 Number of Electrons    NEL             ....  134
 Basis Dimension        Dim             ....  322

ORBITAL ENERGIES
----------------

  NO   OCC          E(Eh)            E(eV)
   0   2.0000     -88.969264     -2420.9768
   1   2.0000     -88.966614     -2420.9046
   2   2.0000     -10.333915      -281.2001
   3   2.0000     -10.331564      -281.1361
   4   2.0000     -10.319211      -280.8000
   5   2.0000     -10.310675      -280.5677
   6   2.0000     -10.307329      -280.4767
   7   2.0000     -10.304318      -280.3947
   8   2.0000     -10.299042      -280.2512
   9   2.0000     -10.297694      -280.2145
  10   2.0000     -10.297445      -280.2077
  11   2.0000     -10.296870      -280.1921
  12   2.0000     -10.288088      -279.9531
  13   2.0000     -10.286741      -279.9164
  14   2.0000     -10.275023      -279.5976
  15   2.0000     -10.259976      -279.1882
  16   2.0000      -8.083057      -219.9512
  17   2.0000      -8.080609      -219.8846
  18   2.0000      -6.041728      -164.4038
  19   2.0000      -6.039188      -164.3347
  20   2.0000      -6.037789      -164.2966
  21   2.0000      -6.035398      -164.2315
  22   2.0000      -6.033603      -164.1827
  23   2.0000      -6.031155      -164.1161
  24   2.0000      -1.002249       -27.2726
  25   2.0000      -0.976349       -26.5678
  26   2.0000      -0.919761       -25.0280
  27   2.0000      -0.898921       -24.4609
  28   2.0000      -0.869873       -23.6704
  29   2.0000      -0.849521       -23.1166
  30   2.0000      -0.841874       -22.9086
  31   2.0000      -0.810791       -22.0628
  32   2.0000      -0.781109       -21.2551
  33   2.0000      -0.772305       -21.0155
  34   2.0000      -0.714700       -19.4480
  35   2.0000      -0.702068       -19.1042
  36   2.0000      -0.683696       -18.6043
  37   2.0000      -0.669091       -18.2069
  38   2.0000      -0.643052       -17.4983
  39   2.0000      -0.604447       -16.4478
  40   2.0000      -0.587615       -15.9898
  41   2.0000      -0.581248       -15.8166
  42   2.0000      -0.560825       -15.2608
  43   2.0000      -0.551656       -15.0113
  44   2.0000      -0.544959       -14.8291
  45   2.0000      -0.534171       -14.5355
  46   2.0000      -0.518072       -14.0974
  47   2.0000      -0.509967       -13.8769
  48   2.0000      -0.503668       -13.7055
  49   2.0000      -0.496626       -13.5139
  50   2.0000      -0.484961       -13.1965
  51   2.0000      -0.479595       -13.0504
  52   2.0000      -0.472736       -12.8638
  53   2.0000      -0.463867       -12.6225
  54   2.0000      -0.457500       -12.4492
  55   2.0000      -0.446899       -12.1607
  56   2.0000      -0.440405       -11.9840
  57   2.0000      -0.434448       -11.8219
  58   2.0000      -0.432460       -11.7678
  59   2.0000      -0.427857       -11.6426
  60   2.0000      -0.420123       -11.4321
  61   2.0000      -0.414600       -11.2818
  62   2.0000      -0.407827       -11.0975
  63   2.0000      -0.352121        -9.5817
  64   2.0000      -0.329689        -8.9713
  65   2.0000      -0.327849        -8.9212
  66   2.0000      -0.286065        -7.7842
  67   0.0000       0.019674         0.5354
  68   0.0000       0.066407         1.8070
  69   0.0000       0.096653         2.6301
  70   0.0000       0.122216         3.3257
  71   0.0000       0.125439         3.4134

MULLIKEN ATOMIC CHARGES
-----------------------
   0 S :    0.101096
   1 C :   -0.073626
   2 C :   -0.122098
   3 C :    0.016839
   4 C :   -0.124727
   5 H :    0.010558
   6 C :    0.055637
   7 H :    0.057594
   8 H :    0.022931
   9 C :   -0.030648
  10 H :    0.034332
  11 H :    0.029843
  12 C :   -0.078987
  13 H :    0.031874
  14 H :    0.031145
  15 H :    0.034446
  16 S :    0.095693
  17 C :   -0.069984
  18 C :   -0.002296
  19 C :   -0.057341
  20 C :   -0.150178
  21 H :   -0.000986
  22 C :    0.002718
  23 H :    0.049010
  24 H :    0.043455
  25 C :   -0.111145
  26 H :    0.059790
  27 H :    0.020115
  28 C :   -0.001845
  29 H :    0.022603
  30 H :    0.033207
  31 H :    0.015044
  32 H :    0.004400
  33 H :    0.051532
Sum of atomic charges:   -0.0000000

LOEWDIN ATOMIC CHARGES
----------------------
   0 S :    0.389305
   1 C :   -0.180696
   2 C :   -0.065287
   3 C :   -0.057413
   4 C :   -0.187193
   5 H :    0.030088
   6 C :   -0.032007
   7 H :    0.044188
   8 H :    0.031204
   9 C :   -0.035355
  10 H :    0.022682
  11 H :    0.026482
  12 C :   -0.068458
  13 H :    0.022341
  14 H :    0.022567
  15 H :    0.029087
  16 S :    0.382810
  17 C :   -0.178524
  18 C :   -0.056948
  19 C :   -0.056627
  20 C :   -0.179877
  21 H :    0.020760
  22 C :   -0.039638
  23 H :    0.033687
  24 H :    0.039694
  25 C :   -0.047096
  26 H :    0.033709
  27 H :    0.020964
  28 C :   -0.059520
  29 H :    0.018764
  30 H :    0.023488
  31 H :    0.025540
  32 H :    0.005788
  33 H :    0.021492

  Mayer bond orders larger than 0.100000
B(  0-S ,  1-C ) :   1.1141 B(  0-S ,  4-C ) :   1.1465 B(  1-C ,  2-C ) :   1.6290
B(  1-C , 32-H ) :   0.9744 B(  2-C ,  3-C ) :   1.2480 B(  2-C ,  6-C ) :   1.0036
B(  3-C ,  4-C ) :   1.5436 B(  3-C ,  5-H ) :   0.9861 B(  4-C , 20-C ) :   1.0769
B(  6-C ,  7-H ) :   0.9297 B(  6-C ,  8-H ) :   0.9452 B(  6-C ,  9-C ) :   1.0779
B(  9-C , 10-H ) :   0.9549 B(  9-C , 11-H ) :   0.9528 B(  9-C , 12-C ) :   1.0758
B( 12-C , 13-H ) :   0.9703 B( 12-C , 14-H ) :   0.9753 B( 12-C , 15-H ) :   0.9725
B( 16-S , 17-C ) :   1.1515 B( 16-S , 20-C ) :   1.1109 B( 17-C , 18-C ) :   1.6139
B( 17-C , 33-H ) :   0.9674 B( 18-C , 19-C ) :   1.2239 B( 18-C , 21-H ) :   0.9968
B( 19-C , 20-C ) :   1.6241 B( 19-C , 22-C ) :   1.0291 B( 22-C , 23-H ) :   0.9345
B( 22-C , 24-H ) :   0.9467 B( 22-C , 25-C ) :   1.0589 B( 25-C , 26-H ) :   0.9530
B( 25-C , 27-H ) :   0.9537 B( 25-C , 28-C ) :   1.0837 B( 28-C , 29-H ) :   0.9772
B( 28-C , 30-H ) :   0.9718 B( 28-C , 31-H ) :   0.9710

Dispersion correction           -0.015585640
FINAL SINGLE POINT ENERGY     -1339.855409839432

DIPOLE MOMENT
-------------
                                X             Y             Z
Electronic contribution:     10.48818      -0.69967     -24.73140
Nuclear contribution   :    -10.91579       1.08183      25.18117
                        -----------------------------------------
Total Dipole Moment    :     -0.42761       0.38215       0.44976
                        -----------------------------------------
Magnitude (a.u.)       :      0.72882
Magnitude (Debye)      :      1.85251

Rotational constants in cm-1:     0.021401     0.009178     0.007449
Rotational constants in MHz :   641.572154   275.135220   223.313202

                             ****ORCA TERMINATED NORMALLY****
TOTAL RUN TIME: 0 days 0 hours 0 minutes 32 seconds 617 msec
