                         Program Version 4.2.1 -  RELEASE  -
|  1> ! wB97X-D3 SP def2-SVP
|  2> %pal
|  3> nprocs 16
|  4> end
|  5>
|  6> * xyz 0 1
|  7> S 	 -38.9372 	 -0.656095 	 97.2018
|  8> C 	 -40.3739 	 -1.54031 	 97.4722
|  9> C 	 -40.1182 	 -2.52021 	 98.4079
| 10> C 	 -38.7986 	 -2.44034 	 99.0383
| 11> C 	 -38.0315 	 -1.50412 	 98.4251
| 12> H 	 -38.4081 	 -3.07248 	 99.7935
| 13> C 	 -41.0445 	 -3.63322 	 98.7774
| 14> H 	 -42.0064 	 -3.60185 	 98.274
| 15> H 	 -41.3916 	 -3.32963 	 99.749
| 16> C 	 -40.4527 	 -5.05355 	 98.8489
| 17> H 	 -39.7041 	 -5.20669 	 99.6202
| 18> H 	 -41.426 	 -5.60397 	 99.1559
| 19> C 	 -39.9046 	 -5.73295 	 97.5959
| 20> H 	 -38.991 	 -5.16756 	 97.3678
| 21> H 	 -39.4328 	 -6.68287 	 97.8291
| 22> H 	 -40.6605 	 -5.82234 	 96.7792
| 23> S 	 -35.9143 	 -1.66053 	 100.127
| 24> C 	 -34.367 	 -1.01027 	 99.643
| 25> C 	 -34.4598 	 -0.525892 	 98.3747
| 26> C 	 -35.7285 	 -0.671065 	 97.7012
| 27> C 	 -36.6571 	 -1.22616 	 98.6153
| 28> H 	 -33.5209 	 -0.227919 	 97.927
| 29> C 	 -35.9344 	 -0.354054 	 96.183
| 30> H 	 -36.6177 	 0.460666 	 96.2599
| 31> H 	 -36.4048 	 -1.264 	 95.7912
| 32> C 	 -34.6996 	 -0.101416 	 95.3267
| 33> H 	 -34.1439 	 -0.961559 	 95.5384
| 34> H 	 -34.0368 	 0.619202 	 95.7264
| 35> C 	 -34.879 	 0.108947 	 93.8307
| 36> H 	 -34.0017 	 0.471168 	 93.3283
| 37> H 	 -35.7103 	 0.810089 	 93.6776
| 38> H 	 -35.2559 	 -0.854369 	 93.3953
| 39> H 	 -41.2212 	 -1.50153 	 96.8607
| 40> H 	 -33.3665 	 -1.23691 	 100.105
| 41> *
| 42>
| 43>                          ****END OF INPUT****

CARTESIAN COORDINATES (ANGSTROEM)
---------------------------------
  S    -38.937200   -0.656095   97.201800
  C    -40.373900   -1.540310   97.472200
  C    -40.118200   -2.520210   98.407900
  C    -38.798600   -2.440340   99.038300
  C    -38.031500   -1.504120   98.425100
  H    -38.408100   -3.072480   99.793500
  C    -41.044500   -3.633220   98.777400
  H    -42.006400   -3.601850   98.274000
  H    -41.391600   -3.329630   99.749000
  C    -40.452700   -5.053550   98.848900
  H    -39.704100   -5.206690   99.620200
  H    -41.426000   -5.603970   99.155900
  C    -39.904600   -5.732950   97.595900
  H    -38.991000   -5.167560   97.367800
  H    -39.432800   -6.682870   97.829100
  H    -40.660500   -5.822340   96.779200
  S    -35.914300   -1.660530  100.127000
  C    -34.367000   -1.010270   99.643000
  C    -34.459800   -0.525892   98.374700
  C    -35.728500   -0.671065   97.701200
  C    -36.657100   -1.226160   98.615300
  H    -33.520900   -0.227919   97.927000
  C    -35.934400   -0.354054   96.183000
  H    -36.617700    0.460666   96.259900
  H    -36.404800   -1.264000   95.791200
  C    -34.699600   -0.101416   95.326700
  H    -34.143900   -0.961559   95.538400
  H    -34.036800    0.619202   95.726400
  C    -34.879000    0.108947   93.830700
  H    -34.001700    0.471168   93.328300
  H    -35.710300    0.810089   93.677600
  H    -35.255900   -0.854369   93.395300
  H    -41.221200   -1.501530   96.860700
  H    -33.366500   -1.236910  100.105000

 Total Charge           Charge          ....    0
 Multiplicity           Mult            ....    1
 Number of Electrons    NEL             ....  134
 Basis Dimension        Dim             ....  322

ORBITAL ENERGIES
----------------

  NO   OCC          E(Eh)            E(eV)
   0   2.0000     -88.966500     -2420.9015
   1   2.0000     -88.961047     -2420.7531
   2   2.0000     -10.327031      -281.0128
   3   2.0000     -10.324539      -280.9450
   4   2.0000     -10.317427      -280.7514
   5   2.0000     -10.311032      -280.5774
   6   2.0000     -10.304201      -280.3916
   7   2.0000     -10.300208      -280.2829
   8   2.0000     -10.295217      -280.1471
   9   2.0000     -10.293386      -280.0973
  10   2.0000     -10.291862      -280.0558
  11   2.0000     -10.289849      -280.0010
  12   2.0000     -10.287421      -279.9350
  13   2.0000     -10.282648      -279.8051
  14   2.0000     -10.278642      -279.6961
  15   2.0000     -10.277897      -279.6758
  16   2.0000      -8.081259      -219.9022
  17   2.0000      -8.076412      -219.7703
  18   2.0000      -6.039933      -164.3549
  19   2.0000      -6.035714      -164.2401
  20   2.0000      -6.035044      -164.2219
  21   2.0000      -6.031932      -164.1372
  22   2.0000      -6.030719      -164.1042
  23   2.0000      -6.027108      -164.0059
  24   2.0000      -1.012746       -27.5582
  25   2.0000      -0.986159       -26.8348
  26   2.0000      -0.912611       -24.8334
  27   2.0000      -0.910556       -24.7775
  28   2.0000      -0.878432       -23.9033
  29   2.0000      -0.854049       -23.2399
  30   2.0000      -0.842415       -22.9233
  31   2.0000      -0.819641       -22.3036
  32   2.0000      -0.787867       -21.4390
  33   2.0000      -0.773890       -21.0586
  34   2.0000      -0.714836       -19.4517
  35   2.0000      -0.705125       -19.1874
  36   2.0000      -0.688459       -18.7339
  37   2.0000      -0.659188       -17.9374
  38   2.0000      -0.634583       -17.2679
  39   2.0000      -0.621010       -16.8985
  40   2.0000      -0.596371       -16.2281
  41   2.0000      -0.574370       -15.6294
  42   2.0000      -0.568224       -15.4622
  43   2.0000      -0.553721       -15.0675
  44   2.0000      -0.536189       -14.5904
  45   2.0000      -0.532548       -14.4914
  46   2.0000      -0.520984       -14.1767
  47   2.0000      -0.515419       -14.0253
  48   2.0000      -0.508463       -13.8360
  49   2.0000      -0.499830       -13.6011
  50   2.0000      -0.488826       -13.3016
  51   2.0000      -0.481064       -13.0904
  52   2.0000      -0.473466       -12.8837
  53   2.0000      -0.470007       -12.7895
  54   2.0000      -0.462570       -12.5872
  55   2.0000      -0.454466       -12.3667
  56   2.0000      -0.446152       -12.1404
  57   2.0000      -0.442210       -12.0331
  58   2.0000      -0.427177       -11.6241
  59   2.0000      -0.423856       -11.5337
  60   2.0000      -0.417433       -11.3589
  61   2.0000      -0.415196       -11.2980
  62   2.0000      -0.393192       -10.6993
  63   2.0000      -0.365192        -9.9374
  64   2.0000      -0.331542        -9.0217
  65   2.0000      -0.322266        -8.7693
  66   2.0000      -0.282302        -7.6818
  67   0.0000       0.020778         0.5654
  68   0.0000       0.094341         2.5672
  69   0.0000       0.110590         3.0093
  70   0.0000       0.129222         3.5163
  71   0.0000       0.137209         3.7337

MULLIKEN ATOMIC CHARGES
-----------------------
   0 S :    0.080869
   1 C :   -0.079441
   2 C :   -0.103216
   3 C :   -0.006690
   4 C :   -0.105407
   5 H :    0.004033
   6 C :    0.099899
   7 H :    0.004934
   8 H :    0.026160
   9 C :   -0.127239
  10 H :    0.033168
  11 H :    0.035641
  12 C :   -0.027152
  13 H :    0.030699
  14 H :    0.027506
  15 H :    0.046117
  16 S :    0.095579
  17 C :   -0.097011
  18 C :   -0.055029
  19 C :   -0.094897
  20 C :   -0.129618
  21 H :    0.013826
  22 C :    0.079307
  23 H :    0.044672
  24 H :    0.043620
  25 C :   -0.058191
  26 H :    0.006915
  27 H :    0.016217
  28 C :   -0.018381
  29 H :    0.041226
  30 H :    0.030995
  31 H :    0.033452
  32 H :    0.028386
  33 H :    0.079053
Sum of atomic charges:   -0.0000000

LOEWDIN ATOMIC CHARGES
----------------------
   0 S :    0.432726
   1 C :   -0.210886
   2 C :   -0.053995
   3 C :   -0.070097
   4 C :   -0.183517
   5 H :    0.022231
   6 C :   -0.042097
   7 H :    0.028804
   8 H :    0.037800
   9 C :   -0.047098
  10 H :    0.022120
  11 H :    0.033298
  12 C :   -0.071295
  13 H :    0.029648
  14 H :    0.027811
  15 H :    0.030029
  16 S :    0.410498
  17 C :   -0.203601
  18 C :   -0.077247
  19 C :   -0.052610
  20 C :   -0.200848
  21 H :    0.028461
  22 C :   -0.030988
  23 H :    0.020284
  24 H :    0.035605
  25 C :   -0.046935
  26 H :    0.019330
  27 H :    0.017188
  28 C :   -0.058149
  29 H :    0.027657
  30 H :    0.028065
  31 H :    0.031247
  32 H :    0.019655
  33 H :    0.046908

  Mayer bond orders larger than 0.100000
B(  0-S ,  1-C ) :   1.1201 B(  0-S ,  4-C ) :   1.1474 B(  1-C ,  2-C ) :   1.6206
B(  1-C , 32-H ) :   0.9772 B(  2-C ,  3-C ) :   1.2109 B(  2-C ,  6-C ) :   1.0291
B(  3-C ,  4-C ) :   1.5615 B(  3-C ,  5-H ) :   0.9975 B(  4-C , 20-C ) :   1.1085
B(  6-C ,  7-H ) :   0.9401 B(  6-C ,  8-H ) :   0.9231 B(  6-C ,  9-C ) :   1.0674
B(  9-C , 10-H ) :   0.9546 B(  9-C , 11-H ) :   0.9537 B(  9-C , 12-C ) :   1.0849
B( 12-C , 13-H ) :   0.9678 B( 12-C , 14-H ) :   0.9690 B( 12-C , 15-H ) :   0.9744
B( 16-S , 17-C ) :   1.1334 B( 16-S , 20-C ) :   1.1501 B( 17-C , 18-C ) :   1.6279
B( 17-C , 33-H ) :   0.9542 B( 18-C , 19-C ) :   1.2571 B( 18-C , 21-H ) :   0.9806
B( 19-C , 20-C ) :   1.5454 B( 19-C , 22-C ) :   0.9982 B( 22-C , 23-H ) :   0.9226
B( 22-C , 24-H ) :   0.9389 B( 22-C , 25-C ) :   1.0797 B( 25-C , 26-H ) :   0.9470
B( 25-C , 27-H ) :   0.9449 B( 25-C , 28-C ) :   1.0839 B( 28-C , 29-H ) :   0.9726
B( 28-C , 30-H ) :   0.9756 B( 28-C , 31-H ) :   0.9735

Dispersion correction           -0.013846730
FINAL SINGLE POINT ENERGY     -1339.864417963977

DIPOLE MOMENT
-------------
                                X             Y             Z
Electronic contribution:      1.23670      10.10697      14.18163
Nuclear contribution   :     -1.09324     -10.49774     -14.50867
                        -----------------------------------------
Total Dipole Moment    :      0.14346      -0.39076      -0.32704
                        -----------------------------------------
Magnitude (a.u.)       :      0.52937
Magnitude (Debye)      :      1.34554

Rotational constants in cm-1:     0.018920     0.008394     0.006901
Rotational constants in MHz :   567.219603   251.656352   206.887178

                             ****ORCA TERMINATED NORMALLY****
TOTAL RUN TIME: 0 days 0 hours 0 minutes 27 seconds 882 msec
