                         Program Version 4.2.1 -  RELEASE  -
|  1> ! wB97X-D3 SP def2-SVP
|  2> %pal
|  3> nprocs 16
|  4> end
|  5>
|  6> * xyz 0 1
|  7> S 	 -72.2009 	 43.6636 	 135.331
|  8> C 	 -72.8754 	 44.3935 	 133.843
|  9> C 	 -72.3703 	 43.7028 	 132.719
| 10> C 	 -71.4362 	 42.6712 	 133.011
| 11> C 	 -71.2444 	 42.5416 	 134.385
| 12> H 	 -70.8581 	 42.1481 	 132.281
| 13> C 	 -72.7893 	 44.0662 	 131.338
| 14> H 	 -71.926 	 44.4129 	 130.89
| 15> H 	 -73.5747 	 44.8606 	 131.412
| 16> C 	 -73.2949 	 42.9005 	 130.548
| 17> H 	 -72.7082 	 42.0511 	 130.432
| 18> H 	 -74.0768 	 42.5777 	 131.151
| 19> C 	 -73.9792 	 43.283 	 129.286
| 20> H 	 -74.6277 	 42.4597 	 128.875
| 21> H 	 -74.5638 	 44.1577 	 129.387
| 22> H 	 -73.1333 	 43.4511 	 128.538
| 23> S 	 -70.7838 	 40.6847 	 136.3
| 24> C 	 -69.1824 	 40.2159 	 136.673
| 25> C 	 -68.3466 	 40.6762 	 135.72
| 26> C 	 -68.8589 	 41.5168 	 134.712
| 27> C 	 -70.2427 	 41.6984 	 134.985
| 28> H 	 -67.3109 	 40.4671 	 135.815
| 29> C 	 -67.8816 	 42.1615 	 133.7
| 30> H 	 -68.3552 	 42.3488 	 132.764
| 31> H 	 -67.1733 	 41.3331 	 133.417
| 32> C 	 -67.0629 	 43.3864 	 134.15
| 33> H 	 -66.5771 	 43.0743 	 135.157
| 34> H 	 -67.7722 	 44.206 	 134.361
| 35> C 	 -66.0427 	 43.8324 	 133.136
| 36> H 	 -66.4195 	 43.9664 	 132.191
| 37> H 	 -65.4336 	 42.9429 	 132.926
| 38> H 	 -65.3329 	 44.6711 	 133.459
| 39> H 	 -73.3677 	 45.3616 	 133.693
| 40> H 	 -68.8408 	 39.6117 	 137.482
| 41> *
| 42>
| 43>                          ****END OF INPUT****

CARTESIAN COORDINATES (ANGSTROEM)
---------------------------------
  S    -72.200900   43.663600  135.331000
  C    -72.875400   44.393500  133.843000
  C    -72.370300   43.702800  132.719000
  C    -71.436200   42.671200  133.011000
  C    -71.244400   42.541600  134.385000
  H    -70.858100   42.148100  132.281000
  C    -72.789300   44.066200  131.338000
  H    -71.926000   44.412900  130.890000
  H    -73.574700   44.860600  131.412000
  C    -73.294900   42.900500  130.548000
  H    -72.708200   42.051100  130.432000
  H    -74.076800   42.577700  131.151000
  C    -73.979200   43.283000  129.286000
  H    -74.627700   42.459700  128.875000
  H    -74.563800   44.157700  129.387000
  H    -73.133300   43.451100  128.538000
  S    -70.783800   40.684700  136.300000
  C    -69.182400   40.215900  136.673000
  C    -68.346600   40.676200  135.720000
  C    -68.858900   41.516800  134.712000
  C    -70.242700   41.698400  134.985000
  H    -67.310900   40.467100  135.815000
  C    -67.881600   42.161500  133.700000
  H    -68.355200   42.348800  132.764000
  H    -67.173300   41.333100  133.417000
  C    -67.062900   43.386400  134.150000
  H    -66.577100   43.074300  135.157000
  H    -67.772200   44.206000  134.361000
  C    -66.042700   43.832400  133.136000
  H    -66.419500   43.966400  132.191000
  H    -65.433600   42.942900  132.926000
  H    -65.332900   44.671100  133.459000
  H    -73.367700   45.361600  133.693000
  H    -68.840800   39.611700  137.482000

 Total Charge           Charge          ....    0
 Multiplicity           Mult            ....    1
 Number of Electrons    NEL             ....  134
 Basis Dimension        Dim             ....  322

ORBITAL ENERGIES
----------------

  NO   OCC          E(Eh)            E(eV)
   0   2.0000     -88.969922     -2420.9947
   1   2.0000     -88.964973     -2420.8600
   2   2.0000     -10.330357      -281.1033
   3   2.0000     -10.328945      -281.0649
   4   2.0000     -10.316483      -280.7258
   5   2.0000     -10.307744      -280.4880
   6   2.0000     -10.306357      -280.4502
   7   2.0000     -10.299861      -280.2735
   8   2.0000     -10.299351      -280.2596
   9   2.0000     -10.294728      -280.1338
  10   2.0000     -10.293199      -280.0922
  11   2.0000     -10.284662      -279.8599
  12   2.0000     -10.281894      -279.7846
  13   2.0000     -10.278956      -279.7046
  14   2.0000     -10.278572      -279.6942
  15   2.0000     -10.267234      -279.3856
  16   2.0000      -8.083537      -219.9642
  17   2.0000      -8.080552      -219.8830
  18   2.0000      -6.042153      -164.4153
  19   2.0000      -6.038911      -164.3271
  20   2.0000      -6.038136      -164.3060
  21   2.0000      -6.034878      -164.2174
  22   2.0000      -6.034298      -164.2016
  23   2.0000      -6.031488      -164.1251
  24   2.0000      -1.009081       -27.4585
  25   2.0000      -0.983704       -26.7680
  26   2.0000      -0.926828       -25.2203
  27   2.0000      -0.910234       -24.7687
  28   2.0000      -0.872570       -23.7438
  29   2.0000      -0.855970       -23.2921
  30   2.0000      -0.849463       -23.1151
  31   2.0000      -0.815224       -22.1834
  32   2.0000      -0.784698       -21.3527
  33   2.0000      -0.770493       -20.9662
  34   2.0000      -0.713474       -19.4146
  35   2.0000      -0.699155       -19.0250
  36   2.0000      -0.693928       -18.8827
  37   2.0000      -0.659703       -17.9514
  38   2.0000      -0.636728       -17.3263
  39   2.0000      -0.624318       -16.9886
  40   2.0000      -0.601391       -16.3647
  41   2.0000      -0.583742       -15.8844
  42   2.0000      -0.566059       -15.4032
  43   2.0000      -0.559623       -15.2281
  44   2.0000      -0.530151       -14.4262
  45   2.0000      -0.526021       -14.3138
  46   2.0000      -0.514503       -14.0004
  47   2.0000      -0.513078       -13.9616
  48   2.0000      -0.507837       -13.8189
  49   2.0000      -0.504804       -13.7364
  50   2.0000      -0.496660       -13.5148
  51   2.0000      -0.478469       -13.0198
  52   2.0000      -0.475855       -12.9487
  53   2.0000      -0.464508       -12.6399
  54   2.0000      -0.454264       -12.3611
  55   2.0000      -0.451378       -12.2826
  56   2.0000      -0.448253       -12.1976
  57   2.0000      -0.444262       -12.0890
  58   2.0000      -0.435013       -11.8373
  59   2.0000      -0.427567       -11.6347
  60   2.0000      -0.422171       -11.4879
  61   2.0000      -0.412219       -11.2171
  62   2.0000      -0.404184       -10.9984
  63   2.0000      -0.344501        -9.3744
  64   2.0000      -0.334031        -9.0894
  65   2.0000      -0.330772        -9.0008
  66   2.0000      -0.287080        -7.8118
  67   0.0000       0.025904         0.7049
  68   0.0000       0.069863         1.9011
  69   0.0000       0.114460         3.1146
  70   0.0000       0.117779         3.2049
  71   0.0000       0.133910         3.6439

MULLIKEN ATOMIC CHARGES
-----------------------
   0 S :    0.118967
   1 C :   -0.131950
   2 C :   -0.129520
   3 C :    0.035853
   4 C :   -0.124471
   5 H :    0.010469
   6 C :    0.127543
   7 H :    0.009190
   8 H :    0.016892
   9 C :   -0.054176
  10 H :    0.017638
  11 H :    0.005562
  12 C :   -0.051080
  13 H :    0.042855
  14 H :    0.021646
  15 H :    0.028617
  16 S :    0.115217
  17 C :   -0.065492
  18 C :   -0.046619
  19 C :    0.014403
  20 C :   -0.207057
  21 H :   -0.001265
  22 C :    0.048838
  23 H :    0.002834
  24 H :    0.025292
  25 C :   -0.080410
  26 H :    0.039270
  27 H :    0.043405
  28 C :   -0.010712
  29 H :    0.005695
  30 H :    0.009123
  31 H :    0.059703
  32 H :    0.060201
  33 H :    0.043542
Sum of atomic charges:    0.0000000

LOEWDIN ATOMIC CHARGES
----------------------
   0 S :    0.398821
   1 C :   -0.211349
   2 C :   -0.051034
   3 C :   -0.060303
   4 C :   -0.190828
   5 H :    0.028903
   6 C :   -0.021863
   7 H :    0.019175
   8 H :    0.034993
   9 C :   -0.045056
  10 H :    0.017625
  11 H :    0.021012
  12 C :   -0.059893
  13 H :    0.032792
  14 H :    0.016736
  15 H :    0.028232
  16 S :    0.426266
  17 C :   -0.199498
  18 C :   -0.071189
  19 C :   -0.054845
  20 C :   -0.196523
  21 H :    0.022756
  22 C :   -0.032381
  23 H :    0.019123
  24 H :    0.036014
  25 C :   -0.044276
  26 H :    0.032800
  27 H :    0.027872
  28 C :   -0.070066
  29 H :    0.012951
  30 H :    0.026866
  31 H :    0.041530
  32 H :    0.035777
  33 H :    0.028860

  Mayer bond orders larger than 0.100000
B(  0-S ,  1-C ) :   1.1131 B(  0-S ,  4-C ) :   1.1623 B(  1-C ,  2-C ) :   1.6101
B(  1-C , 32-H ) :   0.9612 B(  2-C ,  3-C ) :   1.2399 B(  2-C ,  6-C ) :   1.0365
B(  3-C ,  4-C ) :   1.5471 B(  3-C ,  5-H ) :   0.9988 B(  4-C , 20-C ) :   1.0516
B(  6-C ,  7-H ) :   0.9185 B(  6-C ,  8-H ) :   0.9383 B(  6-C ,  9-C ) :   1.0644
B(  9-C , 10-H ) :   0.9520 B(  9-C , 11-H ) :   0.9461 B(  9-C , 12-C ) :   1.1004
B( 12-C , 13-H ) :   0.9737 B( 12-C , 14-H ) :   0.9713 B( 12-C , 15-H ) :   0.9741
B( 16-S , 17-C ) :   1.1383 B( 16-S , 20-C ) :   1.1791 B( 17-C , 18-C ) :   1.6109
B( 17-C , 33-H ) :   0.9710 B( 18-C , 19-C ) :   1.2608 B( 18-C , 21-H ) :   0.9877
B( 19-C , 20-C ) :   1.5424 B( 19-C , 22-C ) :   1.0392 B( 22-C , 23-H ) :   0.9314
B( 22-C , 24-H ) :   0.9324 B( 22-C , 25-C ) :   1.0609 B( 25-C , 26-H ) :   0.9545
B( 25-C , 27-H ) :   0.9531 B( 25-C , 28-C ) :   1.0782 B( 28-C , 29-H ) :   0.9694
B( 28-C , 30-H ) :   0.9659 B( 28-C , 31-H ) :   0.9718

Dispersion correction           -0.013475785
FINAL SINGLE POINT ENERGY     -1339.856145436642

DIPOLE MOMENT
-------------
                                X             Y             Z
Electronic contribution:     -8.81641      -7.57815      25.24731
Nuclear contribution   :      9.25759       7.69377     -25.80821
                        -----------------------------------------
Total Dipole Moment    :      0.44118       0.11562      -0.56089
                        -----------------------------------------
Magnitude (a.u.)       :      0.72292
Magnitude (Debye)      :      1.83750

Rotational constants in cm-1:     0.017068     0.008238     0.006646
Rotational constants in MHz :   511.692577   246.957557   199.243487

                             ****ORCA TERMINATED NORMALLY****
TOTAL RUN TIME: 0 days 0 hours 0 minutes 32 seconds 110 msec
