                         Program Version 4.2.1 -  RELEASE  -
|  1> ! wB97X-D3 SP def2-SVP
|  2> %pal
|  3> nprocs 16
|  4> end
|  5>
|  6> * xyz 0 1
|  7> S 	 43.4994 	 11.861 	 85.9182
|  8> C 	 44.3489 	 11.2869 	 84.5365
|  9> C 	 44.3652 	 12.1967 	 83.4763
| 10> C 	 43.4282 	 13.2914 	 83.7525
| 11> C 	 42.8414 	 13.1855 	 84.999
| 12> H 	 43.2596 	 14.2198 	 83.2364
| 13> C 	 45.1288 	 12.1499 	 82.2064
| 14> H 	 45.7721 	 11.2159 	 82.0997
| 15> H 	 45.8577 	 12.9606 	 82.0832
| 16> C 	 44.1984 	 12.1931 	 81.0147
| 17> H 	 43.3697 	 11.4963 	 81.0617
| 18> H 	 43.8034 	 13.2036 	 80.8719
| 19> C 	 44.9548 	 11.9003 	 79.7216
| 20> H 	 45.9084 	 12.3987 	 79.769
| 21> H 	 45.1253 	 10.8286 	 79.5732
| 22> H 	 44.3285 	 12.2204 	 78.9065
| 23> S 	 42.7458 	 15.2056 	 86.9037
| 24> C 	 41.3384 	 16.2599 	 87.0976
| 25> C 	 40.3924 	 15.9504 	 86.1198
| 26> C 	 40.7776 	 14.825 	 85.3148
| 27> C 	 42.0082 	 14.2152 	 85.6648
| 28> H 	 39.5408 	 16.6265 	 85.97
| 29> C 	 39.8571 	 14.4044 	 84.1615
| 30> H 	 40.4803 	 14.3223 	 83.2944
| 31> H 	 39.1722 	 15.2661 	 84.0579
| 32> C 	 39.2342 	 13.0189 	 84.3524
| 33> H 	 39.2115 	 12.8367 	 85.4084
| 34> H 	 39.8789 	 12.2726 	 83.9225
| 35> C 	 37.8756 	 12.9625 	 83.6503
| 36> H 	 37.6019 	 11.9524 	 83.6302
| 37> H 	 37.9714 	 13.2422 	 82.5934
| 38> H 	 37.1117 	 13.6085 	 84.0324
| 39> H 	 44.9633 	 10.4878 	 84.5409
| 40> H 	 41.1496 	 17.0445 	 87.8368
| 41> *
| 42>
| 43>                          ****END OF INPUT****

CARTESIAN COORDINATES (ANGSTROEM)
---------------------------------
  S     43.499400   11.861000   85.918200
  C     44.348900   11.286900   84.536500
  C     44.365200   12.196700   83.476300
  C     43.428200   13.291400   83.752500
  C     42.841400   13.185500   84.999000
  H     43.259600   14.219800   83.236400
  C     45.128800   12.149900   82.206400
  H     45.772100   11.215900   82.099700
  H     45.857700   12.960600   82.083200
  C     44.198400   12.193100   81.014700
  H     43.369700   11.496300   81.061700
  H     43.803400   13.203600   80.871900
  C     44.954800   11.900300   79.721600
  H     45.908400   12.398700   79.769000
  H     45.125300   10.828600   79.573200
  H     44.328500   12.220400   78.906500
  S     42.745800   15.205600   86.903700
  C     41.338400   16.259900   87.097600
  C     40.392400   15.950400   86.119800
  C     40.777600   14.825000   85.314800
  C     42.008200   14.215200   85.664800
  H     39.540800   16.626500   85.970000
  C     39.857100   14.404400   84.161500
  H     40.480300   14.322300   83.294400
  H     39.172200   15.266100   84.057900
  C     39.234200   13.018900   84.352400
  H     39.211500   12.836700   85.408400
  H     39.878900   12.272600   83.922500
  C     37.875600   12.962500   83.650300
  H     37.601900   11.952400   83.630200
  H     37.971400   13.242200   82.593400
  H     37.111700   13.608500   84.032400
  H     44.963300   10.487800   84.540900
  H     41.149600   17.044500   87.836800

 Total Charge           Charge          ....    0
 Multiplicity           Mult            ....    1
 Number of Electrons    NEL             ....  134
 Basis Dimension        Dim             ....  322

ORBITAL ENERGIES
----------------

  NO   OCC          E(Eh)            E(eV)
   0   2.0000     -88.967623     -2420.9321
   1   2.0000     -88.964762     -2420.8543
   2   2.0000     -10.330872      -281.1173
   3   2.0000     -10.328186      -281.0442
   4   2.0000     -10.320685      -280.8401
   5   2.0000     -10.308346      -280.5044
   6   2.0000     -10.307593      -280.4839
   7   2.0000     -10.304096      -280.3887
   8   2.0000     -10.297603      -280.2120
   9   2.0000     -10.297436      -280.2075
  10   2.0000     -10.295576      -280.1569
  11   2.0000     -10.283874      -279.8384
  12   2.0000     -10.282827      -279.8099
  13   2.0000     -10.275689      -279.6157
  14   2.0000     -10.274333      -279.5788
  15   2.0000     -10.268054      -279.4079
  16   2.0000      -8.083009      -219.9499
  17   2.0000      -8.078855      -219.8368
  18   2.0000      -6.041404      -164.3950
  19   2.0000      -6.037525      -164.2894
  20   2.0000      -6.037483      -164.2883
  21   2.0000      -6.033751      -164.1867
  22   2.0000      -6.033247      -164.1730
  23   2.0000      -6.029720      -164.0770
  24   2.0000      -1.004536       -27.3348
  25   2.0000      -0.980855       -26.6904
  26   2.0000      -0.920516       -25.0485
  27   2.0000      -0.905906       -24.6509
  28   2.0000      -0.869414       -23.6580
  29   2.0000      -0.851584       -23.1728
  30   2.0000      -0.844165       -22.9709
  31   2.0000      -0.815597       -22.1935
  32   2.0000      -0.780155       -21.2291
  33   2.0000      -0.767865       -20.8947
  34   2.0000      -0.708788       -19.2871
  35   2.0000      -0.697089       -18.9688
  36   2.0000      -0.688528       -18.7358
  37   2.0000      -0.657604       -17.8943
  38   2.0000      -0.652039       -17.7429
  39   2.0000      -0.619176       -16.8486
  40   2.0000      -0.590157       -16.0590
  41   2.0000      -0.578875       -15.7520
  42   2.0000      -0.565268       -15.3817
  43   2.0000      -0.561166       -15.2701
  44   2.0000      -0.532304       -14.4847
  45   2.0000      -0.522904       -14.2289
  46   2.0000      -0.515078       -14.0160
  47   2.0000      -0.512576       -13.9479
  48   2.0000      -0.507123       -13.7995
  49   2.0000      -0.498129       -13.5548
  50   2.0000      -0.490065       -13.3354
  51   2.0000      -0.483297       -13.1512
  52   2.0000      -0.471026       -12.8173
  53   2.0000      -0.465022       -12.6539
  54   2.0000      -0.456364       -12.4183
  55   2.0000      -0.449916       -12.2428
  56   2.0000      -0.444876       -12.1057
  57   2.0000      -0.442634       -12.0447
  58   2.0000      -0.430467       -11.7136
  59   2.0000      -0.428120       -11.6497
  60   2.0000      -0.418525       -11.3886
  61   2.0000      -0.414431       -11.2772
  62   2.0000      -0.408692       -11.1211
  63   2.0000      -0.342469        -9.3190
  64   2.0000      -0.326174        -8.8756
  65   2.0000      -0.323665        -8.8074
  66   2.0000      -0.298372        -8.1191
  67   0.0000       0.033990         0.9249
  68   0.0000       0.061294         1.6679
  69   0.0000       0.107137         2.9154
  70   0.0000       0.119466         3.2508
  71   0.0000       0.134907         3.6710

MULLIKEN ATOMIC CHARGES
-----------------------
   0 S :    0.120067
   1 C :   -0.051693
   2 C :   -0.076719
   3 C :    0.038547
   4 C :   -0.178167
   5 H :    0.022493
   6 C :    0.048419
   7 H :    0.025137
   8 H :    0.038908
   9 C :   -0.107953
  10 H :    0.034153
  11 H :    0.031197
  12 C :   -0.030735
  13 H :    0.023849
  14 H :    0.031680
  15 H :    0.030221
  16 S :    0.105174
  17 C :   -0.101446
  18 C :   -0.052402
  19 C :   -0.088595
  20 C :   -0.140355
  21 H :    0.032655
  22 C :    0.093104
  23 H :    0.014840
  24 H :    0.019040
  25 C :   -0.054104
  26 H :    0.032529
  27 H :    0.031350
  28 C :   -0.025541
  29 H :    0.019110
  30 H :    0.019548
  31 H :    0.032674
  32 H :   -0.000679
  33 H :    0.063693
Sum of atomic charges:    0.0000000

LOEWDIN ATOMIC CHARGES
----------------------
   0 S :    0.425350
   1 C :   -0.187362
   2 C :   -0.052515
   3 C :   -0.054116
   4 C :   -0.201856
   5 H :    0.032648
   6 C :   -0.041310
   7 H :    0.034775
   8 H :    0.035843
   9 C :   -0.040660
  10 H :    0.024237
  11 H :    0.023166
  12 C :   -0.060494
  13 H :    0.021066
  14 H :    0.024130
  15 H :    0.024987
  16 S :    0.405701
  17 C :   -0.186975
  18 C :   -0.082211
  19 C :   -0.055309
  20 C :   -0.216244
  21 H :    0.036078
  22 C :   -0.030271
  23 H :    0.026811
  24 H :    0.028906
  25 C :   -0.031741
  26 H :    0.021299
  27 H :    0.026984
  28 C :   -0.057854
  29 H :    0.018814
  30 H :    0.026451
  31 H :    0.021776
  32 H :    0.003609
  33 H :    0.036287

  Mayer bond orders larger than 0.100000
B(  0-S ,  1-C ) :   1.1455 B(  0-S ,  4-C ) :   1.1544 B(  1-C ,  2-C ) :   1.6204
B(  1-C , 32-H ) :   0.9778 B(  2-C ,  3-C ) :   1.1999 B(  2-C ,  6-C ) :   1.0451
B(  3-C ,  4-C ) :   1.6067 B(  3-C ,  5-H ) :   0.9883 B(  4-C , 20-C ) :   1.0085
B(  6-C ,  7-H ) :   0.9471 B(  6-C ,  8-H ) :   0.9260 B(  6-C ,  9-C ) :   1.0634
B(  9-C , 10-H ) :   0.9598 B(  9-C , 11-H ) :   0.9505 B(  9-C , 12-C ) :   1.0912
B( 12-C , 13-H ) :   0.9707 B( 12-C , 14-H ) :   0.9752 B( 12-C , 15-H ) :   0.9740
B( 16-S , 17-C ) :   1.1674 B( 16-S , 20-C ) :   1.1454 B( 17-C , 18-C ) :   1.5882
B( 17-C , 20-C ) :   0.1072 B( 17-C , 33-H ) :   0.9636 B( 18-C , 19-C ) :   1.2754
B( 18-C , 21-H ) :   0.9831 B( 19-C , 20-C ) :   1.5657 B( 19-C , 22-C ) :   1.0442
B( 22-C , 23-H ) :   0.9216 B( 22-C , 24-H ) :   0.9458 B( 22-C , 25-C ) :   1.0526
B( 25-C , 26-H ) :   0.9661 B( 25-C , 27-H ) :   0.9489 B( 25-C , 28-C ) :   1.0891
B( 28-C , 29-H ) :   0.9736 B( 28-C , 30-H ) :   0.9703 B( 28-C , 31-H ) :   0.9787

Dispersion correction           -0.013939906
FINAL SINGLE POINT ENERGY     -1339.871949875822

DIPOLE MOMENT
-------------
                                X             Y             Z
Electronic contribution:      8.38181       5.26386      26.56604
Nuclear contribution   :     -8.42178      -5.12506     -27.21913
                        -----------------------------------------
Total Dipole Moment    :     -0.03997       0.13880      -0.65309
                        -----------------------------------------
Magnitude (a.u.)       :      0.66887
Magnitude (Debye)      :      1.70013

Rotational constants in cm-1:     0.017200     0.008493     0.006900
Rotational constants in MHz :   515.643554   254.613924   206.855680

                             ****ORCA TERMINATED NORMALLY****
TOTAL RUN TIME: 0 days 0 hours 0 minutes 30 seconds 83 msec
