                         Program Version 4.2.1 -  RELEASE  -
|  1> ! wB97X-D3 SP def2-SVP
|  2> %pal
|  3> nprocs 16
|  4> end
|  5>
|  6> * xyz 0 1
|  7> S 	 -37.3678 	 30.3733 	 43.6104
|  8> C 	 -38.3797 	 28.9715 	 43.4993
|  9> C 	 -37.7075 	 27.7889 	 43.7072
| 10> C 	 -36.2696 	 28.0185 	 43.706
| 11> C 	 -35.9537 	 29.3515 	 43.9065
| 12> H 	 -35.5401 	 27.1697 	 43.773
| 13> C 	 -38.3441 	 26.4453 	 43.8421
| 14> H 	 -39.3723 	 26.6558 	 43.5036
| 15> H 	 -38.416 	 26.3043 	 44.9665
| 16> C 	 -37.6695 	 25.2194 	 43.1408
| 17> H 	 -37.2992 	 25.4652 	 42.1922
| 18> H 	 -36.7106 	 24.9632 	 43.6165
| 19> C 	 -38.5256 	 23.9592 	 43.0217
| 20> H 	 -38.5443 	 23.3583 	 43.9411
| 21> H 	 -39.5609 	 24.1299 	 42.7264
| 22> H 	 -38.0048 	 23.2887 	 42.3394
| 23> S 	 -34.8284 	 31.299 	 45.4228
| 24> C 	 -33.0352 	 31.3805 	 45.5112
| 25> C 	 -32.4325 	 30.6469 	 44.5264
| 26> C 	 -33.3925 	 29.797 	 43.8751
| 27> C 	 -34.7044 	 29.9982 	 44.2545
| 28> H 	 -31.3657 	 30.5073 	 44.4937
| 29> C 	 -32.9411 	 28.6252 	 42.9541
| 30> H 	 -32.5404 	 29.1264 	 42.0903
| 31> H 	 -33.8671 	 28.1572 	 42.6402
| 32> C 	 -32.0392 	 27.6272 	 43.623
| 33> H 	 -31.1302 	 28.1919 	 43.9514
| 34> H 	 -31.6059 	 26.9841 	 42.8349
| 35> C 	 -32.7664 	 26.8701 	 44.7606
| 36> H 	 -33.8118 	 26.5197 	 44.5856
| 37> H 	 -32.8543 	 27.395 	 45.768
| 38> H 	 -32.1184 	 26.0479 	 44.9572
| 39> H 	 -39.4877 	 29.0664 	 43.3798
| 40> H 	 -32.4164 	 31.9256 	 46.2311
| 41> *
| 42>
| 43>                          ****END OF INPUT****

CARTESIAN COORDINATES (ANGSTROEM)
---------------------------------
  S    -37.367800   30.373300   43.610400
  C    -38.379700   28.971500   43.499300
  C    -37.707500   27.788900   43.707200
  C    -36.269600   28.018500   43.706000
  C    -35.953700   29.351500   43.906500
  H    -35.540100   27.169700   43.773000
  C    -38.344100   26.445300   43.842100
  H    -39.372300   26.655800   43.503600
  H    -38.416000   26.304300   44.966500
  C    -37.669500   25.219400   43.140800
  H    -37.299200   25.465200   42.192200
  H    -36.710600   24.963200   43.616500
  C    -38.525600   23.959200   43.021700
  H    -38.544300   23.358300   43.941100
  H    -39.560900   24.129900   42.726400
  H    -38.004800   23.288700   42.339400
  S    -34.828400   31.299000   45.422800
  C    -33.035200   31.380500   45.511200
  C    -32.432500   30.646900   44.526400
  C    -33.392500   29.797000   43.875100
  C    -34.704400   29.998200   44.254500
  H    -31.365700   30.507300   44.493700
  C    -32.941100   28.625200   42.954100
  H    -32.540400   29.126400   42.090300
  H    -33.867100   28.157200   42.640200
  C    -32.039200   27.627200   43.623000
  H    -31.130200   28.191900   43.951400
  H    -31.605900   26.984100   42.834900
  C    -32.766400   26.870100   44.760600
  H    -33.811800   26.519700   44.585600
  H    -32.854300   27.395000   45.768000
  H    -32.118400   26.047900   44.957200
  H    -39.487700   29.066400   43.379800
  H    -32.416400   31.925600   46.231100

 Total Charge           Charge          ....    0
 Multiplicity           Mult            ....    1
 Number of Electrons    NEL             ....  134
 Basis Dimension        Dim             ....  322

ORBITAL ENERGIES
----------------

  NO   OCC          E(Eh)            E(eV)
   0   2.0000     -88.964525     -2420.8478
   1   2.0000     -88.963666     -2420.8244
   2   2.0000     -10.332426      -281.1596
   3   2.0000     -10.323736      -280.9231
   4   2.0000     -10.321331      -280.8577
   5   2.0000     -10.311581      -280.5924
   6   2.0000     -10.301105      -280.3073
   7   2.0000     -10.301064      -280.3062
   8   2.0000     -10.300433      -280.2890
   9   2.0000     -10.299343      -280.2594
  10   2.0000     -10.294869      -280.1376
  11   2.0000     -10.293935      -280.1122
  12   2.0000     -10.290646      -280.0227
  13   2.0000     -10.286021      -279.8969
  14   2.0000     -10.284818      -279.8641
  15   2.0000     -10.281847      -279.7833
  16   2.0000      -8.078639      -219.8309
  17   2.0000      -8.078601      -219.8299
  18   2.0000      -6.037304      -164.2834
  19   2.0000      -6.037240      -164.2816
  20   2.0000      -6.033305      -164.1746
  21   2.0000      -6.033220      -164.1723
  22   2.0000      -6.029161      -164.0618
  23   2.0000      -6.029090      -164.0599
  24   2.0000      -1.005139       -27.3512
  25   2.0000      -0.980820       -26.6895
  26   2.0000      -0.910668       -24.7805
  27   2.0000      -0.907621       -24.6976
  28   2.0000      -0.872364       -23.7382
  29   2.0000      -0.848923       -23.1004
  30   2.0000      -0.840894       -22.8819
  31   2.0000      -0.817215       -22.2376
  32   2.0000      -0.781512       -21.2660
  33   2.0000      -0.770285       -20.9605
  34   2.0000      -0.717947       -19.5363
  35   2.0000      -0.700015       -19.0484
  36   2.0000      -0.691312       -18.8116
  37   2.0000      -0.658766       -17.9259
  38   2.0000      -0.634625       -17.2690
  39   2.0000      -0.620138       -16.8748
  40   2.0000      -0.587555       -15.9882
  41   2.0000      -0.565785       -15.3958
  42   2.0000      -0.559868       -15.2348
  43   2.0000      -0.557634       -15.1740
  44   2.0000      -0.540175       -14.6989
  45   2.0000      -0.525993       -14.3130
  46   2.0000      -0.514165       -13.9911
  47   2.0000      -0.510812       -13.8999
  48   2.0000      -0.501927       -13.6581
  49   2.0000      -0.496529       -13.5113
  50   2.0000      -0.490034       -13.3345
  51   2.0000      -0.482005       -13.1160
  52   2.0000      -0.472400       -12.8547
  53   2.0000      -0.462659       -12.5896
  54   2.0000      -0.454934       -12.3794
  55   2.0000      -0.451165       -12.2768
  56   2.0000      -0.448437       -12.2026
  57   2.0000      -0.437646       -11.9090
  58   2.0000      -0.434153       -11.8139
  59   2.0000      -0.428300       -11.6546
  60   2.0000      -0.419509       -11.4154
  61   2.0000      -0.418472       -11.3872
  62   2.0000      -0.404147       -10.9974
  63   2.0000      -0.353904        -9.6302
  64   2.0000      -0.330915        -9.0047
  65   2.0000      -0.325188        -8.8488
  66   2.0000      -0.284131        -7.7316
  67   0.0000       0.031051         0.8449
  68   0.0000       0.067168         1.8277
  69   0.0000       0.107828         2.9341
  70   0.0000       0.117444         3.1958
  71   0.0000       0.128244         3.4897

MULLIKEN ATOMIC CHARGES
-----------------------
   0 S :    0.104572
   1 C :   -0.140629
   2 C :   -0.113785
   3 C :    0.008849
   4 C :   -0.132280
   5 H :    0.012331
   6 C :    0.062783
   7 H :    0.017666
   8 H :    0.057626
   9 C :   -0.066045
  10 H :    0.016414
  11 H :    0.024138
  12 C :   -0.037379
  13 H :    0.029764
  14 H :    0.039586
  15 H :    0.028925
  16 S :    0.095194
  17 C :   -0.095193
  18 C :   -0.018625
  19 C :   -0.083137
  20 C :   -0.133946
  21 H :    0.023672
  22 C :    0.079691
  23 H :    0.026434
  24 H :    0.011420
  25 C :   -0.056774
  26 H :    0.025671
  27 H :    0.035989
  28 C :   -0.063354
  29 H :    0.035072
  30 H :    0.055258
  31 H :    0.028461
  32 H :    0.062219
  33 H :    0.059412
Sum of atomic charges:   -0.0000000

LOEWDIN ATOMIC CHARGES
----------------------
   0 S :    0.397220
   1 C :   -0.216242
   2 C :   -0.064224
   3 C :   -0.074545
   4 C :   -0.176816
   5 H :    0.030049
   6 C :   -0.036964
   7 H :    0.032122
   8 H :    0.045928
   9 C :   -0.042124
  10 H :    0.017976
  11 H :    0.027412
  12 C :   -0.063883
  13 H :    0.026567
  14 H :    0.026106
  15 H :    0.029530
  16 S :    0.379433
  17 C :   -0.165014
  18 C :   -0.069659
  19 C :   -0.053048
  20 C :   -0.202784
  21 H :    0.031281
  22 C :   -0.031754
  23 H :    0.029430
  24 H :    0.025103
  25 C :   -0.043620
  26 H :    0.027221
  27 H :    0.029153
  28 C :   -0.071997
  29 H :    0.026416
  30 H :    0.040651
  31 H :    0.023605
  32 H :    0.034188
  33 H :    0.033282

  Mayer bond orders larger than 0.100000
B(  0-S ,  1-C ) :   1.1184 B(  0-S ,  4-C ) :   1.1487 B(  1-C ,  2-C ) :   1.6451
B(  1-C , 32-H ) :   0.9557 B(  2-C ,  3-C ) :   1.2209 B(  2-C ,  6-C ) :   1.0291
B(  3-C ,  4-C ) :   1.5884 B(  3-C ,  5-H ) :   0.9741 B(  4-C , 20-C ) :   1.0493
B(  6-C ,  7-H ) :   0.9398 B(  6-C ,  8-H ) :   0.9271 B(  6-C ,  9-C ) :   1.0538
B(  9-C , 10-H ) :   0.9637 B(  9-C , 11-H ) :   0.9416 B(  9-C , 12-C ) :   1.0927
B( 12-C , 13-H ) :   0.9750 B( 12-C , 14-H ) :   0.9767 B( 12-C , 15-H ) :   0.9721
B( 16-S , 17-C ) :   1.1337 B( 16-S , 20-C ) :   1.1114 B( 17-C , 18-C ) :   1.6534
B( 17-C , 33-H ) :   0.9630 B( 18-C , 19-C ) :   1.2121 B( 18-C , 21-H ) :   0.9824
B( 19-C , 20-C ) :   1.6309 B( 19-C , 22-C ) :   1.0256 B( 22-C , 23-H ) :   0.9289
B( 22-C , 24-H ) :   0.9391 B( 22-C , 25-C ) :   1.0822 B( 25-C , 26-H ) :   0.9486
B( 25-C , 27-H ) :   0.9563 B( 25-C , 28-C ) :   1.0517 B( 28-C , 29-H ) :   0.9762
B( 28-C , 30-H ) :   0.9707 B( 28-C , 31-H ) :   0.9712

Dispersion correction           -0.014879841
FINAL SINGLE POINT ENERGY     -1339.872123646174

DIPOLE MOMENT
-------------
                                X             Y             Z
Electronic contribution:     -3.75486      30.10195       4.39489
Nuclear contribution   :      4.11010     -30.87949      -4.39646
                        -----------------------------------------
Total Dipole Moment    :      0.35524      -0.77754      -0.00157
                        -----------------------------------------
Magnitude (a.u.)       :      0.85485
Magnitude (Debye)      :      2.17286

Rotational constants in cm-1:     0.019454     0.009042     0.006646
Rotational constants in MHz :   583.230390   271.060403   199.240490

                             ****ORCA TERMINATED NORMALLY****
TOTAL RUN TIME: 0 days 0 hours 0 minutes 34 seconds 961 msec
