                         Program Version 4.2.1 -  RELEASE  -
|  1> ! wB97X-D3 SP def2-SVP
|  2> %pal
|  3> nprocs 16
|  4> end
|  5>
|  6> * xyz 0 1
|  7> S 	 -68.9539 	 50.2587 	 121.042
|  8> C 	 -68.5445 	 50.3474 	 122.741
|  9> C 	 -69.125 	 51.53 	 123.303
| 10> C 	 -69.9783 	 52.225 	 122.394
| 11> C 	 -69.9777 	 51.6852 	 121.133
| 12> H 	 -70.6202 	 53.0123 	 122.608
| 13> C 	 -69.2178 	 51.86 	 124.78
| 14> H 	 -69.5338 	 50.9107 	 125.249
| 15> H 	 -70.023 	 52.5473 	 124.976
| 16> C 	 -67.9768 	 52.407 	 125.56
| 17> H 	 -67.0927 	 51.7694 	 125.477
| 18> H 	 -67.6223 	 53.3308 	 125.274
| 19> C 	 -68.3427 	 52.5506 	 127.016
| 20> H 	 -68.7038 	 51.6448 	 127.302
| 21> H 	 -67.5229 	 52.8901 	 127.693
| 22> H 	 -69.2308 	 53.2608 	 127.12
| 23> S 	 -70.8973 	 53.5895 	 119.445
| 24> C 	 -72.1162 	 53.2573 	 118.267
| 25> C 	 -72.662 	 51.9722 	 118.42
| 26> C 	 -71.876 	 51.2131 	 119.382
| 27> C 	 -71.0001 	 52.01 	 120.089
| 28> H 	 -73.5399 	 51.6268 	 117.911
| 29> C 	 -72.198 	 49.8032 	 119.711
| 30> H 	 -73.1742 	 49.633 	 119.288
| 31> H 	 -72.2959 	 49.5897 	 120.734
| 32> C 	 -71.209 	 48.8519 	 118.94
| 33> H 	 -70.1406 	 48.8593 	 119.186
| 34> H 	 -71.3386 	 49.0663 	 117.874
| 35> C 	 -71.7366 	 47.426 	 119.008
| 36> H 	 -71.146 	 46.7348 	 118.447
| 37> H 	 -72.7354 	 47.2371 	 118.619
| 38> H 	 -71.6613 	 47.0692 	 120.003
| 39> H 	 -67.9598 	 49.6864 	 123.26
| 40> H 	 -72.5962 	 53.9396 	 117.577
| 41> *
| 42>
| 43>                          ****END OF INPUT****

CARTESIAN COORDINATES (ANGSTROEM)
---------------------------------
  S    -68.953900   50.258700  121.042000
  C    -68.544500   50.347400  122.741000
  C    -69.125000   51.530000  123.303000
  C    -69.978300   52.225000  122.394000
  C    -69.977700   51.685200  121.133000
  H    -70.620200   53.012300  122.608000
  C    -69.217800   51.860000  124.780000
  H    -69.533800   50.910700  125.249000
  H    -70.023000   52.547300  124.976000
  C    -67.976800   52.407000  125.560000
  H    -67.092700   51.769400  125.477000
  H    -67.622300   53.330800  125.274000
  C    -68.342700   52.550600  127.016000
  H    -68.703800   51.644800  127.302000
  H    -67.522900   52.890100  127.693000
  H    -69.230800   53.260800  127.120000
  S    -70.897300   53.589500  119.445000
  C    -72.116200   53.257300  118.267000
  C    -72.662000   51.972200  118.420000
  C    -71.876000   51.213100  119.382000
  C    -71.000100   52.010000  120.089000
  H    -73.539900   51.626800  117.911000
  C    -72.198000   49.803200  119.711000
  H    -73.174200   49.633000  119.288000
  H    -72.295900   49.589700  120.734000
  C    -71.209000   48.851900  118.940000
  H    -70.140600   48.859300  119.186000
  H    -71.338600   49.066300  117.874000
  C    -71.736600   47.426000  119.008000
  H    -71.146000   46.734800  118.447000
  H    -72.735400   47.237100  118.619000
  H    -71.661300   47.069200  120.003000
  H    -67.959800   49.686400  123.260000
  H    -72.596200   53.939600  117.577000

 Total Charge           Charge          ....    0
 Multiplicity           Mult            ....    1
 Number of Electrons    NEL             ....  134
 Basis Dimension        Dim             ....  322

ORBITAL ENERGIES
----------------

  NO   OCC          E(Eh)            E(eV)
   0   2.0000     -88.971122     -2421.0273
   1   2.0000     -88.966047     -2420.8892
   2   2.0000     -10.329873      -281.0901
   3   2.0000     -10.321324      -280.8575
   4   2.0000     -10.315820      -280.7077
   5   2.0000     -10.315448      -280.6976
   6   2.0000     -10.306909      -280.4652
   7   2.0000     -10.299091      -280.2525
   8   2.0000     -10.296345      -280.1778
   9   2.0000     -10.294827      -280.1365
  10   2.0000     -10.289333      -279.9870
  11   2.0000     -10.283127      -279.8181
  12   2.0000     -10.282656      -279.8053
  13   2.0000     -10.279097      -279.7084
  14   2.0000     -10.274608      -279.5863
  15   2.0000     -10.264099      -279.3003
  16   2.0000      -8.084798      -219.9985
  17   2.0000      -8.081631      -219.9124
  18   2.0000      -6.043298      -164.4465
  19   2.0000      -6.040073      -164.3588
  20   2.0000      -6.039283      -164.3372
  21   2.0000      -6.035934      -164.2461
  22   2.0000      -6.035794      -164.2423
  23   2.0000      -6.032499      -164.1527
  24   2.0000      -1.007563       -27.4172
  25   2.0000      -0.983874       -26.7726
  26   2.0000      -0.911647       -24.8072
  27   2.0000      -0.909195       -24.7405
  28   2.0000      -0.866846       -23.5881
  29   2.0000      -0.856055       -23.2944
  30   2.0000      -0.850904       -23.1543
  31   2.0000      -0.815336       -22.1864
  32   2.0000      -0.778478       -21.1835
  33   2.0000      -0.766060       -20.8455
  34   2.0000      -0.707943       -19.2641
  35   2.0000      -0.700358       -19.0577
  36   2.0000      -0.692548       -18.8452
  37   2.0000      -0.669825       -18.2269
  38   2.0000      -0.649118       -17.6634
  39   2.0000      -0.618006       -16.8168
  40   2.0000      -0.595899       -16.2152
  41   2.0000      -0.572889       -15.5891
  42   2.0000      -0.567603       -15.4453
  43   2.0000      -0.562507       -15.3066
  44   2.0000      -0.529520       -14.4090
  45   2.0000      -0.520895       -14.1743
  46   2.0000      -0.517501       -14.0819
  47   2.0000      -0.511820       -13.9273
  48   2.0000      -0.508980       -13.8500
  49   2.0000      -0.502376       -13.6703
  50   2.0000      -0.492247       -13.3947
  51   2.0000      -0.479817       -13.0565
  52   2.0000      -0.468484       -12.7481
  53   2.0000      -0.462952       -12.5976
  54   2.0000      -0.457992       -12.4626
  55   2.0000      -0.454903       -12.3785
  56   2.0000      -0.443034       -12.0556
  57   2.0000      -0.439751       -11.9662
  58   2.0000      -0.432151       -11.7594
  59   2.0000      -0.422321       -11.4919
  60   2.0000      -0.418090       -11.3768
  61   2.0000      -0.416651       -11.3376
  62   2.0000      -0.413702       -11.2574
  63   2.0000      -0.346913        -9.4400
  64   2.0000      -0.331720        -9.0266
  65   2.0000      -0.323004        -8.7894
  66   2.0000      -0.293754        -7.9934
  67   0.0000       0.031339         0.8528
  68   0.0000       0.070177         1.9096
  69   0.0000       0.108079         2.9410
  70   0.0000       0.122659         3.3377
  71   0.0000       0.129346         3.5197

MULLIKEN ATOMIC CHARGES
-----------------------
   0 S :    0.110755
   1 C :   -0.083341
   2 C :   -0.043034
   3 C :    0.032064
   4 C :   -0.110598
   5 H :   -0.006340
   6 C :    0.004945
   7 H :    0.036377
   8 H :    0.016166
   9 C :   -0.016103
  10 H :    0.021143
  11 H :    0.008630
  12 C :   -0.045466
  13 H :   -0.002457
  14 H :    0.046452
  15 H :    0.027189
  16 S :    0.123314
  17 C :   -0.085804
  18 C :   -0.033960
  19 C :   -0.069683
  20 C :   -0.160213
  21 H :    0.018915
  22 C :    0.100740
  23 H :   -0.000429
  24 H :    0.026323
  25 C :   -0.093332
  26 H :    0.052057
  27 H :    0.025801
  28 C :   -0.024434
  29 H :    0.014069
  30 H :    0.023972
  31 H :    0.013724
  32 H :    0.018344
  33 H :    0.054216
Sum of atomic charges:   -0.0000000

LOEWDIN ATOMIC CHARGES
----------------------
   0 S :    0.433399
   1 C :   -0.187662
   2 C :   -0.055078
   3 C :   -0.054604
   4 C :   -0.192683
   5 H :    0.022288
   6 C :   -0.031272
   7 H :    0.037104
   8 H :    0.027273
   9 C :   -0.034021
  10 H :    0.022832
  11 H :    0.012138
  12 C :   -0.060811
  13 H :    0.005387
  14 H :    0.032038
  15 H :    0.029552
  16 S :    0.439653
  17 C :   -0.198707
  18 C :   -0.064820
  19 C :   -0.057449
  20 C :   -0.214895
  21 H :    0.028912
  22 C :   -0.024676
  23 H :    0.030149
  24 H :    0.023636
  25 C :   -0.039323
  26 H :    0.013190
  27 H :    0.026147
  28 C :   -0.066442
  29 H :    0.020332
  30 H :    0.022674
  31 H :    0.016716
  32 H :    0.009571
  33 H :    0.029454

  Mayer bond orders larger than 0.100000
B(  0-S ,  1-C ) :   1.1500 B(  0-S ,  4-C ) :   1.1547 B(  1-C ,  2-C ) :   1.5679
B(  1-C , 32-H ) :   0.9859 B(  2-C ,  3-C ) :   1.2602 B(  2-C ,  6-C ) :   1.0191
B(  3-C ,  4-C ) :   1.5650 B(  3-C ,  5-H ) :   1.0018 B(  4-C , 20-C ) :   0.9800
B(  6-C ,  7-H ) :   0.9462 B(  6-C ,  8-H ) :   0.9520 B(  6-C ,  9-C ) :   1.0517
B(  9-C , 10-H ) :   0.9548 B(  9-C , 11-H ) :   0.9554 B(  9-C , 12-C ) :   1.0808
B( 12-C , 13-H ) :   0.9743 B( 12-C , 14-H ) :   0.9721 B( 12-C , 15-H ) :   0.9724
B( 16-S , 17-C ) :   1.1706 B( 16-S , 20-C ) :   1.1523 B( 17-C , 18-C ) :   1.5969
B( 17-C , 33-H ) :   0.9647 B( 18-C , 19-C ) :   1.2480 B( 18-C , 21-H ) :   0.9879
B( 19-C , 20-C ) :   1.6042 B( 19-C , 22-C ) :   1.0540 B( 22-C , 23-H ) :   0.9289
B( 22-C , 24-H ) :   0.9442 B( 22-C , 25-C ) :   1.0471 B( 25-C , 26-H ) :   0.9508
B( 25-C , 27-H ) :   0.9560 B( 25-C , 28-C ) :   1.0907 B( 28-C , 29-H ) :   0.9705
B( 28-C , 30-H ) :   0.9747 B( 28-C , 31-H ) :   0.9707

Dispersion correction           -0.013918257
FINAL SINGLE POINT ENERGY     -1339.859205373774

DIPOLE MOMENT
-------------
                                X             Y             Z
Electronic contribution:      1.21319      10.85515     -15.47049
Nuclear contribution   :     -1.55200     -11.08826      15.78916
                        -----------------------------------------
Total Dipole Moment    :     -0.33882      -0.23311       0.31867
                        -----------------------------------------
Magnitude (a.u.)       :      0.52028
Magnitude (Debye)      :      1.32244

Rotational constants in cm-1:     0.021263     0.007646     0.006141
Rotational constants in MHz :   637.447298   229.224188   184.104934

                             ****ORCA TERMINATED NORMALLY****
TOTAL RUN TIME: 0 days 0 hours 0 minutes 32 seconds 117 msec
