                         Program Version 4.2.1 -  RELEASE  -
|  1> ! wB97X-D3 SP def2-SVP
|  2> %pal
|  3> nprocs 16
|  4> end
|  5>
|  6> * xyz 0 1
|  7> S 	 7.37631 	 25.025 	 60.9962
|  8> C 	 7.44593 	 25.169 	 59.2568
|  9> C 	 6.346 	 24.596 	 58.6068
| 10> C 	 5.53114 	 23.8896 	 59.5799
| 11> C 	 5.90208 	 24.0609 	 60.9261
| 12> H 	 4.72762 	 23.1477 	 59.3501
| 13> C 	 6.24666 	 24.481 	 57.0589
| 14> H 	 5.9094 	 25.4039 	 56.5604
| 15> H 	 5.47228 	 23.7533 	 56.8475
| 16> C 	 7.4942 	 23.8184 	 56.3921
| 17> H 	 7.46996 	 23.9879 	 55.2991
| 18> H 	 8.34925 	 24.3123 	 56.8266
| 19> C 	 7.62287 	 22.3308 	 56.6746
| 20> H 	 8.3291 	 21.9194 	 55.9424
| 21> H 	 8.0907 	 21.9711 	 57.5663
| 22> H 	 6.64451 	 21.7854 	 56.5314
| 23> S 	 6.51706 	 22.5976 	 63.033
| 24> C 	 5.26246 	 21.986 	 64.0658
| 25> C 	 3.99885 	 22.2411 	 63.6078
| 26> C 	 4.03616 	 22.9372 	 62.3988
| 27> C 	 5.31292 	 23.3709 	 62.0542
| 28> H 	 3.07633 	 21.7599 	 64.0475
| 29> C 	 2.73216 	 23.3672 	 61.7979
| 30> H 	 2.8857 	 24.1078 	 60.9772
| 31> H 	 2.19717 	 24.0407 	 62.5132
| 32> C 	 1.7471 	 22.3473 	 61.2325
| 33> H 	 0.925547 	 22.7971 	 60.7555
| 34> H 	 1.37386 	 21.7441 	 62.0685
| 35> C 	 2.39959 	 21.45 	 60.1712
| 36> H 	 1.58368 	 20.7567 	 59.8096
| 37> H 	 3.15627 	 20.8556 	 60.6928
| 38> H 	 2.79253 	 22.0712 	 59.3867
| 39> H 	 8.17888 	 25.6189 	 58.6204
| 40> H 	 5.41478 	 21.423 	 64.9256
| 41> *
| 42>
| 43>                          ****END OF INPUT****

CARTESIAN COORDINATES (ANGSTROEM)
---------------------------------
  S      7.376310   25.025000   60.996200
  C      7.445930   25.169000   59.256800
  C      6.346000   24.596000   58.606800
  C      5.531140   23.889600   59.579900
  C      5.902080   24.060900   60.926100
  H      4.727620   23.147700   59.350100
  C      6.246660   24.481000   57.058900
  H      5.909400   25.403900   56.560400
  H      5.472280   23.753300   56.847500
  C      7.494200   23.818400   56.392100
  H      7.469960   23.987900   55.299100
  H      8.349250   24.312300   56.826600
  C      7.622870   22.330800   56.674600
  H      8.329100   21.919400   55.942400
  H      8.090700   21.971100   57.566300
  H      6.644510   21.785400   56.531400
  S      6.517060   22.597600   63.033000
  C      5.262460   21.986000   64.065800
  C      3.998850   22.241100   63.607800
  C      4.036160   22.937200   62.398800
  C      5.312920   23.370900   62.054200
  H      3.076330   21.759900   64.047500
  C      2.732160   23.367200   61.797900
  H      2.885700   24.107800   60.977200
  H      2.197170   24.040700   62.513200
  C      1.747100   22.347300   61.232500
  H      0.925547   22.797100   60.755500
  H      1.373860   21.744100   62.068500
  C      2.399590   21.450000   60.171200
  H      1.583680   20.756700   59.809600
  H      3.156270   20.855600   60.692800
  H      2.792530   22.071200   59.386700
  H      8.178880   25.618900   58.620400
  H      5.414780   21.423000   64.925600

 Total Charge           Charge          ....    0
 Multiplicity           Mult            ....    1
 Number of Electrons    NEL             ....  134
 Basis Dimension        Dim             ....  322

ORBITAL ENERGIES
----------------

  NO   OCC          E(Eh)            E(eV)
   0   2.0000     -88.972042     -2421.0523
   1   2.0000     -88.966754     -2420.9085
   2   2.0000     -10.331087      -281.1232
   3   2.0000     -10.326336      -280.9939
   4   2.0000     -10.314222      -280.6643
   5   2.0000     -10.309885      -280.5462
   6   2.0000     -10.306978      -280.4671
   7   2.0000     -10.301242      -280.3111
   8   2.0000     -10.300265      -280.2845
   9   2.0000     -10.297301      -280.2038
  10   2.0000     -10.293096      -280.0894
  11   2.0000     -10.291306      -280.0407
  12   2.0000     -10.289856      -280.0012
  13   2.0000     -10.281980      -279.7869
  14   2.0000     -10.279372      -279.7159
  15   2.0000     -10.277780      -279.6726
  16   2.0000      -8.085946      -220.0298
  17   2.0000      -8.082234      -219.9288
  18   2.0000      -6.044555      -164.4807
  19   2.0000      -6.040563      -164.3721
  20   2.0000      -6.040516      -164.3708
  21   2.0000      -6.036725      -164.2676
  22   2.0000      -6.036693      -164.2668
  23   2.0000      -6.033026      -164.1670
  24   2.0000      -1.011672       -27.5290
  25   2.0000      -0.982913       -26.7464
  26   2.0000      -0.913087       -24.8464
  27   2.0000      -0.908381       -24.7183
  28   2.0000      -0.871529       -23.7155
  29   2.0000      -0.853794       -23.2329
  30   2.0000      -0.842674       -22.9303
  31   2.0000      -0.811157       -22.0727
  32   2.0000      -0.781561       -21.2674
  33   2.0000      -0.773173       -21.0391
  34   2.0000      -0.709034       -19.2938
  35   2.0000      -0.701707       -19.0944
  36   2.0000      -0.691190       -18.8082
  37   2.0000      -0.663806       -18.0631
  38   2.0000      -0.633268       -17.2321
  39   2.0000      -0.610939       -16.6245
  40   2.0000      -0.597438       -16.2571
  41   2.0000      -0.577346       -15.7104
  42   2.0000      -0.554949       -15.1009
  43   2.0000      -0.551229       -14.9997
  44   2.0000      -0.548415       -14.9231
  45   2.0000      -0.539688       -14.6856
  46   2.0000      -0.513469       -13.9722
  47   2.0000      -0.503054       -13.6888
  48   2.0000      -0.500021       -13.6063
  49   2.0000      -0.497375       -13.5343
  50   2.0000      -0.493396       -13.4260
  51   2.0000      -0.473055       -12.8725
  52   2.0000      -0.467608       -12.7243
  53   2.0000      -0.465900       -12.6778
  54   2.0000      -0.461471       -12.5573
  55   2.0000      -0.451131       -12.2759
  56   2.0000      -0.443798       -12.0764
  57   2.0000      -0.436613       -11.8808
  58   2.0000      -0.430542       -11.7157
  59   2.0000      -0.423822       -11.5328
  60   2.0000      -0.422230       -11.4895
  61   2.0000      -0.415494       -11.3062
  62   2.0000      -0.410853       -11.1799
  63   2.0000      -0.351868        -9.5748
  64   2.0000      -0.333477        -9.0744
  65   2.0000      -0.330871        -9.0035
  66   2.0000      -0.285991        -7.7822
  67   0.0000       0.023716         0.6453
  68   0.0000       0.073950         2.0123
  69   0.0000       0.105693         2.8760
  70   0.0000       0.118517         3.2250
  71   0.0000       0.130252         3.5443

MULLIKEN ATOMIC CHARGES
-----------------------
   0 S :    0.125817
   1 C :   -0.113612
   2 C :   -0.093828
   3 C :    0.014429
   4 C :   -0.147348
   5 H :    0.011996
   6 C :    0.057544
   7 H :    0.047649
   8 H :    0.009043
   9 C :   -0.064505
  10 H :    0.039163
  11 H :    0.019707
  12 C :   -0.065036
  13 H :    0.026386
  14 H :    0.039128
  15 H :    0.034037
  16 S :    0.109345
  17 C :   -0.056219
  18 C :   -0.051158
  19 C :   -0.020642
  20 C :   -0.140015
  21 H :    0.045046
  22 C :   -0.008405
  23 H :    0.018328
  24 H :    0.041292
  25 C :   -0.048196
  26 H :    0.020509
  27 H :    0.021951
  28 C :   -0.076217
  29 H :    0.042664
  30 H :    0.047328
  31 H :    0.044413
  32 H :    0.043103
  33 H :    0.026307
Sum of atomic charges:    0.0000000

LOEWDIN ATOMIC CHARGES
----------------------
   0 S :    0.407533
   1 C :   -0.199515
   2 C :   -0.061590
   3 C :   -0.065765
   4 C :   -0.203635
   5 H :    0.033730
   6 C :   -0.033811
   7 H :    0.034594
   8 H :    0.024551
   9 C :   -0.037680
  10 H :    0.029654
  11 H :    0.019016
  12 C :   -0.072802
  13 H :    0.030203
  14 H :    0.025395
  15 H :    0.029022
  16 S :    0.425012
  17 C :   -0.175822
  18 C :   -0.073809
  19 C :   -0.064186
  20 C :   -0.195807
  21 H :    0.045582
  22 C :   -0.045165
  23 H :    0.029989
  24 H :    0.037914
  25 C :   -0.036751
  26 H :    0.019084
  27 H :    0.018881
  28 C :   -0.063748
  29 H :    0.033687
  30 H :    0.027941
  31 H :    0.018779
  32 H :    0.025548
  33 H :    0.013973

  Mayer bond orders larger than 0.100000
B(  0-S ,  1-C ) :   1.1420 B(  0-S ,  4-C ) :   1.1382 B(  1-C ,  2-C ) :   1.6072
B(  1-C , 32-H ) :   0.9647 B(  2-C ,  3-C ) :   1.2557 B(  2-C ,  6-C ) :   1.0117
B(  3-C ,  4-C ) :   1.5673 B(  3-C ,  5-H ) :   0.9768 B(  4-C , 20-C ) :   1.0562
B(  6-C ,  7-H ) :   0.9417 B(  6-C ,  8-H ) :   0.9493 B(  6-C ,  9-C ) :   1.0669
B(  9-C , 10-H ) :   0.9567 B(  9-C , 11-H ) :   0.9564 B(  9-C , 12-C ) :   1.0761
B( 12-C , 13-H ) :   0.9716 B( 12-C , 14-H ) :   0.9757 B( 12-C , 15-H ) :   0.9738
B( 16-S , 17-C ) :   1.1621 B( 16-S , 20-C ) :   1.1526 B( 17-C , 18-C ) :   1.6034
B( 17-C , 20-C ) :   0.1003 B( 17-C , 33-H ) :   0.9727 B( 18-C , 19-C ) :   1.2519
B( 18-C , 21-H ) :   0.9805 B( 19-C , 20-C ) :   1.5726 B( 19-C , 22-C ) :   1.0412
B( 22-C , 23-H ) :   0.9388 B( 22-C , 24-H ) :   0.9421 B( 22-C , 25-C ) :   1.0767
B( 25-C , 26-H ) :   0.9540 B( 25-C , 27-H ) :   0.9545 B( 25-C , 28-C ) :   1.0769
B( 28-C , 29-H ) :   0.9715 B( 28-C , 30-H ) :   0.9751 B( 28-C , 31-H ) :   0.9674

Dispersion correction           -0.014846839
FINAL SINGLE POINT ENERGY     -1339.871655704218

DIPOLE MOMENT
-------------
                                X             Y             Z
Electronic contribution:     12.79474       8.69643      21.27900
Nuclear contribution   :    -13.15776      -9.02282     -21.70193
                        -----------------------------------------
Total Dipole Moment    :     -0.36302      -0.32639      -0.42292
                        -----------------------------------------
Magnitude (a.u.)       :      0.64589
Magnitude (Debye)      :      1.64172

Rotational constants in cm-1:     0.019244     0.009041     0.007194
Rotational constants in MHz :   576.914442   271.028565   215.678442

                             ****ORCA TERMINATED NORMALLY****
TOTAL RUN TIME: 0 days 0 hours 0 minutes 35 seconds 512 msec
