                         Program Version 4.2.1 -  RELEASE  -
|  1> ! wB97X-D3 SP def2-SVP
|  2> %pal
|  3> nprocs 16
|  4> end
|  5>
|  6> * xyz 0 1
|  7> S 	 51.5283 	 4.10183 	 92.5154
|  8> C 	 51.8482 	 5.7684 	 92.6322
|  9> C 	 51.0433 	 6.41916 	 93.5897
| 10> C 	 50.1657 	 5.45324 	 94.2173
| 11> C 	 50.4165 	 4.17276 	 93.8328
| 12> H 	 49.4273 	 5.5479 	 95.0423
| 13> C 	 51.1444 	 7.92319 	 94.0974
| 14> H 	 50.7386 	 8.04623 	 95.1023
| 15> H 	 50.5248 	 8.33851 	 93.3373
| 16> C 	 52.4979 	 8.50049 	 94.1232
| 17> H 	 53.0422 	 8.24034 	 95.0884
| 18> H 	 53.1115 	 8.1056 	 93.3073
| 19> C 	 52.3911 	 10.0112 	 94.0473
| 20> H 	 51.8507 	 10.5232 	 94.8246
| 21> H 	 53.3678 	 10.5188 	 94.1572
| 22> H 	 52.2191 	 10.3494 	 93.0905
| 23> S 	 49.0257 	 1.94119 	 93.0638
| 24> C 	 48.3941 	 0.866622 	 94.2624
| 25> C 	 48.7246 	 1.27001 	 95.5467
| 26> C 	 49.4836 	 2.46663 	 95.5823
| 27> C 	 49.8393 	 2.9269 	 94.2934
| 28> H 	 48.334 	 0.79735 	 96.5337
| 29> C 	 49.8298 	 3.09206 	 96.9056
| 30> H 	 48.8159 	 3.55854 	 97.1591
| 31> H 	 50.5656 	 3.95154 	 96.8218
| 32> C 	 50.2961 	 2.21992 	 98.0828
| 33> H 	 49.7074 	 1.29236 	 98.1707
| 34> H 	 50.2549 	 2.7362 	 99.0493
| 35> C 	 51.7134 	 1.72537 	 97.8087
| 36> H 	 51.7738 	 1.03 	 96.9816
| 37> H 	 52.1283 	 1.22137 	 98.643
| 38> H 	 52.4401 	 2.44436 	 97.4879
| 39> H 	 52.6683 	 6.25787 	 92.0704
| 40> H 	 47.7218 	 0.0191983 	 94.0184
| 41> *
| 42>
| 43>                          ****END OF INPUT****

CARTESIAN COORDINATES (ANGSTROEM)
---------------------------------
  S     51.528300    4.101830   92.515400
  C     51.848200    5.768400   92.632200
  C     51.043300    6.419160   93.589700
  C     50.165700    5.453240   94.217300
  C     50.416500    4.172760   93.832800
  H     49.427300    5.547900   95.042300
  C     51.144400    7.923190   94.097400
  H     50.738600    8.046230   95.102300
  H     50.524800    8.338510   93.337300
  C     52.497900    8.500490   94.123200
  H     53.042200    8.240340   95.088400
  H     53.111500    8.105600   93.307300
  C     52.391100   10.011200   94.047300
  H     51.850700   10.523200   94.824600
  H     53.367800   10.518800   94.157200
  H     52.219100   10.349400   93.090500
  S     49.025700    1.941190   93.063800
  C     48.394100    0.866622   94.262400
  C     48.724600    1.270010   95.546700
  C     49.483600    2.466630   95.582300
  C     49.839300    2.926900   94.293400
  H     48.334000    0.797350   96.533700
  C     49.829800    3.092060   96.905600
  H     48.815900    3.558540   97.159100
  H     50.565600    3.951540   96.821800
  C     50.296100    2.219920   98.082800
  H     49.707400    1.292360   98.170700
  H     50.254900    2.736200   99.049300
  C     51.713400    1.725370   97.808700
  H     51.773800    1.030000   96.981600
  H     52.128300    1.221370   98.643000
  H     52.440100    2.444360   97.487900
  H     52.668300    6.257870   92.070400
  H     47.721800    0.019198   94.018400

 Total Charge           Charge          ....    0
 Multiplicity           Mult            ....    1
 Number of Electrons    NEL             ....  134
 Basis Dimension        Dim             ....  322

ORBITAL ENERGIES
----------------

  NO   OCC          E(Eh)            E(eV)
   0   2.0000     -88.965608     -2420.8773
   1   2.0000     -88.962396     -2420.7899
   2   2.0000     -10.326230      -280.9910
   3   2.0000     -10.321058      -280.8503
   4   2.0000     -10.320744      -280.8417
   5   2.0000     -10.313617      -280.6478
   6   2.0000     -10.308745      -280.5152
   7   2.0000     -10.306841      -280.4634
   8   2.0000     -10.302057      -280.3332
   9   2.0000     -10.300062      -280.2789
  10   2.0000     -10.293940      -280.1124
  11   2.0000     -10.291992      -280.0593
  12   2.0000     -10.291503      -280.0460
  13   2.0000     -10.288969      -279.9771
  14   2.0000     -10.270987      -279.4878
  15   2.0000     -10.265344      -279.3342
  16   2.0000      -8.080382      -219.8784
  17   2.0000      -8.078670      -219.8318
  18   2.0000      -6.038810      -164.3244
  19   2.0000      -6.036999      -164.2751
  20   2.0000      -6.034864      -164.2170
  21   2.0000      -6.032942      -164.1647
  22   2.0000      -6.031233      -164.1182
  23   2.0000      -6.029555      -164.0725
  24   2.0000      -1.009407       -27.4674
  25   2.0000      -0.984732       -26.7959
  26   2.0000      -0.918986       -25.0069
  27   2.0000      -0.910475       -24.7753
  28   2.0000      -0.868229       -23.6257
  29   2.0000      -0.853734       -23.2313
  30   2.0000      -0.846533       -23.0353
  31   2.0000      -0.810527       -22.0556
  32   2.0000      -0.784483       -21.3469
  33   2.0000      -0.770961       -20.9789
  34   2.0000      -0.706368       -19.2213
  35   2.0000      -0.705277       -19.1916
  36   2.0000      -0.688706       -18.7406
  37   2.0000      -0.656223       -17.8567
  38   2.0000      -0.639733       -17.4080
  39   2.0000      -0.608547       -16.5594
  40   2.0000      -0.597101       -16.2480
  41   2.0000      -0.585842       -15.9416
  42   2.0000      -0.555601       -15.1187
  43   2.0000      -0.553862       -15.0714
  44   2.0000      -0.534378       -14.5412
  45   2.0000      -0.521116       -14.1803
  46   2.0000      -0.515007       -14.0141
  47   2.0000      -0.513063       -13.9611
  48   2.0000      -0.507349       -13.8057
  49   2.0000      -0.497868       -13.5477
  50   2.0000      -0.495002       -13.4697
  51   2.0000      -0.478152       -13.0112
  52   2.0000      -0.472482       -12.8569
  53   2.0000      -0.464971       -12.6525
  54   2.0000      -0.460629       -12.5344
  55   2.0000      -0.447729       -12.1833
  56   2.0000      -0.445014       -12.1095
  57   2.0000      -0.431977       -11.7547
  58   2.0000      -0.427831       -11.6419
  59   2.0000      -0.425431       -11.5766
  60   2.0000      -0.421966       -11.4823
  61   2.0000      -0.416228       -11.3261
  62   2.0000      -0.412901       -11.2356
  63   2.0000      -0.348570        -9.4851
  64   2.0000      -0.328662        -8.9433
  65   2.0000      -0.326948        -8.8967
  66   2.0000      -0.287039        -7.8107
  67   0.0000       0.034887         0.9493
  68   0.0000       0.069385         1.8881
  69   0.0000       0.113147         3.0789
  70   0.0000       0.119039         3.2392
  71   0.0000       0.138630         3.7723

MULLIKEN ATOMIC CHARGES
-----------------------
   0 S :    0.118580
   1 C :   -0.141055
   2 C :   -0.110040
   3 C :    0.020999
   4 C :   -0.179100
   5 H :    0.021936
   6 C :    0.099074
   7 H :    0.034120
   8 H :    0.038816
   9 C :   -0.085803
  10 H :    0.043355
  11 H :    0.024229
  12 C :   -0.029078
  13 H :    0.032912
  14 H :    0.010545
  15 H :    0.012737
  16 S :    0.106280
  17 C :   -0.102900
  18 C :   -0.063290
  19 C :   -0.040940
  20 C :   -0.137483
  21 H :    0.053371
  22 C :   -0.006431
  23 H :    0.051329
  24 H :    0.045288
  25 C :   -0.046665
  26 H :    0.027541
  27 H :    0.038408
  28 C :   -0.041971
  29 H :    0.028297
  30 H :    0.022385
  31 H :    0.018785
  32 H :    0.062359
  33 H :    0.073411
Sum of atomic charges:   -0.0000000

LOEWDIN ATOMIC CHARGES
----------------------
   0 S :    0.431968
   1 C :   -0.227701
   2 C :   -0.057301
   3 C :   -0.072350
   4 C :   -0.205661
   5 H :    0.038588
   6 C :   -0.025220
   7 H :    0.033525
   8 H :    0.033615
   9 C :   -0.044870
  10 H :    0.033999
  11 H :    0.023270
  12 C :   -0.066669
  13 H :    0.025945
  14 H :    0.030149
  15 H :    0.015713
  16 S :    0.409729
  17 C :   -0.195318
  18 C :   -0.088031
  19 C :   -0.057750
  20 C :   -0.204302
  21 H :    0.047155
  22 C :   -0.043410
  23 H :    0.042554
  24 H :    0.036809
  25 C :   -0.039758
  26 H :    0.024779
  27 H :    0.029426
  28 C :   -0.066601
  29 H :    0.027534
  30 H :    0.020010
  31 H :    0.021670
  32 H :    0.030912
  33 H :    0.037594

  Mayer bond orders larger than 0.100000
B(  0-S ,  1-C ) :   1.1536 B(  0-S ,  4-C ) :   1.1606 B(  1-C ,  2-C ) :   1.6103
B(  1-C , 32-H ) :   0.9630 B(  2-C ,  3-C ) :   1.2296 B(  2-C ,  6-C ) :   0.9746
B(  3-C ,  4-C ) :   1.6041 B(  3-C ,  5-H ) :   0.9881 B(  4-C , 20-C ) :   1.0148
B(  6-C ,  7-H ) :   0.9522 B(  6-C ,  8-H ) :   0.9396 B(  6-C ,  9-C ) :   1.0709
B(  9-C , 10-H ) :   0.9557 B(  9-C , 11-H ) :   0.9548 B(  9-C , 12-C ) :   1.0883
B( 12-C , 13-H ) :   0.9742 B( 12-C , 14-H ) :   0.9641 B( 12-C , 15-H ) :   0.9727
B( 16-S , 17-C ) :   1.1736 B( 16-S , 20-C ) :   1.1415 B( 17-C , 18-C ) :   1.5788
B( 17-C , 20-C ) :   0.1046 B( 17-C , 33-H ) :   0.9632 B( 18-C , 19-C ) :   1.2727
B( 18-C , 21-H ) :   0.9695 B( 19-C , 20-C ) :   1.5773 B( 19-C , 22-C ) :   1.0337
B( 22-C , 23-H ) :   0.9248 B( 22-C , 24-H ) :   0.9445 B( 22-C , 25-C ) :   1.0744
B( 25-C , 26-H ) :   0.9511 B( 25-C , 27-H ) :   0.9542 B( 25-C , 28-C ) :   1.0721
B( 28-C , 29-H ) :   0.9736 B( 28-C , 30-H ) :   0.9740 B( 28-C , 31-H ) :   0.9744

Dispersion correction           -0.013714543
FINAL SINGLE POINT ENERGY     -1339.865257754883

DIPOLE MOMENT
-------------
                                X             Y             Z
Electronic contribution:     -8.80883     -16.64679     -19.31201
Nuclear contribution   :      8.77412      17.03195      19.91793
                        -----------------------------------------
Total Dipole Moment    :     -0.03471       0.38517       0.60593
                        -----------------------------------------
Magnitude (a.u.)       :      0.71882
Magnitude (Debye)      :      1.82711

Rotational constants in cm-1:     0.020923     0.007516     0.006152
Rotational constants in MHz :   627.254839   225.326597   184.434723

                             ****ORCA TERMINATED NORMALLY****
TOTAL RUN TIME: 0 days 0 hours 0 minutes 29 seconds 680 msec
