                         Program Version 4.2.1 -  RELEASE  -
|  1> ! wB97X-D3 SP def2-SVP
|  2> %pal
|  3> nprocs 16
|  4> end
|  5>
|  6> * xyz 0 1
|  7> S 	 63.2477 	 -6.39488 	 89.5055
|  8> C 	 61.7608 	 -5.37088 	 89.6532
|  9> C 	 61.1075 	 -5.26068 	 88.4235
| 10> C 	 61.7867 	 -6.00397 	 87.3994
| 11> C 	 63.0126 	 -6.55306 	 87.8141
| 12> H 	 61.47 	 -6.09109 	 86.3584
| 13> C 	 59.987 	 -4.25234 	 88.1937
| 14> H 	 59.1242 	 -4.47357 	 88.8516
| 15> H 	 59.5783 	 -4.4785 	 87.202
| 16> C 	 60.2569 	 -2.76877 	 88.5887
| 17> H 	 59.3279 	 -2.10119 	 88.4671
| 18> H 	 60.5313 	 -2.62284 	 89.6482
| 19> C 	 61.3384 	 -2.19568 	 87.6755
| 20> H 	 62.2617 	 -2.85104 	 87.6376
| 21> H 	 60.8831 	 -2.27069 	 86.6748
| 22> H 	 61.4951 	 -1.15632 	 87.915
| 23> S 	 64.0276 	 -9.06057 	 87.2227
| 24> C 	 65.3084 	 -9.33826 	 86.054
| 25> C 	 65.6365 	 -8.12681 	 85.4605
| 26> C 	 64.9139 	 -7.02376 	 85.9517
| 27> C 	 64.0256 	 -7.33086 	 86.9992
| 28> H 	 66.4349 	 -8.17644 	 84.7085
| 29> C 	 65.0657 	 -5.65124 	 85.3984
| 30> H 	 64.1452 	 -5.42157 	 84.8238
| 31> H 	 65.9324 	 -5.70819 	 84.7801
| 32> C 	 65.2504 	 -4.50546 	 86.5162
| 33> H 	 64.3981 	 -4.40113 	 87.2405
| 34> H 	 65.2518 	 -3.54097 	 85.947
| 35> C 	 66.6352 	 -4.59936 	 87.2538
| 36> H 	 66.7069 	 -3.62231 	 87.8914
| 37> H 	 67.4407 	 -4.71475 	 86.4975
| 38> H 	 66.5663 	 -5.43039 	 87.9556
| 39> H 	 61.5142 	 -4.71844 	 90.5409
| 40> H 	 65.743 	 -10.2551 	 85.8244
| 41> *
| 42>
| 43>                          ****END OF INPUT****

CARTESIAN COORDINATES (ANGSTROEM)
---------------------------------
  S     63.247700   -6.394880   89.505500
  C     61.760800   -5.370880   89.653200
  C     61.107500   -5.260680   88.423500
  C     61.786700   -6.003970   87.399400
  C     63.012600   -6.553060   87.814100
  H     61.470000   -6.091090   86.358400
  C     59.987000   -4.252340   88.193700
  H     59.124200   -4.473570   88.851600
  H     59.578300   -4.478500   87.202000
  C     60.256900   -2.768770   88.588700
  H     59.327900   -2.101190   88.467100
  H     60.531300   -2.622840   89.648200
  C     61.338400   -2.195680   87.675500
  H     62.261700   -2.851040   87.637600
  H     60.883100   -2.270690   86.674800
  H     61.495100   -1.156320   87.915000
  S     64.027600   -9.060570   87.222700
  C     65.308400   -9.338260   86.054000
  C     65.636500   -8.126810   85.460500
  C     64.913900   -7.023760   85.951700
  C     64.025600   -7.330860   86.999200
  H     66.434900   -8.176440   84.708500
  C     65.065700   -5.651240   85.398400
  H     64.145200   -5.421570   84.823800
  H     65.932400   -5.708190   84.780100
  C     65.250400   -4.505460   86.516200
  H     64.398100   -4.401130   87.240500
  H     65.251800   -3.540970   85.947000
  C     66.635200   -4.599360   87.253800
  H     66.706900   -3.622310   87.891400
  H     67.440700   -4.714750   86.497500
  H     66.566300   -5.430390   87.955600
  H     61.514200   -4.718440   90.540900
  H     65.743000  -10.255100   85.824400

 Total Charge           Charge          ....    0
 Multiplicity           Mult            ....    1
 Number of Electrons    NEL             ....  134
 Basis Dimension        Dim             ....  322

ORBITAL ENERGIES
----------------

  NO   OCC          E(Eh)            E(eV)
   0   2.0000     -88.971794     -2421.0456
   1   2.0000     -88.963663     -2420.8243
   2   2.0000     -10.338753      -281.3318
   3   2.0000     -10.329881      -281.0904
   4   2.0000     -10.323919      -280.9281
   5   2.0000     -10.315118      -280.6886
   6   2.0000     -10.309295      -280.5302
   7   2.0000     -10.302626      -280.3487
   8   2.0000     -10.302315      -280.3402
   9   2.0000     -10.300155      -280.2815
  10   2.0000     -10.299986      -280.2769
  11   2.0000     -10.294802      -280.1358
  12   2.0000     -10.292568      -280.0750
  13   2.0000     -10.291192      -280.0376
  14   2.0000     -10.284764      -279.8627
  15   2.0000     -10.278169      -279.6832
  16   2.0000      -8.085734      -220.0240
  17   2.0000      -8.078297      -219.8216
  18   2.0000      -6.044212      -164.4714
  19   2.0000      -6.040236      -164.3632
  20   2.0000      -6.036700      -164.2669
  21   2.0000      -6.036655      -164.2657
  22   2.0000      -6.032588      -164.1551
  23   2.0000      -6.029396      -164.0682
  24   2.0000      -1.003674       -27.3114
  25   2.0000      -0.982843       -26.7445
  26   2.0000      -0.911636       -24.8069
  27   2.0000      -0.897865       -24.4322
  28   2.0000      -0.864198       -23.5160
  29   2.0000      -0.844823       -22.9888
  30   2.0000      -0.839272       -22.8378
  31   2.0000      -0.812401       -22.1065
  32   2.0000      -0.780715       -21.2443
  33   2.0000      -0.766437       -20.8558
  34   2.0000      -0.703741       -19.1498
  35   2.0000      -0.699241       -19.0273
  36   2.0000      -0.681342       -18.5403
  37   2.0000      -0.662196       -18.0193
  38   2.0000      -0.635401       -17.2901
  39   2.0000      -0.612726       -16.6731
  40   2.0000      -0.584117       -15.8946
  41   2.0000      -0.573944       -15.6178
  42   2.0000      -0.555122       -15.1056
  43   2.0000      -0.550665       -14.9843
  44   2.0000      -0.539791       -14.6885
  45   2.0000      -0.534437       -14.5428
  46   2.0000      -0.515641       -14.0313
  47   2.0000      -0.512482       -13.9454
  48   2.0000      -0.498081       -13.5535
  49   2.0000      -0.493105       -13.4181
  50   2.0000      -0.485427       -13.2091
  51   2.0000      -0.478004       -13.0071
  52   2.0000      -0.472808       -12.8658
  53   2.0000      -0.462107       -12.5746
  54   2.0000      -0.460523       -12.5315
  55   2.0000      -0.446632       -12.1535
  56   2.0000      -0.435733       -11.8569
  57   2.0000      -0.435059       -11.8385
  58   2.0000      -0.425496       -11.5783
  59   2.0000      -0.422316       -11.4918
  60   2.0000      -0.416258       -11.3269
  61   2.0000      -0.415922       -11.3178
  62   2.0000      -0.409433       -11.1412
  63   2.0000      -0.338410        -9.2086
  64   2.0000      -0.331706        -9.0262
  65   2.0000      -0.321439        -8.7468
  66   2.0000      -0.303713        -8.2645
  67   0.0000       0.034173         0.9299
  68   0.0000       0.050533         1.3751
  69   0.0000       0.110451         3.0055
  70   0.0000       0.120413         3.2766
  71   0.0000       0.123420         3.3584

MULLIKEN ATOMIC CHARGES
-----------------------
   0 S :    0.122596
   1 C :   -0.151001
   2 C :   -0.090132
   3 C :    0.054388
   4 C :   -0.192205
   5 H :    0.017417
   6 C :    0.054904
   7 H :    0.038227
   8 H :    0.024836
   9 C :   -0.103413
  10 H :    0.042145
  11 H :    0.033239
  12 C :   -0.060204
  13 H :    0.059855
  14 H :    0.022818
  15 H :    0.036603
  16 S :    0.108452
  17 C :   -0.075186
  18 C :   -0.056081
  19 C :   -0.026734
  20 C :   -0.164740
  21 H :    0.025104
  22 C :    0.086148
  23 H :    0.048695
  24 H :    0.007906
  25 C :   -0.137286
  26 H :    0.070515
  27 H :    0.030595
  28 C :   -0.073545
  29 H :    0.050001
  30 H :    0.042587
  31 H :    0.044786
  32 H :    0.074530
  33 H :    0.034182
Sum of atomic charges:   -0.0000000

LOEWDIN ATOMIC CHARGES
----------------------
   0 S :    0.410296
   1 C :   -0.193783
   2 C :   -0.064120
   3 C :   -0.066494
   4 C :   -0.205928
   5 H :    0.033687
   6 C :   -0.038977
   7 H :    0.038912
   8 H :    0.031186
   9 C :   -0.044659
  10 H :    0.034398
  11 H :    0.021315
  12 C :   -0.072779
  13 H :    0.033470
  14 H :    0.025428
  15 H :    0.021885
  16 S :    0.416301
  17 C :   -0.173414
  18 C :   -0.078505
  19 C :   -0.063185
  20 C :   -0.212919
  21 H :    0.036031
  22 C :   -0.029709
  23 H :    0.039722
  24 H :    0.023322
  25 C :   -0.046433
  26 H :    0.027815
  27 H :    0.022767
  28 C :   -0.071940
  29 H :    0.038759
  30 H :    0.026209
  31 H :    0.023138
  32 H :    0.040227
  33 H :    0.017978

  Mayer bond orders larger than 0.100000
B(  0-S ,  1-C ) :   1.1321 B(  0-S ,  4-C ) :   1.1798 B(  1-C ,  2-C ) :   1.6005
B(  1-C ,  4-C ) :   0.1046 B(  1-C , 32-H ) :   0.9613 B(  2-C ,  3-C ) :   1.2364
B(  2-C ,  6-C ) :   1.0240 B(  3-C ,  4-C ) :   1.5718 B(  3-C ,  5-H ) :   0.9939
B(  4-C , 20-C ) :   0.9770 B(  6-C ,  7-H ) :   0.9336 B(  6-C ,  8-H ) :   0.9474
B(  6-C ,  9-C ) :   1.0631 B(  9-C , 10-H ) :   0.9544 B(  9-C , 11-H ) :   0.9542
B(  9-C , 12-C ) :   1.0689 B( 12-C , 13-H ) :   0.9736 B( 12-C , 14-H ) :   0.9736
B( 12-C , 15-H ) :   0.9731 B( 16-S , 17-C ) :   1.1771 B( 16-S , 20-C ) :   1.1680
B( 17-C , 18-C ) :   1.5735 B( 17-C , 20-C ) :   0.1122 B( 17-C , 33-H ) :   0.9762
B( 18-C , 19-C ) :   1.2703 B( 18-C , 21-H ) :   0.9903 B( 19-C , 20-C ) :   1.5529
B( 19-C , 22-C ) :   1.0384 B( 22-C , 23-H ) :   0.9302 B( 22-C , 24-H ) :   0.9362
B( 22-C , 25-C ) :   1.0662 B( 25-C , 26-H ) :   0.9496 B( 25-C , 27-H ) :   0.9599
B( 25-C , 28-C ) :   1.0590 B( 28-C , 29-H ) :   0.9747 B( 28-C , 30-H ) :   0.9762
B( 28-C , 31-H ) :   0.9763

Dispersion correction           -0.016171105
FINAL SINGLE POINT ENERGY     -1339.872391054763

DIPOLE MOMENT
-------------
                                X             Y             Z
Electronic contribution:      1.74625     -25.58800       5.74919
Nuclear contribution   :     -1.90002      26.09511      -6.10666
                        -----------------------------------------
Total Dipole Moment    :     -0.15377       0.50711      -0.35747
                        -----------------------------------------
Magnitude (a.u.)       :      0.63921
Magnitude (Debye)      :      1.62473

Rotational constants in cm-1:     0.021905     0.009053     0.007661
Rotational constants in MHz :   656.697930   271.395906   229.659912

                             ****ORCA TERMINATED NORMALLY****
TOTAL RUN TIME: 0 days 0 hours 0 minutes 32 seconds 141 msec
