                         Program Version 4.2.1 -  RELEASE  -
|  1> ! wB97X-D3 SP def2-SVP
|  2> %pal
|  3> nprocs 16
|  4> end
|  5>
|  6> * xyz 0 1
|  7> S 	 -54.3706 	 27.5771 	 96.1752
|  8> C 	 -53.0515 	 26.5493 	 95.929
|  9> C 	 -51.8885 	 27.0695 	 96.3311
| 10> C 	 -52.0986 	 28.3186 	 97.0404
| 11> C 	 -53.4023 	 28.7911 	 97.0047
| 12> H 	 -51.343 	 28.9766 	 97.4148
| 13> C 	 -50.5874 	 26.387 	 96.2217
| 14> H 	 -50.4778 	 25.8474 	 95.2928
| 15> H 	 -50.5294 	 25.6661 	 97.0286
| 16> C 	 -49.3333 	 27.2446 	 96.3092
| 17> H 	 -49.3202 	 27.9675 	 95.5628
| 18> H 	 -49.1942 	 27.685 	 97.3302
| 19> C 	 -48.0842 	 26.5314 	 96.1963
| 20> H 	 -47.9498 	 25.8563 	 97.0315
| 21> H 	 -47.979 	 25.914 	 95.3205
| 22> H 	 -47.1664 	 27.1799 	 96.1634
| 23> S 	 -55.4941 	 30.0187 	 98.4358
| 24> C 	 -55.4487 	 31.7601 	 98.6508
| 25> C 	 -54.4108 	 32.3138 	 97.9435
| 26> C 	 -53.6036 	 31.4044 	 97.1987
| 27> C 	 -53.8907 	 30.0878 	 97.491
| 28> H 	 -54.2703 	 33.4015 	 97.8248
| 29> C 	 -52.5231 	 31.8965 	 96.2106
| 30> H 	 -53.0309 	 32.7043 	 95.6471
| 31> H 	 -52.2573 	 31.0851 	 95.554
| 32> C 	 -51.2056 	 32.4354 	 96.9166
| 33> H 	 -50.6056 	 31.6123 	 97.5167
| 34> H 	 -51.433 	 33.2184 	 97.6005
| 35> C 	 -50.1636 	 32.9272 	 95.7809
| 36> H 	 -49.1717 	 33.1338 	 96.1134
| 37> H 	 -50.4608 	 33.7415 	 95.1283
| 38> H 	 -50.0478 	 32.1367 	 95.0247
| 39> H 	 -53.1467 	 25.5375 	 95.5545
| 40> H 	 -56.2227 	 32.2326 	 99.1614
| 41> *
| 42>
| 43>                          ****END OF INPUT****

CARTESIAN COORDINATES (ANGSTROEM)
---------------------------------
  S    -54.370600   27.577100   96.175200
  C    -53.051500   26.549300   95.929000
  C    -51.888500   27.069500   96.331100
  C    -52.098600   28.318600   97.040400
  C    -53.402300   28.791100   97.004700
  H    -51.343000   28.976600   97.414800
  C    -50.587400   26.387000   96.221700
  H    -50.477800   25.847400   95.292800
  H    -50.529400   25.666100   97.028600
  C    -49.333300   27.244600   96.309200
  H    -49.320200   27.967500   95.562800
  H    -49.194200   27.685000   97.330200
  C    -48.084200   26.531400   96.196300
  H    -47.949800   25.856300   97.031500
  H    -47.979000   25.914000   95.320500
  H    -47.166400   27.179900   96.163400
  S    -55.494100   30.018700   98.435800
  C    -55.448700   31.760100   98.650800
  C    -54.410800   32.313800   97.943500
  C    -53.603600   31.404400   97.198700
  C    -53.890700   30.087800   97.491000
  H    -54.270300   33.401500   97.824800
  C    -52.523100   31.896500   96.210600
  H    -53.030900   32.704300   95.647100
  H    -52.257300   31.085100   95.554000
  C    -51.205600   32.435400   96.916600
  H    -50.605600   31.612300   97.516700
  H    -51.433000   33.218400   97.600500
  C    -50.163600   32.927200   95.780900
  H    -49.171700   33.133800   96.113400
  H    -50.460800   33.741500   95.128300
  H    -50.047800   32.136700   95.024700
  H    -53.146700   25.537500   95.554500
  H    -56.222700   32.232600   99.161400

 Total Charge           Charge          ....    0
 Multiplicity           Mult            ....    1
 Number of Electrons    NEL             ....  134
 Basis Dimension        Dim             ....  322

ORBITAL ENERGIES
----------------

  NO   OCC          E(Eh)            E(eV)
   0   2.0000     -88.961750     -2420.7723
   1   2.0000     -88.960083     -2420.7269
   2   2.0000     -10.334801      -281.2242
   3   2.0000     -10.329452      -281.0787
   4   2.0000     -10.318466      -280.7797
   5   2.0000     -10.308571      -280.5105
   6   2.0000     -10.308103      -280.4977
   7   2.0000     -10.303902      -280.3834
   8   2.0000     -10.303101      -280.3616
   9   2.0000     -10.296601      -280.1848
  10   2.0000     -10.294070      -280.1159
  11   2.0000     -10.292410      -280.0707
  12   2.0000     -10.287525      -279.9378
  13   2.0000     -10.281858      -279.7836
  14   2.0000     -10.277869      -279.6750
  15   2.0000     -10.273099      -279.5452
  16   2.0000      -8.077583      -219.8022
  17   2.0000      -8.073820      -219.6998
  18   2.0000      -6.036094      -164.2505
  19   2.0000      -6.032388      -164.1496
  20   2.0000      -6.031851      -164.1350
  21   2.0000      -6.028650      -164.0479
  22   2.0000      -6.028347      -164.0397
  23   2.0000      -6.024385      -163.9318
  24   2.0000      -1.006481       -27.3877
  25   2.0000      -0.982533       -26.7361
  26   2.0000      -0.926171       -25.2024
  27   2.0000      -0.896823       -24.4038
  28   2.0000      -0.875798       -23.8317
  29   2.0000      -0.853868       -23.2349
  30   2.0000      -0.842087       -22.9144
  31   2.0000      -0.814702       -22.1692
  32   2.0000      -0.782325       -21.2881
  33   2.0000      -0.774150       -21.0657
  34   2.0000      -0.711901       -19.3718
  35   2.0000      -0.703976       -19.1562
  36   2.0000      -0.690878       -18.7997
  37   2.0000      -0.661915       -18.0116
  38   2.0000      -0.645836       -17.5741
  39   2.0000      -0.618662       -16.8346
  40   2.0000      -0.600337       -16.3360
  41   2.0000      -0.589047       -16.0288
  42   2.0000      -0.567142       -15.4327
  43   2.0000      -0.555342       -15.1116
  44   2.0000      -0.525801       -14.3078
  45   2.0000      -0.519698       -14.1417
  46   2.0000      -0.518254       -14.1024
  47   2.0000      -0.512466       -13.9449
  48   2.0000      -0.509404       -13.8616
  49   2.0000      -0.502664       -13.6782
  50   2.0000      -0.492687       -13.4067
  51   2.0000      -0.477595       -12.9960
  52   2.0000      -0.470322       -12.7981
  53   2.0000      -0.464401       -12.6370
  54   2.0000      -0.463137       -12.6026
  55   2.0000      -0.449819       -12.2402
  56   2.0000      -0.444146       -12.0858
  57   2.0000      -0.441872       -12.0240
  58   2.0000      -0.430232       -11.7072
  59   2.0000      -0.427969       -11.6456
  60   2.0000      -0.423346       -11.5198
  61   2.0000      -0.414443       -11.2776
  62   2.0000      -0.411289       -11.1918
  63   2.0000      -0.346103        -9.4179
  64   2.0000      -0.330185        -8.9848
  65   2.0000      -0.326184        -8.8759
  66   2.0000      -0.296289        -8.0624
  67   0.0000       0.028678         0.7804
  68   0.0000       0.069215         1.8834
  69   0.0000       0.106294         2.8924
  70   0.0000       0.124383         3.3846
  71   0.0000       0.128062         3.4848

MULLIKEN ATOMIC CHARGES
-----------------------
   0 S :    0.119759
   1 C :   -0.123879
   2 C :   -0.062620
   3 C :    0.028263
   4 C :   -0.142499
   5 H :   -0.000976
   6 C :    0.073564
   7 H :    0.019051
   8 H :    0.033365
   9 C :   -0.063038
  10 H :    0.015802
  11 H :    0.034219
  12 C :   -0.048613
  13 H :    0.017589
  14 H :    0.010972
  15 H :    0.036894
  16 S :    0.064082
  17 C :   -0.056705
  18 C :   -0.027170
  19 C :   -0.026184
  20 C :   -0.174766
  21 H :    0.025419
  22 C :    0.061909
  23 H :    0.041558
  24 H :    0.033936
  25 C :   -0.095227
  26 H :    0.056340
  27 H :    0.034222
  28 C :   -0.050561
  29 H :    0.031805
  30 H :    0.026569
  31 H :    0.019118
  32 H :    0.044342
  33 H :    0.043460
Sum of atomic charges:    0.0000000

LOEWDIN ATOMIC CHARGES
----------------------
   0 S :    0.420484
   1 C :   -0.207360
   2 C :   -0.072006
   3 C :   -0.057570
   4 C :   -0.198307
   5 H :    0.024919
   6 C :   -0.029468
   7 H :    0.030768
   8 H :    0.035495
   9 C :   -0.045280
  10 H :    0.015779
  11 H :    0.033167
  12 C :   -0.064936
  13 H :    0.020821
  14 H :    0.015523
  15 H :    0.033719
  16 S :    0.348745
  17 C :   -0.157775
  18 C :   -0.078613
  19 C :   -0.049410
  20 C :   -0.162033
  21 H :    0.033898
  22 C :   -0.023384
  23 H :    0.038286
  24 H :    0.029740
  25 C :   -0.033552
  26 H :    0.038404
  27 H :    0.016098
  28 C :   -0.075186
  29 H :    0.020597
  30 H :    0.023262
  31 H :    0.025774
  32 H :    0.031518
  33 H :    0.017882

  Mayer bond orders larger than 0.100000
B(  0-S ,  1-C ) :   1.1463 B(  0-S ,  4-C ) :   1.1447 B(  1-C ,  2-C ) :   1.6242
B(  1-C , 32-H ) :   0.9680 B(  2-C ,  3-C ) :   1.2279 B(  2-C ,  6-C ) :   1.0310
B(  3-C ,  4-C ) :   1.5760 B(  3-C ,  5-H ) :   0.9979 B(  4-C , 20-C ) :   1.0500
B(  6-C ,  7-H ) :   0.9395 B(  6-C ,  8-H ) :   0.9277 B(  6-C ,  9-C ) :   1.0862
B(  9-C , 10-H ) :   0.9547 B(  9-C , 11-H ) :   0.9387 B(  9-C , 12-C ) :   1.1037
B( 12-C , 13-H ) :   0.9713 B( 12-C , 14-H ) :   0.9663 B( 12-C , 15-H ) :   0.9698
B( 16-S , 17-C ) :   1.1513 B( 16-S , 20-C ) :   1.1020 B( 17-C , 18-C ) :   1.6108
B( 17-C , 33-H ) :   0.9788 B( 18-C , 19-C ) :   1.2244 B( 18-C , 21-H ) :   0.9818
B( 19-C , 20-C ) :   1.6240 B( 19-C , 22-C ) :   1.0354 B( 22-C , 23-H ) :   0.9383
B( 22-C , 24-H ) :   0.9361 B( 22-C , 25-C ) :   1.0529 B( 25-C , 26-H ) :   0.9572
B( 25-C , 27-H ) :   0.9622 B( 25-C , 28-C ) :   1.0576 B( 28-C , 29-H ) :   0.9796
B( 28-C , 30-H ) :   0.9780 B( 28-C , 31-H ) :   0.9752

Dispersion correction           -0.013740241
FINAL SINGLE POINT ENERGY     -1339.868522814578

DIPOLE MOMENT
-------------
                                X             Y             Z
Electronic contribution:    -32.14159      -4.75553       7.29909
Nuclear contribution   :     32.79301       5.00881      -7.56309
                        -----------------------------------------
Total Dipole Moment    :      0.65142       0.25328      -0.26400
                        -----------------------------------------
Magnitude (a.u.)       :      0.74712
Magnitude (Debye)      :      1.89903

Rotational constants in cm-1:     0.016337     0.009261     0.006400
Rotational constants in MHz :   489.781303   277.640378   191.856953

                             ****ORCA TERMINATED NORMALLY****
TOTAL RUN TIME: 0 days 0 hours 0 minutes 31 seconds 832 msec
