                         Program Version 4.2.1 -  RELEASE  -
|  1> ! wB97X-D3 SP def2-SVP
|  2> %pal
|  3> nprocs 16
|  4> end
|  5>
|  6> * xyz 0 1
|  7> S 	 -63.134 	 47.207 	 123.776
|  8> C 	 -63.6437 	 48.3142 	 124.997
|  9> C 	 -64.9301 	 48.8319 	 124.796
| 10> C 	 -65.5727 	 48.0845 	 123.781
| 11> C 	 -64.7919 	 47.2295 	 123.082
| 12> H 	 -66.5884 	 48.1049 	 123.492
| 13> C 	 -65.6953 	 49.7651 	 125.622
| 14> H 	 -65.0161 	 50.5101 	 126.016
| 15> H 	 -66.0197 	 49.3187 	 126.57
| 16> C 	 -66.9428 	 50.3664 	 124.968
| 17> H 	 -66.625 	 50.7806 	 124.035
| 18> H 	 -67.7715 	 49.6283 	 124.712
| 19> C 	 -67.6443 	 51.3623 	 125.87
| 20> H 	 -67.0445 	 52.2161 	 125.994
| 21> H 	 -68.6228 	 51.6801 	 125.492
| 22> H 	 -67.788 	 50.9427 	 126.895
| 23> S 	 -63.945 	 46.201 	 120.661
| 24> C 	 -64.9512 	 44.9761 	 119.974
| 25> C 	 -66.1452 	 44.7308 	 120.606
| 26> C 	 -66.2401 	 45.6083 	 121.711
| 27> C 	 -65.1024 	 46.3748 	 121.944
| 28> H 	 -66.8901 	 44.0383 	 120.326
| 29> C 	 -67.4766 	 45.5657 	 122.582
| 30> H 	 -67.39 	 46.022 	 123.566
| 31> H 	 -67.537 	 44.4864 	 122.91
| 32> C 	 -68.7834 	 45.9207 	 122.004
| 33> H 	 -68.8866 	 45.4252 	 121.014
| 34> H 	 -68.6377 	 46.9905 	 121.81
| 35> C 	 -70.0603 	 45.5329 	 122.84
| 36> H 	 -71.0294 	 45.8684 	 122.521
| 37> H 	 -69.9313 	 45.7148 	 123.89
| 38> H 	 -70.0533 	 44.4532 	 122.783
| 39> H 	 -63.0166 	 48.8621 	 125.599
| 40> H 	 -64.6813 	 44.4712 	 119.059
| 41> *
| 42>
| 43>                          ****END OF INPUT****

CARTESIAN COORDINATES (ANGSTROEM)
---------------------------------
  S    -63.134000   47.207000  123.776000
  C    -63.643700   48.314200  124.997000
  C    -64.930100   48.831900  124.796000
  C    -65.572700   48.084500  123.781000
  C    -64.791900   47.229500  123.082000
  H    -66.588400   48.104900  123.492000
  C    -65.695300   49.765100  125.622000
  H    -65.016100   50.510100  126.016000
  H    -66.019700   49.318700  126.570000
  C    -66.942800   50.366400  124.968000
  H    -66.625000   50.780600  124.035000
  H    -67.771500   49.628300  124.712000
  C    -67.644300   51.362300  125.870000
  H    -67.044500   52.216100  125.994000
  H    -68.622800   51.680100  125.492000
  H    -67.788000   50.942700  126.895000
  S    -63.945000   46.201000  120.661000
  C    -64.951200   44.976100  119.974000
  C    -66.145200   44.730800  120.606000
  C    -66.240100   45.608300  121.711000
  C    -65.102400   46.374800  121.944000
  H    -66.890100   44.038300  120.326000
  C    -67.476600   45.565700  122.582000
  H    -67.390000   46.022000  123.566000
  H    -67.537000   44.486400  122.910000
  C    -68.783400   45.920700  122.004000
  H    -68.886600   45.425200  121.014000
  H    -68.637700   46.990500  121.810000
  C    -70.060300   45.532900  122.840000
  H    -71.029400   45.868400  122.521000
  H    -69.931300   45.714800  123.890000
  H    -70.053300   44.453200  122.783000
  H    -63.016600   48.862100  125.599000
  H    -64.681300   44.471200  119.059000

 Total Charge           Charge          ....    0
 Multiplicity           Mult            ....    1
 Number of Electrons    NEL             ....  134
 Basis Dimension        Dim             ....  322

ORBITAL ENERGIES
----------------

  NO   OCC          E(Eh)            E(eV)
   0   2.0000     -88.970488     -2421.0101
   1   2.0000     -88.964706     -2420.8527
   2   2.0000     -10.325718      -280.9771
   3   2.0000     -10.324156      -280.9346
   4   2.0000     -10.315994      -280.7125
   5   2.0000     -10.304655      -280.4039
   6   2.0000     -10.302362      -280.3415
   7   2.0000     -10.297014      -280.1960
   8   2.0000     -10.292013      -280.0599
   9   2.0000     -10.289776      -279.9990
  10   2.0000     -10.289743      -279.9981
  11   2.0000     -10.289698      -279.9969
  12   2.0000     -10.288231      -279.9570
  13   2.0000     -10.282218      -279.7934
  14   2.0000     -10.281442      -279.7723
  15   2.0000     -10.277895      -279.6757
  16   2.0000      -8.085770      -220.0250
  17   2.0000      -8.079125      -219.8442
  18   2.0000      -6.044105      -164.4685
  19   2.0000      -6.040344      -164.3661
  20   2.0000      -6.037598      -164.2914
  21   2.0000      -6.036555      -164.2630
  22   2.0000      -6.033819      -164.1886
  23   2.0000      -6.029812      -164.0795
  24   2.0000      -1.010753       -27.5040
  25   2.0000      -0.988141       -26.8887
  26   2.0000      -0.918723       -24.9997
  27   2.0000      -0.916178       -24.9305
  28   2.0000      -0.872662       -23.7463
  29   2.0000      -0.856546       -23.3078
  30   2.0000      -0.850722       -23.1493
  31   2.0000      -0.818808       -22.2809
  32   2.0000      -0.787915       -21.4403
  33   2.0000      -0.772259       -21.0142
  34   2.0000      -0.713819       -19.4240
  35   2.0000      -0.699338       -19.0300
  36   2.0000      -0.693076       -18.8596
  37   2.0000      -0.666771       -18.1438
  38   2.0000      -0.647853       -17.6290
  39   2.0000      -0.624993       -17.0069
  40   2.0000      -0.606583       -16.5060
  41   2.0000      -0.575616       -15.6633
  42   2.0000      -0.567652       -15.4466
  43   2.0000      -0.562476       -15.3058
  44   2.0000      -0.533514       -14.5177
  45   2.0000      -0.524274       -14.2662
  46   2.0000      -0.520272       -14.1573
  47   2.0000      -0.507790       -13.8177
  48   2.0000      -0.502228       -13.6663
  49   2.0000      -0.496622       -13.5138
  50   2.0000      -0.490618       -13.3504
  51   2.0000      -0.479995       -13.0613
  52   2.0000      -0.473061       -12.8727
  53   2.0000      -0.469511       -12.7760
  54   2.0000      -0.464589       -12.6421
  55   2.0000      -0.456704       -12.4276
  56   2.0000      -0.452255       -12.3065
  57   2.0000      -0.442351       -12.0370
  58   2.0000      -0.434085       -11.8120
  59   2.0000      -0.429899       -11.6982
  60   2.0000      -0.424423       -11.5491
  61   2.0000      -0.414183       -11.2705
  62   2.0000      -0.408478       -11.1153
  63   2.0000      -0.352931        -9.6037
  64   2.0000      -0.336182        -9.1480
  65   2.0000      -0.327704        -8.9173
  66   2.0000      -0.283288        -7.7087
  67   0.0000       0.028743         0.7821
  68   0.0000       0.069645         1.8951
  69   0.0000       0.107954         2.9376
  70   0.0000       0.119022         3.2388
  71   0.0000       0.123365         3.3569

MULLIKEN ATOMIC CHARGES
-----------------------
   0 S :    0.101554
   1 C :   -0.066015
   2 C :   -0.081625
   3 C :    0.006919
   4 C :   -0.128969
   5 H :   -0.011103
   6 C :    0.066992
   7 H :    0.012548
   8 H :    0.034455
   9 C :   -0.114899
  10 H :    0.029266
  11 H :    0.044776
  12 C :   -0.012675
  13 H :    0.016590
  14 H :    0.034575
  15 H :    0.027553
  16 S :    0.126007
  17 C :   -0.079703
  18 C :   -0.007715
  19 C :   -0.018127
  20 C :   -0.147425
  21 H :    0.008755
  22 C :    0.006645
  23 H :    0.019074
  24 H :    0.018920
  25 C :   -0.072226
  26 H :    0.025987
  27 H :    0.026158
  28 C :   -0.017240
  29 H :    0.041425
  30 H :    0.023528
  31 H :    0.020025
  32 H :    0.015942
  33 H :    0.050030
Sum of atomic charges:    0.0000000

LOEWDIN ATOMIC CHARGES
----------------------
   0 S :    0.392090
   1 C :   -0.194708
   2 C :   -0.059060
   3 C :   -0.062495
   4 C :   -0.169061
   5 H :    0.023625
   6 C :   -0.038587
   7 H :    0.031405
   8 H :    0.037417
   9 C :   -0.042875
  10 H :    0.020807
  11 H :    0.031774
  12 C :   -0.060860
  13 H :    0.016171
  14 H :    0.027928
  15 H :    0.029144
  16 S :    0.423296
  17 C :   -0.179589
  18 C :   -0.060348
  19 C :   -0.049477
  20 C :   -0.208801
  21 H :    0.029622
  22 C :   -0.046883
  23 H :    0.026380
  24 H :    0.032289
  25 C :   -0.043694
  26 H :    0.023817
  27 H :    0.021661
  28 C :   -0.059334
  29 H :    0.026830
  30 H :    0.022203
  31 H :    0.026902
  32 H :    0.008700
  33 H :    0.023709

  Mayer bond orders larger than 0.100000
B(  0-S ,  1-C ) :   1.1448 B(  0-S ,  4-C ) :   1.1241 B(  1-C ,  2-C ) :   1.6118
B(  1-C ,  4-C ) :   0.1037 B(  1-C , 32-H ) :   0.9654 B(  2-C ,  3-C ) :   1.2223
B(  2-C ,  6-C ) :   1.0412 B(  3-C ,  4-C ) :   1.6064 B(  3-C ,  5-H ) :   0.9951
B(  4-C , 20-C ) :   1.0514 B(  6-C ,  7-H ) :   0.9287 B(  6-C ,  8-H ) :   0.9238
B(  6-C ,  9-C ) :   1.0705 B(  9-C , 10-H ) :   0.9601 B(  9-C , 11-H ) :   0.9432
B(  9-C , 12-C ) :   1.0872 B( 12-C , 13-H ) :   0.9727 B( 12-C , 14-H ) :   0.9734
B( 12-C , 15-H ) :   0.9700 B( 16-S , 17-C ) :   1.1653 B( 16-S , 20-C ) :   1.1363
B( 17-C , 18-C ) :   1.5905 B( 17-C , 33-H ) :   0.9648 B( 18-C , 19-C ) :   1.2512
B( 18-C , 21-H ) :   1.0002 B( 19-C , 20-C ) :   1.5881 B( 19-C , 22-C ) :   1.0399
B( 22-C , 23-H ) :   0.9327 B( 22-C , 24-H ) :   0.9288 B( 22-C , 25-C ) :   1.0598
B( 25-C , 26-H ) :   0.9563 B( 25-C , 27-H ) :   0.9515 B( 25-C , 28-C ) :   1.0617
B( 28-C , 29-H ) :   0.9774 B( 28-C , 30-H ) :   0.9777 B( 28-C , 31-H ) :   0.9727

Dispersion correction           -0.013791708
FINAL SINGLE POINT ENERGY     -1339.870343672087

DIPOLE MOMENT
-------------
                                X             Y             Z
Electronic contribution:     29.07374      -9.19451     -12.06435
Nuclear contribution   :    -29.75410       9.29123      12.21186
                        -----------------------------------------
Total Dipole Moment    :     -0.68036       0.09672       0.14751
                        -----------------------------------------
Magnitude (a.u.)       :      0.70285
Magnitude (Debye)      :      1.78651

Rotational constants in cm-1:     0.015744     0.009773     0.006529
Rotational constants in MHz :   471.996105   292.993052   195.743890

                             ****ORCA TERMINATED NORMALLY****
TOTAL RUN TIME: 0 days 0 hours 0 minutes 34 seconds 113 msec
