                         Program Version 4.2.1 -  RELEASE  -
|  1> ! wB97X-D3 SP def2-SVP
|  2> %pal
|  3> nprocs 16
|  4> end
|  5>
|  6> * xyz 0 1
|  7> S 	 -10.4496 	 76.3348 	 51.5651
|  8> C 	 -12.1016 	 76.5116 	 52.1903
|  9> C 	 -13.0815 	 76.1812 	 51.343
| 10> C 	 -12.487 	 75.6381 	 50.1637
| 11> C 	 -11.0869 	 75.491 	 50.2088
| 12> H 	 -13.1139 	 75.1997 	 49.3551
| 13> C 	 -14.5827 	 76.2488 	 51.5353
| 14> H 	 -14.7961 	 75.8749 	 52.533
| 15> H 	 -14.9847 	 75.5211 	 50.8693
| 16> C 	 -15.3408 	 77.4311 	 51.1963
| 17> H 	 -14.7872 	 78.3298 	 51.6449
| 18> H 	 -15.2158 	 77.6422 	 50.1275
| 19> C 	 -16.8611 	 77.3996 	 51.6078
| 20> H 	 -17.3453 	 76.5418 	 51.1904
| 21> H 	 -16.9384 	 77.4969 	 52.6707
| 22> H 	 -17.3692 	 78.2232 	 51.3189
| 23> S 	 -9.14774 	 73.6533 	 49.6939
| 24> C 	 -8.8175 	 73.1594 	 48.0944
| 25> C 	 -9.53397 	 73.9249 	 47.1823
| 26> C 	 -10.1851 	 75.013 	 47.8378
| 27> C 	 -10.2313 	 74.8652 	 49.2067
| 28> H 	 -9.46219 	 73.779 	 46.1544
| 29> C 	 -10.9702 	 76.074 	 47.1521
| 30> H 	 -10.2463 	 76.4244 	 46.4461
| 31> H 	 -11.0738 	 76.89 	 47.9092
| 32> C 	 -12.3216 	 75.7134 	 46.5222
| 33> H 	 -13.1162 	 76.0046 	 47.1378
| 34> H 	 -12.3984 	 74.6253 	 46.2857
| 35> C 	 -12.5351 	 76.5374 	 45.217
| 36> H 	 -12.1049 	 77.534 	 45.3202
| 37> H 	 -13.5771 	 76.5783 	 45.0931
| 38> H 	 -12.0818 	 75.911 	 44.4346
| 39> H 	 -12.2452 	 77.1017 	 53.0683
| 40> H 	 -8.14164 	 72.2892 	 47.8522
| 41> *
| 42>
| 43>                          ****END OF INPUT****

CARTESIAN COORDINATES (ANGSTROEM)
---------------------------------
  S    -10.449600   76.334800   51.565100
  C    -12.101600   76.511600   52.190300
  C    -13.081500   76.181200   51.343000
  C    -12.487000   75.638100   50.163700
  C    -11.086900   75.491000   50.208800
  H    -13.113900   75.199700   49.355100
  C    -14.582700   76.248800   51.535300
  H    -14.796100   75.874900   52.533000
  H    -14.984700   75.521100   50.869300
  C    -15.340800   77.431100   51.196300
  H    -14.787200   78.329800   51.644900
  H    -15.215800   77.642200   50.127500
  C    -16.861100   77.399600   51.607800
  H    -17.345300   76.541800   51.190400
  H    -16.938400   77.496900   52.670700
  H    -17.369200   78.223200   51.318900
  S     -9.147740   73.653300   49.693900
  C     -8.817500   73.159400   48.094400
  C     -9.533970   73.924900   47.182300
  C    -10.185100   75.013000   47.837800
  C    -10.231300   74.865200   49.206700
  H     -9.462190   73.779000   46.154400
  C    -10.970200   76.074000   47.152100
  H    -10.246300   76.424400   46.446100
  H    -11.073800   76.890000   47.909200
  C    -12.321600   75.713400   46.522200
  H    -13.116200   76.004600   47.137800
  H    -12.398400   74.625300   46.285700
  C    -12.535100   76.537400   45.217000
  H    -12.104900   77.534000   45.320200
  H    -13.577100   76.578300   45.093100
  H    -12.081800   75.911000   44.434600
  H    -12.245200   77.101700   53.068300
  H     -8.141640   72.289200   47.852200

 Total Charge           Charge          ....    0
 Multiplicity           Mult            ....    1
 Number of Electrons    NEL             ....  134
 Basis Dimension        Dim             ....  322

ORBITAL ENERGIES
----------------

  NO   OCC          E(Eh)            E(eV)
   0   2.0000     -88.966355     -2420.8976
   1   2.0000     -88.960261     -2420.7318
   2   2.0000     -10.329192      -281.0716
   3   2.0000     -10.317836      -280.7626
   4   2.0000     -10.314678      -280.6767
   5   2.0000     -10.308261      -280.5021
   6   2.0000     -10.297767      -280.2165
   7   2.0000     -10.296705      -280.1876
   8   2.0000     -10.293705      -280.1060
   9   2.0000     -10.290853      -280.0283
  10   2.0000     -10.288907      -279.9754
  11   2.0000     -10.285956      -279.8951
  12   2.0000     -10.282849      -279.8105
  13   2.0000     -10.282409      -279.7986
  14   2.0000     -10.274448      -279.5819
  15   2.0000     -10.274062      -279.5714
  16   2.0000      -8.081453      -219.9075
  17   2.0000      -8.077020      -219.7869
  18   2.0000      -6.039809      -164.3516
  19   2.0000      -6.036118      -164.2511
  20   2.0000      -6.035223      -164.2268
  21   2.0000      -6.032147      -164.1431
  22   2.0000      -6.031148      -164.1159
  23   2.0000      -6.028070      -164.0321
  24   2.0000      -1.014109       -27.5953
  25   2.0000      -0.991341       -26.9758
  26   2.0000      -0.923325       -25.1249
  27   2.0000      -0.910250       -24.7692
  28   2.0000      -0.872819       -23.7506
  29   2.0000      -0.854383       -23.2489
  30   2.0000      -0.847072       -23.0500
  31   2.0000      -0.811661       -22.0864
  32   2.0000      -0.795758       -21.6537
  33   2.0000      -0.771322       -20.9887
  34   2.0000      -0.705826       -19.2065
  35   2.0000      -0.703339       -19.1388
  36   2.0000      -0.693264       -18.8647
  37   2.0000      -0.666121       -18.1261
  38   2.0000      -0.638286       -17.3686
  39   2.0000      -0.621011       -16.8986
  40   2.0000      -0.595216       -16.1966
  41   2.0000      -0.578921       -15.7532
  42   2.0000      -0.568212       -15.4618
  43   2.0000      -0.559946       -15.2369
  44   2.0000      -0.531596       -14.4655
  45   2.0000      -0.526853       -14.3364
  46   2.0000      -0.523042       -14.2327
  47   2.0000      -0.516072       -14.0430
  48   2.0000      -0.509936       -13.8761
  49   2.0000      -0.502001       -13.6602
  50   2.0000      -0.489121       -13.3097
  51   2.0000      -0.477284       -12.9876
  52   2.0000      -0.472448       -12.8560
  53   2.0000      -0.468556       -12.7500
  54   2.0000      -0.462844       -12.5946
  55   2.0000      -0.452067       -12.3014
  56   2.0000      -0.447030       -12.1643
  57   2.0000      -0.443577       -12.0703
  58   2.0000      -0.437214       -11.8972
  59   2.0000      -0.425399       -11.5757
  60   2.0000      -0.421737       -11.4760
  61   2.0000      -0.408447       -11.1144
  62   2.0000      -0.404323       -11.0022
  63   2.0000      -0.343931        -9.3588
  64   2.0000      -0.334937        -9.1141
  65   2.0000      -0.325034        -8.8446
  66   2.0000      -0.293938        -7.9984
  67   0.0000       0.034831         0.9478
  68   0.0000       0.071217         1.9379
  69   0.0000       0.111513         3.0344
  70   0.0000       0.125422         3.4129
  71   0.0000       0.129755         3.5308

MULLIKEN ATOMIC CHARGES
-----------------------
   0 S :    0.113442
   1 C :   -0.127887
   2 C :   -0.064262
   3 C :    0.002044
   4 C :   -0.154719
   5 H :    0.023655
   6 C :    0.110306
   7 H :    0.025095
   8 H :   -0.000746
   9 C :   -0.100730
  10 H :    0.022604
  11 H :    0.019925
  12 C :    0.024338
  13 H :    0.031879
  14 H :    0.025300
  15 H :    0.005418
  16 S :    0.120599
  17 C :   -0.114597
  18 C :   -0.010147
  19 C :   -0.073173
  20 C :   -0.156695
  21 H :   -0.005361
  22 C :    0.059893
  23 H :    0.019520
  24 H :    0.039333
  25 C :   -0.065164
  26 H :    0.018518
  27 H :    0.039391
  28 C :   -0.040167
  29 H :    0.043176
  30 H :    0.018377
  31 H :    0.037240
  32 H :    0.033650
  33 H :    0.079942
Sum of atomic charges:    0.0000000

LOEWDIN ATOMIC CHARGES
----------------------
   0 S :    0.406534
   1 C :   -0.177050
   2 C :   -0.062610
   3 C :   -0.062356
   4 C :   -0.203045
   5 H :    0.032680
   6 C :   -0.034523
   7 H :    0.033238
   8 H :    0.027835
   9 C :   -0.044561
  10 H :    0.025269
  11 H :    0.021926
  12 C :   -0.047857
  13 H :    0.025706
  14 H :    0.028153
  15 H :    0.014946
  16 S :    0.445455
  17 C :   -0.204093
  18 C :   -0.067926
  19 C :   -0.059134
  20 C :   -0.228128
  21 H :    0.020036
  22 C :   -0.039683
  23 H :    0.028249
  24 H :    0.039462
  25 C :   -0.035369
  26 H :    0.012977
  27 H :    0.028124
  28 C :   -0.055153
  29 H :    0.026632
  30 H :    0.016389
  31 H :    0.028145
  32 H :    0.018062
  33 H :    0.041670

  Mayer bond orders larger than 0.100000
B(  0-S ,  1-C ) :   1.1303 B(  0-S ,  4-C ) :   1.1655 B(  1-C ,  2-C ) :   1.6400
B(  1-C , 32-H ) :   0.9672 B(  2-C ,  3-C ) :   1.2524 B(  2-C ,  6-C ) :   1.0101
B(  3-C ,  4-C ) :   1.5651 B(  3-C ,  5-H ) :   0.9819 B(  4-C , 20-C ) :   1.0248
B(  6-C ,  7-H ) :   0.9389 B(  6-C ,  8-H ) :   0.9222 B(  6-C ,  9-C ) :   1.0750
B(  9-C , 10-H ) :   0.9544 B(  9-C , 11-H ) :   0.9498 B(  9-C , 12-C ) :   1.0737
B( 12-C , 13-H ) :   0.9758 B( 12-C , 14-H ) :   0.9723 B( 12-C , 15-H ) :   0.9695
B( 16-S , 17-C ) :   1.1873 B( 16-S , 20-C ) :   1.1585 B( 17-C , 18-C ) :   1.5618
B( 17-C , 33-H ) :   0.9631 B( 18-C , 19-C ) :   1.2581 B( 18-C , 21-H ) :   1.0051
B( 19-C , 20-C ) :   1.5627 B( 19-C , 22-C ) :   1.0613 B( 22-C , 23-H ) :   0.9326
B( 22-C , 24-H ) :   0.9221 B( 22-C , 25-C ) :   1.0463 B( 25-C , 26-H ) :   0.9539
B( 25-C , 27-H ) :   0.9674 B( 25-C , 28-C ) :   1.0717 B( 28-C , 29-H ) :   0.9777
B( 28-C , 30-H ) :   0.9776 B( 28-C , 31-H ) :   0.9805

Dispersion correction           -0.014125368
FINAL SINGLE POINT ENERGY     -1339.857869778795

DIPOLE MOMENT
-------------
                                X             Y             Z
Electronic contribution:     27.25868     -10.77039      11.81698
Nuclear contribution   :    -27.90724      10.92262     -12.16038
                        -----------------------------------------
Total Dipole Moment    :     -0.64856       0.15223      -0.34340
                        -----------------------------------------
Magnitude (a.u.)       :      0.74948
Magnitude (Debye)      :      1.90503

Rotational constants in cm-1:     0.018113     0.008648     0.006383
Rotational constants in MHz :   543.022949   259.269803   191.354912

                             ****ORCA TERMINATED NORMALLY****
TOTAL RUN TIME: 0 days 0 hours 0 minutes 34 seconds 458 msec
