                         Program Version 4.2.1 -  RELEASE  -
|  1> ! wB97X-D3 SP def2-SVP
|  2> %pal
|  3> nprocs 16
|  4> end
|  5>
|  6> * xyz 0 1
|  7> S 	 7.33557 	 18.8339 	 51.8899
|  8> C 	 8.3094 	 17.718 	 52.8248
|  9> C 	 9.5466 	 17.6777 	 52.2744
| 10> C 	 9.73914 	 18.6947 	 51.2598
| 11> C 	 8.6213 	 19.4408 	 50.9515
| 12> H 	 10.6479 	 18.8587 	 50.63
| 13> C 	 10.6501 	 16.8163 	 52.6358
| 14> H 	 10.5974 	 16.6169 	 53.7016
| 15> H 	 11.5436 	 17.3851 	 52.6095
| 16> C 	 10.8651 	 15.5409 	 51.7964
| 17> H 	 10.0262 	 14.8689 	 51.8937
| 18> H 	 11.0512 	 15.7077 	 50.7072
| 19> C 	 11.9956 	 14.6208 	 52.3522
| 20> H 	 11.6571 	 14.1031 	 53.2556
| 21> H 	 12.2617 	 13.8727 	 51.5725
| 22> H 	 12.831 	 15.2849 	 52.6228
| 23> S 	 9.32249 	 20.0677 	 48.368
| 24> C 	 8.49261 	 21.4625 	 47.6139
| 25> C 	 8.04548 	 22.2884 	 48.6145
| 26> C 	 7.9679 	 21.7284 	 49.9463
| 27> C 	 8.62411 	 20.494 	 49.9742
| 28> H 	 7.76254 	 23.2522 	 48.3247
| 29> C 	 7.15386 	 22.2908 	 51.0982
| 30> H 	 7.11256 	 21.6528 	 51.9679
| 31> H 	 6.11693 	 22.2878 	 50.8081
| 32> C 	 7.47876 	 23.7069 	 51.5809
| 33> H 	 7.20026 	 24.4315 	 50.8218
| 34> H 	 8.5078 	 23.6686 	 51.7584
| 35> C 	 6.66927 	 23.9849 	 52.88
| 36> H 	 5.64753 	 24.228 	 52.6349
| 37> H 	 7.08926 	 24.7993 	 53.5006
| 38> H 	 6.79864 	 23.1716 	 53.5954
| 39> H 	 7.83389 	 17.0575 	 53.5223
| 40> H 	 8.63001 	 21.7783 	 46.5944
| 41> *
| 42>
| 43>                          ****END OF INPUT****

CARTESIAN COORDINATES (ANGSTROEM)
---------------------------------
  S      7.335570   18.833900   51.889900
  C      8.309400   17.718000   52.824800
  C      9.546600   17.677700   52.274400
  C      9.739140   18.694700   51.259800
  C      8.621300   19.440800   50.951500
  H     10.647900   18.858700   50.630000
  C     10.650100   16.816300   52.635800
  H     10.597400   16.616900   53.701600
  H     11.543600   17.385100   52.609500
  C     10.865100   15.540900   51.796400
  H     10.026200   14.868900   51.893700
  H     11.051200   15.707700   50.707200
  C     11.995600   14.620800   52.352200
  H     11.657100   14.103100   53.255600
  H     12.261700   13.872700   51.572500
  H     12.831000   15.284900   52.622800
  S      9.322490   20.067700   48.368000
  C      8.492610   21.462500   47.613900
  C      8.045480   22.288400   48.614500
  C      7.967900   21.728400   49.946300
  C      8.624110   20.494000   49.974200
  H      7.762540   23.252200   48.324700
  C      7.153860   22.290800   51.098200
  H      7.112560   21.652800   51.967900
  H      6.116930   22.287800   50.808100
  C      7.478760   23.706900   51.580900
  H      7.200260   24.431500   50.821800
  H      8.507800   23.668600   51.758400
  C      6.669270   23.984900   52.880000
  H      5.647530   24.228000   52.634900
  H      7.089260   24.799300   53.500600
  H      6.798640   23.171600   53.595400
  H      7.833890   17.057500   53.522300
  H      8.630010   21.778300   46.594400

 Total Charge           Charge          ....    0
 Multiplicity           Mult            ....    1
 Number of Electrons    NEL             ....  134
 Basis Dimension        Dim             ....  322

ORBITAL ENERGIES
----------------

  NO   OCC          E(Eh)            E(eV)
   0   2.0000     -88.963839     -2420.8291
   1   2.0000     -88.962273     -2420.7865
   2   2.0000     -10.331619      -281.1376
   3   2.0000     -10.323363      -280.9130
   4   2.0000     -10.321224      -280.8548
   5   2.0000     -10.311273      -280.5840
   6   2.0000     -10.310798      -280.5711
   7   2.0000     -10.296928      -280.1936
   8   2.0000     -10.295033      -280.1421
   9   2.0000     -10.290465      -280.0178
  10   2.0000     -10.287737      -279.9436
  11   2.0000     -10.286333      -279.9053
  12   2.0000     -10.282675      -279.8058
  13   2.0000     -10.282040      -279.7885
  14   2.0000     -10.281730      -279.7801
  15   2.0000     -10.279327      -279.7147
  16   2.0000      -8.077602      -219.8027
  17   2.0000      -8.077327      -219.7953
  18   2.0000      -6.036157      -164.2522
  19   2.0000      -6.036136      -164.2516
  20   2.0000      -6.032161      -164.1434
  21   2.0000      -6.031864      -164.1354
  22   2.0000      -6.028407      -164.0413
  23   2.0000      -6.027680      -164.0215
  24   2.0000      -1.009823       -27.4787
  25   2.0000      -0.982013       -26.7219
  26   2.0000      -0.915673       -24.9167
  27   2.0000      -0.910040       -24.7635
  28   2.0000      -0.874680       -23.8013
  29   2.0000      -0.849669       -23.1207
  30   2.0000      -0.844224       -22.9725
  31   2.0000      -0.813290       -22.1307
  32   2.0000      -0.780979       -21.2515
  33   2.0000      -0.772485       -21.0204
  34   2.0000      -0.709154       -19.2971
  35   2.0000      -0.701994       -19.1022
  36   2.0000      -0.697301       -18.9745
  37   2.0000      -0.664917       -18.0933
  38   2.0000      -0.640199       -17.4207
  39   2.0000      -0.615487       -16.7483
  40   2.0000      -0.599253       -16.3065
  41   2.0000      -0.579272       -15.7628
  42   2.0000      -0.573905       -15.6167
  43   2.0000      -0.558331       -15.1929
  44   2.0000      -0.531399       -14.4601
  45   2.0000      -0.524239       -14.2653
  46   2.0000      -0.520099       -14.1526
  47   2.0000      -0.512424       -13.9438
  48   2.0000      -0.505774       -13.7628
  49   2.0000      -0.504915       -13.7394
  50   2.0000      -0.488681       -13.2977
  51   2.0000      -0.481425       -13.1002
  52   2.0000      -0.470263       -12.7965
  53   2.0000      -0.465557       -12.6684
  54   2.0000      -0.456862       -12.4318
  55   2.0000      -0.446075       -12.1383
  56   2.0000      -0.443242       -12.0612
  57   2.0000      -0.433711       -11.8019
  58   2.0000      -0.428202       -11.6520
  59   2.0000      -0.425515       -11.5789
  60   2.0000      -0.422015       -11.4836
  61   2.0000      -0.416685       -11.3386
  62   2.0000      -0.408179       -11.1071
  63   2.0000      -0.353778        -9.6268
  64   2.0000      -0.326511        -8.8848
  65   2.0000      -0.323863        -8.8128
  66   2.0000      -0.293292        -7.9809
  67   0.0000       0.025791         0.7018
  68   0.0000       0.070605         1.9213
  69   0.0000       0.103138         2.8065
  70   0.0000       0.117413         3.1950
  71   0.0000       0.132241         3.5985

MULLIKEN ATOMIC CHARGES
-----------------------
   0 S :    0.099789
   1 C :   -0.131921
   2 C :   -0.045230
   3 C :   -0.034190
   4 C :   -0.097682
   5 H :    0.026825
   6 C :    0.079241
   7 H :    0.011031
   8 H :    0.007723
   9 C :   -0.074569
  10 H :    0.023314
  11 H :    0.042374
  12 C :   -0.071272
  13 H :    0.035882
  14 H :    0.047769
  15 H :    0.030007
  16 S :    0.077317
  17 C :   -0.086426
  18 C :   -0.015121
  19 C :   -0.004343
  20 C :   -0.157875
  21 H :   -0.001008
  22 C :    0.047728
  23 H :    0.007433
  24 H :    0.025258
  25 C :   -0.058015
  26 H :    0.035397
  27 H :    0.025289
  28 C :   -0.057278
  29 H :    0.039415
  30 H :    0.031673
  31 H :    0.030925
  32 H :    0.048898
  33 H :    0.061642
Sum of atomic charges:    0.0000000

LOEWDIN ATOMIC CHARGES
----------------------
   0 S :    0.425564
   1 C :   -0.191127
   2 C :   -0.063422
   3 C :   -0.076499
   4 C :   -0.210373
   5 H :    0.031835
   6 C :   -0.039498
   7 H :    0.032543
   8 H :    0.027560
   9 C :   -0.038353
  10 H :    0.021456
  11 H :    0.029402
  12 C :   -0.067155
  13 H :    0.023583
  14 H :    0.032200
  15 H :    0.021862
  16 S :    0.363040
  17 C :   -0.165411
  18 C :   -0.058667
  19 C :   -0.046590
  20 C :   -0.171119
  21 H :    0.020001
  22 C :   -0.036750
  23 H :    0.019442
  24 H :    0.031266
  25 C :   -0.029800
  26 H :    0.023300
  27 H :    0.018043
  28 C :   -0.065276
  29 H :    0.025061
  30 H :    0.029600
  31 H :    0.026850
  32 H :    0.027620
  33 H :    0.029813

  Mayer bond orders larger than 0.100000
B(  0-S ,  1-C ) :   1.1312 B(  0-S ,  4-C ) :   1.1531 B(  1-C ,  2-C ) :   1.5867
B(  1-C , 32-H ) :   0.9803 B(  2-C ,  3-C ) :   1.2362 B(  2-C ,  6-C ) :   1.0505
B(  3-C ,  4-C ) :   1.5436 B(  3-C ,  5-H ) :   0.9910 B(  4-C , 20-C ) :   1.0620
B(  6-C ,  7-H ) :   0.9353 B(  6-C ,  8-H ) :   0.9262 B(  6-C ,  9-C ) :   1.0592
B(  9-C , 10-H ) :   0.9592 B(  9-C , 11-H ) :   0.9584 B(  9-C , 12-C ) :   1.0719
B( 12-C , 13-H ) :   0.9794 B( 12-C , 14-H ) :   0.9753 B( 12-C , 15-H ) :   0.9767
B( 16-S , 17-C ) :   1.1229 B( 16-S , 20-C ) :   1.1150 B( 17-C , 18-C ) :   1.6585
B( 17-C , 33-H ) :   0.9656 B( 18-C , 19-C ) :   1.1861 B( 18-C , 21-H ) :   0.9937
B( 19-C , 20-C ) :   1.6051 B( 19-C , 22-C ) :   1.0457 B( 22-C , 23-H ) :   0.9341
B( 22-C , 24-H ) :   0.9286 B( 22-C , 25-C ) :   1.0566 B( 25-C , 26-H ) :   0.9560
B( 25-C , 27-H ) :   0.9601 B( 25-C , 28-C ) :   1.0880 B( 28-C , 29-H ) :   0.9766
B( 28-C , 30-H ) :   0.9742 B( 28-C , 31-H ) :   0.9732

Dispersion correction           -0.013352326
FINAL SINGLE POINT ENERGY     -1339.867749978467

DIPOLE MOMENT
-------------
                                X             Y             Z
Electronic contribution:     -5.50717       0.95436     -13.07910
Nuclear contribution   :      5.56111      -0.81900      13.24769
                        -----------------------------------------
Total Dipole Moment    :      0.05394       0.13536       0.16859
                        -----------------------------------------
Magnitude (a.u.)       :      0.22283
Magnitude (Debye)      :      0.56639

Rotational constants in cm-1:     0.021418     0.007419     0.005981
Rotational constants in MHz :   642.096857   222.404977   179.309926

                             ****ORCA TERMINATED NORMALLY****
TOTAL RUN TIME: 0 days 0 hours 0 minutes 31 seconds 162 msec
