                         Program Version 4.2.1 -  RELEASE  -
|  1> ! wB97X-D3 SP def2-SVP
|  2> %pal
|  3> nprocs 16
|  4> end
|  5>
|  6> * xyz 0 1
|  7> S 	 11.2503 	 -12.2032 	 80.8806
|  8> C 	 11.7779 	 -13.768 	 81.5057
|  9> C 	 11.3139 	 -14.7443 	 80.6014
| 10> C 	 10.8074 	 -14.2609 	 79.3585
| 11> C 	 10.7106 	 -12.8725 	 79.3648
| 12> H 	 10.3656 	 -14.7943 	 78.5679
| 13> C 	 11.3601 	 -16.2113 	 80.8673
| 14> H 	 12.0869 	 -16.221 	 81.6883
| 15> H 	 11.8363 	 -16.6747 	 79.992
| 16> C 	 10.0955 	 -16.9529 	 81.33
| 17> H 	 9.78473 	 -16.6429 	 82.2813
| 18> H 	 9.24929 	 -16.8728 	 80.6078
| 19> C 	 10.3286 	 -18.4671 	 81.4561
| 20> H 	 11.0954 	 -18.7149 	 82.1302
| 21> H 	 9.44058 	 -18.8999 	 81.8907
| 22> H 	 10.6427 	 -19.0569 	 80.5288
| 23> S 	 10.8073 	 -11.9073 	 76.9051
| 24> C 	 9.50261 	 -11.1 	 76.1905
| 25> C 	 8.39246 	 -11.1224 	 77.0601
| 26> C 	 8.65228 	 -11.6302 	 78.3487
| 27> C 	 9.93303 	 -12.154 	 78.4012
| 28> H 	 7.51775 	 -10.6363 	 76.7565
| 29> C 	 7.53725 	 -11.7231 	 79.4098
| 30> H 	 7.66421 	 -12.6393 	 79.8592
| 31> H 	 6.59504 	 -11.6239 	 78.9022
| 32> C 	 7.58408 	 -10.5569 	 80.5779
| 33> H 	 7.43839 	 -9.51669 	 80.1668
| 34> H 	 8.62457 	 -10.5854 	 80.932
| 35> C 	 6.56664 	 -10.727 	 81.7253
| 36> H 	 5.5032 	 -10.75 	 81.4618
| 37> H 	 6.50419 	 -9.85995 	 82.4345
| 38> H 	 6.6 	 -11.7278 	 82.3174
| 39> H 	 12.1749 	 -13.8831 	 82.4644
| 40> H 	 9.51336 	 -10.6949 	 75.194
| 41> *
| 42>
| 43>                          ****END OF INPUT****

CARTESIAN COORDINATES (ANGSTROEM)
---------------------------------
  S     11.250300  -12.203200   80.880600
  C     11.777900  -13.768000   81.505700
  C     11.313900  -14.744300   80.601400
  C     10.807400  -14.260900   79.358500
  C     10.710600  -12.872500   79.364800
  H     10.365600  -14.794300   78.567900
  C     11.360100  -16.211300   80.867300
  H     12.086900  -16.221000   81.688300
  H     11.836300  -16.674700   79.992000
  C     10.095500  -16.952900   81.330000
  H      9.784730  -16.642900   82.281300
  H      9.249290  -16.872800   80.607800
  C     10.328600  -18.467100   81.456100
  H     11.095400  -18.714900   82.130200
  H      9.440580  -18.899900   81.890700
  H     10.642700  -19.056900   80.528800
  S     10.807300  -11.907300   76.905100
  C      9.502610  -11.100000   76.190500
  C      8.392460  -11.122400   77.060100
  C      8.652280  -11.630200   78.348700
  C      9.933030  -12.154000   78.401200
  H      7.517750  -10.636300   76.756500
  C      7.537250  -11.723100   79.409800
  H      7.664210  -12.639300   79.859200
  H      6.595040  -11.623900   78.902200
  C      7.584080  -10.556900   80.577900
  H      7.438390   -9.516690   80.166800
  H      8.624570  -10.585400   80.932000
  C      6.566640  -10.727000   81.725300
  H      5.503200  -10.750000   81.461800
  H      6.504190   -9.859950   82.434500
  H      6.600000  -11.727800   82.317400
  H     12.174900  -13.883100   82.464400
  H      9.513360  -10.694900   75.194000

 Total Charge           Charge          ....    0
 Multiplicity           Mult            ....    1
 Number of Electrons    NEL             ....  134
 Basis Dimension        Dim             ....  322

ORBITAL ENERGIES
----------------

  NO   OCC          E(Eh)            E(eV)
   0   2.0000     -88.966712     -2420.9073
   1   2.0000     -88.964127     -2420.8370
   2   2.0000     -10.326559      -280.9999
   3   2.0000     -10.321210      -280.8544
   4   2.0000     -10.316301      -280.7208
   5   2.0000     -10.312906      -280.6284
   6   2.0000     -10.303906      -280.3835
   7   2.0000     -10.303483      -280.3720
   8   2.0000     -10.299043      -280.2512
   9   2.0000     -10.293953      -280.1127
  10   2.0000     -10.290714      -280.0246
  11   2.0000     -10.289313      -279.9864
  12   2.0000     -10.289263      -279.9851
  13   2.0000     -10.288584      -279.9666
  14   2.0000     -10.287509      -279.9373
  15   2.0000     -10.277068      -279.6532
  16   2.0000      -8.080854      -219.8912
  17   2.0000      -8.079933      -219.8662
  18   2.0000      -6.039282      -164.3372
  19   2.0000      -6.038215      -164.3082
  20   2.0000      -6.035340      -164.2299
  21   2.0000      -6.034075      -164.1955
  22   2.0000      -6.031831      -164.1345
  23   2.0000      -6.031083      -164.1141
  24   2.0000      -1.010318       -27.4922
  25   2.0000      -0.985107       -26.8061
  26   2.0000      -0.912098       -24.8194
  27   2.0000      -0.894884       -24.3510
  28   2.0000      -0.872183       -23.7333
  29   2.0000      -0.852025       -23.1848
  30   2.0000      -0.848694       -23.0941
  31   2.0000      -0.811704       -22.0876
  32   2.0000      -0.782331       -21.2883
  33   2.0000      -0.768720       -20.9179
  34   2.0000      -0.707654       -19.2563
  35   2.0000      -0.702690       -19.1212
  36   2.0000      -0.695819       -18.9342
  37   2.0000      -0.668275       -18.1847
  38   2.0000      -0.649718       -17.6797
  39   2.0000      -0.614352       -16.7174
  40   2.0000      -0.592958       -16.1352
  41   2.0000      -0.572329       -15.5739
  42   2.0000      -0.561304       -15.2739
  43   2.0000      -0.554242       -15.0817
  44   2.0000      -0.528456       -14.3800
  45   2.0000      -0.525789       -14.3074
  46   2.0000      -0.516149       -14.0451
  47   2.0000      -0.510586       -13.8937
  48   2.0000      -0.506216       -13.7748
  49   2.0000      -0.498549       -13.5662
  50   2.0000      -0.498210       -13.5570
  51   2.0000      -0.475766       -12.9463
  52   2.0000      -0.473169       -12.8756
  53   2.0000      -0.461878       -12.5683
  54   2.0000      -0.460249       -12.5240
  55   2.0000      -0.450146       -12.2491
  56   2.0000      -0.443886       -12.0788
  57   2.0000      -0.440894       -11.9973
  58   2.0000      -0.428206       -11.6521
  59   2.0000      -0.425397       -11.5756
  60   2.0000      -0.419264       -11.4087
  61   2.0000      -0.417213       -11.3529
  62   2.0000      -0.407289       -11.0829
  63   2.0000      -0.338596        -9.2137
  64   2.0000      -0.330550        -8.9947
  65   2.0000      -0.323013        -8.7896
  66   2.0000      -0.299370        -8.1463
  67   0.0000       0.038184         1.0391
  68   0.0000       0.056750         1.5443
  69   0.0000       0.107965         2.9379
  70   0.0000       0.124429         3.3859
  71   0.0000       0.132775         3.6130

MULLIKEN ATOMIC CHARGES
-----------------------
   0 S :    0.109302
   1 C :   -0.100508
   2 C :   -0.095546
   3 C :    0.065293
   4 C :   -0.134206
   5 H :    0.003626
   6 C :    0.048791
   7 H :    0.009792
   8 H :    0.033259
   9 C :   -0.017872
  10 H :    0.015045
  11 H :    0.034023
  12 C :   -0.063357
  13 H :    0.011312
  14 H :    0.029671
  15 H :    0.039180
  16 S :    0.126627
  17 C :   -0.091410
  18 C :   -0.041829
  19 C :   -0.003019
  20 C :   -0.237909
  21 H :   -0.004819
  22 C :    0.127045
  23 H :    0.016049
  24 H :    0.019156
  25 C :   -0.076768
  26 H :    0.039214
  27 H :    0.033424
  28 C :   -0.089543
  29 H :    0.020501
  30 H :    0.042051
  31 H :    0.041619
  32 H :    0.035209
  33 H :    0.056596
Sum of atomic charges:    0.0000000

LOEWDIN ATOMIC CHARGES
----------------------
   0 S :    0.413468
   1 C :   -0.192975
   2 C :   -0.057043
   3 C :   -0.053300
   4 C :   -0.205594
   5 H :    0.027134
   6 C :   -0.039311
   7 H :    0.030846
   8 H :    0.033806
   9 C :   -0.029624
  10 H :    0.019455
  11 H :    0.028347
  12 C :   -0.068601
  13 H :    0.014054
  14 H :    0.025484
  15 H :    0.031927
  16 S :    0.445155
  17 C :   -0.205229
  18 C :   -0.069405
  19 C :   -0.053857
  20 C :   -0.205786
  21 H :    0.019065
  22 C :   -0.009047
  23 H :    0.020729
  24 H :    0.028022
  25 C :   -0.040217
  26 H :    0.030791
  27 H :    0.018378
  28 C :   -0.092315
  29 H :    0.022646
  30 H :    0.033357
  31 H :    0.034097
  32 H :    0.017832
  33 H :    0.027709

  Mayer bond orders larger than 0.100000
B(  0-S ,  1-C ) :   1.1341 B(  0-S ,  4-C ) :   1.1674 B(  1-C ,  2-C ) :   1.5753
B(  1-C , 32-H ) :   0.9815 B(  2-C ,  3-C ) :   1.2493 B(  2-C ,  6-C ) :   1.0343
B(  3-C ,  4-C ) :   1.5464 B(  3-C ,  5-H ) :   0.9999 B(  4-C , 20-C ) :   1.0127
B(  6-C ,  7-H ) :   0.9350 B(  6-C ,  8-H ) :   0.9427 B(  6-C ,  9-C ) :   1.0682
B(  9-C , 10-H ) :   0.9499 B(  9-C , 11-H ) :   0.9580 B(  9-C , 12-C ) :   1.0825
B( 12-C , 13-H ) :   0.9739 B( 12-C , 14-H ) :   0.9741 B( 12-C , 15-H ) :   0.9752
B( 16-S , 17-C ) :   1.1835 B( 16-S , 20-C ) :   1.1779 B( 17-C , 18-C ) :   1.5639
B( 17-C , 20-C ) :   0.1113 B( 17-C , 33-H ) :   0.9716 B( 18-C , 19-C ) :   1.2697
B( 18-C , 21-H ) :   0.9960 B( 19-C , 20-C ) :   1.5655 B( 19-C , 22-C ) :   1.0386
B( 22-C , 23-H ) :   0.9347 B( 22-C , 24-H ) :   0.9385 B( 22-C , 25-C ) :   1.0478
B( 25-C , 26-H ) :   0.9585 B( 25-C , 27-H ) :   0.9563 B( 25-C , 28-C ) :   1.0707
B( 28-C , 29-H ) :   0.9727 B( 28-C , 30-H ) :   0.9741 B( 28-C , 31-H ) :   0.9741

Dispersion correction           -0.014037890
FINAL SINGLE POINT ENERGY     -1339.860219510209

DIPOLE MOMENT
-------------
                                X             Y             Z
Electronic contribution:     14.74524      14.05733     -14.84320
Nuclear contribution   :    -15.21684     -14.41071      15.02102
                        -----------------------------------------
Total Dipole Moment    :     -0.47160      -0.35338       0.17781
                        -----------------------------------------
Magnitude (a.u.)       :      0.61555
Magnitude (Debye)      :      1.56460

Rotational constants in cm-1:     0.016891     0.008329     0.007018
Rotational constants in MHz :   506.371430   249.705232   210.381204

                             ****ORCA TERMINATED NORMALLY****
TOTAL RUN TIME: 0 days 0 hours 0 minutes 29 seconds 346 msec
