                         Program Version 4.2.1 -  RELEASE  -
|  1> ! wB97X-D3 SP def2-SVP
|  2> %pal
|  3> nprocs 16
|  4> end
|  5>
|  6> * xyz 0 1
|  7> S 	 -5.78369 	 50.6166 	 30.8326
|  8> C 	 -4.79623 	 49.4556 	 31.6035
|  9> C 	 -5.22151 	 49.1305 	 32.8557
| 10> C 	 -6.35278 	 49.9488 	 33.3075
| 11> C 	 -6.58605 	 50.9745 	 32.403
| 12> H 	 -6.854 	 49.8775 	 34.2192
| 13> C 	 -4.59744 	 47.9659 	 33.6212
| 14> H 	 -3.59812 	 48.3757 	 33.9009
| 15> H 	 -4.34293 	 47.2036 	 32.9445
| 16> C 	 -5.37945 	 47.5357 	 34.8738
| 17> H 	 -5.50125 	 48.3679 	 35.5536
| 18> H 	 -6.36706 	 47.1952 	 34.6085
| 19> C 	 -4.75939 	 46.396 	 35.6084
| 20> H 	 -4.62437 	 45.596 	 34.9132
| 21> H 	 -3.76007 	 46.6045 	 36.0637
| 22> H 	 -5.47921 	 46.1688 	 36.4018
| 23> S 	 -8.62479 	 52.4117 	 31.2713
| 24> C 	 -9.6078 	 53.4787 	 32.2921
| 25> C 	 -9.30267 	 53.4052 	 33.6227
| 26> C 	 -8.06927 	 52.6491 	 33.7901
| 27> C 	 -7.65693 	 51.9827 	 32.6541
| 28> H 	 -9.97039 	 54.0287 	 34.2675
| 29> C 	 -7.43476 	 52.6245 	 35.1878
| 30> H 	 -6.36024 	 52.3499 	 35.1193
| 31> H 	 -7.81518 	 51.7637 	 35.7013
| 32> C 	 -7.54959 	 53.8895 	 36.0837
| 33> H 	 -8.58779 	 54.0559 	 36.3646
| 34> H 	 -7.28783 	 54.7534 	 35.5218
| 35> C 	 -6.61981 	 53.7876 	 37.2488
| 36> H 	 -5.63219 	 54.0916 	 36.9099
| 37> H 	 -6.60373 	 52.806 	 37.6526
| 38> H 	 -6.91009 	 54.4582 	 38.0585
| 39> H 	 -4.01024 	 48.9748 	 31.0949
| 40> H 	 -10.4867 	 53.9062 	 31.8662
| 41> *
| 42>
| 43>                          ****END OF INPUT****

CARTESIAN COORDINATES (ANGSTROEM)
---------------------------------
  S     -5.783690   50.616600   30.832600
  C     -4.796230   49.455600   31.603500
  C     -5.221510   49.130500   32.855700
  C     -6.352780   49.948800   33.307500
  C     -6.586050   50.974500   32.403000
  H     -6.854000   49.877500   34.219200
  C     -4.597440   47.965900   33.621200
  H     -3.598120   48.375700   33.900900
  H     -4.342930   47.203600   32.944500
  C     -5.379450   47.535700   34.873800
  H     -5.501250   48.367900   35.553600
  H     -6.367060   47.195200   34.608500
  C     -4.759390   46.396000   35.608400
  H     -4.624370   45.596000   34.913200
  H     -3.760070   46.604500   36.063700
  H     -5.479210   46.168800   36.401800
  S     -8.624790   52.411700   31.271300
  C     -9.607800   53.478700   32.292100
  C     -9.302670   53.405200   33.622700
  C     -8.069270   52.649100   33.790100
  C     -7.656930   51.982700   32.654100
  H     -9.970390   54.028700   34.267500
  C     -7.434760   52.624500   35.187800
  H     -6.360240   52.349900   35.119300
  H     -7.815180   51.763700   35.701300
  C     -7.549590   53.889500   36.083700
  H     -8.587790   54.055900   36.364600
  H     -7.287830   54.753400   35.521800
  C     -6.619810   53.787600   37.248800
  H     -5.632190   54.091600   36.909900
  H     -6.603730   52.806000   37.652600
  H     -6.910090   54.458200   38.058500
  H     -4.010240   48.974800   31.094900
  H    -10.486700   53.906200   31.866200

 Total Charge           Charge          ....    0
 Multiplicity           Mult            ....    1
 Number of Electrons    NEL             ....  134
 Basis Dimension        Dim             ....  322

ORBITAL ENERGIES
----------------

  NO   OCC          E(Eh)            E(eV)
   0   2.0000     -88.965514     -2420.8747
   1   2.0000     -88.959519     -2420.7116
   2   2.0000     -10.334396      -281.2132
   3   2.0000     -10.327525      -281.0262
   4   2.0000     -10.313372      -280.6411
   5   2.0000     -10.308006      -280.4951
   6   2.0000     -10.303302      -280.3671
   7   2.0000     -10.299956      -280.2760
   8   2.0000     -10.299711      -280.2694
   9   2.0000     -10.294547      -280.1289
  10   2.0000     -10.291032      -280.0332
  11   2.0000     -10.290509      -280.0190
  12   2.0000     -10.284566      -279.8573
  13   2.0000     -10.281153      -279.7644
  14   2.0000     -10.277597      -279.6676
  15   2.0000     -10.273053      -279.5440
  16   2.0000      -8.080219      -219.8739
  17   2.0000      -8.074694      -219.7236
  18   2.0000      -6.038904      -164.3269
  19   2.0000      -6.034929      -164.2188
  20   2.0000      -6.033168      -164.1708
  21   2.0000      -6.030617      -164.1014
  22   2.0000      -6.029292      -164.0654
  23   2.0000      -6.025331      -163.9576
  24   2.0000      -1.002712       -27.2852
  25   2.0000      -0.982543       -26.7363
  26   2.0000      -0.914853       -24.8944
  27   2.0000      -0.909665       -24.7532
  28   2.0000      -0.872191       -23.7335
  29   2.0000      -0.854399       -23.2494
  30   2.0000      -0.846740       -23.0410
  31   2.0000      -0.820243       -22.3200
  32   2.0000      -0.777490       -21.1566
  33   2.0000      -0.768389       -20.9089
  34   2.0000      -0.711840       -19.3702
  35   2.0000      -0.703200       -19.1350
  36   2.0000      -0.687112       -18.6973
  37   2.0000      -0.656852       -17.8738
  38   2.0000      -0.642608       -17.4863
  39   2.0000      -0.619321       -16.8526
  40   2.0000      -0.595921       -16.2158
  41   2.0000      -0.574041       -15.6205
  42   2.0000      -0.569226       -15.4894
  43   2.0000      -0.565079       -15.3766
  44   2.0000      -0.536923       -14.6104
  45   2.0000      -0.524616       -14.2755
  46   2.0000      -0.516670       -14.0593
  47   2.0000      -0.509813       -13.8727
  48   2.0000      -0.501498       -13.6465
  49   2.0000      -0.499929       -13.6038
  50   2.0000      -0.496297       -13.5049
  51   2.0000      -0.477756       -13.0004
  52   2.0000      -0.471404       -12.8276
  53   2.0000      -0.468796       -12.7566
  54   2.0000      -0.456544       -12.4232
  55   2.0000      -0.448885       -12.2148
  56   2.0000      -0.446946       -12.1620
  57   2.0000      -0.437948       -11.9172
  58   2.0000      -0.432725       -11.7750
  59   2.0000      -0.425351       -11.5744
  60   2.0000      -0.422352       -11.4928
  61   2.0000      -0.418288       -11.3822
  62   2.0000      -0.414660       -11.2835
  63   2.0000      -0.356790        -9.7088
  64   2.0000      -0.330493        -8.9932
  65   2.0000      -0.321829        -8.7574
  66   2.0000      -0.285301        -7.7634
  67   0.0000       0.027346         0.7441
  68   0.0000       0.079737         2.1697
  69   0.0000       0.095307         2.5934
  70   0.0000       0.127119         3.4591
  71   0.0000       0.137726         3.7477

MULLIKEN ATOMIC CHARGES
-----------------------
   0 S :    0.106836
   1 C :   -0.104073
   2 C :   -0.082959
   3 C :    0.008637
   4 C :   -0.096209
   5 H :   -0.003385
   6 C :    0.077588
   7 H :    0.034506
   8 H :    0.013319
   9 C :   -0.092461
  10 H :    0.029732
  11 H :    0.028825
  12 C :   -0.019632
  13 H :    0.023019
  14 H :    0.033426
  15 H :    0.035635
  16 S :    0.076666
  17 C :   -0.092163
  18 C :   -0.046830
  19 C :   -0.054438
  20 C :   -0.132178
  21 H :    0.048268
  22 C :    0.015410
  23 H :    0.025485
  24 H :    0.032158
  25 C :   -0.053661
  26 H :    0.024762
  27 H :    0.023977
  28 C :   -0.020255
  29 H :    0.034512
  30 H :    0.021369
  31 H :    0.029086
  32 H :    0.026626
  33 H :    0.048402
Sum of atomic charges:   -0.0000000

LOEWDIN ATOMIC CHARGES
----------------------
   0 S :    0.392938
   1 C :   -0.202861
   2 C :   -0.057812
   3 C :   -0.050814
   4 C :   -0.171923
   5 H :    0.020931
   6 C :   -0.031668
   7 H :    0.039855
   8 H :    0.021834
   9 C :   -0.042402
  10 H :    0.022781
  11 H :    0.024497
  12 C :   -0.059418
  13 H :    0.020336
  14 H :    0.026758
  15 H :    0.030358
  16 S :    0.382213
  17 C :   -0.167081
  18 C :   -0.075060
  19 C :   -0.059100
  20 C :   -0.192030
  21 H :    0.047273
  22 C :   -0.037509
  23 H :    0.031769
  24 H :    0.025876
  25 C :   -0.038784
  26 H :    0.019040
  27 H :    0.022554
  28 C :   -0.056963
  29 H :    0.028865
  30 H :    0.019058
  31 H :    0.028518
  32 H :    0.018988
  33 H :    0.018983

  Mayer bond orders larger than 0.100000
B(  0-S ,  1-C ) :   1.1255 B(  0-S ,  4-C ) :   1.1382 B(  1-C ,  2-C ) :   1.6390
B(  1-C , 32-H ) :   0.9772 B(  2-C ,  3-C ) :   1.2138 B(  2-C ,  6-C ) :   1.0048
B(  3-C ,  4-C ) :   1.5565 B(  3-C ,  5-H ) :   1.0054 B(  4-C , 20-C ) :   1.0515
B(  6-C ,  7-H ) :   0.9308 B(  6-C ,  8-H ) :   0.9434 B(  6-C ,  9-C ) :   1.0830
B(  9-C , 10-H ) :   0.9447 B(  9-C , 11-H ) :   0.9531 B(  9-C , 12-C ) :   1.0971
B( 12-C , 13-H ) :   0.9728 B( 12-C , 14-H ) :   0.9731 B( 12-C , 15-H ) :   0.9719
B( 16-S , 17-C ) :   1.1440 B( 16-S , 20-C ) :   1.1226 B( 17-C , 18-C ) :   1.6621
B( 17-C , 33-H ) :   0.9663 B( 18-C , 19-C ) :   1.1806 B( 18-C , 21-H ) :   0.9808
B( 19-C , 20-C ) :   1.6504 B( 19-C , 22-C ) :   1.0332 B( 22-C , 23-H ) :   0.9410
B( 22-C , 24-H ) :   0.9250 B( 22-C , 25-C ) :   1.0628 B( 25-C , 26-H ) :   0.9474
B( 25-C , 27-H ) :   0.9589 B( 25-C , 28-C ) :   1.0907 B( 28-C , 29-H ) :   0.9741
B( 28-C , 30-H ) :   0.9742 B( 28-C , 31-H ) :   0.9705

Dispersion correction           -0.013323882
FINAL SINGLE POINT ENERGY     -1339.870458869142

DIPOLE MOMENT
-------------
                                X             Y             Z
Electronic contribution:     -7.86076       7.83020     -29.50701
Nuclear contribution   :      7.88823      -8.07989      30.23777
                        -----------------------------------------
Total Dipole Moment    :      0.02747      -0.24969       0.73076
                        -----------------------------------------
Magnitude (a.u.)       :      0.77273
Magnitude (Debye)      :      1.96412

Rotational constants in cm-1:     0.015625     0.008925     0.006277
Rotational constants in MHz :   468.418055   267.553680   188.177094

                             ****ORCA TERMINATED NORMALLY****
TOTAL RUN TIME: 0 days 0 hours 0 minutes 32 seconds 830 msec
