                         Program Version 4.2.1 -  RELEASE  -
|  1> ! wB97X-D3 SP def2-SVP
|  2> %pal
|  3> nprocs 16
|  4> end
|  5>
|  6> * xyz 0 1
|  7> S 	 -68.833 	 52.0483 	 121.414
|  8> C 	 -68.6477 	 51.6241 	 123.121
|  9> C 	 -69.8016 	 51.8551 	 123.824
| 10> C 	 -70.8662 	 52.4562 	 123.055
| 11> C 	 -70.5354 	 52.6192 	 121.719
| 12> H 	 -71.8653 	 52.7404 	 123.335
| 13> C 	 -70.0075 	 51.3691 	 125.265
| 14> H 	 -70.6278 	 52.0719 	 125.794
| 15> H 	 -69.0021 	 51.2382 	 125.803
| 16> C 	 -70.7234 	 49.99 	 125.349
| 17> H 	 -71.7104 	 50.0005 	 124.772
| 18> H 	 -70.16 	 49.2047 	 124.803
| 19> C 	 -70.988 	 49.4741 	 126.857
| 20> H 	 -71.4423 	 50.2604 	 127.463
| 21> H 	 -71.7183 	 48.6544 	 126.933
| 22> H 	 -70.0384 	 49.2498 	 127.45
| 23> S 	 -70.8628 	 54.5049 	 119.667
| 24> C 	 -72.3907 	 54.778 	 118.928
| 25> C 	 -73.3159 	 53.8439 	 119.418
| 26> C 	 -72.8003 	 53.0564 	 120.478
| 27> C 	 -71.3736 	 53.1469 	 120.601
| 28> H 	 -74.3749 	 53.9226 	 119.058
| 29> C 	 -73.5729 	 51.9893 	 121.264
| 30> H 	 -74.6231 	 52.0045 	 120.92
| 31> H 	 -73.6851 	 52.3928 	 122.235
| 32> C 	 -73.0863 	 50.5638 	 121.255
| 33> H 	 -72.0957 	 50.4518 	 121.606
| 34> H 	 -73.0365 	 50.3637 	 120.187
| 35> C 	 -73.9545 	 49.515 	 122.062
| 36> H 	 -73.5999 	 48.5083 	 121.893
| 37> H 	 -75.0263 	 49.4277 	 121.768
| 38> H 	 -73.9592 	 49.7338 	 123.136
| 39> H 	 -67.7385 	 51.1541 	 123.504
| 40> H 	 -72.6663 	 55.3249 	 118.074
| 41> *
| 42>
| 43>                          ****END OF INPUT****

CARTESIAN COORDINATES (ANGSTROEM)
---------------------------------
  S    -68.833000   52.048300  121.414000
  C    -68.647700   51.624100  123.121000
  C    -69.801600   51.855100  123.824000
  C    -70.866200   52.456200  123.055000
  C    -70.535400   52.619200  121.719000
  H    -71.865300   52.740400  123.335000
  C    -70.007500   51.369100  125.265000
  H    -70.627800   52.071900  125.794000
  H    -69.002100   51.238200  125.803000
  C    -70.723400   49.990000  125.349000
  H    -71.710400   50.000500  124.772000
  H    -70.160000   49.204700  124.803000
  C    -70.988000   49.474100  126.857000
  H    -71.442300   50.260400  127.463000
  H    -71.718300   48.654400  126.933000
  H    -70.038400   49.249800  127.450000
  S    -70.862800   54.504900  119.667000
  C    -72.390700   54.778000  118.928000
  C    -73.315900   53.843900  119.418000
  C    -72.800300   53.056400  120.478000
  C    -71.373600   53.146900  120.601000
  H    -74.374900   53.922600  119.058000
  C    -73.572900   51.989300  121.264000
  H    -74.623100   52.004500  120.920000
  H    -73.685100   52.392800  122.235000
  C    -73.086300   50.563800  121.255000
  H    -72.095700   50.451800  121.606000
  H    -73.036500   50.363700  120.187000
  C    -73.954500   49.515000  122.062000
  H    -73.599900   48.508300  121.893000
  H    -75.026300   49.427700  121.768000
  H    -73.959200   49.733800  123.136000
  H    -67.738500   51.154100  123.504000
  H    -72.666300   55.324900  118.074000

 Total Charge           Charge          ....    0
 Multiplicity           Mult            ....    1
 Number of Electrons    NEL             ....  134
 Basis Dimension        Dim             ....  322

ORBITAL ENERGIES
----------------

  NO   OCC          E(Eh)            E(eV)
   0   2.0000     -88.971185     -2421.0290
   1   2.0000     -88.966210     -2420.8936
   2   2.0000     -10.341373      -281.4031
   3   2.0000     -10.331793      -281.1424
   4   2.0000     -10.319439      -280.8062
   5   2.0000     -10.316369      -280.7227
   6   2.0000     -10.310670      -280.5676
   7   2.0000     -10.307954      -280.4937
   8   2.0000     -10.302650      -280.3494
   9   2.0000     -10.302509      -280.3455
  10   2.0000     -10.301234      -280.3108
  11   2.0000     -10.301148      -280.3085
  12   2.0000     -10.291605      -280.0488
  13   2.0000     -10.289019      -279.9785
  14   2.0000     -10.283691      -279.8335
  15   2.0000     -10.281649      -279.7779
  16   2.0000      -8.086180      -220.0361
  17   2.0000      -8.079728      -219.8606
  18   2.0000      -6.044595      -164.4818
  19   2.0000      -6.040313      -164.3653
  20   2.0000      -6.038328      -164.3113
  21   2.0000      -6.037335      -164.2842
  22   2.0000      -6.034484      -164.2067
  23   2.0000      -6.030388      -164.0952
  24   2.0000      -1.005312       -27.3559
  25   2.0000      -0.981847       -26.7174
  26   2.0000      -0.908430       -24.7196
  27   2.0000      -0.899400       -24.4739
  28   2.0000      -0.865220       -23.5438
  29   2.0000      -0.847555       -23.0631
  30   2.0000      -0.839525       -22.8446
  31   2.0000      -0.816289       -22.2124
  32   2.0000      -0.781715       -21.2715
  33   2.0000      -0.769648       -20.9432
  34   2.0000      -0.712462       -19.3871
  35   2.0000      -0.697674       -18.9847
  36   2.0000      -0.694773       -18.9057
  37   2.0000      -0.659178       -17.9371
  38   2.0000      -0.644020       -17.5247
  39   2.0000      -0.619858       -16.8672
  40   2.0000      -0.590656       -16.0726
  41   2.0000      -0.570171       -15.5151
  42   2.0000      -0.563925       -15.3452
  43   2.0000      -0.552274       -15.0281
  44   2.0000      -0.520998       -14.1771
  45   2.0000      -0.518477       -14.1085
  46   2.0000      -0.515227       -14.0200
  47   2.0000      -0.509708       -13.8699
  48   2.0000      -0.503837       -13.7101
  49   2.0000      -0.502263       -13.6673
  50   2.0000      -0.487387       -13.2625
  51   2.0000      -0.481931       -13.1140
  52   2.0000      -0.470272       -12.7967
  53   2.0000      -0.467974       -12.7342
  54   2.0000      -0.456478       -12.4214
  55   2.0000      -0.445077       -12.1112
  56   2.0000      -0.441659       -12.0182
  57   2.0000      -0.441079       -12.0024
  58   2.0000      -0.435533       -11.8514
  59   2.0000      -0.420982       -11.4555
  60   2.0000      -0.419811       -11.4236
  61   2.0000      -0.418175       -11.3791
  62   2.0000      -0.413039       -11.2394
  63   2.0000      -0.351238        -9.5577
  64   2.0000      -0.333084        -9.0637
  65   2.0000      -0.330205        -8.9853
  66   2.0000      -0.294450        -8.0124
  67   0.0000       0.020967         0.5705
  68   0.0000       0.069191         1.8828
  69   0.0000       0.109353         2.9757
  70   0.0000       0.119247         3.2449
  71   0.0000       0.128476         3.4960

MULLIKEN ATOMIC CHARGES
-----------------------
   0 S :    0.087348
   1 C :   -0.122926
   2 C :   -0.061274
   3 C :    0.040337
   4 C :   -0.168781
   5 H :    0.005624
   6 C :    0.055250
   7 H :    0.024709
   8 H :    0.039233
   9 C :   -0.107012
  10 H :    0.037962
  11 H :    0.035980
  12 C :   -0.076158
  13 H :    0.023883
  14 H :    0.044106
  15 H :    0.044970
  16 S :    0.130020
  17 C :   -0.069896
  18 C :   -0.068175
  19 C :   -0.077781
  20 C :   -0.113031
  21 H :    0.041308
  22 C :    0.070722
  23 H :    0.009332
  24 H :    0.006554
  25 C :   -0.035356
  26 H :    0.037399
  27 H :    0.029105
  28 C :   -0.067361
  29 H :    0.034718
  30 H :    0.028181
  31 H :    0.037493
  32 H :    0.058485
  33 H :    0.045035
Sum of atomic charges:   -0.0000000

LOEWDIN ATOMIC CHARGES
----------------------
   0 S :    0.362307
   1 C :   -0.185515
   2 C :   -0.064591
   3 C :   -0.056485
   4 C :   -0.163874
   5 H :    0.031435
   6 C :   -0.032114
   7 H :    0.025758
   8 H :    0.038494
   9 C :   -0.047350
  10 H :    0.028349
  11 H :    0.024656
  12 C :   -0.080299
  13 H :    0.021650
  14 H :    0.029003
  15 H :    0.032731
  16 S :    0.450976
  17 C :   -0.198198
  18 C :   -0.079426
  19 C :   -0.052473
  20 C :   -0.223139
  21 H :    0.041368
  22 C :   -0.036869
  23 H :    0.032263
  24 H :    0.018039
  25 C :   -0.035248
  26 H :    0.020726
  27 H :    0.028722
  28 C :   -0.067445
  29 H :    0.027226
  30 H :    0.025955
  31 H :    0.023872
  32 H :    0.033239
  33 H :    0.026258

  Mayer bond orders larger than 0.100000
B(  0-S ,  1-C ) :   1.1227 B(  0-S ,  4-C ) :   1.1306 B(  1-C ,  2-C ) :   1.6407
B(  1-C , 32-H ) :   0.9674 B(  2-C ,  3-C ) :   1.1962 B(  2-C ,  6-C ) :   1.0335
B(  3-C ,  4-C ) :   1.6107 B(  3-C ,  5-H ) :   0.9933 B(  4-C , 20-C ) :   1.0205
B(  6-C ,  7-H ) :   0.9381 B(  6-C ,  8-H ) :   0.9456 B(  6-C ,  9-C ) :   1.0533
B(  9-C , 10-H ) :   0.9558 B(  9-C , 11-H ) :   0.9585 B(  9-C , 12-C ) :   1.0586
B( 12-C , 13-H ) :   0.9762 B( 12-C , 14-H ) :   0.9776 B( 12-C , 15-H ) :   0.9768
B( 16-S , 17-C ) :   1.1958 B( 16-S , 20-C ) :   1.1707 B( 17-C , 18-C ) :   1.5539
B( 17-C , 20-C ) :   0.1136 B( 17-C , 33-H ) :   0.9663 B( 18-C , 19-C ) :   1.3170
B( 18-C , 21-H ) :   0.9790 B( 19-C , 20-C ) :   1.5047 B( 19-C , 22-C ) :   1.0382
B( 22-C , 23-H ) :   0.9333 B( 22-C , 24-H ) :   0.9212 B( 22-C , 25-C ) :   1.0598
B( 25-C , 26-H ) :   0.9486 B( 25-C , 27-H ) :   0.9553 B( 25-C , 28-C ) :   1.0768
B( 28-C , 29-H ) :   0.9764 B( 28-C , 30-H ) :   0.9753 B( 28-C , 31-H ) :   0.9745

Dispersion correction           -0.015331069
FINAL SINGLE POINT ENERGY     -1339.874645482736

DIPOLE MOMENT
-------------
                                X             Y             Z
Electronic contribution:     14.83068      20.71007     -21.59624
Nuclear contribution   :    -15.38246     -20.98297      21.96799
                        -----------------------------------------
Total Dipole Moment    :     -0.55179      -0.27290       0.37175
                        -----------------------------------------
Magnitude (a.u.)       :      0.71912
Magnitude (Debye)      :      1.82786

Rotational constants in cm-1:     0.020144     0.008902     0.006848
Rotational constants in MHz :   603.893791   266.874876   205.302889

                             ****ORCA TERMINATED NORMALLY****
TOTAL RUN TIME: 0 days 0 hours 0 minutes 35 seconds 997 msec
