                         Program Version 4.2.1 -  RELEASE  -
|  1> ! wB97X-D3 SP def2-SVP
|  2> %pal
|  3> nprocs 16
|  4> end
|  5>
|  6> * xyz 0 1
|  7> S 	 -37.7903 	 51.6385 	 106.876
|  8> C 	 -37.7193 	 51.9484 	 108.608
|  9> C 	 -38.8022 	 51.3392 	 109.223
| 10> C 	 -39.6003 	 50.5645 	 108.329
| 11> C 	 -39.2535 	 50.7913 	 107.015
| 12> H 	 -40.415 	 49.9557 	 108.539
| 13> C 	 -39.2639 	 51.4401 	 110.678
| 14> H 	 -39.9429 	 50.585 	 110.985
| 15> H 	 -39.7447 	 52.4209 	 110.856
| 16> C 	 -38.1038 	 51.3416 	 111.597
| 17> H 	 -37.2679 	 51.9987 	 111.563
| 18> H 	 -38.4455 	 51.6265 	 112.572
| 19> C 	 -37.4258 	 49.9636 	 111.614
| 20> H 	 -38.1396 	 49.051 	 111.727
| 21> H 	 -37.0632 	 49.7515 	 110.588
| 22> H 	 -36.6406 	 49.8669 	 112.255
| 23> S 	 -38.663 	 49.2377 	 104.905
| 24> C 	 -40.0485 	 48.5602 	 104.006
| 25> C 	 -41.2865 	 49.0047 	 104.401
| 26> C 	 -41.1655 	 49.9626 	 105.438
| 27> C 	 -39.83 	 50.1219 	 105.852
| 28> H 	 -42.1679 	 48.5949 	 103.938
| 29> C 	 -42.429 	 50.4402 	 106.065
| 30> H 	 -43.2191 	 50.4206 	 105.253
| 31> H 	 -42.3837 	 51.4478 	 106.454
| 32> C 	 -42.9745 	 49.4992 	 107.141
| 33> H 	 -42.1793 	 49.13 	 107.819
| 34> H 	 -43.2855 	 48.511 	 106.692
| 35> C 	 -44.0108 	 50.1434 	 108.01
| 36> H 	 -44.3927 	 49.4091 	 108.716
| 37> H 	 -44.8195 	 50.4894 	 107.405
| 38> H 	 -43.6972 	 51.0824 	 108.383
| 39> H 	 -37.0021 	 52.5005 	 109.192
| 40> H 	 -39.9383 	 47.9191 	 103.139
| 41> *
| 42>
| 43>                          ****END OF INPUT****

CARTESIAN COORDINATES (ANGSTROEM)
---------------------------------
  S    -37.790300   51.638500  106.876000
  C    -37.719300   51.948400  108.608000
  C    -38.802200   51.339200  109.223000
  C    -39.600300   50.564500  108.329000
  C    -39.253500   50.791300  107.015000
  H    -40.415000   49.955700  108.539000
  C    -39.263900   51.440100  110.678000
  H    -39.942900   50.585000  110.985000
  H    -39.744700   52.420900  110.856000
  C    -38.103800   51.341600  111.597000
  H    -37.267900   51.998700  111.563000
  H    -38.445500   51.626500  112.572000
  C    -37.425800   49.963600  111.614000
  H    -38.139600   49.051000  111.727000
  H    -37.063200   49.751500  110.588000
  H    -36.640600   49.866900  112.255000
  S    -38.663000   49.237700  104.905000
  C    -40.048500   48.560200  104.006000
  C    -41.286500   49.004700  104.401000
  C    -41.165500   49.962600  105.438000
  C    -39.830000   50.121900  105.852000
  H    -42.167900   48.594900  103.938000
  C    -42.429000   50.440200  106.065000
  H    -43.219100   50.420600  105.253000
  H    -42.383700   51.447800  106.454000
  C    -42.974500   49.499200  107.141000
  H    -42.179300   49.130000  107.819000
  H    -43.285500   48.511000  106.692000
  C    -44.010800   50.143400  108.010000
  H    -44.392700   49.409100  108.716000
  H    -44.819500   50.489400  107.405000
  H    -43.697200   51.082400  108.383000
  H    -37.002100   52.500500  109.192000
  H    -39.938300   47.919100  103.139000

 Total Charge           Charge          ....    0
 Multiplicity           Mult            ....    1
 Number of Electrons    NEL             ....  134
 Basis Dimension        Dim             ....  322

ORBITAL ENERGIES
----------------

  NO   OCC          E(Eh)            E(eV)
   0   2.0000     -88.968525     -2420.9566
   1   2.0000     -88.966997     -2420.9151
   2   2.0000     -10.326268      -280.9920
   3   2.0000     -10.321868      -280.8723
   4   2.0000     -10.315943      -280.7111
   5   2.0000     -10.312688      -280.6225
   6   2.0000     -10.303029      -280.3597
   7   2.0000     -10.299589      -280.2661
   8   2.0000     -10.298019      -280.2233
   9   2.0000     -10.293981      -280.1135
  10   2.0000     -10.292128      -280.0630
  11   2.0000     -10.289015      -279.9783
  12   2.0000     -10.283385      -279.8251
  13   2.0000     -10.277481      -279.6645
  14   2.0000     -10.273251      -279.5494
  15   2.0000     -10.272159      -279.5197
  16   2.0000      -8.082871      -219.9461
  17   2.0000      -8.082367      -219.9324
  18   2.0000      -6.041239      -164.3905
  19   2.0000      -6.040849      -164.3799
  20   2.0000      -6.037644      -164.2927
  21   2.0000      -6.036780      -164.2691
  22   2.0000      -6.033572      -164.1818
  23   2.0000      -6.033116      -164.1694
  24   2.0000      -1.011336       -27.5199
  25   2.0000      -0.984578       -26.7917
  26   2.0000      -0.920454       -25.0468
  27   2.0000      -0.915045       -24.8996
  28   2.0000      -0.869968       -23.6730
  29   2.0000      -0.855333       -23.2748
  30   2.0000      -0.847063       -23.0498
  31   2.0000      -0.812800       -22.1174
  32   2.0000      -0.784792       -21.3553
  33   2.0000      -0.772523       -21.0214
  34   2.0000      -0.708644       -19.2832
  35   2.0000      -0.703203       -19.1351
  36   2.0000      -0.692094       -18.8328
  37   2.0000      -0.666512       -18.1367
  38   2.0000      -0.641527       -17.4568
  39   2.0000      -0.614489       -16.7211
  40   2.0000      -0.600064       -16.3286
  41   2.0000      -0.574848       -15.6424
  42   2.0000      -0.566914       -15.4265
  43   2.0000      -0.560447       -15.2505
  44   2.0000      -0.537139       -14.6163
  45   2.0000      -0.532819       -14.4987
  46   2.0000      -0.519430       -14.1344
  47   2.0000      -0.509592       -13.8667
  48   2.0000      -0.502185       -13.6651
  49   2.0000      -0.495369       -13.4797
  50   2.0000      -0.487370       -13.2620
  51   2.0000      -0.478903       -13.0316
  52   2.0000      -0.473937       -12.8965
  53   2.0000      -0.466445       -12.6926
  54   2.0000      -0.462981       -12.5984
  55   2.0000      -0.450068       -12.2470
  56   2.0000      -0.448738       -12.2108
  57   2.0000      -0.439995       -11.9729
  58   2.0000      -0.435134       -11.8406
  59   2.0000      -0.429820       -11.6960
  60   2.0000      -0.425742       -11.5850
  61   2.0000      -0.405519       -11.0347
  62   2.0000      -0.401693       -10.9306
  63   2.0000      -0.346568        -9.4306
  64   2.0000      -0.331248        -9.0137
  65   2.0000      -0.328529        -8.9397
  66   2.0000      -0.289563        -7.8794
  67   0.0000       0.030428         0.8280
  68   0.0000       0.070767         1.9257
  69   0.0000       0.098614         2.6834
  70   0.0000       0.124042         3.3753
  71   0.0000       0.132762         3.6126

MULLIKEN ATOMIC CHARGES
-----------------------
   0 S :    0.111684
   1 C :   -0.108830
   2 C :   -0.096546
   3 C :    0.060866
   4 C :   -0.132970
   5 H :   -0.039096
   6 C :    0.078457
   7 H :    0.043612
   8 H :    0.051757
   9 C :   -0.063924
  10 H :    0.011315
  11 H :    0.004716
  12 C :   -0.057456
  13 H :    0.026026
  14 H :    0.035480
  15 H :    0.018491
  16 S :    0.113104
  17 C :   -0.092393
  18 C :   -0.038836
  19 C :   -0.011992
  20 C :   -0.158924
  21 H :    0.020604
  22 C :    0.052847
  23 H :    0.031266
  24 H :    0.025583
  25 C :   -0.105681
  26 H :    0.025953
  27 H :    0.023740
  28 C :    0.019864
  29 H :    0.042346
  30 H :    0.005597
  31 H :    0.015985
  32 H :    0.038179
  33 H :    0.049174
Sum of atomic charges:   -0.0000000

LOEWDIN ATOMIC CHARGES
----------------------
   0 S :    0.425283
   1 C :   -0.204361
   2 C :   -0.056867
   3 C :   -0.059575
   4 C :   -0.207115
   5 H :    0.016044
   6 C :   -0.028698
   7 H :    0.042054
   8 H :    0.041052
   9 C :   -0.050967
  10 H :    0.020007
  11 H :    0.018758
  12 C :   -0.064564
  13 H :    0.029140
  14 H :    0.029205
  15 H :    0.008994
  16 S :    0.396789
  17 C :   -0.171760
  18 C :   -0.064861
  19 C :   -0.055460
  20 C :   -0.197578
  21 H :    0.034670
  22 C :   -0.033993
  23 H :    0.038894
  24 H :    0.028157
  25 C :   -0.045925
  26 H :    0.019437
  27 H :    0.026762
  28 C :   -0.060548
  29 H :    0.031903
  30 H :    0.021338
  31 H :    0.021791
  32 H :    0.027835
  33 H :    0.024159

  Mayer bond orders larger than 0.100000
B(  0-S ,  1-C ) :   1.1231 B(  0-S ,  4-C ) :   1.1691 B(  1-C ,  2-C ) :   1.6066
B(  1-C , 32-H ) :   0.9708 B(  2-C ,  3-C ) :   1.2385 B(  2-C ,  6-C ) :   1.0090
B(  3-C ,  4-C ) :   1.5596 B(  3-C ,  5-H ) :   1.0055 B(  4-C , 20-C ) :   1.0221
B(  6-C ,  7-H ) :   0.9473 B(  6-C ,  8-H ) :   0.9342 B(  6-C ,  9-C ) :   1.0771
B(  9-C , 10-H ) :   0.9499 B(  9-C , 11-H ) :   0.9481 B(  9-C , 12-C ) :   1.0710
B( 12-C , 13-H ) :   0.9728 B( 12-C , 14-H ) :   0.9707 B( 12-C , 15-H ) :   0.9768
B( 16-S , 17-C ) :   1.1395 B( 16-S , 20-C ) :   1.1457 B( 17-C , 18-C ) :   1.6410
B( 17-C , 33-H ) :   0.9639 B( 18-C , 19-C ) :   1.2176 B( 18-C , 21-H ) :   0.9909
B( 19-C , 20-C ) :   1.6006 B( 19-C , 22-C ) :   1.0681 B( 22-C , 23-H ) :   0.9273
B( 22-C , 24-H ) :   0.9347 B( 22-C , 25-C ) :   1.0526 B( 25-C , 26-H ) :   0.9560
B( 25-C , 27-H ) :   0.9438 B( 25-C , 28-C ) :   1.0878 B( 28-C , 29-H ) :   0.9702
B( 28-C , 30-H ) :   0.9650 B( 28-C , 31-H ) :   0.9689

Dispersion correction           -0.014692748
FINAL SINGLE POINT ENERGY     -1339.859986032431

DIPOLE MOMENT
-------------
                                X             Y             Z
Electronic contribution:     15.01854       1.80731     -22.59093
Nuclear contribution   :    -15.55224      -1.90265      22.97104
                        -----------------------------------------
Total Dipole Moment    :     -0.53370      -0.09534       0.38011
                        -----------------------------------------
Magnitude (a.u.)       :      0.66212
Magnitude (Debye)      :      1.68298

Rotational constants in cm-1:     0.018610     0.009324     0.006985
Rotational constants in MHz :   557.903154   279.521139   209.397330

                             ****ORCA TERMINATED NORMALLY****
TOTAL RUN TIME: 0 days 0 hours 0 minutes 30 seconds 806 msec
