                         Program Version 4.2.1 -  RELEASE  -
|  1> ! wB97X-D3 SP def2-SVP
|  2> %pal
|  3> nprocs 16
|  4> end
|  5>
|  6> * xyz 0 1
|  7> S 	 -1.41459 	 -10.2572 	 87.3416
|  8> C 	 -1.66683 	 -11.7918 	 88.0264
|  9> C 	 -2.72382 	 -12.4747 	 87.452
| 10> C 	 -3.56431 	 -11.5386 	 86.683
| 11> C 	 -2.98777 	 -10.2984 	 86.5655
| 12> H 	 -4.44492 	 -11.7729 	 86.2205
| 13> C 	 -3.11281 	 -13.8595 	 87.6816
| 14> H 	 -2.5681 	 -14.1695 	 88.641
| 15> H 	 -2.59498 	 -14.4732 	 86.9464
| 16> C 	 -4.64735 	 -14.0101 	 87.7961
| 17> H 	 -5.08678 	 -13.1735 	 88.2939
| 18> H 	 -5.17611 	 -14.1194 	 86.8305
| 19> C 	 -5.15028 	 -15.1371 	 88.6654
| 20> H 	 -5.08022 	 -14.9987 	 89.7413
| 21> H 	 -6.25788 	 -15.2178 	 88.5253
| 22> H 	 -4.64046 	 -16.0675 	 88.3189
| 23> S 	 -3.127 	 -7.55136 	 86.7148
| 24> C 	 -3.91175 	 -6.71699 	 85.4402
| 25> C 	 -4.69793 	 -7.54622 	 84.6565
| 26> C 	 -4.52823 	 -8.91396 	 84.9884
| 27> C 	 -3.55918 	 -9.1046 	 85.9896
| 28> H 	 -5.29285 	 -7.10432 	 83.8813
| 29> C 	 -5.39002 	 -10.0125 	 84.3777
| 30> H 	 -6.21418 	 -9.63176 	 83.7723
| 31> H 	 -5.83284 	 -10.6052 	 85.161
| 32> C 	 -4.58355 	 -10.978 	 83.4736
| 33> H 	 -3.90207 	 -11.5863 	 84.0445
| 34> H 	 -4.05056 	 -10.2729 	 82.7576
| 35> C 	 -5.49731 	 -12.0083 	 82.7823
| 36> H 	 -5.00625 	 -12.825 	 82.2953
| 37> H 	 -6.28004 	 -11.6381 	 82.1438
| 38> H 	 -6.03157 	 -12.4804 	 83.5119
| 39> H 	 -1.03155 	 -12.3206 	 88.6532
| 40> H 	 -4.11703 	 -5.68538 	 85.3579
| 41> *
| 42>
| 43>                          ****END OF INPUT****

CARTESIAN COORDINATES (ANGSTROEM)
---------------------------------
  S     -1.414590  -10.257200   87.341600
  C     -1.666830  -11.791800   88.026400
  C     -2.723820  -12.474700   87.452000
  C     -3.564310  -11.538600   86.683000
  C     -2.987770  -10.298400   86.565500
  H     -4.444920  -11.772900   86.220500
  C     -3.112810  -13.859500   87.681600
  H     -2.568100  -14.169500   88.641000
  H     -2.594980  -14.473200   86.946400
  C     -4.647350  -14.010100   87.796100
  H     -5.086780  -13.173500   88.293900
  H     -5.176110  -14.119400   86.830500
  C     -5.150280  -15.137100   88.665400
  H     -5.080220  -14.998700   89.741300
  H     -6.257880  -15.217800   88.525300
  H     -4.640460  -16.067500   88.318900
  S     -3.127000   -7.551360   86.714800
  C     -3.911750   -6.716990   85.440200
  C     -4.697930   -7.546220   84.656500
  C     -4.528230   -8.913960   84.988400
  C     -3.559180   -9.104600   85.989600
  H     -5.292850   -7.104320   83.881300
  C     -5.390020  -10.012500   84.377700
  H     -6.214180   -9.631760   83.772300
  H     -5.832840  -10.605200   85.161000
  C     -4.583550  -10.978000   83.473600
  H     -3.902070  -11.586300   84.044500
  H     -4.050560  -10.272900   82.757600
  C     -5.497310  -12.008300   82.782300
  H     -5.006250  -12.825000   82.295300
  H     -6.280040  -11.638100   82.143800
  H     -6.031570  -12.480400   83.511900
  H     -1.031550  -12.320600   88.653200
  H     -4.117030   -5.685380   85.357900

 Total Charge           Charge          ....    0
 Multiplicity           Mult            ....    1
 Number of Electrons    NEL             ....  134
 Basis Dimension        Dim             ....  322

ORBITAL ENERGIES
----------------

  NO   OCC          E(Eh)            E(eV)
   0   2.0000     -88.968459     -2420.9549
   1   2.0000     -88.964479     -2420.8465
   2   2.0000     -10.327390      -281.0226
   3   2.0000     -10.326937      -281.0102
   4   2.0000     -10.308474      -280.5078
   5   2.0000     -10.304749      -280.4065
   6   2.0000     -10.301977      -280.3310
   7   2.0000     -10.298404      -280.2338
   8   2.0000     -10.297511      -280.2095
   9   2.0000     -10.292495      -280.0730
  10   2.0000     -10.290658      -280.0230
  11   2.0000     -10.288460      -279.9632
  12   2.0000     -10.288105      -279.9536
  13   2.0000     -10.286955      -279.9223
  14   2.0000     -10.282374      -279.7976
  15   2.0000     -10.266593      -279.3682
  16   2.0000      -8.083151      -219.9537
  17   2.0000      -8.079984      -219.8675
  18   2.0000      -6.041587      -164.4000
  19   2.0000      -6.038518      -164.3164
  20   2.0000      -6.037718      -164.2947
  21   2.0000      -6.034538      -164.2081
  22   2.0000      -6.033930      -164.1916
  23   2.0000      -6.030517      -164.0987
  24   2.0000      -1.009744       -27.4765
  25   2.0000      -0.987077       -26.8597
  26   2.0000      -0.918429       -24.9917
  27   2.0000      -0.910147       -24.7664
  28   2.0000      -0.874010       -23.7830
  29   2.0000      -0.855696       -23.2847
  30   2.0000      -0.849869       -23.1261
  31   2.0000      -0.819591       -22.3022
  32   2.0000      -0.786227       -21.3943
  33   2.0000      -0.771113       -20.9830
  34   2.0000      -0.715521       -19.4703
  35   2.0000      -0.699532       -19.0352
  36   2.0000      -0.689736       -18.7687
  37   2.0000      -0.664514       -18.0824
  38   2.0000      -0.642706       -17.4889
  39   2.0000      -0.626164       -17.0388
  40   2.0000      -0.595948       -16.2166
  41   2.0000      -0.575868       -15.6702
  42   2.0000      -0.569790       -15.5048
  43   2.0000      -0.563007       -15.3202
  44   2.0000      -0.536406       -14.5963
  45   2.0000      -0.520951       -14.1758
  46   2.0000      -0.518024       -14.0962
  47   2.0000      -0.511473       -13.9179
  48   2.0000      -0.507620       -13.8130
  49   2.0000      -0.503294       -13.6953
  50   2.0000      -0.495691       -13.4884
  51   2.0000      -0.486673       -13.2430
  52   2.0000      -0.473164       -12.8755
  53   2.0000      -0.463935       -12.6243
  54   2.0000      -0.458099       -12.4655
  55   2.0000      -0.451892       -12.2966
  56   2.0000      -0.444748       -12.1022
  57   2.0000      -0.436223       -11.8702
  58   2.0000      -0.432857       -11.7786
  59   2.0000      -0.425829       -11.5874
  60   2.0000      -0.423950       -11.5363
  61   2.0000      -0.421730       -11.4758
  62   2.0000      -0.415635       -11.3100
  63   2.0000      -0.356571        -9.7028
  64   2.0000      -0.331928        -9.0322
  65   2.0000      -0.322279        -8.7696
  66   2.0000      -0.280290        -7.6271
  67   0.0000       0.020292         0.5522
  68   0.0000       0.084194         2.2910
  69   0.0000       0.102931         2.8009
  70   0.0000       0.111483         3.0336
  71   0.0000       0.130587         3.5534

MULLIKEN ATOMIC CHARGES
-----------------------
   0 S :    0.119023
   1 C :   -0.078292
   2 C :   -0.131870
   3 C :    0.032117
   4 C :   -0.104287
   5 H :   -0.046368
   6 C :    0.086944
   7 H :    0.024404
   8 H :    0.045439
   9 C :   -0.096989
  10 H :    0.033908
  11 H :    0.041626
  12 C :   -0.064634
  13 H :    0.038792
  14 H :    0.032462
  15 H :    0.035890
  16 S :    0.122440
  17 C :   -0.063595
  18 C :   -0.057347
  19 C :   -0.012736
  20 C :   -0.140380
  21 H :    0.012788
  22 C :    0.046412
  23 H :    0.017998
  24 H :    0.026252
  25 C :   -0.098830
  26 H :    0.038439
  27 H :    0.042995
  28 C :    0.013587
  29 H :    0.027502
  30 H :    0.019715
  31 H :   -0.015084
  32 H :    0.011553
  33 H :    0.040122
Sum of atomic charges:    0.0000000

LOEWDIN ATOMIC CHARGES
----------------------
   0 S :    0.416869
   1 C :   -0.208928
   2 C :   -0.055586
   3 C :   -0.054673
   4 C :   -0.183593
   5 H :    0.008609
   6 C :   -0.041157
   7 H :    0.040656
   8 H :    0.038496
   9 C :   -0.047030
  10 H :    0.027198
  11 H :    0.029622
  12 C :   -0.068682
  13 H :    0.023037
  14 H :    0.031188
  15 H :    0.025939
  16 S :    0.421642
  17 C :   -0.197057
  18 C :   -0.068240
  19 C :   -0.051139
  20 C :   -0.191378
  21 H :    0.030225
  22 C :   -0.030232
  23 H :    0.030711
  24 H :    0.023003
  25 C :   -0.035027
  26 H :    0.021768
  27 H :    0.031043
  28 C :   -0.063930
  29 H :    0.026259
  30 H :    0.022376
  31 H :    0.011841
  32 H :    0.013248
  33 H :    0.022922

  Mayer bond orders larger than 0.100000
B(  0-S ,  1-C ) :   1.1297 B(  0-S ,  4-C ) :   1.1368 B(  1-C ,  2-C ) :   1.6291
B(  1-C , 32-H ) :   0.9669 B(  2-C ,  3-C ) :   1.2087 B(  2-C ,  6-C ) :   1.0436
B(  3-C ,  4-C ) :   1.5596 B(  3-C ,  5-H ) :   1.0036 B(  4-C , 20-C ) :   1.0928
B(  6-C ,  7-H ) :   0.9411 B(  6-C ,  8-H ) :   0.9152 B(  6-C ,  9-C ) :   1.0518
B(  9-C , 10-H ) :   0.9623 B(  9-C , 11-H ) :   0.9463 B(  9-C , 12-C ) :   1.0918
B( 12-C , 13-H ) :   0.9766 B( 12-C , 14-H ) :   0.9722 B( 12-C , 15-H ) :   0.9730
B( 16-S , 17-C ) :   1.1634 B( 16-S , 20-C ) :   1.1469 B( 17-C , 18-C ) :   1.5931
B( 17-C , 20-C ) :   0.1025 B( 17-C , 33-H ) :   0.9650 B( 18-C , 19-C ) :   1.2699
B( 18-C , 21-H ) :   0.9946 B( 19-C , 20-C ) :   1.5458 B( 19-C , 22-C ) :   1.0413
B( 22-C , 23-H ) :   0.9387 B( 22-C , 24-H ) :   0.9317 B( 22-C , 25-C ) :   1.0567
B( 25-C , 26-H ) :   0.9526 B( 25-C , 27-H ) :   0.9577 B( 25-C , 28-C ) :   1.0783
B( 28-C , 29-H ) :   0.9730 B( 28-C , 30-H ) :   0.9728 B( 28-C , 31-H ) :   0.9612

Dispersion correction           -0.014400533
FINAL SINGLE POINT ENERGY     -1339.860717932870

DIPOLE MOMENT
-------------
                                X             Y             Z
Electronic contribution:     17.06362      25.86234       7.35195
Nuclear contribution   :    -17.63883     -26.36940      -7.48424
                        -----------------------------------------
Total Dipole Moment    :     -0.57521      -0.50707      -0.13228
                        -----------------------------------------
Magnitude (a.u.)       :      0.77813
Magnitude (Debye)      :      1.97785

Rotational constants in cm-1:     0.017563     0.009640     0.007025
Rotational constants in MHz :   526.525282   288.986615   210.591464

                             ****ORCA TERMINATED NORMALLY****
TOTAL RUN TIME: 0 days 0 hours 0 minutes 33 seconds 903 msec
