                         Program Version 4.2.1 -  RELEASE  -
|  1> ! wB97X-D3 SP def2-SVP
|  2> %pal
|  3> nprocs 16
|  4> end
|  5>
|  6> * xyz 0 1
|  7> S 	 -67.7257 	 40.099 	 141.541
|  8> C 	 -68.9222 	 39.6746 	 140.35
|  9> C 	 -68.3063 	 39.1576 	 139.223
| 10> C 	 -66.8648 	 39.2973 	 139.176
| 11> C 	 -66.3943 	 39.7985 	 140.383
| 12> H 	 -66.1022 	 38.974 	 138.396
| 13> C 	 -69.0807 	 38.5364 	 138.066
| 14> H 	 -68.5372 	 38.7293 	 137.185
| 15> H 	 -70.0047 	 39.0456 	 138.037
| 16> C 	 -69.3644 	 37.0744 	 138.256
| 17> H 	 -68.328 	 36.5721 	 138.19
| 18> H 	 -69.7313 	 36.9149 	 139.316
| 19> C 	 -70.281 	 36.5042 	 137.162
| 20> H 	 -71.0807 	 37.165 	 136.92
| 21> H 	 -69.6604 	 36.2082 	 136.283
| 22> H 	 -70.6915 	 35.5366 	 137.523
| 23> S 	 -64.4997 	 39.6102 	 142.323
| 24> C 	 -62.9317 	 40.2015 	 142.036
| 25> C 	 -62.8183 	 40.8317 	 140.841
| 26> C 	 -64.0218 	 40.7543 	 140.044
| 27> C 	 -64.9963 	 40.0423 	 140.69
| 28> H 	 -61.9028 	 41.3804 	 140.592
| 29> C 	 -64.1434 	 41.5512 	 138.825
| 30> H 	 -64.9025 	 41.2404 	 138.174
| 31> H 	 -63.2143 	 41.5548 	 138.242
| 32> C 	 -64.4157 	 43.0217 	 139.098
| 33> H 	 -64.4315 	 43.602 	 138.165
| 34> H 	 -63.6889 	 43.4739 	 139.762
| 35> C 	 -65.7482 	 43.2169 	 139.88
| 36> H 	 -66.2521 	 44.1866 	 140.035
| 37> H 	 -65.7164 	 42.7676 	 140.889
| 38> H 	 -66.4998 	 42.7062 	 139.451
| 39> H 	 -70.0039 	 39.6773 	 140.491
| 40> H 	 -62.0666 	 40.0503 	 142.676
| 41> *
| 42>
| 43>                          ****END OF INPUT****

CARTESIAN COORDINATES (ANGSTROEM)
---------------------------------
  S    -67.725700   40.099000  141.541000
  C    -68.922200   39.674600  140.350000
  C    -68.306300   39.157600  139.223000
  C    -66.864800   39.297300  139.176000
  C    -66.394300   39.798500  140.383000
  H    -66.102200   38.974000  138.396000
  C    -69.080700   38.536400  138.066000
  H    -68.537200   38.729300  137.185000
  H    -70.004700   39.045600  138.037000
  C    -69.364400   37.074400  138.256000
  H    -68.328000   36.572100  138.190000
  H    -69.731300   36.914900  139.316000
  C    -70.281000   36.504200  137.162000
  H    -71.080700   37.165000  136.920000
  H    -69.660400   36.208200  136.283000
  H    -70.691500   35.536600  137.523000
  S    -64.499700   39.610200  142.323000
  C    -62.931700   40.201500  142.036000
  C    -62.818300   40.831700  140.841000
  C    -64.021800   40.754300  140.044000
  C    -64.996300   40.042300  140.690000
  H    -61.902800   41.380400  140.592000
  C    -64.143400   41.551200  138.825000
  H    -64.902500   41.240400  138.174000
  H    -63.214300   41.554800  138.242000
  C    -64.415700   43.021700  139.098000
  H    -64.431500   43.602000  138.165000
  H    -63.688900   43.473900  139.762000
  C    -65.748200   43.216900  139.880000
  H    -66.252100   44.186600  140.035000
  H    -65.716400   42.767600  140.889000
  H    -66.499800   42.706200  139.451000
  H    -70.003900   39.677300  140.491000
  H    -62.066600   40.050300  142.676000

 Total Charge           Charge          ....    0
 Multiplicity           Mult            ....    1
 Number of Electrons    NEL             ....  134
 Basis Dimension        Dim             ....  322

ORBITAL ENERGIES
----------------

  NO   OCC          E(Eh)            E(eV)
   0   2.0000     -88.968427     -2420.9540
   1   2.0000     -88.963702     -2420.8254
   2   2.0000     -10.332944      -281.1737
   3   2.0000     -10.325020      -280.9581
   4   2.0000     -10.314290      -280.6661
   5   2.0000     -10.311819      -280.5989
   6   2.0000     -10.302568      -280.3471
   7   2.0000     -10.301649      -280.3221
   8   2.0000     -10.301363      -280.3143
   9   2.0000     -10.291827      -280.0548
  10   2.0000     -10.291428      -280.0440
  11   2.0000     -10.285085      -279.8714
  12   2.0000     -10.284523      -279.8561
  13   2.0000     -10.281351      -279.7698
  14   2.0000     -10.278853      -279.7018
  15   2.0000     -10.258547      -279.1493
  16   2.0000      -8.082340      -219.9317
  17   2.0000      -8.079532      -219.8552
  18   2.0000      -6.041087      -164.3863
  19   2.0000      -6.038048      -164.3036
  20   2.0000      -6.036967      -164.2742
  21   2.0000      -6.033940      -164.1919
  22   2.0000      -6.032879      -164.1630
  23   2.0000      -6.030175      -164.0894
  24   2.0000      -1.011189       -27.5158
  25   2.0000      -0.984954       -26.8020
  26   2.0000      -0.917813       -24.9750
  27   2.0000      -0.913720       -24.8636
  28   2.0000      -0.871513       -23.7151
  29   2.0000      -0.848762       -23.0960
  30   2.0000      -0.841941       -22.9104
  31   2.0000      -0.815116       -22.1804
  32   2.0000      -0.786251       -21.3950
  33   2.0000      -0.771690       -20.9988
  34   2.0000      -0.708542       -19.2804
  35   2.0000      -0.696872       -18.9628
  36   2.0000      -0.691567       -18.8185
  37   2.0000      -0.661917       -18.0117
  38   2.0000      -0.638862       -17.3843
  39   2.0000      -0.618690       -16.8354
  40   2.0000      -0.603694       -16.4273
  41   2.0000      -0.570743       -15.5307
  42   2.0000      -0.560176       -15.2432
  43   2.0000      -0.551983       -15.0202
  44   2.0000      -0.540134       -14.6978
  45   2.0000      -0.518929       -14.1208
  46   2.0000      -0.515284       -14.0216
  47   2.0000      -0.507117       -13.7993
  48   2.0000      -0.505149       -13.7458
  49   2.0000      -0.503166       -13.6918
  50   2.0000      -0.499525       -13.5928
  51   2.0000      -0.477414       -12.9911
  52   2.0000      -0.473523       -12.8852
  53   2.0000      -0.461998       -12.5716
  54   2.0000      -0.459888       -12.5142
  55   2.0000      -0.447043       -12.1647
  56   2.0000      -0.440000       -11.9730
  57   2.0000      -0.435985       -11.8638
  58   2.0000      -0.431378       -11.7384
  59   2.0000      -0.420743       -11.4490
  60   2.0000      -0.416964       -11.3462
  61   2.0000      -0.415303       -11.3010
  62   2.0000      -0.413710       -11.2576
  63   2.0000      -0.356485        -9.7004
  64   2.0000      -0.330682        -8.9983
  65   2.0000      -0.328678        -8.9438
  66   2.0000      -0.288191        -7.8421
  67   0.0000       0.030560         0.8316
  68   0.0000       0.068405         1.8614
  69   0.0000       0.110100         2.9960
  70   0.0000       0.120238         3.2718
  71   0.0000       0.133429         3.6308

MULLIKEN ATOMIC CHARGES
-----------------------
   0 S :    0.109103
   1 C :   -0.119349
   2 C :   -0.113605
   3 C :    0.000831
   4 C :   -0.134239
   5 H :    0.051567
   6 C :    0.118431
   7 H :    0.008082
   8 H :    0.001423
   9 C :   -0.127197
  10 H :    0.034723
  11 H :    0.038745
  12 C :   -0.024547
  13 H :    0.031426
  14 H :    0.039858
  15 H :    0.036270
  16 S :    0.103872
  17 C :   -0.077620
  18 C :   -0.052098
  19 C :   -0.030989
  20 C :   -0.179545
  21 H :    0.024600
  22 C :    0.111326
  23 H :    0.002608
  24 H :    0.023445
  25 C :   -0.064275
  26 H :    0.035585
  27 H :    0.027752
  28 C :   -0.046597
  29 H :    0.029586
  30 H :    0.034707
  31 H :   -0.005490
  32 H :    0.053784
  33 H :    0.057829
Sum of atomic charges:   -0.0000000

LOEWDIN ATOMIC CHARGES
----------------------
   0 S :    0.390314
   1 C :   -0.209745
   2 C :   -0.054532
   3 C :   -0.076199
   4 C :   -0.176685
   5 H :    0.048984
   6 C :   -0.030009
   7 H :    0.021750
   8 H :    0.020779
   9 C :   -0.049356
  10 H :    0.031187
  11 H :    0.027351
  12 C :   -0.067447
  13 H :    0.019259
  14 H :    0.033069
  15 H :    0.031779
  16 S :    0.413045
  17 C :   -0.195912
  18 C :   -0.072068
  19 C :   -0.053111
  20 C :   -0.192511
  21 H :    0.034871
  22 C :   -0.029863
  23 H :    0.022373
  24 H :    0.036265
  25 C :   -0.028766
  26 H :    0.026431
  27 H :    0.021306
  28 C :   -0.074255
  29 H :    0.030139
  30 H :    0.029229
  31 H :    0.005424
  32 H :    0.033648
  33 H :    0.033258

  Mayer bond orders larger than 0.100000
B(  0-S ,  1-C ) :   1.1144 B(  0-S ,  4-C ) :   1.1391 B(  1-C ,  2-C ) :   1.6289
B(  1-C , 32-H ) :   0.9674 B(  2-C ,  3-C ) :   1.2162 B(  2-C ,  6-C ) :   1.0280
B(  3-C ,  4-C ) :   1.5926 B(  3-C ,  5-H ) :   0.9801 B(  4-C , 20-C ) :   1.0609
B(  6-C ,  7-H ) :   0.9381 B(  6-C ,  8-H ) :   0.9317 B(  6-C ,  9-C ) :   1.0671
B(  9-C , 10-H ) :   0.9543 B(  9-C , 11-H ) :   0.9589 B(  9-C , 12-C ) :   1.0711
B( 12-C , 13-H ) :   0.9761 B( 12-C , 14-H ) :   0.9738 B( 12-C , 15-H ) :   0.9743
B( 16-S , 17-C ) :   1.1526 B( 16-S , 20-C ) :   1.1267 B( 17-C , 18-C ) :   1.6334
B( 17-C , 33-H ) :   0.9635 B( 18-C , 19-C ) :   1.2116 B( 18-C , 21-H ) :   0.9886
B( 19-C , 20-C ) :   1.6039 B( 19-C , 22-C ) :   1.0740 B( 22-C , 23-H ) :   0.9262
B( 22-C , 24-H ) :   0.9192 B( 22-C , 25-C ) :   1.0765 B( 25-C , 26-H ) :   0.9571
B( 25-C , 27-H ) :   0.9591 B( 25-C , 28-C ) :   1.0593 B( 28-C , 29-H ) :   0.9743
B( 28-C , 30-H ) :   0.9698 B( 28-C , 31-H ) :   0.9714

Dispersion correction           -0.015501666
FINAL SINGLE POINT ENERGY     -1339.876091236283

DIPOLE MOMENT
-------------
                                X             Y             Z
Electronic contribution:      8.98471      -0.70264      20.19414
Nuclear contribution   :     -8.94099       0.72035     -20.74226
                        -----------------------------------------
Total Dipole Moment    :      0.04372       0.01771      -0.54812
                        -----------------------------------------
Magnitude (a.u.)       :      0.55014
Magnitude (Debye)      :      1.39836

Rotational constants in cm-1:     0.023487     0.007706     0.007131
Rotational constants in MHz :   704.133354   231.030015   213.781967

                             ****ORCA TERMINATED NORMALLY****
TOTAL RUN TIME: 0 days 0 hours 0 minutes 34 seconds 408 msec
