                         Program Version 4.2.1 -  RELEASE  -
|  1> ! wB97X-D3 SP def2-SVP
|  2> %pal
|  3> nprocs 16
|  4> end
|  5>
|  6> * xyz 0 1
|  7> S 	 -42.7656 	 16.3869 	 76.9648
|  8> C 	 -42.2799 	 14.6925 	 76.824
|  9> C 	 -41.5175 	 14.4738 	 75.7061
| 10> C 	 -41.2665 	 15.7446 	 74.9917
| 11> C 	 -41.7456 	 16.8822 	 75.6172
| 12> H 	 -40.7048 	 15.9701 	 74.0923
| 13> C 	 -40.9195 	 13.162 	 75.3321
| 14> H 	 -39.9746 	 13.3726 	 74.7189
| 15> H 	 -41.7134 	 12.7112 	 74.6492
| 16> C 	 -40.6052 	 12.1736 	 76.4741
| 17> H 	 -41.426 	 12.1004 	 77.2274
| 18> H 	 -40.3398 	 11.1737 	 76.0524
| 19> C 	 -39.268 	 12.6374 	 77.2704
| 20> H 	 -39.2753 	 13.6861 	 77.6357
| 21> H 	 -38.9368 	 11.8181 	 77.9695
| 22> H 	 -38.5351 	 12.661 	 76.4866
| 23> S 	 -40.1264 	 18.8922 	 74.6725
| 24> C 	 -40.8991 	 19.9685 	 73.5466
| 25> C 	 -42.2886 	 19.9653 	 73.663
| 26> C 	 -42.7883 	 18.9053 	 74.4607
| 27> C 	 -41.7778 	 18.1194 	 74.8814
| 28> H 	 -42.8243 	 20.6394 	 73.039
| 29> C 	 -44.2772 	 18.7648 	 74.628
| 30> H 	 -44.4354 	 17.7167 	 74.821
| 31> H 	 -44.9569 	 18.8911 	 73.738
| 32> C 	 -44.8397 	 19.6052 	 75.7005
| 33> H 	 -44.1359 	 19.4893 	 76.5649
| 34> H 	 -45.8076 	 19.0967 	 75.9432
| 35> C 	 -45.0849 	 21.0705 	 75.429
| 36> H 	 -44.0874 	 21.5375 	 75.2216
| 37> H 	 -45.4547 	 21.4934 	 76.3964
| 38> H 	 -45.8368 	 21.2253 	 74.6752
| 39> H 	 -42.5902 	 13.9459 	 77.4983
| 40> H 	 -40.4697 	 20.8618 	 73.1147
| 41> *
| 42>
| 43>                          ****END OF INPUT****

CARTESIAN COORDINATES (ANGSTROEM)
---------------------------------
  S    -42.765600   16.386900   76.964800
  C    -42.279900   14.692500   76.824000
  C    -41.517500   14.473800   75.706100
  C    -41.266500   15.744600   74.991700
  C    -41.745600   16.882200   75.617200
  H    -40.704800   15.970100   74.092300
  C    -40.919500   13.162000   75.332100
  H    -39.974600   13.372600   74.718900
  H    -41.713400   12.711200   74.649200
  C    -40.605200   12.173600   76.474100
  H    -41.426000   12.100400   77.227400
  H    -40.339800   11.173700   76.052400
  C    -39.268000   12.637400   77.270400
  H    -39.275300   13.686100   77.635700
  H    -38.936800   11.818100   77.969500
  H    -38.535100   12.661000   76.486600
  S    -40.126400   18.892200   74.672500
  C    -40.899100   19.968500   73.546600
  C    -42.288600   19.965300   73.663000
  C    -42.788300   18.905300   74.460700
  C    -41.777800   18.119400   74.881400
  H    -42.824300   20.639400   73.039000
  C    -44.277200   18.764800   74.628000
  H    -44.435400   17.716700   74.821000
  H    -44.956900   18.891100   73.738000
  C    -44.839700   19.605200   75.700500
  H    -44.135900   19.489300   76.564900
  H    -45.807600   19.096700   75.943200
  C    -45.084900   21.070500   75.429000
  H    -44.087400   21.537500   75.221600
  H    -45.454700   21.493400   76.396400
  H    -45.836800   21.225300   74.675200
  H    -42.590200   13.945900   77.498300
  H    -40.469700   20.861800   73.114700

 Total Charge           Charge          ....    0
 Multiplicity           Mult            ....    1
 Number of Electrons    NEL             ....  134
 Basis Dimension        Dim             ....  322

ORBITAL ENERGIES
----------------

  NO   OCC          E(Eh)            E(eV)
   0   2.0000     -88.967177     -2420.9200
   1   2.0000     -88.965662     -2420.8787
   2   2.0000     -10.329170      -281.0710
   3   2.0000     -10.325583      -280.9734
   4   2.0000     -10.313965      -280.6572
   5   2.0000     -10.312444      -280.6159
   6   2.0000     -10.307274      -280.4752
   7   2.0000     -10.305452      -280.4256
   8   2.0000     -10.303893      -280.3832
   9   2.0000     -10.299288      -280.2579
  10   2.0000     -10.297479      -280.2087
  11   2.0000     -10.288765      -279.9715
  12   2.0000     -10.286284      -279.9040
  13   2.0000     -10.285430      -279.8808
  14   2.0000     -10.283116      -279.8178
  15   2.0000     -10.280246      -279.7397
  16   2.0000      -8.080920      -219.8930
  17   2.0000      -8.079551      -219.8558
  18   2.0000      -6.039416      -164.3409
  19   2.0000      -6.038255      -164.3093
  20   2.0000      -6.035967      -164.2470
  21   2.0000      -6.034168      -164.1981
  22   2.0000      -6.031344      -164.1212
  23   2.0000      -6.030166      -164.0892
  24   2.0000      -1.005398       -27.3583
  25   2.0000      -0.981530       -26.7088
  26   2.0000      -0.917627       -24.9699
  27   2.0000      -0.909376       -24.7454
  28   2.0000      -0.868647       -23.6371
  29   2.0000      -0.852054       -23.1856
  30   2.0000      -0.839343       -22.8397
  31   2.0000      -0.809444       -22.0261
  32   2.0000      -0.787846       -21.4384
  33   2.0000      -0.772012       -21.0075
  34   2.0000      -0.710628       -19.3372
  35   2.0000      -0.700352       -19.0576
  36   2.0000      -0.680238       -18.5102
  37   2.0000      -0.663522       -18.0554
  38   2.0000      -0.641028       -17.4433
  39   2.0000      -0.608231       -16.5508
  40   2.0000      -0.594568       -16.1790
  41   2.0000      -0.576101       -15.6765
  42   2.0000      -0.550932       -14.9916
  43   2.0000      -0.549042       -14.9402
  44   2.0000      -0.544848       -14.8261
  45   2.0000      -0.532346       -14.4859
  46   2.0000      -0.521481       -14.1902
  47   2.0000      -0.512357       -13.9419
  48   2.0000      -0.504227       -13.7207
  49   2.0000      -0.495899       -13.4941
  50   2.0000      -0.490781       -13.3548
  51   2.0000      -0.473931       -12.8963
  52   2.0000      -0.472196       -12.8491
  53   2.0000      -0.464010       -12.6263
  54   2.0000      -0.455217       -12.3871
  55   2.0000      -0.444684       -12.1005
  56   2.0000      -0.439555       -11.9609
  57   2.0000      -0.436824       -11.8866
  58   2.0000      -0.433223       -11.7886
  59   2.0000      -0.422577       -11.4989
  60   2.0000      -0.420393       -11.4395
  61   2.0000      -0.413559       -11.2535
  62   2.0000      -0.400039       -10.8856
  63   2.0000      -0.348455        -9.4819
  64   2.0000      -0.331970        -9.0334
  65   2.0000      -0.322439        -8.7740
  66   2.0000      -0.296268        -8.0619
  67   0.0000       0.030241         0.8229
  68   0.0000       0.062526         1.7014
  69   0.0000       0.093514         2.5447
  70   0.0000       0.108598         2.9551
  71   0.0000       0.126022         3.4292

MULLIKEN ATOMIC CHARGES
-----------------------
   0 S :    0.094870
   1 C :   -0.115043
   2 C :   -0.062089
   3 C :    0.003506
   4 C :   -0.124322
   5 H :    0.021162
   6 C :    0.026925
   7 H :    0.047492
   8 H :    0.061046
   9 C :   -0.100447
  10 H :    0.042595
  11 H :    0.044308
  12 C :   -0.080918
  13 H :    0.057958
  14 H :    0.052809
  15 H :    0.013407
  16 S :    0.099695
  17 C :   -0.070736
  18 C :   -0.063791
  19 C :    0.005573
  20 C :   -0.207356
  21 H :    0.013090
  22 C :    0.073311
  23 H :    0.013038
  24 H :    0.026594
  25 C :   -0.096054
  26 H :    0.025181
  27 H :    0.031841
  28 C :   -0.035319
  29 H :    0.043014
  30 H :    0.041384
  31 H :    0.030660
  32 H :    0.034142
  33 H :    0.052479
Sum of atomic charges:   -0.0000000

LOEWDIN ATOMIC CHARGES
----------------------
   0 S :    0.388275
   1 C :   -0.182381
   2 C :   -0.064989
   3 C :   -0.053049
   4 C :   -0.205293
   5 H :    0.029513
   6 C :   -0.046193
   7 H :    0.040505
   8 H :    0.047074
   9 C :   -0.041406
  10 H :    0.023003
  11 H :    0.032052
  12 C :   -0.074743
  13 H :    0.032673
  14 H :    0.033468
  15 H :    0.017072
  16 S :    0.375898
  17 C :   -0.193510
  18 C :   -0.063454
  19 C :   -0.055675
  20 C :   -0.156723
  21 H :    0.025692
  22 C :   -0.041504
  23 H :    0.025212
  24 H :    0.035329
  25 C :   -0.048675
  26 H :    0.025410
  27 H :    0.029619
  28 C :   -0.067244
  29 H :    0.031601
  30 H :    0.034997
  31 H :    0.020736
  32 H :    0.019043
  33 H :    0.027669

  Mayer bond orders larger than 0.100000
B(  0-S ,  1-C ) :   1.1255 B(  0-S ,  4-C ) :   1.1210 B(  1-C ,  2-C ) :   1.6274
B(  1-C , 32-H ) :   0.9741 B(  2-C ,  3-C ) :   1.2005 B(  2-C ,  6-C ) :   1.0130
B(  3-C ,  4-C ) :   1.5959 B(  3-C ,  5-H ) :   0.9898 B(  4-C , 20-C ) :   1.0315
B(  6-C ,  7-H ) :   0.9512 B(  6-C ,  8-H ) :   0.9243 B(  6-C ,  9-C ) :   1.0772
B(  9-C , 10-H ) :   0.9548 B(  9-C , 11-H ) :   0.9559 B(  9-C , 12-C ) :   1.0553
B( 12-C , 13-H ) :   0.9781 B( 12-C , 14-H ) :   0.9769 B( 12-C , 15-H ) :   0.9758
B( 16-S , 17-C ) :   1.1305 B( 16-S , 20-C ) :   1.1215 B( 17-C , 18-C ) :   1.6551
B( 17-C , 33-H ) :   0.9581 B( 18-C , 19-C ) :   1.1878 B( 18-C , 21-H ) :   0.9895
B( 19-C , 20-C ) :   1.6537 B( 19-C , 22-C ) :   1.0372 B( 22-C , 23-H ) :   0.9171
B( 22-C , 24-H ) :   0.9369 B( 22-C , 25-C ) :   1.0804 B( 25-C , 26-H ) :   0.9460
B( 25-C , 27-H ) :   0.9500 B( 25-C , 28-C ) :   1.0919 B( 28-C , 29-H ) :   0.9667
B( 28-C , 30-H ) :   0.9699 B( 28-C , 31-H ) :   0.9725

Dispersion correction           -0.014704190
FINAL SINGLE POINT ENERGY     -1339.853609529016

DIPOLE MOMENT
-------------
                                X             Y             Z
Electronic contribution:      5.72551       7.63310      -1.57267
Nuclear contribution   :     -5.95338      -7.93558       1.34131
                        -----------------------------------------
Total Dipole Moment    :     -0.22788      -0.30247      -0.23135
                        -----------------------------------------
Magnitude (a.u.)       :      0.44378
Magnitude (Debye)      :      1.12800

Rotational constants in cm-1:     0.025934     0.007416     0.006246
Rotational constants in MHz :   777.471459   222.323549   187.241764

                             ****ORCA TERMINATED NORMALLY****
TOTAL RUN TIME: 0 days 0 hours 0 minutes 32 seconds 997 msec
