                         Program Version 4.2.1 -  RELEASE  -
|  1> ! wB97X-D3 SP def2-SVP
|  2> %pal
|  3> nprocs 16
|  4> end
|  5>
|  6> * xyz 0 1
|  7> S 	 53.9514 	 0.67745 	 78.7373
|  8> C 	 52.3379 	 1.11028 	 79.1957
|  9> C 	 52.3502 	 2.21027 	 80.0524
| 10> C 	 53.6524 	 2.66991 	 80.2987
| 11> C 	 54.6147 	 1.9687 	 79.6523
| 12> H 	 53.86 	 3.49533 	 80.9421
| 13> C 	 51.1283 	 2.83518 	 80.8003
| 14> H 	 50.4454 	 3.38467 	 80.1295
| 15> H 	 51.4577 	 3.76993 	 81.35
| 16> C 	 50.531 	 1.9333 	 81.9353
| 17> H 	 50.4488 	 0.914354 	 81.5698
| 18> H 	 51.3212 	 1.8746 	 82.7725
| 19> C 	 49.2142 	 2.46339 	 82.5944
| 20> H 	 48.3512 	 2.19498 	 81.9548
| 21> H 	 49.0226 	 2.11228 	 83.5466
| 22> H 	 49.301 	 3.54122 	 82.6943
| 23> S 	 56.4589 	 4.12478 	 79.8687
| 24> C 	 58.0499 	 4.00415 	 79.1887
| 25> C 	 58.2813 	 2.69426 	 78.7878
| 26> C 	 57.0866 	 1.92804 	 78.7009
| 27> C 	 55.98 	 2.4962 	 79.3879
| 28> H 	 59.246 	 2.46675 	 78.3764
| 29> C 	 57.1371 	 0.570932 	 78.0233
| 30> H 	 57.9719 	 0.537241 	 77.2936
| 31> H 	 56.1776 	 0.391559 	 77.4812
| 32> C 	 57.4236 	 -0.523646 	 78.9919
| 33> H 	 56.9094 	 -0.458024 	 79.9854
| 34> H 	 58.4379 	 -0.249498 	 79.259
| 35> C 	 57.5621 	 -1.99164 	 78.5602
| 36> H 	 56.535 	 -2.44657 	 78.6158
| 37> H 	 58.0774 	 -2.56657 	 79.2579
| 38> H 	 58.1114 	 -2.09972 	 77.6436
| 39> H 	 51.4675 	 0.557842 	 78.8981
| 40> H 	 58.8461 	 4.78383 	 79.2986
| 41> *
| 42>
| 43>                          ****END OF INPUT****

CARTESIAN COORDINATES (ANGSTROEM)
---------------------------------
  S     53.951400    0.677450   78.737300
  C     52.337900    1.110280   79.195700
  C     52.350200    2.210270   80.052400
  C     53.652400    2.669910   80.298700
  C     54.614700    1.968700   79.652300
  H     53.860000    3.495330   80.942100
  C     51.128300    2.835180   80.800300
  H     50.445400    3.384670   80.129500
  H     51.457700    3.769930   81.350000
  C     50.531000    1.933300   81.935300
  H     50.448800    0.914354   81.569800
  H     51.321200    1.874600   82.772500
  C     49.214200    2.463390   82.594400
  H     48.351200    2.194980   81.954800
  H     49.022600    2.112280   83.546600
  H     49.301000    3.541220   82.694300
  S     56.458900    4.124780   79.868700
  C     58.049900    4.004150   79.188700
  C     58.281300    2.694260   78.787800
  C     57.086600    1.928040   78.700900
  C     55.980000    2.496200   79.387900
  H     59.246000    2.466750   78.376400
  C     57.137100    0.570932   78.023300
  H     57.971900    0.537241   77.293600
  H     56.177600    0.391559   77.481200
  C     57.423600   -0.523646   78.991900
  H     56.909400   -0.458024   79.985400
  H     58.437900   -0.249498   79.259000
  C     57.562100   -1.991640   78.560200
  H     56.535000   -2.446570   78.615800
  H     58.077400   -2.566570   79.257900
  H     58.111400   -2.099720   77.643600
  H     51.467500    0.557842   78.898100
  H     58.846100    4.783830   79.298600

 Total Charge           Charge          ....    0
 Multiplicity           Mult            ....    1
 Number of Electrons    NEL             ....  134
 Basis Dimension        Dim             ....  322

ORBITAL ENERGIES
----------------

  NO   OCC          E(Eh)            E(eV)
   0   2.0000     -88.971543     -2421.0388
   1   2.0000     -88.966839     -2420.9108
   2   2.0000     -10.335066      -281.2314
   3   2.0000     -10.329091      -281.0688
   4   2.0000     -10.320986      -280.8483
   5   2.0000     -10.315550      -280.7004
   6   2.0000     -10.305178      -280.4181
   7   2.0000     -10.305020      -280.4139
   8   2.0000     -10.303062      -280.3606
   9   2.0000     -10.297571      -280.2112
  10   2.0000     -10.293416      -280.0981
  11   2.0000     -10.292578      -280.0753
  12   2.0000     -10.286897      -279.9207
  13   2.0000     -10.278885      -279.7027
  14   2.0000     -10.277767      -279.6723
  15   2.0000     -10.272473      -279.5282
  16   2.0000      -8.086528      -220.0456
  17   2.0000      -8.081161      -219.8996
  18   2.0000      -6.045020      -164.4934
  19   2.0000      -6.040893      -164.3811
  20   2.0000      -6.039767      -164.3504
  21   2.0000      -6.037399      -164.2860
  22   2.0000      -6.035602      -164.2371
  23   2.0000      -6.031988      -164.1387
  24   2.0000      -1.013213       -27.5709
  25   2.0000      -0.988182       -26.8898
  26   2.0000      -0.912822       -24.8391
  27   2.0000      -0.900557       -24.5054
  28   2.0000      -0.867942       -23.6179
  29   2.0000      -0.855486       -23.2790
  30   2.0000      -0.845663       -23.0117
  31   2.0000      -0.813528       -22.1372
  32   2.0000      -0.785403       -21.3719
  33   2.0000      -0.774035       -21.0626
  34   2.0000      -0.703649       -19.1473
  35   2.0000      -0.698985       -19.0204
  36   2.0000      -0.684404       -18.6236
  37   2.0000      -0.668541       -18.1919
  38   2.0000      -0.640114       -17.4184
  39   2.0000      -0.620023       -16.8717
  40   2.0000      -0.596104       -16.2208
  41   2.0000      -0.572102       -15.5677
  42   2.0000      -0.566650       -15.4193
  43   2.0000      -0.549961       -14.9652
  44   2.0000      -0.524355       -14.2684
  45   2.0000      -0.521528       -14.1915
  46   2.0000      -0.517445       -14.0804
  47   2.0000      -0.510441       -13.8898
  48   2.0000      -0.509164       -13.8551
  49   2.0000      -0.502983       -13.6869
  50   2.0000      -0.491501       -13.3744
  51   2.0000      -0.485900       -13.2220
  52   2.0000      -0.473270       -12.8783
  53   2.0000      -0.470644       -12.8069
  54   2.0000      -0.462923       -12.5968
  55   2.0000      -0.451142       -12.2762
  56   2.0000      -0.444273       -12.0893
  57   2.0000      -0.435971       -11.8634
  58   2.0000      -0.432918       -11.7803
  59   2.0000      -0.427968       -11.6456
  60   2.0000      -0.414230       -11.2718
  61   2.0000      -0.404148       -10.9974
  62   2.0000      -0.393108       -10.6970
  63   2.0000      -0.362352        -9.8601
  64   2.0000      -0.338372        -9.2076
  65   2.0000      -0.329888        -8.9767
  66   2.0000      -0.281192        -7.6516
  67   0.0000       0.019811         0.5391
  68   0.0000       0.081831         2.2267
  69   0.0000       0.111850         3.0436
  70   0.0000       0.121655         3.3104
  71   0.0000       0.125738         3.4215

MULLIKEN ATOMIC CHARGES
-----------------------
   0 S :    0.098695
   1 C :   -0.113772
   2 C :   -0.070140
   3 C :   -0.028918
   4 C :   -0.062383
   5 H :    0.010021
   6 C :    0.027629
   7 H :    0.040073
   8 H :    0.016257
   9 C :   -0.101788
  10 H :    0.032299
  11 H :    0.040188
  12 C :   -0.014568
  13 H :    0.039391
  14 H :    0.020839
  15 H :    0.024746
  16 S :    0.086934
  17 C :   -0.109705
  18 C :   -0.020132
  19 C :   -0.096444
  20 C :   -0.096341
  21 H :    0.018513
  22 C :    0.058566
  23 H :    0.021737
  24 H :    0.042013
  25 C :   -0.113628
  26 H :    0.037712
  27 H :    0.002299
  28 C :    0.009002
  29 H :    0.035998
  30 H :    0.013409
  31 H :    0.025145
  32 H :    0.047100
  33 H :    0.079254
Sum of atomic charges:   -0.0000000

LOEWDIN ATOMIC CHARGES
----------------------
   0 S :    0.450393
   1 C :   -0.198208
   2 C :   -0.057934
   3 C :   -0.070242
   4 C :   -0.195568
   5 H :    0.026133
   6 C :   -0.043939
   7 H :    0.032134
   8 H :    0.032981
   9 C :   -0.042475
  10 H :    0.017688
  11 H :    0.033057
  12 C :   -0.060213
  13 H :    0.030546
  14 H :    0.016056
  15 H :    0.025374
  16 S :    0.409671
  17 C :   -0.198776
  18 C :   -0.071976
  19 C :   -0.058210
  20 C :   -0.187648
  21 H :    0.029278
  22 C :   -0.041543
  23 H :    0.033544
  24 H :    0.016544
  25 C :   -0.057356
  26 H :    0.028814
  27 H :    0.020353
  28 C :   -0.061632
  29 H :    0.032763
  30 H :    0.019089
  31 H :    0.023186
  32 H :    0.026154
  33 H :    0.041963

  Mayer bond orders larger than 0.100000
B(  0-S ,  1-C ) :   1.1525 B(  0-S ,  4-C ) :   1.1633 B(  1-C ,  2-C ) :   1.5750
B(  1-C , 32-H ) :   0.9754 B(  2-C ,  3-C ) :   1.3043 B(  2-C ,  6-C ) :   1.0101
B(  3-C ,  4-C ) :   1.5245 B(  3-C ,  5-H ) :   0.9951 B(  4-C , 20-C ) :   1.0717
B(  6-C ,  7-H ) :   0.9488 B(  6-C ,  8-H ) :   0.9417 B(  6-C ,  9-C ) :   1.0372
B(  9-C , 10-H ) :   0.9685 B(  9-C , 11-H ) :   0.9586 B(  9-C , 12-C ) :   1.0666
B( 12-C , 13-H ) :   0.9772 B( 12-C , 14-H ) :   0.9766 B( 12-C , 15-H ) :   0.9752
B( 16-S , 17-C ) :   1.1682 B( 16-S , 20-C ) :   1.1414 B( 17-C , 18-C ) :   1.5885
B( 17-C , 33-H ) :   0.9595 B( 18-C , 19-C ) :   1.2810 B( 18-C , 21-H ) :   0.9857
B( 19-C , 20-C ) :   1.5336 B( 19-C , 22-C ) :   1.0500 B( 22-C , 23-H ) :   0.9278
B( 22-C , 24-H ) :   0.9310 B( 22-C , 25-C ) :   1.0521 B( 25-C , 26-H ) :   0.9567
B( 25-C , 27-H ) :   0.9505 B( 25-C , 28-C ) :   1.0901 B( 28-C , 29-H ) :   0.9725
B( 28-C , 30-H ) :   0.9697 B( 28-C , 31-H ) :   0.9699

Dispersion correction           -0.013771667
FINAL SINGLE POINT ENERGY     -1339.864182846786

DIPOLE MOMENT
-------------
                                X             Y             Z
Electronic contribution:      9.29775      10.76847      -6.94740
Nuclear contribution   :     -9.33831     -10.82936       7.06624
                        -----------------------------------------
Total Dipole Moment    :     -0.04056      -0.06089       0.11884
                        -----------------------------------------
Magnitude (a.u.)       :      0.13956
Magnitude (Debye)      :      0.35473

Rotational constants in cm-1:     0.021518     0.007566     0.005961
Rotational constants in MHz :   645.082094   226.830529   178.696654

                             ****ORCA TERMINATED NORMALLY****
TOTAL RUN TIME: 0 days 0 hours 0 minutes 30 seconds 929 msec
