                         Program Version 4.2.1 -  RELEASE  -
|  1> ! wB97X-D3 SP def2-SVP
|  2> %pal
|  3> nprocs 16
|  4> end
|  5>
|  6> * xyz 0 1
|  7> S 	 -41.7127 	 50.0918 	 101.939
|  8> C 	 -40.3763 	 48.9494 	 101.77
|  9> C 	 -39.2114 	 49.4799 	 102.244
| 10> C 	 -39.3307 	 50.8397 	 102.655
| 11> C 	 -40.5645 	 51.3678 	 102.528
| 12> H 	 -38.4779 	 51.4569 	 102.968
| 13> C 	 -37.8688 	 48.7589 	 102.355
| 14> H 	 -37.1608 	 49.2789 	 101.71
| 15> H 	 -37.9834 	 47.6933 	 102.005
| 16> C 	 -37.2929 	 48.5704 	 103.711
| 17> H 	 -36.4671 	 47.9292 	 103.547
| 18> H 	 -36.7559 	 49.341 	 104.264
| 19> C 	 -38.1902 	 47.7837 	 104.663
| 20> H 	 -38.1705 	 46.6771 	 104.574
| 21> H 	 -37.7505 	 47.9702 	 105.602
| 22> H 	 -39.2161 	 48.16 	 104.83
| 23> S 	 -40.9077 	 53.3521 	 104.369
| 24> C 	 -41.6707 	 54.8283 	 103.994
| 25> C 	 -41.9948 	 54.8318 	 102.613
| 26> C 	 -41.5952 	 53.6577 	 101.913
| 27> C 	 -40.939 	 52.7706 	 102.745
| 28> H 	 -42.5495 	 55.6451 	 102.18
| 29> C 	 -41.6874 	 53.4486 	 100.444
| 30> H 	 -42.6715 	 53.7939 	 100.265
| 31> H 	 -41.6433 	 52.4063 	 100.078
| 32> C 	 -40.6457 	 54.2468 	 99.7134
| 33> H 	 -39.6813 	 53.8049 	 99.9074
| 34> H 	 -40.6366 	 55.2761 	 100.094
| 35> C 	 -41.0374 	 54.3808 	 98.2189
| 36> H 	 -42.0941 	 54.8297 	 98.049
| 37> H 	 -41.1069 	 53.4279 	 97.701
| 38> H 	 -40.2493 	 54.874 	 97.7265
| 39> H 	 -40.435 	 47.8839 	 101.664
| 40> H 	 -41.9756 	 55.6658 	 104.675
| 41> *
| 42>
| 43>                          ****END OF INPUT****

CARTESIAN COORDINATES (ANGSTROEM)
---------------------------------
  S    -41.712700   50.091800  101.939000
  C    -40.376300   48.949400  101.770000
  C    -39.211400   49.479900  102.244000
  C    -39.330700   50.839700  102.655000
  C    -40.564500   51.367800  102.528000
  H    -38.477900   51.456900  102.968000
  C    -37.868800   48.758900  102.355000
  H    -37.160800   49.278900  101.710000
  H    -37.983400   47.693300  102.005000
  C    -37.292900   48.570400  103.711000
  H    -36.467100   47.929200  103.547000
  H    -36.755900   49.341000  104.264000
  C    -38.190200   47.783700  104.663000
  H    -38.170500   46.677100  104.574000
  H    -37.750500   47.970200  105.602000
  H    -39.216100   48.160000  104.830000
  S    -40.907700   53.352100  104.369000
  C    -41.670700   54.828300  103.994000
  C    -41.994800   54.831800  102.613000
  C    -41.595200   53.657700  101.913000
  C    -40.939000   52.770600  102.745000
  H    -42.549500   55.645100  102.180000
  C    -41.687400   53.448600  100.444000
  H    -42.671500   53.793900  100.265000
  H    -41.643300   52.406300  100.078000
  C    -40.645700   54.246800   99.713400
  H    -39.681300   53.804900   99.907400
  H    -40.636600   55.276100  100.094000
  C    -41.037400   54.380800   98.218900
  H    -42.094100   54.829700   98.049000
  H    -41.106900   53.427900   97.701000
  H    -40.249300   54.874000   97.726500
  H    -40.435000   47.883900  101.664000
  H    -41.975600   55.665800  104.675000

 Total Charge           Charge          ....    0
 Multiplicity           Mult            ....    1
 Number of Electrons    NEL             ....  134
 Basis Dimension        Dim             ....  322

ORBITAL ENERGIES
----------------

  NO   OCC          E(Eh)            E(eV)
   0   2.0000     -88.965954     -2420.8867
   1   2.0000     -88.965116     -2420.8639
   2   2.0000     -10.331156      -281.1250
   3   2.0000     -10.321751      -280.8691
   4   2.0000     -10.319273      -280.8017
   5   2.0000     -10.310992      -280.5764
   6   2.0000     -10.297911      -280.2204
   7   2.0000     -10.296191      -280.1736
   8   2.0000     -10.294719      -280.1335
   9   2.0000     -10.294540      -280.1287
  10   2.0000     -10.290639      -280.0225
  11   2.0000     -10.281274      -279.7677
  12   2.0000     -10.280544      -279.7478
  13   2.0000     -10.279308      -279.7142
  14   2.0000     -10.277664      -279.6695
  15   2.0000     -10.272311      -279.5238
  16   2.0000      -8.081565      -219.9106
  17   2.0000      -8.078333      -219.8226
  18   2.0000      -6.039937      -164.3550
  19   2.0000      -6.037114      -164.2782
  20   2.0000      -6.035698      -164.2397
  21   2.0000      -6.033137      -164.1700
  22   2.0000      -6.032668      -164.1573
  23   2.0000      -6.028791      -164.0517
  24   2.0000      -1.008290       -27.4370
  25   2.0000      -0.984514       -26.7900
  26   2.0000      -0.916745       -24.9459
  27   2.0000      -0.915694       -24.9173
  28   2.0000      -0.869325       -23.6555
  29   2.0000      -0.850015       -23.1301
  30   2.0000      -0.843443       -22.9513
  31   2.0000      -0.813364       -22.1328
  32   2.0000      -0.783548       -21.3214
  33   2.0000      -0.773270       -21.0418
  34   2.0000      -0.704872       -19.1806
  35   2.0000      -0.699524       -19.0350
  36   2.0000      -0.693164       -18.8619
  37   2.0000      -0.665050       -18.0969
  38   2.0000      -0.632097       -17.2002
  39   2.0000      -0.621268       -16.9056
  40   2.0000      -0.597179       -16.2501
  41   2.0000      -0.567014       -15.4292
  42   2.0000      -0.562192       -15.2980
  43   2.0000      -0.561507       -15.2794
  44   2.0000      -0.540888       -14.7183
  45   2.0000      -0.525702       -14.3051
  46   2.0000      -0.515200       -14.0193
  47   2.0000      -0.511584       -13.9209
  48   2.0000      -0.506871       -13.7927
  49   2.0000      -0.499489       -13.5918
  50   2.0000      -0.485056       -13.1991
  51   2.0000      -0.477452       -12.9921
  52   2.0000      -0.462924       -12.5968
  53   2.0000      -0.461892       -12.5687
  54   2.0000      -0.456275       -12.4159
  55   2.0000      -0.447964       -12.1897
  56   2.0000      -0.443649       -12.0723
  57   2.0000      -0.441017       -12.0007
  58   2.0000      -0.431052       -11.7295
  59   2.0000      -0.426691       -11.6109
  60   2.0000      -0.419270       -11.4089
  61   2.0000      -0.410132       -11.1603
  62   2.0000      -0.405233       -11.0270
  63   2.0000      -0.345175        -9.3927
  64   2.0000      -0.330727        -8.9995
  65   2.0000      -0.325889        -8.8679
  66   2.0000      -0.298518        -8.1231
  67   0.0000       0.037790         1.0283
  68   0.0000       0.063857         1.7376
  69   0.0000       0.109133         2.9697
  70   0.0000       0.125507         3.4152
  71   0.0000       0.133442         3.6311

MULLIKEN ATOMIC CHARGES
-----------------------
   0 S :    0.097926
   1 C :   -0.105141
   2 C :   -0.097235
   3 C :    0.017121
   4 C :   -0.118291
   5 H :    0.020894
   6 C :    0.077341
   7 H :    0.037167
   8 H :    0.018687
   9 C :   -0.056394
  10 H :    0.011377
  11 H :    0.024532
  12 C :   -0.064358
  13 H :    0.037130
  14 H :    0.009277
  15 H :    0.048698
  16 S :    0.129464
  17 C :   -0.112227
  18 C :   -0.058811
  19 C :   -0.035286
  20 C :   -0.181926
  21 H :    0.012964
  22 C :    0.084519
  23 H :    0.003357
  24 H :    0.032660
  25 C :   -0.058633
  26 H :    0.028769
  27 H :    0.026643
  28 C :   -0.044672
  29 H :    0.044230
  30 H :    0.020512
  31 H :    0.026777
  32 H :    0.042770
  33 H :    0.080160
Sum of atomic charges:    0.0000000

LOEWDIN ATOMIC CHARGES
----------------------
   0 S :    0.369144
   1 C :   -0.191325
   2 C :   -0.066511
   3 C :   -0.063124
   4 C :   -0.168094
   5 H :    0.036779
   6 C :   -0.031138
   7 H :    0.033251
   8 H :    0.036522
   9 C :   -0.051292
  10 H :    0.027553
  11 H :    0.024495
  12 C :   -0.071647
  13 H :    0.028196
  14 H :    0.022718
  15 H :    0.030803
  16 S :    0.447485
  17 C :   -0.215220
  18 C :   -0.074292
  19 C :   -0.054301
  20 C :   -0.217491
  21 H :    0.026486
  22 C :   -0.034070
  23 H :    0.023759
  24 H :    0.030120
  25 C :   -0.032432
  26 H :    0.025725
  27 H :    0.025172
  28 C :   -0.068620
  29 H :    0.036988
  30 H :    0.021306
  31 H :    0.018601
  32 H :    0.028411
  33 H :    0.046045

  Mayer bond orders larger than 0.100000
B(  0-S ,  1-C ) :   1.1152 B(  0-S ,  4-C ) :   1.1072 B(  1-C ,  2-C ) :   1.6656
B(  1-C , 32-H ) :   0.9565 B(  2-C ,  3-C ) :   1.2016 B(  2-C ,  6-C ) :   1.0313
B(  3-C ,  4-C ) :   1.6188 B(  3-C ,  5-H ) :   0.9923 B(  4-C , 20-C ) :   1.0225
B(  6-C ,  7-H ) :   0.9359 B(  6-C ,  8-H ) :   0.9386 B(  6-C ,  9-C ) :   1.0787
B(  9-C , 10-H ) :   0.9438 B(  9-C , 11-H ) :   0.9566 B(  9-C , 12-C ) :   1.0775
B( 12-C , 13-H ) :   0.9757 B( 12-C , 14-H ) :   0.9692 B( 12-C , 15-H ) :   0.9740
B( 16-S , 17-C ) :   1.1878 B( 16-S , 20-C ) :   1.1649 B( 17-C , 18-C ) :   1.5512
B( 17-C , 20-C ) :   0.1030 B( 17-C , 33-H ) :   0.9635 B( 18-C , 19-C ) :   1.2799
B( 18-C , 21-H ) :   0.9916 B( 19-C , 20-C ) :   1.5541 B( 19-C , 22-C ) :   1.0447
B( 22-C , 23-H ) :   0.9213 B( 22-C , 24-H ) :   0.9295 B( 22-C , 25-C ) :   1.0746
B( 25-C , 26-H ) :   0.9511 B( 25-C , 27-H ) :   0.9570 B( 25-C , 28-C ) :   1.0757
B( 28-C , 29-H ) :   0.9747 B( 28-C , 30-H ) :   0.9725 B( 28-C , 31-H ) :   0.9734

Dispersion correction           -0.014484818
FINAL SINGLE POINT ENERGY     -1339.870726312120

DIPOLE MOMENT
-------------
                                X             Y             Z
Electronic contribution:    -11.58701       4.11699       9.84652
Nuclear contribution   :     11.99319      -4.09279      -9.92581
                        -----------------------------------------
Total Dipole Moment    :      0.40618       0.02419      -0.07929
                        -----------------------------------------
Magnitude (a.u.)       :      0.41455
Magnitude (Debye)      :      1.05371

Rotational constants in cm-1:     0.020259     0.008265     0.006912
Rotational constants in MHz :   607.336329   247.790707   207.225187

                             ****ORCA TERMINATED NORMALLY****
TOTAL RUN TIME: 0 days 0 hours 0 minutes 28 seconds 335 msec
