                         Program Version 4.2.1 -  RELEASE  -
|  1> ! wB97X-D3 SP def2-SVP
|  2> %pal
|  3> nprocs 16
|  4> end
|  5>
|  6> * xyz 0 1
|  7> S 	 -64.841 	 46.2627 	 121.46
|  8> C 	 -64.4105 	 47.6001 	 122.429
|  9> C 	 -65.2786 	 47.6534 	 123.518
| 10> C 	 -66.3127 	 46.6363 	 123.419
| 11> C 	 -66.3713 	 45.9553 	 122.214
| 12> H 	 -67.0124 	 46.4409 	 124.141
| 13> C 	 -65.1445 	 48.5883 	 124.729
| 14> H 	 -64.1816 	 49.0958 	 124.731
| 15> H 	 -65.2496 	 48.0166 	 125.677
| 16> C 	 -66.3149 	 49.571 	 124.695
| 17> H 	 -66.2219 	 50.1464 	 123.768
| 18> H 	 -67.2799 	 48.9935 	 124.772
| 19> C 	 -66.3195 	 50.6158 	 125.826
| 20> H 	 -65.4537 	 51.2474 	 125.704
| 21> H 	 -67.1286 	 51.3385 	 125.682
| 22> H 	 -66.3024 	 50.2173 	 126.774
| 23> S 	 -66.3998 	 43.4699 	 120.9
| 24> C 	 -67.8334 	 42.4423 	 120.797
| 25> C 	 -68.877 	 43.138 	 121.458
| 26> C 	 -68.5334 	 44.4364 	 122.033
| 27> C 	 -67.1871 	 44.7707 	 121.814
| 28> H 	 -69.8468 	 42.7056 	 121.524
| 29> C 	 -69.5313 	 45.3483 	 122.625
| 30> H 	 -69.2432 	 45.8596 	 123.553
| 31> H 	 -70.4821 	 44.8851 	 122.836
| 32> C 	 -69.8934 	 46.3749 	 121.584
| 33> H 	 -70.0849 	 45.8402 	 120.677
| 34> H 	 -68.9823 	 46.9121 	 121.371
| 35> C 	 -71.0171 	 47.2765 	 121.872
| 36> H 	 -71.0362 	 48.0608 	 121.125
| 37> H 	 -70.8719 	 47.8049 	 122.807
| 38> H 	 -71.9561 	 46.7697 	 121.907
| 39> H 	 -63.5394 	 48.2406 	 122.219
| 40> H 	 -67.9001 	 41.4947 	 120.283
| 41> *
| 42>
| 43>                          ****END OF INPUT****

CARTESIAN COORDINATES (ANGSTROEM)
---------------------------------
  S    -64.841000   46.262700  121.460000
  C    -64.410500   47.600100  122.429000
  C    -65.278600   47.653400  123.518000
  C    -66.312700   46.636300  123.419000
  C    -66.371300   45.955300  122.214000
  H    -67.012400   46.440900  124.141000
  C    -65.144500   48.588300  124.729000
  H    -64.181600   49.095800  124.731000
  H    -65.249600   48.016600  125.677000
  C    -66.314900   49.571000  124.695000
  H    -66.221900   50.146400  123.768000
  H    -67.279900   48.993500  124.772000
  C    -66.319500   50.615800  125.826000
  H    -65.453700   51.247400  125.704000
  H    -67.128600   51.338500  125.682000
  H    -66.302400   50.217300  126.774000
  S    -66.399800   43.469900  120.900000
  C    -67.833400   42.442300  120.797000
  C    -68.877000   43.138000  121.458000
  C    -68.533400   44.436400  122.033000
  C    -67.187100   44.770700  121.814000
  H    -69.846800   42.705600  121.524000
  C    -69.531300   45.348300  122.625000
  H    -69.243200   45.859600  123.553000
  H    -70.482100   44.885100  122.836000
  C    -69.893400   46.374900  121.584000
  H    -70.084900   45.840200  120.677000
  H    -68.982300   46.912100  121.371000
  C    -71.017100   47.276500  121.872000
  H    -71.036200   48.060800  121.125000
  H    -70.871900   47.804900  122.807000
  H    -71.956100   46.769700  121.907000
  H    -63.539400   48.240600  122.219000
  H    -67.900100   41.494700  120.283000

 Total Charge           Charge          ....    0
 Multiplicity           Mult            ....    1
 Number of Electrons    NEL             ....  134
 Basis Dimension        Dim             ....  322

ORBITAL ENERGIES
----------------

  NO   OCC          E(Eh)            E(eV)
   0   2.0000     -88.965826     -2420.8832
   1   2.0000     -88.961561     -2420.7671
   2   2.0000     -10.337005      -281.2842
   3   2.0000     -10.335042      -281.2308
   4   2.0000     -10.326535      -280.9993
   5   2.0000     -10.317827      -280.7624
   6   2.0000     -10.308678      -280.5134
   7   2.0000     -10.307478      -280.4807
   8   2.0000     -10.301283      -280.3122
   9   2.0000     -10.297075      -280.1977
  10   2.0000     -10.293471      -280.0996
  11   2.0000     -10.289354      -279.9876
  12   2.0000     -10.286098      -279.8990
  13   2.0000     -10.270631      -279.4781
  14   2.0000     -10.269090      -279.4362
  15   2.0000     -10.268446      -279.4186
  16   2.0000      -8.079733      -219.8607
  17   2.0000      -8.077616      -219.8031
  18   2.0000      -6.038444      -164.3144
  19   2.0000      -6.036137      -164.2516
  20   2.0000      -6.034151      -164.1976
  21   2.0000      -6.031925      -164.1370
  22   2.0000      -6.030510      -164.0985
  23   2.0000      -6.028266      -164.0375
  24   2.0000      -1.008618       -27.4459
  25   2.0000      -0.982496       -26.7351
  26   2.0000      -0.922334       -25.0980
  27   2.0000      -0.912281       -24.8244
  28   2.0000      -0.868574       -23.6351
  29   2.0000      -0.853896       -23.2357
  30   2.0000      -0.844092       -22.9689
  31   2.0000      -0.817477       -22.2447
  32   2.0000      -0.783310       -21.3149
  33   2.0000      -0.774606       -21.0781
  34   2.0000      -0.704679       -19.1753
  35   2.0000      -0.694166       -18.8892
  36   2.0000      -0.689651       -18.7663
  37   2.0000      -0.666657       -18.1406
  38   2.0000      -0.648053       -17.6344
  39   2.0000      -0.624926       -17.0051
  40   2.0000      -0.601498       -16.3676
  41   2.0000      -0.576209       -15.6794
  42   2.0000      -0.574324       -15.6281
  43   2.0000      -0.561477       -15.2786
  44   2.0000      -0.526592       -14.3293
  45   2.0000      -0.524149       -14.2628
  46   2.0000      -0.521575       -14.1928
  47   2.0000      -0.516199       -14.0465
  48   2.0000      -0.514878       -14.0105
  49   2.0000      -0.507386       -13.8067
  50   2.0000      -0.494863       -13.4659
  51   2.0000      -0.490842       -13.3565
  52   2.0000      -0.472839       -12.8666
  53   2.0000      -0.467186       -12.7128
  54   2.0000      -0.459486       -12.5032
  55   2.0000      -0.451832       -12.2950
  56   2.0000      -0.441889       -12.0244
  57   2.0000      -0.432131       -11.7589
  58   2.0000      -0.426624       -11.6090
  59   2.0000      -0.425914       -11.5897
  60   2.0000      -0.422938       -11.5087
  61   2.0000      -0.413647       -11.2559
  62   2.0000      -0.405981       -11.0473
  63   2.0000      -0.359039        -9.7699
  64   2.0000      -0.329019        -8.9531
  65   2.0000      -0.320383        -8.7181
  66   2.0000      -0.288590        -7.8529
  67   0.0000       0.019760         0.5377
  68   0.0000       0.076263         2.0752
  69   0.0000       0.102626         2.7926
  70   0.0000       0.121155         3.2968
  71   0.0000       0.128856         3.5064

MULLIKEN ATOMIC CHARGES
-----------------------
   0 S :    0.086135
   1 C :   -0.117852
   2 C :   -0.095231
   3 C :    0.044255
   4 C :   -0.102639
   5 H :   -0.023524
   6 C :    0.077993
   7 H :    0.019709
   8 H :    0.035231
   9 C :   -0.130808
  10 H :    0.033121
  11 H :    0.041323
  12 C :    0.006996
  13 H :    0.011722
  14 H :    0.032229
  15 H :    0.015806
  16 S :    0.090306
  17 C :   -0.094741
  18 C :   -0.024232
  19 C :   -0.047520
  20 C :   -0.141835
  21 H :    0.011798
  22 C :    0.080889
  23 H :    0.023191
  24 H :    0.000303
  25 C :   -0.093811
  26 H :    0.015397
  27 H :    0.025108
  28 C :    0.019111
  29 H :    0.028529
  30 H :    0.014390
  31 H :    0.024430
  32 H :    0.065226
  33 H :    0.068996
Sum of atomic charges:   -0.0000000

LOEWDIN ATOMIC CHARGES
----------------------
   0 S :    0.425322
   1 C :   -0.210628
   2 C :   -0.060823
   3 C :   -0.053510
   4 C :   -0.194815
   5 H :    0.010885
   6 C :   -0.031297
   7 H :    0.027134
   8 H :    0.034951
   9 C :   -0.042991
  10 H :    0.026091
  11 H :    0.027444
  12 C :   -0.060859
  13 H :    0.022339
  14 H :    0.030173
  15 H :    0.010847
  16 S :    0.391485
  17 C :   -0.183300
  18 C :   -0.064870
  19 C :   -0.054448
  20 C :   -0.187326
  21 H :    0.024186
  22 C :   -0.034093
  23 H :    0.028181
  24 H :    0.026221
  25 C :   -0.041965
  26 H :    0.022529
  27 H :    0.023223
  28 C :   -0.058254
  29 H :    0.030818
  30 H :    0.023049
  31 H :    0.021074
  32 H :    0.038019
  33 H :    0.035208

  Mayer bond orders larger than 0.100000
B(  0-S ,  1-C ) :   1.1627 B(  0-S ,  4-C ) :   1.1605 B(  1-C ,  2-C ) :   1.5688
B(  1-C , 32-H ) :   0.9726 B(  2-C ,  3-C ) :   1.2610 B(  2-C ,  6-C ) :   1.0306
B(  3-C ,  4-C ) :   1.5334 B(  3-C ,  5-H ) :   1.0040 B(  4-C , 20-C ) :   1.0565
B(  6-C ,  7-H ) :   0.9452 B(  6-C ,  8-H ) :   0.9398 B(  6-C ,  9-C ) :   1.0584
B(  9-C , 10-H ) :   0.9568 B(  9-C , 11-H ) :   0.9583 B(  9-C , 12-C ) :   1.0885
B( 12-C , 13-H ) :   0.9705 B( 12-C , 14-H ) :   0.9731 B( 12-C , 15-H ) :   0.9746
B( 16-S , 17-C ) :   1.1527 B( 16-S , 20-C ) :   1.1414 B( 17-C , 18-C ) :   1.5778
B( 17-C , 20-C ) :   0.1016 B( 17-C , 33-H ) :   0.9735 B( 18-C , 19-C ) :   1.2613
B( 18-C , 21-H ) :   0.9909 B( 19-C , 20-C ) :   1.5654 B( 19-C , 22-C ) :   1.0749
B( 22-C , 23-H ) :   0.9272 B( 22-C , 24-H ) :   0.9244 B( 22-C , 25-C ) :   1.0638
B( 25-C , 26-H ) :   0.9466 B( 25-C , 27-H ) :   0.9504 B( 25-C , 28-C ) :   1.1039
B( 28-C , 29-H ) :   0.9662 B( 28-C , 30-H ) :   0.9654 B( 28-C , 31-H ) :   0.9704

Dispersion correction           -0.013919794
FINAL SINGLE POINT ENERGY     -1339.873127362841

DIPOLE MOMENT
-------------
                                X             Y             Z
Electronic contribution:     16.18749     -22.12593     -14.77547
Nuclear contribution   :    -16.56876      22.47095      15.19094
                        -----------------------------------------
Total Dipole Moment    :     -0.38127       0.34502       0.41547
                        -----------------------------------------
Magnitude (a.u.)       :      0.66108
Magnitude (Debye)      :      1.68032

Rotational constants in cm-1:     0.018736     0.008831     0.006512
Rotational constants in MHz :   561.692715   264.757836   195.229249

                             ****ORCA TERMINATED NORMALLY****
TOTAL RUN TIME: 0 days 0 hours 0 minutes 33 seconds 905 msec
