                         Program Version 4.2.1 -  RELEASE  -
|  1> ! wB97X-D3 SP def2-SVP
|  2> %pal
|  3> nprocs 16
|  4> end
|  5>
|  6> * xyz 0 1
|  7> S 	 1.62119 	 -20.1666 	 85.3064
|  8> C 	 2.14741 	 -20.2161 	 87.0373
|  9> C 	 2.96178 	 -19.1335 	 87.3882
| 10> C 	 3.1257 	 -18.2857 	 86.2864
| 11> C 	 2.48975 	 -18.6111 	 85.1197
| 12> H 	 3.72778 	 -17.366 	 86.1974
| 13> C 	 3.56041 	 -18.8977 	 88.7467
| 14> H 	 2.70654 	 -18.8298 	 89.4313
| 15> H 	 3.93272 	 -17.8581 	 88.8405
| 16> C 	 4.68335 	 -19.8287 	 89.2094
| 17> H 	 4.27175 	 -20.8145 	 89.3323
| 18> H 	 5.46488 	 -19.8711 	 88.4683
| 19> C 	 5.31039 	 -19.4917 	 90.5429
| 20> H 	 4.58927 	 -19.3203 	 91.3097
| 21> H 	 6.01911 	 -20.1642 	 90.9195
| 22> H 	 5.81016 	 -18.5542 	 90.4003
| 23> S 	 1.40614 	 -18.6277 	 82.6684
| 24> C 	 2.07385 	 -17.6784 	 81.456
| 25> C 	 3.19265 	 -16.9912 	 81.7571
| 26> C 	 3.54431 	 -17.1309 	 83.1242
| 27> C 	 2.61902 	 -18.0288 	 83.7794
| 28> H 	 3.54012 	 -16.2479 	 81.0345
| 29> C 	 4.61987 	 -16.2706 	 83.8561
| 30> H 	 4.24157 	 -15.835 	 84.7391
| 31> H 	 4.75517 	 -15.415 	 83.195
| 32> C 	 5.92734 	 -17.0612 	 84.038
| 33> H 	 6.24559 	 -17.4534 	 83.0448
| 34> H 	 5.7032 	 -17.9112 	 84.7159
| 35> C 	 6.98025 	 -16.3126 	 84.8674
| 36> H 	 6.95583 	 -15.2575 	 84.5131
| 37> H 	 8.01558 	 -16.7419 	 84.7985
| 38> H 	 6.60787 	 -16.3307 	 85.8821
| 39> H 	 2.01945 	 -21.1723 	 87.6097
| 40> H 	 1.68952 	 -17.6929 	 80.4566
| 41> *
| 42>
| 43>                          ****END OF INPUT****

CARTESIAN COORDINATES (ANGSTROEM)
---------------------------------
  S      1.621190  -20.166600   85.306400
  C      2.147410  -20.216100   87.037300
  C      2.961780  -19.133500   87.388200
  C      3.125700  -18.285700   86.286400
  C      2.489750  -18.611100   85.119700
  H      3.727780  -17.366000   86.197400
  C      3.560410  -18.897700   88.746700
  H      2.706540  -18.829800   89.431300
  H      3.932720  -17.858100   88.840500
  C      4.683350  -19.828700   89.209400
  H      4.271750  -20.814500   89.332300
  H      5.464880  -19.871100   88.468300
  C      5.310390  -19.491700   90.542900
  H      4.589270  -19.320300   91.309700
  H      6.019110  -20.164200   90.919500
  H      5.810160  -18.554200   90.400300
  S      1.406140  -18.627700   82.668400
  C      2.073850  -17.678400   81.456000
  C      3.192650  -16.991200   81.757100
  C      3.544310  -17.130900   83.124200
  C      2.619020  -18.028800   83.779400
  H      3.540120  -16.247900   81.034500
  C      4.619870  -16.270600   83.856100
  H      4.241570  -15.835000   84.739100
  H      4.755170  -15.415000   83.195000
  C      5.927340  -17.061200   84.038000
  H      6.245590  -17.453400   83.044800
  H      5.703200  -17.911200   84.715900
  C      6.980250  -16.312600   84.867400
  H      6.955830  -15.257500   84.513100
  H      8.015580  -16.741900   84.798500
  H      6.607870  -16.330700   85.882100
  H      2.019450  -21.172300   87.609700
  H      1.689520  -17.692900   80.456600

 Total Charge           Charge          ....    0
 Multiplicity           Mult            ....    1
 Number of Electrons    NEL             ....  134
 Basis Dimension        Dim             ....  322

ORBITAL ENERGIES
----------------

  NO   OCC          E(Eh)            E(eV)
   0   2.0000     -88.967843     -2420.9381
   1   2.0000     -88.964699     -2420.8525
   2   2.0000     -10.331470      -281.1336
   3   2.0000     -10.330897      -281.1180
   4   2.0000     -10.322009      -280.8761
   5   2.0000     -10.313197      -280.6364
   6   2.0000     -10.306244      -280.4472
   7   2.0000     -10.305368      -280.4233
   8   2.0000     -10.296051      -280.1698
   9   2.0000     -10.295744      -280.1614
  10   2.0000     -10.291154      -280.0365
  11   2.0000     -10.290779      -280.0263
  12   2.0000     -10.289434      -279.9897
  13   2.0000     -10.284305      -279.8502
  14   2.0000     -10.284002      -279.8419
  15   2.0000     -10.269294      -279.4417
  16   2.0000      -8.084213      -219.9826
  17   2.0000      -8.078207      -219.8192
  18   2.0000      -6.042412      -164.4224
  19   2.0000      -6.038570      -164.3178
  20   2.0000      -6.036823      -164.2703
  21   2.0000      -6.035140      -164.2245
  22   2.0000      -6.033073      -164.1683
  23   2.0000      -6.028738      -164.0503
  24   2.0000      -1.009462       -27.4689
  25   2.0000      -0.982379       -26.7319
  26   2.0000      -0.915113       -24.9015
  27   2.0000      -0.910561       -24.7776
  28   2.0000      -0.873085       -23.7578
  29   2.0000      -0.854182       -23.2435
  30   2.0000      -0.846123       -23.0242
  31   2.0000      -0.816315       -22.2131
  32   2.0000      -0.787291       -21.4233
  33   2.0000      -0.770179       -20.9576
  34   2.0000      -0.708635       -19.2829
  35   2.0000      -0.700653       -19.0657
  36   2.0000      -0.689778       -18.7698
  37   2.0000      -0.663682       -18.0597
  38   2.0000      -0.635688       -17.2979
  39   2.0000      -0.619042       -16.8450
  40   2.0000      -0.599243       -16.3062
  41   2.0000      -0.574124       -15.6227
  42   2.0000      -0.567874       -15.4526
  43   2.0000      -0.559847       -15.2342
  44   2.0000      -0.529908       -14.4195
  45   2.0000      -0.525687       -14.3047
  46   2.0000      -0.519308       -14.1311
  47   2.0000      -0.509225       -13.8567
  48   2.0000      -0.508011       -13.8237
  49   2.0000      -0.492361       -13.3978
  50   2.0000      -0.490702       -13.3527
  51   2.0000      -0.488328       -13.2881
  52   2.0000      -0.473794       -12.8926
  53   2.0000      -0.464753       -12.6466
  54   2.0000      -0.458567       -12.4782
  55   2.0000      -0.454188       -12.3591
  56   2.0000      -0.440808       -11.9950
  57   2.0000      -0.439562       -11.9611
  58   2.0000      -0.435773       -11.8580
  59   2.0000      -0.431158       -11.7324
  60   2.0000      -0.423489       -11.5237
  61   2.0000      -0.413684       -11.2569
  62   2.0000      -0.408858       -11.1256
  63   2.0000      -0.358008        -9.7419
  64   2.0000      -0.341484        -9.2922
  65   2.0000      -0.331743        -9.0272
  66   2.0000      -0.275931        -7.5085
  67   0.0000       0.016695         0.4543
  68   0.0000       0.074113         2.0167
  69   0.0000       0.092319         2.5121
  70   0.0000       0.118885         3.2350
  71   0.0000       0.129574         3.5259

MULLIKEN ATOMIC CHARGES
-----------------------
   0 S :    0.071736
   1 C :   -0.147094
   2 C :   -0.046800
   3 C :   -0.026311
   4 C :   -0.082778
   5 H :   -0.002821
   6 C :    0.049463
   7 H :    0.036412
   8 H :    0.011006
   9 C :   -0.048160
  10 H :    0.019725
  11 H :    0.028841
  12 C :   -0.011678
  13 H :    0.017910
  14 H :    0.028457
  15 H :    0.014068
  16 S :    0.108046
  17 C :   -0.070571
  18 C :   -0.041879
  19 C :   -0.054469
  20 C :   -0.147254
  21 H :    0.027183
  22 C :    0.055475
  23 H :    0.025600
  24 H :    0.015247
  25 C :   -0.093648
  26 H :    0.039328
  27 H :    0.036830
  28 C :   -0.039703
  29 H :    0.028409
  30 H :    0.055543
  31 H :    0.026551
  32 H :    0.073184
  33 H :    0.044151
Sum of atomic charges:   -0.0000000

LOEWDIN ATOMIC CHARGES
----------------------
   0 S :    0.352162
   1 C :   -0.182620
   2 C :   -0.061230
   3 C :   -0.078381
   4 C :   -0.173880
   5 H :    0.033067
   6 C :   -0.035718
   7 H :    0.037249
   8 H :    0.030040
   9 C :   -0.033882
  10 H :    0.019637
  11 H :    0.024967
  12 C :   -0.057108
  13 H :    0.021746
  14 H :    0.022231
  15 H :    0.022032
  16 S :    0.438939
  17 C :   -0.200885
  18 C :   -0.082150
  19 C :   -0.045593
  20 C :   -0.193543
  21 H :    0.038836
  22 C :   -0.026854
  23 H :    0.020083
  24 H :    0.029513
  25 C :   -0.046089
  26 H :    0.027970
  27 H :    0.027561
  28 C :   -0.069498
  29 H :    0.023894
  30 H :    0.035060
  31 H :    0.022729
  32 H :    0.035964
  33 H :    0.023749

  Mayer bond orders larger than 0.100000
B(  0-S ,  1-C ) :   1.1252 B(  0-S ,  4-C ) :   1.1226 B(  1-C ,  2-C ) :   1.6042
B(  1-C ,  4-C ) :   0.1029 B(  1-C , 32-H ) :   0.9618 B(  2-C ,  3-C ) :   1.2404
B(  2-C ,  6-C ) :   1.0147 B(  3-C ,  4-C ) :   1.6090 B(  3-C ,  5-H ) :   0.9877
B(  4-C , 20-C ) :   1.0746 B(  6-C ,  7-H ) :   0.9333 B(  6-C ,  8-H ) :   0.9422
B(  6-C ,  9-C ) :   1.0602 B(  9-C , 10-H ) :   0.9540 B(  9-C , 11-H ) :   0.9570
B(  9-C , 12-C ) :   1.0909 B( 12-C , 13-H ) :   0.9723 B( 12-C , 14-H ) :   0.9733
B( 12-C , 15-H ) :   0.9722 B( 16-S , 17-C ) :   1.1805 B( 16-S , 20-C ) :   1.1586
B( 17-C , 18-C ) :   1.6143 B( 17-C , 33-H ) :   0.9613 B( 18-C , 19-C ) :   1.2741
B( 18-C , 21-H ) :   0.9836 B( 19-C , 20-C ) :   1.5376 B( 19-C , 22-C ) :   1.0207
B( 22-C , 23-H ) :   0.9445 B( 22-C , 24-H ) :   0.9291 B( 22-C , 25-C ) :   1.0563
B( 25-C , 26-H ) :   0.9552 B( 25-C , 27-H ) :   0.9631 B( 25-C , 28-C ) :   1.0633
B( 28-C , 29-H ) :   0.9742 B( 28-C , 30-H ) :   0.9740 B( 28-C , 31-H ) :   0.9765

Dispersion correction           -0.013904322
FINAL SINGLE POINT ENERGY     -1339.871405256706

DIPOLE MOMENT
-------------
                                X             Y             Z
Electronic contribution:    -25.00331      -8.35693     -20.04786
Nuclear contribution   :     25.53284       8.67914      20.26706
                        -----------------------------------------
Total Dipole Moment    :      0.52953       0.32221       0.21920
                        -----------------------------------------
Magnitude (a.u.)       :      0.65747
Magnitude (Debye)      :      1.67114

Rotational constants in cm-1:     0.018588     0.008855     0.006220
Rotational constants in MHz :   557.246776   265.466349   186.480092

                             ****ORCA TERMINATED NORMALLY****
TOTAL RUN TIME: 0 days 0 hours 0 minutes 34 seconds 5 msec
