                         Program Version 4.2.1 -  RELEASE  -
|  1> ! wB97X-D3 SP def2-SVP
|  2> %pal
|  3> nprocs 16
|  4> end
|  5>
|  6> * xyz 0 1
|  7> S 	 11.3053 	 -12.0529 	 94.8005
|  8> C 	 11.6678 	 -10.3545 	 94.6937
|  9> C 	 10.8335 	 -9.69787 	 93.8351
| 10> C 	 9.91743 	 -10.616 	 93.2017
| 11> C 	 10.0799 	 -11.9171 	 93.5874
| 12> H 	 9.15834 	 -10.2819 	 92.4701
| 13> C 	 10.7702 	 -8.18335 	 93.6232
| 14> H 	 10.2431 	 -7.91073 	 92.7266
| 15> H 	 11.8656 	 -7.89273 	 93.6926
| 16> C 	 10.0424 	 -7.43281 	 94.8586
| 17> H 	 9.9098 	 -6.37368 	 94.5505
| 18> H 	 9.04458 	 -7.9507 	 95.0082
| 19> C 	 10.8047 	 -7.39134 	 96.2157
| 20> H 	 10.7288 	 -8.32443 	 96.7866
| 21> H 	 11.8031 	 -7.15514 	 96.2568
| 22> H 	 10.3839 	 -6.62303 	 96.9076
| 23> S 	 10.4047 	 -14.2947 	 92.2826
| 24> C 	 8.99085 	 -15.1454 	 91.7295
| 25> C 	 7.82113 	 -14.5837 	 91.9468
| 26> C 	 8.02354 	 -13.319 	 92.635
| 27> C 	 9.35939 	 -13.0396 	 92.992
| 28> H 	 6.89369 	 -15.0838 	 91.6792
| 29> C 	 6.87471 	 -12.3838 	 92.945
| 30> H 	 6.70679 	 -11.752 	 92.0735
| 31> H 	 7.37882 	 -11.7418 	 93.7344
| 32> C 	 5.61543 	 -12.8792 	 93.699
| 33> H 	 6.05697 	 -13.6971 	 94.3917
| 34> H 	 4.90154 	 -13.3457 	 93.0717
| 35> C 	 4.79025 	 -11.7863 	 94.4964
| 36> H 	 4.10774 	 -12.2137 	 95.1884
| 37> H 	 4.06255 	 -11.1397 	 93.9009
| 38> H 	 5.43267 	 -11.1682 	 95.0602
| 39> H 	 12.4458 	 -9.78097 	 95.1739
| 40> H 	 8.98474 	 -16.0949 	 91.1827
| 41> *
| 42>
| 43>                          ****END OF INPUT****

CARTESIAN COORDINATES (ANGSTROEM)
---------------------------------
  S     11.305300  -12.052900   94.800500
  C     11.667800  -10.354500   94.693700
  C     10.833500   -9.697870   93.835100
  C      9.917430  -10.616000   93.201700
  C     10.079900  -11.917100   93.587400
  H      9.158340  -10.281900   92.470100
  C     10.770200   -8.183350   93.623200
  H     10.243100   -7.910730   92.726600
  H     11.865600   -7.892730   93.692600
  C     10.042400   -7.432810   94.858600
  H      9.909800   -6.373680   94.550500
  H      9.044580   -7.950700   95.008200
  C     10.804700   -7.391340   96.215700
  H     10.728800   -8.324430   96.786600
  H     11.803100   -7.155140   96.256800
  H     10.383900   -6.623030   96.907600
  S     10.404700  -14.294700   92.282600
  C      8.990850  -15.145400   91.729500
  C      7.821130  -14.583700   91.946800
  C      8.023540  -13.319000   92.635000
  C      9.359390  -13.039600   92.992000
  H      6.893690  -15.083800   91.679200
  C      6.874710  -12.383800   92.945000
  H      6.706790  -11.752000   92.073500
  H      7.378820  -11.741800   93.734400
  C      5.615430  -12.879200   93.699000
  H      6.056970  -13.697100   94.391700
  H      4.901540  -13.345700   93.071700
  C      4.790250  -11.786300   94.496400
  H      4.107740  -12.213700   95.188400
  H      4.062550  -11.139700   93.900900
  H      5.432670  -11.168200   95.060200
  H     12.445800   -9.780970   95.173900
  H      8.984740  -16.094900   91.182700

 Total Charge           Charge          ....    0
 Multiplicity           Mult            ....    1
 Number of Electrons    NEL             ....  134
 Basis Dimension        Dim             ....  322

ORBITAL ENERGIES
----------------

  NO   OCC          E(Eh)            E(eV)
   0   2.0000     -88.969737     -2420.9896
   1   2.0000     -88.961764     -2420.7727
   2   2.0000     -10.330091      -281.0961
   3   2.0000     -10.328092      -281.0417
   4   2.0000     -10.310587      -280.5653
   5   2.0000     -10.309141      -280.5260
   6   2.0000     -10.309126      -280.5256
   7   2.0000     -10.303917      -280.3838
   8   2.0000     -10.303072      -280.3608
   9   2.0000     -10.298423      -280.2343
  10   2.0000     -10.296075      -280.1705
  11   2.0000     -10.293704      -280.1059
  12   2.0000     -10.291988      -280.0592
  13   2.0000     -10.288140      -279.9545
  14   2.0000     -10.280794      -279.7546
  15   2.0000     -10.276721      -279.6438
  16   2.0000      -8.084689      -219.9956
  17   2.0000      -8.076617      -219.7759
  18   2.0000      -6.043302      -164.4466
  19   2.0000      -6.039156      -164.3338
  20   2.0000      -6.035330      -164.2297
  21   2.0000      -6.035203      -164.2262
  22   2.0000      -6.031234      -164.1182
  23   2.0000      -6.027156      -164.0072
  24   2.0000      -1.008908       -27.4538
  25   2.0000      -0.986486       -26.8437
  26   2.0000      -0.903006       -24.5720
  27   2.0000      -0.899280       -24.4707
  28   2.0000      -0.870683       -23.6925
  29   2.0000      -0.848026       -23.0760
  30   2.0000      -0.842743       -22.9322
  31   2.0000      -0.818631       -22.2761
  32   2.0000      -0.784920       -21.3588
  33   2.0000      -0.771034       -20.9809
  34   2.0000      -0.711211       -19.3530
  35   2.0000      -0.698607       -19.0101
  36   2.0000      -0.695095       -18.9145
  37   2.0000      -0.652111       -17.7448
  38   2.0000      -0.635081       -17.2814
  39   2.0000      -0.617941       -16.8150
  40   2.0000      -0.588312       -16.0088
  41   2.0000      -0.572901       -15.5894
  42   2.0000      -0.566589       -15.4177
  43   2.0000      -0.546310       -14.8658
  44   2.0000      -0.541955       -14.7473
  45   2.0000      -0.515537       -14.0285
  46   2.0000      -0.511008       -13.9052
  47   2.0000      -0.509260       -13.8577
  48   2.0000      -0.503139       -13.6911
  49   2.0000      -0.497298       -13.5322
  50   2.0000      -0.481973       -13.1152
  51   2.0000      -0.478414       -13.0183
  52   2.0000      -0.472632       -12.8610
  53   2.0000      -0.464115       -12.6292
  54   2.0000      -0.460475       -12.5302
  55   2.0000      -0.457430       -12.4473
  56   2.0000      -0.444923       -12.1070
  57   2.0000      -0.439793       -11.9674
  58   2.0000      -0.427496       -11.6328
  59   2.0000      -0.422579       -11.4990
  60   2.0000      -0.418685       -11.3930
  61   2.0000      -0.417516       -11.3612
  62   2.0000      -0.406168       -11.0524
  63   2.0000      -0.350939        -9.5495
  64   2.0000      -0.328966        -8.9516
  65   2.0000      -0.327782        -8.9194
  66   2.0000      -0.295883        -8.0514
  67   0.0000       0.034030         0.9260
  68   0.0000       0.075384         2.0513
  69   0.0000       0.117298         3.1918
  70   0.0000       0.124620         3.3911
  71   0.0000       0.126491         3.4420

MULLIKEN ATOMIC CHARGES
-----------------------
   0 S :    0.131228
   1 C :   -0.110085
   2 C :   -0.106913
   3 C :    0.017051
   4 C :   -0.146908
   5 H :    0.021587
   6 C :    0.061098
   7 H :    0.029949
   8 H :    0.039985
   9 C :   -0.088410
  10 H :    0.044111
  11 H :    0.048081
  12 C :   -0.059906
  13 H :    0.038052
  14 H :    0.009228
  15 H :    0.033235
  16 S :    0.094652
  17 C :   -0.067816
  18 C :   -0.024494
  19 C :   -0.071006
  20 C :   -0.143807
  21 H :    0.024283
  22 C :    0.027115
  23 H :    0.046594
  24 H :    0.033703
  25 C :   -0.079787
  26 H :    0.048570
  27 H :    0.023778
  28 C :   -0.045101
  29 H :    0.024107
  30 H :    0.037477
  31 H :    0.023366
  32 H :    0.037195
  33 H :    0.049787
Sum of atomic charges:   -0.0000000

LOEWDIN ATOMIC CHARGES
----------------------
   0 S :    0.421214
   1 C :   -0.202645
   2 C :   -0.067811
   3 C :   -0.063481
   4 C :   -0.211666
   5 H :    0.035486
   6 C :   -0.028794
   7 H :    0.028042
   8 H :    0.039073
   9 C :   -0.037698
  10 H :    0.026671
  11 H :    0.033658
  12 C :   -0.077630
  13 H :    0.028116
  14 H :    0.009920
  15 H :    0.035313
  16 S :    0.388265
  17 C :   -0.179845
  18 C :   -0.078679
  19 C :   -0.049779
  20 C :   -0.188897
  21 H :    0.039038
  22 C :   -0.048338
  23 H :    0.029556
  24 H :    0.040013
  25 C :   -0.041776
  26 H :    0.039300
  27 H :    0.013505
  28 C :   -0.065638
  29 H :    0.023551
  30 H :    0.033918
  31 H :    0.016459
  32 H :    0.028999
  33 H :    0.032577

  Mayer bond orders larger than 0.100000
B(  0-S ,  1-C ) :   1.1281 B(  0-S ,  4-C ) :   1.1497 B(  1-C ,  2-C ) :   1.6354
B(  1-C , 32-H ) :   0.9588 B(  2-C ,  3-C ) :   1.2457 B(  2-C ,  6-C ) :   1.0200
B(  3-C ,  4-C ) :   1.5681 B(  3-C ,  5-H ) :   0.9921 B(  4-C , 20-C ) :   1.0278
B(  6-C ,  7-H ) :   0.9451 B(  6-C ,  8-H ) :   0.9428 B(  6-C ,  9-C ) :   1.0541
B(  9-C , 10-H ) :   0.9630 B(  9-C , 11-H ) :   0.9563 B(  9-C , 12-C ) :   1.0710
B( 12-C , 13-H ) :   0.9729 B( 12-C , 14-H ) :   0.9764 B( 12-C , 15-H ) :   0.9717
B( 16-S , 17-C ) :   1.1397 B( 16-S , 20-C ) :   1.1167 B( 17-C , 18-C ) :   1.6799
B( 17-C , 33-H ) :   0.9516 B( 18-C , 19-C ) :   1.1849 B( 18-C , 21-H ) :   0.9931
B( 19-C , 20-C ) :   1.6387 B( 19-C , 22-C ) :   1.0468 B( 22-C , 23-H ) :   0.9303
B( 22-C , 24-H ) :   0.9376 B( 22-C , 25-C ) :   1.0475 B( 25-C , 26-H ) :   0.9585
B( 25-C , 27-H ) :   0.9539 B( 25-C , 28-C ) :   1.0783 B( 28-C , 29-H ) :   0.9745
B( 28-C , 30-H ) :   0.9757 B( 28-C , 31-H ) :   0.9778

Dispersion correction           -0.014046960
FINAL SINGLE POINT ENERGY     -1339.860416655122

DIPOLE MOMENT
-------------
                                X             Y             Z
Electronic contribution:     17.62801     -21.06106      -8.14435
Nuclear contribution   :    -18.12169      21.55397       8.08985
                        -----------------------------------------
Total Dipole Moment    :     -0.49368       0.49291      -0.05450
                        -----------------------------------------
Magnitude (a.u.)       :      0.69975
Magnitude (Debye)      :      1.77863

Rotational constants in cm-1:     0.017901     0.008585     0.006415
Rotational constants in MHz :   536.662877   257.373660   192.302265

                             ****ORCA TERMINATED NORMALLY****
TOTAL RUN TIME: 0 days 0 hours 0 minutes 32 seconds 994 msec
