                         Program Version 4.2.1 -  RELEASE  -
|  1> ! wB97X-D3 SP def2-SVP
|  2> %pal
|  3> nprocs 16
|  4> end
|  5>
|  6> * xyz 0 1
|  7> S 	 -13.8746 	 -2.37789 	 82.0805
|  8> C 	 -13.031 	 -1.57713 	 83.3968
|  9> C 	 -12.532 	 -0.336581 	 82.9531
| 10> C 	 -12.8642 	 -0.0519833 	 81.6373
| 11> C 	 -13.529 	 -1.09288 	 80.9678
| 12> H 	 -12.451 	 0.768004 	 81.0618
| 13> C 	 -11.771 	 0.634664 	 83.7991
| 14> H 	 -11.3426 	 1.5 	 83.2269
| 15> H 	 -10.8568 	 0.157094 	 84.1798
| 16> C 	 -12.535 	 1.18736 	 85.0141
| 17> H 	 -13.2203 	 1.91332 	 84.7161
| 18> H 	 -12.9559 	 0.433575 	 85.6576
| 19> C 	 -11.5671 	 1.96923 	 85.8604
| 20> H 	 -10.6835 	 1.44366 	 86.0602
| 21> H 	 -11.3131 	 2.86491 	 85.287
| 22> H 	 -12.0159 	 2.1705 	 86.833
| 23> S 	 -13.4348 	 -2.43287 	 78.6656
| 24> C 	 -14.116 	 -1.90005 	 77.2238
| 25> C 	 -14.8743 	 -0.779979 	 77.4892
| 26> C 	 -14.709 	 -0.302988 	 78.8277
| 27> C 	 -13.9464 	 -1.09829 	 79.584
| 28> H 	 -15.6801 	 -0.396958 	 76.8566
| 29> C 	 -15.63 	 0.81319 	 79.3618
| 30> H 	 -15.5276 	 0.859249 	 80.4527
| 31> H 	 -16.7051 	 0.604079 	 79.1619
| 32> C 	 -15.4999 	 2.17799 	 78.7424
| 33> H 	 -16.208 	 2.80434 	 79.2106
| 34> H 	 -15.6332 	 2.12341 	 77.6775
| 35> C 	 -14.1375 	 2.82807 	 78.9432
| 36> H 	 -13.356 	 2.14395 	 78.6499
| 37> H 	 -14.0254 	 2.96225 	 80.0514
| 38> H 	 -13.965 	 3.81522 	 78.4178
| 39> H 	 -13.0086 	 -1.93844 	 84.4117
| 40> H 	 -14.1207 	 -2.38617 	 76.2409
| 41> *
| 42>
| 43>                          ****END OF INPUT****

CARTESIAN COORDINATES (ANGSTROEM)
---------------------------------
  S    -13.874600   -2.377890   82.080500
  C    -13.031000   -1.577130   83.396800
  C    -12.532000   -0.336581   82.953100
  C    -12.864200   -0.051983   81.637300
  C    -13.529000   -1.092880   80.967800
  H    -12.451000    0.768004   81.061800
  C    -11.771000    0.634664   83.799100
  H    -11.342600    1.500000   83.226900
  H    -10.856800    0.157094   84.179800
  C    -12.535000    1.187360   85.014100
  H    -13.220300    1.913320   84.716100
  H    -12.955900    0.433575   85.657600
  C    -11.567100    1.969230   85.860400
  H    -10.683500    1.443660   86.060200
  H    -11.313100    2.864910   85.287000
  H    -12.015900    2.170500   86.833000
  S    -13.434800   -2.432870   78.665600
  C    -14.116000   -1.900050   77.223800
  C    -14.874300   -0.779979   77.489200
  C    -14.709000   -0.302988   78.827700
  C    -13.946400   -1.098290   79.584000
  H    -15.680100   -0.396958   76.856600
  C    -15.630000    0.813190   79.361800
  H    -15.527600    0.859249   80.452700
  H    -16.705100    0.604079   79.161900
  C    -15.499900    2.177990   78.742400
  H    -16.208000    2.804340   79.210600
  H    -15.633200    2.123410   77.677500
  C    -14.137500    2.828070   78.943200
  H    -13.356000    2.143950   78.649900
  H    -14.025400    2.962250   80.051400
  H    -13.965000    3.815220   78.417800
  H    -13.008600   -1.938440   84.411700
  H    -14.120700   -2.386170   76.240900

 Total Charge           Charge          ....    0
 Multiplicity           Mult            ....    1
 Number of Electrons    NEL             ....  134
 Basis Dimension        Dim             ....  322

ORBITAL ENERGIES
----------------

  NO   OCC          E(Eh)            E(eV)
   0   2.0000     -88.971319     -2421.0327
   1   2.0000     -88.961469     -2420.7646
   2   2.0000     -10.329632      -281.0836
   3   2.0000     -10.318038      -280.7681
   4   2.0000     -10.316122      -280.7159
   5   2.0000     -10.315158      -280.6897
   6   2.0000     -10.299025      -280.2507
   7   2.0000     -10.296584      -280.1843
   8   2.0000     -10.293190      -280.0919
   9   2.0000     -10.291456      -280.0448
  10   2.0000     -10.290289      -280.0130
  11   2.0000     -10.290281      -280.0128
  12   2.0000     -10.276990      -279.6511
  13   2.0000     -10.275526      -279.6113
  14   2.0000     -10.275181      -279.6019
  15   2.0000     -10.269491      -279.4471
  16   2.0000      -8.085716      -220.0235
  17   2.0000      -8.078815      -219.8357
  18   2.0000      -6.044084      -164.4679
  19   2.0000      -6.040093      -164.3593
  20   2.0000      -6.037237      -164.2816
  21   2.0000      -6.036826      -164.2704
  22   2.0000      -6.032806      -164.1610
  23   2.0000      -6.029621      -164.0743
  24   2.0000      -1.021949       -27.8087
  25   2.0000      -0.992006       -26.9938
  26   2.0000      -0.919491       -25.0206
  27   2.0000      -0.913287       -24.8518
  28   2.0000      -0.876045       -23.8384
  29   2.0000      -0.856700       -23.3120
  30   2.0000      -0.847693       -23.0669
  31   2.0000      -0.813940       -22.1484
  32   2.0000      -0.779656       -21.2155
  33   2.0000      -0.772152       -21.0113
  34   2.0000      -0.705708       -19.2033
  35   2.0000      -0.701605       -19.0916
  36   2.0000      -0.692176       -18.8351
  37   2.0000      -0.663395       -18.0519
  38   2.0000      -0.643730       -17.5168
  39   2.0000      -0.621179       -16.9031
  40   2.0000      -0.601492       -16.3674
  41   2.0000      -0.583919       -15.8892
  42   2.0000      -0.565662       -15.3925
  43   2.0000      -0.552485       -15.0339
  44   2.0000      -0.544797       -14.8247
  45   2.0000      -0.525813       -14.3081
  46   2.0000      -0.519734       -14.1427
  47   2.0000      -0.515997       -14.0410
  48   2.0000      -0.507993       -13.8232
  49   2.0000      -0.505275       -13.7492
  50   2.0000      -0.494885       -13.4665
  51   2.0000      -0.480397       -13.0723
  52   2.0000      -0.469309       -12.7706
  53   2.0000      -0.465231       -12.6596
  54   2.0000      -0.455480       -12.3943
  55   2.0000      -0.443097       -12.0573
  56   2.0000      -0.440814       -11.9952
  57   2.0000      -0.437122       -11.8947
  58   2.0000      -0.434948       -11.8355
  59   2.0000      -0.426565       -11.6074
  60   2.0000      -0.422990       -11.5101
  61   2.0000      -0.414706       -11.2847
  62   2.0000      -0.412688       -11.2298
  63   2.0000      -0.347393        -9.4530
  64   2.0000      -0.335983        -9.1426
  65   2.0000      -0.327457        -8.9105
  66   2.0000      -0.293894        -7.9972
  67   0.0000       0.033299         0.9061
  68   0.0000       0.067765         1.8440
  69   0.0000       0.114454         3.1144
  70   0.0000       0.123098         3.3497
  71   0.0000       0.130606         3.5540

MULLIKEN ATOMIC CHARGES
-----------------------
   0 S :    0.127543
   1 C :   -0.130226
   2 C :   -0.040679
   3 C :    0.023837
   4 C :   -0.154988
   5 H :    0.015505
   6 C :    0.019475
   7 H :    0.022316
   8 H :    0.028640
   9 C :   -0.042916
  10 H :    0.021495
  11 H :    0.025022
  12 C :   -0.025453
  13 H :    0.008013
  14 H :    0.024465
  15 H :    0.030300
  16 S :    0.117658
  17 C :   -0.084475
  18 C :   -0.053116
  19 C :   -0.023190
  20 C :   -0.172065
  21 H :    0.028378
  22 C :    0.028554
  23 H :    0.029098
  24 H :    0.038101
  25 C :   -0.036021
  26 H :    0.022306
  27 H :    0.020760
  28 C :   -0.089297
  29 H :    0.035793
  30 H :    0.022553
  31 H :    0.046394
  32 H :    0.048407
  33 H :    0.067812
Sum of atomic charges:    0.0000000

LOEWDIN ATOMIC CHARGES
----------------------
   0 S :    0.426779
   1 C :   -0.200795
   2 C :   -0.063407
   3 C :   -0.066463
   4 C :   -0.201613
   5 H :    0.033156
   6 C :   -0.036039
   7 H :    0.034119
   8 H :    0.032448
   9 C :   -0.030582
  10 H :    0.019604
  11 H :    0.020568
  12 C :   -0.056103
  13 H :    0.011798
  14 H :    0.025231
  15 H :    0.026493
  16 S :    0.456618
  17 C :   -0.209190
  18 C :   -0.076564
  19 C :   -0.066040
  20 C :   -0.217492
  21 H :    0.032643
  22 C :   -0.028297
  23 H :    0.029056
  24 H :    0.038710
  25 C :   -0.040566
  26 H :    0.020816
  27 H :    0.018800
  28 C :   -0.073572
  29 H :    0.019286
  30 H :    0.023730
  31 H :    0.031209
  32 H :    0.026385
  33 H :    0.039273

  Mayer bond orders larger than 0.100000
B(  0-S ,  1-C ) :   1.1530 B(  0-S ,  4-C ) :   1.1868 B(  1-C ,  2-C ) :   1.5402
B(  1-C ,  4-C ) :   0.1177 B(  1-C , 32-H ) :   0.9753 B(  2-C ,  3-C ) :   1.3130
B(  2-C ,  6-C ) :   1.0189 B(  3-C ,  4-C ) :   1.5145 B(  3-C ,  5-H ) :   0.9941
B(  4-C , 20-C ) :   1.0093 B(  6-C ,  7-H ) :   0.9450 B(  6-C ,  8-H ) :   0.9390
B(  6-C ,  9-C ) :   1.0714 B(  9-C , 10-H ) :   0.9550 B(  9-C , 11-H ) :   0.9574
B(  9-C , 12-C ) :   1.0881 B( 12-C , 13-H ) :   0.9742 B( 12-C , 14-H ) :   0.9745
B( 12-C , 15-H ) :   0.9720 B( 16-S , 17-C ) :   1.1792 B( 16-S , 20-C ) :   1.1590
B( 17-C , 18-C ) :   1.5742 B( 17-C , 33-H ) :   0.9680 B( 18-C , 19-C ) :   1.2592
B( 18-C , 21-H ) :   0.9837 B( 19-C , 20-C ) :   1.6088 B( 19-C , 22-C ) :   1.0357
B( 22-C , 23-H ) :   0.9402 B( 22-C , 24-H ) :   0.9427 B( 22-C , 25-C ) :   1.0737
B( 25-C , 26-H ) :   0.9536 B( 25-C , 27-H ) :   0.9549 B( 25-C , 28-C ) :   1.0772
B( 28-C , 29-H ) :   0.9734 B( 28-C , 30-H ) :   0.9734 B( 28-C , 31-H ) :   0.9732

Dispersion correction           -0.014229446
FINAL SINGLE POINT ENERGY     -1339.879634842842

DIPOLE MOMENT
-------------
                                X             Y             Z
Electronic contribution:     -2.16475     -27.08662     -11.58877
Nuclear contribution   :      2.02216      27.52219      11.73667
                        -----------------------------------------
Total Dipole Moment    :     -0.14260       0.43557       0.14790
                        -----------------------------------------
Magnitude (a.u.)       :      0.48159
Magnitude (Debye)      :      1.22412

Rotational constants in cm-1:     0.020587     0.008332     0.006456
Rotational constants in MHz :   617.180892   249.793037   193.558892

                             ****ORCA TERMINATED NORMALLY****
TOTAL RUN TIME: 0 days 0 hours 0 minutes 33 seconds 828 msec
