                         Program Version 4.2.1 -  RELEASE  -
|  1> ! wB97X-D3 SP def2-SVP
|  2> %pal
|  3> nprocs 16
|  4> end
|  5>
|  6> * xyz 0 1
|  7> S 	 -52.1992 	 5.61261 	 94.676
|  8> C 	 -52.0709 	 4.76628 	 96.1918
|  9> C 	 -51.1691 	 3.71139 	 96.112
| 10> C 	 -50.6945 	 3.53247 	 94.7307
| 11> C 	 -51.2274 	 4.43376 	 93.8654
| 12> H 	 -50.0833 	 2.69257 	 94.4944
| 13> C 	 -50.6702 	 2.81747 	 97.2256
| 14> H 	 -50.1432 	 3.41991 	 98.0431
| 15> H 	 -49.9318 	 2.1027 	 96.856
| 16> C 	 -51.8376 	 1.94756 	 97.7226
| 17> H 	 -51.4667 	 0.961663 	 98.0299
| 18> H 	 -52.1931 	 2.44685 	 98.684
| 19> C 	 -52.8432 	 1.47808 	 96.7273
| 20> H 	 -53.397 	 2.28291 	 96.3124
| 21> H 	 -52.4179 	 0.924377 	 95.9316
| 22> H 	 -53.4885 	 0.799997 	 97.2501
| 23> S 	 -52.335 	 4.80143 	 91.3579
| 24> C 	 -51.2681 	 4.52991 	 89.9908
| 25> C 	 -49.9687 	 4.40637 	 90.3119
| 26> C 	 -49.8417 	 4.35713 	 91.7435
| 27> C 	 -51.0324 	 4.43996 	 92.4292
| 28> H 	 -49.1268 	 4.22288 	 89.6725
| 29> C 	 -48.4332 	 4.48922 	 92.3696
| 30> H 	 -47.6982 	 4.30172 	 91.6221
| 31> H 	 -48.3565 	 3.67588 	 93.0771
| 32> C 	 -48.0252 	 5.78854 	 93.1167
| 33> H 	 -46.9773 	 5.88483 	 93.1577
| 34> H 	 -48.3215 	 5.80968 	 94.1673
| 35> C 	 -48.5459 	 7.02986 	 92.4515
| 36> H 	 -47.9781 	 7.93165 	 92.6728
| 37> H 	 -49.6012 	 7.31978 	 92.7828
| 38> H 	 -48.5441 	 6.78489 	 91.3978
| 39> H 	 -52.5308 	 5.05837 	 97.083
| 40> H 	 -51.6149 	 4.7469 	 89.0198
| 41> *
| 42>
| 43>                          ****END OF INPUT****

CARTESIAN COORDINATES (ANGSTROEM)
---------------------------------
  S    -52.199200    5.612610   94.676000
  C    -52.070900    4.766280   96.191800
  C    -51.169100    3.711390   96.112000
  C    -50.694500    3.532470   94.730700
  C    -51.227400    4.433760   93.865400
  H    -50.083300    2.692570   94.494400
  C    -50.670200    2.817470   97.225600
  H    -50.143200    3.419910   98.043100
  H    -49.931800    2.102700   96.856000
  C    -51.837600    1.947560   97.722600
  H    -51.466700    0.961663   98.029900
  H    -52.193100    2.446850   98.684000
  C    -52.843200    1.478080   96.727300
  H    -53.397000    2.282910   96.312400
  H    -52.417900    0.924377   95.931600
  H    -53.488500    0.799997   97.250100
  S    -52.335000    4.801430   91.357900
  C    -51.268100    4.529910   89.990800
  C    -49.968700    4.406370   90.311900
  C    -49.841700    4.357130   91.743500
  C    -51.032400    4.439960   92.429200
  H    -49.126800    4.222880   89.672500
  C    -48.433200    4.489220   92.369600
  H    -47.698200    4.301720   91.622100
  H    -48.356500    3.675880   93.077100
  C    -48.025200    5.788540   93.116700
  H    -46.977300    5.884830   93.157700
  H    -48.321500    5.809680   94.167300
  C    -48.545900    7.029860   92.451500
  H    -47.978100    7.931650   92.672800
  H    -49.601200    7.319780   92.782800
  H    -48.544100    6.784890   91.397800
  H    -52.530800    5.058370   97.083000
  H    -51.614900    4.746900   89.019800

 Total Charge           Charge          ....    0
 Multiplicity           Mult            ....    1
 Number of Electrons    NEL             ....  134
 Basis Dimension        Dim             ....  322

ORBITAL ENERGIES
----------------

  NO   OCC          E(Eh)            E(eV)
   0   2.0000     -88.966873     -2420.9117
   1   2.0000     -88.965379     -2420.8710
   2   2.0000     -10.325473      -280.9704
   3   2.0000     -10.320756      -280.8421
   4   2.0000     -10.312533      -280.6183
   5   2.0000     -10.309455      -280.5345
   6   2.0000     -10.302842      -280.3546
   7   2.0000     -10.299404      -280.2610
   8   2.0000     -10.296731      -280.1883
   9   2.0000     -10.292019      -280.0601
  10   2.0000     -10.290594      -280.0213
  11   2.0000     -10.287115      -279.9266
  12   2.0000     -10.286126      -279.8997
  13   2.0000     -10.274882      -279.5938
  14   2.0000     -10.269176      -279.4385
  15   2.0000     -10.263854      -279.2937
  16   2.0000      -8.082017      -219.9229
  17   2.0000      -8.080836      -219.8907
  18   2.0000      -6.040586      -164.3727
  19   2.0000      -6.039308      -164.3379
  20   2.0000      -6.036506      -164.2617
  21   2.0000      -6.035439      -164.2326
  22   2.0000      -6.032669      -164.1573
  23   2.0000      -6.031392      -164.1225
  24   2.0000      -1.012020       -27.5385
  25   2.0000      -0.987595       -26.8738
  26   2.0000      -0.916202       -24.9311
  27   2.0000      -0.905227       -24.6325
  28   2.0000      -0.873031       -23.7564
  29   2.0000      -0.851432       -23.1687
  30   2.0000      -0.845021       -22.9942
  31   2.0000      -0.816417       -22.2158
  32   2.0000      -0.786053       -21.3896
  33   2.0000      -0.773560       -21.0496
  34   2.0000      -0.706587       -19.2272
  35   2.0000      -0.695006       -18.9121
  36   2.0000      -0.685578       -18.6555
  37   2.0000      -0.669192       -18.2097
  38   2.0000      -0.641444       -17.4546
  39   2.0000      -0.613099       -16.6833
  40   2.0000      -0.590027       -16.0554
  41   2.0000      -0.574843       -15.6423
  42   2.0000      -0.561411       -15.2768
  43   2.0000      -0.553260       -15.0550
  44   2.0000      -0.552111       -15.0237
  45   2.0000      -0.546346       -14.8668
  46   2.0000      -0.513467       -13.9722
  47   2.0000      -0.508345       -13.8328
  48   2.0000      -0.503149       -13.6914
  49   2.0000      -0.493232       -13.4215
  50   2.0000      -0.488674       -13.2975
  51   2.0000      -0.479870       -13.0579
  52   2.0000      -0.472617       -12.8606
  53   2.0000      -0.466671       -12.6988
  54   2.0000      -0.461290       -12.5523
  55   2.0000      -0.448748       -12.2110
  56   2.0000      -0.445903       -12.1336
  57   2.0000      -0.436254       -11.8711
  58   2.0000      -0.433275       -11.7900
  59   2.0000      -0.417800       -11.3689
  60   2.0000      -0.412241       -11.2177
  61   2.0000      -0.406631       -11.0650
  62   2.0000      -0.402032       -10.9398
  63   2.0000      -0.353905        -9.6302
  64   2.0000      -0.332682        -9.0527
  65   2.0000      -0.326469        -8.8837
  66   2.0000      -0.291258        -7.9255
  67   0.0000       0.028720         0.7815
  68   0.0000       0.074415         2.0249
  69   0.0000       0.101148         2.7524
  70   0.0000       0.121709         3.3119
  71   0.0000       0.132660         3.6099

MULLIKEN ATOMIC CHARGES
-----------------------
   0 S :    0.112365
   1 C :   -0.093705
   2 C :   -0.139951
   3 C :    0.023293
   4 C :   -0.122736
   5 H :    0.005528
   6 C :    0.087104
   7 H :    0.057427
   8 H :    0.012486
   9 C :   -0.142950
  10 H :    0.020549
  11 H :    0.037838
  12 C :    0.029806
  13 H :    0.030051
  14 H :    0.015243
  15 H :    0.026415
  16 S :    0.105135
  17 C :   -0.061170
  18 C :   -0.005264
  19 C :   -0.089810
  20 C :   -0.139961
  21 H :    0.020594
  22 C :    0.092226
  23 H :    0.006410
  24 H :    0.014678
  25 C :   -0.039900
  26 H :    0.015869
  27 H :    0.027984
  28 C :   -0.057354
  29 H :    0.030390
  30 H :    0.035819
  31 H :    0.021477
  32 H :    0.023408
  33 H :    0.040707
Sum of atomic charges:   -0.0000000

LOEWDIN ATOMIC CHARGES
----------------------
   0 S :    0.412878
   1 C :   -0.195818
   2 C :   -0.052739
   3 C :   -0.060326
   4 C :   -0.193582
   5 H :    0.025715
   6 C :   -0.040767
   7 H :    0.043156
   8 H :    0.027991
   9 C :   -0.051715
  10 H :    0.024836
  11 H :    0.028009
  12 C :   -0.055525
  13 H :    0.019664
  14 H :    0.023128
  15 H :    0.028107
  16 S :    0.410337
  17 C :   -0.166508
  18 C :   -0.065335
  19 C :   -0.054689
  20 C :   -0.208592
  21 H :    0.033534
  22 C :   -0.027983
  23 H :    0.022836
  24 H :    0.028885
  25 C :   -0.039757
  26 H :    0.020037
  27 H :    0.024639
  28 C :   -0.069749
  29 H :    0.023047
  30 H :    0.030834
  31 H :    0.022080
  32 H :    0.015838
  33 H :    0.017533

  Mayer bond orders larger than 0.100000
B(  0-S ,  1-C ) :   1.1259 B(  0-S ,  4-C ) :   1.1480 B(  1-C ,  2-C ) :   1.6158
B(  1-C , 32-H ) :   0.9781 B(  2-C ,  3-C ) :   1.2308 B(  2-C ,  6-C ) :   1.0314
B(  3-C ,  4-C ) :   1.5831 B(  3-C ,  5-H ) :   0.9981 B(  4-C , 20-C ) :   1.0485
B(  6-C ,  7-H ) :   0.9474 B(  6-C ,  8-H ) :   0.9357 B(  6-C ,  9-C ) :   1.0528
B(  9-C , 10-H ) :   0.9622 B(  9-C , 11-H ) :   0.9563 B(  9-C , 12-C ) :   1.0882
B( 12-C , 13-H ) :   0.9602 B( 12-C , 14-H ) :   0.9679 B( 12-C , 15-H ) :   0.9695
B( 16-S , 17-C ) :   1.1523 B( 16-S , 20-C ) :   1.1314 B( 17-C , 18-C ) :   1.6081
B( 17-C , 33-H ) :   0.9692 B( 18-C , 19-C ) :   1.2506 B( 18-C , 21-H ) :   0.9917
B( 19-C , 20-C ) :   1.6006 B( 19-C , 22-C ) :   1.0467 B( 22-C , 23-H ) :   0.9354
B( 22-C , 24-H ) :   0.9264 B( 22-C , 25-C ) :   1.0727 B( 25-C , 26-H ) :   0.9551
B( 25-C , 27-H ) :   0.9505 B( 25-C , 28-C ) :   1.0909 B( 28-C , 29-H ) :   0.9745
B( 28-C , 30-H ) :   0.9675 B( 28-C , 31-H ) :   0.9766

Dispersion correction           -0.016203325
FINAL SINGLE POINT ENERGY     -1339.869846020935

DIPOLE MOMENT
-------------
                                X             Y             Z
Electronic contribution:    -12.17645       6.94382     -12.09545
Nuclear contribution   :     12.68859      -7.21647      12.29435
                        -----------------------------------------
Total Dipole Moment    :      0.51213      -0.27265       0.19891
                        -----------------------------------------
Magnitude (a.u.)       :      0.61334
Magnitude (Debye)      :      1.55898

Rotational constants in cm-1:     0.022647     0.008778     0.007909
Rotational constants in MHz :   678.954254   263.163377   237.101921

                             ****ORCA TERMINATED NORMALLY****
TOTAL RUN TIME: 0 days 0 hours 0 minutes 32 seconds 409 msec
