                         Program Version 4.2.1 -  RELEASE  -
|  1> ! wB97X-D3 SP def2-SVP
|  2> %pal
|  3> nprocs 16
|  4> end
|  5>
|  6> * xyz 0 1
|  7> S 	 -2.44333 	 -15.641 	 82.5012
|  8> C 	 -1.03382 	 -15.7105 	 81.4804
|  9> C 	 0.0537015 	 -15.1482 	 82.1088
| 10> C 	 -0.361327 	 -14.6098 	 83.37
| 11> C 	 -1.68445 	 -14.6512 	 83.7852
| 12> H 	 0.348358 	 -14.1075 	 84.0466
| 13> C 	 1.50176 	 -15.1123 	 81.5969
| 14> H 	 1.93794 	 -14.158 	 81.8065
| 15> H 	 1.6178 	 -15.2791 	 80.5654
| 16> C 	 2.39122 	 -16.1521 	 82.3763
| 17> H 	 2.18662 	 -16.1521 	 83.4169
| 18> H 	 2.06408 	 -17.1203 	 82.102
| 19> C 	 3.91464 	 -16.0466 	 82.233
| 20> H 	 4.44234 	 -17.048 	 82.2764
| 21> H 	 4.04712 	 -15.7344 	 81.201
| 22> H 	 4.52558 	 -15.3317 	 82.8099
| 23> S 	 -2.88433 	 -15.6753 	 86.0523
| 24> C 	 -3.50057 	 -14.5322 	 87.2754
| 25> C 	 -2.94585 	 -13.2423 	 87.1562
| 26> C 	 -2.31755 	 -13.0856 	 85.8625
| 27> C 	 -2.2188 	 -14.2999 	 85.1255
| 28> H 	 -3.06137 	 -12.5462 	 87.9228
| 29> C 	 -1.73215 	 -11.7633 	 85.3549
| 30> H 	 -0.811967 	 -12.0705 	 84.851
| 31> H 	 -1.47178 	 -11.1971 	 86.3099
| 32> C 	 -2.68366 	 -11.0751 	 84.3182
| 33> H 	 -2.61925 	 -11.5177 	 83.371
| 34> H 	 -2.38702 	 -10.1062 	 84.2303
| 35> C 	 -4.17154 	 -11.1435 	 84.7496
| 36> H 	 -4.573 	 -12.1625 	 84.8005
| 37> H 	 -4.88067 	 -10.6689 	 84.0607
| 38> H 	 -4.33528 	 -10.6701 	 85.7508
| 39> H 	 -0.956074 	 -16.0941 	 80.4342
| 40> H 	 -4.13128 	 -14.7687 	 88.0815
| 41> *
| 42>
| 43>                          ****END OF INPUT****

CARTESIAN COORDINATES (ANGSTROEM)
---------------------------------
  S     -2.443330  -15.641000   82.501200
  C     -1.033820  -15.710500   81.480400
  C      0.053701  -15.148200   82.108800
  C     -0.361327  -14.609800   83.370000
  C     -1.684450  -14.651200   83.785200
  H      0.348358  -14.107500   84.046600
  C      1.501760  -15.112300   81.596900
  H      1.937940  -14.158000   81.806500
  H      1.617800  -15.279100   80.565400
  C      2.391220  -16.152100   82.376300
  H      2.186620  -16.152100   83.416900
  H      2.064080  -17.120300   82.102000
  C      3.914640  -16.046600   82.233000
  H      4.442340  -17.048000   82.276400
  H      4.047120  -15.734400   81.201000
  H      4.525580  -15.331700   82.809900
  S     -2.884330  -15.675300   86.052300
  C     -3.500570  -14.532200   87.275400
  C     -2.945850  -13.242300   87.156200
  C     -2.317550  -13.085600   85.862500
  C     -2.218800  -14.299900   85.125500
  H     -3.061370  -12.546200   87.922800
  C     -1.732150  -11.763300   85.354900
  H     -0.811967  -12.070500   84.851000
  H     -1.471780  -11.197100   86.309900
  C     -2.683660  -11.075100   84.318200
  H     -2.619250  -11.517700   83.371000
  H     -2.387020  -10.106200   84.230300
  C     -4.171540  -11.143500   84.749600
  H     -4.573000  -12.162500   84.800500
  H     -4.880670  -10.668900   84.060700
  H     -4.335280  -10.670100   85.750800
  H     -0.956074  -16.094100   80.434200
  H     -4.131280  -14.768700   88.081500

 Total Charge           Charge          ....    0
 Multiplicity           Mult            ....    1
 Number of Electrons    NEL             ....  134
 Basis Dimension        Dim             ....  322

ORBITAL ENERGIES
----------------

  NO   OCC          E(Eh)            E(eV)
   0   2.0000     -88.968316     -2420.9510
   1   2.0000     -88.965554     -2420.8758
   2   2.0000     -10.336973      -281.2833
   3   2.0000     -10.335255      -281.2366
   4   2.0000     -10.321605      -280.8651
   5   2.0000     -10.320819      -280.8438
   6   2.0000     -10.311943      -280.6022
   7   2.0000     -10.305143      -280.4172
   8   2.0000     -10.298700      -280.2419
   9   2.0000     -10.297872      -280.2193
  10   2.0000     -10.297323      -280.2044
  11   2.0000     -10.296031      -280.1692
  12   2.0000     -10.283448      -279.8268
  13   2.0000     -10.282459      -279.7999
  14   2.0000     -10.277212      -279.6571
  15   2.0000     -10.274455      -279.5821
  16   2.0000      -8.081743      -219.9154
  17   2.0000      -8.079620      -219.8576
  18   2.0000      -6.040318      -164.3654
  19   2.0000      -6.038306      -164.3107
  20   2.0000      -6.036539      -164.2626
  21   2.0000      -6.034081      -164.1957
  22   2.0000      -6.032400      -164.1499
  23   2.0000      -6.030304      -164.0929
  24   2.0000      -0.999547       -27.1990
  25   2.0000      -0.976958       -26.5844
  26   2.0000      -0.908275       -24.7154
  27   2.0000      -0.902174       -24.5494
  28   2.0000      -0.867840       -23.6151
  29   2.0000      -0.842933       -22.9374
  30   2.0000      -0.840589       -22.8736
  31   2.0000      -0.813238       -22.1293
  32   2.0000      -0.781561       -21.2674
  33   2.0000      -0.769116       -20.9287
  34   2.0000      -0.712431       -19.3862
  35   2.0000      -0.705166       -19.1885
  36   2.0000      -0.691476       -18.8160
  37   2.0000      -0.665163       -18.1000
  38   2.0000      -0.640481       -17.4284
  39   2.0000      -0.619621       -16.8608
  40   2.0000      -0.579462       -15.7680
  41   2.0000      -0.573167       -15.5967
  42   2.0000      -0.560537       -15.2530
  43   2.0000      -0.556291       -15.1375
  44   2.0000      -0.540648       -14.7118
  45   2.0000      -0.522652       -14.2221
  46   2.0000      -0.516571       -14.0566
  47   2.0000      -0.510362       -13.8877
  48   2.0000      -0.502705       -13.6793
  49   2.0000      -0.496177       -13.5017
  50   2.0000      -0.483031       -13.1439
  51   2.0000      -0.479396       -13.0450
  52   2.0000      -0.472632       -12.8610
  53   2.0000      -0.460688       -12.5360
  54   2.0000      -0.456971       -12.4348
  55   2.0000      -0.449648       -12.2355
  56   2.0000      -0.443936       -12.0801
  57   2.0000      -0.433739       -11.8026
  58   2.0000      -0.427993       -11.6463
  59   2.0000      -0.424037       -11.5386
  60   2.0000      -0.421241       -11.4625
  61   2.0000      -0.417676       -11.3655
  62   2.0000      -0.411153       -11.1880
  63   2.0000      -0.341799        -9.3008
  64   2.0000      -0.331406        -9.0180
  65   2.0000      -0.325255        -8.8506
  66   2.0000      -0.294020        -8.0007
  67   0.0000       0.024961         0.6792
  68   0.0000       0.059815         1.6277
  69   0.0000       0.097975         2.6660
  70   0.0000       0.127033         3.4567
  71   0.0000       0.132745         3.6122

MULLIKEN ATOMIC CHARGES
-----------------------
   0 S :    0.101299
   1 C :   -0.135190
   2 C :   -0.088313
   3 C :    0.013012
   4 C :   -0.144882
   5 H :    0.019617
   6 C :    0.113223
   7 H :    0.020505
   8 H :    0.013009
   9 C :   -0.055660
  10 H :    0.021834
  11 H :    0.012127
  12 C :   -0.068679
  13 H :    0.043932
  14 H :    0.013302
  15 H :    0.043452
  16 S :    0.107199
  17 C :   -0.081528
  18 C :   -0.013839
  19 C :   -0.081543
  20 C :   -0.164166
  21 H :    0.003715
  22 C :    0.057246
  23 H :    0.025912
  24 H :    0.040704
  25 C :    0.020706
  26 H :    0.029569
  27 H :    0.009579
  28 C :   -0.093480
  29 H :    0.048887
  30 H :    0.031229
  31 H :    0.027859
  32 H :    0.067376
  33 H :    0.041989
Sum of atomic charges:    0.0000000

LOEWDIN ATOMIC CHARGES
----------------------
   0 S :    0.392146
   1 C :   -0.198323
   2 C :   -0.071154
   3 C :   -0.060635
   4 C :   -0.201541
   5 H :    0.027442
   6 C :   -0.017153
   7 H :    0.027811
   8 H :    0.022525
   9 C :   -0.036771
  10 H :    0.019858
  11 H :    0.020880
  12 C :   -0.077994
  13 H :    0.037029
  14 H :    0.021408
  15 H :    0.027104
  16 S :    0.385005
  17 C :   -0.161386
  18 C :   -0.060818
  19 C :   -0.045524
  20 C :   -0.194358
  21 H :    0.022747
  22 C :   -0.031772
  23 H :    0.031264
  24 H :    0.038560
  25 C :   -0.021344
  26 H :    0.024355
  27 H :    0.012463
  28 C :   -0.072824
  29 H :    0.029371
  30 H :    0.025089
  31 H :    0.024545
  32 H :    0.044029
  33 H :    0.017964

  Mayer bond orders larger than 0.100000
B(  0-S ,  1-C ) :   1.1578 B(  0-S ,  4-C ) :   1.1212 B(  1-C ,  2-C ) :   1.5940
B(  1-C , 32-H ) :   0.9579 B(  2-C ,  3-C ) :   1.2651 B(  2-C ,  6-C ) :   1.0340
B(  3-C ,  4-C ) :   1.5765 B(  3-C ,  5-H ) :   0.9768 B(  4-C , 20-C ) :   1.0500
B(  6-C ,  7-H ) :   0.9416 B(  6-C ,  8-H ) :   0.9394 B(  6-C ,  9-C ) :   1.0531
B(  9-C , 10-H ) :   0.9621 B(  9-C , 11-H ) :   0.9525 B(  9-C , 12-C ) :   1.0698
B( 12-C , 13-H ) :   0.9744 B( 12-C , 14-H ) :   0.9731 B( 12-C , 15-H ) :   0.9775
B( 16-S , 17-C ) :   1.1558 B( 16-S , 20-C ) :   1.1286 B( 17-C , 18-C ) :   1.6113
B( 17-C , 20-C ) :   0.1028 B( 17-C , 33-H ) :   0.9716 B( 18-C , 19-C ) :   1.2296
B( 18-C , 21-H ) :   0.9971 B( 19-C , 20-C ) :   1.5905 B( 19-C , 22-C ) :   1.0265
B( 22-C , 23-H ) :   0.9371 B( 22-C , 24-H ) :   0.9407 B( 22-C , 25-C ) :   1.0588
B( 25-C , 26-H ) :   0.9522 B( 25-C , 27-H ) :   0.9559 B( 25-C , 28-C ) :   1.0864
B( 28-C , 29-H ) :   0.9668 B( 28-C , 30-H ) :   0.9748 B( 28-C , 31-H ) :   0.9774

Dispersion correction           -0.014572646
FINAL SINGLE POINT ENERGY     -1339.851704214938

DIPOLE MOMENT
-------------
                                X             Y             Z
Electronic contribution:    -16.05705     -11.91947       5.28334
Nuclear contribution   :     16.55643      12.28794      -5.29779
                        -----------------------------------------
Total Dipole Moment    :      0.49938       0.36847      -0.01445
                        -----------------------------------------
Magnitude (a.u.)       :      0.62077
Magnitude (Debye)      :      1.57788

Rotational constants in cm-1:     0.020682     0.007384     0.007037
Rotational constants in MHz :   620.030046   221.360251   210.956753

                             ****ORCA TERMINATED NORMALLY****
TOTAL RUN TIME: 0 days 0 hours 0 minutes 33 seconds 134 msec
