                         Program Version 4.2.1 -  RELEASE  -
|  1> ! wB97X-D3 SP def2-SVP
|  2> %pal
|  3> nprocs 16
|  4> end
|  5>
|  6> * xyz 0 1
|  7> S 	 4.85046 	 -16.3145 	 55.1009
|  8> C 	 5.53983 	 -15.5241 	 56.5171
|  9> C 	 6.85675 	 -15.7813 	 56.681
| 10> C 	 7.3274 	 -16.6868 	 55.635
| 11> C 	 6.39247 	 -16.9117 	 54.6298
| 12> H 	 8.2916 	 -17.1492 	 55.6181
| 13> C 	 7.70756 	 -15.0906 	 57.7063
| 14> H 	 8.53871 	 -15.8178 	 58.0591
| 15> H 	 7.25283 	 -14.9784 	 58.6885
| 16> C 	 8.25002 	 -13.6438 	 57.3317
| 17> H 	 8.51508 	 -13.5676 	 56.303
| 18> H 	 7.40854 	 -12.9083 	 57.4569
| 19> C 	 9.30046 	 -13.1716 	 58.2477
| 20> H 	 10.2746 	 -13.7901 	 58.2026
| 21> H 	 9.61161 	 -12.1276 	 57.8903
| 22> H 	 8.92913 	 -13.1808 	 59.2538
| 23> S 	 5.1639 	 -18.587 	 53.0923
| 24> C 	 5.98172 	 -19.6862 	 52.0299
| 25> C 	 7.19024 	 -19.11 	 51.7398
| 26> C 	 7.59243 	 -18.0971 	 52.653
| 27> C 	 6.55857 	 -17.7185 	 53.489
| 28> H 	 7.80547 	 -19.4519 	 50.982
| 29> C 	 9.04163 	 -17.7014 	 52.6191
| 30> H 	 9.62863 	 -18.4497 	 52.0365
| 31> H 	 9.39236 	 -17.6153 	 53.6448
| 32> C 	 9.19072 	 -16.3049 	 51.9937
| 33> H 	 10.1922 	 -16.0233 	 52.23
| 34> H 	 8.49744 	 -15.6428 	 52.4685
| 35> C 	 8.96801 	 -16.2997 	 50.4595
| 36> H 	 9.72937 	 -16.8059 	 49.9327
| 37> H 	 8.85693 	 -15.2852 	 50.0358
| 38> H 	 8.08715 	 -16.9227 	 50.3383
| 39> H 	 5.00955 	 -15.0572 	 57.4085
| 40> H 	 5.57167 	 -20.5521 	 51.3931
| 41> *
| 42>
| 43>                          ****END OF INPUT****

CARTESIAN COORDINATES (ANGSTROEM)
---------------------------------
  S      4.850460  -16.314500   55.100900
  C      5.539830  -15.524100   56.517100
  C      6.856750  -15.781300   56.681000
  C      7.327400  -16.686800   55.635000
  C      6.392470  -16.911700   54.629800
  H      8.291600  -17.149200   55.618100
  C      7.707560  -15.090600   57.706300
  H      8.538710  -15.817800   58.059100
  H      7.252830  -14.978400   58.688500
  C      8.250020  -13.643800   57.331700
  H      8.515080  -13.567600   56.303000
  H      7.408540  -12.908300   57.456900
  C      9.300460  -13.171600   58.247700
  H     10.274600  -13.790100   58.202600
  H      9.611610  -12.127600   57.890300
  H      8.929130  -13.180800   59.253800
  S      5.163900  -18.587000   53.092300
  C      5.981720  -19.686200   52.029900
  C      7.190240  -19.110000   51.739800
  C      7.592430  -18.097100   52.653000
  C      6.558570  -17.718500   53.489000
  H      7.805470  -19.451900   50.982000
  C      9.041630  -17.701400   52.619100
  H      9.628630  -18.449700   52.036500
  H      9.392360  -17.615300   53.644800
  C      9.190720  -16.304900   51.993700
  H     10.192200  -16.023300   52.230000
  H      8.497440  -15.642800   52.468500
  C      8.968010  -16.299700   50.459500
  H      9.729370  -16.805900   49.932700
  H      8.856930  -15.285200   50.035800
  H      8.087150  -16.922700   50.338300
  H      5.009550  -15.057200   57.408500
  H      5.571670  -20.552100   51.393100

 Total Charge           Charge          ....    0
 Multiplicity           Mult            ....    1
 Number of Electrons    NEL             ....  134
 Basis Dimension        Dim             ....  322

ORBITAL ENERGIES
----------------

  NO   OCC          E(Eh)            E(eV)
   0   2.0000     -88.966570     -2420.9034
   1   2.0000     -88.961949     -2420.7777
   2   2.0000     -10.327542      -281.0267
   3   2.0000     -10.321154      -280.8529
   4   2.0000     -10.320365      -280.8314
   5   2.0000     -10.313395      -280.6418
   6   2.0000     -10.301772      -280.3255
   7   2.0000     -10.300340      -280.2865
   8   2.0000     -10.299758      -280.2707
   9   2.0000     -10.294555      -280.1291
  10   2.0000     -10.293100      -280.0895
  11   2.0000     -10.288719      -279.9703
  12   2.0000     -10.286633      -279.9135
  13   2.0000     -10.286413      -279.9075
  14   2.0000     -10.278631      -279.6958
  15   2.0000     -10.271883      -279.5121
  16   2.0000      -8.081746      -219.9155
  17   2.0000      -8.078557      -219.8287
  18   2.0000      -6.040408      -164.3679
  19   2.0000      -6.037189      -164.2803
  20   2.0000      -6.036312      -164.2564
  21   2.0000      -6.032704      -164.1582
  22   2.0000      -6.032183      -164.1440
  23   2.0000      -6.029132      -164.0610
  24   2.0000      -1.023013       -27.8376
  25   2.0000      -0.990390       -26.9499
  26   2.0000      -0.916634       -24.9429
  27   2.0000      -0.911806       -24.8115
  28   2.0000      -0.882083       -24.0027
  29   2.0000      -0.850869       -23.1533
  30   2.0000      -0.845425       -23.0052
  31   2.0000      -0.815769       -22.1982
  32   2.0000      -0.781203       -21.2576
  33   2.0000      -0.772345       -21.0166
  34   2.0000      -0.711667       -19.3654
  35   2.0000      -0.697233       -18.9727
  36   2.0000      -0.691413       -18.8143
  37   2.0000      -0.672474       -18.2989
  38   2.0000      -0.633378       -17.2351
  39   2.0000      -0.620742       -16.8912
  40   2.0000      -0.597845       -16.2682
  41   2.0000      -0.570265       -15.5177
  42   2.0000      -0.558261       -15.1911
  43   2.0000      -0.551720       -15.0131
  44   2.0000      -0.544929       -14.8283
  45   2.0000      -0.529570       -14.4103
  46   2.0000      -0.526811       -14.3353
  47   2.0000      -0.512853       -13.9554
  48   2.0000      -0.506888       -13.7931
  49   2.0000      -0.501089       -13.6353
  50   2.0000      -0.493347       -13.4247
  51   2.0000      -0.479729       -13.0541
  52   2.0000      -0.473503       -12.8847
  53   2.0000      -0.465377       -12.6635
  54   2.0000      -0.456368       -12.4184
  55   2.0000      -0.452359       -12.3093
  56   2.0000      -0.446612       -12.1529
  57   2.0000      -0.439762       -11.9665
  58   2.0000      -0.435332       -11.8460
  59   2.0000      -0.425235       -11.5712
  60   2.0000      -0.416318       -11.3286
  61   2.0000      -0.411985       -11.2107
  62   2.0000      -0.406476       -11.0608
  63   2.0000      -0.360765        -9.8169
  64   2.0000      -0.333105        -9.0642
  65   2.0000      -0.320937        -8.7331
  66   2.0000      -0.284887        -7.7522
  67   0.0000       0.021169         0.5760
  68   0.0000       0.077741         2.1154
  69   0.0000       0.100771         2.7421
  70   0.0000       0.114650         3.1198
  71   0.0000       0.132706         3.6111

MULLIKEN ATOMIC CHARGES
-----------------------
   0 S :    0.103745
   1 C :   -0.122720
   2 C :   -0.066577
   3 C :   -0.001206
   4 C :   -0.102093
   5 H :    0.001791
   6 C :    0.000933
   7 H :    0.030678
   8 H :    0.016578
   9 C :   -0.040352
  10 H :    0.028188
  11 H :    0.031907
  12 C :   -0.077725
  13 H :    0.041374
  14 H :    0.046117
  15 H :    0.032846
  16 S :    0.089849
  17 C :   -0.102614
  18 C :   -0.017789
  19 C :   -0.087310
  20 C :   -0.113699
  21 H :   -0.008509
  22 C :    0.053467
  23 H :    0.029481
  24 H :    0.025789
  25 C :   -0.045332
  26 H :    0.016546
  27 H :    0.033751
  28 C :   -0.035918
  29 H :    0.013594
  30 H :    0.046508
  31 H :    0.023676
  32 H :    0.067871
  33 H :    0.087154
Sum of atomic charges:   -0.0000000

LOEWDIN ATOMIC CHARGES
----------------------
   0 S :    0.403282
   1 C :   -0.205049
   2 C :   -0.068133
   3 C :   -0.062326
   4 C :   -0.199211
   5 H :    0.023846
   6 C :   -0.045442
   7 H :    0.037008
   8 H :    0.027298
   9 C :   -0.039952
  10 H :    0.019663
  11 H :    0.031657
  12 C :   -0.072220
  13 H :    0.030146
  14 H :    0.037011
  15 H :    0.021176
  16 S :    0.434696
  17 C :   -0.202501
  18 C :   -0.068200
  19 C :   -0.059902
  20 C :   -0.213745
  21 H :    0.015683
  22 C :   -0.027195
  23 H :    0.033341
  24 H :    0.030206
  25 C :   -0.028553
  26 H :    0.015013
  27 H :    0.023389
  28 C :   -0.063863
  29 H :    0.015796
  30 H :    0.031445
  31 H :    0.025783
  32 H :    0.047101
  33 H :    0.052750

  Mayer bond orders larger than 0.100000
B(  0-S ,  1-C ) :   1.1109 B(  0-S ,  4-C ) :   1.1331 B(  1-C ,  2-C ) :   1.6598
B(  1-C , 32-H ) :   0.9513 B(  2-C ,  3-C ) :   1.2179 B(  2-C ,  6-C ) :   1.0414
B(  3-C ,  4-C ) :   1.5658 B(  3-C ,  5-H ) :   0.9994 B(  4-C , 20-C ) :   1.0917
B(  6-C ,  7-H ) :   0.9450 B(  6-C ,  8-H ) :   0.9359 B(  6-C ,  9-C ) :   1.0381
B(  9-C , 10-H ) :   0.9612 B(  9-C , 11-H ) :   0.9491 B(  9-C , 12-C ) :   1.0878
B( 12-C , 13-H ) :   0.9736 B( 12-C , 14-H ) :   0.9696 B( 12-C , 15-H ) :   0.9725
B( 16-S , 17-C ) :   1.1603 B( 16-S , 20-C ) :   1.1457 B( 17-C , 18-C ) :   1.5859
B( 17-C , 33-H ) :   0.9575 B( 18-C , 19-C ) :   1.2627 B( 18-C , 21-H ) :   0.9932
B( 19-C , 20-C ) :   1.5596 B( 19-C , 22-C ) :   1.0459 B( 22-C , 23-H ) :   0.9367
B( 22-C , 24-H ) :   0.9310 B( 22-C , 25-C ) :   1.0731 B( 25-C , 26-H ) :   0.9579
B( 25-C , 27-H ) :   0.9601 B( 25-C , 28-C ) :   1.0677 B( 28-C , 29-H ) :   0.9743
B( 28-C , 30-H ) :   0.9748 B( 28-C , 31-H ) :   0.9764

Dispersion correction           -0.014080084
FINAL SINGLE POINT ENERGY     -1339.852625563066

DIPOLE MOMENT
-------------
                                X             Y             Z
Electronic contribution:    -23.96204     -14.85872      -3.52342
Nuclear contribution   :     24.60460      14.90092       3.60510
                        -----------------------------------------
Total Dipole Moment    :      0.64256       0.04220       0.08168
                        -----------------------------------------
Magnitude (a.u.)       :      0.64911
Magnitude (Debye)      :      1.64990

Rotational constants in cm-1:     0.020230     0.008505     0.006517
Rotational constants in MHz :   606.490801   254.967896   195.387753

                             ****ORCA TERMINATED NORMALLY****
TOTAL RUN TIME: 0 days 0 hours 0 minutes 29 seconds 991 msec
