                         Program Version 4.2.1 -  RELEASE  -
|  1> ! wB97X-D3 SP def2-SVP
|  2> %pal
|  3> nprocs 16
|  4> end
|  5>
|  6> * xyz 0 1
|  7> S 	 -19.9487 	 34.0009 	 36.7151
|  8> C 	 -21.3889 	 33.9962 	 35.7797
|  9> C 	 -21.2655 	 34.5657 	 34.5554
| 10> C 	 -19.9589 	 35.0729 	 34.3421
| 11> C 	 -19.1317 	 34.9577 	 35.4634
| 12> H 	 -19.517 	 35.4643 	 33.4517
| 13> C 	 -22.3734 	 34.6928 	 33.5297
| 14> H 	 -22.0061 	 35.5177 	 32.8618
| 15> H 	 -23.3421 	 34.9155 	 34.0018
| 16> C 	 -22.6 	 33.4684 	 32.6582
| 17> H 	 -23.3226 	 33.8124 	 31.9172
| 18> H 	 -21.6332 	 33.0743 	 32.2461
| 19> C 	 -23.2292 	 32.2235 	 33.3394
| 20> H 	 -22.556 	 31.6409 	 33.9641
| 21> H 	 -24.0506 	 32.5513 	 34.0257
| 22> H 	 -23.6141 	 31.5625 	 32.4875
| 23> S 	 -16.6801 	 34.0697 	 36.2017
| 24> C 	 -15.2498 	 35.126 	 36.3011
| 25> C 	 -15.5944 	 36.2895 	 35.6512
| 26> C 	 -16.9898 	 36.4128 	 35.3485
| 27> C 	 -17.7441 	 35.3187 	 35.6536
| 28> H 	 -14.8226 	 37.0383 	 35.523
| 29> C 	 -17.6157 	 37.7248 	 34.8876
| 30> H 	 -18.6792 	 37.6549 	 34.9727
| 31> H 	 -17.3658 	 37.7572 	 33.804
| 32> C 	 -17.0928 	 39.0332 	 35.5519
| 33> H 	 -17.5551 	 39.8837 	 35.0838
| 34> H 	 -16.0045 	 39.2191 	 35.331
| 35> C 	 -17.3567 	 39.1282 	 37.0976
| 36> H 	 -16.9917 	 40.0768 	 37.5119
| 37> H 	 -16.7239 	 38.4003 	 37.6769
| 38> H 	 -18.4008 	 38.901 	 37.342
| 39> H 	 -22.2856 	 33.4813 	 36.0826
| 40> H 	 -14.2478 	 34.9559 	 36.5506
| 41> *
| 42>
| 43>                          ****END OF INPUT****

CARTESIAN COORDINATES (ANGSTROEM)
---------------------------------
  S    -19.948700   34.000900   36.715100
  C    -21.388900   33.996200   35.779700
  C    -21.265500   34.565700   34.555400
  C    -19.958900   35.072900   34.342100
  C    -19.131700   34.957700   35.463400
  H    -19.517000   35.464300   33.451700
  C    -22.373400   34.692800   33.529700
  H    -22.006100   35.517700   32.861800
  H    -23.342100   34.915500   34.001800
  C    -22.600000   33.468400   32.658200
  H    -23.322600   33.812400   31.917200
  H    -21.633200   33.074300   32.246100
  C    -23.229200   32.223500   33.339400
  H    -22.556000   31.640900   33.964100
  H    -24.050600   32.551300   34.025700
  H    -23.614100   31.562500   32.487500
  S    -16.680100   34.069700   36.201700
  C    -15.249800   35.126000   36.301100
  C    -15.594400   36.289500   35.651200
  C    -16.989800   36.412800   35.348500
  C    -17.744100   35.318700   35.653600
  H    -14.822600   37.038300   35.523000
  C    -17.615700   37.724800   34.887600
  H    -18.679200   37.654900   34.972700
  H    -17.365800   37.757200   33.804000
  C    -17.092800   39.033200   35.551900
  H    -17.555100   39.883700   35.083800
  H    -16.004500   39.219100   35.331000
  C    -17.356700   39.128200   37.097600
  H    -16.991700   40.076800   37.511900
  H    -16.723900   38.400300   37.676900
  H    -18.400800   38.901000   37.342000
  H    -22.285600   33.481300   36.082600
  H    -14.247800   34.955900   36.550600

 Total Charge           Charge          ....    0
 Multiplicity           Mult            ....    1
 Number of Electrons    NEL             ....  134
 Basis Dimension        Dim             ....  322

ORBITAL ENERGIES
----------------

  NO   OCC          E(Eh)            E(eV)
   0   2.0000     -88.967131     -2420.9187
   1   2.0000     -88.960184     -2420.7297
   2   2.0000     -10.332881      -281.1720
   3   2.0000     -10.322351      -280.8854
   4   2.0000     -10.315629      -280.7025
   5   2.0000     -10.309439      -280.5341
   6   2.0000     -10.299775      -280.2711
   7   2.0000     -10.297890      -280.2198
   8   2.0000     -10.297422      -280.2071
   9   2.0000     -10.297002      -280.1957
  10   2.0000     -10.293195      -280.0921
  11   2.0000     -10.291637      -280.0497
  12   2.0000     -10.291368      -280.0424
  13   2.0000     -10.290945      -280.0309
  14   2.0000     -10.287204      -279.9290
  15   2.0000     -10.279922      -279.7309
  16   2.0000      -8.082156      -219.9266
  17   2.0000      -8.074952      -219.7306
  18   2.0000      -6.040549      -164.3717
  19   2.0000      -6.036653      -164.2657
  20   2.0000      -6.033682      -164.1848
  21   2.0000      -6.032977      -164.1657
  22   2.0000      -6.029401      -164.0683
  23   2.0000      -6.025473      -163.9615
  24   2.0000      -1.011232       -27.5170
  25   2.0000      -0.988401       -26.8957
  26   2.0000      -0.913430       -24.8557
  27   2.0000      -0.898872       -24.4595
  28   2.0000      -0.874007       -23.7829
  29   2.0000      -0.851754       -23.1774
  30   2.0000      -0.836693       -22.7676
  31   2.0000      -0.817988       -22.2586
  32   2.0000      -0.782072       -21.2813
  33   2.0000      -0.771853       -21.0032
  34   2.0000      -0.711366       -19.3573
  35   2.0000      -0.698516       -19.0076
  36   2.0000      -0.690133       -18.7795
  37   2.0000      -0.659530       -17.9467
  38   2.0000      -0.645508       -17.5652
  39   2.0000      -0.621759       -16.9189
  40   2.0000      -0.589949       -16.0533
  41   2.0000      -0.575218       -15.6525
  42   2.0000      -0.549234       -14.9454
  43   2.0000      -0.546970       -14.8838
  44   2.0000      -0.544420       -14.8144
  45   2.0000      -0.531328       -14.4582
  46   2.0000      -0.522283       -14.2120
  47   2.0000      -0.514516       -14.0007
  48   2.0000      -0.504770       -13.7355
  49   2.0000      -0.494172       -13.4471
  50   2.0000      -0.491581       -13.3766
  51   2.0000      -0.480950       -13.0873
  52   2.0000      -0.470644       -12.8069
  53   2.0000      -0.468591       -12.7510
  54   2.0000      -0.458762       -12.4836
  55   2.0000      -0.447085       -12.1658
  56   2.0000      -0.438119       -11.9218
  57   2.0000      -0.434413       -11.8210
  58   2.0000      -0.431281       -11.7357
  59   2.0000      -0.423484       -11.5236
  60   2.0000      -0.421548       -11.4709
  61   2.0000      -0.415592       -11.3088
  62   2.0000      -0.404562       -11.0087
  63   2.0000      -0.352686        -9.5971
  64   2.0000      -0.333111        -9.0644
  65   2.0000      -0.324536        -8.8311
  66   2.0000      -0.293224        -7.9790
  67   0.0000       0.026421         0.7189
  68   0.0000       0.073512         2.0004
  69   0.0000       0.110175         2.9980
  70   0.0000       0.117849         3.2068
  71   0.0000       0.139591         3.7985

MULLIKEN ATOMIC CHARGES
-----------------------
   0 S :    0.118750
   1 C :   -0.109983
   2 C :   -0.081832
   3 C :    0.042819
   4 C :   -0.178023
   5 H :    0.008036
   6 C :    0.060951
   7 H :    0.033203
   8 H :    0.032729
   9 C :   -0.073877
  10 H :    0.038915
  11 H :    0.038754
  12 C :   -0.094121
  13 H :    0.043184
  14 H :    0.025516
  15 H :    0.053119
  16 S :    0.085999
  17 C :   -0.059129
  18 C :   -0.051360
  19 C :   -0.047195
  20 C :   -0.134322
  21 H :    0.018267
  22 C :    0.066423
  23 H :    0.025671
  24 H :    0.038495
  25 C :   -0.075652
  26 H :    0.025064
  27 H :    0.026783
  28 C :   -0.067077
  29 H :    0.033944
  30 H :    0.037562
  31 H :    0.042427
  32 H :    0.039134
  33 H :    0.036827
Sum of atomic charges:   -0.0000000

LOEWDIN ATOMIC CHARGES
----------------------
   0 S :    0.414334
   1 C :   -0.198590
   2 C :   -0.072195
   3 C :   -0.053119
   4 C :   -0.185662
   5 H :    0.029979
   6 C :   -0.034093
   7 H :    0.038750
   8 H :    0.032632
   9 C :   -0.045251
  10 H :    0.026898
  11 H :    0.030868
  12 C :   -0.076692
  13 H :    0.021728
  14 H :    0.021478
  15 H :    0.038833
  16 S :    0.394829
  17 C :   -0.169129
  18 C :   -0.068095
  19 C :   -0.065632
  20 C :   -0.207124
  21 H :    0.029584
  22 C :   -0.031290
  23 H :    0.025246
  24 H :    0.037990
  25 C :   -0.043767
  26 H :    0.022022
  27 H :    0.024789
  28 C :   -0.072682
  29 H :    0.026227
  30 H :    0.030112
  31 H :    0.027324
  32 H :    0.025423
  33 H :    0.024274

  Mayer bond orders larger than 0.100000
B(  0-S ,  1-C ) :   1.1467 B(  0-S ,  4-C ) :   1.1522 B(  1-C ,  2-C ) :   1.6200
B(  1-C , 32-H ) :   0.9643 B(  2-C ,  3-C ) :   1.2439 B(  2-C ,  6-C ) :   1.0123
B(  3-C ,  4-C ) :   1.5638 B(  3-C ,  5-H ) :   0.9970 B(  4-C , 20-C ) :   1.0405
B(  6-C ,  7-H ) :   0.9365 B(  6-C ,  8-H ) :   0.9408 B(  6-C ,  9-C ) :   1.0843
B(  9-C , 10-H ) :   0.9566 B(  9-C , 11-H ) :   0.9516 B(  9-C , 12-C ) :   1.0734
B( 12-C , 13-H ) :   0.9748 B( 12-C , 14-H ) :   0.9736 B( 12-C , 15-H ) :   0.9735
B( 16-S , 17-C ) :   1.1321 B( 16-S , 20-C ) :   1.1339 B( 17-C , 18-C ) :   1.6292
B( 17-C , 33-H ) :   0.9738 B( 18-C , 19-C ) :   1.2245 B( 18-C , 21-H ) :   0.9873
B( 19-C , 20-C ) :   1.6153 B( 19-C , 22-C ) :   1.0353 B( 22-C , 23-H ) :   0.9416
B( 22-C , 24-H ) :   0.9262 B( 22-C , 25-C ) :   1.0800 B( 25-C , 26-H ) :   0.9547
B( 25-C , 27-H ) :   0.9510 B( 25-C , 28-C ) :   1.0675 B( 28-C , 29-H ) :   0.9750
B( 28-C , 30-H ) :   0.9744 B( 28-C , 31-H ) :   0.9770

Dispersion correction           -0.014451671
FINAL SINGLE POINT ENERGY     -1339.884492994350

DIPOLE MOMENT
-------------
                                X             Y             Z
Electronic contribution:     11.24665     -11.23085      10.50654
Nuclear contribution   :    -11.38799      11.59329     -10.99391
                        -----------------------------------------
Total Dipole Moment    :     -0.14133       0.36244      -0.48737
                        -----------------------------------------
Magnitude (a.u.)       :      0.62359
Magnitude (Debye)      :      1.58504

Rotational constants in cm-1:     0.023825     0.007419     0.006522
Rotational constants in MHz :   714.262565   222.422738   195.518710

                             ****ORCA TERMINATED NORMALLY****
TOTAL RUN TIME: 0 days 0 hours 0 minutes 33 seconds 345 msec
