                         Program Version 4.2.1 -  RELEASE  -
|  1> ! wB97X-D3 SP def2-SVP
|  2> %pal
|  3> nprocs 16
|  4> end
|  5>
|  6> * xyz 0 1
|  7> S 	 41.7809 	 14.1394 	 48.1555
|  8> C 	 42.4902 	 12.8966 	 49.1597
|  9> C 	 41.9116 	 12.7804 	 50.375
| 10> C 	 40.6396 	 13.5167 	 50.3396
| 11> C 	 40.3994 	 14.2132 	 49.2022
| 12> H 	 39.8753 	 13.4685 	 51.1211
| 13> C 	 42.4675 	 12.0067 	 51.5705
| 14> H 	 42.7788 	 11.0077 	 51.2269
| 15> H 	 41.6106 	 11.8278 	 52.2761
| 16> C 	 43.5893 	 12.7079 	 52.2363
| 17> H 	 44.4643 	 12.6845 	 51.5473
| 18> H 	 43.2945 	 13.7374 	 52.3316
| 19> C 	 44.0057 	 12.0917 	 53.6116
| 20> H 	 44.7903 	 12.7876 	 54.0132
| 21> H 	 43.1905 	 12.3101 	 54.3193
| 22> H 	 44.2832 	 11.0249 	 53.5594
| 23> S 	 39.8021 	 16.8677 	 49.2253
| 24> C 	 38.169 	 17.3656 	 49.2451
| 25> C 	 37.3396 	 16.2458 	 49.1329
| 26> C 	 37.9836 	 15.0289 	 48.9907
| 27> C 	 39.35 	 15.1911 	 48.9679
| 28> H 	 36.2604 	 16.384 	 49.1383
| 29> C 	 37.2164 	 13.6438 	 49.0015
| 30> H 	 36.9591 	 13.4477 	 50.0773
| 31> H 	 37.8904 	 12.7818 	 48.7003
| 32> C 	 35.8532 	 13.5155 	 48.3001
| 33> H 	 35.0249 	 14.1006 	 48.8965
| 34> H 	 35.4979 	 12.469 	 48.3877
| 35> C 	 35.8077 	 13.9527 	 46.8272
| 36> H 	 36.7157 	 13.5716 	 46.3121
| 37> H 	 35.7886 	 15.0677 	 46.7266
| 38> H 	 34.919 	 13.6379 	 46.2729
| 39> H 	 43.439 	 12.4137 	 48.8552
| 40> H 	 37.7908 	 18.3444 	 49.3157
| 41> *
| 42>
| 43>                          ****END OF INPUT****

CARTESIAN COORDINATES (ANGSTROEM)
---------------------------------
  S     41.780900   14.139400   48.155500
  C     42.490200   12.896600   49.159700
  C     41.911600   12.780400   50.375000
  C     40.639600   13.516700   50.339600
  C     40.399400   14.213200   49.202200
  H     39.875300   13.468500   51.121100
  C     42.467500   12.006700   51.570500
  H     42.778800   11.007700   51.226900
  H     41.610600   11.827800   52.276100
  C     43.589300   12.707900   52.236300
  H     44.464300   12.684500   51.547300
  H     43.294500   13.737400   52.331600
  C     44.005700   12.091700   53.611600
  H     44.790300   12.787600   54.013200
  H     43.190500   12.310100   54.319300
  H     44.283200   11.024900   53.559400
  S     39.802100   16.867700   49.225300
  C     38.169000   17.365600   49.245100
  C     37.339600   16.245800   49.132900
  C     37.983600   15.028900   48.990700
  C     39.350000   15.191100   48.967900
  H     36.260400   16.384000   49.138300
  C     37.216400   13.643800   49.001500
  H     36.959100   13.447700   50.077300
  H     37.890400   12.781800   48.700300
  C     35.853200   13.515500   48.300100
  H     35.024900   14.100600   48.896500
  H     35.497900   12.469000   48.387700
  C     35.807700   13.952700   46.827200
  H     36.715700   13.571600   46.312100
  H     35.788600   15.067700   46.726600
  H     34.919000   13.637900   46.272900
  H     43.439000   12.413700   48.855200
  H     37.790800   18.344400   49.315700

 Total Charge           Charge          ....    0
 Multiplicity           Mult            ....    1
 Number of Electrons    NEL             ....  134
 Basis Dimension        Dim             ....  322

ORBITAL ENERGIES
----------------

  NO   OCC          E(Eh)            E(eV)
   0   2.0000     -88.966058     -2420.8895
   1   2.0000     -88.959621     -2420.7144
   2   2.0000     -10.321419      -280.8601
   3   2.0000     -10.321229      -280.8549
   4   2.0000     -10.312574      -280.6194
   5   2.0000     -10.311756      -280.5971
   6   2.0000     -10.305664      -280.4314
   7   2.0000     -10.303355      -280.3685
   8   2.0000     -10.301505      -280.3182
   9   2.0000     -10.299077      -280.2521
  10   2.0000     -10.295168      -280.1458
  11   2.0000     -10.294782      -280.1353
  12   2.0000     -10.288911      -279.9755
  13   2.0000     -10.287786      -279.9449
  14   2.0000     -10.285720      -279.8887
  15   2.0000     -10.279650      -279.7235
  16   2.0000      -8.081392      -219.9059
  17   2.0000      -8.075267      -219.7392
  18   2.0000      -6.039762      -164.3503
  19   2.0000      -6.035741      -164.2409
  20   2.0000      -6.033746      -164.1866
  21   2.0000      -6.032323      -164.1479
  22   2.0000      -6.029818      -164.0797
  23   2.0000      -6.025840      -163.9714
  24   2.0000      -1.012024       -27.5386
  25   2.0000      -0.988704       -26.9040
  26   2.0000      -0.916219       -24.9316
  27   2.0000      -0.900424       -24.5018
  28   2.0000      -0.870011       -23.6742
  29   2.0000      -0.849127       -23.1059
  30   2.0000      -0.841460       -22.8973
  31   2.0000      -0.810545       -22.0560
  32   2.0000      -0.783219       -21.3125
  33   2.0000      -0.774625       -21.0786
  34   2.0000      -0.699686       -19.0394
  35   2.0000      -0.696793       -18.9607
  36   2.0000      -0.688501       -18.7351
  37   2.0000      -0.656692       -17.8695
  38   2.0000      -0.642401       -17.4806
  39   2.0000      -0.615520       -16.7492
  40   2.0000      -0.594028       -16.1643
  41   2.0000      -0.566968       -15.4280
  42   2.0000      -0.564354       -15.3568
  43   2.0000      -0.548591       -14.9279
  44   2.0000      -0.533841       -14.5266
  45   2.0000      -0.523920       -14.2566
  46   2.0000      -0.519165       -14.1272
  47   2.0000      -0.514349       -13.9961
  48   2.0000      -0.503608       -13.7039
  49   2.0000      -0.499973       -13.6049
  50   2.0000      -0.486868       -13.2484
  51   2.0000      -0.473477       -12.8840
  52   2.0000      -0.467432       -12.7195
  53   2.0000      -0.461865       -12.5680
  54   2.0000      -0.460873       -12.5410
  55   2.0000      -0.446090       -12.1387
  56   2.0000      -0.438848       -11.9417
  57   2.0000      -0.438195       -11.9239
  58   2.0000      -0.435283       -11.8447
  59   2.0000      -0.421080       -11.4582
  60   2.0000      -0.420169       -11.4334
  61   2.0000      -0.415399       -11.3036
  62   2.0000      -0.408893       -11.1265
  63   2.0000      -0.340845        -9.2749
  64   2.0000      -0.333619        -9.0782
  65   2.0000      -0.326169        -8.8755
  66   2.0000      -0.300031        -8.1643
  67   0.0000       0.042062         1.1446
  68   0.0000       0.061063         1.6616
  69   0.0000       0.115627         3.1464
  70   0.0000       0.125628         3.4185
  71   0.0000       0.129910         3.5350

MULLIKEN ATOMIC CHARGES
-----------------------
   0 S :    0.095968
   1 C :   -0.132202
   2 C :   -0.089415
   3 C :    0.031212
   4 C :   -0.168628
   5 H :    0.013404
   6 C :    0.072077
   7 H :    0.028415
   8 H :    0.022173
   9 C :   -0.090250
  10 H :    0.030467
  11 H :    0.029865
  12 C :   -0.052400
  13 H :    0.041308
  14 H :    0.031238
  15 H :    0.052670
  16 S :    0.125128
  17 C :   -0.071513
  18 C :   -0.065929
  19 C :    0.005952
  20 C :   -0.165201
  21 H :    0.016062
  22 C :    0.036177
  23 H :    0.047317
  24 H :    0.052314
  25 C :   -0.117075
  26 H :    0.033796
  27 H :    0.038627
  28 C :   -0.059575
  29 H :    0.041789
  30 H :    0.036473
  31 H :    0.036304
  32 H :    0.054535
  33 H :    0.038915
Sum of atomic charges:    0.0000000

LOEWDIN ATOMIC CHARGES
----------------------
   0 S :    0.398575
   1 C :   -0.190023
   2 C :   -0.064053
   3 C :   -0.057271
   4 C :   -0.207461
   5 H :    0.030846
   6 C :   -0.035724
   7 H :    0.031145
   8 H :    0.031232
   9 C :   -0.045254
  10 H :    0.025532
  11 H :    0.024756
  12 C :   -0.070298
  13 H :    0.035177
  14 H :    0.026628
  15 H :    0.030061
  16 S :    0.432959
  17 C :   -0.192729
  18 C :   -0.075971
  19 C :   -0.057441
  20 C :   -0.205394
  21 H :    0.029149
  22 C :   -0.036464
  23 H :    0.041049
  24 H :    0.039103
  25 C :   -0.056726
  26 H :    0.027715
  27 H :    0.030153
  28 C :   -0.077046
  29 H :    0.030437
  30 H :    0.029099
  31 H :    0.026170
  32 H :    0.029699
  33 H :    0.022374

  Mayer bond orders larger than 0.100000
B(  0-S ,  1-C ) :   1.1366 B(  0-S ,  4-C ) :   1.1354 B(  1-C ,  2-C ) :   1.6505
B(  1-C , 32-H ) :   0.9645 B(  2-C ,  3-C ) :   1.2063 B(  2-C ,  6-C ) :   1.0163
B(  3-C ,  4-C ) :   1.6231 B(  3-C ,  5-H ) :   0.9944 B(  4-C , 20-C ) :   0.9924
B(  6-C ,  7-H ) :   0.9355 B(  6-C ,  8-H ) :   0.9418 B(  6-C ,  9-C ) :   1.0665
B(  9-C , 10-H ) :   0.9529 B(  9-C , 11-H ) :   0.9544 B(  9-C , 12-C ) :   1.0835
B( 12-C , 13-H ) :   0.9734 B( 12-C , 14-H ) :   0.9736 B( 12-C , 15-H ) :   0.9735
B( 16-S , 17-C ) :   1.1781 B( 16-S , 20-C ) :   1.1659 B( 17-C , 18-C ) :   1.5697
B( 17-C , 20-C ) :   0.1084 B( 17-C , 33-H ) :   0.9751 B( 18-C , 19-C ) :   1.2807
B( 18-C , 21-H ) :   0.9876 B( 19-C , 20-C ) :   1.5927 B( 19-C , 22-C ) :   1.0133
B( 22-C , 23-H ) :   0.9373 B( 22-C , 24-H ) :   0.9409 B( 22-C , 25-C ) :   1.0769
B( 25-C , 26-H ) :   0.9496 B( 25-C , 27-H ) :   0.9529 B( 25-C , 28-C ) :   1.0736
B( 28-C , 29-H ) :   0.9755 B( 28-C , 30-H ) :   0.9715 B( 28-C , 31-H ) :   0.9756

Dispersion correction           -0.013921852
FINAL SINGLE POINT ENERGY     -1339.883034464927

DIPOLE MOMENT
-------------
                                X             Y             Z
Electronic contribution:      5.70664      15.09726     -10.33283
Nuclear contribution   :     -5.93837     -15.40186      10.85151
                        -----------------------------------------
Total Dipole Moment    :     -0.23173      -0.30460       0.51867
                        -----------------------------------------
Magnitude (a.u.)       :      0.64459
Magnitude (Debye)      :      1.63843

Rotational constants in cm-1:     0.022392     0.006895     0.006401
Rotational constants in MHz :   671.300328   206.696120   191.884212

                             ****ORCA TERMINATED NORMALLY****
TOTAL RUN TIME: 0 days 0 hours 0 minutes 33 seconds 343 msec
