                         Program Version 4.2.1 -  RELEASE  -
|  1> ! wB97X-D3 SP def2-SVP
|  2> %pal
|  3> nprocs 16
|  4> end
|  5>
|  6> * xyz 0 1
|  7> S 	 23.105 	 -10.9281 	 80.5394
|  8> C 	 24.487 	 -11.1975 	 79.4773
|  9> C 	 24.7414 	 -10.0871 	 78.7395
| 10> C 	 23.9105 	 -8.99344 	 79.0487
| 11> C 	 22.9254 	 -9.21074 	 79.9776
| 12> H 	 23.9489 	 -8.04425 	 78.5866
| 13> C 	 25.9027 	 -9.91869 	 77.7653
| 14> H 	 25.4971 	 -9.90798 	 76.7742
| 15> H 	 26.5972 	 -10.7845 	 77.7989
| 16> C 	 26.7431 	 -8.6453 	 78.0017
| 17> H 	 27.6553 	 -8.76183 	 77.4035
| 18> H 	 26.2307 	 -7.87355 	 77.4865
| 19> C 	 27.1511 	 -8.41611 	 79.502
| 20> H 	 27.4117 	 -9.35306 	 79.928
| 21> H 	 27.9531 	 -7.72776 	 79.4783
| 22> H 	 26.3688 	 -7.96864 	 80.0495
| 23> S 	 20.3842 	 -8.38269 	 80.4785
| 24> C 	 20.1285 	 -6.88991 	 81.3062
| 25> C 	 21.3843 	 -6.25969 	 81.5269
| 26> C 	 22.4866 	 -6.95677 	 81.0589
| 27> C 	 22.0603 	 -8.16307 	 80.6067
| 28> H 	 21.5164 	 -5.46406 	 82.172
| 29> C 	 23.8803 	 -6.4605 	 81.2152
| 30> H 	 24.5735 	 -7.29689 	 81.3048
| 31> H 	 24.0007 	 -5.89509 	 82.1252
| 32> C 	 24.3678 	 -5.49119 	 80.0541
| 33> H 	 23.7114 	 -4.69978 	 79.9315
| 34> H 	 24.4424 	 -5.97705 	 79.1232
| 35> C 	 25.6429 	 -4.79214 	 80.4124
| 36> H 	 26.536 	 -5.40854 	 80.4868
| 37> H 	 25.584 	 -4.10717 	 81.2272
| 38> H 	 25.9494 	 -4.12422 	 79.6407
| 39> H 	 25.0824 	 -12.0989 	 79.4492
| 40> H 	 19.2332 	 -6.54827 	 81.8227
| 41> *
| 42>
| 43>                          ****END OF INPUT****

CARTESIAN COORDINATES (ANGSTROEM)
---------------------------------
  S     23.105000  -10.928100   80.539400
  C     24.487000  -11.197500   79.477300
  C     24.741400  -10.087100   78.739500
  C     23.910500   -8.993440   79.048700
  C     22.925400   -9.210740   79.977600
  H     23.948900   -8.044250   78.586600
  C     25.902700   -9.918690   77.765300
  H     25.497100   -9.907980   76.774200
  H     26.597200  -10.784500   77.798900
  C     26.743100   -8.645300   78.001700
  H     27.655300   -8.761830   77.403500
  H     26.230700   -7.873550   77.486500
  C     27.151100   -8.416110   79.502000
  H     27.411700   -9.353060   79.928000
  H     27.953100   -7.727760   79.478300
  H     26.368800   -7.968640   80.049500
  S     20.384200   -8.382690   80.478500
  C     20.128500   -6.889910   81.306200
  C     21.384300   -6.259690   81.526900
  C     22.486600   -6.956770   81.058900
  C     22.060300   -8.163070   80.606700
  H     21.516400   -5.464060   82.172000
  C     23.880300   -6.460500   81.215200
  H     24.573500   -7.296890   81.304800
  H     24.000700   -5.895090   82.125200
  C     24.367800   -5.491190   80.054100
  H     23.711400   -4.699780   79.931500
  H     24.442400   -5.977050   79.123200
  C     25.642900   -4.792140   80.412400
  H     26.536000   -5.408540   80.486800
  H     25.584000   -4.107170   81.227200
  H     25.949400   -4.124220   79.640700
  H     25.082400  -12.098900   79.449200
  H     19.233200   -6.548270   81.822700

 Total Charge           Charge          ....    0
 Multiplicity           Mult            ....    1
 Number of Electrons    NEL             ....  134
 Basis Dimension        Dim             ....  322

ORBITAL ENERGIES
----------------

  NO   OCC          E(Eh)            E(eV)
   0   2.0000     -88.970287     -2421.0046
   1   2.0000     -88.961529     -2420.7663
   2   2.0000     -10.330443      -281.1057
   3   2.0000     -10.321717      -280.8682
   4   2.0000     -10.316964      -280.7389
   5   2.0000     -10.312786      -280.6252
   6   2.0000     -10.294440      -280.1260
   7   2.0000     -10.293718      -280.1063
   8   2.0000     -10.293084      -280.0890
   9   2.0000     -10.290514      -280.0191
  10   2.0000     -10.286444      -279.9084
  11   2.0000     -10.286373      -279.9064
  12   2.0000     -10.286191      -279.9015
  13   2.0000     -10.281769      -279.7812
  14   2.0000     -10.272000      -279.5153
  15   2.0000     -10.270921      -279.4860
  16   2.0000      -8.086106      -220.0341
  17   2.0000      -8.075202      -219.7374
  18   2.0000      -6.044411      -164.4768
  19   2.0000      -6.040419      -164.3682
  20   2.0000      -6.037056      -164.2766
  21   2.0000      -6.033855      -164.1895
  22   2.0000      -6.029860      -164.0808
  23   2.0000      -6.025865      -163.9721
  24   2.0000      -1.014008       -27.5926
  25   2.0000      -0.985927       -26.8284
  26   2.0000      -0.915366       -24.9084
  27   2.0000      -0.907069       -24.6826
  28   2.0000      -0.867332       -23.6013
  29   2.0000      -0.865555       -23.5529
  30   2.0000      -0.839444       -22.8424
  31   2.0000      -0.813959       -22.1490
  32   2.0000      -0.788561       -21.4578
  33   2.0000      -0.778077       -21.1725
  34   2.0000      -0.712827       -19.3970
  35   2.0000      -0.703661       -19.1476
  36   2.0000      -0.694126       -18.8881
  37   2.0000      -0.672065       -18.2878
  38   2.0000      -0.640512       -17.4292
  39   2.0000      -0.623615       -16.9694
  40   2.0000      -0.601361       -16.3639
  41   2.0000      -0.574830       -15.6419
  42   2.0000      -0.560986       -15.2652
  43   2.0000      -0.558735       -15.2040
  44   2.0000      -0.539690       -14.6857
  45   2.0000      -0.526018       -14.3137
  46   2.0000      -0.521404       -14.1881
  47   2.0000      -0.517034       -14.0692
  48   2.0000      -0.506887       -13.7931
  49   2.0000      -0.496401       -13.5078
  50   2.0000      -0.491146       -13.3648
  51   2.0000      -0.487093       -13.2545
  52   2.0000      -0.470740       -12.8095
  53   2.0000      -0.464512       -12.6400
  54   2.0000      -0.462075       -12.5737
  55   2.0000      -0.456202       -12.4139
  56   2.0000      -0.441112       -12.0033
  57   2.0000      -0.438771       -11.9396
  58   2.0000      -0.435364       -11.8469
  59   2.0000      -0.432044       -11.7565
  60   2.0000      -0.425803       -11.5867
  61   2.0000      -0.420701       -11.4478
  62   2.0000      -0.410857       -11.1800
  63   2.0000      -0.342100        -9.3090
  64   2.0000      -0.334497        -9.1021
  65   2.0000      -0.328707        -8.9446
  66   2.0000      -0.297066        -8.0836
  67   0.0000       0.032431         0.8825
  68   0.0000       0.069837         1.9004
  69   0.0000       0.120883         3.2894
  70   0.0000       0.123023         3.3476
  71   0.0000       0.129496         3.5238

MULLIKEN ATOMIC CHARGES
-----------------------
   0 S :    0.082703
   1 C :   -0.132455
   2 C :   -0.067526
   3 C :    0.031926
   4 C :   -0.128474
   5 H :   -0.017501
   6 C :    0.075296
   7 H :    0.032856
   8 H :    0.016827
   9 C :   -0.115717
  10 H :    0.027887
  11 H :    0.018000
  12 C :    0.032905
  13 H :    0.025881
  14 H :    0.026400
  15 H :    0.015939
  16 S :    0.142204
  17 C :   -0.094527
  18 C :   -0.025680
  19 C :    0.000936
  20 C :   -0.185955
  21 H :   -0.013935
  22 C :    0.065917
  23 H :    0.036490
  24 H :    0.011396
  25 C :   -0.012909
  26 H :    0.007818
  27 H :    0.013057
  28 C :   -0.032465
  29 H :    0.020577
  30 H :    0.021446
  31 H :    0.011878
  32 H :    0.046348
  33 H :    0.062457
Sum of atomic charges:   -0.0000000

LOEWDIN ATOMIC CHARGES
----------------------
   0 S :    0.363000
   1 C :   -0.185699
   2 C :   -0.071697
   3 C :   -0.058681
   4 C :   -0.172721
   5 H :    0.022289
   6 C :   -0.029085
   7 H :    0.029968
   8 H :    0.026809
   9 C :   -0.039625
  10 H :    0.026564
  11 H :    0.013981
  12 C :   -0.045994
  13 H :    0.025819
  14 H :    0.022385
  15 H :    0.017599
  16 S :    0.453739
  17 C :   -0.205305
  18 C :   -0.054951
  19 C :   -0.061997
  20 C :   -0.211485
  21 H :    0.016061
  22 C :   -0.021661
  23 H :    0.031827
  24 H :    0.029669
  25 C :   -0.023077
  26 H :    0.019264
  27 H :    0.015349
  28 C :   -0.065904
  29 H :    0.023211
  30 H :    0.021919
  31 H :    0.025845
  32 H :    0.030513
  33 H :    0.032070

  Mayer bond orders larger than 0.100000
B(  0-S ,  1-C ) :   1.1320 B(  0-S ,  4-C ) :   1.1286 B(  1-C ,  2-C ) :   1.6292
B(  1-C , 32-H ) :   0.9671 B(  2-C ,  3-C ) :   1.2267 B(  2-C ,  6-C ) :   1.0158
B(  3-C ,  4-C ) :   1.5986 B(  3-C ,  5-H ) :   1.0039 B(  4-C , 20-C ) :   0.9837
B(  6-C ,  7-H ) :   0.9368 B(  6-C ,  8-H ) :   0.9473 B(  6-C ,  9-C ) :   1.0778
B(  9-C , 10-H ) :   0.9582 B(  9-C , 11-H ) :   0.9521 B(  9-C , 12-C ) :   1.0681
B( 12-C , 13-H ) :   0.9707 B( 12-C , 14-H ) :   0.9713 B( 12-C , 15-H ) :   0.9699
B( 16-S , 17-C ) :   1.1653 B( 16-S , 20-C ) :   1.1849 B( 17-C , 18-C ) :   1.5647
B( 17-C , 20-C ) :   0.1050 B( 17-C , 33-H ) :   0.9677 B( 18-C , 19-C ) :   1.2783
B( 18-C , 21-H ) :   0.9924 B( 19-C , 20-C ) :   1.5759 B( 19-C , 22-C ) :   1.0526
B( 22-C , 23-H ) :   0.9295 B( 22-C , 24-H ) :   0.9291 B( 22-C , 25-C ) :   1.0565
B( 25-C , 26-H ) :   0.9483 B( 25-C , 27-H ) :   0.9506 B( 25-C , 28-C ) :   1.0994
B( 28-C , 29-H ) :   0.9707 B( 28-C , 30-H ) :   0.9705 B( 28-C , 31-H ) :   0.9640

Dispersion correction           -0.016952800
FINAL SINGLE POINT ENERGY     -1339.870428390404

DIPOLE MOMENT
-------------
                                X             Y             Z
Electronic contribution:    -27.03579     -16.66506       5.59003
Nuclear contribution   :     27.66434      17.22026      -5.70322
                        -----------------------------------------
Total Dipole Moment    :      0.62855       0.55520      -0.11318
                        -----------------------------------------
Magnitude (a.u.)       :      0.84625
Magnitude (Debye)      :      2.15098

Rotational constants in cm-1:     0.017204     0.011678     0.007609
Rotational constants in MHz :   515.759663   350.109590   228.109750

                             ****ORCA TERMINATED NORMALLY****
TOTAL RUN TIME: 0 days 0 hours 0 minutes 33 seconds 988 msec
