                         Program Version 4.2.1 -  RELEASE  -
|  1> ! wB97X-D3 SP def2-SVP
|  2> %pal
|  3> nprocs 16
|  4> end
|  5>
|  6> * xyz 0 1
|  7> S 	 -98.6624 	 38.9556 	 124.405
|  8> C 	 -97.8435 	 38.5405 	 125.906
|  9> C 	 -96.719 	 39.338 	 126.096
| 10> C 	 -96.6041 	 40.3307 	 125.06
| 11> C 	 -97.6099 	 40.2942 	 124.092
| 12> H 	 -95.8992 	 41.1063 	 124.938
| 13> C 	 -95.822 	 39.2646 	 127.331
| 14> H 	 -94.9479 	 39.8124 	 127.003
| 15> H 	 -95.4662 	 38.2909 	 127.462
| 16> C 	 -96.3574 	 39.9113 	 128.708
| 17> H 	 -96.503 	 40.9697 	 128.525
| 18> H 	 -97.3399 	 39.5499 	 129.059
| 19> C 	 -95.3048 	 39.7299 	 129.834
| 20> H 	 -94.3401 	 39.9959 	 129.392
| 21> H 	 -95.5089 	 40.3777 	 130.762
| 22> H 	 -95.2509 	 38.6485 	 130.021
| 23> S 	 -98.2462 	 40.3736 	 121.469
| 24> C 	 -98.3771 	 41.8796 	 120.622
| 25> C 	 -98.2671 	 42.973 	 121.481
| 26> C 	 -97.8068 	 42.5544 	 122.783
| 27> C 	 -97.8119 	 41.1554 	 122.936
| 28> H 	 -98.3365 	 44.0228 	 121.246
| 29> C 	 -97.6795 	 43.5395 	 123.952
| 30> H 	 -96.9026 	 44.3416 	 123.762
| 31> H 	 -97.24 	 43.0109 	 124.853
| 32> C 	 -98.989 	 44.2023 	 124.328
| 33> H 	 -99.4601 	 44.6401 	 123.454
| 34> H 	 -98.8908 	 45.0084 	 124.951
| 35> C 	 -99.9141 	 43.2057 	 124.994
| 36> H 	 -100.938 	 43.5817 	 125.283
| 37> H 	 -99.484 	 42.8092 	 125.907
| 38> H 	 -100.182 	 42.4217 	 124.349
| 39> H 	 -98.0019 	 37.6411 	 126.454
| 40> H 	 -98.6904 	 42.0122 	 119.568
| 41> *
| 42>
| 43>                          ****END OF INPUT****

CARTESIAN COORDINATES (ANGSTROEM)
---------------------------------
  S    -98.662400   38.955600  124.405000
  C    -97.843500   38.540500  125.906000
  C    -96.719000   39.338000  126.096000
  C    -96.604100   40.330700  125.060000
  C    -97.609900   40.294200  124.092000
  H    -95.899200   41.106300  124.938000
  C    -95.822000   39.264600  127.331000
  H    -94.947900   39.812400  127.003000
  H    -95.466200   38.290900  127.462000
  C    -96.357400   39.911300  128.708000
  H    -96.503000   40.969700  128.525000
  H    -97.339900   39.549900  129.059000
  C    -95.304800   39.729900  129.834000
  H    -94.340100   39.995900  129.392000
  H    -95.508900   40.377700  130.762000
  H    -95.250900   38.648500  130.021000
  S    -98.246200   40.373600  121.469000
  C    -98.377100   41.879600  120.622000
  C    -98.267100   42.973000  121.481000
  C    -97.806800   42.554400  122.783000
  C    -97.811900   41.155400  122.936000
  H    -98.336500   44.022800  121.246000
  C    -97.679500   43.539500  123.952000
  H    -96.902600   44.341600  123.762000
  H    -97.240000   43.010900  124.853000
  C    -98.989000   44.202300  124.328000
  H    -99.460100   44.640100  123.454000
  H    -98.890800   45.008400  124.951000
  C    -99.914100   43.205700  124.994000
  H    -100.938000   43.581700  125.283000
  H    -99.484000   42.809200  125.907000
  H    -100.182000   42.421700  124.349000
  H    -98.001900   37.641100  126.454000
  H    -98.690400   42.012200  119.568000

 Total Charge           Charge          ....    0
 Multiplicity           Mult            ....    1
 Number of Electrons    NEL             ....  134
 Basis Dimension        Dim             ....  322

ORBITAL ENERGIES
----------------

  NO   OCC          E(Eh)            E(eV)
   0   2.0000     -88.970005     -2420.9969
   1   2.0000     -88.966796     -2420.9096
   2   2.0000     -10.330245      -281.1002
   3   2.0000     -10.328336      -281.0483
   4   2.0000     -10.322924      -280.9010
   5   2.0000     -10.312243      -280.6104
   6   2.0000     -10.307358      -280.4775
   7   2.0000     -10.305738      -280.4334
   8   2.0000     -10.299091      -280.2525
   9   2.0000     -10.298269      -280.2301
  10   2.0000     -10.294731      -280.1339
  11   2.0000     -10.294637      -280.1313
  12   2.0000     -10.293117      -280.0900
  13   2.0000     -10.287951      -279.9494
  14   2.0000     -10.274976      -279.5963
  15   2.0000     -10.265490      -279.3382
  16   2.0000      -8.085434      -220.0159
  17   2.0000      -8.081535      -219.9097
  18   2.0000      -6.043894      -164.4627
  19   2.0000      -6.040020      -164.3573
  20   2.0000      -6.039774      -164.3506
  21   2.0000      -6.036267      -164.2552
  22   2.0000      -6.035919      -164.2457
  23   2.0000      -6.032448      -164.1512
  24   2.0000      -1.010314       -27.4921
  25   2.0000      -0.984481       -26.7891
  26   2.0000      -0.912378       -24.8271
  27   2.0000      -0.904032       -24.6000
  28   2.0000      -0.869346       -23.6561
  29   2.0000      -0.849867       -23.1261
  30   2.0000      -0.844488       -22.9797
  31   2.0000      -0.813308       -22.1312
  32   2.0000      -0.779480       -21.2107
  33   2.0000      -0.769083       -20.9278
  34   2.0000      -0.707031       -19.2393
  35   2.0000      -0.702230       -19.1086
  36   2.0000      -0.695390       -18.9225
  37   2.0000      -0.663603       -18.0575
  38   2.0000      -0.645701       -17.5704
  39   2.0000      -0.617051       -16.7908
  40   2.0000      -0.597456       -16.2576
  41   2.0000      -0.565096       -15.3770
  42   2.0000      -0.557497       -15.1703
  43   2.0000      -0.551898       -15.0179
  44   2.0000      -0.543582       -14.7916
  45   2.0000      -0.523399       -14.2424
  46   2.0000      -0.517215       -14.0741
  47   2.0000      -0.507061       -13.7978
  48   2.0000      -0.501667       -13.6510
  49   2.0000      -0.496815       -13.5190
  50   2.0000      -0.496320       -13.5055
  51   2.0000      -0.477600       -12.9961
  52   2.0000      -0.467291       -12.7156
  53   2.0000      -0.462841       -12.5945
  54   2.0000      -0.456685       -12.4270
  55   2.0000      -0.450605       -12.2616
  56   2.0000      -0.441677       -12.0186
  57   2.0000      -0.436551       -11.8792
  58   2.0000      -0.429391       -11.6843
  59   2.0000      -0.427617       -11.6360
  60   2.0000      -0.422608       -11.4997
  61   2.0000      -0.419596       -11.4178
  62   2.0000      -0.415021       -11.2933
  63   2.0000      -0.350774        -9.5450
  64   2.0000      -0.333059        -9.0630
  65   2.0000      -0.331074        -9.0090
  66   2.0000      -0.289469        -7.8768
  67   0.0000       0.026719         0.7270
  68   0.0000       0.070122         1.9081
  69   0.0000       0.110828         3.0158
  70   0.0000       0.115577         3.1450
  71   0.0000       0.132653         3.6097

MULLIKEN ATOMIC CHARGES
-----------------------
   0 S :    0.106852
   1 C :   -0.101684
   2 C :   -0.103472
   3 C :    0.048392
   4 C :   -0.154422
   5 H :   -0.004489
   6 C :    0.078120
   7 H :    0.014528
   8 H :    0.014586
   9 C :   -0.062889
  10 H :    0.027124
  11 H :    0.035695
  12 C :   -0.071449
  13 H :    0.025837
  14 H :    0.060009
  15 H :    0.036683
  16 S :    0.121569
  17 C :   -0.097067
  18 C :   -0.025654
  19 C :   -0.049455
  20 C :   -0.155223
  21 H :    0.023469
  22 C :    0.011364
  23 H :    0.035775
  24 H :    0.022464
  25 C :    0.000369
  26 H :    0.014281
  27 H :    0.004669
  28 C :   -0.052322
  29 H :    0.024869
  30 H :    0.028113
  31 H :    0.027642
  32 H :    0.042665
  33 H :    0.073050
Sum of atomic charges:   -0.0000000

LOEWDIN ATOMIC CHARGES
----------------------
   0 S :    0.410428
   1 C :   -0.192960
   2 C :   -0.059962
   3 C :   -0.066134
   4 C :   -0.197204
   5 H :    0.021863
   6 C :   -0.026789
   7 H :    0.030938
   8 H :    0.020836
   9 C :   -0.034973
  10 H :    0.021285
  11 H :    0.023403
  12 C :   -0.073142
  13 H :    0.022427
  14 H :    0.038769
  15 H :    0.025931
  16 S :    0.434202
  17 C :   -0.197532
  18 C :   -0.065201
  19 C :   -0.055559
  20 C :   -0.212673
  21 H :    0.031461
  22 C :   -0.038593
  23 H :    0.034577
  24 H :    0.032522
  25 C :   -0.035622
  26 H :    0.022794
  27 H :    0.013129
  28 C :   -0.062051
  29 H :    0.028783
  30 H :    0.024365
  31 H :    0.018357
  32 H :    0.024357
  33 H :    0.037966

  Mayer bond orders larger than 0.100000
B(  0-S ,  1-C ) :   1.1385 B(  0-S ,  4-C ) :   1.1621 B(  1-C ,  2-C ) :   1.5962
B(  1-C ,  4-C ) :   0.1019 B(  1-C , 32-H ) :   0.9724 B(  2-C ,  3-C ) :   1.2449
B(  2-C ,  6-C ) :   1.0261 B(  3-C ,  4-C ) :   1.5614 B(  3-C ,  5-H ) :   0.9975
B(  4-C , 20-C ) :   1.0450 B(  6-C ,  7-H ) :   0.9380 B(  6-C ,  8-H ) :   0.9403
B(  6-C ,  9-C ) :   1.0431 B(  9-C , 10-H ) :   0.9581 B(  9-C , 11-H ) :   0.9629
B(  9-C , 12-C ) :   1.0684 B( 12-C , 13-H ) :   0.9748 B( 12-C , 14-H ) :   0.9731
B( 12-C , 15-H ) :   0.9779 B( 16-S , 17-C ) :   1.1639 B( 16-S , 20-C ) :   1.1580
B( 17-C , 18-C ) :   1.5818 B( 17-C , 33-H ) :   0.9642 B( 18-C , 19-C ) :   1.2677
B( 18-C , 21-H ) :   0.9853 B( 19-C , 20-C ) :   1.5594 B( 19-C , 22-C ) :   1.0485
B( 22-C , 23-H ) :   0.9308 B( 22-C , 24-H ) :   0.9384 B( 22-C , 25-C ) :   1.0760
B( 25-C , 26-H ) :   0.9499 B( 25-C , 27-H ) :   0.9493 B( 25-C , 28-C ) :   1.0758
B( 28-C , 29-H ) :   0.9714 B( 28-C , 30-H ) :   0.9738 B( 28-C , 31-H ) :   0.9777

Dispersion correction           -0.014849622
FINAL SINGLE POINT ENERGY     -1339.881484585989

DIPOLE MOMENT
-------------
                                X             Y             Z
Electronic contribution:     -5.47248     -11.98450     -24.98396
Nuclear contribution   :      5.66123      12.38961      25.31217
                        -----------------------------------------
Total Dipole Moment    :      0.18875       0.40511       0.32821
                        -----------------------------------------
Magnitude (a.u.)       :      0.55449
Magnitude (Debye)      :      1.40940

Rotational constants in cm-1:     0.022170     0.008049     0.006736
Rotational constants in MHz :   664.629070   241.311042   201.943909

                             ****ORCA TERMINATED NORMALLY****
TOTAL RUN TIME: 0 days 0 hours 0 minutes 34 seconds 513 msec
