                         Program Version 4.2.1 -  RELEASE  -
|  1> ! wB97X-D3 SP def2-SVP
|  2> %pal
|  3> nprocs 16
|  4> end
|  5>
|  6> * xyz 0 1
|  7> S 	 -95.113 	 46.4075 	 122.586
|  8> C 	 -94.3009 	 46.8803 	 124.125
|  9> C 	 -95.0377 	 47.8509 	 124.741
| 10> C 	 -96.1539 	 48.3108 	 123.913
| 11> C 	 -96.37 	 47.6257 	 122.772
| 12> H 	 -96.9037 	 48.951 	 124.375
| 13> C 	 -94.8398 	 48.3678 	 126.135
| 14> H 	 -95.5572 	 49.1411 	 126.269
| 15> H 	 -93.9051 	 48.9313 	 126.263
| 16> C 	 -94.9606 	 47.3931 	 127.296
| 17> H 	 -94.0567 	 46.688 	 127.163
| 18> H 	 -94.7177 	 47.9103 	 128.251
| 19> C 	 -96.2939 	 46.6133 	 127.467
| 20> H 	 -96.451 	 45.8783 	 126.68
| 21> H 	 -96.2101 	 46.0862 	 128.389
| 22> H 	 -97.1972 	 47.233 	 127.52
| 23> S 	 -97.8253 	 49.4394 	 121.275
| 24> C 	 -98.8467 	 48.8327 	 119.939
| 25> C 	 -98.9168 	 47.4734 	 119.977
| 26> C 	 -98.2489 	 46.8806 	 121.083
| 27> C 	 -97.4106 	 47.7911 	 121.72
| 28> H 	 -99.523 	 46.9791 	 119.2
| 29> C 	 -98.3016 	 45.3626 	 121.377
| 30> H 	 -97.5837 	 45.1866 	 122.146
| 31> H 	 -97.8217 	 44.9161 	 120.548
| 32> C 	 -99.5309 	 44.6344 	 121.676
| 33> H 	 -100.156 	 44.5928 	 120.829
| 34> H 	 -100.126 	 45.1099 	 122.477
| 35> C 	 -99.2507 	 43.1924 	 122.193
| 36> H 	 -98.4204 	 43.0136 	 122.88
| 37> H 	 -99.0545 	 42.4377 	 121.464
| 38> H 	 -100.043 	 42.8344 	 122.822
| 39> H 	 -93.369 	 46.4921 	 124.587
| 40> H 	 -99.2531 	 49.4064 	 119.094
| 41> *
| 42>
| 43>                          ****END OF INPUT****

CARTESIAN COORDINATES (ANGSTROEM)
---------------------------------
  S    -95.113000   46.407500  122.586000
  C    -94.300900   46.880300  124.125000
  C    -95.037700   47.850900  124.741000
  C    -96.153900   48.310800  123.913000
  C    -96.370000   47.625700  122.772000
  H    -96.903700   48.951000  124.375000
  C    -94.839800   48.367800  126.135000
  H    -95.557200   49.141100  126.269000
  H    -93.905100   48.931300  126.263000
  C    -94.960600   47.393100  127.296000
  H    -94.056700   46.688000  127.163000
  H    -94.717700   47.910300  128.251000
  C    -96.293900   46.613300  127.467000
  H    -96.451000   45.878300  126.680000
  H    -96.210100   46.086200  128.389000
  H    -97.197200   47.233000  127.520000
  S    -97.825300   49.439400  121.275000
  C    -98.846700   48.832700  119.939000
  C    -98.916800   47.473400  119.977000
  C    -98.248900   46.880600  121.083000
  C    -97.410600   47.791100  121.720000
  H    -99.523000   46.979100  119.200000
  C    -98.301600   45.362600  121.377000
  H    -97.583700   45.186600  122.146000
  H    -97.821700   44.916100  120.548000
  C    -99.530900   44.634400  121.676000
  H    -100.156000   44.592800  120.829000
  H    -100.126000   45.109900  122.477000
  C    -99.250700   43.192400  122.193000
  H    -98.420400   43.013600  122.880000
  H    -99.054500   42.437700  121.464000
  H    -100.043000   42.834400  122.822000
  H    -93.369000   46.492100  124.587000
  H    -99.253100   49.406400  119.094000

 Total Charge           Charge          ....    0
 Multiplicity           Mult            ....    1
 Number of Electrons    NEL             ....  134
 Basis Dimension        Dim             ....  322

ORBITAL ENERGIES
----------------

  NO   OCC          E(Eh)            E(eV)
   0   2.0000     -88.966136     -2420.8916
   1   2.0000     -88.965771     -2420.8817
   2   2.0000     -10.334339      -281.2117
   3   2.0000     -10.333058      -281.1768
   4   2.0000     -10.319396      -280.8050
   5   2.0000     -10.318873      -280.7908
   6   2.0000     -10.307126      -280.4712
   7   2.0000     -10.300669      -280.2954
   8   2.0000     -10.297434      -280.2074
   9   2.0000     -10.294409      -280.1251
  10   2.0000     -10.292638      -280.0769
  11   2.0000     -10.287590      -279.9396
  12   2.0000     -10.283904      -279.8393
  13   2.0000     -10.279484      -279.7190
  14   2.0000     -10.276803      -279.6460
  15   2.0000     -10.273318      -279.5512
  16   2.0000      -8.080153      -219.8722
  17   2.0000      -8.079234      -219.8471
  18   2.0000      -6.038776      -164.3234
  19   2.0000      -6.038110      -164.3053
  20   2.0000      -6.034895      -164.2178
  21   2.0000      -6.033827      -164.1888
  22   2.0000      -6.030689      -164.1034
  23   2.0000      -6.029741      -164.0776
  24   2.0000      -1.003766       -27.3139
  25   2.0000      -0.981940       -26.7199
  26   2.0000      -0.914075       -24.8732
  27   2.0000      -0.910789       -24.7838
  28   2.0000      -0.866871       -23.5888
  29   2.0000      -0.849043       -23.1036
  30   2.0000      -0.838957       -22.8292
  31   2.0000      -0.817420       -22.2431
  32   2.0000      -0.788347       -21.4520
  33   2.0000      -0.778491       -21.1838
  34   2.0000      -0.711434       -19.3591
  35   2.0000      -0.701963       -19.1014
  36   2.0000      -0.698577       -19.0093
  37   2.0000      -0.656641       -17.8681
  38   2.0000      -0.630131       -17.1467
  39   2.0000      -0.613104       -16.6834
  40   2.0000      -0.595564       -16.2061
  41   2.0000      -0.573806       -15.6141
  42   2.0000      -0.569962       -15.5095
  43   2.0000      -0.548455       -14.9242
  44   2.0000      -0.541656       -14.7392
  45   2.0000      -0.523600       -14.2479
  46   2.0000      -0.516081       -14.0433
  47   2.0000      -0.512354       -13.9419
  48   2.0000      -0.507103       -13.7990
  49   2.0000      -0.497036       -13.5250
  50   2.0000      -0.493181       -13.4201
  51   2.0000      -0.476640       -12.9700
  52   2.0000      -0.468934       -12.7604
  53   2.0000      -0.464285       -12.6338
  54   2.0000      -0.462196       -12.5770
  55   2.0000      -0.444341       -12.0911
  56   2.0000      -0.442325       -12.0363
  57   2.0000      -0.436407       -11.8752
  58   2.0000      -0.431343       -11.7374
  59   2.0000      -0.423445       -11.5225
  60   2.0000      -0.421534       -11.4705
  61   2.0000      -0.414747       -11.2858
  62   2.0000      -0.407731       -11.0949
  63   2.0000      -0.353129        -9.6091
  64   2.0000      -0.331547        -9.0218
  65   2.0000      -0.327407        -8.9092
  66   2.0000      -0.294279        -8.0077
  67   0.0000       0.027419         0.7461
  68   0.0000       0.069522         1.8918
  69   0.0000       0.101333         2.7574
  70   0.0000       0.116958         3.1826
  71   0.0000       0.131124         3.5681

MULLIKEN ATOMIC CHARGES
-----------------------
   0 S :    0.092039
   1 C :   -0.133367
   2 C :   -0.112722
   3 C :    0.015424
   4 C :   -0.123358
   5 H :    0.020662
   6 C :    0.090902
   7 H :   -0.002995
   8 H :    0.036275
   9 C :   -0.112677
  10 H :    0.028137
  11 H :    0.033419
  12 C :   -0.031399
  13 H :    0.042862
  14 H :    0.028202
  15 H :    0.033340
  16 S :    0.102958
  17 C :   -0.098554
  18 C :   -0.038964
  19 C :   -0.036813
  20 C :   -0.138977
  21 H :    0.030921
  22 C :    0.097611
  23 H :   -0.006642
  24 H :    0.018872
  25 C :   -0.019640
  26 H :    0.017901
  27 H :    0.032475
  28 C :   -0.061376
  29 H :    0.021717
  30 H :    0.024984
  31 H :    0.022659
  32 H :    0.060136
  33 H :    0.065988
Sum of atomic charges:    0.0000000

LOEWDIN ATOMIC CHARGES
----------------------
   0 S :    0.384598
   1 C :   -0.186855
   2 C :   -0.063115
   3 C :   -0.076511
   4 C :   -0.179548
   5 H :    0.031589
   6 C :   -0.041205
   7 H :    0.021783
   8 H :    0.038385
   9 C :   -0.044236
  10 H :    0.026975
  11 H :    0.027453
  12 C :   -0.065386
  13 H :    0.028417
  14 H :    0.025057
  15 H :    0.026890
  16 S :    0.389078
  17 C :   -0.177675
  18 C :   -0.073979
  19 C :   -0.052384
  20 C :   -0.190178
  21 H :    0.037635
  22 C :   -0.036452
  23 H :    0.016932
  24 H :    0.030301
  25 C :   -0.032243
  26 H :    0.018987
  27 H :    0.031171
  28 C :   -0.068245
  29 H :    0.028319
  30 H :    0.020863
  31 H :    0.026004
  32 H :    0.040015
  33 H :    0.037558

  Mayer bond orders larger than 0.100000
B(  0-S ,  1-C ) :   1.1085 B(  0-S ,  4-C ) :   1.1289 B(  1-C ,  2-C ) :   1.6541
B(  1-C , 32-H ) :   0.9645 B(  2-C ,  3-C ) :   1.2212 B(  2-C ,  6-C ) :   1.0207
B(  3-C ,  4-C ) :   1.6251 B(  3-C ,  5-H ) :   0.9827 B(  4-C , 20-C ) :   1.0129
B(  6-C ,  7-H ) :   0.9344 B(  6-C ,  8-H ) :   0.9321 B(  6-C ,  9-C ) :   1.0809
B(  9-C , 10-H ) :   0.9537 B(  9-C , 11-H ) :   0.9553 B(  9-C , 12-C ) :   1.0688
B( 12-C , 13-H ) :   0.9746 B( 12-C , 14-H ) :   0.9735 B( 12-C , 15-H ) :   0.9762
B( 16-S , 17-C ) :   1.1297 B( 16-S , 20-C ) :   1.1364 B( 17-C , 18-C ) :   1.6537
B( 17-C , 33-H ) :   0.9619 B( 18-C , 19-C ) :   1.2107 B( 18-C , 21-H ) :   0.9842
B( 19-C , 20-C ) :   1.5992 B( 19-C , 22-C ) :   1.0307 B( 22-C , 23-H ) :   0.9226
B( 22-C , 24-H ) :   0.9292 B( 22-C , 25-C ) :   1.0815 B( 25-C , 26-H ) :   0.9494
B( 25-C , 27-H ) :   0.9555 B( 25-C , 28-C ) :   1.0742 B( 28-C , 29-H ) :   0.9743
B( 28-C , 30-H ) :   0.9771 B( 28-C , 31-H ) :   0.9765

Dispersion correction           -0.014034902
FINAL SINGLE POINT ENERGY     -1339.868836304284

DIPOLE MOMENT
-------------
                                X             Y             Z
Electronic contribution:      5.51256      15.50266     -17.15434
Nuclear contribution   :     -5.73013     -15.76505      17.48196
                        -----------------------------------------
Total Dipole Moment    :     -0.21757      -0.26239       0.32762
                        -----------------------------------------
Magnitude (a.u.)       :      0.47277
Magnitude (Debye)      :      1.20170

Rotational constants in cm-1:     0.017781     0.008548     0.006878
Rotational constants in MHz :   533.069059   256.263649   206.195531

                             ****ORCA TERMINATED NORMALLY****
TOTAL RUN TIME: 0 days 0 hours 0 minutes 33 seconds 389 msec
