                         Program Version 4.2.1 -  RELEASE  -
|  1> ! wB97X-D3 SP def2-SVP
|  2> %pal
|  3> nprocs 16
|  4> end
|  5>
|  6> * xyz 0 1
|  7> S 	 -60.1018 	 50.6372 	 135.926
|  8> C 	 -58.6132 	 49.6544 	 135.472
|  9> C 	 -58.3309 	 48.8545 	 136.546
| 10> C 	 -59.3482 	 48.7956 	 137.571
| 11> C 	 -60.4519 	 49.5825 	 137.283
| 12> H 	 -59.3862 	 48.3038 	 138.516
| 13> C 	 -57.0429 	 48.0808 	 136.659
| 14> H 	 -56.4451 	 48.0147 	 135.714
| 15> H 	 -57.2294 	 47.0838 	 137.016
| 16> C 	 -56.0209 	 48.6904 	 137.625
| 17> H 	 -56.6431 	 48.7662 	 138.549
| 18> H 	 -55.1039 	 48.1378 	 137.777
| 19> C 	 -55.7102 	 50.1286 	 137.34
| 20> H 	 -55.1067 	 50.5833 	 138.15
| 21> H 	 -55.047 	 50.0864 	 136.462
| 22> H 	 -56.5133 	 50.7266 	 136.983
| 23> S 	 -62.3701 	 48.3214 	 138.811
| 24> C 	 -63.3482 	 49.1563 	 139.96
| 25> C 	 -63.0171 	 50.4751 	 139.943
| 26> C 	 -62.0942 	 50.8008 	 138.902
| 27> C 	 -61.5247 	 49.7366 	 138.252
| 28> H 	 -63.4775 	 51.1473 	 140.632
| 29> C 	 -61.5958 	 52.2809 	 138.822
| 30> H 	 -60.5639 	 52.3133 	 138.447
| 31> H 	 -61.4665 	 52.6164 	 139.783
| 32> C 	 -62.4827 	 53.2893 	 138.023
| 33> H 	 -63.3573 	 53.5913 	 138.625
| 34> H 	 -62.9278 	 52.7275 	 137.188
| 35> C 	 -61.7345 	 54.4884 	 137.454
| 36> H 	 -60.8987 	 54.1033 	 136.853
| 37> H 	 -61.2865 	 55.1672 	 138.194
| 38> H 	 -62.422 	 55.1005 	 136.848
| 39> H 	 -57.9314 	 49.8387 	 134.634
| 40> H 	 -64.0197 	 48.6647 	 140.614
| 41> *
| 42>
| 43>                          ****END OF INPUT****

CARTESIAN COORDINATES (ANGSTROEM)
---------------------------------
  S    -60.101800   50.637200  135.926000
  C    -58.613200   49.654400  135.472000
  C    -58.330900   48.854500  136.546000
  C    -59.348200   48.795600  137.571000
  C    -60.451900   49.582500  137.283000
  H    -59.386200   48.303800  138.516000
  C    -57.042900   48.080800  136.659000
  H    -56.445100   48.014700  135.714000
  H    -57.229400   47.083800  137.016000
  C    -56.020900   48.690400  137.625000
  H    -56.643100   48.766200  138.549000
  H    -55.103900   48.137800  137.777000
  C    -55.710200   50.128600  137.340000
  H    -55.106700   50.583300  138.150000
  H    -55.047000   50.086400  136.462000
  H    -56.513300   50.726600  136.983000
  S    -62.370100   48.321400  138.811000
  C    -63.348200   49.156300  139.960000
  C    -63.017100   50.475100  139.943000
  C    -62.094200   50.800800  138.902000
  C    -61.524700   49.736600  138.252000
  H    -63.477500   51.147300  140.632000
  C    -61.595800   52.280900  138.822000
  H    -60.563900   52.313300  138.447000
  H    -61.466500   52.616400  139.783000
  C    -62.482700   53.289300  138.023000
  H    -63.357300   53.591300  138.625000
  H    -62.927800   52.727500  137.188000
  C    -61.734500   54.488400  137.454000
  H    -60.898700   54.103300  136.853000
  H    -61.286500   55.167200  138.194000
  H    -62.422000   55.100500  136.848000
  H    -57.931400   49.838700  134.634000
  H    -64.019700   48.664700  140.614000

 Total Charge           Charge          ....    0
 Multiplicity           Mult            ....    1
 Number of Electrons    NEL             ....  134
 Basis Dimension        Dim             ....  322

ORBITAL ENERGIES
----------------

  NO   OCC          E(Eh)            E(eV)
   0   2.0000     -88.970461     -2421.0093
   1   2.0000     -88.963322     -2420.8151
   2   2.0000     -10.337283      -281.2918
   3   2.0000     -10.329068      -281.0682
   4   2.0000     -10.326662      -281.0027
   5   2.0000     -10.314743      -280.6784
   6   2.0000     -10.310003      -280.5494
   7   2.0000     -10.303924      -280.3840
   8   2.0000     -10.298738      -280.2429
   9   2.0000     -10.293000      -280.0868
  10   2.0000     -10.291846      -280.0554
  11   2.0000     -10.285241      -279.8756
  12   2.0000     -10.284328      -279.8508
  13   2.0000     -10.284196      -279.8472
  14   2.0000     -10.278009      -279.6788
  15   2.0000     -10.270328      -279.4698
  16   2.0000      -8.083478      -219.9626
  17   2.0000      -8.078931      -219.8389
  18   2.0000      -6.042266      -164.4184
  19   2.0000      -6.038390      -164.3129
  20   2.0000      -6.037469      -164.2879
  21   2.0000      -6.033850      -164.1894
  22   2.0000      -6.033091      -164.1688
  23   2.0000      -6.029806      -164.0794
  24   2.0000      -1.012646       -27.5555
  25   2.0000      -0.987347       -26.8671
  26   2.0000      -0.919489       -25.0206
  27   2.0000      -0.900387       -24.5008
  28   2.0000      -0.876900       -23.8617
  29   2.0000      -0.849094       -23.1050
  30   2.0000      -0.843305       -22.9475
  31   2.0000      -0.819537       -22.3007
  32   2.0000      -0.784398       -21.3445
  33   2.0000      -0.774978       -21.0882
  34   2.0000      -0.711506       -19.3611
  35   2.0000      -0.694549       -18.8997
  36   2.0000      -0.689737       -18.7687
  37   2.0000      -0.669447       -18.2166
  38   2.0000      -0.639224       -17.3942
  39   2.0000      -0.619628       -16.8609
  40   2.0000      -0.598882       -16.2964
  41   2.0000      -0.578851       -15.7513
  42   2.0000      -0.559145       -15.2151
  43   2.0000      -0.557314       -15.1653
  44   2.0000      -0.550729       -14.9861
  45   2.0000      -0.523779       -14.2528
  46   2.0000      -0.522958       -14.2304
  47   2.0000      -0.516196       -14.0464
  48   2.0000      -0.509622       -13.8675
  49   2.0000      -0.502818       -13.6824
  50   2.0000      -0.488824       -13.3016
  51   2.0000      -0.477163       -12.9843
  52   2.0000      -0.473353       -12.8806
  53   2.0000      -0.468841       -12.7578
  54   2.0000      -0.460824       -12.5397
  55   2.0000      -0.451148       -12.2764
  56   2.0000      -0.440728       -11.9928
  57   2.0000      -0.436371       -11.8743
  58   2.0000      -0.432513       -11.7693
  59   2.0000      -0.421748       -11.4763
  60   2.0000      -0.415146       -11.2967
  61   2.0000      -0.408558       -11.1174
  62   2.0000      -0.397000       -10.8029
  63   2.0000      -0.355630        -9.6772
  64   2.0000      -0.332756        -9.0548
  65   2.0000      -0.329554        -8.9676
  66   2.0000      -0.299344        -8.1456
  67   0.0000       0.024209         0.6588
  68   0.0000       0.070830         1.9274
  69   0.0000       0.093072         2.5326
  70   0.0000       0.124837         3.3970
  71   0.0000       0.129021         3.5108

MULLIKEN ATOMIC CHARGES
-----------------------
   0 S :    0.090350
   1 C :   -0.119852
   2 C :   -0.067481
   3 C :    0.011703
   4 C :   -0.097233
   5 H :    0.018703
   6 C :    0.069013
   7 H :    0.021607
   8 H :    0.030036
   9 C :   -0.085746
  10 H :    0.020789
  11 H :    0.041667
  12 C :   -0.053364
  13 H :    0.044027
  14 H :    0.003481
  15 H :    0.037682
  16 S :    0.094315
  17 C :   -0.072836
  18 C :   -0.019722
  19 C :   -0.043317
  20 C :   -0.165500
  21 H :    0.014327
  22 C :    0.062654
  23 H :    0.015787
  24 H :    0.002415
  25 C :   -0.068604
  26 H :    0.026487
  27 H :    0.030054
  28 C :   -0.059872
  29 H :    0.035961
  30 H :    0.031449
  31 H :    0.039201
  32 H :    0.062995
  33 H :    0.048825
Sum of atomic charges:    0.0000000

LOEWDIN ATOMIC CHARGES
----------------------
   0 S :    0.369558
   1 C :   -0.168184
   2 C :   -0.057576
   3 C :   -0.058709
   4 C :   -0.180638
   5 H :    0.028661
   6 C :   -0.031297
   7 H :    0.029371
   8 H :    0.029200
   9 C :   -0.043902
  10 H :    0.022681
  11 H :    0.026109
  12 C :   -0.069800
  13 H :    0.031486
  14 H :    0.019659
  15 H :    0.020854
  16 S :    0.420947
  17 C :   -0.181065
  18 C :   -0.069356
  19 C :   -0.058989
  20 C :   -0.198811
  21 H :    0.029626
  22 C :   -0.029088
  23 H :    0.024861
  24 H :    0.016619
  25 C :   -0.044564
  26 H :    0.022252
  27 H :    0.025594
  28 C :   -0.068515
  29 H :    0.026712
  30 H :    0.023817
  31 H :    0.029578
  32 H :    0.037760
  33 H :    0.025149

  Mayer bond orders larger than 0.100000
B(  0-S ,  1-C ) :   1.0929 B(  0-S ,  4-C ) :   1.1349 B(  1-C ,  2-C ) :   1.6339
B(  1-C , 32-H ) :   0.9692 B(  2-C ,  3-C ) :   1.1915 B(  2-C ,  6-C ) :   1.0358
B(  3-C ,  4-C ) :   1.5754 B(  3-C ,  5-H ) :   0.9981 B(  4-C , 20-C ) :   1.0373
B(  6-C ,  7-H ) :   0.9469 B(  6-C ,  8-H ) :   0.9404 B(  6-C ,  9-C ) :   1.0622
B(  9-C , 10-H ) :   0.9554 B(  9-C , 11-H ) :   0.9597 B(  9-C , 12-C ) :   1.0760
B( 12-C , 13-H ) :   0.9724 B( 12-C , 14-H ) :   0.9711 B( 12-C , 15-H ) :   0.9711
B( 16-S , 17-C ) :   1.1636 B( 16-S , 20-C ) :   1.1425 B( 17-C , 18-C ) :   1.5861
B( 17-C , 33-H ) :   0.9755 B( 18-C , 19-C ) :   1.2468 B( 18-C , 21-H ) :   0.9996
B( 19-C , 20-C ) :   1.5926 B( 19-C , 22-C ) :   1.0346 B( 22-C , 23-H ) :   0.9466
B( 22-C , 24-H ) :   0.9373 B( 22-C , 25-C ) :   1.0429 B( 25-C , 26-H ) :   0.9540
B( 25-C , 27-H ) :   0.9598 B( 25-C , 28-C ) :   1.0868 B( 28-C , 29-H ) :   0.9736
B( 28-C , 30-H ) :   0.9756 B( 28-C , 31-H ) :   0.9736

Dispersion correction           -0.014708323
FINAL SINGLE POINT ENERGY     -1339.868974474792

DIPOLE MOMENT
-------------
                                X             Y             Z
Electronic contribution:    -14.95150     -13.65920      -1.47496
Nuclear contribution   :     15.31506      13.80739       1.86730
                        -----------------------------------------
Total Dipole Moment    :      0.36356       0.14819       0.39235
                        -----------------------------------------
Magnitude (a.u.)       :      0.55504
Magnitude (Debye)      :      1.41080

Rotational constants in cm-1:     0.018385     0.008956     0.007042
Rotational constants in MHz :   551.180837   268.504159   211.098945

                             ****ORCA TERMINATED NORMALLY****
TOTAL RUN TIME: 0 days 0 hours 0 minutes 34 seconds 978 msec
