                         Program Version 4.2.1 -  RELEASE  -
|  1> ! wB97X-D3 SP def2-SVP
|  2> %pal
|  3> nprocs 16
|  4> end
|  5>
|  6> * xyz 0 1
|  7> S 	 -3.52382 	 -19.3659 	 84.0436
|  8> C 	 -3.47439 	 -18.0726 	 82.9013
|  9> C 	 -2.14424 	 -17.8666 	 82.5174
| 10> C 	 -1.18252 	 -18.514 	 83.3307
| 11> C 	 -1.73345 	 -19.3874 	 84.2495
| 12> H 	 -0.120454 	 -18.325 	 83.3484
| 13> C 	 -1.76753 	 -16.8512 	 81.4949
| 14> H 	 -0.677253 	 -16.9284 	 81.3443
| 15> H 	 -1.88219 	 -15.7805 	 81.7829
| 16> C 	 -2.39505 	 -16.9887 	 80.1266
| 17> H 	 -2.16928 	 -18.0401 	 79.7667
| 18> H 	 -3.50818 	 -16.849 	 80.3422
| 19> C 	 -1.84639 	 -15.9455 	 79.1156
| 20> H 	 -0.753341 	 -16.1783 	 78.9284
| 21> H 	 -2.3952 	 -15.9272 	 78.1493
| 22> H 	 -2.01323 	 -14.96 	 79.4809
| 23> S 	 -1.89943 	 -20.4234 	 86.7729
| 24> C 	 -0.474911 	 -21.0536 	 87.5639
| 25> C 	 0.538629 	 -21.2139 	 86.6703
| 26> C 	 0.258668 	 -20.7237 	 85.33
| 27> C 	 -0.995633 	 -20.1014 	 85.306
| 28> H 	 1.40558 	 -21.7518 	 87.006
| 29> C 	 1.32433 	 -20.8954 	 84.1592
| 30> H 	 2.24853 	 -21.2726 	 84.6311
| 31> H 	 1.52348 	 -19.9032 	 83.7742
| 32> C 	 0.882337 	 -21.8725 	 83.0367
| 33> H 	 -0.00114528 	 -21.4585 	 82.4804
| 34> H 	 0.512983 	 -22.7915 	 83.53
| 35> C 	 2.14599 	 -22.2731 	 82.2678
| 36> H 	 2.76383 	 -21.4409 	 81.7915
| 37> H 	 1.8664 	 -22.9587 	 81.4772
| 38> H 	 2.81532 	 -22.8404 	 82.8669
| 39> H 	 -4.33262 	 -17.6266 	 82.5531
| 40> H 	 -0.406713 	 -21.4807 	 88.5898
| 41> *
| 42>
| 43>                          ****END OF INPUT****

CARTESIAN COORDINATES (ANGSTROEM)
---------------------------------
  S     -3.523820  -19.365900   84.043600
  C     -3.474390  -18.072600   82.901300
  C     -2.144240  -17.866600   82.517400
  C     -1.182520  -18.514000   83.330700
  C     -1.733450  -19.387400   84.249500
  H     -0.120454  -18.325000   83.348400
  C     -1.767530  -16.851200   81.494900
  H     -0.677253  -16.928400   81.344300
  H     -1.882190  -15.780500   81.782900
  C     -2.395050  -16.988700   80.126600
  H     -2.169280  -18.040100   79.766700
  H     -3.508180  -16.849000   80.342200
  C     -1.846390  -15.945500   79.115600
  H     -0.753341  -16.178300   78.928400
  H     -2.395200  -15.927200   78.149300
  H     -2.013230  -14.960000   79.480900
  S     -1.899430  -20.423400   86.772900
  C     -0.474911  -21.053600   87.563900
  C      0.538629  -21.213900   86.670300
  C      0.258668  -20.723700   85.330000
  C     -0.995633  -20.101400   85.306000
  H      1.405580  -21.751800   87.006000
  C      1.324330  -20.895400   84.159200
  H      2.248530  -21.272600   84.631100
  H      1.523480  -19.903200   83.774200
  C      0.882337  -21.872500   83.036700
  H     -0.001145  -21.458500   82.480400
  H      0.512983  -22.791500   83.530000
  C      2.145990  -22.273100   82.267800
  H      2.763830  -21.440900   81.791500
  H      1.866400  -22.958700   81.477200
  H      2.815320  -22.840400   82.866900
  H     -4.332620  -17.626600   82.553100
  H     -0.406713  -21.480700   88.589800

 Total Charge           Charge          ....    0
 Multiplicity           Mult            ....    1
 Number of Electrons    NEL             ....  134
 Basis Dimension        Dim             ....  322

ORBITAL ENERGIES
----------------

  NO   OCC          E(Eh)            E(eV)
   0   2.0000     -88.966358     -2420.8977
   1   2.0000     -88.964354     -2420.8431
   2   2.0000     -10.334872      -281.2262
   3   2.0000     -10.332296      -281.1561
   4   2.0000     -10.317312      -280.7483
   5   2.0000     -10.312336      -280.6129
   6   2.0000     -10.311843      -280.5995
   7   2.0000     -10.301245      -280.3111
   8   2.0000     -10.301174      -280.3092
   9   2.0000     -10.294660      -280.1319
  10   2.0000     -10.294359      -280.1237
  11   2.0000     -10.293151      -280.0909
  12   2.0000     -10.292826      -280.0820
  13   2.0000     -10.287268      -279.9308
  14   2.0000     -10.285420      -279.8805
  15   2.0000     -10.281200      -279.7657
  16   2.0000      -8.080613      -219.8847
  17   2.0000      -8.079301      -219.8490
  18   2.0000      -6.039187      -164.3346
  19   2.0000      -6.037924      -164.3003
  20   2.0000      -6.035081      -164.2229
  21   2.0000      -6.033871      -164.1900
  22   2.0000      -6.031449      -164.1241
  23   2.0000      -6.029826      -164.0799
  24   2.0000      -1.004332       -27.3293
  25   2.0000      -0.984118       -26.7792
  26   2.0000      -0.911450       -24.8018
  27   2.0000      -0.903825       -24.5943
  28   2.0000      -0.869916       -23.6716
  29   2.0000      -0.851980       -23.1835
  30   2.0000      -0.843012       -22.9395
  31   2.0000      -0.816149       -22.2085
  32   2.0000      -0.778315       -21.1790
  33   2.0000      -0.767644       -20.8887
  34   2.0000      -0.708763       -19.2864
  35   2.0000      -0.696926       -18.9643
  36   2.0000      -0.687643       -18.7117
  37   2.0000      -0.662320       -18.0227
  38   2.0000      -0.644352       -17.5337
  39   2.0000      -0.616833       -16.7849
  40   2.0000      -0.590037       -16.0557
  41   2.0000      -0.571146       -15.5417
  42   2.0000      -0.566640       -15.4191
  43   2.0000      -0.561224       -15.2717
  44   2.0000      -0.524985       -14.2856
  45   2.0000      -0.522474       -14.2172
  46   2.0000      -0.513845       -13.9824
  47   2.0000      -0.509267       -13.8579
  48   2.0000      -0.505354       -13.7514
  49   2.0000      -0.501375       -13.6431
  50   2.0000      -0.487000       -13.2519
  51   2.0000      -0.485163       -13.2020
  52   2.0000      -0.475372       -12.9355
  53   2.0000      -0.464203       -12.6316
  54   2.0000      -0.458271       -12.4702
  55   2.0000      -0.451764       -12.2931
  56   2.0000      -0.444825       -12.1043
  57   2.0000      -0.435777       -11.8581
  58   2.0000      -0.426376       -11.6023
  59   2.0000      -0.424847       -11.5607
  60   2.0000      -0.421551       -11.4710
  61   2.0000      -0.413213       -11.2441
  62   2.0000      -0.407981       -11.1017
  63   2.0000      -0.358419        -9.7531
  64   2.0000      -0.333242        -9.0680
  65   2.0000      -0.326356        -8.8806
  66   2.0000      -0.285105        -7.7581
  67   0.0000       0.018503         0.5035
  68   0.0000       0.078075         2.1245
  69   0.0000       0.102135         2.7792
  70   0.0000       0.124315         3.3828
  71   0.0000       0.133193         3.6244

MULLIKEN ATOMIC CHARGES
-----------------------
   0 S :    0.100404
   1 C :   -0.098899
   2 C :   -0.037728
   3 C :    0.004704
   4 C :   -0.111708
   5 H :    0.014166
   6 C :    0.029429
   7 H :    0.004609
   8 H :    0.038438
   9 C :   -0.124445
  10 H :    0.043132
  11 H :    0.035537
  12 C :   -0.045659
  13 H :    0.047387
  14 H :    0.040961
  15 H :    0.022270
  16 S :    0.100918
  17 C :   -0.093856
  18 C :   -0.043560
  19 C :   -0.040219
  20 C :   -0.165700
  21 H :    0.013021
  22 C :    0.062095
  23 H :    0.018059
  24 H :    0.031133
  25 C :   -0.079056
  26 H :    0.056400
  27 H :    0.034837
  28 C :   -0.050151
  29 H :    0.040519
  30 H :    0.030895
  31 H :    0.023682
  32 H :    0.028344
  33 H :    0.070039
Sum of atomic charges:    0.0000000

LOEWDIN ATOMIC CHARGES
----------------------
   0 S :    0.392109
   1 C :   -0.182026
   2 C :   -0.063818
   3 C :   -0.062850
   4 C :   -0.176483
   5 H :    0.032868
   6 C :   -0.047870
   7 H :    0.024209
   8 H :    0.033220
   9 C :   -0.048110
  10 H :    0.029690
  11 H :    0.025205
  12 C :   -0.069834
  13 H :    0.034484
  14 H :    0.031572
  15 H :    0.018764
  16 S :    0.402466
  17 C :   -0.193397
  18 C :   -0.076193
  19 C :   -0.053008
  20 C :   -0.194202
  21 H :    0.028748
  22 C :   -0.023735
  23 H :    0.030065
  24 H :    0.024711
  25 C :   -0.042435
  26 H :    0.033514
  27 H :    0.030372
  28 C :   -0.069746
  29 H :    0.031667
  30 H :    0.025854
  31 H :    0.020370
  32 H :    0.012189
  33 H :    0.041631

  Mayer bond orders larger than 0.100000
B(  0-S ,  1-C ) :   1.1481 B(  0-S ,  4-C ) :   1.1405 B(  1-C ,  2-C ) :   1.5540
B(  1-C , 32-H ) :   0.9888 B(  2-C ,  3-C ) :   1.2630 B(  2-C ,  6-C ) :   1.0306
B(  3-C ,  4-C ) :   1.5588 B(  3-C ,  5-H ) :   0.9948 B(  4-C , 20-C ) :   1.0752
B(  6-C ,  7-H ) :   0.9420 B(  6-C ,  8-H ) :   0.9386 B(  6-C ,  9-C ) :   1.0522
B(  9-C , 10-H ) :   0.9590 B(  9-C , 11-H ) :   0.9542 B(  9-C , 12-C ) :   1.0779
B( 12-C , 13-H ) :   0.9736 B( 12-C , 14-H ) :   0.9741 B( 12-C , 15-H ) :   0.9724
B( 16-S , 17-C ) :   1.1391 B( 16-S , 20-C ) :   1.1387 B( 17-C , 18-C ) :   1.6404
B( 17-C , 33-H ) :   0.9598 B( 18-C , 19-C ) :   1.2314 B( 18-C , 21-H ) :   0.9881
B( 19-C , 20-C ) :   1.5818 B( 19-C , 22-C ) :   1.0186 B( 22-C , 23-H ) :   0.9430
B( 22-C , 24-H ) :   0.9386 B( 22-C , 25-C ) :   1.0551 B( 25-C , 26-H ) :   0.9565
B( 25-C , 27-H ) :   0.9538 B( 25-C , 28-C ) :   1.0777 B( 28-C , 29-H ) :   0.9742
B( 28-C , 30-H ) :   0.9732 B( 28-C , 31-H ) :   0.9729

Dispersion correction           -0.013565997
FINAL SINGLE POINT ENERGY     -1339.876291462707

DIPOLE MOMENT
-------------
                                X             Y             Z
Electronic contribution:    -15.60880      -4.62096      25.66039
Nuclear contribution   :     16.15170       4.62751     -25.99819
                        -----------------------------------------
Total Dipole Moment    :      0.54290       0.00655      -0.33780
                        -----------------------------------------
Magnitude (a.u.)       :      0.63945
Magnitude (Debye)      :      1.62535

Rotational constants in cm-1:     0.018454     0.008183     0.006143
Rotational constants in MHz :   553.243492   245.326022   184.157897

                             ****ORCA TERMINATED NORMALLY****
TOTAL RUN TIME: 0 days 0 hours 0 minutes 32 seconds 626 msec
