                         Program Version 4.2.1 -  RELEASE  -
|  1> ! wB97X-D3 SP def2-SVP
|  2> %pal
|  3> nprocs 16
|  4> end
|  5>
|  6> * xyz 0 1
|  7> S 	 -43.9252 	 37.7925 	 79.8554
|  8> C 	 -44.7086 	 37.4105 	 81.3792
|  9> C 	 -44.9274 	 38.5629 	 82.1293
| 10> C 	 -44.3181 	 39.6801 	 81.4927
| 11> C 	 -43.6636 	 39.4212 	 80.2888
| 12> H 	 -44.3178 	 40.6994 	 81.9565
| 13> C 	 -45.399 	 38.5214 	 83.5515
| 14> H 	 -44.9541 	 39.4003 	 84.0698
| 15> H 	 -44.8311 	 37.6337 	 83.9391
| 16> C 	 -46.9393 	 38.5452 	 83.582
| 17> H 	 -47.3381 	 39.3688 	 83.0044
| 18> H 	 -47.3147 	 37.6012 	 83.1696
| 19> C 	 -47.3175 	 38.6102 	 85.04
| 20> H 	 -48.4393 	 38.4494 	 85.1826
| 21> H 	 -46.7867 	 37.7703 	 85.5993
| 22> H 	 -46.9657 	 39.5185 	 85.6282
| 23> S 	 -43.103 	 40.8109 	 77.9502
| 24> C 	 -41.4762 	 41.4673 	 77.8367
| 25> C 	 -40.6745 	 41.1275 	 78.8605
| 26> C 	 -41.3853 	 40.4445 	 79.8669
| 27> C 	 -42.6841 	 40.2315 	 79.523
| 28> H 	 -39.6266 	 41.3933 	 78.8282
| 29> C 	 -40.7877 	 40.0239 	 81.2231
| 30> H 	 -41.568 	 40.1763 	 81.9728
| 31> H 	 -40.0551 	 40.7559 	 81.5297
| 32> C 	 -40.3914 	 38.6279 	 81.3226
| 33> H 	 -41.1322 	 37.8322 	 81.0823
| 34> H 	 -40.2907 	 38.4175 	 82.4263
| 35> C 	 -39.13 	 38.1737 	 80.5673
| 36> H 	 -39.0601 	 38.6119 	 79.576
| 37> H 	 -39.2628 	 37.0244 	 80.5333
| 38> H 	 -38.2467 	 38.436 	 81.1364
| 39> H 	 -45.0772 	 36.4506 	 81.5509
| 40> H 	 -41.0063 	 41.93 	 77.0326
| 41> *
| 42>
| 43>                          ****END OF INPUT****

CARTESIAN COORDINATES (ANGSTROEM)
---------------------------------
  S    -43.925200   37.792500   79.855400
  C    -44.708600   37.410500   81.379200
  C    -44.927400   38.562900   82.129300
  C    -44.318100   39.680100   81.492700
  C    -43.663600   39.421200   80.288800
  H    -44.317800   40.699400   81.956500
  C    -45.399000   38.521400   83.551500
  H    -44.954100   39.400300   84.069800
  H    -44.831100   37.633700   83.939100
  C    -46.939300   38.545200   83.582000
  H    -47.338100   39.368800   83.004400
  H    -47.314700   37.601200   83.169600
  C    -47.317500   38.610200   85.040000
  H    -48.439300   38.449400   85.182600
  H    -46.786700   37.770300   85.599300
  H    -46.965700   39.518500   85.628200
  S    -43.103000   40.810900   77.950200
  C    -41.476200   41.467300   77.836700
  C    -40.674500   41.127500   78.860500
  C    -41.385300   40.444500   79.866900
  C    -42.684100   40.231500   79.523000
  H    -39.626600   41.393300   78.828200
  C    -40.787700   40.023900   81.223100
  H    -41.568000   40.176300   81.972800
  H    -40.055100   40.755900   81.529700
  C    -40.391400   38.627900   81.322600
  H    -41.132200   37.832200   81.082300
  H    -40.290700   38.417500   82.426300
  C    -39.130000   38.173700   80.567300
  H    -39.060100   38.611900   79.576000
  H    -39.262800   37.024400   80.533300
  H    -38.246700   38.436000   81.136400
  H    -45.077200   36.450600   81.550900
  H    -41.006300   41.930000   77.032600

 Total Charge           Charge          ....    0
 Multiplicity           Mult            ....    1
 Number of Electrons    NEL             ....  134
 Basis Dimension        Dim             ....  322

ORBITAL ENERGIES
----------------

  NO   OCC          E(Eh)            E(eV)
   0   2.0000     -88.967517     -2420.9292
   1   2.0000     -88.962999     -2420.8063
   2   2.0000     -10.325675      -280.9759
   3   2.0000     -10.320146      -280.8255
   4   2.0000     -10.309010      -280.5224
   5   2.0000     -10.306289      -280.4484
   6   2.0000     -10.298191      -280.2280
   7   2.0000     -10.297583      -280.2115
   8   2.0000     -10.296359      -280.1782
   9   2.0000     -10.295458      -280.1537
  10   2.0000     -10.290645      -280.0227
  11   2.0000     -10.290277      -280.0127
  12   2.0000     -10.286297      -279.9044
  13   2.0000     -10.283451      -279.8269
  14   2.0000     -10.278936      -279.7041
  15   2.0000     -10.276473      -279.6371
  16   2.0000      -8.082457      -219.9348
  17   2.0000      -8.078210      -219.8193
  18   2.0000      -6.040876      -164.3806
  19   2.0000      -6.037098      -164.2778
  20   2.0000      -6.036489      -164.2612
  21   2.0000      -6.033146      -164.1703
  22   2.0000      -6.032484      -164.1522
  23   2.0000      -6.029344      -164.0668
  24   2.0000      -1.011770       -27.5317
  25   2.0000      -0.989499       -26.9256
  26   2.0000      -0.918251       -24.9869
  27   2.0000      -0.911147       -24.7936
  28   2.0000      -0.870466       -23.6866
  29   2.0000      -0.847691       -23.0669
  30   2.0000      -0.846230       -23.0271
  31   2.0000      -0.815402       -22.1882
  32   2.0000      -0.782974       -21.3058
  33   2.0000      -0.768214       -20.9042
  34   2.0000      -0.704237       -19.1633
  35   2.0000      -0.701302       -19.0834
  36   2.0000      -0.683028       -18.5861
  37   2.0000      -0.660282       -17.9672
  38   2.0000      -0.644045       -17.5254
  39   2.0000      -0.618029       -16.8174
  40   2.0000      -0.596206       -16.2236
  41   2.0000      -0.571198       -15.5431
  42   2.0000      -0.562223       -15.2989
  43   2.0000      -0.549838       -14.9618
  44   2.0000      -0.537038       -14.6136
  45   2.0000      -0.529485       -14.4080
  46   2.0000      -0.521042       -14.1783
  47   2.0000      -0.516416       -14.0524
  48   2.0000      -0.502056       -13.6616
  49   2.0000      -0.492732       -13.4079
  50   2.0000      -0.484891       -13.1946
  51   2.0000      -0.477976       -13.0064
  52   2.0000      -0.474636       -12.9155
  53   2.0000      -0.467996       -12.7348
  54   2.0000      -0.453673       -12.3451
  55   2.0000      -0.449705       -12.2371
  56   2.0000      -0.446499       -12.1499
  57   2.0000      -0.437581       -11.9072
  58   2.0000      -0.434858       -11.8331
  59   2.0000      -0.423289       -11.5183
  60   2.0000      -0.414149       -11.2696
  61   2.0000      -0.409772       -11.1505
  62   2.0000      -0.396004       -10.7758
  63   2.0000      -0.340009        -9.2521
  64   2.0000      -0.328657        -8.9432
  65   2.0000      -0.325771        -8.8647
  66   2.0000      -0.304649        -8.2899
  67   0.0000       0.045690         1.2433
  68   0.0000       0.056739         1.5439
  69   0.0000       0.118327         3.2198
  70   0.0000       0.121075         3.2946
  71   0.0000       0.131359         3.5745

MULLIKEN ATOMIC CHARGES
-----------------------
   0 S :    0.114200
   1 C :   -0.117735
   2 C :   -0.084965
   3 C :    0.026220
   4 C :   -0.165781
   5 H :    0.024241
   6 C :    0.003197
   7 H :    0.027784
   8 H :    0.051795
   9 C :   -0.033661
  10 H :    0.041996
  11 H :    0.033047
  12 C :   -0.087569
  13 H :    0.046284
  14 H :    0.030112
  15 H :    0.042735
  16 S :    0.122847
  17 C :   -0.048053
  18 C :   -0.056531
  19 C :   -0.026394
  20 C :   -0.188078
  21 H :    0.017240
  22 C :    0.150504
  23 H :    0.010928
  24 H :    0.015569
  25 C :   -0.107111
  26 H :    0.032990
  27 H :    0.022709
  28 C :   -0.055384
  29 H :    0.036052
  30 H :    0.043824
  31 H :    0.028503
  32 H :    0.027743
  33 H :    0.020741
Sum of atomic charges:   -0.0000000

LOEWDIN ATOMIC CHARGES
----------------------
   0 S :    0.431024
   1 C :   -0.190356
   2 C :   -0.067578
   3 C :   -0.071958
   4 C :   -0.211358
   5 H :    0.035972
   6 C :   -0.035546
   7 H :    0.031751
   8 H :    0.042808
   9 C :   -0.037107
  10 H :    0.028811
  11 H :    0.029172
  12 C :   -0.083231
  13 H :    0.029344
  14 H :    0.029558
  15 H :    0.029256
  16 S :    0.412073
  17 C :   -0.172224
  18 C :   -0.070916
  19 C :   -0.051132
  20 C :   -0.212415
  21 H :    0.034192
  22 C :   -0.032974
  23 H :    0.035422
  24 H :    0.029108
  25 C :   -0.057365
  26 H :    0.025625
  27 H :    0.028898
  28 C :   -0.068229
  29 H :    0.022471
  30 H :    0.038690
  31 H :    0.019450
  32 H :    0.011542
  33 H :    0.017222

  Mayer bond orders larger than 0.100000
B(  0-S ,  1-C ) :   1.1606 B(  0-S ,  4-C ) :   1.1862 B(  1-C ,  2-C ) :   1.5655
B(  1-C ,  4-C ) :   0.1066 B(  1-C , 32-H ) :   0.9795 B(  2-C ,  3-C ) :   1.2756
B(  2-C ,  6-C ) :   1.0034 B(  3-C ,  4-C ) :   1.5644 B(  3-C ,  5-H ) :   0.9873
B(  4-C , 20-C ) :   0.9759 B(  6-C ,  7-H ) :   0.9523 B(  6-C ,  8-H ) :   0.9493
B(  6-C ,  9-C ) :   1.0457 B(  9-C , 10-H ) :   0.9578 B(  9-C , 11-H ) :   0.9537
B(  9-C , 12-C ) :   1.0810 B( 12-C , 13-H ) :   0.9728 B( 12-C , 14-H ) :   0.9686
B( 12-C , 15-H ) :   0.9738 B( 16-S , 17-C ) :   1.1395 B( 16-S , 20-C ) :   1.1454
B( 17-C , 18-C ) :   1.6531 B( 17-C , 33-H ) :   0.9653 B( 18-C , 19-C ) :   1.2267
B( 18-C , 21-H ) :   0.9905 B( 19-C , 20-C ) :   1.6411 B( 19-C , 22-C ) :   1.0241
B( 22-C , 23-H ) :   0.9176 B( 22-C , 24-H ) :   0.9331 B( 22-C , 25-C ) :   1.0814
B( 25-C , 26-H ) :   0.9580 B( 25-C , 27-H ) :   0.9473 B( 25-C , 28-C ) :   1.0652
B( 28-C , 29-H ) :   0.9771 B( 28-C , 30-H ) :   0.9794 B( 28-C , 31-H ) :   0.9769

Dispersion correction           -0.015138395
FINAL SINGLE POINT ENERGY     -1339.868738764710

DIPOLE MOMENT
-------------
                                X             Y             Z
Electronic contribution:     -1.55749       5.68379     -24.03249
Nuclear contribution   :      1.72157      -5.69226      24.60700
                        -----------------------------------------
Total Dipole Moment    :      0.16408      -0.00847       0.57451
                        -----------------------------------------
Magnitude (a.u.)       :      0.59754
Magnitude (Debye)      :      1.51883

Rotational constants in cm-1:     0.022877     0.007747     0.006856
Rotational constants in MHz :   685.822559   232.260432   205.539860

                             ****ORCA TERMINATED NORMALLY****
TOTAL RUN TIME: 0 days 0 hours 0 minutes 31 seconds 396 msec
