                         Program Version 4.2.1 -  RELEASE  -
|  1> ! wB97X-D3 SP def2-SVP
|  2> %pal
|  3> nprocs 16
|  4> end
|  5>
|  6> * xyz 0 1
|  7> S 	 55.7017 	 4.17954 	 84.2243
|  8> C 	 56.8865 	 4.04738 	 83.0232
|  9> C 	 56.4351 	 3.48472 	 81.8525
| 10> C 	 55.1217 	 2.94995 	 81.9879
| 11> C 	 54.5523 	 3.19908 	 83.2597
| 12> H 	 54.5877 	 2.40595 	 81.2774
| 13> C 	 57.2892 	 3.34066 	 80.6047
| 14> H 	 57.4226 	 2.24347 	 80.5233
| 15> H 	 58.1882 	 3.86876 	 80.972
| 16> C 	 56.7033 	 3.86556 	 79.2962
| 17> H 	 55.6983 	 3.40043 	 79.1553
| 18> H 	 56.7247 	 4.93415 	 79.2473
| 19> C 	 57.479 	 3.35277 	 78.1121
| 20> H 	 57.7645 	 2.32347 	 78.2062
| 21> H 	 56.8417 	 3.55044 	 77.2077
| 22> H 	 58.3549 	 3.9065 	 77.9472
| 23> S 	 51.8097 	 2.84937 	 82.8344
| 24> C 	 50.8241 	 2.11607 	 84.0588
| 25> C 	 51.6022 	 1.92202 	 85.218
| 26> C 	 52.9699 	 2.2389 	 85.0849
| 27> C 	 53.3171 	 2.6929 	 83.8213
| 28> H 	 51.1758 	 1.56116 	 86.1777
| 29> C 	 54.012 	 1.98026 	 86.1448
| 30> H 	 54.2947 	 2.8742 	 86.6398
| 31> H 	 54.9486 	 1.68413 	 85.5587
| 32> C 	 53.7455 	 0.905383 	 87.1799
| 33> H 	 53.1949 	 0.120518 	 86.7142
| 34> H 	 52.9985 	 1.22103 	 87.9549
| 35> C 	 54.9959 	 0.322457 	 87.8608
| 36> H 	 55.7932 	 0.0343756 	 87.0759
| 37> H 	 54.7209 	 -0.602776 	 88.4039
| 38> H 	 55.4519 	 0.965592 	 88.5433
| 39> H 	 57.7722 	 4.59476 	 83.1207
| 40> H 	 49.7537 	 1.92241 	 83.9989
| 41> *
| 42>
| 43>                          ****END OF INPUT****

CARTESIAN COORDINATES (ANGSTROEM)
---------------------------------
  S     55.701700    4.179540   84.224300
  C     56.886500    4.047380   83.023200
  C     56.435100    3.484720   81.852500
  C     55.121700    2.949950   81.987900
  C     54.552300    3.199080   83.259700
  H     54.587700    2.405950   81.277400
  C     57.289200    3.340660   80.604700
  H     57.422600    2.243470   80.523300
  H     58.188200    3.868760   80.972000
  C     56.703300    3.865560   79.296200
  H     55.698300    3.400430   79.155300
  H     56.724700    4.934150   79.247300
  C     57.479000    3.352770   78.112100
  H     57.764500    2.323470   78.206200
  H     56.841700    3.550440   77.207700
  H     58.354900    3.906500   77.947200
  S     51.809700    2.849370   82.834400
  C     50.824100    2.116070   84.058800
  C     51.602200    1.922020   85.218000
  C     52.969900    2.238900   85.084900
  C     53.317100    2.692900   83.821300
  H     51.175800    1.561160   86.177700
  C     54.012000    1.980260   86.144800
  H     54.294700    2.874200   86.639800
  H     54.948600    1.684130   85.558700
  C     53.745500    0.905383   87.179900
  H     53.194900    0.120518   86.714200
  H     52.998500    1.221030   87.954900
  C     54.995900    0.322457   87.860800
  H     55.793200    0.034376   87.075900
  H     54.720900   -0.602776   88.403900
  H     55.451900    0.965592   88.543300
  H     57.772200    4.594760   83.120700
  H     49.753700    1.922410   83.998900

 Total Charge           Charge          ....    0
 Multiplicity           Mult            ....    1
 Number of Electrons    NEL             ....  134
 Basis Dimension        Dim             ....  322

ORBITAL ENERGIES
----------------

  NO   OCC          E(Eh)            E(eV)
   0   2.0000     -88.966152     -2420.8921
   1   2.0000     -88.965212     -2420.8665
   2   2.0000     -10.334580      -281.2182
   3   2.0000     -10.327801      -281.0338
   4   2.0000     -10.321740      -280.8688
   5   2.0000     -10.305813      -280.4354
   6   2.0000     -10.301195      -280.3098
   7   2.0000     -10.297717      -280.2151
   8   2.0000     -10.296552      -280.1834
   9   2.0000     -10.294432      -280.1257
  10   2.0000     -10.294174      -280.1187
  11   2.0000     -10.287456      -279.9359
  12   2.0000     -10.286795      -279.9179
  13   2.0000     -10.284134      -279.8455
  14   2.0000     -10.280935      -279.7585
  15   2.0000     -10.272137      -279.5190
  16   2.0000      -8.081034      -219.8961
  17   2.0000      -8.079144      -219.8447
  18   2.0000      -6.039432      -164.3413
  19   2.0000      -6.037686      -164.2938
  20   2.0000      -6.035419      -164.2321
  21   2.0000      -6.033683      -164.1849
  22   2.0000      -6.032014      -164.1394
  23   2.0000      -6.029998      -164.0846
  24   2.0000      -1.003668       -27.3112
  25   2.0000      -0.983395       -26.7595
  26   2.0000      -0.915721       -24.9180
  27   2.0000      -0.907800       -24.7025
  28   2.0000      -0.871827       -23.7236
  29   2.0000      -0.855348       -23.2752
  30   2.0000      -0.847966       -23.0743
  31   2.0000      -0.812042       -22.0968
  32   2.0000      -0.780656       -21.2427
  33   2.0000      -0.768312       -20.9068
  34   2.0000      -0.708940       -19.2912
  35   2.0000      -0.704567       -19.1722
  36   2.0000      -0.690636       -18.7932
  37   2.0000      -0.659372       -17.9424
  38   2.0000      -0.644942       -17.5498
  39   2.0000      -0.611800       -16.6479
  40   2.0000      -0.597774       -16.2663
  41   2.0000      -0.582947       -15.8628
  42   2.0000      -0.563376       -15.3302
  43   2.0000      -0.559902       -15.2357
  44   2.0000      -0.528070       -14.3695
  45   2.0000      -0.526118       -14.3164
  46   2.0000      -0.517219       -14.0742
  47   2.0000      -0.510376       -13.8880
  48   2.0000      -0.508445       -13.8355
  49   2.0000      -0.503943       -13.7130
  50   2.0000      -0.486297       -13.2328
  51   2.0000      -0.478641       -13.0245
  52   2.0000      -0.470723       -12.8090
  53   2.0000      -0.466864       -12.7040
  54   2.0000      -0.459493       -12.5034
  55   2.0000      -0.447923       -12.1886
  56   2.0000      -0.443997       -12.0818
  57   2.0000      -0.441778       -12.0214
  58   2.0000      -0.430080       -11.7031
  59   2.0000      -0.421243       -11.4626
  60   2.0000      -0.419325       -11.4104
  61   2.0000      -0.414769       -11.2864
  62   2.0000      -0.413251       -11.2451
  63   2.0000      -0.351403        -9.5622
  64   2.0000      -0.331232        -9.0133
  65   2.0000      -0.326965        -8.8972
  66   2.0000      -0.284815        -7.7502
  67   0.0000       0.020436         0.5561
  68   0.0000       0.075930         2.0662
  69   0.0000       0.107698         2.9306
  70   0.0000       0.122228         3.3260
  71   0.0000       0.131210         3.5704

MULLIKEN ATOMIC CHARGES
-----------------------
   0 S :    0.113433
   1 C :   -0.112342
   2 C :   -0.085753
   3 C :    0.050197
   4 C :   -0.169920
   5 H :   -0.010539
   6 C :    0.062590
   7 H :    0.040344
   8 H :    0.018353
   9 C :   -0.068654
  10 H :    0.037528
  11 H :    0.033115
  12 C :   -0.030683
  13 H :    0.024601
  14 H :    0.036311
  15 H :    0.015409
  16 S :    0.099013
  17 C :   -0.090283
  18 C :   -0.061036
  19 C :   -0.033787
  20 C :   -0.145727
  21 H :    0.028621
  22 C :    0.055145
  23 H :    0.031243
  24 H :    0.043774
  25 C :   -0.082492
  26 H :    0.018396
  27 H :    0.029331
  28 C :   -0.049533
  29 H :    0.041373
  30 H :    0.037315
  31 H :    0.026445
  32 H :    0.031401
  33 H :    0.066815
Sum of atomic charges:   -0.0000000

LOEWDIN ATOMIC CHARGES
----------------------
   0 S :    0.424655
   1 C :   -0.209452
   2 C :   -0.066720
   3 C :   -0.048349
   4 C :   -0.181362
   5 H :    0.018837
   6 C :   -0.032721
   7 H :    0.037512
   8 H :    0.032323
   9 C :   -0.038879
  10 H :    0.030968
  11 H :    0.025831
  12 C :   -0.060775
  13 H :    0.020362
  14 H :    0.033341
  15 H :    0.015375
  16 S :    0.394966
  17 C :   -0.192656
  18 C :   -0.079821
  19 C :   -0.059458
  20 C :   -0.186159
  21 H :    0.035283
  22 C :   -0.041958
  23 H :    0.023958
  24 H :    0.039749
  25 C :   -0.048989
  26 H :    0.018820
  27 H :    0.026539
  28 C :   -0.061841
  29 H :    0.035012
  30 H :    0.031199
  31 H :    0.014221
  32 H :    0.015188
  33 H :    0.035002

  Mayer bond orders larger than 0.100000
B(  0-S ,  1-C ) :   1.1624 B(  0-S ,  4-C ) :   1.1492 B(  1-C ,  2-C ) :   1.5934
B(  1-C , 32-H ) :   0.9662 B(  2-C ,  3-C ) :   1.2498 B(  2-C ,  6-C ) :   1.0154
B(  3-C ,  4-C ) :   1.5376 B(  3-C ,  5-H ) :   1.0016 B(  4-C , 20-C ) :   1.0696
B(  6-C ,  7-H ) :   0.9363 B(  6-C ,  8-H ) :   0.9389 B(  6-C ,  9-C ) :   1.0782
B(  9-C , 10-H ) :   0.9553 B(  9-C , 11-H ) :   0.9536 B(  9-C , 12-C ) :   1.0879
B( 12-C , 13-H ) :   0.9737 B( 12-C , 14-H ) :   0.9741 B( 12-C , 15-H ) :   0.9735
B( 16-S , 17-C ) :   1.1707 B( 16-S , 20-C ) :   1.1271 B( 17-C , 18-C ) :   1.5552
B( 17-C , 20-C ) :   0.1099 B( 17-C , 33-H ) :   0.9672 B( 18-C , 19-C ) :   1.2864
B( 18-C , 21-H ) :   0.9797 B( 19-C , 20-C ) :   1.5646 B( 19-C , 22-C ) :   1.0294
B( 22-C , 23-H ) :   0.9204 B( 22-C , 24-H ) :   0.9374 B( 22-C , 25-C ) :   1.0751
B( 25-C , 26-H ) :   0.9570 B( 25-C , 27-H ) :   0.9414 B( 25-C , 28-C ) :   1.0869
B( 28-C , 29-H ) :   0.9733 B( 28-C , 30-H ) :   0.9736 B( 28-C , 31-H ) :   0.9777

Dispersion correction           -0.013398276
FINAL SINGLE POINT ENERGY     -1339.879273372022

DIPOLE MOMENT
-------------
                                X             Y             Z
Electronic contribution:    -13.42256       8.90041       2.62395
Nuclear contribution   :     13.66632      -9.04916      -2.64288
                        -----------------------------------------
Total Dipole Moment    :      0.24376      -0.14875      -0.01893
                        -----------------------------------------
Magnitude (a.u.)       :      0.28619
Magnitude (Debye)      :      0.72743

Rotational constants in cm-1:     0.020750     0.007350     0.005994
Rotational constants in MHz :   622.055550   220.358598   179.707742

                             ****ORCA TERMINATED NORMALLY****
TOTAL RUN TIME: 0 days 0 hours 0 minutes 28 seconds 727 msec
