                         Program Version 4.2.1 -  RELEASE  -
|  1> ! wB97X-D3 SP def2-SVP
|  2> %pal
|  3> nprocs 16
|  4> end
|  5>
|  6> * xyz 0 1
|  7> S 	 9.26561 	 -5.16489 	 64.6998
|  8> C 	 8.90623 	 -3.55238 	 64.0765
|  9> C 	 10.0278 	 -2.84127 	 63.7214
| 10> C 	 11.2324 	 -3.65533 	 63.9172
| 11> C 	 10.9821 	 -4.94222 	 64.3266
| 12> H 	 12.2072 	 -3.38839 	 63.6687
| 13> C 	 10.0599 	 -1.4369 	 63.2902
| 14> H 	 9.47834 	 -1.33138 	 62.4004
| 15> H 	 11.076 	 -1.2474 	 62.9726
| 16> C 	 9.56751 	 -0.4125 	 64.3265
| 17> H 	 9.42158 	 0.504043 	 63.8861
| 18> H 	 8.60428 	 -0.781467 	 64.6998
| 19> C 	 10.444 	 -0.312413 	 65.5988
| 20> H 	 11.5336 	 -0.436433 	 65.3556
| 21> H 	 10.3089 	 0.641248 	 66.204
| 22> H 	 10.2054 	 -1.17972 	 66.288
| 23> S 	 11.625 	 -7.43 	 63.6493
| 24> C 	 13.0838 	 -8.19694 	 64.3747
| 25> C 	 13.6087 	 -7.42758 	 65.3881
| 26> C 	 12.9868 	 -6.12992 	 65.4992
| 27> C 	 11.9213 	 -5.99782 	 64.5877
| 28> H 	 14.3762 	 -7.84464 	 65.9926
| 29> C 	 13.4968 	 -5.08628 	 66.5042
| 30> H 	 13.2182 	 -4.1015 	 66.181
| 31> H 	 14.572 	 -5.10983 	 66.3555
| 32> C 	 12.9642 	 -5.21491 	 67.8801
| 33> H 	 13.218 	 -6.22165 	 68.1784
| 34> H 	 11.9684 	 -5.20792 	 67.8742
| 35> C 	 13.6542 	 -4.13625 	 68.795
| 36> H 	 13.6354 	 -3.19434 	 68.2121
| 37> H 	 14.7112 	 -4.35739 	 69.1096
| 38> H 	 13.113 	 -4.0691 	 69.7277
| 39> H 	 7.91262 	 -3.18515 	 63.9845
| 40> H 	 13.2358 	 -9.22226 	 64.3182
| 41> *
| 42>
| 43>                          ****END OF INPUT****

CARTESIAN COORDINATES (ANGSTROEM)
---------------------------------
  S      9.265610   -5.164890   64.699800
  C      8.906230   -3.552380   64.076500
  C     10.027800   -2.841270   63.721400
  C     11.232400   -3.655330   63.917200
  C     10.982100   -4.942220   64.326600
  H     12.207200   -3.388390   63.668700
  C     10.059900   -1.436900   63.290200
  H      9.478340   -1.331380   62.400400
  H     11.076000   -1.247400   62.972600
  C      9.567510   -0.412500   64.326500
  H      9.421580    0.504043   63.886100
  H      8.604280   -0.781467   64.699800
  C     10.444000   -0.312413   65.598800
  H     11.533600   -0.436433   65.355600
  H     10.308900    0.641248   66.204000
  H     10.205400   -1.179720   66.288000
  S     11.625000   -7.430000   63.649300
  C     13.083800   -8.196940   64.374700
  C     13.608700   -7.427580   65.388100
  C     12.986800   -6.129920   65.499200
  C     11.921300   -5.997820   64.587700
  H     14.376200   -7.844640   65.992600
  C     13.496800   -5.086280   66.504200
  H     13.218200   -4.101500   66.181000
  H     14.572000   -5.109830   66.355500
  C     12.964200   -5.214910   67.880100
  H     13.218000   -6.221650   68.178400
  H     11.968400   -5.207920   67.874200
  C     13.654200   -4.136250   68.795000
  H     13.635400   -3.194340   68.212100
  H     14.711200   -4.357390   69.109600
  H     13.113000   -4.069100   69.727700
  H      7.912620   -3.185150   63.984500
  H     13.235800   -9.222260   64.318200

 Total Charge           Charge          ....    0
 Multiplicity           Mult            ....    1
 Number of Electrons    NEL             ....  134
 Basis Dimension        Dim             ....  322

ORBITAL ENERGIES
----------------

  NO   OCC          E(Eh)            E(eV)
   0   2.0000     -88.964552     -2420.8485
   1   2.0000     -88.963828     -2420.8288
   2   2.0000     -10.326505      -280.9985
   3   2.0000     -10.325803      -280.9794
   4   2.0000     -10.313349      -280.6405
   5   2.0000     -10.311446      -280.5887
   6   2.0000     -10.307691      -280.4865
   7   2.0000     -10.300560      -280.2925
   8   2.0000     -10.295487      -280.1544
   9   2.0000     -10.291700      -280.0514
  10   2.0000     -10.288005      -279.9508
  11   2.0000     -10.287051      -279.9249
  12   2.0000     -10.284929      -279.8671
  13   2.0000     -10.284628      -279.8590
  14   2.0000     -10.284198      -279.8473
  15   2.0000     -10.274048      -279.5711
  16   2.0000      -8.078879      -219.8375
  17   2.0000      -8.078249      -219.8203
  18   2.0000      -6.037473      -164.2880
  19   2.0000      -6.036765      -164.2687
  20   2.0000      -6.033521      -164.1804
  21   2.0000      -6.032839      -164.1619
  22   2.0000      -6.029503      -164.0711
  23   2.0000      -6.028960      -164.0563
  24   2.0000      -1.003214       -27.2988
  25   2.0000      -0.978024       -26.6134
  26   2.0000      -0.917002       -24.9529
  27   2.0000      -0.913723       -24.8637
  28   2.0000      -0.870092       -23.6764
  29   2.0000      -0.846356       -23.0305
  30   2.0000      -0.842277       -22.9195
  31   2.0000      -0.815516       -22.1913
  32   2.0000      -0.780645       -21.2424
  33   2.0000      -0.769248       -20.9323
  34   2.0000      -0.712733       -19.3945
  35   2.0000      -0.707978       -19.2651
  36   2.0000      -0.698467       -19.0062
  37   2.0000      -0.665678       -18.1140
  38   2.0000      -0.645657       -17.5692
  39   2.0000      -0.613574       -16.6962
  40   2.0000      -0.598396       -16.2832
  41   2.0000      -0.577007       -15.7012
  42   2.0000      -0.566823       -15.4240
  43   2.0000      -0.551174       -14.9982
  44   2.0000      -0.538989       -14.6666
  45   2.0000      -0.529024       -14.3955
  46   2.0000      -0.515085       -14.0162
  47   2.0000      -0.511921       -13.9301
  48   2.0000      -0.505975       -13.7683
  49   2.0000      -0.497750       -13.5445
  50   2.0000      -0.487202       -13.2574
  51   2.0000      -0.473671       -12.8892
  52   2.0000      -0.468780       -12.7562
  53   2.0000      -0.461330       -12.5534
  54   2.0000      -0.459738       -12.5101
  55   2.0000      -0.451104       -12.2752
  56   2.0000      -0.446157       -12.1406
  57   2.0000      -0.441197       -12.0056
  58   2.0000      -0.434419       -11.8211
  59   2.0000      -0.428541       -11.6612
  60   2.0000      -0.418346       -11.3838
  61   2.0000      -0.416234       -11.3263
  62   2.0000      -0.415376       -11.3029
  63   2.0000      -0.342959        -9.3324
  64   2.0000      -0.327896        -8.9225
  65   2.0000      -0.327213        -8.9039
  66   2.0000      -0.298317        -8.1176
  67   0.0000       0.031877         0.8674
  68   0.0000       0.062817         1.7093
  69   0.0000       0.111129         3.0240
  70   0.0000       0.114742         3.1223
  71   0.0000       0.123657         3.3649

MULLIKEN ATOMIC CHARGES
-----------------------
   0 S :    0.105760
   1 C :   -0.120756
   2 C :   -0.100262
   3 C :    0.070171
   4 C :   -0.154796
   5 H :   -0.013217
   6 C :    0.093458
   7 H :    0.028002
   8 H :    0.010301
   9 C :   -0.018953
  10 H :    0.014955
  11 H :    0.022940
  12 C :   -0.113787
  13 H :    0.032779
  14 H :    0.051357
  15 H :    0.050198
  16 S :    0.095713
  17 C :   -0.063808
  18 C :   -0.040405
  19 C :   -0.030904
  20 C :   -0.186159
  21 H :    0.015644
  22 C :    0.075849
  23 H :   -0.005470
  24 H :    0.026691
  25 C :    0.010942
  26 H :    0.006648
  27 H :    0.002116
  28 C :   -0.056056
  29 H :    0.036252
  30 H :    0.042021
  31 H :    0.035184
  32 H :    0.037449
  33 H :    0.040146
Sum of atomic charges:   -0.0000000

LOEWDIN ATOMIC CHARGES
----------------------
   0 S :    0.384761
   1 C :   -0.184496
   2 C :   -0.059472
   3 C :   -0.050664
   4 C :   -0.191323
   5 H :    0.019841
   6 C :   -0.031023
   7 H :    0.033950
   8 H :    0.027426
   9 C :   -0.029339
  10 H :    0.011881
  11 H :    0.026056
  12 C :   -0.080336
  13 H :    0.023831
  14 H :    0.033587
  15 H :    0.033562
  16 S :    0.394286
  17 C :   -0.164848
  18 C :   -0.059033
  19 C :   -0.048856
  20 C :   -0.204490
  21 H :    0.029104
  22 C :   -0.029582
  23 H :    0.021470
  24 H :    0.031342
  25 C :   -0.024433
  26 H :    0.021302
  27 H :    0.010441
  28 C :   -0.063105
  29 H :    0.027699
  30 H :    0.032067
  31 H :    0.024162
  32 H :    0.020065
  33 H :    0.014166

  Mayer bond orders larger than 0.100000
B(  0-S ,  1-C ) :   1.1255 B(  0-S ,  4-C ) :   1.1331 B(  1-C ,  2-C ) :   1.6316
B(  1-C , 32-H ) :   0.9719 B(  2-C ,  3-C ) :   1.1993 B(  2-C ,  6-C ) :   1.0306
B(  3-C ,  4-C ) :   1.6191 B(  3-C ,  5-H ) :   1.0016 B(  4-C , 20-C ) :   1.0287
B(  6-C ,  7-H ) :   0.9269 B(  6-C ,  8-H ) :   0.9370 B(  6-C ,  9-C ) :   1.0796
B(  9-C , 10-H ) :   0.9586 B(  9-C , 11-H ) :   0.9580 B(  9-C , 12-C ) :   1.0568
B( 12-C , 13-H ) :   0.9791 B( 12-C , 14-H ) :   0.9759 B( 12-C , 15-H ) :   0.9757
B( 16-S , 17-C ) :   1.1323 B( 16-S , 20-C ) :   1.1542 B( 17-C , 18-C ) :   1.6415
B( 17-C , 20-C ) :   0.1027 B( 17-C , 33-H ) :   0.9696 B( 18-C , 19-C ) :   1.2177
B( 18-C , 21-H ) :   0.9905 B( 19-C , 20-C ) :   1.5949 B( 19-C , 22-C ) :   1.0330
B( 22-C , 23-H ) :   0.9230 B( 22-C , 24-H ) :   0.9378 B( 22-C , 25-C ) :   1.0698
B( 25-C , 26-H ) :   0.9516 B( 25-C , 27-H ) :   0.9501 B( 25-C , 28-C ) :   1.0686
B( 28-C , 29-H ) :   0.9748 B( 28-C , 30-H ) :   0.9769 B( 28-C , 31-H ) :   0.9760

Dispersion correction           -0.014502409
FINAL SINGLE POINT ENERGY     -1339.869065595070

DIPOLE MOMENT
-------------
                                X             Y             Z
Electronic contribution:     -7.85853     -22.96852     -14.89033
Nuclear contribution   :      8.08854      23.40869      15.17190
                        -----------------------------------------
Total Dipole Moment    :      0.23001       0.44017       0.28157
                        -----------------------------------------
Magnitude (a.u.)       :      0.57091
Magnitude (Debye)      :      1.45113

Rotational constants in cm-1:     0.017868     0.009404     0.006955
Rotational constants in MHz :   535.670621   281.914307   208.512397

                             ****ORCA TERMINATED NORMALLY****
TOTAL RUN TIME: 0 days 0 hours 0 minutes 35 seconds 74 msec
