                         Program Version 4.2.1 -  RELEASE  -
|  1> ! wB97X-D3 SP def2-SVP
|  2> %pal
|  3> nprocs 16
|  4> end
|  5>
|  6> * xyz 0 1
|  7> S 	 -106.379 	 42.6927 	 123.762
|  8> C 	 -105.726 	 43.4657 	 125.159
|  9> C 	 -104.874 	 44.5671 	 124.917
| 10> C 	 -104.815 	 44.7576 	 123.529
| 11> C 	 -105.607 	 43.9586 	 122.742
| 12> H 	 -104.183 	 45.4852 	 123.05
| 13> C 	 -104.187 	 45.2602 	 126.013
| 14> H 	 -103.711 	 44.3486 	 126.48
| 15> H 	 -104.952 	 45.6267 	 126.689
| 16> C 	 -103.158 	 46.3395 	 125.707
| 17> H 	 -102.495 	 46.0238 	 124.949
| 18> H 	 -103.735 	 47.1541 	 125.265
| 19> C 	 -102.454 	 46.8434 	 126.982
| 20> H 	 -101.717 	 46.0823 	 127.207
| 21> H 	 -101.943 	 47.8054 	 126.797
| 22> H 	 -103.137 	 47.0213 	 127.8
| 23> S 	 -105.23 	 42.3895 	 120.47
| 24> C 	 -105.536 	 43.0846 	 118.913
| 25> C 	 -105.866 	 44.392 	 118.99
| 26> C 	 -105.952 	 44.8145 	 120.328
| 27> C 	 -105.576 	 43.8942 	 121.312
| 28> H 	 -106.085 	 44.9236 	 118.068
| 29> C 	 -106.459 	 46.2155 	 120.538
| 30> H 	 -106.765 	 46.2124 	 121.547
| 31> H 	 -107.374 	 46.3795 	 119.97
| 32> C 	 -105.513 	 47.396 	 120.289
| 33> H 	 -105.128 	 47.4057 	 119.336
| 34> H 	 -104.625 	 47.1429 	 120.859
| 35> C 	 -106.074 	 48.8079 	 120.589
| 36> H 	 -107.156 	 48.7685 	 120.533
| 37> H 	 -105.872 	 49.6037 	 119.827
| 38> H 	 -105.805 	 49.1569 	 121.594
| 39> H 	 -105.892 	 43.1531 	 126.153
| 40> H 	 -105.454 	 42.551 	 117.913
| 41> *
| 42>
| 43>                          ****END OF INPUT****

CARTESIAN COORDINATES (ANGSTROEM)
---------------------------------
  S    -106.379000   42.692700  123.762000
  C    -105.726000   43.465700  125.159000
  C    -104.874000   44.567100  124.917000
  C    -104.815000   44.757600  123.529000
  C    -105.607000   43.958600  122.742000
  H    -104.183000   45.485200  123.050000
  C    -104.187000   45.260200  126.013000
  H    -103.711000   44.348600  126.480000
  H    -104.952000   45.626700  126.689000
  C    -103.158000   46.339500  125.707000
  H    -102.495000   46.023800  124.949000
  H    -103.735000   47.154100  125.265000
  C    -102.454000   46.843400  126.982000
  H    -101.717000   46.082300  127.207000
  H    -101.943000   47.805400  126.797000
  H    -103.137000   47.021300  127.800000
  S    -105.230000   42.389500  120.470000
  C    -105.536000   43.084600  118.913000
  C    -105.866000   44.392000  118.990000
  C    -105.952000   44.814500  120.328000
  C    -105.576000   43.894200  121.312000
  H    -106.085000   44.923600  118.068000
  C    -106.459000   46.215500  120.538000
  H    -106.765000   46.212400  121.547000
  H    -107.374000   46.379500  119.970000
  C    -105.513000   47.396000  120.289000
  H    -105.128000   47.405700  119.336000
  H    -104.625000   47.142900  120.859000
  C    -106.074000   48.807900  120.589000
  H    -107.156000   48.768500  120.533000
  H    -105.872000   49.603700  119.827000
  H    -105.805000   49.156900  121.594000
  H    -105.892000   43.153100  126.153000
  H    -105.454000   42.551000  117.913000

 Total Charge           Charge          ....    0
 Multiplicity           Mult            ....    1
 Number of Electrons    NEL             ....  134
 Basis Dimension        Dim             ....  322

ORBITAL ENERGIES
----------------

  NO   OCC          E(Eh)            E(eV)
   0   2.0000     -88.970267     -2421.0040
   1   2.0000     -88.962199     -2420.7845
   2   2.0000     -10.327402      -281.0229
   3   2.0000     -10.324804      -280.9522
   4   2.0000     -10.315539      -280.7001
   5   2.0000     -10.309742      -280.5423
   6   2.0000     -10.298801      -280.2446
   7   2.0000     -10.297705      -280.2148
   8   2.0000     -10.293891      -280.1110
   9   2.0000     -10.292069      -280.0614
  10   2.0000     -10.287239      -279.9300
  11   2.0000     -10.284694      -279.8608
  12   2.0000     -10.282798      -279.8092
  13   2.0000     -10.281019      -279.7608
  14   2.0000     -10.278292      -279.6865
  15   2.0000     -10.276755      -279.6447
  16   2.0000      -8.084320      -219.9855
  17   2.0000      -8.077239      -219.7929
  18   2.0000      -6.042703      -164.4303
  19   2.0000      -6.039012      -164.3299
  20   2.0000      -6.035780      -164.2419
  21   2.0000      -6.035173      -164.2254
  22   2.0000      -6.031639      -164.1292
  23   2.0000      -6.028012      -164.0305
  24   2.0000      -1.007698       -27.4209
  25   2.0000      -0.987105       -26.8605
  26   2.0000      -0.919389       -25.0179
  27   2.0000      -0.905989       -24.6532
  28   2.0000      -0.874696       -23.8017
  29   2.0000      -0.854664       -23.2566
  30   2.0000      -0.847221       -23.0541
  31   2.0000      -0.820652       -22.3311
  32   2.0000      -0.781919       -21.2771
  33   2.0000      -0.766994       -20.8710
  34   2.0000      -0.720109       -19.5952
  35   2.0000      -0.704491       -19.1702
  36   2.0000      -0.691556       -18.8182
  37   2.0000      -0.655449       -17.8357
  38   2.0000      -0.642653       -17.4875
  39   2.0000      -0.623241       -16.9592
  40   2.0000      -0.593471       -16.1492
  41   2.0000      -0.582132       -15.8406
  42   2.0000      -0.569198       -15.4887
  43   2.0000      -0.558768       -15.2049
  44   2.0000      -0.530114       -14.4251
  45   2.0000      -0.521692       -14.1960
  46   2.0000      -0.513557       -13.9746
  47   2.0000      -0.507001       -13.7962
  48   2.0000      -0.506260       -13.7760
  49   2.0000      -0.499437       -13.5904
  50   2.0000      -0.496494       -13.5103
  51   2.0000      -0.477726       -12.9996
  52   2.0000      -0.471758       -12.8372
  53   2.0000      -0.470146       -12.7933
  54   2.0000      -0.458326       -12.4717
  55   2.0000      -0.451973       -12.2988
  56   2.0000      -0.447018       -12.1640
  57   2.0000      -0.441447       -12.0124
  58   2.0000      -0.430719       -11.7205
  59   2.0000      -0.427694       -11.6381
  60   2.0000      -0.421409       -11.4671
  61   2.0000      -0.417391       -11.3578
  62   2.0000      -0.410460       -11.1692
  63   2.0000      -0.349464        -9.5094
  64   2.0000      -0.330512        -8.9937
  65   2.0000      -0.327254        -8.9050
  66   2.0000      -0.286912        -7.8073
  67   0.0000       0.028399         0.7728
  68   0.0000       0.065660         1.7867
  69   0.0000       0.116549         3.1715
  70   0.0000       0.129335         3.5194
  71   0.0000       0.135265         3.6807

MULLIKEN ATOMIC CHARGES
-----------------------
   0 S :    0.127454
   1 C :   -0.107446
   2 C :   -0.072374
   3 C :    0.008664
   4 C :   -0.156343
   5 H :    0.007175
   6 C :    0.023759
   7 H :    0.044875
   8 H :    0.041777
   9 C :   -0.066583
  10 H :    0.027417
  11 H :    0.026036
  12 C :   -0.028096
  13 H :    0.036825
  14 H :    0.037982
  15 H :    0.031990
  16 S :    0.100333
  17 C :   -0.111645
  18 C :   -0.022695
  19 C :   -0.066189
  20 C :   -0.144238
  21 H :    0.021774
  22 C :    0.084880
  23 H :    0.005966
  24 H :    0.018558
  25 C :   -0.020662
  26 H :   -0.002622
  27 H :    0.012012
  28 C :   -0.056365
  29 H :    0.020725
  30 H :    0.038701
  31 H :    0.041428
  32 H :    0.022168
  33 H :    0.074757
Sum of atomic charges:   -0.0000000

LOEWDIN ATOMIC CHARGES
----------------------
   0 S :    0.405893
   1 C :   -0.194191
   2 C :   -0.065053
   3 C :   -0.053714
   4 C :   -0.190319
   5 H :    0.028587
   6 C :   -0.041971
   7 H :    0.044915
   8 H :    0.036242
   9 C :   -0.039262
  10 H :    0.019485
  11 H :    0.024370
  12 C :   -0.057584
  13 H :    0.027196
  14 H :    0.030639
  15 H :    0.024634
  16 S :    0.404582
  17 C :   -0.193799
  18 C :   -0.079772
  19 C :   -0.054483
  20 C :   -0.203632
  21 H :    0.036782
  22 C :   -0.030346
  23 H :    0.021961
  24 H :    0.027688
  25 C :   -0.037327
  26 H :    0.011056
  27 H :    0.022487
  28 C :   -0.069482
  29 H :    0.023840
  30 H :    0.033040
  31 H :    0.028028
  32 H :    0.014882
  33 H :    0.044627

  Mayer bond orders larger than 0.100000
B(  0-S ,  1-C ) :   1.1656 B(  0-S ,  4-C ) :   1.1284 B(  1-C ,  2-C ) :   1.5762
B(  1-C ,  4-C ) :   0.1063 B(  1-C , 32-H ) :   0.9709 B(  2-C ,  3-C ) :   1.2825
B(  2-C ,  6-C ) :   0.9896 B(  3-C ,  4-C ) :   1.5454 B(  3-C ,  5-H ) :   0.9931
B(  4-C , 20-C ) :   1.0763 B(  6-C ,  7-H ) :   0.9399 B(  6-C ,  8-H ) :   0.9320
B(  6-C ,  9-C ) :   1.0871 B(  9-C , 10-H ) :   0.9538 B(  9-C , 11-H ) :   0.9475
B(  9-C , 12-C ) :   1.0825 B( 12-C , 13-H ) :   0.9779 B( 12-C , 14-H ) :   0.9738
B( 12-C , 15-H ) :   0.9749 B( 16-S , 17-C ) :   1.1648 B( 16-S , 20-C ) :   1.1213
B( 17-C , 18-C ) :   1.6094 B( 17-C , 33-H ) :   0.9535 B( 18-C , 19-C ) :   1.2440
B( 18-C , 21-H ) :   0.9965 B( 19-C , 20-C ) :   1.5788 B( 19-C , 22-C ) :   1.0571
B( 22-C , 23-H ) :   0.9236 B( 22-C , 24-H ) :   0.9289 B( 22-C , 25-C ) :   1.0674
B( 25-C , 26-H ) :   0.9543 B( 25-C , 27-H ) :   0.9531 B( 25-C , 28-C ) :   1.0632
B( 28-C , 29-H ) :   0.9760 B( 28-C , 30-H ) :   0.9773 B( 28-C , 31-H ) :   0.9786

Dispersion correction           -0.013618108
FINAL SINGLE POINT ENERGY     -1339.871756928851

DIPOLE MOMENT
-------------
                                X             Y             Z
Electronic contribution:     -8.21419     -28.70738      -8.58732
Nuclear contribution   :      8.42033      29.29909       8.72941
                        -----------------------------------------
Total Dipole Moment    :      0.20614       0.59171       0.14209
                        -----------------------------------------
Magnitude (a.u.)       :      0.64250
Magnitude (Debye)      :      1.63311

Rotational constants in cm-1:     0.016275     0.008835     0.006428
Rotational constants in MHz :   487.910313   264.854003   192.714580

                             ****ORCA TERMINATED NORMALLY****
TOTAL RUN TIME: 0 days 0 hours 0 minutes 32 seconds 659 msec
