                         Program Version 4.2.1 -  RELEASE  -
|  1> ! wB97X-D3 SP def2-SVP
|  2> %pal
|  3> nprocs 16
|  4> end
|  5>
|  6> * xyz 0 1
|  7> S 	 -63.101 	 53.2252 	 128.315
|  8> C 	 -64.4617 	 53.7649 	 129.139
|  9> C 	 -64.4141 	 55.0525 	 129.563
| 10> C 	 -63.1595 	 55.5916 	 129.184
| 11> C 	 -62.3177 	 54.796 	 128.428
| 12> H 	 -62.8826 	 56.6779 	 129.351
| 13> C 	 -65.3873 	 55.8347 	 130.409
| 14> H 	 -66.3617 	 55.4251 	 130.119
| 15> H 	 -65.3833 	 56.8186 	 130.069
| 16> C 	 -65.1477 	 55.8775 	 131.967
| 17> H 	 -65.4429 	 54.8837 	 132.227
| 18> H 	 -64.1144 	 56.0207 	 132.24
| 19> C 	 -66.0226 	 56.9314 	 132.695
| 20> H 	 -67.11 	 56.7224 	 132.726
| 21> H 	 -65.7664 	 57.2369 	 133.738
| 22> H 	 -66.003 	 57.9158 	 132.163
| 23> S 	 -59.8533 	 55.703 	 129.187
| 24> C 	 -58.6413 	 55.7846 	 127.98
| 25> C 	 -59.081 	 55.3705 	 126.706
| 26> C 	 -60.3789 	 54.813 	 126.805
| 27> C 	 -60.9362 	 55.046 	 128.019
| 28> H 	 -58.3706 	 55.3505 	 125.843
| 29> C 	 -60.937 	 54.0237 	 125.622
| 30> H 	 -61.9164 	 53.5754 	 125.872
| 31> H 	 -60.2468 	 53.1811 	 125.4
| 32> C 	 -61.1038 	 54.8942 	 124.287
| 33> H 	 -60.1179 	 55.317 	 123.985
| 34> H 	 -61.726 	 55.7086 	 124.692
| 35> C 	 -61.8692 	 54.2166 	 123.147
| 36> H 	 -62.9084 	 54.0186 	 123.44
| 37> H 	 -61.3227 	 53.3997 	 122.679
| 38> H 	 -61.9724 	 54.9413 	 122.398
| 39> H 	 -65.348 	 53.1361 	 129.37
| 40> H 	 -57.664 	 56.1227 	 128.255
| 41> *
| 42>
| 43>                          ****END OF INPUT****

CARTESIAN COORDINATES (ANGSTROEM)
---------------------------------
  S    -63.101000   53.225200  128.315000
  C    -64.461700   53.764900  129.139000
  C    -64.414100   55.052500  129.563000
  C    -63.159500   55.591600  129.184000
  C    -62.317700   54.796000  128.428000
  H    -62.882600   56.677900  129.351000
  C    -65.387300   55.834700  130.409000
  H    -66.361700   55.425100  130.119000
  H    -65.383300   56.818600  130.069000
  C    -65.147700   55.877500  131.967000
  H    -65.442900   54.883700  132.227000
  H    -64.114400   56.020700  132.240000
  C    -66.022600   56.931400  132.695000
  H    -67.110000   56.722400  132.726000
  H    -65.766400   57.236900  133.738000
  H    -66.003000   57.915800  132.163000
  S    -59.853300   55.703000  129.187000
  C    -58.641300   55.784600  127.980000
  C    -59.081000   55.370500  126.706000
  C    -60.378900   54.813000  126.805000
  C    -60.936200   55.046000  128.019000
  H    -58.370600   55.350500  125.843000
  C    -60.937000   54.023700  125.622000
  H    -61.916400   53.575400  125.872000
  H    -60.246800   53.181100  125.400000
  C    -61.103800   54.894200  124.287000
  H    -60.117900   55.317000  123.985000
  H    -61.726000   55.708600  124.692000
  C    -61.869200   54.216600  123.147000
  H    -62.908400   54.018600  123.440000
  H    -61.322700   53.399700  122.679000
  H    -61.972400   54.941300  122.398000
  H    -65.348000   53.136100  129.370000
  H    -57.664000   56.122700  128.255000

 Total Charge           Charge          ....    0
 Multiplicity           Mult            ....    1
 Number of Electrons    NEL             ....  134
 Basis Dimension        Dim             ....  322

ORBITAL ENERGIES
----------------

  NO   OCC          E(Eh)            E(eV)
   0   2.0000     -88.968267     -2420.9496
   1   2.0000     -88.964217     -2420.8394
   2   2.0000     -10.324796      -280.9520
   3   2.0000     -10.319911      -280.8191
   4   2.0000     -10.316092      -280.7151
   5   2.0000     -10.307603      -280.4841
   6   2.0000     -10.299185      -280.2551
   7   2.0000     -10.298457      -280.2353
   8   2.0000     -10.295244      -280.1478
   9   2.0000     -10.292757      -280.0801
  10   2.0000     -10.291414      -280.0436
  11   2.0000     -10.291314      -280.0409
  12   2.0000     -10.290766      -280.0260
  13   2.0000     -10.290096      -280.0077
  14   2.0000     -10.287023      -279.9241
  15   2.0000     -10.274668      -279.5879
  16   2.0000      -8.084080      -219.9790
  17   2.0000      -8.079813      -219.8629
  18   2.0000      -6.042342      -164.4205
  19   2.0000      -6.038488      -164.3156
  20   2.0000      -6.038203      -164.3079
  21   2.0000      -6.035000      -164.2207
  22   2.0000      -6.034172      -164.1982
  23   2.0000      -6.030669      -164.1028
  24   2.0000      -1.014551       -27.6073
  25   2.0000      -0.994316       -27.0567
  26   2.0000      -0.907441       -24.6927
  27   2.0000      -0.900984       -24.5170
  28   2.0000      -0.868091       -23.6220
  29   2.0000      -0.856335       -23.3021
  30   2.0000      -0.847368       -23.0581
  31   2.0000      -0.808927       -22.0120
  32   2.0000      -0.783331       -21.3155
  33   2.0000      -0.772618       -21.0240
  34   2.0000      -0.708972       -19.2921
  35   2.0000      -0.698088       -18.9959
  36   2.0000      -0.691139       -18.8068
  37   2.0000      -0.665122       -18.0989
  38   2.0000      -0.633892       -17.2491
  39   2.0000      -0.616126       -16.7656
  40   2.0000      -0.597216       -16.2511
  41   2.0000      -0.568933       -15.4814
  42   2.0000      -0.563246       -15.3267
  43   2.0000      -0.556020       -15.1301
  44   2.0000      -0.523886       -14.2557
  45   2.0000      -0.519884       -14.1468
  46   2.0000      -0.514169       -13.9912
  47   2.0000      -0.506945       -13.7947
  48   2.0000      -0.505453       -13.7541
  49   2.0000      -0.493700       -13.4343
  50   2.0000      -0.487616       -13.2687
  51   2.0000      -0.477960       -13.0059
  52   2.0000      -0.472011       -12.8441
  53   2.0000      -0.467043       -12.7089
  54   2.0000      -0.456239       -12.4149
  55   2.0000      -0.451972       -12.2988
  56   2.0000      -0.449911       -12.2427
  57   2.0000      -0.435669       -11.8552
  58   2.0000      -0.432675       -11.7737
  59   2.0000      -0.430104       -11.7037
  60   2.0000      -0.421048       -11.4573
  61   2.0000      -0.417734       -11.3671
  62   2.0000      -0.413854       -11.2615
  63   2.0000      -0.347446        -9.4545
  64   2.0000      -0.334083        -9.0909
  65   2.0000      -0.328834        -8.9480
  66   2.0000      -0.289721        -7.8837
  67   0.0000       0.038339         1.0432
  68   0.0000       0.074958         2.0397
  69   0.0000       0.109388         2.9766
  70   0.0000       0.118183         3.2159
  71   0.0000       0.135346         3.6829

MULLIKEN ATOMIC CHARGES
-----------------------
   0 S :    0.118941
   1 C :   -0.138576
   2 C :   -0.093810
   3 C :   -0.041024
   4 C :   -0.144180
   5 H :    0.029147
   6 C :    0.092752
   7 H :    0.019206
   8 H :    0.000940
   9 C :   -0.013762
  10 H :    0.022752
  11 H :    0.036697
  12 C :   -0.092035
  13 H :    0.034098
  14 H :    0.043147
  15 H :    0.026632
  16 S :    0.139598
  17 C :   -0.103302
  18 C :   -0.042966
  19 C :   -0.027588
  20 C :   -0.151961
  21 H :    0.040488
  22 C :    0.061578
  23 H :    0.014523
  24 H :    0.040923
  25 C :   -0.138242
  26 H :    0.036567
  27 H :    0.039280
  28 C :    0.002780
  29 H :    0.036405
  30 H :    0.035955
  31 H :    0.016375
  32 H :    0.050140
  33 H :    0.048522
Sum of atomic charges:   -0.0000000

LOEWDIN ATOMIC CHARGES
----------------------
   0 S :    0.436110
   1 C :   -0.220343
   2 C :   -0.077210
   3 C :   -0.075877
   4 C :   -0.195221
   5 H :    0.035504
   6 C :   -0.022507
   7 H :    0.031859
   8 H :    0.018496
   9 C :   -0.029035
  10 H :    0.022446
  11 H :    0.026953
  12 C :   -0.082185
  13 H :    0.027176
  14 H :    0.031417
  15 H :    0.026839
  16 S :    0.442953
  17 C :   -0.189579
  18 C :   -0.070744
  19 C :   -0.058452
  20 C :   -0.214664
  21 H :    0.039971
  22 C :   -0.034777
  23 H :    0.016977
  24 H :    0.032756
  25 C :   -0.041442
  26 H :    0.022266
  27 H :    0.029113
  28 C :   -0.063292
  29 H :    0.032054
  30 H :    0.026727
  31 H :    0.021958
  32 H :    0.034566
  33 H :    0.019188

  Mayer bond orders larger than 0.100000
B(  0-S ,  1-C ) :   1.1693 B(  0-S ,  4-C ) :   1.1425 B(  1-C ,  2-C ) :   1.6074
B(  1-C , 32-H ) :   0.9547 B(  2-C ,  3-C ) :   1.2633 B(  2-C ,  6-C ) :   1.0278
B(  3-C ,  4-C ) :   1.5791 B(  3-C ,  5-H ) :   0.9839 B(  4-C , 20-C ) :   1.0339
B(  6-C ,  7-H ) :   0.9383 B(  6-C ,  8-H ) :   0.9335 B(  6-C ,  9-C ) :   1.0455
B(  9-C , 10-H ) :   0.9580 B(  9-C , 11-H ) :   0.9622 B(  9-C , 12-C ) :   1.0655
B( 12-C , 13-H ) :   0.9774 B( 12-C , 14-H ) :   0.9774 B( 12-C , 15-H ) :   0.9752
B( 16-S , 17-C ) :   1.1815 B( 16-S , 20-C ) :   1.1494 B( 17-C , 18-C ) :   1.5805
B( 17-C , 33-H ) :   0.9726 B( 18-C , 19-C ) :   1.2460 B( 18-C , 21-H ) :   0.9848
B( 19-C , 20-C ) :   1.5886 B( 19-C , 22-C ) :   1.0448 B( 22-C , 23-H ) :   0.9303
B( 22-C , 24-H ) :   0.9370 B( 22-C , 25-C ) :   1.0434 B( 25-C , 26-H ) :   0.9571
B( 25-C , 27-H ) :   0.9588 B( 25-C , 28-C ) :   1.0956 B( 28-C , 29-H ) :   0.9695
B( 28-C , 30-H ) :   0.9728 B( 28-C , 31-H ) :   0.9690

Dispersion correction           -0.013559673
FINAL SINGLE POINT ENERGY     -1339.881387302585

DIPOLE MOMENT
-------------
                                X             Y             Z
Electronic contribution:     13.71150      -6.14887       4.24719
Nuclear contribution   :    -13.79489       6.34431      -4.36097
                        -----------------------------------------
Total Dipole Moment    :     -0.08339       0.19544      -0.11378
                        -----------------------------------------
Magnitude (a.u.)       :      0.24103
Magnitude (Debye)      :      0.61265

Rotational constants in cm-1:     0.021029     0.007382     0.006064
Rotational constants in MHz :   630.442752   221.310516   181.802167

                             ****ORCA TERMINATED NORMALLY****
TOTAL RUN TIME: 0 days 0 hours 0 minutes 33 seconds 265 msec
