                         Program Version 4.2.1 -  RELEASE  -
|  1> ! wB97X-D3 SP def2-SVP
|  2> %pal
|  3> nprocs 16
|  4> end
|  5>
|  6> * xyz 0 1
|  7> S 	 -24.6369 	 55.8496 	 111.873
|  8> C 	 -23.4706 	 57.0606 	 111.321
|  9> C 	 -24.0334 	 58.119 	 110.694
| 10> C 	 -25.4575 	 58.0369 	 110.745
| 11> C 	 -25.9341 	 56.8736 	 111.324
| 12> H 	 -26.1889 	 58.7332 	 110.321
| 13> C 	 -23.277 	 59.3085 	 110.143
| 14> H 	 -22.4646 	 59.6396 	 110.789
| 15> H 	 -23.9708 	 60.1175 	 110.088
| 16> C 	 -22.8044 	 59.0994 	 108.671
| 17> H 	 -23.5338 	 58.7506 	 107.983
| 18> H 	 -22.2948 	 60.0238 	 108.39
| 19> C 	 -21.8222 	 57.9261 	 108.564
| 20> H 	 -21.2686 	 57.9237 	 107.659
| 21> H 	 -21.1368 	 57.9133 	 109.351
| 22> H 	 -22.3149 	 56.9524 	 108.57
| 23> S 	 -28.0374 	 55.2138 	 110.659
| 24> C 	 -29.6596 	 55.6427 	 111.158
| 25> C 	 -29.6208 	 56.7235 	 112.039
| 26> C 	 -28.3698 	 57.3514 	 112.106
| 27> C 	 -27.3667 	 56.6367 	 111.457
| 28> H 	 -30.4908 	 57.0163 	 112.509
| 29> C 	 -28.238 	 58.6357 	 112.842
| 30> H 	 -27.1937 	 58.9752 	 112.954
| 31> H 	 -28.6676 	 58.4888 	 113.825
| 32> C 	 -29.0416 	 59.7748 	 112.249
| 33> H 	 -28.9702 	 60.576 	 112.969
| 34> H 	 -30.1341 	 59.6155 	 112.413
| 35> C 	 -29.065 	 60.147 	 110.754
| 36> H 	 -29.4393 	 61.1825 	 110.685
| 37> H 	 -29.637 	 59.479 	 110.124
| 38> H 	 -28.1005 	 60.1241 	 110.389
| 39> H 	 -22.4626 	 56.8674 	 111.435
| 40> H 	 -30.5515 	 54.9955 	 111.007
| 41> *
| 42>
| 43>                          ****END OF INPUT****

CARTESIAN COORDINATES (ANGSTROEM)
---------------------------------
  S    -24.636900   55.849600  111.873000
  C    -23.470600   57.060600  111.321000
  C    -24.033400   58.119000  110.694000
  C    -25.457500   58.036900  110.745000
  C    -25.934100   56.873600  111.324000
  H    -26.188900   58.733200  110.321000
  C    -23.277000   59.308500  110.143000
  H    -22.464600   59.639600  110.789000
  H    -23.970800   60.117500  110.088000
  C    -22.804400   59.099400  108.671000
  H    -23.533800   58.750600  107.983000
  H    -22.294800   60.023800  108.390000
  C    -21.822200   57.926100  108.564000
  H    -21.268600   57.923700  107.659000
  H    -21.136800   57.913300  109.351000
  H    -22.314900   56.952400  108.570000
  S    -28.037400   55.213800  110.659000
  C    -29.659600   55.642700  111.158000
  C    -29.620800   56.723500  112.039000
  C    -28.369800   57.351400  112.106000
  C    -27.366700   56.636700  111.457000
  H    -30.490800   57.016300  112.509000
  C    -28.238000   58.635700  112.842000
  H    -27.193700   58.975200  112.954000
  H    -28.667600   58.488800  113.825000
  C    -29.041600   59.774800  112.249000
  H    -28.970200   60.576000  112.969000
  H    -30.134100   59.615500  112.413000
  C    -29.065000   60.147000  110.754000
  H    -29.439300   61.182500  110.685000
  H    -29.637000   59.479000  110.124000
  H    -28.100500   60.124100  110.389000
  H    -22.462600   56.867400  111.435000
  H    -30.551500   54.995500  111.007000

 Total Charge           Charge          ....    0
 Multiplicity           Mult            ....    1
 Number of Electrons    NEL             ....  134
 Basis Dimension        Dim             ....  322

ORBITAL ENERGIES
----------------

  NO   OCC          E(Eh)            E(eV)
   0   2.0000     -88.966674     -2420.9063
   1   2.0000     -88.962967     -2420.8054
   2   2.0000     -10.325440      -280.9695
   3   2.0000     -10.324797      -280.9520
   4   2.0000     -10.319955      -280.8202
   5   2.0000     -10.306854      -280.4638
   6   2.0000     -10.298390      -280.2334
   7   2.0000     -10.298211      -280.2286
   8   2.0000     -10.292378      -280.0698
   9   2.0000     -10.292351      -280.0691
  10   2.0000     -10.287846      -279.9465
  11   2.0000     -10.286345      -279.9057
  12   2.0000     -10.284892      -279.8661
  13   2.0000     -10.283460      -279.8272
  14   2.0000     -10.273609      -279.5591
  15   2.0000     -10.263739      -279.2905
  16   2.0000      -8.081339      -219.9044
  17   2.0000      -8.077605      -219.8028
  18   2.0000      -6.039862      -164.3530
  19   2.0000      -6.036080      -164.2501
  20   2.0000      -6.035938      -164.2462
  21   2.0000      -6.032074      -164.1411
  22   2.0000      -6.032018      -164.1396
  23   2.0000      -6.028472      -164.0431
  24   2.0000      -1.005945       -27.3732
  25   2.0000      -0.985008       -26.8034
  26   2.0000      -0.913453       -24.8563
  27   2.0000      -0.911001       -24.7896
  28   2.0000      -0.868124       -23.6229
  29   2.0000      -0.850622       -23.1466
  30   2.0000      -0.847738       -23.0681
  31   2.0000      -0.811863       -22.0919
  32   2.0000      -0.789525       -21.4841
  33   2.0000      -0.781262       -21.2592
  34   2.0000      -0.708839       -19.2885
  35   2.0000      -0.698975       -19.0201
  36   2.0000      -0.692336       -18.8394
  37   2.0000      -0.662124       -18.0173
  38   2.0000      -0.647089       -17.6082
  39   2.0000      -0.618493       -16.8300
  40   2.0000      -0.595404       -16.2018
  41   2.0000      -0.573827       -15.6146
  42   2.0000      -0.555145       -15.1063
  43   2.0000      -0.550027       -14.9670
  44   2.0000      -0.543340       -14.7850
  45   2.0000      -0.537230       -14.6188
  46   2.0000      -0.523193       -14.2368
  47   2.0000      -0.517046       -14.0695
  48   2.0000      -0.502266       -13.6673
  49   2.0000      -0.495628       -13.4867
  50   2.0000      -0.488229       -13.2854
  51   2.0000      -0.484543       -13.1851
  52   2.0000      -0.470969       -12.8157
  53   2.0000      -0.465573       -12.6689
  54   2.0000      -0.461102       -12.5472
  55   2.0000      -0.448589       -12.2067
  56   2.0000      -0.446270       -12.1436
  57   2.0000      -0.442909       -12.0522
  58   2.0000      -0.439442       -11.9578
  59   2.0000      -0.421366       -11.4659
  60   2.0000      -0.419726       -11.4213
  61   2.0000      -0.417909       -11.3719
  62   2.0000      -0.396650       -10.7934
  63   2.0000      -0.339406        -9.2357
  64   2.0000      -0.333323        -9.0702
  65   2.0000      -0.328062        -8.9270
  66   2.0000      -0.294942        -8.0258
  67   0.0000       0.036823         1.0020
  68   0.0000       0.065327         1.7776
  69   0.0000       0.117585         3.1997
  70   0.0000       0.119195         3.2435
  71   0.0000       0.129677         3.5287

MULLIKEN ATOMIC CHARGES
-----------------------
   0 S :    0.113775
   1 C :   -0.115561
   2 C :   -0.048001
   3 C :    0.010906
   4 C :   -0.142904
   5 H :    0.009965
   6 C :    0.083852
   7 H :    0.038528
   8 H :    0.009975
   9 C :   -0.055414
  10 H :    0.032650
  11 H :    0.035573
  12 C :   -0.044477
  13 H :    0.021562
  14 H :    0.001662
  15 H :    0.037135
  16 S :    0.102722
  17 C :   -0.112139
  18 C :   -0.017630
  19 C :   -0.010389
  20 C :   -0.190370
  21 H :   -0.009471
  22 C :    0.106727
  23 H :    0.034671
  24 H :    0.023554
  25 C :   -0.131169
  26 H :    0.017775
  27 H :    0.013149
  28 C :    0.011275
  29 H :    0.037445
  30 H :    0.040752
  31 H :    0.002709
  32 H :    0.017654
  33 H :    0.073509
Sum of atomic charges:    0.0000000

LOEWDIN ATOMIC CHARGES
----------------------
   0 S :    0.399159
   1 C :   -0.169844
   2 C :   -0.062544
   3 C :   -0.060400
   4 C :   -0.202251
   5 H :    0.032123
   6 C :   -0.023754
   7 H :    0.033650
   8 H :    0.026003
   9 C :   -0.030073
  10 H :    0.025958
  11 H :    0.025571
  12 C :   -0.063309
  13 H :    0.021555
  14 H :    0.008278
  15 H :    0.027604
  16 S :    0.399488
  17 C :   -0.189573
  18 C :   -0.060559
  19 C :   -0.057001
  20 C :   -0.195511
  21 H :    0.018688
  22 C :   -0.031489
  23 H :    0.032780
  24 H :    0.038391
  25 C :   -0.053874
  26 H :    0.023581
  27 H :    0.024109
  28 C :   -0.056939
  29 H :    0.036893
  30 H :    0.029206
  31 H :    0.007587
  32 H :    0.009177
  33 H :    0.037320

  Mayer bond orders larger than 0.100000
B(  0-S ,  1-C ) :   1.1288 B(  0-S ,  4-C ) :   1.1478 B(  1-C ,  2-C ) :   1.6201
B(  1-C , 32-H ) :   0.9797 B(  2-C ,  3-C ) :   1.2289 B(  2-C ,  6-C ) :   1.0139
B(  3-C ,  4-C ) :   1.5846 B(  3-C ,  5-H ) :   0.9931 B(  4-C , 20-C ) :   1.0336
B(  6-C ,  7-H ) :   0.9473 B(  6-C ,  8-H ) :   0.9364 B(  6-C ,  9-C ) :   1.0739
B(  9-C , 10-H ) :   0.9588 B(  9-C , 11-H ) :   0.9583 B(  9-C , 12-C ) :   1.0776
B( 12-C , 13-H ) :   0.9713 B( 12-C , 14-H ) :   0.9752 B( 12-C , 15-H ) :   0.9724
B( 16-S , 17-C ) :   1.1629 B( 16-S , 20-C ) :   1.1436 B( 17-C , 18-C ) :   1.5891
B( 17-C , 20-C ) :   0.1067 B( 17-C , 33-H ) :   0.9623 B( 18-C , 19-C ) :   1.2420
B( 18-C , 21-H ) :   1.0034 B( 19-C , 20-C ) :   1.5774 B( 19-C , 22-C ) :   1.0625
B( 22-C , 23-H ) :   0.9328 B( 22-C , 24-H ) :   0.9196 B( 22-C , 25-C ) :   1.0856
B( 25-C , 26-H ) :   0.9547 B( 25-C , 27-H ) :   0.9480 B( 25-C , 28-C ) :   1.0602
B( 28-C , 29-H ) :   0.9664 B( 28-C , 30-H ) :   0.9716 B( 28-C , 31-H ) :   0.9776

Dispersion correction           -0.015262296
FINAL SINGLE POINT ENERGY     -1339.872062344170

DIPOLE MOMENT
-------------
                                X             Y             Z
Electronic contribution:     -4.17794     -22.34112       6.92321
Nuclear contribution   :      4.11667      22.95682      -6.90749
                        -----------------------------------------
Total Dipole Moment    :     -0.06128       0.61570       0.01572
                        -----------------------------------------
Magnitude (a.u.)       :      0.61894
Magnitude (Debye)      :      1.57323

Rotational constants in cm-1:     0.020804     0.008560     0.007061
Rotational constants in MHz :   623.688566   256.613271   211.689721

                             ****ORCA TERMINATED NORMALLY****
TOTAL RUN TIME: 0 days 0 hours 0 minutes 31 seconds 74 msec
