                         Program Version 4.2.1 -  RELEASE  -
|  1> ! wB97X-D3 SP def2-SVP
|  2> %pal
|  3> nprocs 16
|  4> end
|  5>
|  6> * xyz 0 1
|  7> S 	 -13.6995 	 39.6642 	 37.5568
|  8> C 	 -12.6649 	 40.15 	 36.2482
|  9> C 	 -11.5595 	 39.2804 	 36.112
| 10> C 	 -11.6725 	 38.2671 	 37.1379
| 11> C 	 -12.7836 	 38.2709 	 37.942
| 12> H 	 -10.8995 	 37.534 	 37.3656
| 13> C 	 -10.421 	 39.5666 	 35.1148
| 14> H 	 -9.56577 	 39.0074 	 35.4517
| 15> H 	 -10.1575 	 40.6191 	 35.1208
| 16> C 	 -10.6773 	 39.0201 	 33.6882
| 17> H 	 -11.5268 	 39.5377 	 33.3343
| 18> H 	 -9.83392 	 39.3645 	 33.082
| 19> C 	 -10.9257 	 37.4558 	 33.5711
| 20> H 	 -10.137 	 36.9754 	 34.1158
| 21> H 	 -11.8319 	 37.316 	 34.1624
| 22> H 	 -11.0087 	 37.045 	 32.5567
| 23> S 	 -13.4256 	 38.1422 	 40.641
| 24> C 	 -13.4775 	 36.5948 	 41.454
| 25> C 	 -13.417 	 35.5818 	 40.5599
| 26> C 	 -13.1361 	 35.9874 	 39.1783
| 27> C 	 -13.0592 	 37.3858 	 39.1012
| 28> H 	 -13.5549 	 34.5018 	 40.8659
| 29> C 	 -12.8577 	 34.9451 	 38.1064
| 30> H 	 -12.6855 	 35.4952 	 37.2107
| 31> H 	 -13.7834 	 34.3592 	 37.9951
| 32> C 	 -11.7445 	 33.9499 	 38.4652
| 33> H 	 -11.7535 	 33.592 	 39.5381
| 34> H 	 -10.779 	 34.445 	 38.393
| 35> C 	 -11.5141 	 32.8321 	 37.4234
| 36> H 	 -12.3875 	 32.1623 	 37.3845
| 37> H 	 -10.654 	 32.3253 	 37.7413
| 38> H 	 -11.2808 	 33.303 	 36.4804
| 39> H 	 -12.7917 	 41.0482 	 35.5494
| 40> H 	 -13.7885 	 36.4211 	 42.4641
| 41> *
| 42>
| 43>                          ****END OF INPUT****

CARTESIAN COORDINATES (ANGSTROEM)
---------------------------------
  S    -13.699500   39.664200   37.556800
  C    -12.664900   40.150000   36.248200
  C    -11.559500   39.280400   36.112000
  C    -11.672500   38.267100   37.137900
  C    -12.783600   38.270900   37.942000
  H    -10.899500   37.534000   37.365600
  C    -10.421000   39.566600   35.114800
  H     -9.565770   39.007400   35.451700
  H    -10.157500   40.619100   35.120800
  C    -10.677300   39.020100   33.688200
  H    -11.526800   39.537700   33.334300
  H     -9.833920   39.364500   33.082000
  C    -10.925700   37.455800   33.571100
  H    -10.137000   36.975400   34.115800
  H    -11.831900   37.316000   34.162400
  H    -11.008700   37.045000   32.556700
  S    -13.425600   38.142200   40.641000
  C    -13.477500   36.594800   41.454000
  C    -13.417000   35.581800   40.559900
  C    -13.136100   35.987400   39.178300
  C    -13.059200   37.385800   39.101200
  H    -13.554900   34.501800   40.865900
  C    -12.857700   34.945100   38.106400
  H    -12.685500   35.495200   37.210700
  H    -13.783400   34.359200   37.995100
  C    -11.744500   33.949900   38.465200
  H    -11.753500   33.592000   39.538100
  H    -10.779000   34.445000   38.393000
  C    -11.514100   32.832100   37.423400
  H    -12.387500   32.162300   37.384500
  H    -10.654000   32.325300   37.741300
  H    -11.280800   33.303000   36.480400
  H    -12.791700   41.048200   35.549400
  H    -13.788500   36.421100   42.464100

 Total Charge           Charge          ....    0
 Multiplicity           Mult            ....    1
 Number of Electrons    NEL             ....  134
 Basis Dimension        Dim             ....  322

ORBITAL ENERGIES
----------------

  NO   OCC          E(Eh)            E(eV)
   0   2.0000     -88.968050     -2420.9437
   1   2.0000     -88.964727     -2420.8533
   2   2.0000     -10.333225      -281.1813
   3   2.0000     -10.327992      -281.0390
   4   2.0000     -10.321859      -280.8721
   5   2.0000     -10.314259      -280.6653
   6   2.0000     -10.308655      -280.5128
   7   2.0000     -10.307980      -280.4944
   8   2.0000     -10.297508      -280.2094
   9   2.0000     -10.296829      -280.1910
  10   2.0000     -10.295545      -280.1560
  11   2.0000     -10.292813      -280.0817
  12   2.0000     -10.290070      -280.0070
  13   2.0000     -10.286989      -279.9232
  14   2.0000     -10.280766      -279.7539
  15   2.0000     -10.276375      -279.6344
  16   2.0000      -8.083349      -219.9591
  17   2.0000      -8.079560      -219.8560
  18   2.0000      -6.041810      -164.4060
  19   2.0000      -6.038242      -164.3089
  20   2.0000      -6.037617      -164.2919
  21   2.0000      -6.034266      -164.2007
  22   2.0000      -6.034137      -164.1972
  23   2.0000      -6.030039      -164.0857
  24   2.0000      -1.007799       -27.4236
  25   2.0000      -0.985012       -26.8036
  26   2.0000      -0.909765       -24.7560
  27   2.0000      -0.908675       -24.7263
  28   2.0000      -0.866484       -23.5782
  29   2.0000      -0.850889       -23.1539
  30   2.0000      -0.840342       -22.8669
  31   2.0000      -0.816119       -22.2077
  32   2.0000      -0.785398       -21.3718
  33   2.0000      -0.774287       -21.0694
  34   2.0000      -0.704085       -19.1591
  35   2.0000      -0.698562       -19.0088
  36   2.0000      -0.694028       -18.8855
  37   2.0000      -0.654947       -17.8220
  38   2.0000      -0.636857       -17.3298
  39   2.0000      -0.614523       -16.7220
  40   2.0000      -0.595501       -16.2044
  41   2.0000      -0.574695       -15.6382
  42   2.0000      -0.565539       -15.3891
  43   2.0000      -0.551076       -14.9955
  44   2.0000      -0.538751       -14.6601
  45   2.0000      -0.530338       -14.4312
  46   2.0000      -0.515717       -14.0334
  47   2.0000      -0.511644       -13.9225
  48   2.0000      -0.503065       -13.6891
  49   2.0000      -0.499046       -13.5797
  50   2.0000      -0.490737       -13.3536
  51   2.0000      -0.479600       -13.0506
  52   2.0000      -0.466270       -12.6878
  53   2.0000      -0.465876       -12.6771
  54   2.0000      -0.460075       -12.5193
  55   2.0000      -0.450704       -12.2643
  56   2.0000      -0.447347       -12.1729
  57   2.0000      -0.441147       -12.0042
  58   2.0000      -0.435430       -11.8487
  59   2.0000      -0.424235       -11.5440
  60   2.0000      -0.421563       -11.4713
  61   2.0000      -0.416028       -11.3207
  62   2.0000      -0.412257       -11.2181
  63   2.0000      -0.349879        -9.5207
  64   2.0000      -0.330248        -8.9865
  65   2.0000      -0.326758        -8.8915
  66   2.0000      -0.296630        -8.0717
  67   0.0000       0.034562         0.9405
  68   0.0000       0.070924         1.9299
  69   0.0000       0.113276         3.0824
  70   0.0000       0.120207         3.2710
  71   0.0000       0.129161         3.5147

MULLIKEN ATOMIC CHARGES
-----------------------
   0 S :    0.123386
   1 C :   -0.149429
   2 C :   -0.116974
   3 C :    0.019091
   4 C :   -0.155691
   5 H :    0.009883
   6 C :    0.072169
   7 H :    0.013732
   8 H :    0.041591
   9 C :   -0.070182
  10 H :    0.014784
  11 H :    0.030771
  12 C :   -0.054358
  13 H :    0.020674
  14 H :    0.045860
  15 H :    0.052654
  16 S :    0.101068
  17 C :   -0.072310
  18 C :   -0.061099
  19 C :   -0.049241
  20 C :   -0.161905
  21 H :    0.040964
  22 C :    0.122861
  23 H :    0.014893
  24 H :    0.031418
  25 C :   -0.133763
  26 H :    0.039950
  27 H :    0.018885
  28 C :   -0.010463
  29 H :    0.036444
  30 H :    0.024303
  31 H :    0.029005
  32 H :    0.077454
  33 H :    0.053575
Sum of atomic charges:    0.0000000

LOEWDIN ATOMIC CHARGES
----------------------
   0 S :    0.431909
   1 C :   -0.215792
   2 C :   -0.067682
   3 C :   -0.071261
   4 C :   -0.216407
   5 H :    0.028465
   6 C :   -0.026284
   7 H :    0.026547
   8 H :    0.035466
   9 C :   -0.034507
  10 H :    0.012409
  11 H :    0.021850
  12 C :   -0.063008
  13 H :    0.018753
  14 H :    0.030142
  15 H :    0.031408
  16 S :    0.397538
  17 C :   -0.185572
  18 C :   -0.075441
  19 C :   -0.049998
  20 C :   -0.196491
  21 H :    0.039206
  22 C :   -0.029582
  23 H :    0.026331
  24 H :    0.035999
  25 C :   -0.047382
  26 H :    0.028156
  27 H :    0.022962
  28 C :   -0.054564
  29 H :    0.023968
  30 H :    0.021185
  31 H :    0.025677
  32 H :    0.045971
  33 H :    0.030029

  Mayer bond orders larger than 0.100000
B(  0-S ,  1-C ) :   1.1654 B(  0-S ,  4-C ) :   1.1599 B(  1-C ,  2-C ) :   1.5761
B(  1-C , 32-H ) :   0.9566 B(  2-C ,  3-C ) :   1.2661 B(  2-C ,  6-C ) :   1.0144
B(  3-C ,  4-C ) :   1.5670 B(  3-C ,  5-H ) :   0.9927 B(  4-C , 20-C ) :   1.0192
B(  6-C ,  7-H ) :   0.9395 B(  6-C ,  8-H ) :   0.9469 B(  6-C ,  9-C ) :   1.0672
B(  9-C , 10-H ) :   0.9610 B(  9-C , 11-H ) :   0.9585 B(  9-C , 12-C ) :   1.0591
B( 12-C , 13-H ) :   0.9786 B( 12-C , 14-H ) :   0.9745 B( 12-C , 15-H ) :   0.9771
B( 16-S , 17-C ) :   1.1309 B( 16-S , 20-C ) :   1.1380 B( 17-C , 18-C ) :   1.6564
B( 17-C , 33-H ) :   0.9660 B( 18-C , 19-C ) :   1.2132 B( 18-C , 21-H ) :   0.9735
B( 19-C , 20-C ) :   1.6139 B( 19-C , 22-C ) :   1.0492 B( 22-C , 23-H ) :   0.9280
B( 22-C , 24-H ) :   0.9285 B( 22-C , 25-C ) :   1.0570 B( 25-C , 26-H ) :   0.9570
B( 25-C , 27-H ) :   0.9544 B( 25-C , 28-C ) :   1.0804 B( 28-C , 29-H ) :   0.9772
B( 28-C , 30-H ) :   0.9744 B( 28-C , 31-H ) :   0.9741

Dispersion correction           -0.014101984
FINAL SINGLE POINT ENERGY     -1339.881746128126

DIPOLE MOMENT
-------------
                                X             Y             Z
Electronic contribution:    -14.56448      18.45702      20.03912
Nuclear contribution   :     14.96397     -18.88025     -20.34889
                        -----------------------------------------
Total Dipole Moment    :      0.39949      -0.42322      -0.30976
                        -----------------------------------------
Magnitude (a.u.)       :      0.65929
Magnitude (Debye)      :      1.67579

Rotational constants in cm-1:     0.016638     0.009497     0.006412
Rotational constants in MHz :   498.801513   284.720054   192.221570

                             ****ORCA TERMINATED NORMALLY****
TOTAL RUN TIME: 0 days 0 hours 0 minutes 33 seconds 396 msec
