                         Program Version 4.2.1 -  RELEASE  -
|  1> ! wB97X-D3 SP def2-SVP
|  2> %pal
|  3> nprocs 16
|  4> end
|  5>
|  6> * xyz 0 1
|  7> S 	 -14.65 	 56.1775 	 61.0035
|  8> C 	 -14.8428 	 54.4136 	 60.87
|  9> C 	 -15.4894 	 53.8985 	 62.0119
| 10> C 	 -15.6994 	 54.9561 	 62.9975
| 11> C 	 -15.2056 	 56.1953 	 62.662
| 12> H 	 -16.1089 	 54.8606 	 64.0097
| 13> C 	 -16.086 	 52.5375 	 62.2829
| 14> H 	 -16.1595 	 52.6423 	 63.318
| 15> H 	 -15.3619 	 51.7538 	 62.0133
| 16> C 	 -17.4978 	 52.1444 	 61.7494
| 17> H 	 -17.4988 	 51.7291 	 60.8016
| 18> H 	 -17.807 	 51.4266 	 62.4395
| 19> C 	 -18.4669 	 53.2795 	 61.7648
| 20> H 	 -19.3766 	 52.9599 	 61.2618
| 21> H 	 -18.6372 	 53.7127 	 62.7534
| 22> H 	 -18.0728 	 54.1162 	 61.1989
| 23> S 	 -15.7437 	 58.9764 	 62.5944
| 24> C 	 -15.7999 	 59.8265 	 64.0904
| 25> C 	 -15.4066 	 59.0116 	 65.1515
| 26> C 	 -14.971 	 57.6815 	 64.7288
| 27> C 	 -15.2643 	 57.4294 	 63.3782
| 28> H 	 -15.322 	 59.4211 	 66.2116
| 29> C 	 -14.6343 	 56.5632 	 65.7128
| 30> H 	 -13.7994 	 56.9527 	 66.26
| 31> H 	 -14.2872 	 55.6956 	 65.1518
| 32> C 	 -15.705 	 56.3051 	 66.7304
| 33> H 	 -16.5853 	 56.0794 	 66.0669
| 34> H 	 -16.0088 	 57.1549 	 67.3173
| 35> C 	 -15.412 	 55.1192 	 67.6631
| 36> H 	 -14.6806 	 55.5027 	 68.4442
| 37> H 	 -14.9361 	 54.2976 	 67.0654
| 38> H 	 -16.2134 	 54.7047 	 68.3062
| 39> H 	 -14.6556 	 53.7863 	 59.9548
| 40> H 	 -15.9705 	 60.9239 	 64.1974
| 41> *
| 42>
| 43>                          ****END OF INPUT****

CARTESIAN COORDINATES (ANGSTROEM)
---------------------------------
  S    -14.650000   56.177500   61.003500
  C    -14.842800   54.413600   60.870000
  C    -15.489400   53.898500   62.011900
  C    -15.699400   54.956100   62.997500
  C    -15.205600   56.195300   62.662000
  H    -16.108900   54.860600   64.009700
  C    -16.086000   52.537500   62.282900
  H    -16.159500   52.642300   63.318000
  H    -15.361900   51.753800   62.013300
  C    -17.497800   52.144400   61.749400
  H    -17.498800   51.729100   60.801600
  H    -17.807000   51.426600   62.439500
  C    -18.466900   53.279500   61.764800
  H    -19.376600   52.959900   61.261800
  H    -18.637200   53.712700   62.753400
  H    -18.072800   54.116200   61.198900
  S    -15.743700   58.976400   62.594400
  C    -15.799900   59.826500   64.090400
  C    -15.406600   59.011600   65.151500
  C    -14.971000   57.681500   64.728800
  C    -15.264300   57.429400   63.378200
  H    -15.322000   59.421100   66.211600
  C    -14.634300   56.563200   65.712800
  H    -13.799400   56.952700   66.260000
  H    -14.287200   55.695600   65.151800
  C    -15.705000   56.305100   66.730400
  H    -16.585300   56.079400   66.066900
  H    -16.008800   57.154900   67.317300
  C    -15.412000   55.119200   67.663100
  H    -14.680600   55.502700   68.444200
  H    -14.936100   54.297600   67.065400
  H    -16.213400   54.704700   68.306200
  H    -14.655600   53.786300   59.954800
  H    -15.970500   60.923900   64.197400

 Total Charge           Charge          ....    0
 Multiplicity           Mult            ....    1
 Number of Electrons    NEL             ....  134
 Basis Dimension        Dim             ....  322

ORBITAL ENERGIES
----------------

  NO   OCC          E(Eh)            E(eV)
   0   2.0000     -88.967366     -2420.9251
   1   2.0000     -88.967142     -2420.9190
   2   2.0000     -10.331420      -281.1322
   3   2.0000     -10.329710      -281.0857
   4   2.0000     -10.324476      -280.9433
   5   2.0000     -10.324251      -280.9371
   6   2.0000     -10.309679      -280.5406
   7   2.0000     -10.308446      -280.5071
   8   2.0000     -10.305045      -280.4145
   9   2.0000     -10.298468      -280.2356
  10   2.0000     -10.290134      -280.0088
  11   2.0000     -10.289473      -279.9908
  12   2.0000     -10.289047      -279.9792
  13   2.0000     -10.288859      -279.9741
  14   2.0000     -10.275639      -279.6143
  15   2.0000     -10.268791      -279.4280
  16   2.0000      -8.081803      -219.9171
  17   2.0000      -8.081391      -219.9058
  18   2.0000      -6.040430      -164.3685
  19   2.0000      -6.040040      -164.3578
  20   2.0000      -6.036334      -164.2570
  21   2.0000      -6.035988      -164.2476
  22   2.0000      -6.032459      -164.1515
  23   2.0000      -6.032004      -164.1392
  24   2.0000      -1.004176       -27.3250
  25   2.0000      -0.978851       -26.6359
  26   2.0000      -0.916928       -24.9509
  27   2.0000      -0.915805       -24.9203
  28   2.0000      -0.871811       -23.7232
  29   2.0000      -0.851626       -23.1739
  30   2.0000      -0.841698       -22.9038
  31   2.0000      -0.811234       -22.0748
  32   2.0000      -0.784553       -21.3488
  33   2.0000      -0.772750       -21.0276
  34   2.0000      -0.710128       -19.3236
  35   2.0000      -0.703283       -19.1373
  36   2.0000      -0.696621       -18.9560
  37   2.0000      -0.655813       -17.8456
  38   2.0000      -0.634264       -17.2592
  39   2.0000      -0.613259       -16.6876
  40   2.0000      -0.593173       -16.1410
  41   2.0000      -0.577164       -15.7054
  42   2.0000      -0.567898       -15.4533
  43   2.0000      -0.550906       -14.9909
  44   2.0000      -0.544950       -14.8288
  45   2.0000      -0.526871       -14.3369
  46   2.0000      -0.517737       -14.0884
  47   2.0000      -0.515253       -14.0207
  48   2.0000      -0.509162       -13.8550
  49   2.0000      -0.497874       -13.5478
  50   2.0000      -0.485298       -13.2056
  51   2.0000      -0.477865       -13.0034
  52   2.0000      -0.472496       -12.8573
  53   2.0000      -0.461884       -12.5685
  54   2.0000      -0.456399       -12.4193
  55   2.0000      -0.454233       -12.3603
  56   2.0000      -0.443174       -12.0594
  57   2.0000      -0.438706       -11.9378
  58   2.0000      -0.435793       -11.8585
  59   2.0000      -0.430096       -11.7035
  60   2.0000      -0.421065       -11.4578
  61   2.0000      -0.412809       -11.2331
  62   2.0000      -0.405031       -11.0214
  63   2.0000      -0.352619        -9.5952
  64   2.0000      -0.330535        -8.9943
  65   2.0000      -0.327761        -8.9188
  66   2.0000      -0.289237        -7.8705
  67   0.0000       0.021549         0.5864
  68   0.0000       0.068907         1.8751
  69   0.0000       0.104844         2.8529
  70   0.0000       0.116610         3.1731
  71   0.0000       0.125394         3.4121

MULLIKEN ATOMIC CHARGES
-----------------------
   0 S :    0.100565
   1 C :   -0.131493
   2 C :   -0.125497
   3 C :   -0.001257
   4 C :   -0.154085
   5 H :    0.016535
   6 C :    0.084009
   7 H :    0.002798
   8 H :    0.036983
   9 C :    0.004024
  10 H :    0.013846
  11 H :    0.017298
  12 C :   -0.062457
  13 H :    0.032437
  14 H :    0.026321
  15 H :    0.039990
  16 S :    0.108618
  17 C :   -0.103376
  18 C :   -0.065533
  19 C :   -0.047838
  20 C :   -0.136701
  21 H :    0.047628
  22 C :    0.063644
  23 H :    0.014347
  24 H :    0.038979
  25 C :   -0.078828
  26 H :    0.028402
  27 H :    0.029910
  28 C :   -0.071250
  29 H :    0.034935
  30 H :    0.039701
  31 H :    0.046477
  32 H :    0.069717
  33 H :    0.081153
Sum of atomic charges:   -0.0000000

LOEWDIN ATOMIC CHARGES
----------------------
   0 S :    0.395319
   1 C :   -0.199941
   2 C :   -0.063040
   3 C :   -0.069512
   4 C :   -0.191779
   5 H :    0.031523
   6 C :   -0.030422
   7 H :    0.023838
   8 H :    0.036284
   9 C :   -0.025111
  10 H :    0.015389
  11 H :    0.021524
  12 C :   -0.063441
  13 H :    0.027146
  14 H :    0.023944
  15 H :    0.027398
  16 S :    0.394956
  17 C :   -0.199591
  18 C :   -0.084646
  19 C :   -0.046267
  20 C :   -0.191315
  21 H :    0.042008
  22 C :   -0.034297
  23 H :    0.027588
  24 H :    0.032374
  25 C :   -0.046748
  26 H :    0.023497
  27 H :    0.023069
  28 C :   -0.075897
  29 H :    0.031209
  30 H :    0.029252
  31 H :    0.030113
  32 H :    0.041928
  33 H :    0.043646

  Mayer bond orders larger than 0.100000
B(  0-S ,  1-C ) :   1.1329 B(  0-S ,  4-C ) :   1.1345 B(  1-C ,  2-C ) :   1.6044
B(  1-C , 32-H ) :   0.9642 B(  2-C ,  3-C ) :   1.2214 B(  2-C ,  6-C ) :   1.0206
B(  3-C ,  4-C ) :   1.5837 B(  3-C ,  5-H ) :   0.9806 B(  4-C , 20-C ) :   1.0880
B(  6-C ,  7-H ) :   0.9318 B(  6-C ,  8-H ) :   0.9376 B(  6-C ,  9-C ) :   1.0662
B(  9-C , 10-H ) :   0.9545 B(  9-C , 11-H ) :   0.9516 B(  9-C , 12-C ) :   1.1011
B( 12-C , 13-H ) :   0.9716 B( 12-C , 14-H ) :   0.9748 B( 12-C , 15-H ) :   0.9660
B( 16-S , 17-C ) :   1.1588 B( 16-S , 20-C ) :   1.1158 B( 17-C , 18-C ) :   1.6127
B( 17-C , 33-H ) :   0.9606 B( 18-C , 19-C ) :   1.2287 B( 18-C , 21-H ) :   0.9757
B( 19-C , 20-C ) :   1.5748 B( 19-C , 22-C ) :   1.0659 B( 22-C , 23-H ) :   0.9144
B( 22-C , 24-H ) :   0.9345 B( 22-C , 25-C ) :   1.0606 B( 25-C , 26-H ) :   0.9534
B( 25-C , 27-H ) :   0.9497 B( 25-C , 28-C ) :   1.0748 B( 28-C , 29-H ) :   0.9736
B( 28-C , 30-H ) :   0.9744 B( 28-C , 31-H ) :   0.9749

Dispersion correction           -0.014797694
FINAL SINGLE POINT ENERGY     -1339.868327682099

DIPOLE MOMENT
-------------
                                X             Y             Z
Electronic contribution:      9.16657      20.40680     -16.64532
Nuclear contribution   :     -9.37844     -20.79470      17.16098
                        -----------------------------------------
Total Dipole Moment    :     -0.21187      -0.38790       0.51566
                        -----------------------------------------
Magnitude (a.u.)       :      0.67916
Magnitude (Debye)      :      1.72629

Rotational constants in cm-1:     0.016946     0.009674     0.007193
Rotational constants in MHz :   508.023994   290.017616   215.645800

                             ****ORCA TERMINATED NORMALLY****
TOTAL RUN TIME: 0 days 0 hours 0 minutes 32 seconds 671 msec
