                         Program Version 4.2.1 -  RELEASE  -
|  1> ! wB97X-D3 SP def2-SVP
|  2> %pal
|  3> nprocs 16
|  4> end
|  5>
|  6> * xyz 0 1
|  7> S 	 -75.1747 	 49.9471 	 136.907
|  8> C 	 -76.2157 	 48.6274 	 137.38
|  9> C 	 -77.5807 	 49.0151 	 137.237
| 10> C 	 -77.6579 	 50.3542 	 136.682
| 11> C 	 -76.4938 	 51.0268 	 136.453
| 12> H 	 -78.557 	 50.8303 	 136.365
| 13> C 	 -78.7914 	 48.0912 	 137.409
| 14> H 	 -78.4391 	 47.0755 	 137.19
| 15> H 	 -79.5071 	 48.3 	 136.669
| 16> C 	 -79.222 	 47.9819 	 138.845
| 17> H 	 -78.4141 	 47.8059 	 139.494
| 18> H 	 -79.6441 	 48.8801 	 139.258
| 19> C 	 -80.2747 	 46.8635 	 138.975
| 20> H 	 -80.0439 	 45.8225 	 138.788
| 21> H 	 -80.7634 	 47.0163 	 139.959
| 22> H 	 -81.0955 	 47.1092 	 138.223
| 23> S 	 -76.7383 	 52.1443 	 134.107
| 24> C 	 -76.4074 	 53.8367 	 133.851
| 25> C 	 -75.8148 	 54.378 	 134.939
| 26> C 	 -75.7532 	 53.4652 	 136.074
| 27> C 	 -76.2726 	 52.2578 	 135.758
| 28> H 	 -75.5662 	 55.4313 	 134.838
| 29> C 	 -75.2739 	 53.9727 	 137.391
| 30> H 	 -74.3763 	 54.5057 	 137.131
| 31> H 	 -74.933 	 53.1806 	 138.112
| 32> C 	 -76.0526 	 55.0276 	 138.138
| 33> H 	 -76.3407 	 55.74 	 137.359
| 34> H 	 -75.2643 	 55.4884 	 138.786
| 35> C 	 -77.2101 	 54.4665 	 139.03
| 36> H 	 -77.7966 	 55.3293 	 139.438
| 37> H 	 -76.8282 	 53.7538 	 139.775
| 38> H 	 -77.9038 	 53.9827 	 138.298
| 39> H 	 -75.9396 	 47.6089 	 137.657
| 40> H 	 -76.6107 	 54.4891 	 133.044
| 41> *
| 42>
| 43>                          ****END OF INPUT****

CARTESIAN COORDINATES (ANGSTROEM)
---------------------------------
  S    -75.174700   49.947100  136.907000
  C    -76.215700   48.627400  137.380000
  C    -77.580700   49.015100  137.237000
  C    -77.657900   50.354200  136.682000
  C    -76.493800   51.026800  136.453000
  H    -78.557000   50.830300  136.365000
  C    -78.791400   48.091200  137.409000
  H    -78.439100   47.075500  137.190000
  H    -79.507100   48.300000  136.669000
  C    -79.222000   47.981900  138.845000
  H    -78.414100   47.805900  139.494000
  H    -79.644100   48.880100  139.258000
  C    -80.274700   46.863500  138.975000
  H    -80.043900   45.822500  138.788000
  H    -80.763400   47.016300  139.959000
  H    -81.095500   47.109200  138.223000
  S    -76.738300   52.144300  134.107000
  C    -76.407400   53.836700  133.851000
  C    -75.814800   54.378000  134.939000
  C    -75.753200   53.465200  136.074000
  C    -76.272600   52.257800  135.758000
  H    -75.566200   55.431300  134.838000
  C    -75.273900   53.972700  137.391000
  H    -74.376300   54.505700  137.131000
  H    -74.933000   53.180600  138.112000
  C    -76.052600   55.027600  138.138000
  H    -76.340700   55.740000  137.359000
  H    -75.264300   55.488400  138.786000
  C    -77.210100   54.466500  139.030000
  H    -77.796600   55.329300  139.438000
  H    -76.828200   53.753800  139.775000
  H    -77.903800   53.982700  138.298000
  H    -75.939600   47.608900  137.657000
  H    -76.610700   54.489100  133.044000

 Total Charge           Charge          ....    0
 Multiplicity           Mult            ....    1
 Number of Electrons    NEL             ....  134
 Basis Dimension        Dim             ....  322

ORBITAL ENERGIES
----------------

  NO   OCC          E(Eh)            E(eV)
   0   2.0000     -88.964166     -2420.8380
   1   2.0000     -88.962679     -2420.7976
   2   2.0000     -10.325413      -280.9688
   3   2.0000     -10.320385      -280.8320
   4   2.0000     -10.319999      -280.8215
   5   2.0000     -10.309868      -280.5458
   6   2.0000     -10.306197      -280.4459
   7   2.0000     -10.303216      -280.3648
   8   2.0000     -10.291758      -280.0530
   9   2.0000     -10.291505      -280.0461
  10   2.0000     -10.289423      -279.9894
  11   2.0000     -10.287884      -279.9475
  12   2.0000     -10.285382      -279.8795
  13   2.0000     -10.283123      -279.8180
  14   2.0000     -10.282760      -279.8081
  15   2.0000     -10.280432      -279.7448
  16   2.0000      -8.078452      -219.8259
  17   2.0000      -8.078282      -219.8212
  18   2.0000      -6.037055      -164.2766
  19   2.0000      -6.036942      -164.2735
  20   2.0000      -6.032816      -164.1613
  21   2.0000      -6.032664      -164.1571
  22   2.0000      -6.029321      -164.0662
  23   2.0000      -6.028796      -164.0519
  24   2.0000      -1.013420       -27.5766
  25   2.0000      -0.983079       -26.7509
  26   2.0000      -0.916801       -24.9474
  27   2.0000      -0.911755       -24.8101
  28   2.0000      -0.876818       -23.8594
  29   2.0000      -0.846051       -23.0222
  30   2.0000      -0.841415       -22.8961
  31   2.0000      -0.818542       -22.2737
  32   2.0000      -0.782118       -21.2825
  33   2.0000      -0.770671       -20.9710
  34   2.0000      -0.708829       -19.2882
  35   2.0000      -0.706129       -19.2147
  36   2.0000      -0.687789       -18.7157
  37   2.0000      -0.663331       -18.0501
  38   2.0000      -0.642878       -17.4936
  39   2.0000      -0.618864       -16.8401
  40   2.0000      -0.599464       -16.3123
  41   2.0000      -0.573788       -15.6136
  42   2.0000      -0.564301       -15.3554
  43   2.0000      -0.545596       -14.8464
  44   2.0000      -0.539426       -14.6785
  45   2.0000      -0.526893       -14.3375
  46   2.0000      -0.519969       -14.1491
  47   2.0000      -0.512517       -13.9463
  48   2.0000      -0.507336       -13.8053
  49   2.0000      -0.502175       -13.6649
  50   2.0000      -0.492954       -13.4140
  51   2.0000      -0.477953       -13.0058
  52   2.0000      -0.471470       -12.8294
  53   2.0000      -0.467736       -12.7278
  54   2.0000      -0.458421       -12.4743
  55   2.0000      -0.440402       -11.9840
  56   2.0000      -0.438121       -11.9219
  57   2.0000      -0.436641       -11.8816
  58   2.0000      -0.430412       -11.7121
  59   2.0000      -0.426072       -11.5940
  60   2.0000      -0.423022       -11.5110
  61   2.0000      -0.411363       -11.1938
  62   2.0000      -0.405833       -11.0433
  63   2.0000      -0.338203        -9.2030
  64   2.0000      -0.334989        -9.1155
  65   2.0000      -0.322568        -8.7775
  66   2.0000      -0.303333        -8.2541
  67   0.0000       0.040448         1.1006
  68   0.0000       0.064889         1.7657
  69   0.0000       0.112785         3.0690
  70   0.0000       0.117882         3.2077
  71   0.0000       0.130613         3.5542

MULLIKEN ATOMIC CHARGES
-----------------------
   0 S :    0.114605
   1 C :   -0.115290
   2 C :   -0.113117
   3 C :    0.037555
   4 C :   -0.150024
   5 H :   -0.004103
   6 C :    0.086045
   7 H :    0.015583
   8 H :    0.019811
   9 C :   -0.028620
  10 H :    0.015732
  11 H :    0.019875
  12 C :   -0.076853
  13 H :    0.042778
  14 H :    0.037023
  15 H :    0.026135
  16 S :    0.120812
  17 C :   -0.062803
  18 C :   -0.071591
  19 C :    0.011988
  20 C :   -0.179798
  21 H :    0.023402
  22 C :    0.052137
  23 H :    0.017031
  24 H :    0.024739
  25 C :   -0.084761
  26 H :    0.023022
  27 H :    0.032997
  28 C :   -0.055118
  29 H :    0.044851
  30 H :    0.048271
  31 H :    0.038415
  32 H :    0.054329
  33 H :    0.034940
Sum of atomic charges:    0.0000000

LOEWDIN ATOMIC CHARGES
----------------------
   0 S :    0.405230
   1 C :   -0.201926
   2 C :   -0.058895
   3 C :   -0.062073
   4 C :   -0.203215
   5 H :    0.023977
   6 C :   -0.026524
   7 H :    0.034516
   8 H :    0.024816
   9 C :   -0.034611
  10 H :    0.019007
  11 H :    0.023485
  12 C :   -0.073021
  13 H :    0.021841
  14 H :    0.029840
  15 H :    0.030042
  16 S :    0.423327
  17 C :   -0.181993
  18 C :   -0.072969
  19 C :   -0.055589
  20 C :   -0.208506
  21 H :    0.033260
  22 C :   -0.042830
  23 H :    0.034366
  24 H :    0.031667
  25 C :   -0.042223
  26 H :    0.022264
  27 H :    0.027718
  28 C :   -0.071696
  29 H :    0.031148
  30 H :    0.029846
  31 H :    0.030975
  32 H :    0.032289
  33 H :    0.026456

  Mayer bond orders larger than 0.100000
B(  0-S ,  1-C ) :   1.1584 B(  0-S ,  4-C ) :   1.1336 B(  1-C ,  2-C ) :   1.5864
B(  1-C ,  4-C ) :   0.1003 B(  1-C , 32-H ) :   0.9665 B(  2-C ,  3-C ) :   1.2422
B(  2-C ,  6-C ) :   1.0209 B(  3-C ,  4-C ) :   1.5883 B(  3-C ,  5-H ) :   1.0007
B(  4-C , 20-C ) :   1.0286 B(  6-C ,  7-H ) :   0.9427 B(  6-C ,  8-H ) :   0.9463
B(  6-C ,  9-C ) :   1.0595 B(  9-C , 10-H ) :   0.9539 B(  9-C , 11-H ) :   0.9517
B(  9-C , 12-C ) :   1.0771 B( 12-C , 13-H ) :   0.9786 B( 12-C , 14-H ) :   0.9745
B( 12-C , 15-H ) :   0.9721 B( 16-S , 17-C ) :   1.1295 B( 16-S , 20-C ) :   1.1383
B( 17-C , 18-C ) :   1.6823 B( 17-C , 33-H ) :   0.9661 B( 18-C , 19-C ) :   1.1742
B( 18-C , 21-H ) :   0.9848 B( 19-C , 20-C ) :   1.6361 B( 19-C , 22-C ) :   1.0622
B( 22-C , 23-H ) :   0.9183 B( 22-C , 24-H ) :   0.9304 B( 22-C , 25-C ) :   1.0818
B( 25-C , 26-H ) :   0.9521 B( 25-C , 27-H ) :   0.9538 B( 25-C , 28-C ) :   1.0705
B( 28-C , 29-H ) :   0.9740 B( 28-C , 30-H ) :   0.9735 B( 28-C , 31-H ) :   0.9770

Dispersion correction           -0.013886291
FINAL SINGLE POINT ENERGY     -1339.868003015788

DIPOLE MOMENT
-------------
                                X             Y             Z
Electronic contribution:     13.88925       0.89904     -18.75334
Nuclear contribution   :    -14.19880      -0.74382      18.90959
                        -----------------------------------------
Total Dipole Moment    :     -0.30955       0.15522       0.15624
                        -----------------------------------------
Magnitude (a.u.)       :      0.37990
Magnitude (Debye)      :      0.96564

Rotational constants in cm-1:     0.020796     0.007472     0.006686
Rotational constants in MHz :   623.456397   224.019790   200.440555

                             ****ORCA TERMINATED NORMALLY****
TOTAL RUN TIME: 0 days 0 hours 0 minutes 32 seconds 475 msec
