                         Program Version 4.2.1 -  RELEASE  -
|  1> ! wB97X-D3 SP def2-SVP
|  2> %pal
|  3> nprocs 16
|  4> end
|  5>
|  6> * xyz 0 1
|  7> S 	 0.263033 	 -21.5861 	 63.2376
|  8> C 	 0.370086 	 -22.1883 	 61.5828
|  9> C 	 -0.672014 	 -21.677 	 60.878
| 10> C 	 -1.48459 	 -20.7725 	 61.6739
| 11> C 	 -1.12718 	 -20.6134 	 62.9858
| 12> H 	 -2.39407 	 -20.2642 	 61.359
| 13> C 	 -1.0756 	 -21.9872 	 59.4267
| 14> H 	 -0.13954 	 -22.0136 	 58.8202
| 15> H 	 -1.64103 	 -21.0971 	 59.0747
| 16> C 	 -2.05081 	 -23.1765 	 59.3687
| 17> H 	 -2.37054 	 -23.4564 	 58.3439
| 18> H 	 -1.56084 	 -24.1249 	 59.8151
| 19> C 	 -3.46711 	 -22.9229 	 60.117
| 20> H 	 -3.96235 	 -22.0885 	 59.6429
| 21> H 	 -4.23259 	 -23.772 	 59.9842
| 22> H 	 -3.39665 	 -22.9202 	 61.198
| 23> S 	 -2.41844 	 -21.2504 	 65.2939
| 24> C 	 -3.06441 	 -20.0666 	 66.3172
| 25> C 	 -2.86335 	 -18.8152 	 65.7741
| 26> C 	 -2.29337 	 -18.8388 	 64.452
| 27> C 	 -1.956 	 -20.1121 	 64.0334
| 28> H 	 -3.16051 	 -17.8692 	 66.3127
| 29> C 	 -1.82933 	 -17.6355 	 63.6129
| 30> H 	 -2.58141 	 -16.9236 	 63.6475
| 31> H 	 -1.66865 	 -17.9418 	 62.6136
| 32> C 	 -0.460351 	 -16.9666 	 64.1035
| 33> H 	 0.317045 	 -17.7069 	 63.8467
| 34> H 	 -0.496325 	 -16.8695 	 65.1394
| 35> C 	 -0.177623 	 -15.4926 	 63.4929
| 36> H 	 -0.949821 	 -14.8977 	 63.8482
| 37> H 	 -0.0786421 	 -15.4097 	 62.4118
| 38> H 	 0.793422 	 -15.1959 	 63.8375
| 39> H 	 1.12943 	 -22.7777 	 61.1204
| 40> H 	 -3.3688 	 -20.0839 	 67.312
| 41> *
| 42>
| 43>                          ****END OF INPUT****

CARTESIAN COORDINATES (ANGSTROEM)
---------------------------------
  S      0.263033  -21.586100   63.237600
  C      0.370086  -22.188300   61.582800
  C     -0.672014  -21.677000   60.878000
  C     -1.484590  -20.772500   61.673900
  C     -1.127180  -20.613400   62.985800
  H     -2.394070  -20.264200   61.359000
  C     -1.075600  -21.987200   59.426700
  H     -0.139540  -22.013600   58.820200
  H     -1.641030  -21.097100   59.074700
  C     -2.050810  -23.176500   59.368700
  H     -2.370540  -23.456400   58.343900
  H     -1.560840  -24.124900   59.815100
  C     -3.467110  -22.922900   60.117000
  H     -3.962350  -22.088500   59.642900
  H     -4.232590  -23.772000   59.984200
  H     -3.396650  -22.920200   61.198000
  S     -2.418440  -21.250400   65.293900
  C     -3.064410  -20.066600   66.317200
  C     -2.863350  -18.815200   65.774100
  C     -2.293370  -18.838800   64.452000
  C     -1.956000  -20.112100   64.033400
  H     -3.160510  -17.869200   66.312700
  C     -1.829330  -17.635500   63.612900
  H     -2.581410  -16.923600   63.647500
  H     -1.668650  -17.941800   62.613600
  C     -0.460351  -16.966600   64.103500
  H      0.317045  -17.706900   63.846700
  H     -0.496325  -16.869500   65.139400
  C     -0.177623  -15.492600   63.492900
  H     -0.949821  -14.897700   63.848200
  H     -0.078642  -15.409700   62.411800
  H      0.793422  -15.195900   63.837500
  H      1.129430  -22.777700   61.120400
  H     -3.368800  -20.083900   67.312000

 Total Charge           Charge          ....    0
 Multiplicity           Mult            ....    1
 Number of Electrons    NEL             ....  134
 Basis Dimension        Dim             ....  322

ORBITAL ENERGIES
----------------

  NO   OCC          E(Eh)            E(eV)
   0   2.0000     -88.964515     -2420.8475
   1   2.0000     -88.964466     -2420.8462
   2   2.0000     -10.324591      -280.9464
   3   2.0000     -10.323831      -280.9257
   4   2.0000     -10.314691      -280.6770
   5   2.0000     -10.309895      -280.5465
   6   2.0000     -10.303869      -280.3825
   7   2.0000     -10.303773      -280.3799
   8   2.0000     -10.302714      -280.3511
   9   2.0000     -10.302439      -280.3436
  10   2.0000     -10.297362      -280.2055
  11   2.0000     -10.292553      -280.0746
  12   2.0000     -10.287215      -279.9293
  13   2.0000     -10.286383      -279.9067
  14   2.0000     -10.283404      -279.8257
  15   2.0000     -10.275857      -279.6203
  16   2.0000      -8.079986      -219.8676
  17   2.0000      -8.079496      -219.8543
  18   2.0000      -6.038499      -164.3159
  19   2.0000      -6.038092      -164.3048
  20   2.0000      -6.034201      -164.1990
  21   2.0000      -6.033821      -164.1886
  22   2.0000      -6.030829      -164.1072
  23   2.0000      -6.030223      -164.0907
  24   2.0000      -1.014592       -27.6084
  25   2.0000      -0.989806       -26.9340
  26   2.0000      -0.907427       -24.6924
  27   2.0000      -0.897215       -24.4145
  28   2.0000      -0.872144       -23.7322
  29   2.0000      -0.843574       -22.9548
  30   2.0000      -0.833241       -22.6736
  31   2.0000      -0.817707       -22.2509
  32   2.0000      -0.782579       -21.2951
  33   2.0000      -0.775750       -21.1092
  34   2.0000      -0.712068       -19.3764
  35   2.0000      -0.702447       -19.1146
  36   2.0000      -0.696814       -18.9613
  37   2.0000      -0.658596       -17.9213
  38   2.0000      -0.643808       -17.5189
  39   2.0000      -0.613176       -16.6854
  40   2.0000      -0.591040       -16.0830
  41   2.0000      -0.572703       -15.5840
  42   2.0000      -0.563548       -15.3349
  43   2.0000      -0.549483       -14.9522
  44   2.0000      -0.539528       -14.6813
  45   2.0000      -0.522681       -14.2229
  46   2.0000      -0.519979       -14.1494
  47   2.0000      -0.509486       -13.8638
  48   2.0000      -0.508083       -13.8256
  49   2.0000      -0.497898       -13.5485
  50   2.0000      -0.485008       -13.1977
  51   2.0000      -0.479903       -13.0588
  52   2.0000      -0.471561       -12.8318
  53   2.0000      -0.466664       -12.6986
  54   2.0000      -0.459193       -12.4953
  55   2.0000      -0.442933       -12.0528
  56   2.0000      -0.440697       -11.9920
  57   2.0000      -0.434163       -11.8142
  58   2.0000      -0.433397       -11.7933
  59   2.0000      -0.428702       -11.6656
  60   2.0000      -0.414866       -11.2891
  61   2.0000      -0.411113       -11.1869
  62   2.0000      -0.408779       -11.1234
  63   2.0000      -0.347212        -9.4481
  64   2.0000      -0.332890        -9.0584
  65   2.0000      -0.324067        -8.8183
  66   2.0000      -0.300858        -8.1868
  67   0.0000       0.034944         0.9509
  68   0.0000       0.064375         1.7517
  69   0.0000       0.119894         3.2625
  70   0.0000       0.124751         3.3946
  71   0.0000       0.135720         3.6931

MULLIKEN ATOMIC CHARGES
-----------------------
   0 S :    0.105287
   1 C :   -0.108365
   2 C :   -0.102883
   3 C :    0.029800
   4 C :   -0.147864
   5 H :    0.014001
   6 C :    0.071399
   7 H :    0.042756
   8 H :    0.028023
   9 C :   -0.089655
  10 H :    0.041357
  11 H :    0.043364
  12 C :   -0.100798
  13 H :    0.035594
  14 H :    0.038050
  15 H :    0.057474
  16 S :    0.118244
  17 C :   -0.046447
  18 C :   -0.086254
  19 C :   -0.048535
  20 C :   -0.169348
  21 H :    0.037112
  22 C :    0.117737
  23 H :   -0.000559
  24 H :    0.012280
  25 C :   -0.084155
  26 H :    0.037366
  27 H :    0.017649
  28 C :   -0.029654
  29 H :    0.027230
  30 H :    0.033208
  31 H :    0.030124
  32 H :    0.039617
  33 H :    0.036843
Sum of atomic charges:    0.0000000

LOEWDIN ATOMIC CHARGES
----------------------
   0 S :    0.414276
   1 C :   -0.188512
   2 C :   -0.065832
   3 C :   -0.059983
   4 C :   -0.216981
   5 H :    0.028961
   6 C :   -0.037831
   7 H :    0.036294
   8 H :    0.033230
   9 C :   -0.043928
  10 H :    0.025411
  11 H :    0.030814
  12 C :   -0.075690
  13 H :    0.021175
  14 H :    0.035784
  15 H :    0.026275
  16 S :    0.431143
  17 C :   -0.200150
  18 C :   -0.081501
  19 C :   -0.052539
  20 C :   -0.199208
  21 H :    0.038442
  22 C :   -0.019322
  23 H :    0.014831
  24 H :    0.023741
  25 C :   -0.023592
  26 H :    0.026300
  27 H :    0.011768
  28 C :   -0.056296
  29 H :    0.015801
  30 H :    0.025687
  31 H :    0.025896
  32 H :    0.030274
  33 H :    0.025261

  Mayer bond orders larger than 0.100000
B(  0-S ,  1-C ) :   1.1304 B(  0-S ,  4-C ) :   1.1454 B(  1-C ,  2-C ) :   1.6211
B(  1-C , 32-H ) :   0.9753 B(  2-C ,  3-C ) :   1.2439 B(  2-C ,  6-C ) :   1.0064
B(  3-C ,  4-C ) :   1.5762 B(  3-C ,  5-H ) :   0.9863 B(  4-C , 20-C ) :   1.0420
B(  6-C ,  7-H ) :   0.9461 B(  6-C ,  8-H ) :   0.9446 B(  6-C ,  9-C ) :   1.0543
B(  9-C , 10-H ) :   0.9619 B(  9-C , 11-H ) :   0.9596 B(  9-C , 12-C ) :   1.0608
B( 12-C , 13-H ) :   0.9763 B( 12-C , 14-H ) :   0.9756 B( 12-C , 15-H ) :   0.9738
B( 16-S , 17-C ) :   1.1680 B( 16-S , 20-C ) :   1.1408 B( 17-C , 18-C ) :   1.6010
B( 17-C , 33-H ) :   0.9695 B( 18-C , 19-C ) :   1.2612 B( 18-C , 21-H ) :   0.9789
B( 19-C , 20-C ) :   1.5849 B( 19-C , 22-C ) :   1.0547 B( 22-C , 23-H ) :   0.9312
B( 22-C , 24-H ) :   0.9314 B( 22-C , 25-C ) :   1.0562 B( 25-C , 26-H ) :   0.9613
B( 25-C , 27-H ) :   0.9625 B( 25-C , 28-C ) :   1.0656 B( 28-C , 29-H ) :   0.9791
B( 28-C , 30-H ) :   0.9805 B( 28-C , 31-H ) :   0.9763

Dispersion correction           -0.014685516
FINAL SINGLE POINT ENERGY     -1339.858006885420

DIPOLE MOMENT
-------------
                                X             Y             Z
Electronic contribution:      3.20953     -10.91231      15.44978
Nuclear contribution   :     -3.31861      11.20771     -15.79426
                        -----------------------------------------
Total Dipole Moment    :     -0.10908       0.29541      -0.34448
                        -----------------------------------------
Magnitude (a.u.)       :      0.46672
Magnitude (Debye)      :      1.18632

Rotational constants in cm-1:     0.018430     0.008687     0.007407
Rotational constants in MHz :   552.518068   260.416074   222.061125

                             ****ORCA TERMINATED NORMALLY****
TOTAL RUN TIME: 0 days 0 hours 0 minutes 33 seconds 231 msec
