                         Program Version 4.2.1 -  RELEASE  -
|  1> ! wB97X-D3 SP def2-SVP
|  2> %pal
|  3> nprocs 16
|  4> end
|  5>
|  6> * xyz 0 1
|  7> S 	 -65.8261 	 45.0168 	 121.504
|  8> C 	 -65.9618 	 44.1335 	 123.06
|  9> C 	 -66.5001 	 44.9349 	 124.025
| 10> C 	 -66.7014 	 46.2556 	 123.54
| 11> C 	 -66.3039 	 46.5161 	 122.253
| 12> H 	 -67.0908 	 47.0576 	 124.156
| 13> C 	 -66.7158 	 44.5758 	 125.502
| 14> H 	 -66.2381 	 43.6349 	 125.656
| 15> H 	 -67.7357 	 44.3001 	 125.83
| 16> C 	 -66.1735 	 45.6039 	 126.537
| 17> H 	 -65.0651 	 45.617 	 126.411
| 18> H 	 -66.6233 	 46.5325 	 126.38
| 19> C 	 -66.6499 	 45.3028 	 127.93
| 20> H 	 -67.7332 	 45.4566 	 128.025
| 21> H 	 -66.4381 	 44.3005 	 128.241
| 22> H 	 -66.209 	 45.8975 	 128.727
| 23> S 	 -67.2153 	 47.8753 	 119.992
| 24> C 	 -66.5947 	 49.5414 	 119.674
| 25> C 	 -65.8753 	 49.968 	 120.733
| 26> C 	 -65.7464 	 49.0152 	 121.819
| 27> C 	 -66.3908 	 47.7819 	 121.493
| 28> H 	 -65.4422 	 50.9216 	 120.59
| 29> C 	 -64.9019 	 49.2847 	 123.038
| 30> H 	 -64.1708 	 50.1051 	 122.88
| 31> H 	 -64.3615 	 48.3556 	 123.241
| 32> C 	 -65.7227 	 49.666 	 124.307
| 33> H 	 -66.5144 	 48.9958 	 124.445
| 34> H 	 -66.222 	 50.6248 	 124.096
| 35> C 	 -64.8853 	 49.8344 	 125.578
| 36> H 	 -64.1622 	 49.0644 	 125.776
| 37> H 	 -65.4498 	 50.1418 	 126.474
| 38> H 	 -64.2813 	 50.7161 	 125.461
| 39> H 	 -65.6786 	 43.1246 	 123.211
| 40> H 	 -66.6367 	 49.9649 	 118.678
| 41> *
| 42>
| 43>                          ****END OF INPUT****

CARTESIAN COORDINATES (ANGSTROEM)
---------------------------------
  S    -65.826100   45.016800  121.504000
  C    -65.961800   44.133500  123.060000
  C    -66.500100   44.934900  124.025000
  C    -66.701400   46.255600  123.540000
  C    -66.303900   46.516100  122.253000
  H    -67.090800   47.057600  124.156000
  C    -66.715800   44.575800  125.502000
  H    -66.238100   43.634900  125.656000
  H    -67.735700   44.300100  125.830000
  C    -66.173500   45.603900  126.537000
  H    -65.065100   45.617000  126.411000
  H    -66.623300   46.532500  126.380000
  C    -66.649900   45.302800  127.930000
  H    -67.733200   45.456600  128.025000
  H    -66.438100   44.300500  128.241000
  H    -66.209000   45.897500  128.727000
  S    -67.215300   47.875300  119.992000
  C    -66.594700   49.541400  119.674000
  C    -65.875300   49.968000  120.733000
  C    -65.746400   49.015200  121.819000
  C    -66.390800   47.781900  121.493000
  H    -65.442200   50.921600  120.590000
  C    -64.901900   49.284700  123.038000
  H    -64.170800   50.105100  122.880000
  H    -64.361500   48.355600  123.241000
  C    -65.722700   49.666000  124.307000
  H    -66.514400   48.995800  124.445000
  H    -66.222000   50.624800  124.096000
  C    -64.885300   49.834400  125.578000
  H    -64.162200   49.064400  125.776000
  H    -65.449800   50.141800  126.474000
  H    -64.281300   50.716100  125.461000
  H    -65.678600   43.124600  123.211000
  H    -66.636700   49.964900  118.678000

 Total Charge           Charge          ....    0
 Multiplicity           Mult            ....    1
 Number of Electrons    NEL             ....  134
 Basis Dimension        Dim             ....  322

ORBITAL ENERGIES
----------------

  NO   OCC          E(Eh)            E(eV)
   0   2.0000     -88.965858     -2420.8841
   1   2.0000     -88.963848     -2420.8294
   2   2.0000     -10.332113      -281.1511
   3   2.0000     -10.331226      -281.1269
   4   2.0000     -10.317270      -280.7472
   5   2.0000     -10.316475      -280.7255
   6   2.0000     -10.309651      -280.5399
   7   2.0000     -10.302721      -280.3513
   8   2.0000     -10.294938      -280.1395
   9   2.0000     -10.294028      -280.1147
  10   2.0000     -10.293099      -280.0895
  11   2.0000     -10.291411      -280.0435
  12   2.0000     -10.286587      -279.9123
  13   2.0000     -10.283460      -279.8272
  14   2.0000     -10.276491      -279.6375
  15   2.0000     -10.275531      -279.6114
  16   2.0000      -8.080130      -219.8715
  17   2.0000      -8.078567      -219.8290
  18   2.0000      -6.038742      -164.3225
  19   2.0000      -6.037113      -164.2782
  20   2.0000      -6.034744      -164.2137
  21   2.0000      -6.033015      -164.1667
  22   2.0000      -6.030742      -164.1048
  23   2.0000      -6.029343      -164.0668
  24   2.0000      -1.004786       -27.3416
  25   2.0000      -0.982373       -26.7317
  26   2.0000      -0.914074       -24.8732
  27   2.0000      -0.905658       -24.6442
  28   2.0000      -0.874512       -23.7967
  29   2.0000      -0.847515       -23.0620
  30   2.0000      -0.846203       -23.0264
  31   2.0000      -0.821003       -22.3406
  32   2.0000      -0.783815       -21.3287
  33   2.0000      -0.770043       -20.9539
  34   2.0000      -0.712622       -19.3914
  35   2.0000      -0.702715       -19.1219
  36   2.0000      -0.693600       -18.8738
  37   2.0000      -0.659470       -17.9451
  38   2.0000      -0.645173       -17.5560
  39   2.0000      -0.624301       -16.9881
  40   2.0000      -0.594427       -16.1752
  41   2.0000      -0.575996       -15.6737
  42   2.0000      -0.571660       -15.5557
  43   2.0000      -0.563100       -15.3227
  44   2.0000      -0.525385       -14.2964
  45   2.0000      -0.522875       -14.2282
  46   2.0000      -0.518272       -14.1029
  47   2.0000      -0.513689       -13.9782
  48   2.0000      -0.504803       -13.7364
  49   2.0000      -0.497779       -13.5453
  50   2.0000      -0.494173       -13.4471
  51   2.0000      -0.482761       -13.1366
  52   2.0000      -0.468816       -12.7571
  53   2.0000      -0.465100       -12.6560
  54   2.0000      -0.459215       -12.4959
  55   2.0000      -0.451717       -12.2918
  56   2.0000      -0.444867       -12.1054
  57   2.0000      -0.434006       -11.8099
  58   2.0000      -0.429793       -11.6953
  59   2.0000      -0.425688       -11.5836
  60   2.0000      -0.423220       -11.5164
  61   2.0000      -0.420123       -11.4321
  62   2.0000      -0.416685       -11.3386
  63   2.0000      -0.348729        -9.4894
  64   2.0000      -0.332894        -9.0585
  65   2.0000      -0.327438        -8.9101
  66   2.0000      -0.295921        -8.0524
  67   0.0000       0.028734         0.7819
  68   0.0000       0.069206         1.8832
  69   0.0000       0.112419         3.0591
  70   0.0000       0.126989         3.4555
  71   0.0000       0.127717         3.4754

MULLIKEN ATOMIC CHARGES
-----------------------
   0 S :    0.104669
   1 C :   -0.120831
   2 C :   -0.042548
   3 C :    0.027748
   4 C :   -0.150064
   5 H :    0.001349
   6 C :    0.069170
   7 H :   -0.000529
   8 H :    0.030658
   9 C :   -0.063386
  10 H :    0.047239
  11 H :    0.023951
  12 C :   -0.052439
  13 H :    0.031553
  14 H :    0.015162
  15 H :    0.031500
  16 S :    0.093934
  17 C :   -0.115831
  18 C :   -0.004583
  19 C :   -0.028457
  20 C :   -0.149579
  21 H :    0.009077
  22 C :    0.056631
  23 H :    0.026638
  24 H :    0.037738
  25 C :   -0.051485
  26 H :    0.000694
  27 H :    0.021379
  28 C :   -0.023585
  29 H :    0.030272
  30 H :    0.035335
  31 H :    0.009599
  32 H :    0.033044
  33 H :    0.065976
Sum of atomic charges:    0.0000000

LOEWDIN ATOMIC CHARGES
----------------------
   0 S :    0.391405
   1 C :   -0.170113
   2 C :   -0.063410
   3 C :   -0.060880
   4 C :   -0.193383
   5 H :    0.026168
   6 C :   -0.030524
   7 H :    0.023876
   8 H :    0.033236
   9 C :   -0.036247
  10 H :    0.031943
  11 H :    0.016934
  12 C :   -0.065197
  13 H :    0.028141
  14 H :    0.017064
  15 H :    0.028270
  16 S :    0.392492
  17 C :   -0.169831
  18 C :   -0.064865
  19 C :   -0.052416
  20 C :   -0.208943
  21 H :    0.029818
  22 C :   -0.031604
  23 H :    0.032942
  24 H :    0.033774
  25 C :   -0.034103
  26 H :    0.006656
  27 H :    0.026917
  28 C :   -0.069928
  29 H :    0.022862
  30 H :    0.032034
  31 H :    0.023168
  32 H :    0.022006
  33 H :    0.031739

  Mayer bond orders larger than 0.100000
B(  0-S ,  1-C ) :   1.1320 B(  0-S ,  4-C ) :   1.1398 B(  1-C ,  2-C ) :   1.6253
B(  1-C , 32-H ) :   0.9706 B(  2-C ,  3-C ) :   1.2376 B(  2-C ,  6-C ) :   1.0143
B(  3-C ,  4-C ) :   1.5924 B(  3-C ,  5-H ) :   0.9904 B(  4-C , 20-C ) :   1.0299
B(  6-C ,  7-H ) :   0.9360 B(  6-C ,  8-H ) :   0.9384 B(  6-C ,  9-C ) :   1.0627
B(  9-C , 10-H ) :   0.9572 B(  9-C , 11-H ) :   0.9516 B(  9-C , 12-C ) :   1.0876
B( 12-C , 13-H ) :   0.9727 B( 12-C , 14-H ) :   0.9745 B( 12-C , 15-H ) :   0.9712
B( 16-S , 17-C ) :   1.1273 B( 16-S , 20-C ) :   1.1613 B( 17-C , 18-C ) :   1.6370
B( 17-C , 33-H ) :   0.9669 B( 18-C , 19-C ) :   1.2243 B( 18-C , 21-H ) :   0.9961
B( 19-C , 20-C ) :   1.5633 B( 19-C , 22-C ) :   1.0569 B( 22-C , 23-H ) :   0.9418
B( 22-C , 24-H ) :   0.9241 B( 22-C , 25-C ) :   1.0582 B( 25-C , 26-H ) :   0.9602
B( 25-C , 27-H ) :   0.9479 B( 25-C , 28-C ) :   1.0815 B( 28-C , 29-H ) :   0.9753
B( 28-C , 30-H ) :   0.9716 B( 28-C , 31-H ) :   0.9686

Dispersion correction           -0.014737868
FINAL SINGLE POINT ENERGY     -1339.880553691146

DIPOLE MOMENT
-------------
                                X             Y             Z
Electronic contribution:     -4.63575      -6.26241     -32.98180
Nuclear contribution   :      4.87573       6.52575      33.62628
                        -----------------------------------------
Total Dipole Moment    :      0.23997       0.26334       0.64448
                        -----------------------------------------
Magnitude (a.u.)       :      0.73641
Magnitude (Debye)      :      1.87180

Rotational constants in cm-1:     0.018143     0.009599     0.006758
Rotational constants in MHz :   543.907875   287.771535   202.598461

                             ****ORCA TERMINATED NORMALLY****
TOTAL RUN TIME: 0 days 0 hours 0 minutes 34 seconds 933 msec
