                         Program Version 4.2.1 -  RELEASE  -
|  1> ! wB97X-D3 SP def2-SVP
|  2> %pal
|  3> nprocs 16
|  4> end
|  5>
|  6> * xyz 0 1
|  7> S 	 3.42875 	 -17.2158 	 80.7647
|  8> C 	 2.52329 	 -17.3672 	 82.2388
|  9> C 	 1.39296 	 -16.5587 	 82.2176
| 10> C 	 1.21447 	 -15.9139 	 80.9384
| 11> C 	 2.14769 	 -16.2888 	 80.0203
| 12> H 	 0.433065 	 -15.2005 	 80.6736
| 13> C 	 0.518774 	 -16.2984 	 83.451
| 14> H 	 0.991087 	 -15.6049 	 84.2333
| 15> H 	 0.606967 	 -17.2614 	 83.9965
| 16> C 	 -0.976991 	 -16.2586 	 83.203
| 17> H 	 -1.12508 	 -15.5099 	 82.446
| 18> H 	 -1.32103 	 -17.1455 	 82.8301
| 19> C 	 -1.88417 	 -15.7458 	 84.3012
| 20> H 	 -1.94023 	 -16.4784 	 85.1047
| 21> H 	 -1.5282 	 -14.8584 	 84.8081
| 22> H 	 -2.84709 	 -15.4425 	 83.9563
| 23> S 	 2.45515 	 -17.2801 	 77.477
| 24> C 	 2.58664 	 -16.0923 	 76.1178
| 25> C 	 2.44797 	 -14.7794 	 76.6014
| 26> C 	 2.07995 	 -14.7012 	 78.0038
| 27> C 	 2.11347 	 -15.978 	 78.6144
| 28> H 	 2.42365 	 -13.9421 	 75.9391
| 29> C 	 1.90301 	 -13.3783 	 78.7425
| 30> H 	 1.30034 	 -13.5439 	 79.67
| 31> H 	 1.40327 	 -12.6785 	 78.1035
| 32> C 	 3.27804 	 -12.88 	 79.2414
| 33> H 	 3.86281 	 -12.9039 	 78.3357
| 34> H 	 3.73755 	 -13.6535 	 79.9622
| 35> C 	 3.2422 	 -11.5427 	 80.03
| 36> H 	 2.59532 	 -11.4372 	 80.8916
| 37> H 	 2.85997 	 -10.6928 	 79.43
| 38> H 	 4.20051 	 -11.2094 	 80.4714
| 39> H 	 2.80198 	 -17.9458 	 83.1251
| 40> H 	 2.75456 	 -16.2218 	 75.0204
| 41> *
| 42>
| 43>                          ****END OF INPUT****

CARTESIAN COORDINATES (ANGSTROEM)
---------------------------------
  S      3.428750  -17.215800   80.764700
  C      2.523290  -17.367200   82.238800
  C      1.392960  -16.558700   82.217600
  C      1.214470  -15.913900   80.938400
  C      2.147690  -16.288800   80.020300
  H      0.433065  -15.200500   80.673600
  C      0.518774  -16.298400   83.451000
  H      0.991087  -15.604900   84.233300
  H      0.606967  -17.261400   83.996500
  C     -0.976991  -16.258600   83.203000
  H     -1.125080  -15.509900   82.446000
  H     -1.321030  -17.145500   82.830100
  C     -1.884170  -15.745800   84.301200
  H     -1.940230  -16.478400   85.104700
  H     -1.528200  -14.858400   84.808100
  H     -2.847090  -15.442500   83.956300
  S      2.455150  -17.280100   77.477000
  C      2.586640  -16.092300   76.117800
  C      2.447970  -14.779400   76.601400
  C      2.079950  -14.701200   78.003800
  C      2.113470  -15.978000   78.614400
  H      2.423650  -13.942100   75.939100
  C      1.903010  -13.378300   78.742500
  H      1.300340  -13.543900   79.670000
  H      1.403270  -12.678500   78.103500
  C      3.278040  -12.880000   79.241400
  H      3.862810  -12.903900   78.335700
  H      3.737550  -13.653500   79.962200
  C      3.242200  -11.542700   80.030000
  H      2.595320  -11.437200   80.891600
  H      2.859970  -10.692800   79.430000
  H      4.200510  -11.209400   80.471400
  H      2.801980  -17.945800   83.125100
  H      2.754560  -16.221800   75.020400

 Total Charge           Charge          ....    0
 Multiplicity           Mult            ....    1
 Number of Electrons    NEL             ....  134
 Basis Dimension        Dim             ....  322

ORBITAL ENERGIES
----------------

  NO   OCC          E(Eh)            E(eV)
   0   2.0000     -88.971968     -2421.0503
   1   2.0000     -88.968207     -2420.9480
   2   2.0000     -10.329166      -281.0709
   3   2.0000     -10.328931      -281.0645
   4   2.0000     -10.325536      -280.9721
   5   2.0000     -10.314430      -280.6699
   6   2.0000     -10.309314      -280.5307
   7   2.0000     -10.304322      -280.3949
   8   2.0000     -10.299490      -280.2634
   9   2.0000     -10.298670      -280.2410
  10   2.0000     -10.295051      -280.1426
  11   2.0000     -10.293654      -280.1046
  12   2.0000     -10.292345      -280.0690
  13   2.0000     -10.281246      -279.7669
  14   2.0000     -10.276645      -279.6417
  15   2.0000     -10.273684      -279.5612
  16   2.0000      -8.085057      -220.0056
  17   2.0000      -8.083013      -219.9500
  18   2.0000      -6.043788      -164.4598
  19   2.0000      -6.041560      -164.3992
  20   2.0000      -6.039747      -164.3499
  21   2.0000      -6.037570      -164.2906
  22   2.0000      -6.035698      -164.2397
  23   2.0000      -6.033659      -164.1842
  24   2.0000      -1.006081       -27.3769
  25   2.0000      -0.976549       -26.5732
  26   2.0000      -0.913902       -24.8685
  27   2.0000      -0.904257       -24.6061
  28   2.0000      -0.871446       -23.7133
  29   2.0000      -0.849878       -23.1263
  30   2.0000      -0.842000       -22.9120
  31   2.0000      -0.815511       -22.1912
  32   2.0000      -0.783192       -21.3117
  33   2.0000      -0.769444       -20.9376
  34   2.0000      -0.712188       -19.3796
  35   2.0000      -0.697598       -18.9826
  36   2.0000      -0.690440       -18.7878
  37   2.0000      -0.661212       -17.9925
  38   2.0000      -0.640746       -17.4356
  39   2.0000      -0.621277       -16.9058
  40   2.0000      -0.588436       -16.0122
  41   2.0000      -0.568502       -15.4697
  42   2.0000      -0.565240       -15.3810
  43   2.0000      -0.559997       -15.2383
  44   2.0000      -0.527709       -14.3597
  45   2.0000      -0.520679       -14.1684
  46   2.0000      -0.514474       -13.9995
  47   2.0000      -0.508447       -13.8356
  48   2.0000      -0.504422       -13.7260
  49   2.0000      -0.497551       -13.5391
  50   2.0000      -0.494782       -13.4637
  51   2.0000      -0.479891       -13.0585
  52   2.0000      -0.473792       -12.8925
  53   2.0000      -0.464993       -12.6531
  54   2.0000      -0.453577       -12.3425
  55   2.0000      -0.452904       -12.3242
  56   2.0000      -0.443830       -12.0772
  57   2.0000      -0.441727       -12.0200
  58   2.0000      -0.430252       -11.7077
  59   2.0000      -0.428871       -11.6702
  60   2.0000      -0.422966       -11.5095
  61   2.0000      -0.410970       -11.1831
  62   2.0000      -0.401155       -10.9160
  63   2.0000      -0.348095        -9.4722
  64   2.0000      -0.333507        -9.0752
  65   2.0000      -0.327366        -8.9081
  66   2.0000      -0.288395        -7.8476
  67   0.0000       0.024503         0.6667
  68   0.0000       0.066065         1.7977
  69   0.0000       0.109282         2.9737
  70   0.0000       0.111418         3.0318
  71   0.0000       0.126031         3.4295

MULLIKEN ATOMIC CHARGES
-----------------------
   0 S :    0.127868
   1 C :   -0.130218
   2 C :   -0.084707
   3 C :    0.013809
   4 C :   -0.153407
   5 H :    0.029183
   6 C :    0.035852
   7 H :    0.060015
   8 H :    0.014164
   9 C :   -0.045964
  10 H :    0.016451
  11 H :    0.016387
  12 C :   -0.023805
  13 H :    0.021987
  14 H :    0.014958
  15 H :    0.028048
  16 S :    0.116858
  17 C :   -0.108624
  18 C :   -0.029277
  19 C :   -0.055379
  20 C :   -0.161938
  21 H :    0.015354
  22 C :    0.076402
  23 H :    0.017739
  24 H :    0.025199
  25 C :   -0.080817
  26 H :    0.026335
  27 H :    0.052479
  28 C :   -0.043354
  29 H :    0.021691
  30 H :    0.022006
  31 H :    0.036738
  32 H :    0.052691
  33 H :    0.075277
Sum of atomic charges:   -0.0000000

LOEWDIN ATOMIC CHARGES
----------------------
   0 S :    0.412970
   1 C :   -0.206228
   2 C :   -0.062638
   3 C :   -0.065956
   4 C :   -0.196469
   5 H :    0.032079
   6 C :   -0.045099
   7 H :    0.043642
   8 H :    0.033731
   9 C :   -0.036418
  10 H :    0.019509
  11 H :    0.016905
  12 C :   -0.058273
  13 H :    0.021184
  14 H :    0.023692
  15 H :    0.024701
  16 S :    0.390688
  17 C :   -0.183594
  18 C :   -0.068020
  19 C :   -0.048246
  20 C :   -0.197266
  21 H :    0.026119
  22 C :   -0.031382
  23 H :    0.031612
  24 H :    0.025618
  25 C :   -0.039232
  26 H :    0.021676
  27 H :    0.038054
  28 C :   -0.080904
  29 H :    0.024517
  30 H :    0.025109
  31 H :    0.030530
  32 H :    0.033046
  33 H :    0.044341

  Mayer bond orders larger than 0.100000
B(  0-S ,  1-C ) :   1.1323 B(  0-S ,  4-C ) :   1.1419 B(  1-C ,  2-C ) :   1.6157
B(  1-C , 32-H ) :   0.9677 B(  2-C ,  3-C ) :   1.2345 B(  2-C ,  6-C ) :   1.0143
B(  3-C ,  4-C ) :   1.5795 B(  3-C ,  5-H ) :   0.9863 B(  4-C , 20-C ) :   1.0607
B(  6-C ,  7-H ) :   0.9426 B(  6-C ,  8-H ) :   0.9375 B(  6-C ,  9-C ) :   1.0512
B(  9-C , 10-H ) :   0.9576 B(  9-C , 11-H ) :   0.9576 B(  9-C , 12-C ) :   1.0884
B( 12-C , 13-H ) :   0.9739 B( 12-C , 14-H ) :   0.9722 B( 12-C , 15-H ) :   0.9736
B( 16-S , 17-C ) :   1.1329 B( 16-S , 20-C ) :   1.1366 B( 17-C , 18-C ) :   1.6241
B( 17-C , 33-H ) :   0.9608 B( 18-C , 19-C ) :   1.2508 B( 18-C , 21-H ) :   0.9797
B( 19-C , 20-C ) :   1.5683 B( 19-C , 22-C ) :   1.0574 B( 22-C , 23-H ) :   0.9296
B( 22-C , 24-H ) :   0.9332 B( 22-C , 25-C ) :   1.0511 B( 25-C , 26-H ) :   0.9597
B( 25-C , 27-H ) :   0.9563 B( 25-C , 28-C ) :   1.0649 B( 28-C , 29-H ) :   0.9736
B( 28-C , 30-H ) :   0.9732 B( 28-C , 31-H ) :   0.9758

Dispersion correction           -0.014170011
FINAL SINGLE POINT ENERGY     -1339.861315800367

DIPOLE MOMENT
-------------
                                X             Y             Z
Electronic contribution:     12.34920     -19.53635     -17.13722
Nuclear contribution   :    -12.61865      20.06895      17.37140
                        -----------------------------------------
Total Dipole Moment    :     -0.26945       0.53261       0.23418
                        -----------------------------------------
Magnitude (a.u.)       :      0.64118
Magnitude (Debye)      :      1.62976

Rotational constants in cm-1:     0.017477     0.008441     0.007058
Rotational constants in MHz :   523.961348   253.066539   211.588416

                             ****ORCA TERMINATED NORMALLY****
TOTAL RUN TIME: 0 days 0 hours 0 minutes 35 seconds 564 msec
