                         Program Version 4.2.1 -  RELEASE  -
|  1> ! wB97X-D3 SP def2-SVP
|  2> %pal
|  3> nprocs 16
|  4> end
|  5>
|  6> * xyz 0 1
|  7> S 	 -4.07959 	 -9.226 	 83.6311
|  8> C 	 -3.78929 	 -10.8607 	 84.1571
|  9> C 	 -3.95624 	 -10.9797 	 85.5322
| 10> C 	 -4.2252 	 -9.70246 	 86.1472
| 11> C 	 -4.39669 	 -8.64972 	 85.3323
| 12> H 	 -4.48865 	 -9.47534 	 87.1511
| 13> C 	 -3.7302 	 -12.2559 	 86.2988
| 14> H 	 -3.75406 	 -13.0963 	 85.6691
| 15> H 	 -4.61229 	 -12.5037 	 86.8712
| 16> C 	 -2.50558 	 -12.1861 	 87.2315
| 17> H 	 -2.30148 	 -13.1336 	 87.6491
| 18> H 	 -1.60782 	 -11.9598 	 86.7061
| 19> C 	 -2.53905 	 -11.267 	 88.4927
| 20> H 	 -1.82659 	 -11.7254 	 89.1859
| 21> H 	 -2.26821 	 -10.2075 	 88.2786
| 22> H 	 -3.55625 	 -11.4973 	 88.9656
| 23> S 	 -6.5037 	 -6.97605 	 85.0207
| 24> C 	 -6.5498 	 -5.37246 	 85.6531
| 25> C 	 -5.35052 	 -5.05669 	 86.2788
| 26> C 	 -4.42391 	 -6.16233 	 86.2991
| 27> C 	 -4.91732 	 -7.33004 	 85.6798
| 28> H 	 -5.28979 	 -4.1267 	 86.7737
| 29> C 	 -3.09626 	 -6.13473 	 86.9759
| 30> H 	 -2.58401 	 -5.38909 	 86.4222
| 31> H 	 -2.47015 	 -6.96538 	 86.7689
| 32> C 	 -2.97524 	 -5.98192 	 88.4673
| 33> H 	 -3.28723 	 -6.82017 	 89.0696
| 34> H 	 -3.4598 	 -5.12397 	 88.8367
| 35> C 	 -1.50631 	 -5.63265 	 88.8674
| 36> H 	 -1.13206 	 -4.80097 	 88.2871
| 37> H 	 -0.768495 	 -6.41375 	 88.6363
| 38> H 	 -1.47791 	 -5.54999 	 89.9617
| 39> H 	 -3.49044 	 -11.6874 	 83.511
| 40> H 	 -7.38012 	 -4.69052 	 85.6707
| 41> *
| 42>
| 43>                          ****END OF INPUT****

CARTESIAN COORDINATES (ANGSTROEM)
---------------------------------
  S     -4.079590   -9.226000   83.631100
  C     -3.789290  -10.860700   84.157100
  C     -3.956240  -10.979700   85.532200
  C     -4.225200   -9.702460   86.147200
  C     -4.396690   -8.649720   85.332300
  H     -4.488650   -9.475340   87.151100
  C     -3.730200  -12.255900   86.298800
  H     -3.754060  -13.096300   85.669100
  H     -4.612290  -12.503700   86.871200
  C     -2.505580  -12.186100   87.231500
  H     -2.301480  -13.133600   87.649100
  H     -1.607820  -11.959800   86.706100
  C     -2.539050  -11.267000   88.492700
  H     -1.826590  -11.725400   89.185900
  H     -2.268210  -10.207500   88.278600
  H     -3.556250  -11.497300   88.965600
  S     -6.503700   -6.976050   85.020700
  C     -6.549800   -5.372460   85.653100
  C     -5.350520   -5.056690   86.278800
  C     -4.423910   -6.162330   86.299100
  C     -4.917320   -7.330040   85.679800
  H     -5.289790   -4.126700   86.773700
  C     -3.096260   -6.134730   86.975900
  H     -2.584010   -5.389090   86.422200
  H     -2.470150   -6.965380   86.768900
  C     -2.975240   -5.981920   88.467300
  H     -3.287230   -6.820170   89.069600
  H     -3.459800   -5.123970   88.836700
  C     -1.506310   -5.632650   88.867400
  H     -1.132060   -4.800970   88.287100
  H     -0.768495   -6.413750   88.636300
  H     -1.477910   -5.549990   89.961700
  H     -3.490440  -11.687400   83.511000
  H     -7.380120   -4.690520   85.670700

 Total Charge           Charge          ....    0
 Multiplicity           Mult            ....    1
 Number of Electrons    NEL             ....  134
 Basis Dimension        Dim             ....  322

ORBITAL ENERGIES
----------------

  NO   OCC          E(Eh)            E(eV)
   0   2.0000     -88.962793     -2420.8007
   1   2.0000     -88.960829     -2420.7472
   2   2.0000     -10.330061      -281.0953
   3   2.0000     -10.328183      -281.0441
   4   2.0000     -10.317227      -280.7460
   5   2.0000     -10.317106      -280.7427
   6   2.0000     -10.309070      -280.5241
   7   2.0000     -10.302234      -280.3380
   8   2.0000     -10.293593      -280.1029
   9   2.0000     -10.289438      -279.9898
  10   2.0000     -10.288635      -279.9680
  11   2.0000     -10.288118      -279.9539
  12   2.0000     -10.281334      -279.7693
  13   2.0000     -10.280994      -279.7601
  14   2.0000     -10.279642      -279.7233
  15   2.0000     -10.278719      -279.6982
  16   2.0000      -8.077952      -219.8123
  17   2.0000      -8.074856      -219.7280
  18   2.0000      -6.036390      -164.2585
  19   2.0000      -6.033499      -164.1799
  20   2.0000      -6.032184      -164.1441
  21   2.0000      -6.029483      -164.0706
  22   2.0000      -6.028946      -164.0560
  23   2.0000      -6.025466      -163.9613
  24   2.0000      -1.003263       -27.3002
  25   2.0000      -0.981675       -26.7127
  26   2.0000      -0.914732       -24.8911
  27   2.0000      -0.908961       -24.7341
  28   2.0000      -0.872698       -23.7473
  29   2.0000      -0.850731       -23.1496
  30   2.0000      -0.841252       -22.8916
  31   2.0000      -0.822817       -22.3900
  32   2.0000      -0.782929       -21.3046
  33   2.0000      -0.769815       -20.9477
  34   2.0000      -0.709225       -19.2990
  35   2.0000      -0.700164       -19.0524
  36   2.0000      -0.696935       -18.9646
  37   2.0000      -0.659887       -17.9565
  38   2.0000      -0.649772       -17.6812
  39   2.0000      -0.619735       -16.8638
  40   2.0000      -0.601499       -16.3676
  41   2.0000      -0.577120       -15.7042
  42   2.0000      -0.567609       -15.4454
  43   2.0000      -0.546188       -14.8625
  44   2.0000      -0.541819       -14.7436
  45   2.0000      -0.533817       -14.5259
  46   2.0000      -0.518164       -14.1000
  47   2.0000      -0.510921       -13.9029
  48   2.0000      -0.503987       -13.7142
  49   2.0000      -0.500056       -13.6072
  50   2.0000      -0.491693       -13.3796
  51   2.0000      -0.484255       -13.1772
  52   2.0000      -0.470459       -12.8018
  53   2.0000      -0.460583       -12.5331
  54   2.0000      -0.455593       -12.3973
  55   2.0000      -0.453032       -12.3276
  56   2.0000      -0.441448       -12.0124
  57   2.0000      -0.439373       -11.9559
  58   2.0000      -0.430797       -11.7226
  59   2.0000      -0.421353       -11.4656
  60   2.0000      -0.418608       -11.3909
  61   2.0000      -0.413837       -11.2611
  62   2.0000      -0.406097       -11.0505
  63   2.0000      -0.345222        -9.3940
  64   2.0000      -0.328449        -8.9376
  65   2.0000      -0.322889        -8.7863
  66   2.0000      -0.301319        -8.1993
  67   0.0000       0.039856         1.0845
  68   0.0000       0.056672         1.5421
  69   0.0000       0.118569         3.2264
  70   0.0000       0.126550         3.4436
  71   0.0000       0.129340         3.5195

MULLIKEN ATOMIC CHARGES
-----------------------
   0 S :    0.097855
   1 C :   -0.120426
   2 C :   -0.095312
   3 C :    0.056821
   4 C :   -0.148659
   5 H :    0.004104
   6 C :    0.129426
   7 H :   -0.005593
   8 H :    0.016047
   9 C :   -0.056291
  10 H :    0.010722
  11 H :    0.018356
  12 C :   -0.088947
  13 H :    0.035279
  14 H :    0.061283
  15 H :    0.037091
  16 S :    0.110099
  17 C :   -0.083890
  18 C :   -0.030726
  19 C :   -0.002863
  20 C :   -0.188392
  21 H :    0.006898
  22 C :    0.079564
  23 H :    0.012695
  24 H :    0.004364
  25 C :   -0.026786
  26 H :    0.031079
  27 H :    0.013715
  28 C :   -0.078534
  29 H :    0.028968
  30 H :    0.021230
  31 H :    0.038981
  32 H :    0.057100
  33 H :    0.054740
Sum of atomic charges:   -0.0000000

LOEWDIN ATOMIC CHARGES
----------------------
   0 S :    0.368199
   1 C :   -0.192025
   2 C :   -0.064192
   3 C :   -0.054552
   4 C :   -0.178499
   5 H :    0.030395
   6 C :   -0.030760
   7 H :    0.024548
   8 H :    0.031294
   9 C :   -0.037425
  10 H :    0.018773
  11 H :    0.020141
  12 C :   -0.072841
  13 H :    0.028188
  14 H :    0.029014
  15 H :    0.032349
  16 S :    0.422765
  17 C :   -0.186343
  18 C :   -0.072084
  19 C :   -0.044682
  20 C :   -0.203686
  21 H :    0.025788
  22 C :   -0.038971
  23 H :    0.032695
  24 H :    0.029000
  25 C :   -0.030157
  26 H :    0.024633
  27 H :    0.016241
  28 C :   -0.064057
  29 H :    0.022650
  30 H :    0.020413
  31 H :    0.028583
  32 H :    0.034243
  33 H :    0.030359

  Mayer bond orders larger than 0.100000
B(  0-S ,  1-C ) :   1.1402 B(  0-S ,  4-C ) :   1.1029 B(  1-C ,  2-C ) :   1.6276
B(  1-C , 32-H ) :   0.9651 B(  2-C ,  3-C ) :   1.2003 B(  2-C ,  6-C ) :   1.0392
B(  3-C ,  4-C ) :   1.6377 B(  3-C ,  5-H ) :   0.9896 B(  4-C , 20-C ) :   1.0362
B(  6-C ,  7-H ) :   0.9313 B(  6-C ,  8-H ) :   0.9293 B(  6-C ,  9-C ) :   1.0663
B(  9-C , 10-H ) :   0.9566 B(  9-C , 11-H ) :   0.9538 B(  9-C , 12-C ) :   1.0791
B( 12-C , 13-H ) :   0.9738 B( 12-C , 14-H ) :   0.9712 B( 12-C , 15-H ) :   0.9729
B( 16-S , 17-C ) :   1.1772 B( 16-S , 20-C ) :   1.1448 B( 17-C , 18-C ) :   1.5926
B( 17-C , 20-C ) :   0.1006 B( 17-C , 33-H ) :   0.9680 B( 18-C , 19-C ) :   1.2395
B( 18-C , 21-H ) :   0.9997 B( 19-C , 20-C ) :   1.5739 B( 19-C , 22-C ) :   1.0442
B( 22-C , 23-H ) :   0.9244 B( 22-C , 24-H ) :   0.9309 B( 22-C , 25-C ) :   1.0701
B( 25-C , 26-H ) :   0.9548 B( 25-C , 27-H ) :   0.9550 B( 25-C , 28-C ) :   1.0731
B( 28-C , 29-H ) :   0.9766 B( 28-C , 30-H ) :   0.9762 B( 28-C , 31-H ) :   0.9752

Dispersion correction           -0.014254017
FINAL SINGLE POINT ENERGY     -1339.864648028502

DIPOLE MOMENT
-------------
                                X             Y             Z
Electronic contribution:    -17.86792       4.62726     -23.69207
Nuclear contribution   :     18.13521      -4.78083      24.31917
                        -----------------------------------------
Total Dipole Moment    :      0.26729      -0.15356       0.62710
                        -----------------------------------------
Magnitude (a.u.)       :      0.69877
Magnitude (Debye)      :      1.77613

Rotational constants in cm-1:     0.015901     0.009967     0.006943
Rotational constants in MHz :   476.696230   298.792583   208.158090

                             ****ORCA TERMINATED NORMALLY****
TOTAL RUN TIME: 0 days 0 hours 0 minutes 34 seconds 275 msec
