                         Program Version 4.2.1 -  RELEASE  -
|  1> ! wB97X-D3 SP def2-SVP
|  2> %pal
|  3> nprocs 16
|  4> end
|  5>
|  6> * xyz 0 1
|  7> S 	 -68.7143 	 58.9539 	 128.026
|  8> C 	 -68.0869 	 60.5076 	 127.895
|  9> C 	 -68.7292 	 61.203 	 126.895
| 10> C 	 -69.7213 	 60.4146 	 126.198
| 11> C 	 -69.8134 	 59.1469 	 126.684
| 12> H 	 -70.3845 	 60.8502 	 125.526
| 13> C 	 -68.4766 	 62.624 	 126.53
| 14> H 	 -68.3295 	 62.6646 	 125.425
| 15> H 	 -67.6573 	 63.0229 	 127.075
| 16> C 	 -69.5722 	 63.6861 	 126.97
| 17> H 	 -69.4106 	 64.5757 	 126.365
| 18> H 	 -70.5825 	 63.2784 	 126.595
| 19> C 	 -69.6438 	 64.1959 	 128.404
| 20> H 	 -68.7404 	 64.5529 	 128.765
| 21> H 	 -70.4166 	 64.9069 	 128.662
| 22> H 	 -69.919 	 63.3575 	 129.083
| 23> S 	 -71.4806 	 57.1608 	 127.649
| 24> C 	 -72.5301 	 56.3511 	 126.447
| 25> C 	 -72.3026 	 56.75 	 125.16
| 26> C 	 -71.3103 	 57.7973 	 125.069
| 27> C 	 -70.849 	 58.217 	 126.34
| 28> H 	 -72.7887 	 56.1907 	 124.39
| 29> C 	 -70.9556 	 58.5065 	 123.759
| 30> H 	 -70.8562 	 57.694 	 122.986
| 31> H 	 -70.0218 	 59.0574 	 123.901
| 32> C 	 -72.0777 	 59.4632 	 123.264
| 33> H 	 -72.5859 	 60.1888 	 123.97
| 34> H 	 -72.8745 	 58.8418 	 122.964
| 35> C 	 -71.5941 	 60.0633 	 121.896
| 36> H 	 -70.7889 	 60.8084 	 121.995
| 37> H 	 -72.4157 	 60.6647 	 121.557
| 38> H 	 -71.4234 	 59.294 	 121.071
| 39> H 	 -67.4492 	 60.9074 	 128.686
| 40> H 	 -73.1225 	 55.4455 	 126.538
| 41> *
| 42>
| 43>                          ****END OF INPUT****

CARTESIAN COORDINATES (ANGSTROEM)
---------------------------------
  S    -68.714300   58.953900  128.026000
  C    -68.086900   60.507600  127.895000
  C    -68.729200   61.203000  126.895000
  C    -69.721300   60.414600  126.198000
  C    -69.813400   59.146900  126.684000
  H    -70.384500   60.850200  125.526000
  C    -68.476600   62.624000  126.530000
  H    -68.329500   62.664600  125.425000
  H    -67.657300   63.022900  127.075000
  C    -69.572200   63.686100  126.970000
  H    -69.410600   64.575700  126.365000
  H    -70.582500   63.278400  126.595000
  C    -69.643800   64.195900  128.404000
  H    -68.740400   64.552900  128.765000
  H    -70.416600   64.906900  128.662000
  H    -69.919000   63.357500  129.083000
  S    -71.480600   57.160800  127.649000
  C    -72.530100   56.351100  126.447000
  C    -72.302600   56.750000  125.160000
  C    -71.310300   57.797300  125.069000
  C    -70.849000   58.217000  126.340000
  H    -72.788700   56.190700  124.390000
  C    -70.955600   58.506500  123.759000
  H    -70.856200   57.694000  122.986000
  H    -70.021800   59.057400  123.901000
  C    -72.077700   59.463200  123.264000
  H    -72.585900   60.188800  123.970000
  H    -72.874500   58.841800  122.964000
  C    -71.594100   60.063300  121.896000
  H    -70.788900   60.808400  121.995000
  H    -72.415700   60.664700  121.557000
  H    -71.423400   59.294000  121.071000
  H    -67.449200   60.907400  128.686000
  H    -73.122500   55.445500  126.538000

 Total Charge           Charge          ....    0
 Multiplicity           Mult            ....    1
 Number of Electrons    NEL             ....  134
 Basis Dimension        Dim             ....  322

ORBITAL ENERGIES
----------------

  NO   OCC          E(Eh)            E(eV)
   0   2.0000     -88.967361     -2420.9250
   1   2.0000     -88.963427     -2420.8179
   2   2.0000     -10.330124      -281.0970
   3   2.0000     -10.325645      -280.9751
   4   2.0000     -10.316725      -280.7324
   5   2.0000     -10.309669      -280.5404
   6   2.0000     -10.308556      -280.5101
   7   2.0000     -10.298296      -280.2309
   8   2.0000     -10.297945      -280.2213
   9   2.0000     -10.294452      -280.1263
  10   2.0000     -10.293005      -280.0869
  11   2.0000     -10.292933      -280.0850
  12   2.0000     -10.292915      -280.0845
  13   2.0000     -10.287694      -279.9424
  14   2.0000     -10.285484      -279.8822
  15   2.0000     -10.274491      -279.5831
  16   2.0000      -8.080577      -219.8837
  17   2.0000      -8.079794      -219.8624
  18   2.0000      -6.039239      -164.3360
  19   2.0000      -6.038242      -164.3089
  20   2.0000      -6.035501      -164.2343
  21   2.0000      -6.034004      -164.1936
  22   2.0000      -6.031061      -164.1135
  23   2.0000      -6.030581      -164.1004
  24   2.0000      -1.011450       -27.5230
  25   2.0000      -0.979471       -26.6528
  26   2.0000      -0.907589       -24.6968
  27   2.0000      -0.903694       -24.5908
  28   2.0000      -0.875815       -23.8321
  29   2.0000      -0.853638       -23.2287
  30   2.0000      -0.843138       -22.9429
  31   2.0000      -0.819025       -22.2868
  32   2.0000      -0.782237       -21.2858
  33   2.0000      -0.766829       -20.8665
  34   2.0000      -0.709848       -19.3160
  35   2.0000      -0.697519       -18.9805
  36   2.0000      -0.695166       -18.9164
  37   2.0000      -0.660427       -17.9711
  38   2.0000      -0.642544       -17.4845
  39   2.0000      -0.627715       -17.0810
  40   2.0000      -0.587199       -15.9785
  41   2.0000      -0.569211       -15.4890
  42   2.0000      -0.561756       -15.2862
  43   2.0000      -0.551564       -15.0088
  44   2.0000      -0.538233       -14.6461
  45   2.0000      -0.521314       -14.1857
  46   2.0000      -0.515904       -14.0385
  47   2.0000      -0.511140       -13.9088
  48   2.0000      -0.502443       -13.6722
  49   2.0000      -0.501190       -13.6381
  50   2.0000      -0.489401       -13.3173
  51   2.0000      -0.485792       -13.2191
  52   2.0000      -0.468871       -12.7586
  53   2.0000      -0.466804       -12.7024
  54   2.0000      -0.458081       -12.4650
  55   2.0000      -0.452535       -12.3141
  56   2.0000      -0.451580       -12.2881
  57   2.0000      -0.440047       -11.9743
  58   2.0000      -0.432506       -11.7691
  59   2.0000      -0.423585       -11.5263
  60   2.0000      -0.416678       -11.3384
  61   2.0000      -0.411818       -11.2061
  62   2.0000      -0.406333       -11.0569
  63   2.0000      -0.359186        -9.7739
  64   2.0000      -0.331892        -9.0312
  65   2.0000      -0.324461        -8.8290
  66   2.0000      -0.285567        -7.7707
  67   0.0000       0.024024         0.6537
  68   0.0000       0.076794         2.0897
  69   0.0000       0.107818         2.9339
  70   0.0000       0.118582         3.2268
  71   0.0000       0.128241         3.4896

MULLIKEN ATOMIC CHARGES
-----------------------
   0 S :    0.105471
   1 C :   -0.121642
   2 C :   -0.091142
   3 C :    0.021132
   4 C :   -0.103852
   5 H :   -0.012501
   6 C :    0.077720
   7 H :    0.044678
   8 H :    0.003245
   9 C :   -0.107972
  10 H :    0.028042
  11 H :    0.028382
  12 C :   -0.022909
  13 H :    0.012791
  14 H :    0.036571
  15 H :    0.027044
  16 S :    0.091504
  17 C :   -0.077247
  18 C :   -0.033896
  19 C :   -0.036016
  20 C :   -0.140375
  21 H :    0.014450
  22 C :    0.042837
  23 H :    0.035280
  24 H :    0.036081
  25 C :   -0.084392
  26 H :    0.054031
  27 H :    0.014089
  28 C :   -0.064150
  29 H :    0.036499
  30 H :    0.021816
  31 H :    0.050251
  32 H :    0.060978
  33 H :    0.053204
Sum of atomic charges:    0.0000000

LOEWDIN ATOMIC CHARGES
----------------------
   0 S :    0.429761
   1 C :   -0.219894
   2 C :   -0.067259
   3 C :   -0.054959
   4 C :   -0.193250
   5 H :    0.020584
   6 C :   -0.031116
   7 H :    0.040652
   8 H :    0.023629
   9 C :   -0.044132
  10 H :    0.021802
  11 H :    0.024875
  12 C :   -0.068336
  13 H :    0.013206
  14 H :    0.031648
  15 H :    0.030635
  16 S :    0.365745
  17 C :   -0.175596
  18 C :   -0.070077
  19 C :   -0.048568
  20 C :   -0.179918
  21 H :    0.030570
  22 C :   -0.031779
  23 H :    0.038215
  24 H :    0.027802
  25 C :   -0.043767
  26 H :    0.034441
  27 H :    0.018357
  28 C :   -0.072302
  29 H :    0.023715
  30 H :    0.021769
  31 H :    0.036228
  32 H :    0.034298
  33 H :    0.033021

  Mayer bond orders larger than 0.100000
B(  0-S ,  1-C ) :   1.1487 B(  0-S ,  4-C ) :   1.1503 B(  1-C ,  2-C ) :   1.5915
B(  1-C , 32-H ) :   0.9672 B(  2-C ,  3-C ) :   1.2478 B(  2-C ,  6-C ) :   1.0478
B(  3-C ,  4-C ) :   1.5331 B(  3-C ,  5-H ) :   1.0102 B(  4-C , 20-C ) :   1.0960
B(  6-C ,  7-H ) :   0.9387 B(  6-C ,  8-H ) :   0.9394 B(  6-C ,  9-C ) :   1.0554
B(  9-C , 10-H ) :   0.9570 B(  9-C , 11-H ) :   0.9581 B(  9-C , 12-C ) :   1.0779
B( 12-C , 13-H ) :   0.9715 B( 12-C , 14-H ) :   0.9725 B( 12-C , 15-H ) :   0.9728
B( 16-S , 17-C ) :   1.1244 B( 16-S , 20-C ) :   1.1078 B( 17-C , 18-C ) :   1.6707
B( 17-C , 33-H ) :   0.9583 B( 18-C , 19-C ) :   1.2058 B( 18-C , 21-H ) :   0.9884
B( 19-C , 20-C ) :   1.5916 B( 19-C , 22-C ) :   1.0551 B( 22-C , 23-H ) :   0.9330
B( 22-C , 24-H ) :   0.9359 B( 22-C , 25-C ) :   1.0540 B( 25-C , 26-H ) :   0.9582
B( 25-C , 27-H ) :   0.9495 B( 25-C , 28-C ) :   1.0749 B( 28-C , 29-H ) :   0.9776
B( 28-C , 30-H ) :   0.9728 B( 28-C , 31-H ) :   0.9733

Dispersion correction           -0.014142583
FINAL SINGLE POINT ENERGY     -1339.864773052271

DIPOLE MOMENT
-------------
                                X             Y             Z
Electronic contribution:      3.29966     -23.13021      16.36438
Nuclear contribution   :     -3.50514      23.53985     -16.84880
                        -----------------------------------------
Total Dipole Moment    :     -0.20548       0.40963      -0.48442
                        -----------------------------------------
Magnitude (a.u.)       :      0.66685
Magnitude (Debye)      :      1.69499

Rotational constants in cm-1:     0.016992     0.009287     0.006812
Rotational constants in MHz :   509.410066   278.406279   204.203750

                             ****ORCA TERMINATED NORMALLY****
TOTAL RUN TIME: 0 days 0 hours 0 minutes 31 seconds 870 msec
