                         Program Version 4.2.1 -  RELEASE  -
|  1> ! wB97X-D3 SP def2-SVP
|  2> %pal
|  3> nprocs 16
|  4> end
|  5>
|  6> * xyz 0 1
|  7> S 	 -62.3051 	 53.3942 	 128.292
|  8> C 	 -64.0524 	 53.3505 	 128.565
|  9> C 	 -64.6333 	 54.5764 	 128.4
| 10> C 	 -63.6375 	 55.5598 	 128.09
| 11> C 	 -62.3929 	 55.0717 	 127.843
| 12> H 	 -63.8117 	 56.6221 	 128.094
| 13> C 	 -66.0973 	 54.906 	 128.49
| 14> H 	 -66.631 	 53.9973 	 128.84
| 15> H 	 -66.3989 	 55.3572 	 127.546
| 16> C 	 -66.4115 	 55.9469 	 129.545
| 17> H 	 -66.137 	 55.6633 	 130.6
| 18> H 	 -65.8939 	 56.8835 	 129.388
| 19> C 	 -67.8823 	 56.3472 	 129.611
| 20> H 	 -68.5339 	 55.4331 	 129.573
| 21> H 	 -68.0544 	 56.7954 	 130.559
| 22> H 	 -68.0875 	 57.0941 	 128.841
| 23> S 	 -60.6494 	 57.1371 	 128.324
| 24> C 	 -59.4877 	 57.5243 	 127.094
| 25> C 	 -59.7157 	 56.8821 	 125.942
| 26> C 	 -60.7745 	 55.9185 	 125.997
| 27> C 	 -61.3475 	 55.8629 	 127.289
| 28> H 	 -59.0178 	 57.0376 	 125.169
| 29> C 	 -61.2295 	 55.1256 	 124.816
| 30> H 	 -61.873 	 54.2502 	 125.147
| 31> H 	 -60.3615 	 54.4962 	 124.519
| 32> C 	 -61.85 	 55.8725 	 123.596
| 33> H 	 -61.0866 	 56.551 	 123.249
| 34> H 	 -62.8793 	 56.2741 	 123.821
| 35> C 	 -62.1798 	 54.9187 	 122.446
| 36> H 	 -62.2501 	 53.8793 	 122.67
| 37> H 	 -61.3286 	 54.9218 	 121.828
| 38> H 	 -63.041 	 55.1349 	 121.785
| 39> H 	 -64.5909 	 52.402 	 128.835
| 40> H 	 -58.7922 	 58.3707 	 127.088
| 41> *
| 42>
| 43>                          ****END OF INPUT****

CARTESIAN COORDINATES (ANGSTROEM)
---------------------------------
  S    -62.305100   53.394200  128.292000
  C    -64.052400   53.350500  128.565000
  C    -64.633300   54.576400  128.400000
  C    -63.637500   55.559800  128.090000
  C    -62.392900   55.071700  127.843000
  H    -63.811700   56.622100  128.094000
  C    -66.097300   54.906000  128.490000
  H    -66.631000   53.997300  128.840000
  H    -66.398900   55.357200  127.546000
  C    -66.411500   55.946900  129.545000
  H    -66.137000   55.663300  130.600000
  H    -65.893900   56.883500  129.388000
  C    -67.882300   56.347200  129.611000
  H    -68.533900   55.433100  129.573000
  H    -68.054400   56.795400  130.559000
  H    -68.087500   57.094100  128.841000
  S    -60.649400   57.137100  128.324000
  C    -59.487700   57.524300  127.094000
  C    -59.715700   56.882100  125.942000
  C    -60.774500   55.918500  125.997000
  C    -61.347500   55.862900  127.289000
  H    -59.017800   57.037600  125.169000
  C    -61.229500   55.125600  124.816000
  H    -61.873000   54.250200  125.147000
  H    -60.361500   54.496200  124.519000
  C    -61.850000   55.872500  123.596000
  H    -61.086600   56.551000  123.249000
  H    -62.879300   56.274100  123.821000
  C    -62.179800   54.918700  122.446000
  H    -62.250100   53.879300  122.670000
  H    -61.328600   54.921800  121.828000
  H    -63.041000   55.134900  121.785000
  H    -64.590900   52.402000  128.835000
  H    -58.792200   58.370700  127.088000

 Total Charge           Charge          ....    0
 Multiplicity           Mult            ....    1
 Number of Electrons    NEL             ....  134
 Basis Dimension        Dim             ....  322

ORBITAL ENERGIES
----------------

  NO   OCC          E(Eh)            E(eV)
   0   2.0000     -88.964732     -2420.8534
   1   2.0000     -88.962082     -2420.7813
   2   2.0000     -10.325710      -280.9769
   3   2.0000     -10.321209      -280.8544
   4   2.0000     -10.317148      -280.7439
   5   2.0000     -10.310899      -280.5738
   6   2.0000     -10.305382      -280.4237
   7   2.0000     -10.298238      -280.2293
   8   2.0000     -10.295889      -280.1654
   9   2.0000     -10.295094      -280.1438
  10   2.0000     -10.292842      -280.0825
  11   2.0000     -10.288117      -279.9539
  12   2.0000     -10.284746      -279.8622
  13   2.0000     -10.284420      -279.8533
  14   2.0000     -10.277344      -279.6607
  15   2.0000     -10.268949      -279.4323
  16   2.0000      -8.079322      -219.8495
  17   2.0000      -8.076780      -219.7804
  18   2.0000      -6.037906      -164.2998
  19   2.0000      -6.035285      -164.2285
  20   2.0000      -6.033945      -164.1920
  21   2.0000      -6.031367      -164.1219
  22   2.0000      -6.029911      -164.0822
  23   2.0000      -6.027472      -164.0159
  24   2.0000      -1.007209       -27.4076
  25   2.0000      -0.984354       -26.7856
  26   2.0000      -0.917699       -24.9719
  27   2.0000      -0.905042       -24.6274
  28   2.0000      -0.875704       -23.8291
  29   2.0000      -0.851986       -23.1837
  30   2.0000      -0.848515       -23.0893
  31   2.0000      -0.815635       -22.1946
  32   2.0000      -0.784370       -21.3438
  33   2.0000      -0.768657       -20.9162
  34   2.0000      -0.709873       -19.3166
  35   2.0000      -0.697230       -18.9726
  36   2.0000      -0.687481       -18.7073
  37   2.0000      -0.656235       -17.8571
  38   2.0000      -0.638105       -17.3637
  39   2.0000      -0.622131       -16.9290
  40   2.0000      -0.594378       -16.1738
  41   2.0000      -0.578643       -15.7457
  42   2.0000      -0.569034       -15.4842
  43   2.0000      -0.563026       -15.3207
  44   2.0000      -0.526984       -14.3400
  45   2.0000      -0.523152       -14.2357
  46   2.0000      -0.516300       -14.0492
  47   2.0000      -0.512073       -13.9342
  48   2.0000      -0.506323       -13.7777
  49   2.0000      -0.501179       -13.6378
  50   2.0000      -0.490454       -13.3459
  51   2.0000      -0.477515       -12.9938
  52   2.0000      -0.473860       -12.8944
  53   2.0000      -0.463112       -12.6019
  54   2.0000      -0.456704       -12.4275
  55   2.0000      -0.448943       -12.2164
  56   2.0000      -0.443708       -12.0739
  57   2.0000      -0.431408       -11.7392
  58   2.0000      -0.426978       -11.6187
  59   2.0000      -0.426779       -11.6132
  60   2.0000      -0.420830       -11.4514
  61   2.0000      -0.418880       -11.3983
  62   2.0000      -0.406810       -11.0699
  63   2.0000      -0.334143        -9.0925
  64   2.0000      -0.331731        -9.0269
  65   2.0000      -0.324546        -8.8314
  66   2.0000      -0.301252        -8.1975
  67   0.0000       0.041281         1.1233
  68   0.0000       0.061060         1.6615
  69   0.0000       0.112913         3.0725
  70   0.0000       0.120676         3.2838
  71   0.0000       0.129707         3.5295

MULLIKEN ATOMIC CHARGES
-----------------------
   0 S :    0.115136
   1 C :   -0.165273
   2 C :   -0.052813
   3 C :    0.021959
   4 C :   -0.152034
   5 H :    0.010254
   6 C :    0.122410
   7 H :    0.024020
   8 H :    0.035950
   9 C :   -0.145797
  10 H :    0.032789
  11 H :    0.024527
  12 C :   -0.030945
  13 H :    0.031983
  14 H :    0.024856
  15 H :    0.036298
  16 S :    0.100721
  17 C :   -0.077672
  18 C :   -0.037494
  19 C :    0.018109
  20 C :   -0.191768
  21 H :    0.003686
  22 C :    0.005596
  23 H :    0.027398
  24 H :    0.028084
  25 C :   -0.043356
  26 H :    0.035945
  27 H :    0.051784
  28 C :   -0.040152
  29 H :    0.017538
  30 H :    0.006200
  31 H :    0.039977
  32 H :    0.064187
  33 H :    0.057899
Sum of atomic charges:   -0.0000000

LOEWDIN ATOMIC CHARGES
----------------------
   0 S :    0.398182
   1 C :   -0.196608
   2 C :   -0.065929
   3 C :   -0.054034
   4 C :   -0.207222
   5 H :    0.026877
   6 C :   -0.027028
   7 H :    0.036235
   8 H :    0.037198
   9 C :   -0.049162
  10 H :    0.027352
  11 H :    0.018731
  12 C :   -0.063547
  13 H :    0.027670
  14 H :    0.022673
  15 H :    0.024863
  16 S :    0.392837
  17 C :   -0.187346
  18 C :   -0.073477
  19 C :   -0.049036
  20 C :   -0.186358
  21 H :    0.025642
  22 C :   -0.048644
  23 H :    0.035080
  24 H :    0.035031
  25 C :   -0.034218
  26 H :    0.024797
  27 H :    0.037591
  28 C :   -0.072068
  29 H :    0.021506
  30 H :    0.019007
  31 H :    0.030707
  32 H :    0.037495
  33 H :    0.035204

  Mayer bond orders larger than 0.100000
B(  0-S ,  1-C ) :   1.1259 B(  0-S ,  4-C ) :   1.1293 B(  1-C ,  2-C ) :   1.6377
B(  1-C , 32-H ) :   0.9592 B(  2-C ,  3-C ) :   1.2152 B(  2-C ,  6-C ) :   1.0347
B(  3-C ,  4-C ) :   1.6053 B(  3-C ,  5-H ) :   0.9929 B(  4-C , 20-C ) :   1.0448
B(  6-C ,  7-H ) :   0.9345 B(  6-C ,  8-H ) :   0.9321 B(  6-C ,  9-C ) :   1.0659
B(  9-C , 10-H ) :   0.9593 B(  9-C , 11-H ) :   0.9531 B(  9-C , 12-C ) :   1.0902
B( 12-C , 13-H ) :   0.9719 B( 12-C , 14-H ) :   0.9744 B( 12-C , 15-H ) :   0.9761
B( 16-S , 17-C ) :   1.1408 B( 16-S , 20-C ) :   1.1316 B( 17-C , 18-C ) :   1.6607
B( 17-C , 33-H ) :   0.9561 B( 18-C , 19-C ) :   1.2099 B( 18-C , 21-H ) :   0.9939
B( 19-C , 20-C ) :   1.5990 B( 19-C , 22-C ) :   1.0537 B( 22-C , 23-H ) :   0.9249
B( 22-C , 24-H ) :   0.9329 B( 22-C , 25-C ) :   1.0593 B( 25-C , 26-H ) :   0.9622
B( 25-C , 27-H ) :   0.9608 B( 25-C , 28-C ) :   1.0625 B( 28-C , 29-H ) :   0.9728
B( 28-C , 30-H ) :   0.9737 B( 28-C , 31-H ) :   0.9795

Dispersion correction           -0.013586221
FINAL SINGLE POINT ENERGY     -1339.867102861826

DIPOLE MOMENT
-------------
                                X             Y             Z
Electronic contribution:     19.39084      -2.05684      12.46093
Nuclear contribution   :    -19.75435       2.21018     -12.84276
                        -----------------------------------------
Total Dipole Moment    :     -0.36351       0.15334      -0.38183
                        -----------------------------------------
Magnitude (a.u.)       :      0.54904
Magnitude (Debye)      :      1.39555

Rotational constants in cm-1:     0.017147     0.007831     0.006925
Rotational constants in MHz :   514.057597   234.776732   207.619494

                             ****ORCA TERMINATED NORMALLY****
TOTAL RUN TIME: 0 days 0 hours 0 minutes 33 seconds 72 msec
