                         Program Version 4.2.1 -  RELEASE  -
|  1> ! wB97X-D3 SP def2-SVP
|  2> %pal
|  3> nprocs 16
|  4> end
|  5>
|  6> * xyz 0 1
|  7> S 	 -40.6678 	 28.1072 	 93.3761
|  8> C 	 -41.7105 	 28.4892 	 94.6903
|  9> C 	 -42.5652 	 29.5287 	 94.4953
| 10> C 	 -42.2457 	 30.113 	 93.2393
| 11> C 	 -41.2057 	 29.6007 	 92.5299
| 12> H 	 -42.7684 	 31.0878 	 92.9229
| 13> C 	 -43.7568 	 29.9835 	 95.3959
| 14> H 	 -43.9126 	 29.265 	 96.1775
| 15> H 	 -44.6274 	 29.9017 	 94.759
| 16> C 	 -43.7506 	 31.4395 	 96.0056
| 17> H 	 -44.7732 	 31.7081 	 96.3072
| 18> H 	 -43.2221 	 31.5265 	 96.9247
| 19> C 	 -43.0377 	 32.5851 	 95.2035
| 20> H 	 -43.377 	 32.7521 	 94.1758
| 21> H 	 -43.2022 	 33.5536 	 95.6308
| 22> H 	 -41.9939 	 32.4785 	 95.2149
| 23> S 	 -38.9782 	 30.2001 	 91.1378
| 24> C 	 -39.1078 	 30.1432 	 89.3476
| 25> C 	 -40.4518 	 30.1329 	 88.9351
| 26> C 	 -41.3734 	 29.9347 	 90.0064
| 27> C 	 -40.7038 	 29.9034 	 91.1998
| 28> H 	 -40.6483 	 30.1748 	 87.8538
| 29> C 	 -42.8447 	 29.794 	 89.7429
| 30> H 	 -43.0718 	 29.8607 	 88.6194
| 31> H 	 -43.3957 	 30.6811 	 90.036
| 32> C 	 -43.5489 	 28.4955 	 90.3008
| 33> H 	 -44.6219 	 28.5758 	 90.2323
| 34> H 	 -43.4794 	 28.5446 	 91.3311
| 35> C 	 -43.0866 	 27.1763 	 89.5715
| 36> H 	 -42.0329 	 26.9736 	 89.9046
| 37> H 	 -43.1295 	 27.2122 	 88.4695
| 38> H 	 -43.7223 	 26.3677 	 89.9125
| 39> H 	 -41.7478 	 27.782 	 95.513
| 40> H 	 -38.2407 	 30.3975 	 88.6892
| 41> *
| 42>
| 43>                          ****END OF INPUT****

CARTESIAN COORDINATES (ANGSTROEM)
---------------------------------
  S    -40.667800   28.107200   93.376100
  C    -41.710500   28.489200   94.690300
  C    -42.565200   29.528700   94.495300
  C    -42.245700   30.113000   93.239300
  C    -41.205700   29.600700   92.529900
  H    -42.768400   31.087800   92.922900
  C    -43.756800   29.983500   95.395900
  H    -43.912600   29.265000   96.177500
  H    -44.627400   29.901700   94.759000
  C    -43.750600   31.439500   96.005600
  H    -44.773200   31.708100   96.307200
  H    -43.222100   31.526500   96.924700
  C    -43.037700   32.585100   95.203500
  H    -43.377000   32.752100   94.175800
  H    -43.202200   33.553600   95.630800
  H    -41.993900   32.478500   95.214900
  S    -38.978200   30.200100   91.137800
  C    -39.107800   30.143200   89.347600
  C    -40.451800   30.132900   88.935100
  C    -41.373400   29.934700   90.006400
  C    -40.703800   29.903400   91.199800
  H    -40.648300   30.174800   87.853800
  C    -42.844700   29.794000   89.742900
  H    -43.071800   29.860700   88.619400
  H    -43.395700   30.681100   90.036000
  C    -43.548900   28.495500   90.300800
  H    -44.621900   28.575800   90.232300
  H    -43.479400   28.544600   91.331100
  C    -43.086600   27.176300   89.571500
  H    -42.032900   26.973600   89.904600
  H    -43.129500   27.212200   88.469500
  H    -43.722300   26.367700   89.912500
  H    -41.747800   27.782000   95.513000
  H    -38.240700   30.397500   88.689200

 Total Charge           Charge          ....    0
 Multiplicity           Mult            ....    1
 Number of Electrons    NEL             ....  134
 Basis Dimension        Dim             ....  322

ORBITAL ENERGIES
----------------

  NO   OCC          E(Eh)            E(eV)
   0   2.0000     -88.966686     -2420.9066
   1   2.0000     -88.961286     -2420.7597
   2   2.0000     -10.325100      -280.9602
   3   2.0000     -10.323736      -280.9231
   4   2.0000     -10.323209      -280.9088
   5   2.0000     -10.310295      -280.5574
   6   2.0000     -10.303567      -280.3743
   7   2.0000     -10.301743      -280.3247
   8   2.0000     -10.300759      -280.2979
   9   2.0000     -10.298722      -280.2425
  10   2.0000     -10.297037      -280.1966
  11   2.0000     -10.295377      -280.1514
  12   2.0000     -10.293018      -280.0873
  13   2.0000     -10.279601      -279.7222
  14   2.0000     -10.279579      -279.7216
  15   2.0000     -10.274637      -279.5871
  16   2.0000      -8.080773      -219.8890
  17   2.0000      -8.076214      -219.7650
  18   2.0000      -6.039213      -164.3353
  19   2.0000      -6.035588      -164.2367
  20   2.0000      -6.034658      -164.2114
  21   2.0000      -6.031427      -164.1235
  22   2.0000      -6.030830      -164.1072
  23   2.0000      -6.026880      -163.9998
  24   2.0000      -1.005656       -27.3653
  25   2.0000      -0.982190       -26.7268
  26   2.0000      -0.900749       -24.5106
  27   2.0000      -0.897793       -24.4302
  28   2.0000      -0.866519       -23.5792
  29   2.0000      -0.845123       -22.9970
  30   2.0000      -0.842378       -22.9223
  31   2.0000      -0.812254       -22.1025
  32   2.0000      -0.786213       -21.3939
  33   2.0000      -0.771520       -20.9941
  34   2.0000      -0.710741       -19.3402
  35   2.0000      -0.705712       -19.2034
  36   2.0000      -0.687399       -18.7051
  37   2.0000      -0.661048       -17.9880
  38   2.0000      -0.639275       -17.3956
  39   2.0000      -0.616556       -16.7773
  40   2.0000      -0.589492       -16.0409
  41   2.0000      -0.564344       -15.3566
  42   2.0000      -0.547596       -14.9008
  43   2.0000      -0.541954       -14.7473
  44   2.0000      -0.536293       -14.5933
  45   2.0000      -0.531208       -14.4549
  46   2.0000      -0.515324       -14.0227
  47   2.0000      -0.508332       -13.8324
  48   2.0000      -0.495277       -13.4772
  49   2.0000      -0.486744       -13.2450
  50   2.0000      -0.483203       -13.1486
  51   2.0000      -0.478979       -13.0337
  52   2.0000      -0.469020       -12.7627
  53   2.0000      -0.465123       -12.6566
  54   2.0000      -0.462161       -12.5760
  55   2.0000      -0.444765       -12.1027
  56   2.0000      -0.440908       -11.9977
  57   2.0000      -0.432454       -11.7677
  58   2.0000      -0.430360       -11.7107
  59   2.0000      -0.428579       -11.6622
  60   2.0000      -0.420389       -11.4394
  61   2.0000      -0.417005       -11.3473
  62   2.0000      -0.411665       -11.2020
  63   2.0000      -0.340797        -9.2735
  64   2.0000      -0.333816        -9.0836
  65   2.0000      -0.328408        -8.9364
  66   2.0000      -0.295544        -8.0422
  67   0.0000       0.031892         0.8678
  68   0.0000       0.066639         1.8133
  69   0.0000       0.101967         2.7747
  70   0.0000       0.110995         3.0203
  71   0.0000       0.133967         3.6454

MULLIKEN ATOMIC CHARGES
-----------------------
   0 S :    0.101043
   1 C :   -0.136377
   2 C :   -0.082439
   3 C :   -0.013165
   4 C :   -0.143551
   5 H :    0.033721
   6 C :    0.113046
   7 H :    0.017085
   8 H :    0.034170
   9 C :   -0.067591
  10 H :    0.029372
  11 H :    0.024305
  12 C :   -0.055032
  13 H :    0.027143
  14 H :    0.020187
  15 H :    0.038834
  16 S :    0.111578
  17 C :   -0.119978
  18 C :   -0.050060
  19 C :    0.031325
  20 C :   -0.195463
  21 H :    0.031451
  22 C :    0.022222
  23 H :    0.020436
  24 H :    0.032168
  25 C :   -0.032916
  26 H :    0.008800
  27 H :    0.018266
  28 C :   -0.056574
  29 H :    0.048796
  30 H :    0.037206
  31 H :    0.034604
  32 H :    0.043049
  33 H :    0.074338
Sum of atomic charges:    0.0000000

LOEWDIN ATOMIC CHARGES
----------------------
   0 S :    0.390365
   1 C :   -0.191871
   2 C :   -0.074806
   3 C :   -0.068333
   4 C :   -0.189622
   5 H :    0.041363
   6 C :   -0.021238
   7 H :    0.029349
   8 H :    0.034167
   9 C :   -0.037125
  10 H :    0.026352
  11 H :    0.022933
  12 C :   -0.065349
  13 H :    0.019746
  14 H :    0.026283
  15 H :    0.022876
  16 S :    0.391588
  17 C :   -0.183113
  18 C :   -0.065891
  19 C :   -0.056055
  20 C :   -0.196839
  21 H :    0.036431
  22 C :   -0.036070
  23 H :    0.035280
  24 H :    0.031209
  25 C :   -0.035412
  26 H :    0.021516
  27 H :    0.015187
  28 C :   -0.065034
  29 H :    0.032669
  30 H :    0.026360
  31 H :    0.025043
  32 H :    0.022506
  33 H :    0.035535

  Mayer bond orders larger than 0.100000
B(  0-S ,  1-C ) :   1.1575 B(  0-S ,  4-C ) :   1.1178 B(  1-C ,  2-C ) :   1.6280
B(  1-C , 32-H ) :   0.9615 B(  2-C ,  3-C ) :   1.2329 B(  2-C ,  6-C ) :   1.0099
B(  3-C ,  4-C ) :   1.6219 B(  3-C ,  5-H ) :   0.9780 B(  4-C , 20-C ) :   1.0291
B(  6-C ,  7-H ) :   0.9416 B(  6-C ,  8-H ) :   0.9429 B(  6-C ,  9-C ) :   1.0564
B(  9-C , 10-H ) :   0.9597 B(  9-C , 11-H ) :   0.9570 B(  9-C , 12-C ) :   1.0855
B( 12-C , 13-H ) :   0.9729 B( 12-C , 14-H ) :   0.9682 B( 12-C , 15-H ) :   0.9714
B( 16-S , 17-C ) :   1.1348 B( 16-S , 20-C ) :   1.1522 B( 17-C , 18-C ) :   1.6277
B( 17-C , 20-C ) :   0.1011 B( 17-C , 33-H ) :   0.9605 B( 18-C , 19-C ) :   1.2205
B( 18-C , 21-H ) :   0.9815 B( 19-C , 20-C ) :   1.6047 B( 19-C , 22-C ) :   1.0331
B( 22-C , 23-H ) :   0.9404 B( 22-C , 24-H ) :   0.9330 B( 22-C , 25-C ) :   1.0707
B( 25-C , 26-H ) :   0.9501 B( 25-C , 27-H ) :   0.9551 B( 25-C , 28-C ) :   1.0625
B( 28-C , 29-H ) :   0.9771 B( 28-C , 30-H ) :   0.9773 B( 28-C , 31-H ) :   0.9763

Dispersion correction           -0.015688050
FINAL SINGLE POINT ENERGY     -1339.868116676834

DIPOLE MOMENT
-------------
                                X             Y             Z
Electronic contribution:     21.61365      -4.60408      -2.50060
Nuclear contribution   :    -22.28405       4.85276       2.53704
                        -----------------------------------------
Total Dipole Moment    :     -0.67040       0.24868       0.03644
                        -----------------------------------------
Magnitude (a.u.)       :      0.71597
Magnitude (Debye)      :      1.81985

Rotational constants in cm-1:     0.019216     0.009005     0.008254
Rotational constants in MHz :   576.067399   269.959233   247.462895

                             ****ORCA TERMINATED NORMALLY****
TOTAL RUN TIME: 0 days 0 hours 0 minutes 30 seconds 242 msec
