                         Program Version 4.2.1 -  RELEASE  -
|  1> ! wB97X-D3 SP def2-SVP
|  2> %pal
|  3> nprocs 16
|  4> end
|  5>
|  6> * xyz 0 1
|  7> S 	 -32.6995 	 41.9824 	 95.1251
|  8> C 	 -33.9598 	 41.2911 	 96.1078
|  9> C 	 -34.3805 	 42.222 	 97.0906
| 10> C 	 -33.3627 	 43.2641 	 97.2406
| 11> C 	 -32.3038 	 43.1391 	 96.3398
| 12> H 	 -33.2264 	 43.8973 	 98.0753
| 13> C 	 -35.5741 	 41.9741 	 98.0432
| 14> H 	 -35.678 	 40.8924 	 97.9476
| 15> H 	 -36.5184 	 42.3251 	 97.5277
| 16> C 	 -35.3147 	 42.286 	 99.4781
| 17> H 	 -34.2949 	 41.9449 	 99.5966
| 18> H 	 -35.1996 	 43.3792 	 99.53
| 19> C 	 -36.3623 	 41.8223 	 100.493
| 20> H 	 -36.0014 	 41.9866 	 101.453
| 21> H 	 -37.3519 	 42.3119 	 100.365
| 22> H 	 -36.5199 	 40.7136 	 100.366
| 23> S 	 -29.6205 	 43.2753 	 96.1225
| 24> C 	 -28.7612 	 44.7995 	 96.1204
| 25> C 	 -29.6733 	 45.7705 	 96.3435
| 26> C 	 -31.0811 	 45.4431 	 96.4344
| 27> C 	 -31.1953 	 44.0296 	 96.3132
| 28> H 	 -29.2822 	 46.7416 	 96.3065
| 29> C 	 -32.1045 	 46.4695 	 96.8873
| 30> H 	 -31.5466 	 47.3777 	 97.0623
| 31> H 	 -32.5323 	 46.2551 	 97.8937
| 32> C 	 -33.1157 	 46.7681 	 95.8204
| 33> H 	 -34.0411 	 47.1154 	 96.3488
| 34> H 	 -33.5778 	 45.8436 	 95.3655
| 35> C 	 -32.6986 	 47.8132 	 94.7911
| 36> H 	 -31.7695 	 47.4894 	 94.2977
| 37> H 	 -32.5337 	 48.8456 	 95.1821
| 38> H 	 -33.4844 	 47.9769 	 94.0689
| 39> H 	 -34.3028 	 40.2976 	 95.91
| 40> H 	 -27.6803 	 44.9225 	 95.8981
| 41> *
| 42>
| 43>                          ****END OF INPUT****

CARTESIAN COORDINATES (ANGSTROEM)
---------------------------------
  S    -32.699500   41.982400   95.125100
  C    -33.959800   41.291100   96.107800
  C    -34.380500   42.222000   97.090600
  C    -33.362700   43.264100   97.240600
  C    -32.303800   43.139100   96.339800
  H    -33.226400   43.897300   98.075300
  C    -35.574100   41.974100   98.043200
  H    -35.678000   40.892400   97.947600
  H    -36.518400   42.325100   97.527700
  C    -35.314700   42.286000   99.478100
  H    -34.294900   41.944900   99.596600
  H    -35.199600   43.379200   99.530000
  C    -36.362300   41.822300  100.493000
  H    -36.001400   41.986600  101.453000
  H    -37.351900   42.311900  100.365000
  H    -36.519900   40.713600  100.366000
  S    -29.620500   43.275300   96.122500
  C    -28.761200   44.799500   96.120400
  C    -29.673300   45.770500   96.343500
  C    -31.081100   45.443100   96.434400
  C    -31.195300   44.029600   96.313200
  H    -29.282200   46.741600   96.306500
  C    -32.104500   46.469500   96.887300
  H    -31.546600   47.377700   97.062300
  H    -32.532300   46.255100   97.893700
  C    -33.115700   46.768100   95.820400
  H    -34.041100   47.115400   96.348800
  H    -33.577800   45.843600   95.365500
  C    -32.698600   47.813200   94.791100
  H    -31.769500   47.489400   94.297700
  H    -32.533700   48.845600   95.182100
  H    -33.484400   47.976900   94.068900
  H    -34.302800   40.297600   95.910000
  H    -27.680300   44.922500   95.898100

 Total Charge           Charge          ....    0
 Multiplicity           Mult            ....    1
 Number of Electrons    NEL             ....  134
 Basis Dimension        Dim             ....  322

ORBITAL ENERGIES
----------------

  NO   OCC          E(Eh)            E(eV)
   0   2.0000     -88.963552     -2420.8213
   1   2.0000     -88.960817     -2420.7469
   2   2.0000     -10.328189      -281.0443
   3   2.0000     -10.323349      -280.9126
   4   2.0000     -10.315796      -280.7071
   5   2.0000     -10.315084      -280.6877
   6   2.0000     -10.312109      -280.6068
   7   2.0000     -10.308843      -280.5179
   8   2.0000     -10.295076      -280.1433
   9   2.0000     -10.294169      -280.1186
  10   2.0000     -10.293865      -280.1103
  11   2.0000     -10.286221      -279.9023
  12   2.0000     -10.286212      -279.9021
  13   2.0000     -10.286172      -279.9010
  14   2.0000     -10.283643      -279.8322
  15   2.0000     -10.278386      -279.6891
  16   2.0000      -8.079037      -219.8418
  17   2.0000      -8.075744      -219.7522
  18   2.0000      -6.037440      -164.2871
  19   2.0000      -6.034274      -164.2009
  20   2.0000      -6.033546      -164.1811
  21   2.0000      -6.030061      -164.0863
  22   2.0000      -6.029747      -164.0778
  23   2.0000      -6.026612      -163.9924
  24   2.0000      -1.006467       -27.3873
  25   2.0000      -0.981542       -26.7091
  26   2.0000      -0.916117       -24.9288
  27   2.0000      -0.911547       -24.8045
  28   2.0000      -0.873663       -23.7736
  29   2.0000      -0.847285       -23.0558
  30   2.0000      -0.841346       -22.8942
  31   2.0000      -0.814298       -22.1582
  32   2.0000      -0.784553       -21.3488
  33   2.0000      -0.773679       -21.0529
  34   2.0000      -0.715137       -19.4599
  35   2.0000      -0.698280       -19.0012
  36   2.0000      -0.684876       -18.6364
  37   2.0000      -0.660175       -17.9643
  38   2.0000      -0.641906       -17.4671
  39   2.0000      -0.616222       -16.7682
  40   2.0000      -0.594724       -16.1833
  41   2.0000      -0.569067       -15.4851
  42   2.0000      -0.560374       -15.2486
  43   2.0000      -0.555940       -15.1279
  44   2.0000      -0.539749       -14.6873
  45   2.0000      -0.529917       -14.4198
  46   2.0000      -0.512415       -13.9435
  47   2.0000      -0.511251       -13.9118
  48   2.0000      -0.507678       -13.8146
  49   2.0000      -0.501327       -13.6418
  50   2.0000      -0.489257       -13.3134
  51   2.0000      -0.480464       -13.0741
  52   2.0000      -0.477811       -13.0019
  53   2.0000      -0.468376       -12.7452
  54   2.0000      -0.459308       -12.4984
  55   2.0000      -0.449598       -12.2342
  56   2.0000      -0.439664       -11.9639
  57   2.0000      -0.438020       -11.9191
  58   2.0000      -0.430114       -11.7040
  59   2.0000      -0.423646       -11.5280
  60   2.0000      -0.418071       -11.3763
  61   2.0000      -0.410222       -11.1627
  62   2.0000      -0.401926       -10.9370
  63   2.0000      -0.342549        -9.3212
  64   2.0000      -0.327874        -8.9219
  65   2.0000      -0.324760        -8.8372
  66   2.0000      -0.290800        -7.9131
  67   0.0000       0.017992         0.4896
  68   0.0000       0.077284         2.1030
  69   0.0000       0.107696         2.9306
  70   0.0000       0.118921         3.2360
  71   0.0000       0.130512         3.5514

MULLIKEN ATOMIC CHARGES
-----------------------
   0 S :    0.120740
   1 C :   -0.136026
   2 C :   -0.089372
   3 C :    0.006637
   4 C :   -0.123131
   5 H :    0.002647
   6 C :    0.067498
   7 H :    0.006141
   8 H :    0.048239
   9 C :   -0.100451
  10 H :    0.032935
  11 H :    0.030734
  12 C :   -0.011014
  13 H :    0.026751
  14 H :    0.042306
  15 H :    0.033832
  16 S :    0.096881
  17 C :   -0.105166
  18 C :   -0.027012
  19 C :   -0.004806
  20 C :   -0.199190
  21 H :   -0.003847
  22 C :    0.074233
  23 H :    0.006750
  24 H :    0.047854
  25 C :   -0.092938
  26 H :    0.016449
  27 H :    0.047529
  28 C :   -0.044411
  29 H :    0.038277
  30 H :    0.030705
  31 H :    0.033395
  32 H :    0.050818
  33 H :    0.076015
Sum of atomic charges:   -0.0000000

LOEWDIN ATOMIC CHARGES
----------------------
   0 S :    0.416776
   1 C :   -0.197706
   2 C :   -0.050134
   3 C :   -0.064316
   4 C :   -0.210198
   5 H :    0.022115
   6 C :   -0.041135
   7 H :    0.028183
   8 H :    0.038197
   9 C :   -0.051061
  10 H :    0.029317
  11 H :    0.023607
  12 C :   -0.057562
  13 H :    0.019173
  14 H :    0.033211
  15 H :    0.031214
  16 S :    0.403987
  17 C :   -0.193493
  18 C :   -0.074585
  19 C :   -0.049972
  20 C :   -0.193598
  21 H :    0.019434
  22 C :   -0.033349
  23 H :    0.030778
  24 H :    0.037328
  25 C :   -0.054157
  26 H :    0.025573
  27 H :    0.033752
  28 C :   -0.068305
  29 H :    0.027514
  30 H :    0.027628
  31 H :    0.026685
  32 H :    0.021973
  33 H :    0.043128

  Mayer bond orders larger than 0.100000
B(  0-S ,  1-C ) :   1.1490 B(  0-S ,  4-C ) :   1.1549 B(  1-C ,  2-C ) :   1.5776
B(  1-C , 32-H ) :   0.9769 B(  2-C ,  3-C ) :   1.2270 B(  2-C ,  6-C ) :   1.0179
B(  3-C ,  4-C ) :   1.5491 B(  3-C ,  5-H ) :   1.0026 B(  4-C , 20-C ) :   1.0860
B(  6-C ,  7-H ) :   0.9386 B(  6-C ,  8-H ) :   0.9284 B(  6-C ,  9-C ) :   1.0664
B(  9-C , 10-H ) :   0.9547 B(  9-C , 11-H ) :   0.9453 B(  9-C , 12-C ) :   1.0818
B( 12-C , 13-H ) :   0.9729 B( 12-C , 14-H ) :   0.9725 B( 12-C , 15-H ) :   0.9747
B( 16-S , 17-C ) :   1.1361 B( 16-S , 20-C ) :   1.1624 B( 17-C , 18-C ) :   1.6193
B( 17-C , 33-H ) :   0.9643 B( 18-C , 19-C ) :   1.2392 B( 18-C , 21-H ) :   0.9875
B( 19-C , 20-C ) :   1.5394 B( 19-C , 22-C ) :   1.0337 B( 22-C , 23-H ) :   0.9299
B( 22-C , 24-H ) :   0.9424 B( 22-C , 25-C ) :   1.0590 B( 25-C , 26-H ) :   0.9489
B( 25-C , 27-H ) :   0.9581 B( 25-C , 28-C ) :   1.0804 B( 28-C , 29-H ) :   0.9748
B( 28-C , 30-H ) :   0.9718 B( 28-C , 31-H ) :   0.9726

Dispersion correction           -0.014281133
FINAL SINGLE POINT ENERGY     -1339.860753678283

DIPOLE MOMENT
-------------
                                X             Y             Z
Electronic contribution:     19.44220     -12.00399     -12.24621
Nuclear contribution   :    -19.78638      12.34516      12.67341
                        -----------------------------------------
Total Dipole Moment    :     -0.34418       0.34117       0.42720
                        -----------------------------------------
Magnitude (a.u.)       :      0.64603
Magnitude (Debye)      :      1.64209

Rotational constants in cm-1:     0.018351     0.008222     0.007033
Rotational constants in MHz :   550.139881   246.475393   210.836525

                             ****ORCA TERMINATED NORMALLY****
TOTAL RUN TIME: 0 days 0 hours 0 minutes 28 seconds 682 msec
