                         Program Version 4.2.1 -  RELEASE  -
|  1> ! wB97X-D3 SP def2-SVP
|  2> %pal
|  3> nprocs 16
|  4> end
|  5>
|  6> * xyz 0 1
|  7> S 	 -31.1353 	 32.187 	 43.7117
|  8> C 	 -32.103 	 30.976 	 44.5346
|  9> C 	 -32.7153 	 31.4116 	 45.6535
| 10> C 	 -32.5461 	 32.8112 	 45.7
| 11> C 	 -32.0147 	 33.4389 	 44.6149
| 12> H 	 -32.8161 	 33.4672 	 46.4652
| 13> C 	 -33.2789 	 30.556 	 46.8109
| 14> H 	 -32.4843 	 29.8006 	 46.9368
| 15> H 	 -34.0916 	 30.0573 	 46.3186
| 16> C 	 -33.918 	 31.1646 	 48.0293
| 17> H 	 -34.6802 	 31.9351 	 47.7814
| 18> H 	 -34.4205 	 30.2991 	 48.3689
| 19> C 	 -32.9038 	 31.7198 	 49.0857
| 20> H 	 -32.3399 	 30.9198 	 49.6959
| 21> H 	 -32.2131 	 32.3988 	 48.5963
| 22> H 	 -33.3338 	 32.4489 	 49.7605
| 23> S 	 -30.0653 	 35.1855 	 43.8281
| 24> C 	 -30.5635 	 36.7973 	 43.2456
| 25> C 	 -31.9581 	 37.0086 	 43.3625
| 26> C 	 -32.626 	 35.913 	 44.0375
| 27> C 	 -31.7838 	 34.8321 	 44.2569
| 28> H 	 -32.2754 	 37.9031 	 42.9138
| 29> C 	 -34.0625 	 35.8852 	 44.4526
| 30> H 	 -34.2786 	 36.9441 	 44.604
| 31> H 	 -34.1621 	 35.341 	 45.4519
| 32> C 	 -35.0608 	 35.2439 	 43.3997
| 33> H 	 -34.8257 	 34.2364 	 43.1463
| 34> H 	 -34.9088 	 35.7653 	 42.3981
| 35> C 	 -36.5428 	 35.2043 	 43.9212
| 36> H 	 -37.3297 	 34.922 	 43.1219
| 37> H 	 -36.8331 	 36.1329 	 44.3513
| 38> H 	 -36.6588 	 34.5285 	 44.8034
| 39> H 	 -31.9111 	 29.9584 	 44.4452
| 40> H 	 -29.9207 	 37.4727 	 42.6688
| 41> *
| 42>
| 43>                          ****END OF INPUT****

CARTESIAN COORDINATES (ANGSTROEM)
---------------------------------
  S    -31.135300   32.187000   43.711700
  C    -32.103000   30.976000   44.534600
  C    -32.715300   31.411600   45.653500
  C    -32.546100   32.811200   45.700000
  C    -32.014700   33.438900   44.614900
  H    -32.816100   33.467200   46.465200
  C    -33.278900   30.556000   46.810900
  H    -32.484300   29.800600   46.936800
  H    -34.091600   30.057300   46.318600
  C    -33.918000   31.164600   48.029300
  H    -34.680200   31.935100   47.781400
  H    -34.420500   30.299100   48.368900
  C    -32.903800   31.719800   49.085700
  H    -32.339900   30.919800   49.695900
  H    -32.213100   32.398800   48.596300
  H    -33.333800   32.448900   49.760500
  S    -30.065300   35.185500   43.828100
  C    -30.563500   36.797300   43.245600
  C    -31.958100   37.008600   43.362500
  C    -32.626000   35.913000   44.037500
  C    -31.783800   34.832100   44.256900
  H    -32.275400   37.903100   42.913800
  C    -34.062500   35.885200   44.452600
  H    -34.278600   36.944100   44.604000
  H    -34.162100   35.341000   45.451900
  C    -35.060800   35.243900   43.399700
  H    -34.825700   34.236400   43.146300
  H    -34.908800   35.765300   42.398100
  C    -36.542800   35.204300   43.921200
  H    -37.329700   34.922000   43.121900
  H    -36.833100   36.132900   44.351300
  H    -36.658800   34.528500   44.803400
  H    -31.911100   29.958400   44.445200
  H    -29.920700   37.472700   42.668800

 Total Charge           Charge          ....    0
 Multiplicity           Mult            ....    1
 Number of Electrons    NEL             ....  134
 Basis Dimension        Dim             ....  322

ORBITAL ENERGIES
----------------

  NO   OCC          E(Eh)            E(eV)
   0   2.0000     -88.965803     -2420.8826
   1   2.0000     -88.959587     -2420.7134
   2   2.0000     -10.330433      -281.1054
   3   2.0000     -10.326513      -280.9987
   4   2.0000     -10.324204      -280.9359
   5   2.0000     -10.309793      -280.5437
   6   2.0000     -10.301414      -280.3157
   7   2.0000     -10.300621      -280.2941
   8   2.0000     -10.300125      -280.2807
   9   2.0000     -10.296635      -280.1857
  10   2.0000     -10.296263      -280.1756
  11   2.0000     -10.294993      -280.1410
  12   2.0000     -10.293824      -280.1092
  13   2.0000     -10.286776      -279.9174
  14   2.0000     -10.286273      -279.9037
  15   2.0000     -10.284775      -279.8629
  16   2.0000      -8.079199      -219.8462
  17   2.0000      -8.074321      -219.7135
  18   2.0000      -6.037790      -164.2966
  19   2.0000      -6.033994      -164.1933
  20   2.0000      -6.032964      -164.1653
  21   2.0000      -6.029845      -164.0804
  22   2.0000      -6.029225      -164.0635
  23   2.0000      -6.024528      -163.9357
  24   2.0000      -1.006013       -27.3750
  25   2.0000      -0.977952       -26.6114
  26   2.0000      -0.914938       -24.8967
  27   2.0000      -0.898282       -24.4435
  28   2.0000      -0.870632       -23.6911
  29   2.0000      -0.846380       -23.0312
  30   2.0000      -0.838711       -22.8225
  31   2.0000      -0.818644       -22.2764
  32   2.0000      -0.787853       -21.4386
  33   2.0000      -0.769628       -20.9426
  34   2.0000      -0.714364       -19.4388
  35   2.0000      -0.701811       -19.0972
  36   2.0000      -0.692505       -18.8440
  37   2.0000      -0.662259       -18.0210
  38   2.0000      -0.645898       -17.5758
  39   2.0000      -0.623500       -16.9663
  40   2.0000      -0.585653       -15.9364
  41   2.0000      -0.570618       -15.5273
  42   2.0000      -0.559614       -15.2279
  43   2.0000      -0.547200       -14.8901
  44   2.0000      -0.534289       -14.5388
  45   2.0000      -0.522778       -14.2255
  46   2.0000      -0.520729       -14.1697
  47   2.0000      -0.507139       -13.8000
  48   2.0000      -0.495518       -13.4837
  49   2.0000      -0.494724       -13.4621
  50   2.0000      -0.487545       -13.2668
  51   2.0000      -0.483371       -13.1532
  52   2.0000      -0.474640       -12.9156
  53   2.0000      -0.460830       -12.5398
  54   2.0000      -0.458589       -12.4788
  55   2.0000      -0.446354       -12.1459
  56   2.0000      -0.440394       -11.9837
  57   2.0000      -0.437188       -11.8965
  58   2.0000      -0.433825       -11.8050
  59   2.0000      -0.430355       -11.7106
  60   2.0000      -0.423530       -11.5248
  61   2.0000      -0.417323       -11.3559
  62   2.0000      -0.411987       -11.2107
  63   2.0000      -0.343245        -9.3402
  64   2.0000      -0.330962        -9.0059
  65   2.0000      -0.325161        -8.8481
  66   2.0000      -0.286646        -7.8000
  67   0.0000       0.020652         0.5620
  68   0.0000       0.058278         1.5858
  69   0.0000       0.100565         2.7365
  70   0.0000       0.116893         3.1808
  71   0.0000       0.130969         3.5638

MULLIKEN ATOMIC CHARGES
-----------------------
   0 S :    0.086316
   1 C :   -0.093185
   2 C :   -0.072251
   3 C :    0.019289
   4 C :   -0.133313
   5 H :   -0.017572
   6 C :    0.057930
   7 H :    0.042454
   8 H :    0.031315
   9 C :   -0.037821
  10 H :    0.040778
  11 H :    0.027437
  12 C :   -0.069120
  13 H :    0.055261
  14 H :    0.026250
  15 H :    0.026799
  16 S :    0.083878
  17 C :   -0.106471
  18 C :   -0.031952
  19 C :   -0.011844
  20 C :   -0.159714
  21 H :    0.006371
  22 C :    0.038659
  23 H :    0.028497
  24 H :    0.038264
  25 C :   -0.063328
  26 H :    0.035661
  27 H :    0.035524
  28 C :   -0.066816
  29 H :    0.055322
  30 H :    0.015701
  31 H :    0.032896
  32 H :    0.013242
  33 H :    0.065542
Sum of atomic charges:   -0.0000000

LOEWDIN ATOMIC CHARGES
----------------------
   0 S :    0.381486
   1 C :   -0.183737
   2 C :   -0.062834
   3 C :   -0.064289
   4 C :   -0.179339
   5 H :    0.015419
   6 C :   -0.031433
   7 H :    0.038865
   8 H :    0.037153
   9 C :   -0.040005
  10 H :    0.034770
  11 H :    0.027462
  12 C :   -0.078072
  13 H :    0.038472
  14 H :    0.024174
  15 H :    0.025061
  16 S :    0.363104
  17 C :   -0.175736
  18 C :   -0.063596
  19 C :   -0.055072
  20 C :   -0.175131
  21 H :    0.026359
  22 C :   -0.035309
  23 H :    0.032559
  24 H :    0.037927
  25 C :   -0.039078
  26 H :    0.022232
  27 H :    0.031181
  28 C :   -0.076565
  29 H :    0.038840
  30 H :    0.014581
  31 H :    0.028683
  32 H :    0.010374
  33 H :    0.031494

  Mayer bond orders larger than 0.100000
B(  0-S ,  1-C ) :   1.1342 B(  0-S ,  4-C ) :   1.1173 B(  1-C ,  2-C ) :   1.6459
B(  1-C , 32-H ) :   0.9694 B(  2-C ,  3-C ) :   1.2252 B(  2-C ,  6-C ) :   0.9776
B(  3-C ,  4-C ) :   1.5994 B(  3-C ,  5-H ) :   0.9967 B(  4-C , 20-C ) :   1.0562
B(  6-C ,  7-H ) :   0.9407 B(  6-C ,  8-H ) :   0.9349 B(  6-C ,  9-C ) :   1.0809
B(  9-C , 10-H ) :   0.9502 B(  9-C , 11-H ) :   0.9529 B(  9-C , 12-C ) :   1.0670
B( 12-C , 13-H ) :   0.9743 B( 12-C , 14-H ) :   0.9769 B( 12-C , 15-H ) :   0.9747
B( 16-S , 17-C ) :   1.1356 B( 16-S , 20-C ) :   1.1184 B( 17-C , 18-C ) :   1.6466
B( 17-C , 33-H ) :   0.9621 B( 18-C , 19-C ) :   1.1872 B( 18-C , 21-H ) :   1.0004
B( 19-C , 20-C ) :   1.6226 B( 19-C , 22-C ) :   1.0427 B( 22-C , 23-H ) :   0.9283
B( 22-C , 24-H ) :   0.9405 B( 22-C , 25-C ) :   1.0496 B( 25-C , 26-H ) :   0.9613
B( 25-C , 27-H ) :   0.9562 B( 25-C , 28-C ) :   1.0647 B( 28-C , 29-H ) :   0.9749
B( 28-C , 30-H ) :   0.9765 B( 28-C , 31-H ) :   0.9745

Dispersion correction           -0.014287306
FINAL SINGLE POINT ENERGY     -1339.836768091289

DIPOLE MOMENT
-------------
                                X             Y             Z
Electronic contribution:     23.36921       2.67690     -14.38655
Nuclear contribution   :    -23.89462      -2.67907      14.77581
                        -----------------------------------------
Total Dipole Moment    :     -0.52540      -0.00218       0.38926
                        -----------------------------------------
Magnitude (a.u.)       :      0.65390
Magnitude (Debye)      :      1.66208

Rotational constants in cm-1:     0.016616     0.009353     0.007384
Rotational constants in MHz :   498.144865   280.401178   221.374815

                             ****ORCA TERMINATED NORMALLY****
TOTAL RUN TIME: 0 days 0 hours 0 minutes 34 seconds 76 msec
