                         Program Version 4.2.1 -  RELEASE  -
|  1> ! wB97X-D3 SP def2-SVP
|  2> %pal
|  3> nprocs 16
|  4> end
|  5>
|  6> * xyz 0 1
|  7> S 	 44.9115 	 5.12719 	 85.5919
|  8> C 	 45.3988 	 4.40123 	 84.0339
|  9> C 	 46.2439 	 3.32112 	 84.1622
| 10> C 	 46.5638 	 3.03959 	 85.525
| 11> C 	 45.7275 	 3.76797 	 86.3657
| 12> H 	 47.3555 	 2.36722 	 85.9289
| 13> C 	 46.8527 	 2.48427 	 83.0449
| 14> H 	 47.9204 	 2.46469 	 83.0003
| 15> H 	 46.5251 	 2.97196 	 82.0674
| 16> C 	 46.5084 	 1.00713 	 82.9369
| 17> H 	 46.843 	 0.467942 	 83.8406
| 18> H 	 45.4515 	 0.839938 	 82.8116
| 19> C 	 47.2103 	 0.366505 	 81.6754
| 20> H 	 48.2588 	 -0.0366613 	 81.9866
| 21> H 	 46.6524 	 -0.500922 	 81.2468
| 22> H 	 47.3425 	 1.06256 	 80.8119
| 23> S 	 45.9492 	 4.92353 	 88.825
| 24> C 	 45.5022 	 3.98567 	 90.2742
| 25> C 	 45.1539 	 2.70661 	 89.943
| 26> C 	 45.0819 	 2.46213 	 88.5007
| 27> C 	 45.5431 	 3.55352 	 87.7855
| 28> H 	 44.8308 	 1.97363 	 90.7723
| 29> C 	 44.6387 	 1.14318 	 87.7914
| 30> H 	 44.3463 	 1.31393 	 86.8087
| 31> H 	 43.7217 	 0.734524 	 88.2649
| 32> C 	 45.6957 	 0.0828305 	 87.711
| 33> H 	 45.9623 	 -0.282173 	 88.7034
| 34> H 	 46.6246 	 0.703546 	 87.5212
| 35> C 	 45.4633 	 -0.993292 	 86.6361
| 36> H 	 44.8826 	 -1.85442 	 87.0356
| 37> H 	 46.4154 	 -1.46936 	 86.3285
| 38> H 	 44.9759 	 -0.655709 	 85.7269
| 39> H 	 45.2582 	 4.84693 	 83.0872
| 40> H 	 45.6154 	 4.32016 	 91.3079
| 41> *
| 42>
| 43>                          ****END OF INPUT****

CARTESIAN COORDINATES (ANGSTROEM)
---------------------------------
  S     44.911500    5.127190   85.591900
  C     45.398800    4.401230   84.033900
  C     46.243900    3.321120   84.162200
  C     46.563800    3.039590   85.525000
  C     45.727500    3.767970   86.365700
  H     47.355500    2.367220   85.928900
  C     46.852700    2.484270   83.044900
  H     47.920400    2.464690   83.000300
  H     46.525100    2.971960   82.067400
  C     46.508400    1.007130   82.936900
  H     46.843000    0.467942   83.840600
  H     45.451500    0.839938   82.811600
  C     47.210300    0.366505   81.675400
  H     48.258800   -0.036661   81.986600
  H     46.652400   -0.500922   81.246800
  H     47.342500    1.062560   80.811900
  S     45.949200    4.923530   88.825000
  C     45.502200    3.985670   90.274200
  C     45.153900    2.706610   89.943000
  C     45.081900    2.462130   88.500700
  C     45.543100    3.553520   87.785500
  H     44.830800    1.973630   90.772300
  C     44.638700    1.143180   87.791400
  H     44.346300    1.313930   86.808700
  H     43.721700    0.734524   88.264900
  C     45.695700    0.082830   87.711000
  H     45.962300   -0.282173   88.703400
  H     46.624600    0.703546   87.521200
  C     45.463300   -0.993292   86.636100
  H     44.882600   -1.854420   87.035600
  H     46.415400   -1.469360   86.328500
  H     44.975900   -0.655709   85.726900
  H     45.258200    4.846930   83.087200
  H     45.615400    4.320160   91.307900

 Total Charge           Charge          ....    0
 Multiplicity           Mult            ....    1
 Number of Electrons    NEL             ....  134
 Basis Dimension        Dim             ....  322

ORBITAL ENERGIES
----------------

  NO   OCC          E(Eh)            E(eV)
   0   2.0000     -88.970445     -2421.0089
   1   2.0000     -88.963278     -2420.8139
   2   2.0000     -10.330488      -281.1069
   3   2.0000     -10.325434      -280.9693
   4   2.0000     -10.320605      -280.8379
   5   2.0000     -10.314222      -280.6642
   6   2.0000     -10.310733      -280.5693
   7   2.0000     -10.304737      -280.4061
   8   2.0000     -10.304564      -280.4014
   9   2.0000     -10.300187      -280.2823
  10   2.0000     -10.296940      -280.1940
  11   2.0000     -10.295497      -280.1547
  12   2.0000     -10.292021      -280.0601
  13   2.0000     -10.287087      -279.9259
  14   2.0000     -10.286952      -279.9222
  15   2.0000     -10.284801      -279.8637
  16   2.0000      -8.084401      -219.9877
  17   2.0000      -8.077563      -219.8017
  18   2.0000      -6.042909      -164.4359
  19   2.0000      -6.039335      -164.3387
  20   2.0000      -6.036217      -164.2538
  21   2.0000      -6.034865      -164.2170
  22   2.0000      -6.032217      -164.1450
  23   2.0000      -6.028110      -164.0332
  24   2.0000      -1.003699       -27.3120
  25   2.0000      -0.978173       -26.6174
  26   2.0000      -0.910704       -24.7815
  27   2.0000      -0.908656       -24.7258
  28   2.0000      -0.868326       -23.6284
  29   2.0000      -0.848402       -23.0862
  30   2.0000      -0.840117       -22.8607
  31   2.0000      -0.812070       -22.0976
  32   2.0000      -0.780878       -21.2488
  33   2.0000      -0.771141       -20.9838
  34   2.0000      -0.706993       -19.2383
  35   2.0000      -0.696518       -18.9532
  36   2.0000      -0.695610       -18.9285
  37   2.0000      -0.654525       -17.8105
  38   2.0000      -0.641768       -17.4634
  39   2.0000      -0.618563       -16.8320
  40   2.0000      -0.596806       -16.2399
  41   2.0000      -0.573900       -15.6166
  42   2.0000      -0.559224       -15.2173
  43   2.0000      -0.552255       -15.0276
  44   2.0000      -0.520996       -14.1770
  45   2.0000      -0.517956       -14.0943
  46   2.0000      -0.512035       -13.9332
  47   2.0000      -0.510323       -13.8866
  48   2.0000      -0.503441       -13.6993
  49   2.0000      -0.494513       -13.4564
  50   2.0000      -0.489736       -13.3264
  51   2.0000      -0.481092       -13.0912
  52   2.0000      -0.469863       -12.7856
  53   2.0000      -0.464484       -12.6393
  54   2.0000      -0.458143       -12.4667
  55   2.0000      -0.449211       -12.2236
  56   2.0000      -0.445726       -12.1288
  57   2.0000      -0.440202       -11.9785
  58   2.0000      -0.437027       -11.8921
  59   2.0000      -0.425669       -11.5831
  60   2.0000      -0.424319       -11.5463
  61   2.0000      -0.419138       -11.4053
  62   2.0000      -0.400505       -10.8983
  63   2.0000      -0.339677        -9.2431
  64   2.0000      -0.334887        -9.1127
  65   2.0000      -0.328623        -8.9423
  66   2.0000      -0.297144        -8.0857
  67   0.0000       0.028150         0.7660
  68   0.0000       0.065297         1.7768
  69   0.0000       0.097990         2.6664
  70   0.0000       0.121755         3.3131
  71   0.0000       0.126014         3.4290

MULLIKEN ATOMIC CHARGES
-----------------------
   0 S :    0.118727
   1 C :   -0.089964
   2 C :   -0.061727
   3 C :    0.015511
   4 C :   -0.158178
   5 H :    0.049835
   6 C :    0.042084
   7 H :    0.028248
   8 H :    0.018655
   9 C :   -0.065521
  10 H :    0.038049
  11 H :    0.031340
  12 C :   -0.117258
  13 H :    0.047579
  14 H :    0.045332
  15 H :    0.041207
  16 S :    0.088145
  17 C :   -0.091397
  18 C :   -0.060406
  19 C :   -0.040636
  20 C :   -0.178051
  21 H :    0.052487
  22 C :    0.112110
  23 H :    0.002993
  24 H :    0.023688
  25 C :   -0.081260
  26 H :    0.019517
  27 H :    0.014258
  28 C :   -0.048218
  29 H :    0.038831
  30 H :    0.034847
  31 H :    0.038591
  32 H :    0.026812
  33 H :    0.063770
Sum of atomic charges:    0.0000000

LOEWDIN ATOMIC CHARGES
----------------------
   0 S :    0.388532
   1 C :   -0.180278
   2 C :   -0.060299
   3 C :   -0.057374
   4 C :   -0.185584
   5 H :    0.042855
   6 C :   -0.036296
   7 H :    0.028630
   8 H :    0.032866
   9 C :   -0.040294
  10 H :    0.025514
  11 H :    0.020352
  12 C :   -0.079853
  13 H :    0.034078
  14 H :    0.030180
  15 H :    0.026479
  16 S :    0.373953
  17 C :   -0.177731
  18 C :   -0.081285
  19 C :   -0.049286
  20 C :   -0.194623
  21 H :    0.047260
  22 C :   -0.025591
  23 H :    0.020178
  24 H :    0.030208
  25 C :   -0.049626
  26 H :    0.021877
  27 H :    0.024346
  28 C :   -0.069792
  29 H :    0.031312
  30 H :    0.030920
  31 H :    0.025624
  32 H :    0.018346
  33 H :    0.034405

  Mayer bond orders larger than 0.100000
B(  0-S ,  1-C ) :   1.1112 B(  0-S ,  4-C ) :   1.1462 B(  1-C ,  2-C ) :   1.6584
B(  1-C , 32-H ) :   0.9643 B(  2-C ,  3-C ) :   1.2011 B(  2-C ,  6-C ) :   1.0251
B(  3-C ,  4-C ) :   1.5911 B(  3-C ,  5-H ) :   0.9847 B(  4-C , 20-C ) :   1.0316
B(  6-C ,  7-H ) :   0.9437 B(  6-C ,  8-H ) :   0.9385 B(  6-C ,  9-C ) :   1.0640
B(  9-C , 10-H ) :   0.9544 B(  9-C , 11-H ) :   0.9598 B(  9-C , 12-C ) :   1.0611
B( 12-C , 13-H ) :   0.9763 B( 12-C , 14-H ) :   0.9782 B( 12-C , 15-H ) :   0.9765
B( 16-S , 17-C ) :   1.1231 B( 16-S , 20-C ) :   1.1302 B( 17-C , 18-C ) :   1.6658
B( 17-C , 33-H ) :   0.9650 B( 18-C , 19-C ) :   1.1981 B( 18-C , 21-H ) :   0.9717
B( 19-C , 20-C ) :   1.6365 B( 19-C , 22-C ) :   1.0514 B( 22-C , 23-H ) :   0.9271
B( 22-C , 24-H ) :   0.9317 B( 22-C , 25-C ) :   1.0602 B( 25-C , 26-H ) :   0.9511
B( 25-C , 27-H ) :   0.9522 B( 25-C , 28-C ) :   1.0714 B( 28-C , 29-H ) :   0.9733
B( 28-C , 30-H ) :   0.9737 B( 28-C , 31-H ) :   0.9742

Dispersion correction           -0.015085429
FINAL SINGLE POINT ENERGY     -1339.870905991994

DIPOLE MOMENT
-------------
                                X             Y             Z
Electronic contribution:     -5.12620      29.78045      16.37460
Nuclear contribution   :      5.29284     -30.46296     -16.55983
                        -----------------------------------------
Total Dipole Moment    :      0.16664      -0.68251      -0.18523
                        -----------------------------------------
Magnitude (a.u.)       :      0.72656
Magnitude (Debye)      :      1.84678

Rotational constants in cm-1:     0.018882     0.009457     0.006766
Rotational constants in MHz :   566.059395   283.516576   202.840376

                             ****ORCA TERMINATED NORMALLY****
TOTAL RUN TIME: 0 days 0 hours 0 minutes 31 seconds 149 msec
