                         Program Version 4.2.1 -  RELEASE  -
|  1> ! wB97X-D3 SP def2-SVP
|  2> %pal
|  3> nprocs 16
|  4> end
|  5>
|  6> * xyz 0 1
|  7> S 	 -36.5994 	 58.1224 	 114.187
|  8> C 	 -38.1401 	 58.5921 	 113.697
|  9> C 	 -38.7898 	 57.6003 	 112.95
| 10> C 	 -37.9717 	 56.4198 	 112.895
| 11> C 	 -36.7023 	 56.5668 	 113.375
| 12> H 	 -38.3011 	 55.4578 	 112.424
| 13> C 	 -40.1864 	 57.6671 	 112.397
| 14> H 	 -40.7146 	 58.2587 	 113.143
| 15> H 	 -40.7193 	 56.7161 	 112.229
| 16> C 	 -40.234 	 58.4538 	 111.096
| 17> H 	 -39.3098 	 58.1879 	 110.628
| 18> H 	 -41.1014 	 58.0576 	 110.609
| 19> C 	 -40.3204 	 59.9614 	 111.228
| 20> H 	 -41.3116 	 60.3052 	 111.354
| 21> H 	 -39.7212 	 60.434 	 111.977
| 22> H 	 -39.8852 	 60.4035 	 110.319
| 23> S 	 -34.9342 	 55.4004 	 111.681
| 24> C 	 -34.1399 	 53.9702 	 112.15
| 25> C 	 -34.3148 	 53.6275 	 113.486
| 26> C 	 -35.1544 	 54.5732 	 114.168
| 27> C 	 -35.6948 	 55.5247 	 113.248
| 28> H 	 -33.7605 	 52.8362 	 113.851
| 29> C 	 -35.5401 	 54.4405 	 115.595
| 30> H 	 -35.8369 	 55.4052 	 115.974
| 31> H 	 -34.5821 	 54.1708 	 116.06
| 32> C 	 -36.5698 	 53.3359 	 115.772
| 33> H 	 -36.1072 	 52.4015 	 115.457
| 34> H 	 -37.4057 	 53.4667 	 115.076
| 35> C 	 -37.1311 	 53.2891 	 117.209
| 36> H 	 -36.4091 	 52.9576 	 117.91
| 37> H 	 -38.0125 	 52.6671 	 117.372
| 38> H 	 -37.5416 	 54.2363 	 117.313
| 39> H 	 -38.6222 	 59.5085 	 113.955
| 40> H 	 -33.4848 	 53.3966 	 111.563
| 41> *
| 42>
| 43>                          ****END OF INPUT****

CARTESIAN COORDINATES (ANGSTROEM)
---------------------------------
  S    -36.599400   58.122400  114.187000
  C    -38.140100   58.592100  113.697000
  C    -38.789800   57.600300  112.950000
  C    -37.971700   56.419800  112.895000
  C    -36.702300   56.566800  113.375000
  H    -38.301100   55.457800  112.424000
  C    -40.186400   57.667100  112.397000
  H    -40.714600   58.258700  113.143000
  H    -40.719300   56.716100  112.229000
  C    -40.234000   58.453800  111.096000
  H    -39.309800   58.187900  110.628000
  H    -41.101400   58.057600  110.609000
  C    -40.320400   59.961400  111.228000
  H    -41.311600   60.305200  111.354000
  H    -39.721200   60.434000  111.977000
  H    -39.885200   60.403500  110.319000
  S    -34.934200   55.400400  111.681000
  C    -34.139900   53.970200  112.150000
  C    -34.314800   53.627500  113.486000
  C    -35.154400   54.573200  114.168000
  C    -35.694800   55.524700  113.248000
  H    -33.760500   52.836200  113.851000
  C    -35.540100   54.440500  115.595000
  H    -35.836900   55.405200  115.974000
  H    -34.582100   54.170800  116.060000
  C    -36.569800   53.335900  115.772000
  H    -36.107200   52.401500  115.457000
  H    -37.405700   53.466700  115.076000
  C    -37.131100   53.289100  117.209000
  H    -36.409100   52.957600  117.910000
  H    -38.012500   52.667100  117.372000
  H    -37.541600   54.236300  117.313000
  H    -38.622200   59.508500  113.955000
  H    -33.484800   53.396600  111.563000

 Total Charge           Charge          ....    0
 Multiplicity           Mult            ....    1
 Number of Electrons    NEL             ....  134
 Basis Dimension        Dim             ....  322

ORBITAL ENERGIES
----------------

  NO   OCC          E(Eh)            E(eV)
   0   2.0000     -88.966295     -2420.8960
   1   2.0000     -88.965679     -2420.8792
   2   2.0000     -10.323444      -280.9152
   3   2.0000     -10.323127      -280.9066
   4   2.0000     -10.310467      -280.5621
   5   2.0000     -10.308704      -280.5141
   6   2.0000     -10.304978      -280.4127
   7   2.0000     -10.298495      -280.2363
   8   2.0000     -10.292629      -280.0767
   9   2.0000     -10.287355      -279.9332
  10   2.0000     -10.287082      -279.9257
  11   2.0000     -10.285634      -279.8863
  12   2.0000     -10.283293      -279.8226
  13   2.0000     -10.276792      -279.6457
  14   2.0000     -10.271020      -279.4887
  15   2.0000     -10.267089      -279.3817
  16   2.0000      -8.081710      -219.9145
  17   2.0000      -8.081133      -219.8988
  18   2.0000      -6.040093      -164.3593
  19   2.0000      -6.039412      -164.3408
  20   2.0000      -6.035994      -164.2477
  21   2.0000      -6.035476      -164.2337
  22   2.0000      -6.032688      -164.1578
  23   2.0000      -6.032162      -164.1435
  24   2.0000      -1.008107       -27.4320
  25   2.0000      -0.987635       -26.8749
  26   2.0000      -0.917192       -24.9581
  27   2.0000      -0.914416       -24.8825
  28   2.0000      -0.871242       -23.7077
  29   2.0000      -0.851548       -23.1718
  30   2.0000      -0.848116       -23.0784
  31   2.0000      -0.814272       -22.1575
  32   2.0000      -0.785755       -21.3815
  33   2.0000      -0.771729       -20.9998
  34   2.0000      -0.707246       -19.2452
  35   2.0000      -0.699417       -19.0321
  36   2.0000      -0.692531       -18.8447
  37   2.0000      -0.661372       -17.9969
  38   2.0000      -0.642210       -17.4754
  39   2.0000      -0.618748       -16.8370
  40   2.0000      -0.595421       -16.2022
  41   2.0000      -0.582592       -15.8531
  42   2.0000      -0.570583       -15.5263
  43   2.0000      -0.545893       -14.8545
  44   2.0000      -0.542164       -14.7530
  45   2.0000      -0.525900       -14.3105
  46   2.0000      -0.518855       -14.1188
  47   2.0000      -0.514889       -14.0108
  48   2.0000      -0.509483       -13.8637
  49   2.0000      -0.496541       -13.5116
  50   2.0000      -0.486945       -13.2504
  51   2.0000      -0.481478       -13.1017
  52   2.0000      -0.477001       -12.9798
  53   2.0000      -0.465925       -12.6785
  54   2.0000      -0.462602       -12.5880
  55   2.0000      -0.445930       -12.1344
  56   2.0000      -0.444879       -12.1058
  57   2.0000      -0.434054       -11.8112
  58   2.0000      -0.426846       -11.6151
  59   2.0000      -0.425794       -11.5864
  60   2.0000      -0.421772       -11.4770
  61   2.0000      -0.418657       -11.3922
  62   2.0000      -0.416192       -11.3252
  63   2.0000      -0.337334        -9.1793
  64   2.0000      -0.329137        -8.9563
  65   2.0000      -0.317009        -8.6263
  66   2.0000      -0.301665        -8.2087
  67   0.0000       0.042948         1.1687
  68   0.0000       0.060934         1.6581
  69   0.0000       0.112132         3.0513
  70   0.0000       0.118171         3.2156
  71   0.0000       0.139239         3.7889

MULLIKEN ATOMIC CHARGES
-----------------------
   0 S :    0.134697
   1 C :   -0.113093
   2 C :   -0.104303
   3 C :    0.014266
   4 C :   -0.163218
   5 H :    0.030593
   6 C :    0.054522
   7 H :    0.018906
   8 H :    0.031320
   9 C :   -0.038286
  10 H :    0.027806
  11 H :    0.024254
  12 C :   -0.029120
  13 H :    0.025865
  14 H :    0.010247
  15 H :    0.030076
  16 S :    0.137207
  17 C :   -0.064503
  18 C :   -0.035277
  19 C :   -0.029379
  20 C :   -0.211342
  21 H :   -0.009489
  22 C :    0.111600
  23 H :    0.011333
  24 H :    0.024084
  25 C :   -0.085458
  26 H :    0.018388
  27 H :    0.028256
  28 C :    0.007134
  29 H :    0.030661
  30 H :    0.022609
  31 H :    0.016882
  32 H :    0.041263
  33 H :    0.031499
Sum of atomic charges:    0.0000000

LOEWDIN ATOMIC CHARGES
----------------------
   0 S :    0.431836
   1 C :   -0.215899
   2 C :   -0.066600
   3 C :   -0.060896
   4 C :   -0.217478
   5 H :    0.038499
   6 C :   -0.033471
   7 H :    0.028666
   8 H :    0.033703
   9 C :   -0.034565
  10 H :    0.023546
  11 H :    0.023517
  12 C :   -0.063840
  13 H :    0.020108
  14 H :    0.018668
  15 H :    0.033598
  16 S :    0.439949
  17 C :   -0.190758
  18 C :   -0.068131
  19 C :   -0.040024
  20 C :   -0.211273
  21 H :    0.019132
  22 C :   -0.030973
  23 H :    0.023778
  24 H :    0.035608
  25 C :   -0.033473
  26 H :    0.019765
  27 H :    0.026494
  28 C :   -0.059027
  29 H :    0.021528
  30 H :    0.027332
  31 H :    0.020327
  32 H :    0.022453
  33 H :    0.017903

  Mayer bond orders larger than 0.100000
B(  0-S ,  1-C ) :   1.1706 B(  0-S ,  4-C ) :   1.1343 B(  1-C ,  2-C ) :   1.5738
B(  1-C , 32-H ) :   0.9640 B(  2-C ,  3-C ) :   1.2673 B(  2-C ,  6-C ) :   1.0289
B(  3-C ,  4-C ) :   1.5736 B(  3-C ,  5-H ) :   0.9857 B(  4-C , 20-C ) :   1.0407
B(  6-C ,  7-H ) :   0.9402 B(  6-C ,  8-H ) :   0.9502 B(  6-C ,  9-C ) :   1.0549
B(  9-C , 10-H ) :   0.9597 B(  9-C , 11-H ) :   0.9572 B(  9-C , 12-C ) :   1.0868
B( 12-C , 13-H ) :   0.9742 B( 12-C , 14-H ) :   0.9724 B( 12-C , 15-H ) :   0.9713
B( 16-S , 17-C ) :   1.1785 B( 16-S , 20-C ) :   1.1636 B( 17-C , 18-C ) :   1.5983
B( 17-C , 20-C ) :   0.1006 B( 17-C , 33-H ) :   0.9693 B( 18-C , 19-C ) :   1.2417
B( 18-C , 21-H ) :   1.0015 B( 19-C , 20-C ) :   1.5534 B( 19-C , 22-C ) :   1.0588
B( 22-C , 23-H ) :   0.9263 B( 22-C , 24-H ) :   0.9206 B( 22-C , 25-C ) :   1.0630
B( 25-C , 26-H ) :   0.9545 B( 25-C , 27-H ) :   0.9570 B( 25-C , 28-C ) :   1.0790
B( 28-C , 29-H ) :   0.9756 B( 28-C , 30-H ) :   0.9731 B( 28-C , 31-H ) :   0.9734

Dispersion correction           -0.014410889
FINAL SINGLE POINT ENERGY     -1339.871130868509

DIPOLE MOMENT
-------------
                                X             Y             Z
Electronic contribution:     17.35415       2.33783      -5.84837
Nuclear contribution   :    -17.69961      -2.58824       5.92505
                        -----------------------------------------
Total Dipole Moment    :     -0.34546      -0.25040       0.07668
                        -----------------------------------------
Magnitude (a.u.)       :      0.43350
Magnitude (Debye)      :      1.10188

Rotational constants in cm-1:     0.020519     0.007930     0.006732
Rotational constants in MHz :   615.136173   237.726349   201.828021

                             ****ORCA TERMINATED NORMALLY****
TOTAL RUN TIME: 0 days 0 hours 0 minutes 30 seconds 323 msec
