                         Program Version 4.2.1 -  RELEASE  -
|  1> ! wB97X-D3 SP def2-SVP
|  2> %pal
|  3> nprocs 16
|  4> end
|  5>
|  6> * xyz 0 1
|  7> S 	 -0.814439 	 -22.3915 	 59.6137
|  8> C 	 -0.727534 	 -20.7934 	 59.1476
|  9> C 	 -0.455273 	 -19.9002 	 60.1734
| 10> C 	 -0.564549 	 -20.5701 	 61.4481
| 11> C 	 -0.563911 	 -21.9226 	 61.303
| 12> H 	 -0.611866 	 -20.0986 	 62.4689
| 13> C 	 -0.190624 	 -18.3874 	 60.1135
| 14> H 	 -0.659456 	 -17.9718 	 60.9951
| 15> H 	 -0.84217 	 -17.9519 	 59.2981
| 16> C 	 1.24435 	 -17.7643 	 59.9238
| 17> H 	 1.17793 	 -16.6845 	 59.8882
| 18> H 	 1.88881 	 -17.9976 	 60.7354
| 19> C 	 1.99239 	 -18.0342 	 58.5969
| 20> H 	 1.36912 	 -17.9545 	 57.6765
| 21> H 	 2.87846 	 -17.2742 	 58.4368
| 22> H 	 2.48407 	 -18.9596 	 58.6763
| 23> S 	 -1.9323 	 -24.1979 	 61.7646
| 24> C 	 -1.89488 	 -24.9228 	 63.3019
| 25> C 	 -1.10048 	 -24.2112 	 64.1521
| 26> C 	 -0.402296 	 -23.1405 	 63.5904
| 27> C 	 -0.960789 	 -22.8504 	 62.3393
| 28> H 	 -1.05171 	 -24.4745 	 65.2097
| 29> C 	 0.595241 	 -22.3202 	 64.3169
| 30> H 	 0.34878 	 -22.3409 	 65.4038
| 31> H 	 0.642654 	 -21.2933 	 63.9541
| 32> C 	 2.03625 	 -22.8331 	 64.2301
| 33> H 	 2.11614 	 -23.8584 	 64.5425
| 34> H 	 2.64841 	 -22.3291 	 64.9041
| 35> C 	 2.58501 	 -22.6842 	 62.8282
| 36> H 	 2.43546 	 -21.7325 	 62.3437
| 37> H 	 2.2107 	 -23.4567 	 62.1805
| 38> H 	 3.66861 	 -22.9553 	 62.9983
| 39> H 	 -0.589415 	 -20.4265 	 58.111
| 40> H 	 -2.27025 	 -25.8853 	 63.6258
| 41> *
| 42>
| 43>                          ****END OF INPUT****

CARTESIAN COORDINATES (ANGSTROEM)
---------------------------------
  S     -0.814439  -22.391500   59.613700
  C     -0.727534  -20.793400   59.147600
  C     -0.455273  -19.900200   60.173400
  C     -0.564549  -20.570100   61.448100
  C     -0.563911  -21.922600   61.303000
  H     -0.611866  -20.098600   62.468900
  C     -0.190624  -18.387400   60.113500
  H     -0.659456  -17.971800   60.995100
  H     -0.842170  -17.951900   59.298100
  C      1.244350  -17.764300   59.923800
  H      1.177930  -16.684500   59.888200
  H      1.888810  -17.997600   60.735400
  C      1.992390  -18.034200   58.596900
  H      1.369120  -17.954500   57.676500
  H      2.878460  -17.274200   58.436800
  H      2.484070  -18.959600   58.676300
  S     -1.932300  -24.197900   61.764600
  C     -1.894880  -24.922800   63.301900
  C     -1.100480  -24.211200   64.152100
  C     -0.402296  -23.140500   63.590400
  C     -0.960789  -22.850400   62.339300
  H     -1.051710  -24.474500   65.209700
  C      0.595241  -22.320200   64.316900
  H      0.348780  -22.340900   65.403800
  H      0.642654  -21.293300   63.954100
  C      2.036250  -22.833100   64.230100
  H      2.116140  -23.858400   64.542500
  H      2.648410  -22.329100   64.904100
  C      2.585010  -22.684200   62.828200
  H      2.435460  -21.732500   62.343700
  H      2.210700  -23.456700   62.180500
  H      3.668610  -22.955300   62.998300
  H     -0.589415  -20.426500   58.111000
  H     -2.270250  -25.885300   63.625800

 Total Charge           Charge          ....    0
 Multiplicity           Mult            ....    1
 Number of Electrons    NEL             ....  134
 Basis Dimension        Dim             ....  322

ORBITAL ENERGIES
----------------

  NO   OCC          E(Eh)            E(eV)
   0   2.0000     -88.968347     -2420.9518
   1   2.0000     -88.963698     -2420.8253
   2   2.0000     -10.323257      -280.9101
   3   2.0000     -10.321552      -280.8637
   4   2.0000     -10.311695      -280.5955
   5   2.0000     -10.307418      -280.4791
   6   2.0000     -10.303832      -280.3815
   7   2.0000     -10.301145      -280.3084
   8   2.0000     -10.297341      -280.2049
   9   2.0000     -10.296947      -280.1942
  10   2.0000     -10.289694      -279.9968
  11   2.0000     -10.289629      -279.9950
  12   2.0000     -10.285107      -279.8720
  13   2.0000     -10.284867      -279.8655
  14   2.0000     -10.274500      -279.5834
  15   2.0000     -10.269011      -279.4340
  16   2.0000      -8.084396      -219.9876
  17   2.0000      -8.079291      -219.8487
  18   2.0000      -6.042879      -164.4351
  19   2.0000      -6.038805      -164.3242
  20   2.0000      -6.037682      -164.2937
  21   2.0000      -6.034984      -164.2203
  22   2.0000      -6.033752      -164.1867
  23   2.0000      -6.030022      -164.0852
  24   2.0000      -1.016862       -27.6702
  25   2.0000      -0.992437       -27.0056
  26   2.0000      -0.916143       -24.9295
  27   2.0000      -0.902235       -24.5511
  28   2.0000      -0.872694       -23.7472
  29   2.0000      -0.858502       -23.3610
  30   2.0000      -0.849420       -23.1139
  31   2.0000      -0.812136       -22.0993
  32   2.0000      -0.782006       -21.2795
  33   2.0000      -0.771724       -20.9997
  34   2.0000      -0.706106       -19.2141
  35   2.0000      -0.698659       -19.0115
  36   2.0000      -0.694407       -18.8958
  37   2.0000      -0.660096       -17.9621
  38   2.0000      -0.635832       -17.3019
  39   2.0000      -0.618170       -16.8213
  40   2.0000      -0.599406       -16.3107
  41   2.0000      -0.564927       -15.3724
  42   2.0000      -0.551953       -15.0194
  43   2.0000      -0.547393       -14.8953
  44   2.0000      -0.545703       -14.8493
  45   2.0000      -0.533062       -14.5053
  46   2.0000      -0.519476       -14.1357
  47   2.0000      -0.509925       -13.8758
  48   2.0000      -0.501464       -13.6455
  49   2.0000      -0.497695       -13.5430
  50   2.0000      -0.490362       -13.3434
  51   2.0000      -0.480164       -13.0659
  52   2.0000      -0.472601       -12.8601
  53   2.0000      -0.467423       -12.7192
  54   2.0000      -0.463753       -12.6194
  55   2.0000      -0.448490       -12.2040
  56   2.0000      -0.443395       -12.0654
  57   2.0000      -0.433465       -11.7952
  58   2.0000      -0.428416       -11.6578
  59   2.0000      -0.426006       -11.5922
  60   2.0000      -0.417795       -11.3688
  61   2.0000      -0.414025       -11.2662
  62   2.0000      -0.412810       -11.2331
  63   2.0000      -0.362183        -9.8555
  64   2.0000      -0.330623        -8.9967
  65   2.0000      -0.326361        -8.8807
  66   2.0000      -0.282386        -7.6841
  67   0.0000       0.024549         0.6680
  68   0.0000       0.076875         2.0919
  69   0.0000       0.101937         2.7738
  70   0.0000       0.114661         3.1201
  71   0.0000       0.127615         3.4726

MULLIKEN ATOMIC CHARGES
-----------------------
   0 S :    0.108653
   1 C :   -0.101360
   2 C :   -0.105300
   3 C :   -0.030368
   4 C :   -0.112790
   5 H :    0.053377
   6 C :    0.046294
   7 H :    0.022678
   8 H :    0.028714
   9 C :   -0.033864
  10 H :    0.028899
  11 H :    0.023540
  12 C :   -0.097793
  13 H :    0.040054
  14 H :    0.040581
  15 H :    0.033662
  16 S :    0.095345
  17 C :   -0.065759
  18 C :   -0.051573
  19 C :   -0.030934
  20 C :   -0.146251
  21 H :    0.013751
  22 C :    0.051829
  23 H :    0.026852
  24 H :    0.014688
  25 C :   -0.033873
  26 H :    0.013960
  27 H :    0.009864
  28 C :   -0.060225
  29 H :    0.038942
  30 H :    0.038165
  31 H :    0.032602
  32 H :    0.058105
  33 H :    0.049533
Sum of atomic charges:    0.0000000

LOEWDIN ATOMIC CHARGES
----------------------
   0 S :    0.426724
   1 C :   -0.223126
   2 C :   -0.070652
   3 C :   -0.061471
   4 C :   -0.193161
   5 H :    0.043138
   6 C :   -0.037754
   7 H :    0.030955
   8 H :    0.036158
   9 C :   -0.038279
  10 H :    0.027296
  11 H :    0.019466
  12 C :   -0.073582
  13 H :    0.026160
  14 H :    0.037726
  15 H :    0.016015
  16 S :    0.417984
  17 C :   -0.206268
  18 C :   -0.074499
  19 C :   -0.060190
  20 C :   -0.189289
  21 H :    0.029796
  22 C :   -0.032443
  23 H :    0.034871
  24 H :    0.027227
  25 C :   -0.032825
  26 H :    0.022132
  27 H :    0.013493
  28 C :   -0.065296
  29 H :    0.022113
  30 H :    0.025101
  31 H :    0.033801
  32 H :    0.035731
  33 H :    0.032949

  Mayer bond orders larger than 0.100000
B(  0-S ,  1-C ) :   1.1584 B(  0-S ,  4-C ) :   1.1299 B(  1-C ,  2-C ) :   1.6219
B(  1-C , 32-H ) :   0.9541 B(  2-C ,  3-C ) :   1.2314 B(  2-C ,  6-C ) :   1.0164
B(  3-C ,  4-C ) :   1.5992 B(  3-C ,  5-H ) :   0.9756 B(  4-C , 20-C ) :   1.0561
B(  6-C ,  7-H ) :   0.9416 B(  6-C ,  8-H ) :   0.9439 B(  6-C ,  9-C ) :   1.0668
B(  9-C , 10-H ) :   0.9570 B(  9-C , 11-H ) :   0.9578 B(  9-C , 12-C ) :   1.0704
B( 12-C , 13-H ) :   0.9754 B( 12-C , 14-H ) :   0.9751 B( 12-C , 15-H ) :   0.9789
B( 16-S , 17-C ) :   1.1558 B( 16-S , 20-C ) :   1.1444 B( 17-C , 18-C ) :   1.6024
B( 17-C , 33-H ) :   0.9637 B( 18-C , 19-C ) :   1.2707 B( 18-C , 21-H ) :   0.9847
B( 19-C , 20-C ) :   1.5511 B( 19-C , 22-C ) :   1.0493 B( 22-C , 23-H ) :   0.9315
B( 22-C , 24-H ) :   0.9380 B( 22-C , 25-C ) :   1.0843 B( 25-C , 26-H ) :   0.9487
B( 25-C , 27-H ) :   0.9558 B( 25-C , 28-C ) :   1.0779 B( 28-C , 29-H ) :   0.9752
B( 28-C , 30-H ) :   0.9735 B( 28-C , 31-H ) :   0.9720

Dispersion correction           -0.014968629
FINAL SINGLE POINT ENERGY     -1339.860115071656

DIPOLE MOMENT
-------------
                                X             Y             Z
Electronic contribution:    -19.89098     -18.53663      -3.47681
Nuclear contribution   :     20.24408      18.92494       3.80913
                        -----------------------------------------
Total Dipole Moment    :      0.35309       0.38831       0.33232
                        -----------------------------------------
Magnitude (a.u.)       :      0.62121
Magnitude (Debye)      :      1.57898

Rotational constants in cm-1:     0.022020     0.008819     0.007105
Rotational constants in MHz :   660.132540   264.384493   212.991111

                             ****ORCA TERMINATED NORMALLY****
TOTAL RUN TIME: 0 days 0 hours 0 minutes 35 seconds 757 msec
