                         Program Version 4.2.1 -  RELEASE  -
|  1> ! wB97X-D3 SP def2-SVP
|  2> %pal
|  3> nprocs 16
|  4> end
|  5>
|  6> * xyz 0 1
|  7> S 	 0.527164 	 -23.6888 	 88.5154
|  8> C 	 2.11923 	 -24.3042 	 88.0609
|  9> C 	 3.10584 	 -23.3286 	 87.9428
| 10> C 	 2.57693 	 -22.0705 	 88.0686
| 11> C 	 1.23878 	 -22.0428 	 88.4078
| 12> H 	 3.19791 	 -21.1304 	 88.0739
| 13> C 	 4.57818 	 -23.583 	 87.681
| 14> H 	 4.71341 	 -23.2153 	 86.6858
| 15> H 	 4.74907 	 -24.6041 	 87.6231
| 16> C 	 5.52565 	 -22.8047 	 88.6655
| 17> H 	 6.46947 	 -22.7541 	 88.1378
| 18> H 	 5.18763 	 -21.8207 	 88.9577
| 19> C 	 5.93696 	 -23.6821 	 89.8037
| 20> H 	 6.35641 	 -24.6183 	 89.5422
| 21> H 	 6.76785 	 -23.2965 	 90.3838
| 22> H 	 5.0611 	 -23.7626 	 90.5792
| 23> S 	 -0.647046 	 -21.0611 	 90.1527
| 24> C 	 -1.1443 	 -19.293 	 90.0676
| 25> C 	 -0.499279 	 -18.7026 	 89.021
| 26> C 	 0.299721 	 -19.571 	 88.2534
| 27> C 	 0.514927 	 -20.871 	 88.7729
| 28> H 	 -0.670893 	 -17.6931 	 88.708
| 29> C 	 0.785121 	 -19.0534 	 86.9353
| 30> H 	 1.81451 	 -19.4334 	 86.7575
| 31> H 	 0.835576 	 -17.9105 	 87.0516
| 32> C 	 -0.157971 	 -19.3176 	 85.8001
| 33> H 	 0.198875 	 -18.7772 	 84.9661
| 34> H 	 -1.07131 	 -18.9294 	 86.1909
| 35> C 	 -0.304004 	 -20.7901 	 85.3868
| 36> H 	 -0.744926 	 -20.9849 	 84.4358
| 37> H 	 -0.991845 	 -21.3015 	 86.1553
| 38> H 	 0.634553 	 -21.342 	 85.3497
| 39> H 	 2.31294 	 -25.3885 	 87.9298
| 40> H 	 -2.04917 	 -18.818 	 90.473
| 41> *
| 42>
| 43>                          ****END OF INPUT****

CARTESIAN COORDINATES (ANGSTROEM)
---------------------------------
  S      0.527164  -23.688800   88.515400
  C      2.119230  -24.304200   88.060900
  C      3.105840  -23.328600   87.942800
  C      2.576930  -22.070500   88.068600
  C      1.238780  -22.042800   88.407800
  H      3.197910  -21.130400   88.073900
  C      4.578180  -23.583000   87.681000
  H      4.713410  -23.215300   86.685800
  H      4.749070  -24.604100   87.623100
  C      5.525650  -22.804700   88.665500
  H      6.469470  -22.754100   88.137800
  H      5.187630  -21.820700   88.957700
  C      5.936960  -23.682100   89.803700
  H      6.356410  -24.618300   89.542200
  H      6.767850  -23.296500   90.383800
  H      5.061100  -23.762600   90.579200
  S     -0.647046  -21.061100   90.152700
  C     -1.144300  -19.293000   90.067600
  C     -0.499279  -18.702600   89.021000
  C      0.299721  -19.571000   88.253400
  C      0.514927  -20.871000   88.772900
  H     -0.670893  -17.693100   88.708000
  C      0.785121  -19.053400   86.935300
  H      1.814510  -19.433400   86.757500
  H      0.835576  -17.910500   87.051600
  C     -0.157971  -19.317600   85.800100
  H      0.198875  -18.777200   84.966100
  H     -1.071310  -18.929400   86.190900
  C     -0.304004  -20.790100   85.386800
  H     -0.744926  -20.984900   84.435800
  H     -0.991845  -21.301500   86.155300
  H      0.634553  -21.342000   85.349700
  H      2.312940  -25.388500   87.929800
  H     -2.049170  -18.818000   90.473000

 Total Charge           Charge          ....    0
 Multiplicity           Mult            ....    1
 Number of Electrons    NEL             ....  134
 Basis Dimension        Dim             ....  322

ORBITAL ENERGIES
----------------

  NO   OCC          E(Eh)            E(eV)
   0   2.0000     -88.973467     -2421.0911
   1   2.0000     -88.961719     -2420.7714
   2   2.0000     -10.332917      -281.1730
   3   2.0000     -10.332583      -281.1639
   4   2.0000     -10.321965      -280.8749
   5   2.0000     -10.317861      -280.7633
   6   2.0000     -10.300584      -280.2931
   7   2.0000     -10.297994      -280.2227
   8   2.0000     -10.295199      -280.1466
   9   2.0000     -10.291406      -280.0434
  10   2.0000     -10.290246      -280.0118
  11   2.0000     -10.289740      -279.9981
  12   2.0000     -10.289525      -279.9922
  13   2.0000     -10.278273      -279.6860
  14   2.0000     -10.276299      -279.6323
  15   2.0000     -10.271873      -279.5119
  16   2.0000      -8.086853      -220.0545
  17   2.0000      -8.074345      -219.7141
  18   2.0000      -6.045369      -164.5029
  19   2.0000      -6.041726      -164.4037
  20   2.0000      -6.037507      -164.2889
  21   2.0000      -6.033182      -164.1712
  22   2.0000      -6.029187      -164.0625
  23   2.0000      -6.024823      -163.9438
  24   2.0000      -1.003296       -27.3011
  25   2.0000      -0.977915       -26.6104
  26   2.0000      -0.916673       -24.9439
  27   2.0000      -0.909090       -24.7376
  28   2.0000      -0.873720       -23.7751
  29   2.0000      -0.855653       -23.2835
  30   2.0000      -0.838203       -22.8087
  31   2.0000      -0.814941       -22.1757
  32   2.0000      -0.781975       -21.2786
  33   2.0000      -0.767638       -20.8885
  34   2.0000      -0.715772       -19.4772
  35   2.0000      -0.698052       -18.9950
  36   2.0000      -0.688456       -18.7338
  37   2.0000      -0.663034       -18.0421
  38   2.0000      -0.639809       -17.4101
  39   2.0000      -0.625743       -17.0273
  40   2.0000      -0.593518       -16.1504
  41   2.0000      -0.569968       -15.5096
  42   2.0000      -0.554624       -15.0921
  43   2.0000      -0.548753       -14.9323
  44   2.0000      -0.543201       -14.7812
  45   2.0000      -0.533267       -14.5109
  46   2.0000      -0.519051       -14.1241
  47   2.0000      -0.509997       -13.8777
  48   2.0000      -0.499989       -13.6054
  49   2.0000      -0.494692       -13.4612
  50   2.0000      -0.488596       -13.2954
  51   2.0000      -0.480054       -13.0629
  52   2.0000      -0.472264       -12.8509
  53   2.0000      -0.462045       -12.5729
  54   2.0000      -0.456119       -12.4116
  55   2.0000      -0.451571       -12.2879
  56   2.0000      -0.447248       -12.1702
  57   2.0000      -0.434421       -11.8212
  58   2.0000      -0.429337       -11.6828
  59   2.0000      -0.426791       -11.6136
  60   2.0000      -0.423669       -11.5286
  61   2.0000      -0.405730       -11.0405
  62   2.0000      -0.402741       -10.9591
  63   2.0000      -0.352325        -9.5873
  64   2.0000      -0.337683        -9.1888
  65   2.0000      -0.326690        -8.8897
  66   2.0000      -0.278901        -7.5893
  67   0.0000       0.014288         0.3888
  68   0.0000       0.064287         1.7493
  69   0.0000       0.096774         2.6334
  70   0.0000       0.121929         3.3178
  71   0.0000       0.126426         3.4402

MULLIKEN ATOMIC CHARGES
-----------------------
   0 S :    0.122345
   1 C :   -0.143262
   2 C :   -0.086377
   3 C :   -0.016452
   4 C :   -0.131201
   5 H :    0.040192
   6 C :    0.137802
   7 H :    0.029107
   8 H :   -0.008391
   9 C :   -0.054908
  10 H :    0.022647
  11 H :    0.039862
  12 C :   -0.067622
  13 H :    0.020021
  14 H :    0.024090
  15 H :    0.047550
  16 S :    0.055212
  17 C :   -0.083517
  18 C :   -0.021319
  19 C :   -0.069662
  20 C :   -0.138879
  21 H :    0.014198
  22 C :    0.015703
  23 H :    0.021467
  24 H :    0.028803
  25 C :    0.006610
  26 H :    0.022921
  27 H :    0.010431
  28 C :   -0.065656
  29 H :    0.025414
  30 H :    0.045131
  31 H :    0.031937
  32 H :    0.054692
  33 H :    0.071110
Sum of atomic charges:    0.0000000

LOEWDIN ATOMIC CHARGES
----------------------
   0 S :    0.388487
   1 C :   -0.196783
   2 C :   -0.065728
   3 C :   -0.062976
   4 C :   -0.180356
   5 H :    0.042252
   6 C :   -0.014110
   7 H :    0.032824
   8 H :    0.019860
   9 C :   -0.034499
  10 H :    0.027827
  11 H :    0.025164
  12 C :   -0.071135
  13 H :    0.018681
  14 H :    0.023650
  15 H :    0.035556
  16 S :    0.337693
  17 C :   -0.166015
  18 C :   -0.069732
  19 C :   -0.064874
  20 C :   -0.170962
  21 H :    0.029462
  22 C :   -0.035583
  23 H :    0.025077
  24 H :    0.036316
  25 C :   -0.033588
  26 H :    0.019628
  27 H :    0.022011
  28 C :   -0.070660
  29 H :    0.020061
  30 H :    0.036275
  31 H :    0.025200
  32 H :    0.030734
  33 H :    0.040245

  Mayer bond orders larger than 0.100000
B(  0-S ,  1-C ) :   1.1325 B(  0-S ,  4-C ) :   1.1306 B(  1-C ,  2-C ) :   1.5987
B(  1-C ,  4-C ) :   0.1039 B(  1-C , 32-H ) :   0.9597 B(  2-C ,  3-C ) :   1.2749
B(  2-C ,  6-C ) :   1.0141 B(  3-C ,  4-C ) :   1.5591 B(  3-C ,  5-H ) :   0.9767
B(  4-C , 20-C ) :   1.1160 B(  6-C ,  7-H ) :   0.9341 B(  6-C ,  8-H ) :   0.9351
B(  6-C ,  9-C ) :   1.0606 B(  9-C , 10-H ) :   0.9515 B(  9-C , 11-H ) :   0.9611
B(  9-C , 12-C ) :   1.0856 B( 12-C , 13-H ) :   0.9727 B( 12-C , 14-H ) :   0.9714
B( 12-C , 15-H ) :   0.9739 B( 16-S , 17-C ) :   1.1242 B( 16-S , 20-C ) :   1.0980
B( 17-C , 18-C ) :   1.6186 B( 17-C , 20-C ) :   0.1066 B( 17-C , 33-H ) :   0.9577
B( 18-C , 19-C ) :   1.2675 B( 18-C , 21-H ) :   0.9787 B( 19-C , 20-C ) :   1.5642
B( 19-C , 22-C ) :   1.0397 B( 22-C , 23-H ) :   0.9327 B( 22-C , 24-H ) :   0.9351
B( 22-C , 25-C ) :   1.0781 B( 25-C , 26-H ) :   0.9531 B( 25-C , 27-H ) :   0.9478
B( 25-C , 28-C ) :   1.0805 B( 28-C , 29-H ) :   0.9749 B( 28-C , 30-H ) :   0.9719
B( 28-C , 31-H ) :   0.9745

Dispersion correction           -0.015194297
FINAL SINGLE POINT ENERGY     -1339.851671386004

DIPOLE MOMENT
-------------
                                X             Y             Z
Electronic contribution:    -17.10466      -3.39818      11.23447
Nuclear contribution   :     17.65376       3.60273     -11.74761
                        -----------------------------------------
Total Dipole Moment    :      0.54910       0.20455      -0.51314
                        -----------------------------------------
Magnitude (a.u.)       :      0.77888
Magnitude (Debye)      :      1.97977

Rotational constants in cm-1:     0.020334     0.008372     0.007829
Rotational constants in MHz :   609.598667   250.976628   234.705609

                             ****ORCA TERMINATED NORMALLY****
TOTAL RUN TIME: 0 days 0 hours 0 minutes 33 seconds 654 msec
