                         Program Version 4.2.1 -  RELEASE  -
|  1> ! wB97X-D3 SP def2-SVP
|  2> %pal
|  3> nprocs 16
|  4> end
|  5>
|  6> * xyz 0 1
|  7> S 	 -54.0497 	 42.4169 	 113.123
|  8> C 	 -53.0094 	 42.1836 	 111.704
|  9> C 	 -53.7504 	 42.0266 	 110.582
| 10> C 	 -55.1588 	 41.9738 	 110.774
| 11> C 	 -55.4555 	 42.1 	 112.129
| 12> H 	 -55.9541 	 41.8098 	 110.04
| 13> C 	 -53.1215 	 41.8653 	 109.231
| 14> H 	 -53.5855 	 40.8842 	 108.819
| 15> H 	 -52.0483 	 41.7201 	 109.364
| 16> C 	 -53.4434 	 42.998 	 108.251
| 17> H 	 -54.2053 	 43.6128 	 108.682
| 18> H 	 -52.5307 	 43.499 	 108.452
| 19> C 	 -53.6349 	 42.4554 	 106.879
| 20> H 	 -53.6958 	 43.2529 	 106.092
| 21> H 	 -52.7606 	 41.766 	 106.588
| 22> H 	 -54.4872 	 41.8266 	 106.796
| 23> S 	 -57.7944 	 40.7567 	 112.12
| 24> C 	 -58.9427 	 41.0609 	 113.319
| 25> C 	 -58.6976 	 42.2464 	 113.987
| 26> C 	 -57.4577 	 42.7832 	 113.577
| 27> C 	 -56.7495 	 41.9427 	 112.773
| 28> H 	 -59.468 	 42.62 	 114.606
| 29> C 	 -57.044 	 44.1784 	 113.926
| 30> H 	 -56.0916 	 44.2094 	 114.482
| 31> H 	 -57.6812 	 44.5951 	 114.679
| 32> C 	 -56.8798 	 45.0517 	 112.689
| 33> H 	 -57.8492 	 45.1153 	 112.175
| 34> H 	 -56.2392 	 44.5063 	 112.054
| 35> C 	 -56.5437 	 46.571 	 112.989
| 36> H 	 -57.0064 	 46.8938 	 113.987
| 37> H 	 -56.9777 	 47.3686 	 112.287
| 38> H 	 -55.5056 	 46.6816 	 113.177
| 39> H 	 -51.8931 	 42.0883 	 111.658
| 40> H 	 -59.984 	 40.7356 	 113.372
| 41> *
| 42>
| 43>                          ****END OF INPUT****

CARTESIAN COORDINATES (ANGSTROEM)
---------------------------------
  S    -54.049700   42.416900  113.123000
  C    -53.009400   42.183600  111.704000
  C    -53.750400   42.026600  110.582000
  C    -55.158800   41.973800  110.774000
  C    -55.455500   42.100000  112.129000
  H    -55.954100   41.809800  110.040000
  C    -53.121500   41.865300  109.231000
  H    -53.585500   40.884200  108.819000
  H    -52.048300   41.720100  109.364000
  C    -53.443400   42.998000  108.251000
  H    -54.205300   43.612800  108.682000
  H    -52.530700   43.499000  108.452000
  C    -53.634900   42.455400  106.879000
  H    -53.695800   43.252900  106.092000
  H    -52.760600   41.766000  106.588000
  H    -54.487200   41.826600  106.796000
  S    -57.794400   40.756700  112.120000
  C    -58.942700   41.060900  113.319000
  C    -58.697600   42.246400  113.987000
  C    -57.457700   42.783200  113.577000
  C    -56.749500   41.942700  112.773000
  H    -59.468000   42.620000  114.606000
  C    -57.044000   44.178400  113.926000
  H    -56.091600   44.209400  114.482000
  H    -57.681200   44.595100  114.679000
  C    -56.879800   45.051700  112.689000
  H    -57.849200   45.115300  112.175000
  H    -56.239200   44.506300  112.054000
  C    -56.543700   46.571000  112.989000
  H    -57.006400   46.893800  113.987000
  H    -56.977700   47.368600  112.287000
  H    -55.505600   46.681600  113.177000
  H    -51.893100   42.088300  111.658000
  H    -59.984000   40.735600  113.372000

 Total Charge           Charge          ....    0
 Multiplicity           Mult            ....    1
 Number of Electrons    NEL             ....  134
 Basis Dimension        Dim             ....  322

ORBITAL ENERGIES
----------------

  NO   OCC          E(Eh)            E(eV)
   0   2.0000     -88.968124     -2420.9457
   1   2.0000     -88.966698     -2420.9069
   2   2.0000     -10.333187      -281.1803
   3   2.0000     -10.317283      -280.7475
   4   2.0000     -10.313316      -280.6396
   5   2.0000     -10.309678      -280.5406
   6   2.0000     -10.297748      -280.2160
   7   2.0000     -10.297527      -280.2099
   8   2.0000     -10.295927      -280.1664
   9   2.0000     -10.292742      -280.0797
  10   2.0000     -10.287923      -279.9486
  11   2.0000     -10.285917      -279.8940
  12   2.0000     -10.285526      -279.8834
  13   2.0000     -10.284092      -279.8444
  14   2.0000     -10.280679      -279.7515
  15   2.0000     -10.277863      -279.6749
  16   2.0000      -8.083120      -219.9529
  17   2.0000      -8.082152      -219.9265
  18   2.0000      -6.041425      -164.3955
  19   2.0000      -6.040792      -164.3783
  20   2.0000      -6.037614      -164.2918
  21   2.0000      -6.036864      -164.2714
  22   2.0000      -6.033775      -164.1874
  23   2.0000      -6.032713      -164.1585
  24   2.0000      -1.020633       -27.7728
  25   2.0000      -0.991780       -26.9877
  26   2.0000      -0.921091       -25.0642
  27   2.0000      -0.909345       -24.7445
  28   2.0000      -0.875098       -23.8126
  29   2.0000      -0.853043       -23.2125
  30   2.0000      -0.843727       -22.9590
  31   2.0000      -0.816888       -22.2286
  32   2.0000      -0.781148       -21.2561
  33   2.0000      -0.769468       -20.9383
  34   2.0000      -0.713550       -19.4167
  35   2.0000      -0.701389       -19.0858
  36   2.0000      -0.693174       -18.8622
  37   2.0000      -0.667169       -18.1546
  38   2.0000      -0.634013       -17.2524
  39   2.0000      -0.623344       -16.9621
  40   2.0000      -0.598538       -16.2871
  41   2.0000      -0.573746       -15.6124
  42   2.0000      -0.563696       -15.3389
  43   2.0000      -0.558056       -15.1855
  44   2.0000      -0.532049       -14.4778
  45   2.0000      -0.517254       -14.0752
  46   2.0000      -0.513426       -13.9710
  47   2.0000      -0.510216       -13.8837
  48   2.0000      -0.504884       -13.7386
  49   2.0000      -0.503414       -13.6986
  50   2.0000      -0.490153       -13.3377
  51   2.0000      -0.484202       -13.1758
  52   2.0000      -0.470411       -12.8005
  53   2.0000      -0.467178       -12.7126
  54   2.0000      -0.459769       -12.5109
  55   2.0000      -0.456406       -12.4194
  56   2.0000      -0.450915       -12.2700
  57   2.0000      -0.435695       -11.8559
  58   2.0000      -0.429439       -11.6856
  59   2.0000      -0.423330       -11.5194
  60   2.0000      -0.420650       -11.4465
  61   2.0000      -0.412624       -11.2281
  62   2.0000      -0.405653       -11.0384
  63   2.0000      -0.348734        -9.4895
  64   2.0000      -0.331540        -9.0217
  65   2.0000      -0.329807        -8.9745
  66   2.0000      -0.290001        -7.8913
  67   0.0000       0.026074         0.7095
  68   0.0000       0.071167         1.9365
  69   0.0000       0.102865         2.7991
  70   0.0000       0.116330         3.1655
  71   0.0000       0.138536         3.7698

MULLIKEN ATOMIC CHARGES
-----------------------
   0 S :    0.115155
   1 C :   -0.140710
   2 C :   -0.083464
   3 C :    0.018094
   4 C :   -0.188557
   5 H :    0.025564
   6 C :    0.004815
   7 H :    0.037237
   8 H :    0.018138
   9 C :   -0.009000
  10 H :    0.035747
  11 H :    0.016157
  12 C :   -0.064711
  13 H :    0.042310
  14 H :    0.040250
  15 H :    0.030343
  16 S :    0.119400
  17 C :   -0.074581
  18 C :   -0.048629
  19 C :   -0.034682
  20 C :   -0.132041
  21 H :    0.006323
  22 C :    0.086444
  23 H :    0.022235
  24 H :   -0.001268
  25 C :   -0.055501
  26 H :    0.024502
  27 H :    0.036784
  28 C :   -0.073830
  29 H :    0.024470
  30 H :    0.054211
  31 H :    0.032931
  32 H :    0.058551
  33 H :    0.057311
Sum of atomic charges:    0.0000000

LOEWDIN ATOMIC CHARGES
----------------------
   0 S :    0.397978
   1 C :   -0.207385
   2 C :   -0.067014
   3 C :   -0.074482
   4 C :   -0.178606
   5 H :    0.034175
   6 C :   -0.027945
   7 H :    0.034059
   8 H :    0.023810
   9 C :   -0.046146
  10 H :    0.023401
  11 H :    0.027371
  12 C :   -0.066465
  13 H :    0.029913
  14 H :    0.036715
  15 H :    0.019741
  16 S :    0.455584
  17 C :   -0.210180
  18 C :   -0.065255
  19 C :   -0.055654
  20 C :   -0.217725
  21 H :    0.027420
  22 C :   -0.036855
  23 H :    0.028361
  24 H :    0.022323
  25 C :   -0.035470
  26 H :    0.025666
  27 H :    0.018312
  28 C :   -0.076460
  29 H :    0.030286
  30 H :    0.037009
  31 H :    0.018324
  32 H :    0.040579
  33 H :    0.034614

  Mayer bond orders larger than 0.100000
B(  0-S ,  1-C ) :   1.0993 B(  0-S ,  4-C ) :   1.1645 B(  1-C ,  2-C ) :   1.6614
B(  1-C , 32-H ) :   0.9558 B(  2-C ,  3-C ) :   1.2017 B(  2-C ,  6-C ) :   1.0331
B(  3-C ,  4-C ) :   1.5785 B(  3-C ,  5-H ) :   0.9887 B(  4-C , 20-C ) :   1.0386
B(  6-C ,  7-H ) :   0.9465 B(  6-C ,  8-H ) :   0.9457 B(  6-C ,  9-C ) :   1.0060
B(  9-C , 10-H ) :   0.9686 B(  9-C , 11-H ) :   0.9516 B(  9-C , 12-C ) :   1.0743
B( 12-C , 13-H ) :   0.9716 B( 12-C , 14-H ) :   0.9712 B( 12-C , 15-H ) :   0.9762
B( 16-S , 17-C ) :   1.1842 B( 16-S , 20-C ) :   1.1523 B( 17-C , 18-C ) :   1.5858
B( 17-C , 33-H ) :   0.9595 B( 18-C , 19-C ) :   1.2714 B( 18-C , 21-H ) :   1.0024
B( 19-C , 20-C ) :   1.5439 B( 19-C , 22-C ) :   1.0518 B( 22-C , 23-H ) :   0.9267
B( 22-C , 24-H ) :   0.9269 B( 22-C , 25-C ) :   1.0509 B( 25-C , 26-H ) :   0.9563
B( 25-C , 27-H ) :   0.9605 B( 25-C , 28-C ) :   1.0585 B( 28-C , 29-H ) :   0.9732
B( 28-C , 30-H ) :   0.9792 B( 28-C , 31-H ) :   0.9776

Dispersion correction           -0.014722326
FINAL SINGLE POINT ENERGY     -1339.851805467599

DIPOLE MOMENT
-------------
                                X             Y             Z
Electronic contribution:     -5.20906     -15.92992      14.45766
Nuclear contribution   :      5.07723      16.23567     -14.79320
                        -----------------------------------------
Total Dipole Moment    :     -0.13183       0.30575      -0.33553
                        -----------------------------------------
Magnitude (a.u.)       :      0.47270
Magnitude (Debye)      :      1.20151

Rotational constants in cm-1:     0.018626     0.008697     0.007649
Rotational constants in MHz :   558.403676   260.728452   229.310071

                             ****ORCA TERMINATED NORMALLY****
TOTAL RUN TIME: 0 days 0 hours 0 minutes 29 seconds 117 msec
