                         Program Version 4.2.1 -  RELEASE  -
|  1> ! wB97X-D3 SP def2-SVP
|  2> %pal
|  3> nprocs 16
|  4> end
|  5>
|  6> * xyz 0 1
|  7> S 	 41.1299 	 26.6093 	 94.0517
|  8> C 	 40.7847 	 27.7494 	 92.7606
|  9> C 	 40.3839 	 27.0765 	 91.6222
| 10> C 	 40.2653 	 25.7037 	 91.7867
| 11> C 	 40.6406 	 25.1769 	 93.0315
| 12> H 	 39.8233 	 25.1549 	 91.0154
| 13> C 	 39.9222 	 27.8734 	 90.309
| 14> H 	 39.6493 	 27.2241 	 89.514
| 15> H 	 40.7708 	 28.3532 	 89.9675
| 16> C 	 38.6781 	 28.8838 	 90.5665
| 17> H 	 39.0282 	 29.6768 	 91.1661
| 18> H 	 38.477 	 29.3728 	 89.6399
| 19> C 	 37.3111 	 28.2084 	 91.0007
| 20> H 	 36.4654 	 28.8958 	 91.0518
| 21> H 	 37.02 	 27.4832 	 90.2957
| 22> H 	 37.5407 	 27.793 	 92.0257
| 23> S 	 40.2984 	 23.4584 	 95.1127
| 24> C 	 40.5475 	 21.7881 	 94.8595
| 25> C 	 40.7661 	 21.4586 	 93.4843
| 26> C 	 40.7966 	 22.597 	 92.6449
| 27> C 	 40.6503 	 23.8032 	 93.4465
| 28> H 	 40.9211 	 20.3857 	 93.2587
| 29> C 	 41.2667 	 22.5266 	 91.1652
| 30> H 	 42.0983 	 21.7769 	 91.0238
| 31> H 	 41.7315 	 23.4443 	 90.9055
| 32> C 	 40.1631 	 22.2007 	 90.2314
| 33> H 	 39.589 	 23.1089 	 90.0733
| 34> H 	 39.4914 	 21.4398 	 90.4926
| 35> C 	 40.7191 	 21.8227 	 88.8722
| 36> H 	 39.9604 	 21.8424 	 88.1242
| 37> H 	 41.3591 	 20.9402 	 88.7925
| 38> H 	 41.5153 	 22.5286 	 88.5633
| 39> H 	 40.7488 	 28.8393 	 92.7565
| 40> H 	 40.6888 	 21.1256 	 95.7119
| 41> *
| 42>
| 43>                          ****END OF INPUT****

CARTESIAN COORDINATES (ANGSTROEM)
---------------------------------
  S     41.129900   26.609300   94.051700
  C     40.784700   27.749400   92.760600
  C     40.383900   27.076500   91.622200
  C     40.265300   25.703700   91.786700
  C     40.640600   25.176900   93.031500
  H     39.823300   25.154900   91.015400
  C     39.922200   27.873400   90.309000
  H     39.649300   27.224100   89.514000
  H     40.770800   28.353200   89.967500
  C     38.678100   28.883800   90.566500
  H     39.028200   29.676800   91.166100
  H     38.477000   29.372800   89.639900
  C     37.311100   28.208400   91.000700
  H     36.465400   28.895800   91.051800
  H     37.020000   27.483200   90.295700
  H     37.540700   27.793000   92.025700
  S     40.298400   23.458400   95.112700
  C     40.547500   21.788100   94.859500
  C     40.766100   21.458600   93.484300
  C     40.796600   22.597000   92.644900
  C     40.650300   23.803200   93.446500
  H     40.921100   20.385700   93.258700
  C     41.266700   22.526600   91.165200
  H     42.098300   21.776900   91.023800
  H     41.731500   23.444300   90.905500
  C     40.163100   22.200700   90.231400
  H     39.589000   23.108900   90.073300
  H     39.491400   21.439800   90.492600
  C     40.719100   21.822700   88.872200
  H     39.960400   21.842400   88.124200
  H     41.359100   20.940200   88.792500
  H     41.515300   22.528600   88.563300
  H     40.748800   28.839300   92.756500
  H     40.688800   21.125600   95.711900

 Total Charge           Charge          ....    0
 Multiplicity           Mult            ....    1
 Number of Electrons    NEL             ....  134
 Basis Dimension        Dim             ....  322

ORBITAL ENERGIES
----------------

  NO   OCC          E(Eh)            E(eV)
   0   2.0000     -88.971384     -2421.0344
   1   2.0000     -88.969181     -2420.9745
   2   2.0000     -10.336455      -281.2693
   3   2.0000     -10.332748      -281.1684
   4   2.0000     -10.318992      -280.7940
   5   2.0000     -10.314549      -280.6731
   6   2.0000     -10.314287      -280.6660
   7   2.0000     -10.303069      -280.3608
   8   2.0000     -10.298010      -280.2231
   9   2.0000     -10.295171      -280.1458
  10   2.0000     -10.294435      -280.1258
  11   2.0000     -10.289941      -280.0035
  12   2.0000     -10.287808      -279.9455
  13   2.0000     -10.281374      -279.7704
  14   2.0000     -10.278820      -279.7009
  15   2.0000     -10.274844      -279.5927
  16   2.0000      -8.086883      -220.0553
  17   2.0000      -8.082204      -219.9280
  18   2.0000      -6.045062      -164.4945
  19   2.0000      -6.041189      -164.3891
  20   2.0000      -6.040943      -164.3824
  21   2.0000      -6.038057      -164.3039
  22   2.0000      -6.036910      -164.2727
  23   2.0000      -6.032847      -164.1621
  24   2.0000      -1.003077       -27.2951
  25   2.0000      -0.979800       -26.6617
  26   2.0000      -0.920576       -25.0502
  27   2.0000      -0.894421       -24.3384
  28   2.0000      -0.864718       -23.5302
  29   2.0000      -0.857096       -23.3228
  30   2.0000      -0.842274       -22.9194
  31   2.0000      -0.807790       -21.9811
  32   2.0000      -0.785858       -21.3843
  33   2.0000      -0.770832       -20.9754
  34   2.0000      -0.709361       -19.3027
  35   2.0000      -0.706949       -19.2371
  36   2.0000      -0.699315       -19.0293
  37   2.0000      -0.660725       -17.9793
  38   2.0000      -0.629952       -17.1419
  39   2.0000      -0.624166       -16.9844
  40   2.0000      -0.599419       -16.3110
  41   2.0000      -0.569053       -15.4847
  42   2.0000      -0.568782       -15.4773
  43   2.0000      -0.545323       -14.8390
  44   2.0000      -0.536514       -14.5993
  45   2.0000      -0.533799       -14.5254
  46   2.0000      -0.515678       -14.0323
  47   2.0000      -0.508262       -13.8305
  48   2.0000      -0.503417       -13.6987
  49   2.0000      -0.500704       -13.6249
  50   2.0000      -0.489538       -13.3210
  51   2.0000      -0.477803       -13.0017
  52   2.0000      -0.469303       -12.7704
  53   2.0000      -0.463425       -12.6104
  54   2.0000      -0.456086       -12.4107
  55   2.0000      -0.450192       -12.2504
  56   2.0000      -0.449356       -12.2276
  57   2.0000      -0.442997       -12.0546
  58   2.0000      -0.433126       -11.7860
  59   2.0000      -0.427823       -11.6417
  60   2.0000      -0.419615       -11.4183
  61   2.0000      -0.416207       -11.3256
  62   2.0000      -0.409716       -11.1489
  63   2.0000      -0.353170        -9.6102
  64   2.0000      -0.337409        -9.1814
  65   2.0000      -0.333846        -9.0844
  66   2.0000      -0.275837        -7.5059
  67   0.0000       0.011471         0.3121
  68   0.0000       0.079433         2.1615
  69   0.0000       0.105296         2.8653
  70   0.0000       0.119714         3.2576
  71   0.0000       0.131538         3.5793

MULLIKEN ATOMIC CHARGES
-----------------------
   0 S :    0.102661
   1 C :   -0.120760
   2 C :   -0.114080
   3 C :    0.040530
   4 C :   -0.110578
   5 H :   -0.037193
   6 C :    0.099502
   7 H :    0.007965
   8 H :    0.020971
   9 C :   -0.074309
  10 H :    0.017067
  11 H :    0.017447
  12 C :   -0.053734
  13 H :    0.037946
  14 H :    0.026405
  15 H :    0.059109
  16 S :    0.129375
  17 C :   -0.116107
  18 C :   -0.051668
  19 C :    0.001828
  20 C :   -0.163325
  21 H :    0.035623
  22 C :    0.032850
  23 H :    0.034895
  24 H :    0.021429
  25 C :   -0.025315
  26 H :    0.023671
  27 H :    0.025802
  28 C :   -0.050476
  29 H :    0.029684
  30 H :    0.026492
  31 H :    0.010543
  32 H :    0.048581
  33 H :    0.067170
Sum of atomic charges:   -0.0000000

LOEWDIN ATOMIC CHARGES
----------------------
   0 S :    0.376523
   1 C :   -0.200033
   2 C :   -0.067222
   3 C :   -0.065130
   4 C :   -0.172607
   5 H :    0.018920
   6 C :   -0.013160
   7 H :    0.021148
   8 H :    0.021754
   9 C :   -0.032170
  10 H :    0.012360
  11 H :    0.017973
  12 C :   -0.062497
  13 H :    0.027496
  14 H :    0.018248
  15 H :    0.037437
  16 S :    0.444320
  17 C :   -0.208066
  18 C :   -0.070512
  19 C :   -0.045285
  20 C :   -0.207578
  21 H :    0.039125
  22 C :   -0.026035
  23 H :    0.035738
  24 H :    0.026542
  25 C :   -0.036988
  26 H :    0.024749
  27 H :    0.019985
  28 C :   -0.068015
  29 H :    0.020932
  30 H :    0.024216
  31 H :    0.025555
  32 H :    0.033808
  33 H :    0.028468

  Mayer bond orders larger than 0.100000
B(  0-S ,  1-C ) :   1.1391 B(  0-S ,  4-C ) :   1.1264 B(  1-C ,  2-C ) :   1.5890
B(  1-C ,  4-C ) :   0.1076 B(  1-C , 32-H ) :   0.9648 B(  2-C ,  3-C ) :   1.3139
B(  2-C ,  6-C ) :   0.9983 B(  3-C ,  4-C ) :   1.5048 B(  3-C ,  5-H ) :   0.9991
B(  4-C , 20-C ) :   1.1238 B(  6-C ,  7-H ) :   0.9487 B(  6-C ,  8-H ) :   0.9422
B(  6-C ,  9-C ) :   1.0668 B(  9-C , 10-H ) :   0.9631 B(  9-C , 11-H ) :   0.9569
B(  9-C , 12-C ) :   1.0600 B( 12-C , 13-H ) :   0.9770 B( 12-C , 14-H ) :   0.9775
B( 12-C , 15-H ) :   0.9782 B( 16-S , 17-C ) :   1.1889 B( 16-S , 20-C ) :   1.1721
B( 17-C , 18-C ) :   1.5433 B( 17-C , 20-C ) :   0.1133 B( 17-C , 33-H ) :   0.9677
B( 18-C , 19-C ) :   1.2988 B( 18-C , 21-H ) :   0.9884 B( 19-C , 20-C ) :   1.4871
B( 19-C , 22-C ) :   1.0249 B( 22-C , 23-H ) :   0.9547 B( 22-C , 24-H ) :   0.9294
B( 22-C , 25-C ) :   1.0649 B( 25-C , 26-H ) :   0.9428 B( 25-C , 27-H ) :   0.9574
B( 25-C , 28-C ) :   1.0873 B( 28-C , 29-H ) :   0.9737 B( 28-C , 30-H ) :   0.9729
B( 28-C , 31-H ) :   0.9657

Dispersion correction           -0.014266327
FINAL SINGLE POINT ENERGY     -1339.853815048638

DIPOLE MOMENT
-------------
                                X             Y             Z
Electronic contribution:      8.06304      -1.95027      27.66538
Nuclear contribution   :     -8.17296       1.84462     -28.30581
                        -----------------------------------------
Total Dipole Moment    :     -0.10992      -0.10564      -0.64043
                        -----------------------------------------
Magnitude (a.u.)       :      0.65832
Magnitude (Debye)      :      1.67333

Rotational constants in cm-1:     0.016832     0.009164     0.006691
Rotational constants in MHz :   504.614252   274.735595   200.591246

                             ****ORCA TERMINATED NORMALLY****
TOTAL RUN TIME: 0 days 0 hours 0 minutes 30 seconds 119 msec
