                         Program Version 4.2.1 -  RELEASE  -
|  1> ! wB97X-D3 SP def2-SVP
|  2> %pal
|  3> nprocs 16
|  4> end
|  5>
|  6> * xyz 0 1
|  7> S 	 17.247 	 -11.2971 	 79.5011
|  8> C 	 15.746 	 -11.6465 	 80.4886
|  9> C 	 15.9779 	 -11.269 	 81.7934
| 10> C 	 17.1943 	 -10.5458 	 81.9159
| 11> C 	 17.9141 	 -10.2701 	 80.7614
| 12> H 	 17.5399 	 -10.2969 	 82.8976
| 13> C 	 15.1398 	 -11.7006 	 82.9627
| 14> H 	 14.2577 	 -12.1995 	 82.7101
| 15> H 	 14.7116 	 -10.7888 	 83.4649
| 16> C 	 15.8826 	 -12.4415 	 84.1086
| 17> H 	 16.6434 	 -11.7004 	 84.4964
| 18> H 	 15.2986 	 -12.7627 	 85.0032
| 19> C 	 16.6273 	 -13.698 	 83.5434
| 20> H 	 15.9154 	 -14.571 	 83.6454
| 21> H 	 17.0849 	 -13.7114 	 82.6186
| 22> H 	 17.5049 	 -13.8647 	 84.2137
| 23> S 	 18.969 	 -7.82783 	 81.1135
| 24> C 	 20.5078 	 -7.38961 	 80.4651
| 25> C 	 21.1568 	 -8.46398 	 79.8881
| 26> C 	 20.3333 	 -9.67895 	 79.9947
| 27> C 	 19.1422 	 -9.4637 	 80.6441
| 28> H 	 22.092 	 -8.29865 	 79.3835
| 29> C 	 20.7645 	 -10.9495 	 79.2265
| 30> H 	 19.916 	 -11.561 	 79.0099
| 31> H 	 21.3784 	 -11.4969 	 79.8524
| 32> C 	 21.4829 	 -10.6666 	 77.913
| 33> H 	 22.4798 	 -10.2932 	 78.0662
| 34> H 	 20.9698 	 -10.0145 	 77.2248
| 35> C 	 21.6847 	 -11.9465 	 77.0383
| 36> H 	 21.8905 	 -11.6541 	 76.0325
| 37> H 	 20.8582 	 -12.6707 	 77.0217
| 38> H 	 22.562 	 -12.475 	 77.4313
| 39> H 	 15.006 	 -12.3775 	 80.1971
| 40> H 	 20.8258 	 -6.35638 	 80.2325
| 41> *
| 42>
| 43>                          ****END OF INPUT****

CARTESIAN COORDINATES (ANGSTROEM)
---------------------------------
  S     17.247000  -11.297100   79.501100
  C     15.746000  -11.646500   80.488600
  C     15.977900  -11.269000   81.793400
  C     17.194300  -10.545800   81.915900
  C     17.914100  -10.270100   80.761400
  H     17.539900  -10.296900   82.897600
  C     15.139800  -11.700600   82.962700
  H     14.257700  -12.199500   82.710100
  H     14.711600  -10.788800   83.464900
  C     15.882600  -12.441500   84.108600
  H     16.643400  -11.700400   84.496400
  H     15.298600  -12.762700   85.003200
  C     16.627300  -13.698000   83.543400
  H     15.915400  -14.571000   83.645400
  H     17.084900  -13.711400   82.618600
  H     17.504900  -13.864700   84.213700
  S     18.969000   -7.827830   81.113500
  C     20.507800   -7.389610   80.465100
  C     21.156800   -8.463980   79.888100
  C     20.333300   -9.678950   79.994700
  C     19.142200   -9.463700   80.644100
  H     22.092000   -8.298650   79.383500
  C     20.764500  -10.949500   79.226500
  H     19.916000  -11.561000   79.009900
  H     21.378400  -11.496900   79.852400
  C     21.482900  -10.666600   77.913000
  H     22.479800  -10.293200   78.066200
  H     20.969800  -10.014500   77.224800
  C     21.684700  -11.946500   77.038300
  H     21.890500  -11.654100   76.032500
  H     20.858200  -12.670700   77.021700
  H     22.562000  -12.475000   77.431300
  H     15.006000  -12.377500   80.197100
  H     20.825800   -6.356380   80.232500

 Total Charge           Charge          ....    0
 Multiplicity           Mult            ....    1
 Number of Electrons    NEL             ....  134
 Basis Dimension        Dim             ....  322

ORBITAL ENERGIES
----------------

  NO   OCC          E(Eh)            E(eV)
   0   2.0000     -88.965492     -2420.8741
   1   2.0000     -88.965198     -2420.8661
   2   2.0000     -10.336419      -281.2683
   3   2.0000     -10.325631      -280.9747
   4   2.0000     -10.318729      -280.7869
   5   2.0000     -10.317291      -280.7478
   6   2.0000     -10.308350      -280.5045
   7   2.0000     -10.302798      -280.3534
   8   2.0000     -10.299910      -280.2748
   9   2.0000     -10.297347      -280.2051
  10   2.0000     -10.292547      -280.0744
  11   2.0000     -10.291655      -280.0502
  12   2.0000     -10.285749      -279.8895
  13   2.0000     -10.284098      -279.8445
  14   2.0000     -10.276122      -279.6275
  15   2.0000     -10.275740      -279.6171
  16   2.0000      -8.081077      -219.8973
  17   2.0000      -8.078606      -219.8301
  18   2.0000      -6.039577      -164.3453
  19   2.0000      -6.037370      -164.2852
  20   2.0000      -6.035334      -164.2298
  21   2.0000      -6.033537      -164.1809
  22   2.0000      -6.031844      -164.1348
  23   2.0000      -6.028997      -164.0573
  24   2.0000      -1.008550       -27.4440
  25   2.0000      -0.983265       -26.7560
  26   2.0000      -0.910156       -24.7666
  27   2.0000      -0.908908       -24.7326
  28   2.0000      -0.867615       -23.6090
  29   2.0000      -0.848521       -23.0894
  30   2.0000      -0.837150       -22.7800
  31   2.0000      -0.815120       -22.1805
  32   2.0000      -0.785262       -21.3681
  33   2.0000      -0.775913       -21.1137
  34   2.0000      -0.709065       -19.2946
  35   2.0000      -0.702101       -19.1051
  36   2.0000      -0.691797       -18.8247
  37   2.0000      -0.659682       -17.9509
  38   2.0000      -0.631767       -17.1912
  39   2.0000      -0.626806       -17.0562
  40   2.0000      -0.597644       -16.2627
  41   2.0000      -0.574093       -15.6219
  42   2.0000      -0.568449       -15.4683
  43   2.0000      -0.545782       -14.8515
  44   2.0000      -0.541358       -14.7311
  45   2.0000      -0.528830       -14.3902
  46   2.0000      -0.522359       -14.2141
  47   2.0000      -0.511589       -13.9210
  48   2.0000      -0.501422       -13.6444
  49   2.0000      -0.499523       -13.5927
  50   2.0000      -0.485722       -13.2172
  51   2.0000      -0.475413       -12.9366
  52   2.0000      -0.471266       -12.8238
  53   2.0000      -0.464094       -12.6286
  54   2.0000      -0.462587       -12.5876
  55   2.0000      -0.451280       -12.2799
  56   2.0000      -0.449110       -12.2209
  57   2.0000      -0.437807       -11.9133
  58   2.0000      -0.431522       -11.7423
  59   2.0000      -0.417120       -11.3504
  60   2.0000      -0.415510       -11.3066
  61   2.0000      -0.414702       -11.2846
  62   2.0000      -0.410851       -11.1798
  63   2.0000      -0.349057        -9.4983
  64   2.0000      -0.329046        -8.9538
  65   2.0000      -0.326114        -8.8740
  66   2.0000      -0.295396        -8.0381
  67   0.0000       0.028614         0.7786
  68   0.0000       0.065071         1.7707
  69   0.0000       0.094329         2.5668
  70   0.0000       0.125942         3.4271
  71   0.0000       0.129362         3.5201

MULLIKEN ATOMIC CHARGES
-----------------------
   0 S :    0.076754
   1 C :   -0.121705
   2 C :   -0.080913
   3 C :    0.016953
   4 C :   -0.113185
   5 H :   -0.000557
   6 C :    0.104968
   7 H :    0.000824
   8 H :    0.036346
   9 C :   -0.121475
  10 H :    0.037671
  11 H :    0.049176
  12 C :   -0.061204
  13 H :    0.038512
  14 H :    0.034112
  15 H :    0.029243
  16 S :    0.120397
  17 C :   -0.099356
  18 C :   -0.045674
  19 C :   -0.067814
  20 C :   -0.144262
  21 H :    0.022799
  22 C :    0.152105
  23 H :    0.004519
  24 H :    0.015443
  25 C :   -0.108104
  26 H :    0.029801
  27 H :    0.035079
  28 C :   -0.055879
  29 H :    0.028161
  30 H :    0.035545
  31 H :    0.027108
  32 H :    0.053200
  33 H :    0.071411
Sum of atomic charges:   -0.0000000

LOEWDIN ATOMIC CHARGES
----------------------
   0 S :    0.371578
   1 C :   -0.171685
   2 C :   -0.059731
   3 C :   -0.067254
   4 C :   -0.182378
   5 H :    0.023166
   6 C :   -0.032617
   7 H :    0.018703
   8 H :    0.039274
   9 C :   -0.042531
  10 H :    0.024290
  11 H :    0.034083
  12 C :   -0.072123
  13 H :    0.031038
  14 H :    0.014503
  15 H :    0.031170
  16 S :    0.438992
  17 C :   -0.199288
  18 C :   -0.067587
  19 C :   -0.049569
  20 C :   -0.216262
  21 H :    0.031506
  22 C :   -0.021714
  23 H :    0.016280
  24 H :    0.025830
  25 C :   -0.036496
  26 H :    0.020784
  27 H :    0.023922
  28 C :   -0.062221
  29 H :    0.022007
  30 H :    0.024487
  31 H :    0.023774
  32 H :    0.027786
  33 H :    0.038286

  Mayer bond orders larger than 0.100000
B(  0-S ,  1-C ) :   1.1160 B(  0-S ,  4-C ) :   1.1350 B(  1-C ,  2-C ) :   1.6132
B(  1-C , 32-H ) :   0.9658 B(  2-C ,  3-C ) :   1.2459 B(  2-C ,  6-C ) :   1.0318
B(  3-C ,  4-C ) :   1.5570 B(  3-C ,  5-H ) :   0.9976 B(  4-C , 20-C ) :   1.0337
B(  6-C ,  7-H ) :   0.9436 B(  6-C ,  8-H ) :   0.9323 B(  6-C ,  9-C ) :   1.0591
B(  9-C , 10-H ) :   0.9604 B(  9-C , 11-H ) :   0.9589 B(  9-C , 12-C ) :   1.0582
B( 12-C , 13-H ) :   0.9791 B( 12-C , 14-H ) :   0.9798 B( 12-C , 15-H ) :   0.9764
B( 16-S , 17-C ) :   1.1659 B( 16-S , 20-C ) :   1.1508 B( 17-C , 18-C ) :   1.6225
B( 17-C , 33-H ) :   0.9587 B( 18-C , 19-C ) :   1.2222 B( 18-C , 21-H ) :   0.9913
B( 19-C , 20-C ) :   1.6148 B( 19-C , 22-C ) :   1.0284 B( 22-C , 23-H ) :   0.9392
B( 22-C , 24-H ) :   0.9167 B( 22-C , 25-C ) :   1.0751 B( 25-C , 26-H ) :   0.9469
B( 25-C , 27-H ) :   0.9667 B( 25-C , 28-C ) :   1.0808 B( 28-C , 29-H ) :   0.9774
B( 28-C , 30-H ) :   0.9773 B( 28-C , 31-H ) :   0.9782

Dispersion correction           -0.014258501
FINAL SINGLE POINT ENERGY     -1339.858473986251

DIPOLE MOMENT
-------------
                                X             Y             Z
Electronic contribution:     -4.47324      17.06098      -1.65750
Nuclear contribution   :      4.68961     -17.31653       1.73807
                        -----------------------------------------
Total Dipole Moment    :      0.21637      -0.25555       0.08058
                        -----------------------------------------
Magnitude (a.u.)       :      0.34440
Magnitude (Debye)      :      0.87540

Rotational constants in cm-1:     0.020171     0.008127     0.006695
Rotational constants in MHz :   604.710634   243.637320   200.722998

                             ****ORCA TERMINATED NORMALLY****
TOTAL RUN TIME: 0 days 0 hours 0 minutes 29 seconds 531 msec
