                         Program Version 4.2.1 -  RELEASE  -
|  1> ! wB97X-D3 SP def2-SVP
|  2> %pal
|  3> nprocs 16
|  4> end
|  5>
|  6> * xyz 0 1
|  7> S 	 -12.9097 	 65.8477 	 51.9514
|  8> C 	 -13.7789 	 64.3436 	 52.3453
|  9> C 	 -13.1959 	 63.6854 	 53.4426
| 10> C 	 -12.134 	 64.4027 	 53.9336
| 11> C 	 -11.8323 	 65.5537 	 53.3237
| 12> H 	 -11.5095 	 64.048 	 54.6984
| 13> C 	 -13.697 	 62.4843 	 54.1007
| 14> H 	 -13.8608 	 61.8658 	 53.2375
| 15> H 	 -14.6659 	 62.6294 	 54.489
| 16> C 	 -12.8072 	 61.6398 	 55.0064
| 17> H 	 -11.9132 	 61.2781 	 54.4669
| 18> H 	 -12.5827 	 62.2416 	 55.7927
| 19> C 	 -13.4085 	 60.3798 	 55.5378
| 20> H 	 -12.7056 	 59.8222 	 56.2333
| 21> H 	 -14.2928 	 60.6926 	 56.2164
| 22> H 	 -13.6163 	 59.5979 	 54.8678
| 23> S 	 -10.1738 	 66.4624 	 55.2902
| 24> C 	 -8.79881 	 67.5095 	 54.9489
| 25> C 	 -8.77046 	 67.8018 	 53.646
| 26> C 	 -9.83619 	 67.203 	 52.8803
| 27> C 	 -10.7091 	 66.413 	 53.6677
| 28> H 	 -8.04356 	 68.5576 	 53.2043
| 29> C 	 -9.8519 	 67.3405 	 51.3755
| 30> H 	 -10.5512 	 66.5529 	 50.9957
| 31> H 	 -8.91207 	 67.1402 	 50.7958
| 32> C 	 -10.3474 	 68.6732 	 50.9479
| 33> H 	 -9.56466 	 69.378 	 51.0929
| 34> H 	 -11.1067 	 69.1185 	 51.6017
| 35> C 	 -10.8181 	 68.5727 	 49.4916
| 36> H 	 -10.8879 	 69.587 	 49.0388
| 37> H 	 -11.7988 	 68.0868 	 49.4522
| 38> H 	 -10.1874 	 67.9686 	 48.8649
| 39> H 	 -14.6624 	 64.0124 	 51.7782
| 40> H 	 -8.23908 	 67.9931 	 55.7528
| 41> *
| 42>
| 43>                          ****END OF INPUT****

CARTESIAN COORDINATES (ANGSTROEM)
---------------------------------
  S    -12.909700   65.847700   51.951400
  C    -13.778900   64.343600   52.345300
  C    -13.195900   63.685400   53.442600
  C    -12.134000   64.402700   53.933600
  C    -11.832300   65.553700   53.323700
  H    -11.509500   64.048000   54.698400
  C    -13.697000   62.484300   54.100700
  H    -13.860800   61.865800   53.237500
  H    -14.665900   62.629400   54.489000
  C    -12.807200   61.639800   55.006400
  H    -11.913200   61.278100   54.466900
  H    -12.582700   62.241600   55.792700
  C    -13.408500   60.379800   55.537800
  H    -12.705600   59.822200   56.233300
  H    -14.292800   60.692600   56.216400
  H    -13.616300   59.597900   54.867800
  S    -10.173800   66.462400   55.290200
  C     -8.798810   67.509500   54.948900
  C     -8.770460   67.801800   53.646000
  C     -9.836190   67.203000   52.880300
  C    -10.709100   66.413000   53.667700
  H     -8.043560   68.557600   53.204300
  C     -9.851900   67.340500   51.375500
  H    -10.551200   66.552900   50.995700
  H     -8.912070   67.140200   50.795800
  C    -10.347400   68.673200   50.947900
  H     -9.564660   69.378000   51.092900
  H    -11.106700   69.118500   51.601700
  C    -10.818100   68.572700   49.491600
  H    -10.887900   69.587000   49.038800
  H    -11.798800   68.086800   49.452200
  H    -10.187400   67.968600   48.864900
  H    -14.662400   64.012400   51.778200
  H     -8.239080   67.993100   55.752800

 Total Charge           Charge          ....    0
 Multiplicity           Mult            ....    1
 Number of Electrons    NEL             ....  134
 Basis Dimension        Dim             ....  322

ORBITAL ENERGIES
----------------

  NO   OCC          E(Eh)            E(eV)
   0   2.0000     -88.971437     -2421.0359
   1   2.0000     -88.962573     -2420.7947
   2   2.0000     -10.328212      -281.0449
   3   2.0000     -10.327517      -281.0260
   4   2.0000     -10.318088      -280.7694
   5   2.0000     -10.314611      -280.6748
   6   2.0000     -10.302279      -280.3393
   7   2.0000     -10.297258      -280.2026
   8   2.0000     -10.295527      -280.1555
   9   2.0000     -10.287202      -279.9290
  10   2.0000     -10.285102      -279.8718
  11   2.0000     -10.281450      -279.7725
  12   2.0000     -10.281268      -279.7675
  13   2.0000     -10.277911      -279.6762
  14   2.0000     -10.274992      -279.5967
  15   2.0000     -10.274436      -279.5816
  16   2.0000      -8.084604      -219.9933
  17   2.0000      -8.077928      -219.8116
  18   2.0000      -6.043133      -164.4420
  19   2.0000      -6.039376      -164.3398
  20   2.0000      -6.036480      -164.2610
  21   2.0000      -6.035417      -164.2320
  22   2.0000      -6.032286      -164.1468
  23   2.0000      -6.028670      -164.0485
  24   2.0000      -1.011710       -27.5300
  25   2.0000      -0.988945       -26.9106
  26   2.0000      -0.923904       -25.1407
  27   2.0000      -0.914380       -24.8815
  28   2.0000      -0.876724       -23.8569
  29   2.0000      -0.859344       -23.3839
  30   2.0000      -0.840945       -22.8833
  31   2.0000      -0.821834       -22.3632
  32   2.0000      -0.782778       -21.3005
  33   2.0000      -0.765503       -20.8304
  34   2.0000      -0.715432       -19.4679
  35   2.0000      -0.700897       -19.0724
  36   2.0000      -0.689982       -18.7754
  37   2.0000      -0.666431       -18.1345
  38   2.0000      -0.633806       -17.2467
  39   2.0000      -0.627763       -17.0823
  40   2.0000      -0.602620       -16.3981
  41   2.0000      -0.588856       -16.0236
  42   2.0000      -0.565652       -15.3922
  43   2.0000      -0.561199       -15.2710
  44   2.0000      -0.527351       -14.3499
  45   2.0000      -0.525288       -14.2938
  46   2.0000      -0.518105       -14.0983
  47   2.0000      -0.508729       -13.8432
  48   2.0000      -0.508288       -13.8312
  49   2.0000      -0.500348       -13.6152
  50   2.0000      -0.495021       -13.4702
  51   2.0000      -0.481283       -13.0964
  52   2.0000      -0.473138       -12.8747
  53   2.0000      -0.469626       -12.7792
  54   2.0000      -0.461491       -12.5578
  55   2.0000      -0.453378       -12.3370
  56   2.0000      -0.446509       -12.1501
  57   2.0000      -0.436467       -11.8769
  58   2.0000      -0.432361       -11.7651
  59   2.0000      -0.426336       -11.6012
  60   2.0000      -0.412908       -11.2358
  61   2.0000      -0.409522       -11.1436
  62   2.0000      -0.404156       -10.9976
  63   2.0000      -0.360990        -9.8230
  64   2.0000      -0.335145        -9.1198
  65   2.0000      -0.326386        -8.8814
  66   2.0000      -0.282923        -7.6987
  67   0.0000       0.023261         0.6330
  68   0.0000       0.081202         2.2096
  69   0.0000       0.104917         2.8549
  70   0.0000       0.123769         3.3679
  71   0.0000       0.137225         3.7341

MULLIKEN ATOMIC CHARGES
-----------------------
   0 S :    0.109770
   1 C :   -0.158390
   2 C :   -0.038424
   3 C :   -0.035865
   4 C :   -0.077972
   5 H :   -0.002598
   6 C :    0.084228
   7 H :    0.013143
   8 H :    0.027962
   9 C :   -0.048331
  10 H :    0.036181
  11 H :    0.018427
  12 C :   -0.069196
  13 H :    0.034217
  14 H :    0.038580
  15 H :    0.027908
  16 S :    0.082922
  17 C :   -0.098091
  18 C :   -0.028526
  19 C :   -0.068346
  20 C :   -0.119347
  21 H :    0.044940
  22 C :    0.006677
  23 H :    0.022001
  24 H :    0.043092
  25 C :   -0.057605
  26 H :    0.008784
  27 H :    0.030531
  28 C :   -0.040199
  29 H :    0.035355
  30 H :    0.035310
  31 H :    0.021801
  32 H :    0.053638
  33 H :    0.067424
Sum of atomic charges:   -0.0000000

LOEWDIN ATOMIC CHARGES
----------------------
   0 S :    0.402010
   1 C :   -0.194068
   2 C :   -0.056148
   3 C :   -0.071548
   4 C :   -0.174966
   5 H :    0.020907
   6 C :   -0.035116
   7 H :    0.036941
   8 H :    0.030375
   9 C :   -0.037394
  10 H :    0.032942
  11 H :    0.011432
  12 C :   -0.066679
  13 H :    0.034844
  14 H :    0.033499
  15 H :    0.016452
  16 S :    0.416660
  17 C :   -0.186006
  18 C :   -0.077494
  19 C :   -0.062874
  20 C :   -0.201303
  21 H :    0.044214
  22 C :   -0.046371
  23 H :    0.018035
  24 H :    0.037559
  25 C :   -0.045929
  26 H :    0.015055
  27 H :    0.026597
  28 C :   -0.062107
  29 H :    0.028312
  30 H :    0.027188
  31 H :    0.019664
  32 H :    0.030082
  33 H :    0.035235

  Mayer bond orders larger than 0.100000
B(  0-S ,  1-C ) :   1.1360 B(  0-S ,  4-C ) :   1.1357 B(  1-C ,  2-C ) :   1.5739
B(  1-C ,  4-C ) :   0.1003 B(  1-C , 32-H ) :   0.9713 B(  2-C ,  3-C ) :   1.2832
B(  2-C ,  6-C ) :   1.0035 B(  3-C ,  4-C ) :   1.5497 B(  3-C ,  5-H ) :   0.9954
B(  4-C , 20-C ) :   1.0524 B(  6-C ,  7-H ) :   0.9217 B(  6-C ,  8-H ) :   0.9314
B(  6-C ,  9-C ) :   1.0810 B(  9-C , 10-H ) :   0.9532 B(  9-C , 11-H ) :   0.9413
B(  9-C , 12-C ) :   1.1008 B( 12-C , 13-H ) :   0.9700 B( 12-C , 14-H ) :   0.9707
B( 12-C , 15-H ) :   0.9753 B( 16-S , 17-C ) :   1.1410 B( 16-S , 20-C ) :   1.1547
B( 17-C , 18-C ) :   1.6139 B( 17-C , 33-H ) :   0.9665 B( 18-C , 19-C ) :   1.2543
B( 18-C , 21-H ) :   0.9770 B( 19-C , 20-C ) :   1.5505 B( 19-C , 22-C ) :   1.0412
B( 22-C , 23-H ) :   0.9386 B( 22-C , 24-H ) :   0.9361 B( 22-C , 25-C ) :   1.0468
B( 25-C , 26-H ) :   0.9524 B( 25-C , 27-H ) :   0.9558 B( 25-C , 28-C ) :   1.0784
B( 28-C , 29-H ) :   0.9735 B( 28-C , 30-H ) :   0.9747 B( 28-C , 31-H ) :   0.9717

Dispersion correction           -0.013855458
FINAL SINGLE POINT ENERGY     -1339.863905736042

DIPOLE MOMENT
-------------
                                X             Y             Z
Electronic contribution:      2.51292       9.12835       6.05555
Nuclear contribution   :     -2.46477      -9.39302      -6.08516
                        -----------------------------------------
Total Dipole Moment    :      0.04814      -0.26467      -0.02960
                        -----------------------------------------
Magnitude (a.u.)       :      0.27064
Magnitude (Debye)      :      0.68790

Rotational constants in cm-1:     0.021576     0.008118     0.006176
Rotational constants in MHz :   646.821155   243.373038   185.163900

                             ****ORCA TERMINATED NORMALLY****
TOTAL RUN TIME: 0 days 0 hours 0 minutes 31 seconds 636 msec
