                         Program Version 4.2.1 -  RELEASE  -
|  1> ! wB97X-D3 SP def2-SVP
|  2> %pal
|  3> nprocs 16
|  4> end
|  5>
|  6> * xyz 0 1
|  7> S 	 41.7087 	 13.3557 	 82.1231
|  8> C 	 42.7087 	 14.07 	 80.8462
|  9> C 	 43.674 	 13.1828 	 80.4121
| 10> C 	 43.6946 	 11.9789 	 81.1554
| 11> C 	 42.7109 	 11.9171 	 82.1056
| 12> H 	 44.2989 	 11.1349 	 80.8837
| 13> C 	 44.7238 	 13.4975 	 79.3453
| 14> H 	 45.6344 	 13.0014 	 79.513
| 15> H 	 44.8687 	 14.5803 	 79.3388
| 16> C 	 44.2582 	 13.048 	 77.9577
| 17> H 	 43.2301 	 13.3768 	 77.9691
| 18> H 	 44.9002 	 13.5034 	 77.2341
| 19> C 	 44.0642 	 11.5551 	 77.7509
| 20> H 	 43.3544 	 11.4835 	 76.9059
| 21> H 	 44.9477 	 10.9241 	 77.6161
| 22> H 	 43.5442 	 11.1012 	 78.5823
| 23> S 	 43.3954 	 10.5655 	 84.3535
| 24> C 	 42.3264 	 9.42336 	 85.0996
| 25> C 	 41.1684 	 9.36636 	 84.33
| 26> C 	 41.1551 	 10.0832 	 83.1076
| 27> C 	 42.3696 	 10.7911 	 82.9607
| 28> H 	 40.4301 	 8.61871 	 84.5999
| 29> C 	 39.9563 	 10.2281 	 82.362
| 30> H 	 39.5788 	 9.23305 	 82.0804
| 31> H 	 40.0936 	 10.8477 	 81.4534
| 32> C 	 38.7181 	 10.8082 	 83.0239
| 33> H 	 39.0129 	 11.5591 	 83.6615
| 34> H 	 38.3093 	 10.0165 	 83.6793
| 35> C 	 37.6462 	 11.4442 	 82.0926
| 36> H 	 36.7063 	 11.4887 	 82.5931
| 37> H 	 37.4816 	 10.759 	 81.2209
| 38> H 	 37.901 	 12.4196 	 81.7054
| 39> H 	 42.7224 	 15.1193 	 80.5681
| 40> H 	 42.4029 	 8.9091 	 86.0039
| 41> *
| 42>
| 43>                          ****END OF INPUT****

CARTESIAN COORDINATES (ANGSTROEM)
---------------------------------
  S     41.708700   13.355700   82.123100
  C     42.708700   14.070000   80.846200
  C     43.674000   13.182800   80.412100
  C     43.694600   11.978900   81.155400
  C     42.710900   11.917100   82.105600
  H     44.298900   11.134900   80.883700
  C     44.723800   13.497500   79.345300
  H     45.634400   13.001400   79.513000
  H     44.868700   14.580300   79.338800
  C     44.258200   13.048000   77.957700
  H     43.230100   13.376800   77.969100
  H     44.900200   13.503400   77.234100
  C     44.064200   11.555100   77.750900
  H     43.354400   11.483500   76.905900
  H     44.947700   10.924100   77.616100
  H     43.544200   11.101200   78.582300
  S     43.395400   10.565500   84.353500
  C     42.326400    9.423360   85.099600
  C     41.168400    9.366360   84.330000
  C     41.155100   10.083200   83.107600
  C     42.369600   10.791100   82.960700
  H     40.430100    8.618710   84.599900
  C     39.956300   10.228100   82.362000
  H     39.578800    9.233050   82.080400
  H     40.093600   10.847700   81.453400
  C     38.718100   10.808200   83.023900
  H     39.012900   11.559100   83.661500
  H     38.309300   10.016500   83.679300
  C     37.646200   11.444200   82.092600
  H     36.706300   11.488700   82.593100
  H     37.481600   10.759000   81.220900
  H     37.901000   12.419600   81.705400
  H     42.722400   15.119300   80.568100
  H     42.402900    8.909100   86.003900

 Total Charge           Charge          ....    0
 Multiplicity           Mult            ....    1
 Number of Electrons    NEL             ....  134
 Basis Dimension        Dim             ....  322

ORBITAL ENERGIES
----------------

  NO   OCC          E(Eh)            E(eV)
   0   2.0000     -88.969820     -2420.9919
   1   2.0000     -88.966249     -2420.8947
   2   2.0000     -10.329055      -281.0679
   3   2.0000     -10.325332      -280.9666
   4   2.0000     -10.316217      -280.7185
   5   2.0000     -10.313911      -280.6558
   6   2.0000     -10.299769      -280.2710
   7   2.0000     -10.299264      -280.2572
   8   2.0000     -10.291725      -280.0521
   9   2.0000     -10.289843      -280.0009
  10   2.0000     -10.286232      -279.9026
  11   2.0000     -10.282561      -279.8027
  12   2.0000     -10.279673      -279.7241
  13   2.0000     -10.278424      -279.6901
  14   2.0000     -10.278314      -279.6871
  15   2.0000     -10.274928      -279.5950
  16   2.0000      -8.083748      -219.9700
  17   2.0000      -8.081011      -219.8955
  18   2.0000      -6.042273      -164.4186
  19   2.0000      -6.039491      -164.3429
  20   2.0000      -6.038387      -164.3129
  21   2.0000      -6.035305      -164.2290
  22   2.0000      -6.034528      -164.2078
  23   2.0000      -6.031990      -164.1388
  24   2.0000      -1.009273       -27.4637
  25   2.0000      -0.986271       -26.8378
  26   2.0000      -0.917721       -24.9725
  27   2.0000      -0.916272       -24.9330
  28   2.0000      -0.869238       -23.6532
  29   2.0000      -0.852611       -23.2007
  30   2.0000      -0.846978       -23.0474
  31   2.0000      -0.815939       -22.2028
  32   2.0000      -0.786416       -21.3995
  33   2.0000      -0.773490       -21.0477
  34   2.0000      -0.708146       -19.2696
  35   2.0000      -0.699148       -19.0248
  36   2.0000      -0.696287       -18.9469
  37   2.0000      -0.661603       -18.0031
  38   2.0000      -0.640856       -17.4386
  39   2.0000      -0.619580       -16.8596
  40   2.0000      -0.603547       -16.4234
  41   2.0000      -0.582094       -15.8396
  42   2.0000      -0.570154       -15.5147
  43   2.0000      -0.548732       -14.9318
  44   2.0000      -0.543464       -14.7884
  45   2.0000      -0.527738       -14.3605
  46   2.0000      -0.521343       -14.1865
  47   2.0000      -0.516043       -14.0423
  48   2.0000      -0.505907       -13.7664
  49   2.0000      -0.501677       -13.6513
  50   2.0000      -0.486744       -13.2450
  51   2.0000      -0.480748       -13.0818
  52   2.0000      -0.473399       -12.8819
  53   2.0000      -0.467071       -12.7096
  54   2.0000      -0.458745       -12.4831
  55   2.0000      -0.451188       -12.2774
  56   2.0000      -0.442763       -12.0482
  57   2.0000      -0.433255       -11.7895
  58   2.0000      -0.427922       -11.6444
  59   2.0000      -0.422893       -11.5075
  60   2.0000      -0.419442       -11.4136
  61   2.0000      -0.415299       -11.3009
  62   2.0000      -0.413494       -11.2518
  63   2.0000      -0.340299        -9.2600
  64   2.0000      -0.335424        -9.1274
  65   2.0000      -0.322262        -8.7692
  66   2.0000      -0.300327        -8.1723
  67   0.0000       0.035169         0.9570
  68   0.0000       0.056275         1.5313
  69   0.0000       0.104772         2.8510
  70   0.0000       0.120343         3.2747
  71   0.0000       0.127246         3.4626

MULLIKEN ATOMIC CHARGES
-----------------------
   0 S :    0.117989
   1 C :   -0.128545
   2 C :   -0.119797
   3 C :    0.051614
   4 C :   -0.159650
   5 H :    0.014039
   6 C :    0.104186
   7 H :    0.010133
   8 H :    0.021937
   9 C :   -0.053108
  10 H :    0.017317
  11 H :    0.033164
  12 C :   -0.061683
  13 H :    0.037506
  14 H :    0.032735
  15 H :    0.024428
  16 S :    0.120235
  17 C :   -0.061988
  18 C :   -0.070604
  19 C :    0.008545
  20 C :   -0.164077
  21 H :    0.020983
  22 C :    0.040751
  23 H :    0.024297
  24 H :    0.025900
  25 C :   -0.061453
  26 H :    0.008134
  27 H :    0.023983
  28 C :   -0.042422
  29 H :    0.030501
  30 H :    0.026930
  31 H :    0.039709
  32 H :    0.051079
  33 H :    0.037230
Sum of atomic charges:    0.0000000

LOEWDIN ATOMIC CHARGES
----------------------
   0 S :    0.402058
   1 C :   -0.194806
   2 C :   -0.060210
   3 C :   -0.059086
   4 C :   -0.192649
   5 H :    0.032014
   6 C :   -0.023331
   7 H :    0.019501
   8 H :    0.031130
   9 C :   -0.036692
  10 H :    0.025988
  11 H :    0.021274
  12 C :   -0.069539
  13 H :    0.033430
  14 H :    0.021333
  15 H :    0.024217
  16 S :    0.429745
  17 C :   -0.185023
  18 C :   -0.070279
  19 C :   -0.060314
  20 C :   -0.207647
  21 H :    0.028132
  22 C :   -0.047229
  23 H :    0.037438
  24 H :    0.030374
  25 C :   -0.033529
  26 H :    0.009629
  27 H :    0.023296
  28 C :   -0.059217
  29 H :    0.025163
  30 H :    0.027280
  31 H :    0.025275
  32 H :    0.029837
  33 H :    0.022436

  Mayer bond orders larger than 0.100000
B(  0-S ,  1-C ) :   1.1296 B(  0-S ,  4-C ) :   1.1465 B(  1-C ,  2-C ) :   1.6242
B(  1-C , 32-H ) :   0.9630 B(  2-C ,  3-C ) :   1.2425 B(  2-C ,  6-C ) :   1.0257
B(  3-C ,  4-C ) :   1.5793 B(  3-C ,  5-H ) :   0.9931 B(  4-C , 20-C ) :   1.0046
B(  6-C ,  7-H ) :   0.9428 B(  6-C ,  8-H ) :   0.9392 B(  6-C ,  9-C ) :   1.0695
B(  9-C , 10-H ) :   0.9551 B(  9-C , 11-H ) :   0.9578 B(  9-C , 12-C ) :   1.0782
B( 12-C , 13-H ) :   0.9745 B( 12-C , 14-H ) :   0.9750 B( 12-C , 15-H ) :   0.9683
B( 16-S , 17-C ) :   1.1608 B( 16-S , 20-C ) :   1.1699 B( 17-C , 18-C ) :   1.5905
B( 17-C , 20-C ) :   0.1019 B( 17-C , 33-H ) :   0.9754 B( 18-C , 19-C ) :   1.2514
B( 18-C , 21-H ) :   0.9841 B( 19-C , 20-C ) :   1.5328 B( 19-C , 22-C ) :   1.1110
B( 22-C , 23-H ) :   0.9069 B( 22-C , 24-H ) :   0.9314 B( 22-C , 25-C ) :   1.0569
B( 25-C , 26-H ) :   0.9560 B( 25-C , 27-H ) :   0.9500 B( 25-C , 28-C ) :   1.0869
B( 28-C , 29-H ) :   0.9731 B( 28-C , 30-H ) :   0.9761 B( 28-C , 31-H ) :   0.9741

Dispersion correction           -0.014777754
FINAL SINGLE POINT ENERGY     -1339.869942703436

DIPOLE MOMENT
-------------
                                X             Y             Z
Electronic contribution:      8.94199       1.34944      18.52361
Nuclear contribution   :     -9.08852      -1.39254     -18.75730
                        -----------------------------------------
Total Dipole Moment    :     -0.14654      -0.04310      -0.23370
                        -----------------------------------------
Magnitude (a.u.)       :      0.27918
Magnitude (Debye)      :      0.70963

Rotational constants in cm-1:     0.019158     0.008744     0.007290
Rotational constants in MHz :   574.332345   262.139289   218.543280

                             ****ORCA TERMINATED NORMALLY****
TOTAL RUN TIME: 0 days 0 hours 0 minutes 31 seconds 3 msec
