                         Program Version 4.2.1 -  RELEASE  -
|  1> ! wB97X-D3 SP def2-SVP
|  2> %pal
|  3> nprocs 16
|  4> end
|  5>
|  6> * xyz 0 1
|  7> S 	 -14.5145 	 -0.692976 	 82.015
|  8> C 	 -14.2464 	 0.602165 	 83.1754
|  9> C 	 -14.6983 	 1.82746 	 82.6943
| 10> C 	 -15.369 	 1.63341 	 81.4522
| 11> C 	 -15.4033 	 0.385417 	 80.9928
| 12> H 	 -15.9164 	 2.33914 	 80.9291
| 13> C 	 -14.6166 	 3.18022 	 83.3822
| 14> H 	 -15.3853 	 3.8388 	 82.9303
| 15> H 	 -13.6994 	 3.62324 	 82.9597
| 16> C 	 -14.6859 	 3.1476 	 84.9009
| 17> H 	 -15.6993 	 3.11015 	 85.142
| 18> H 	 -14.1062 	 2.4352 	 85.4421
| 19> C 	 -14.1718 	 4.55468 	 85.4732
| 20> H 	 -14.3363 	 4.69317 	 86.614
| 21> H 	 -13.0797 	 4.59122 	 85.4621
| 22> H 	 -14.3685 	 5.55901 	 84.9938
| 23> S 	 -15.1454 	 -1.03634 	 78.6482
| 24> C 	 -16.4965 	 -1.13867 	 77.4922
| 25> C 	 -17.6235 	 -0.59542 	 78.0747
| 26> C 	 -17.4311 	 -0.0380222 	 79.4214
| 27> C 	 -16.0952 	 -0.0781075 	 79.8062
| 28> H 	 -18.5547 	 -0.658773 	 77.536
| 29> C 	 -18.5651 	 0.44292 	 80.3221
| 30> H 	 -18.123 	 0.588784 	 81.3174
| 31> H 	 -19.3581 	 -0.323365 	 80.3778
| 32> C 	 -19.2499 	 1.79645 	 79.9051
| 33> H 	 -20.167 	 1.91374 	 80.4942
| 34> H 	 -19.6214 	 1.63421 	 78.8755
| 35> C 	 -18.4493 	 3.12768 	 79.8197
| 36> H 	 -17.5379 	 2.93952 	 79.2132
| 37> H 	 -18.1207 	 3.43372 	 80.7683
| 38> H 	 -19.0085 	 3.94732 	 79.2655
| 39> H 	 -13.7797 	 0.431474 	 84.1397
| 40> H 	 -16.3882 	 -1.6194 	 76.5534
| 41> *
| 42>
| 43>                          ****END OF INPUT****

CARTESIAN COORDINATES (ANGSTROEM)
---------------------------------
  S    -14.514500   -0.692976   82.015000
  C    -14.246400    0.602165   83.175400
  C    -14.698300    1.827460   82.694300
  C    -15.369000    1.633410   81.452200
  C    -15.403300    0.385417   80.992800
  H    -15.916400    2.339140   80.929100
  C    -14.616600    3.180220   83.382200
  H    -15.385300    3.838800   82.930300
  H    -13.699400    3.623240   82.959700
  C    -14.685900    3.147600   84.900900
  H    -15.699300    3.110150   85.142000
  H    -14.106200    2.435200   85.442100
  C    -14.171800    4.554680   85.473200
  H    -14.336300    4.693170   86.614000
  H    -13.079700    4.591220   85.462100
  H    -14.368500    5.559010   84.993800
  S    -15.145400   -1.036340   78.648200
  C    -16.496500   -1.138670   77.492200
  C    -17.623500   -0.595420   78.074700
  C    -17.431100   -0.038022   79.421400
  C    -16.095200   -0.078107   79.806200
  H    -18.554700   -0.658773   77.536000
  C    -18.565100    0.442920   80.322100
  H    -18.123000    0.588784   81.317400
  H    -19.358100   -0.323365   80.377800
  C    -19.249900    1.796450   79.905100
  H    -20.167000    1.913740   80.494200
  H    -19.621400    1.634210   78.875500
  C    -18.449300    3.127680   79.819700
  H    -17.537900    2.939520   79.213200
  H    -18.120700    3.433720   80.768300
  H    -19.008500    3.947320   79.265500
  H    -13.779700    0.431474   84.139700
  H    -16.388200   -1.619400   76.553400

 Total Charge           Charge          ....    0
 Multiplicity           Mult            ....    1
 Number of Electrons    NEL             ....  134
 Basis Dimension        Dim             ....  322

ORBITAL ENERGIES
----------------

  NO   OCC          E(Eh)            E(eV)
   0   2.0000     -88.963854     -2420.8295
   1   2.0000     -88.960110     -2420.7277
   2   2.0000     -10.329401      -281.0773
   3   2.0000     -10.321059      -280.8503
   4   2.0000     -10.320110      -280.8245
   5   2.0000     -10.315142      -280.6893
   6   2.0000     -10.310039      -280.5504
   7   2.0000     -10.302886      -280.3558
   8   2.0000     -10.299877      -280.2739
   9   2.0000     -10.299298      -280.2581
  10   2.0000     -10.299001      -280.2501
  11   2.0000     -10.294148      -280.1180
  12   2.0000     -10.292032      -280.0604
  13   2.0000     -10.291433      -280.0441
  14   2.0000     -10.283635      -279.8319
  15   2.0000     -10.282142      -279.7913
  16   2.0000      -8.079035      -219.8417
  17   2.0000      -8.074428      -219.7164
  18   2.0000      -6.037529      -164.2895
  19   2.0000      -6.033551      -164.1813
  20   2.0000      -6.033099      -164.1690
  21   2.0000      -6.029710      -164.0767
  22   2.0000      -6.028964      -164.0565
  23   2.0000      -6.025075      -163.9506
  24   2.0000      -1.008918       -27.4541
  25   2.0000      -0.979257       -26.6469
  26   2.0000      -0.912875       -24.8406
  27   2.0000      -0.899229       -24.4693
  28   2.0000      -0.868794       -23.6411
  29   2.0000      -0.850883       -23.1537
  30   2.0000      -0.840690       -22.8763
  31   2.0000      -0.815965       -22.2035
  32   2.0000      -0.781234       -21.2585
  33   2.0000      -0.772303       -21.0154
  34   2.0000      -0.718118       -19.5410
  35   2.0000      -0.703141       -19.1335
  36   2.0000      -0.693292       -18.8654
  37   2.0000      -0.658853       -17.9283
  38   2.0000      -0.647813       -17.6279
  39   2.0000      -0.617247       -16.7961
  40   2.0000      -0.593871       -16.1600
  41   2.0000      -0.577255       -15.7079
  42   2.0000      -0.559014       -15.2116
  43   2.0000      -0.545914       -14.8551
  44   2.0000      -0.540750       -14.7146
  45   2.0000      -0.526254       -14.3201
  46   2.0000      -0.524219       -14.2647
  47   2.0000      -0.509758       -13.8712
  48   2.0000      -0.504825       -13.7370
  49   2.0000      -0.498716       -13.5708
  50   2.0000      -0.486662       -13.2427
  51   2.0000      -0.474270       -12.9055
  52   2.0000      -0.473485       -12.8842
  53   2.0000      -0.464464       -12.6387
  54   2.0000      -0.455574       -12.3968
  55   2.0000      -0.451968       -12.2987
  56   2.0000      -0.442436       -12.0393
  57   2.0000      -0.438109       -11.9216
  58   2.0000      -0.434171       -11.8144
  59   2.0000      -0.428585       -11.6624
  60   2.0000      -0.419705       -11.4208
  61   2.0000      -0.414654       -11.2833
  62   2.0000      -0.413503       -11.2520
  63   2.0000      -0.346638        -9.4325
  64   2.0000      -0.330870        -9.0034
  65   2.0000      -0.325610        -8.8603
  66   2.0000      -0.296537        -8.0692
  67   0.0000       0.036234         0.9860
  68   0.0000       0.065583         1.7846
  69   0.0000       0.107686         2.9303
  70   0.0000       0.121954         3.3185
  71   0.0000       0.129894         3.5346

MULLIKEN ATOMIC CHARGES
-----------------------
   0 S :    0.114332
   1 C :   -0.150089
   2 C :   -0.061375
   3 C :    0.056704
   4 C :   -0.133196
   5 H :   -0.059215
   6 C :    0.065940
   7 H :    0.028890
   8 H :    0.042919
   9 C :   -0.006210
  10 H :    0.035026
  11 H :    0.039804
  12 C :   -0.142076
  13 H :    0.041405
  14 H :    0.024480
  15 H :    0.043650
  16 S :    0.077743
  17 C :   -0.084873
  18 C :   -0.024695
  19 C :   -0.029708
  20 C :   -0.165038
  21 H :    0.020674
  22 C :    0.064230
  23 H :    0.036914
  24 H :    0.041735
  25 C :   -0.100065
  26 H :    0.032444
  27 H :    0.021105
  28 C :   -0.063061
  29 H :    0.050013
  30 H :    0.029410
  31 H :    0.051194
  32 H :    0.046332
  33 H :    0.054657
Sum of atomic charges:   -0.0000000

LOEWDIN ATOMIC CHARGES
----------------------
   0 S :    0.404458
   1 C :   -0.194952
   2 C :   -0.058046
   3 C :   -0.057635
   4 C :   -0.198454
   5 H :    0.017813
   6 C :   -0.032521
   7 H :    0.036316
   8 H :    0.038151
   9 C :   -0.021842
  10 H :    0.023630
  11 H :    0.026291
  12 C :   -0.092164
  13 H :    0.032712
  14 H :    0.020687
  15 H :    0.030656
  16 S :    0.369863
  17 C :   -0.165723
  18 C :   -0.068778
  19 C :   -0.057453
  20 C :   -0.182905
  21 H :    0.029615
  22 C :   -0.029884
  23 H :    0.032409
  24 H :    0.038858
  25 C :   -0.046127
  26 H :    0.022927
  27 H :    0.022116
  28 C :   -0.069992
  29 H :    0.029584
  30 H :    0.011234
  31 H :    0.039360
  32 H :    0.024782
  33 H :    0.025013

  Mayer bond orders larger than 0.100000
B(  0-S ,  1-C ) :   1.1354 B(  0-S ,  4-C ) :   1.1373 B(  1-C ,  2-C ) :   1.6136
B(  1-C , 32-H ) :   0.9713 B(  2-C ,  3-C ) :   1.2178 B(  2-C ,  6-C ) :   1.0026
B(  3-C ,  4-C ) :   1.6158 B(  3-C ,  5-H ) :   1.0087 B(  4-C , 20-C ) :   1.0208
B(  6-C ,  7-H ) :   0.9435 B(  6-C ,  8-H ) :   0.9358 B(  6-C ,  9-C ) :   1.0564
B(  9-C , 10-H ) :   0.9616 B(  9-C , 11-H ) :   0.9581 B(  9-C , 12-C ) :   1.0535
B( 12-C , 13-H ) :   0.9773 B( 12-C , 14-H ) :   0.9783 B( 12-C , 15-H ) :   0.9783
B( 16-S , 17-C ) :   1.1331 B( 16-S , 20-C ) :   1.1289 B( 17-C , 18-C ) :   1.6311
B( 17-C , 33-H ) :   0.9764 B( 18-C , 19-C ) :   1.1922 B( 18-C , 21-H ) :   0.9912
B( 19-C , 20-C ) :   1.6152 B( 19-C , 22-C ) :   1.0464 B( 22-C , 23-H ) :   0.9345
B( 22-C , 24-H ) :   0.9371 B( 22-C , 25-C ) :   1.0635 B( 25-C , 26-H ) :   0.9584
B( 25-C , 27-H ) :   0.9589 B( 25-C , 28-C ) :   1.0737 B( 28-C , 29-H ) :   0.9655
B( 28-C , 30-H ) :   0.9729 B( 28-C , 31-H ) :   0.9695

Dispersion correction           -0.014665322
FINAL SINGLE POINT ENERGY     -1339.873667995680

DIPOLE MOMENT
-------------
                                X             Y             Z
Electronic contribution:     10.22759     -25.05467     -13.44927
Nuclear contribution   :    -10.65762      25.53573      13.63685
                        -----------------------------------------
Total Dipole Moment    :     -0.43003       0.48105       0.18758
                        -----------------------------------------
Magnitude (a.u.)       :      0.67196
Magnitude (Debye)      :      1.70798

Rotational constants in cm-1:     0.021057     0.008162     0.006370
Rotational constants in MHz :   631.269123   244.699862   190.955516

                             ****ORCA TERMINATED NORMALLY****
TOTAL RUN TIME: 0 days 0 hours 0 minutes 32 seconds 286 msec
