                         Program Version 4.2.1 -  RELEASE  -
|  1> ! wB97X-D3 SP def2-SVP
|  2> %pal
|  3> nprocs 16
|  4> end
|  5>
|  6> * xyz 0 1
|  7> S 	 69.8363 	 21.6738 	 75.7871
|  8> C 	 71.5444 	 21.5717 	 75.7501
|  9> C 	 72.1345 	 22.8572 	 75.821
| 10> C 	 71.1197 	 23.8847 	 75.7728
| 11> C 	 69.8014 	 23.421 	 75.812
| 12> H 	 71.2831 	 24.9669 	 75.8577
| 13> C 	 73.654 	 23.2287 	 75.7663
| 14> H 	 73.8174 	 24.1836 	 75.1934
| 15> H 	 74.1572 	 22.448 	 75.2538
| 16> C 	 74.1676 	 23.496 	 77.1245
| 17> H 	 75.2403 	 23.5845 	 76.9549
| 18> H 	 73.8764 	 24.483 	 77.4689
| 19> C 	 73.8919 	 22.3526 	 78.2622
| 20> H 	 72.8325 	 22.301 	 78.4715
| 21> H 	 74.0999 	 21.327 	 77.9591
| 22> H 	 74.3765 	 22.607 	 79.1828
| 23> S 	 67.331 	 23.635 	 74.74
| 24> C 	 66.2425 	 24.9438 	 75.074
| 25> C 	 66.8829 	 25.9169 	 75.8152
| 26> C 	 68.2483 	 25.5352 	 76.228
| 27> C 	 68.6105 	 24.3146 	 75.738
| 28> H 	 66.3748 	 26.7737 	 76.1905
| 29> C 	 69.0625 	 26.4008 	 77.1592
| 30> H 	 69.7233 	 25.8058 	 77.8083
| 31> H 	 68.2429 	 26.8396 	 77.7576
| 32> C 	 69.9164 	 27.5209 	 76.5948
| 33> H 	 69.5748 	 27.8147 	 75.5715
| 34> H 	 70.9673 	 27.2265 	 76.4025
| 35> C 	 69.9585 	 28.7381 	 77.5422
| 36> H 	 70.2358 	 28.2418 	 78.4992
| 37> H 	 68.9221 	 29.2148 	 77.6719
| 38> H 	 70.7729 	 29.4178 	 77.3425
| 39> H 	 72.2528 	 20.722 	 75.618
| 40> H 	 65.2637 	 25.2201 	 74.7114
| 41> *
| 42>
| 43>                          ****END OF INPUT****

CARTESIAN COORDINATES (ANGSTROEM)
---------------------------------
  S     69.836300   21.673800   75.787100
  C     71.544400   21.571700   75.750100
  C     72.134500   22.857200   75.821000
  C     71.119700   23.884700   75.772800
  C     69.801400   23.421000   75.812000
  H     71.283100   24.966900   75.857700
  C     73.654000   23.228700   75.766300
  H     73.817400   24.183600   75.193400
  H     74.157200   22.448000   75.253800
  C     74.167600   23.496000   77.124500
  H     75.240300   23.584500   76.954900
  H     73.876400   24.483000   77.468900
  C     73.891900   22.352600   78.262200
  H     72.832500   22.301000   78.471500
  H     74.099900   21.327000   77.959100
  H     74.376500   22.607000   79.182800
  S     67.331000   23.635000   74.740000
  C     66.242500   24.943800   75.074000
  C     66.882900   25.916900   75.815200
  C     68.248300   25.535200   76.228000
  C     68.610500   24.314600   75.738000
  H     66.374800   26.773700   76.190500
  C     69.062500   26.400800   77.159200
  H     69.723300   25.805800   77.808300
  H     68.242900   26.839600   77.757600
  C     69.916400   27.520900   76.594800
  H     69.574800   27.814700   75.571500
  H     70.967300   27.226500   76.402500
  C     69.958500   28.738100   77.542200
  H     70.235800   28.241800   78.499200
  H     68.922100   29.214800   77.671900
  H     70.772900   29.417800   77.342500
  H     72.252800   20.722000   75.618000
  H     65.263700   25.220100   74.711400

 Total Charge           Charge          ....    0
 Multiplicity           Mult            ....    1
 Number of Electrons    NEL             ....  134
 Basis Dimension        Dim             ....  322

ORBITAL ENERGIES
----------------

  NO   OCC          E(Eh)            E(eV)
   0   2.0000     -88.973997     -2421.1055
   1   2.0000     -88.963830     -2420.8289
   2   2.0000     -10.334546      -281.2173
   3   2.0000     -10.331300      -281.1290
   4   2.0000     -10.320163      -280.8259
   5   2.0000     -10.317362      -280.7497
   6   2.0000     -10.306363      -280.4504
   7   2.0000     -10.306183      -280.4455
   8   2.0000     -10.296447      -280.1806
   9   2.0000     -10.296025      -280.1691
  10   2.0000     -10.295507      -280.1550
  11   2.0000     -10.295003      -280.1413
  12   2.0000     -10.292112      -280.0626
  13   2.0000     -10.290182      -280.0101
  14   2.0000     -10.288533      -279.9652
  15   2.0000     -10.278745      -279.6989
  16   2.0000      -8.088421      -220.0971
  17   2.0000      -8.078797      -219.8352
  18   2.0000      -6.047068      -164.5491
  19   2.0000      -6.042794      -164.4328
  20   2.0000      -6.039219      -164.3355
  21   2.0000      -6.037521      -164.2893
  22   2.0000      -6.033191      -164.1715
  23   2.0000      -6.029374      -164.0676
  24   2.0000      -1.006529       -27.3890
  25   2.0000      -0.984885       -26.8001
  26   2.0000      -0.913141       -24.8478
  27   2.0000      -0.911237       -24.7960
  28   2.0000      -0.868048       -23.6208
  29   2.0000      -0.850789       -23.1512
  30   2.0000      -0.838279       -22.8107
  31   2.0000      -0.811896       -22.0928
  32   2.0000      -0.786326       -21.3970
  33   2.0000      -0.774100       -21.0643
  34   2.0000      -0.706377       -19.2215
  35   2.0000      -0.698766       -19.0144
  36   2.0000      -0.690262       -18.7830
  37   2.0000      -0.667153       -18.1542
  38   2.0000      -0.635579       -17.2950
  39   2.0000      -0.618911       -16.8414
  40   2.0000      -0.594765       -16.1844
  41   2.0000      -0.569029       -15.4841
  42   2.0000      -0.564965       -15.3735
  43   2.0000      -0.547869       -14.9083
  44   2.0000      -0.540049       -14.6955
  45   2.0000      -0.523976       -14.2581
  46   2.0000      -0.517256       -14.0753
  47   2.0000      -0.512113       -13.9353
  48   2.0000      -0.508959       -13.8495
  49   2.0000      -0.503498       -13.7009
  50   2.0000      -0.485776       -13.2186
  51   2.0000      -0.475712       -12.9448
  52   2.0000      -0.468527       -12.7493
  53   2.0000      -0.465357       -12.6630
  54   2.0000      -0.458009       -12.4630
  55   2.0000      -0.455026       -12.3819
  56   2.0000      -0.449743       -12.2381
  57   2.0000      -0.440344       -11.9824
  58   2.0000      -0.435756       -11.8575
  59   2.0000      -0.421707       -11.4752
  60   2.0000      -0.414104       -11.2684
  61   2.0000      -0.411941       -11.2095
  62   2.0000      -0.409063       -11.1312
  63   2.0000      -0.356148        -9.6913
  64   2.0000      -0.330765        -9.0006
  65   2.0000      -0.327886        -8.9222
  66   2.0000      -0.292685        -7.9644
  67   0.0000       0.027842         0.7576
  68   0.0000       0.078551         2.1375
  69   0.0000       0.111037         3.0215
  70   0.0000       0.120354         3.2750
  71   0.0000       0.124354         3.3838

MULLIKEN ATOMIC CHARGES
-----------------------
   0 S :    0.139150
   1 C :   -0.122590
   2 C :   -0.129829
   3 C :    0.018271
   4 C :   -0.125513
   5 H :   -0.001083
   6 C :    0.079896
   7 H :    0.040877
   8 H :    0.016492
   9 C :   -0.074589
  10 H :    0.027903
  11 H :    0.024551
  12 C :   -0.048465
  13 H :    0.040693
  14 H :    0.024901
  15 H :    0.034971
  16 S :    0.094073
  17 C :   -0.060591
  18 C :   -0.044532
  19 C :   -0.068755
  20 C :   -0.136115
  21 H :    0.011161
  22 C :    0.039075
  23 H :    0.038633
  24 H :    0.028086
  25 C :   -0.081949
  26 H :    0.032240
  27 H :    0.037125
  28 C :   -0.073055
  29 H :    0.028275
  30 H :    0.054720
  31 H :    0.038831
  32 H :    0.062899
  33 H :    0.054241
Sum of atomic charges:   -0.0000000

LOEWDIN ATOMIC CHARGES
----------------------
   0 S :    0.433856
   1 C :   -0.227865
   2 C :   -0.060753
   3 C :   -0.067104
   4 C :   -0.206585
   5 H :    0.029010
   6 C :   -0.029286
   7 H :    0.042168
   8 H :    0.022272
   9 C :   -0.038755
  10 H :    0.024531
  11 H :    0.021608
  12 C :   -0.065459
  13 H :    0.026321
  14 H :    0.023077
  15 H :    0.023287
  16 S :    0.402638
  17 C :   -0.191811
  18 C :   -0.068202
  19 C :   -0.060847
  20 C :   -0.181289
  21 H :    0.024574
  22 C :   -0.038583
  23 H :    0.034930
  24 H :    0.036596
  25 C :   -0.050247
  26 H :    0.023292
  27 H :    0.022712
  28 C :   -0.069724
  29 H :    0.027872
  30 H :    0.034299
  31 H :    0.024292
  32 H :    0.043032
  33 H :    0.036144

  Mayer bond orders larger than 0.100000
B(  0-S ,  1-C ) :   1.1544 B(  0-S ,  4-C ) :   1.1531 B(  1-C ,  2-C ) :   1.5782
B(  1-C , 32-H ) :   0.9581 B(  2-C ,  3-C ) :   1.2728 B(  2-C ,  6-C ) :   1.0165
B(  3-C ,  4-C ) :   1.5471 B(  3-C ,  5-H ) :   0.9879 B(  4-C , 20-C ) :   1.0341
B(  6-C ,  7-H ) :   0.9457 B(  6-C ,  8-H ) :   0.9414 B(  6-C ,  9-C ) :   1.0768
B(  9-C , 10-H ) :   0.9560 B(  9-C , 11-H ) :   0.9579 B(  9-C , 12-C ) :   1.0589
B( 12-C , 13-H ) :   0.9732 B( 12-C , 14-H ) :   0.9787 B( 12-C , 15-H ) :   0.9782
B( 16-S , 17-C ) :   1.1391 B( 16-S , 20-C ) :   1.1212 B( 17-C , 18-C ) :   1.6465
B( 17-C , 33-H ) :   0.9635 B( 18-C , 19-C ) :   1.2146 B( 18-C , 21-H ) :   0.9857
B( 19-C , 20-C ) :   1.6449 B( 19-C , 22-C ) :   1.0440 B( 22-C , 23-H ) :   0.9317
B( 22-C , 24-H ) :   0.9396 B( 22-C , 25-C ) :   1.0456 B( 25-C , 26-H ) :   0.9598
B( 25-C , 27-H ) :   0.9482 B( 25-C , 28-C ) :   1.0719 B( 28-C , 29-H ) :   0.9744
B( 28-C , 30-H ) :   0.9745 B( 28-C , 31-H ) :   0.9736

Dispersion correction           -0.014395099
FINAL SINGLE POINT ENERGY     -1339.868456877895

DIPOLE MOMENT
-------------
                                X             Y             Z
Electronic contribution:    -20.66428     -17.17223     -13.25884
Nuclear contribution   :     21.12102      17.70556      13.46918
                        -----------------------------------------
Total Dipole Moment    :      0.45674       0.53333       0.21034
                        -----------------------------------------
Magnitude (a.u.)       :      0.73300
Magnitude (Debye)      :      1.86314

Rotational constants in cm-1:     0.017267     0.009500     0.006533
Rotational constants in MHz :   517.666144   284.816467   195.839841

                             ****ORCA TERMINATED NORMALLY****
TOTAL RUN TIME: 0 days 0 hours 0 minutes 30 seconds 229 msec
