                         Program Version 4.2.1 -  RELEASE  -
|  1> ! wB97X-D3 SP def2-SVP
|  2> %pal
|  3> nprocs 16
|  4> end
|  5>
|  6> * xyz 0 1
|  7> S 	 15.0002 	 13.8023 	 85.9121
|  8> C 	 16.3367 	 14.1285 	 84.8886
|  9> C 	 16.4768 	 13.3557 	 83.787
| 10> C 	 15.3003 	 12.5758 	 83.6388
| 11> C 	 14.3913 	 12.7291 	 84.6704
| 12> H 	 14.958 	 12.0178 	 82.8102
| 13> C 	 17.541 	 13.5284 	 82.7394
| 14> H 	 17.771 	 12.4658 	 82.4326
| 15> H 	 18.4575 	 13.8956 	 83.2492
| 16> C 	 17.2597 	 14.2303 	 81.4373
| 17> H 	 17.076 	 15.3024 	 81.7852
| 18> H 	 18.1985 	 14.1757 	 80.9337
| 19> C 	 16.1662 	 13.6051 	 80.5414
| 20> H 	 15.1699 	 13.5134 	 81.0134
| 21> H 	 16.1433 	 14.1663 	 79.6725
| 22> H 	 16.4307 	 12.6227 	 80.244
| 23> S 	 11.8044 	 13.1203 	 85.6707
| 24> C 	 10.6122 	 11.8645 	 85.4258
| 25> C 	 11.122 	 10.8246 	 84.6426
| 26> C 	 12.4966 	 10.9599 	 84.2809
| 27> C 	 13.0207 	 12.1745 	 84.7527
| 28> H 	 10.4427 	 9.95616 	 84.5188
| 29> C 	 13.2635 	 9.79237 	 83.6529
| 30> H 	 13.1972 	 9.03322 	 84.3861
| 31> H 	 14.3036 	 10.0871 	 83.6858
| 32> C 	 12.7947 	 9.31075 	 82.2348
| 33> H 	 11.8221 	 8.78734 	 82.28
| 34> H 	 13.538 	 8.60961 	 81.8821
| 35> C 	 12.8263 	 10.5055 	 81.1714
| 36> H 	 12.1267 	 11.3672 	 81.3685
| 37> H 	 12.6062 	 10.1183 	 80.1905
| 38> H 	 13.7164 	 10.9874 	 80.9771
| 39> H 	 17.0609 	 14.8378 	 85.1231
| 40> H 	 9.64502 	 11.8932 	 85.9291
| 41> *
| 42>
| 43>                          ****END OF INPUT****

CARTESIAN COORDINATES (ANGSTROEM)
---------------------------------
  S     15.000200   13.802300   85.912100
  C     16.336700   14.128500   84.888600
  C     16.476800   13.355700   83.787000
  C     15.300300   12.575800   83.638800
  C     14.391300   12.729100   84.670400
  H     14.958000   12.017800   82.810200
  C     17.541000   13.528400   82.739400
  H     17.771000   12.465800   82.432600
  H     18.457500   13.895600   83.249200
  C     17.259700   14.230300   81.437300
  H     17.076000   15.302400   81.785200
  H     18.198500   14.175700   80.933700
  C     16.166200   13.605100   80.541400
  H     15.169900   13.513400   81.013400
  H     16.143300   14.166300   79.672500
  H     16.430700   12.622700   80.244000
  S     11.804400   13.120300   85.670700
  C     10.612200   11.864500   85.425800
  C     11.122000   10.824600   84.642600
  C     12.496600   10.959900   84.280900
  C     13.020700   12.174500   84.752700
  H     10.442700    9.956160   84.518800
  C     13.263500    9.792370   83.652900
  H     13.197200    9.033220   84.386100
  H     14.303600   10.087100   83.685800
  C     12.794700    9.310750   82.234800
  H     11.822100    8.787340   82.280000
  H     13.538000    8.609610   81.882100
  C     12.826300   10.505500   81.171400
  H     12.126700   11.367200   81.368500
  H     12.606200   10.118300   80.190500
  H     13.716400   10.987400   80.977100
  H     17.060900   14.837800   85.123100
  H      9.645020   11.893200   85.929100

 Total Charge           Charge          ....    0
 Multiplicity           Mult            ....    1
 Number of Electrons    NEL             ....  134
 Basis Dimension        Dim             ....  322

ORBITAL ENERGIES
----------------

  NO   OCC          E(Eh)            E(eV)
   0   2.0000     -88.966006     -2420.8881
   1   2.0000     -88.964722     -2420.8532
   2   2.0000     -10.331581      -281.1366
   3   2.0000     -10.327188      -281.0171
   4   2.0000     -10.319030      -280.7951
   5   2.0000     -10.306152      -280.4447
   6   2.0000     -10.300953      -280.3032
   7   2.0000     -10.300882      -280.3012
   8   2.0000     -10.297036      -280.1966
   9   2.0000     -10.294286      -280.1218
  10   2.0000     -10.294084      -280.1163
  11   2.0000     -10.291271      -280.0397
  12   2.0000     -10.291223      -280.0384
  13   2.0000     -10.287597      -279.9397
  14   2.0000     -10.277904      -279.6760
  15   2.0000     -10.275534      -279.6115
  16   2.0000      -8.081516      -219.9092
  17   2.0000      -8.078872      -219.8373
  18   2.0000      -6.039862      -164.3530
  19   2.0000      -6.037406      -164.2862
  20   2.0000      -6.036109      -164.2509
  21   2.0000      -6.033452      -164.1786
  22   2.0000      -6.032220      -164.1450
  23   2.0000      -6.029664      -164.0755
  24   2.0000      -1.007002       -27.4019
  25   2.0000      -0.981348       -26.7038
  26   2.0000      -0.915556       -24.9136
  27   2.0000      -0.901163       -24.5219
  28   2.0000      -0.866355       -23.5747
  29   2.0000      -0.852242       -23.1907
  30   2.0000      -0.842191       -22.9172
  31   2.0000      -0.814431       -22.1618
  32   2.0000      -0.789132       -21.4734
  33   2.0000      -0.778481       -21.1836
  34   2.0000      -0.713883       -19.4258
  35   2.0000      -0.702894       -19.1267
  36   2.0000      -0.694979       -18.9113
  37   2.0000      -0.658255       -17.9120
  38   2.0000      -0.640926       -17.4405
  39   2.0000      -0.614781       -16.7290
  40   2.0000      -0.590854       -16.0780
  41   2.0000      -0.572315       -15.5735
  42   2.0000      -0.551548       -15.0084
  43   2.0000      -0.548116       -14.9150
  44   2.0000      -0.541244       -14.7280
  45   2.0000      -0.536068       -14.5871
  46   2.0000      -0.519828       -14.1452
  47   2.0000      -0.513100       -13.9622
  48   2.0000      -0.496983       -13.5236
  49   2.0000      -0.493326       -13.4241
  50   2.0000      -0.488403       -13.2901
  51   2.0000      -0.479859       -13.0576
  52   2.0000      -0.469040       -12.7632
  53   2.0000      -0.466874       -12.7043
  54   2.0000      -0.462173       -12.5764
  55   2.0000      -0.449887       -12.2420
  56   2.0000      -0.444112       -12.0849
  57   2.0000      -0.442308       -12.0358
  58   2.0000      -0.434023       -11.8104
  59   2.0000      -0.428732       -11.6664
  60   2.0000      -0.426271       -11.5994
  61   2.0000      -0.418005       -11.3745
  62   2.0000      -0.412755       -11.2316
  63   2.0000      -0.352823        -9.6008
  64   2.0000      -0.332996        -9.0613
  65   2.0000      -0.330645        -8.9973
  66   2.0000      -0.281740        -7.6665
  67   0.0000       0.024737         0.6731
  68   0.0000       0.081797         2.2258
  69   0.0000       0.102749         2.7959
  70   0.0000       0.118735         3.2309
  71   0.0000       0.132351         3.6015

MULLIKEN ATOMIC CHARGES
-----------------------
   0 S :    0.119281
   1 C :   -0.100036
   2 C :   -0.048744
   3 C :    0.021904
   4 C :   -0.147203
   5 H :   -0.031059
   6 C :    0.024702
   7 H :    0.018104
   8 H :    0.028416
   9 C :   -0.049288
  10 H :    0.036663
  11 H :    0.029070
  12 C :   -0.020268
  13 H :    0.053905
  14 H :    0.023925
  15 H :    0.012906
  16 S :    0.093007
  17 C :   -0.113112
  18 C :   -0.046648
  19 C :   -0.049115
  20 C :   -0.144579
  21 H :    0.031711
  22 C :    0.081934
  23 H :    0.027944
  24 H :    0.012739
  25 C :   -0.050532
  26 H :    0.046362
  27 H :    0.036037
  28 C :   -0.059704
  29 H :    0.052980
  30 H :    0.020851
  31 H :    0.010469
  32 H :    0.010458
  33 H :    0.066918
Sum of atomic charges:   -0.0000000

LOEWDIN ATOMIC CHARGES
----------------------
   0 S :    0.411850
   1 C :   -0.190610
   2 C :   -0.066840
   3 C :   -0.061238
   4 C :   -0.186274
   5 H :    0.019048
   6 C :   -0.041083
   7 H :    0.031961
   8 H :    0.033687
   9 C :   -0.036973
  10 H :    0.031053
  11 H :    0.025167
  12 C :   -0.057436
  13 H :    0.032660
  14 H :    0.021488
  15 H :    0.020069
  16 S :    0.381548
  17 C :   -0.187731
  18 C :   -0.077107
  19 C :   -0.056859
  20 C :   -0.184958
  21 H :    0.036827
  22 C :   -0.028725
  23 H :    0.029619
  24 H :    0.028667
  25 C :   -0.028199
  26 H :    0.029120
  27 H :    0.027385
  28 C :   -0.071120
  29 H :    0.036217
  30 H :    0.025254
  31 H :    0.010813
  32 H :    0.011171
  33 H :    0.031548

  Mayer bond orders larger than 0.100000
B(  0-S ,  1-C ) :   1.1402 B(  0-S ,  4-C ) :   1.1395 B(  1-C ,  2-C ) :   1.6289
B(  1-C , 32-H ) :   0.9680 B(  2-C ,  3-C ) :   1.2117 B(  2-C ,  6-C ) :   1.0382
B(  3-C ,  4-C ) :   1.5944 B(  3-C ,  5-H ) :   0.9924 B(  4-C , 20-C ) :   1.0577
B(  6-C ,  7-H ) :   0.9272 B(  6-C ,  8-H ) :   0.9376 B(  6-C ,  9-C ) :   1.0734
B(  9-C , 10-H ) :   0.9523 B(  9-C , 11-H ) :   0.9480 B(  9-C , 12-C ) :   1.0819
B( 12-C , 13-H ) :   0.9711 B( 12-C , 14-H ) :   0.9682 B( 12-C , 15-H ) :   0.9695
B( 16-S , 17-C ) :   1.1499 B( 16-S , 20-C ) :   1.1345 B( 17-C , 18-C ) :   1.6130
B( 17-C , 20-C ) :   0.1009 B( 17-C , 33-H ) :   0.9671 B( 18-C , 19-C ) :   1.2304
B( 18-C , 21-H ) :   0.9852 B( 19-C , 20-C ) :   1.5857 B( 19-C , 22-C ) :   1.0258
B( 22-C , 23-H ) :   0.9357 B( 22-C , 24-H ) :   0.9314 B( 22-C , 25-C ) :   1.0684
B( 25-C , 26-H ) :   0.9583 B( 25-C , 27-H ) :   0.9572 B( 25-C , 28-C ) :   1.0640
B( 28-C , 29-H ) :   0.9762 B( 28-C , 30-H ) :   0.9712 B( 28-C , 31-H ) :   0.9723

Dispersion correction           -0.015435553
FINAL SINGLE POINT ENERGY     -1339.872800237433

DIPOLE MOMENT
-------------
                                X             Y             Z
Electronic contribution:     -8.77152       9.15196      26.40073
Nuclear contribution   :      8.97990      -9.54374     -26.94937
                        -----------------------------------------
Total Dipole Moment    :      0.20838      -0.39178      -0.54864
                        -----------------------------------------
Magnitude (a.u.)       :      0.70563
Magnitude (Debye)      :      1.79358

Rotational constants in cm-1:     0.017654     0.010335     0.007288
Rotational constants in MHz :   529.255858   309.823623   218.501687

                             ****ORCA TERMINATED NORMALLY****
TOTAL RUN TIME: 0 days 0 hours 0 minutes 38 seconds 60 msec
