                         Program Version 4.2.1 -  RELEASE  -
|  1> ! wB97X-D3 SP def2-SVP
|  2> %pal
|  3> nprocs 16
|  4> end
|  5>
|  6> * xyz 0 1
|  7> S 	 -47.0255 	 10.6276 	 81.7793
|  8> C 	 -46.137 	 9.24141 	 82.3921
|  9> C 	 -45.2482 	 9.57533 	 83.4047
| 10> C 	 -45.5701 	 10.8999 	 83.9324
| 11> C 	 -46.5895 	 11.5476 	 83.2367
| 12> H 	 -45.0166 	 11.3597 	 84.7556
| 13> C 	 -44.232 	 8.6984 	 84.0269
| 14> H 	 -44.7037 	 7.71884 	 84.0176
| 15> H 	 -44.003 	 8.99068 	 85.0541
| 16> C 	 -42.816 	 8.55012 	 83.3147
| 17> H 	 -42.2594 	 7.82082 	 83.9247
| 18> H 	 -42.8733 	 8.21089 	 82.3365
| 19> C 	 -41.9459 	 9.78519 	 83.2755
| 20> H 	 -42.3513 	 10.6447 	 82.7793
| 21> H 	 -41.7146 	 10.1699 	 84.3072
| 22> H 	 -40.9164 	 9.4892 	 82.9305
| 23> S 	 -46.9439 	 14.0579 	 82.0265
| 24> C 	 -47.4259 	 15.3894 	 83.0926
| 25> C 	 -47.8499 	 14.8922 	 84.3039
| 26> C 	 -47.5844 	 13.5452 	 84.5509
| 27> C 	 -47.0681 	 12.9197 	 83.4103
| 28> H 	 -48.3256 	 15.5677 	 85.0297
| 29> C 	 -47.9554 	 12.8722 	 85.8798
| 30> H 	 -48.0372 	 11.7999 	 85.8403
| 31> H 	 -48.9609 	 13.2204 	 86.1854
| 32> C 	 -47.0923 	 13.2374 	 87.1183
| 33> H 	 -46.6034 	 14.1197 	 86.9922
| 34> H 	 -46.2563 	 12.6346 	 87.2725
| 35> C 	 -47.9096 	 13.1677 	 88.4005
| 36> H 	 -47.4413 	 13.4236 	 89.3522
| 37> H 	 -48.3413 	 12.1759 	 88.4017
| 38> H 	 -48.7386 	 13.8888 	 88.2803
| 39> H 	 -46.134 	 8.27131 	 81.944
| 40> H 	 -47.5892 	 16.4897 	 82.7182
| 41> *
| 42>
| 43>                          ****END OF INPUT****

CARTESIAN COORDINATES (ANGSTROEM)
---------------------------------
  S    -47.025500   10.627600   81.779300
  C    -46.137000    9.241410   82.392100
  C    -45.248200    9.575330   83.404700
  C    -45.570100   10.899900   83.932400
  C    -46.589500   11.547600   83.236700
  H    -45.016600   11.359700   84.755600
  C    -44.232000    8.698400   84.026900
  H    -44.703700    7.718840   84.017600
  H    -44.003000    8.990680   85.054100
  C    -42.816000    8.550120   83.314700
  H    -42.259400    7.820820   83.924700
  H    -42.873300    8.210890   82.336500
  C    -41.945900    9.785190   83.275500
  H    -42.351300   10.644700   82.779300
  H    -41.714600   10.169900   84.307200
  H    -40.916400    9.489200   82.930500
  S    -46.943900   14.057900   82.026500
  C    -47.425900   15.389400   83.092600
  C    -47.849900   14.892200   84.303900
  C    -47.584400   13.545200   84.550900
  C    -47.068100   12.919700   83.410300
  H    -48.325600   15.567700   85.029700
  C    -47.955400   12.872200   85.879800
  H    -48.037200   11.799900   85.840300
  H    -48.960900   13.220400   86.185400
  C    -47.092300   13.237400   87.118300
  H    -46.603400   14.119700   86.992200
  H    -46.256300   12.634600   87.272500
  C    -47.909600   13.167700   88.400500
  H    -47.441300   13.423600   89.352200
  H    -48.341300   12.175900   88.401700
  H    -48.738600   13.888800   88.280300
  H    -46.134000    8.271310   81.944000
  H    -47.589200   16.489700   82.718200

 Total Charge           Charge          ....    0
 Multiplicity           Mult            ....    1
 Number of Electrons    NEL             ....  134
 Basis Dimension        Dim             ....  322

ORBITAL ENERGIES
----------------

  NO   OCC          E(Eh)            E(eV)
   0   2.0000     -88.967468     -2420.9279
   1   2.0000     -88.966804     -2420.9098
   2   2.0000     -10.332911      -281.1728
   3   2.0000     -10.332005      -281.1482
   4   2.0000     -10.326953      -281.0107
   5   2.0000     -10.314161      -280.6626
   6   2.0000     -10.304904      -280.4107
   7   2.0000     -10.303110      -280.3619
   8   2.0000     -10.299812      -280.2721
   9   2.0000     -10.295577      -280.1569
  10   2.0000     -10.295162      -280.1456
  11   2.0000     -10.293540      -280.1015
  12   2.0000     -10.286258      -279.9033
  13   2.0000     -10.279531      -279.7202
  14   2.0000     -10.278094      -279.6812
  15   2.0000     -10.271203      -279.4936
  16   2.0000      -8.081174      -219.8999
  17   2.0000      -8.081058      -219.8968
  18   2.0000      -6.039805      -164.3514
  19   2.0000      -6.039686      -164.3482
  20   2.0000      -6.035939      -164.2463
  21   2.0000      -6.035879      -164.2446
  22   2.0000      -6.031746      -164.1321
  23   2.0000      -6.031492      -164.1252
  24   2.0000      -1.000733       -27.2313
  25   2.0000      -0.979729       -26.6598
  26   2.0000      -0.910888       -24.7865
  27   2.0000      -0.908922       -24.7330
  28   2.0000      -0.866663       -23.5831
  29   2.0000      -0.853503       -23.2250
  30   2.0000      -0.846154       -23.0250
  31   2.0000      -0.811332       -22.0775
  32   2.0000      -0.781262       -21.2592
  33   2.0000      -0.768723       -20.9180
  34   2.0000      -0.712240       -19.3810
  35   2.0000      -0.702837       -19.1252
  36   2.0000      -0.696826       -18.9616
  37   2.0000      -0.656884       -17.8747
  38   2.0000      -0.637025       -17.3343
  39   2.0000      -0.615216       -16.7409
  40   2.0000      -0.598443       -16.2845
  41   2.0000      -0.574768       -15.6402
  42   2.0000      -0.561100       -15.2683
  43   2.0000      -0.546491       -14.8708
  44   2.0000      -0.539278       -14.6745
  45   2.0000      -0.531503       -14.4629
  46   2.0000      -0.515471       -14.0267
  47   2.0000      -0.509411       -13.8618
  48   2.0000      -0.500896       -13.6301
  49   2.0000      -0.493288       -13.4230
  50   2.0000      -0.491810       -13.3828
  51   2.0000      -0.472898       -12.8682
  52   2.0000      -0.468339       -12.7442
  53   2.0000      -0.465157       -12.6576
  54   2.0000      -0.457946       -12.4614
  55   2.0000      -0.447437       -12.1754
  56   2.0000      -0.443945       -12.0804
  57   2.0000      -0.440286       -11.9808
  58   2.0000      -0.434233       -11.8161
  59   2.0000      -0.424580       -11.5534
  60   2.0000      -0.423368       -11.5204
  61   2.0000      -0.422249       -11.4900
  62   2.0000      -0.416889       -11.3441
  63   2.0000      -0.347008        -9.4426
  64   2.0000      -0.333898        -9.0858
  65   2.0000      -0.326021        -8.8715
  66   2.0000      -0.287316        -7.8183
  67   0.0000       0.026693         0.7264
  68   0.0000       0.057132         1.5547
  69   0.0000       0.101523         2.7626
  70   0.0000       0.117769         3.2047
  71   0.0000       0.124980         3.4009

MULLIKEN ATOMIC CHARGES
-----------------------
   0 S :    0.101072
   1 C :   -0.104095
   2 C :   -0.087480
   3 C :    0.028800
   4 C :   -0.151557
   5 H :    0.019687
   6 C :    0.050856
   7 H :    0.031813
   8 H :    0.022935
   9 C :   -0.037370
  10 H :    0.030006
  11 H :    0.017985
  12 C :   -0.078414
  13 H :    0.046363
  14 H :    0.014550
  15 H :    0.039858
  16 S :    0.099021
  17 C :   -0.134453
  18 C :   -0.038273
  19 C :    0.001628
  20 C :   -0.161962
  21 H :    0.025389
  22 C :    0.049811
  23 H :    0.032549
  24 H :    0.022857
  25 C :    0.003498
  26 H :   -0.006301
  27 H :    0.003354
  28 C :   -0.074002
  29 H :    0.040726
  30 H :    0.032762
  31 H :    0.025600
  32 H :    0.036833
  33 H :    0.095952
Sum of atomic charges:    0.0000000

LOEWDIN ATOMIC CHARGES
----------------------
   0 S :    0.387164
   1 C :   -0.188706
   2 C :   -0.063312
   3 C :   -0.056900
   4 C :   -0.184479
   5 H :    0.033034
   6 C :   -0.033421
   7 H :    0.036785
   8 H :    0.030547
   9 C :   -0.031059
  10 H :    0.029053
  11 H :    0.013648
  12 C :   -0.072600
  13 H :    0.022846
  14 H :    0.023125
  15 H :    0.034176
  16 S :    0.375694
  17 C :   -0.197130
  18 C :   -0.075514
  19 C :   -0.058453
  20 C :   -0.181473
  21 H :    0.035267
  22 C :   -0.020681
  23 H :    0.030016
  24 H :    0.034397
  25 C :   -0.035997
  26 H :    0.008866
  27 H :    0.015588
  28 C :   -0.062144
  29 H :    0.027155
  30 H :    0.025287
  31 H :    0.022893
  32 H :    0.022251
  33 H :    0.054075

  Mayer bond orders larger than 0.100000
B(  0-S ,  1-C ) :   1.1319 B(  0-S ,  4-C ) :   1.1308 B(  1-C ,  2-C ) :   1.6208
B(  1-C , 32-H ) :   0.9691 B(  2-C ,  3-C ) :   1.2148 B(  2-C ,  6-C ) :   1.0334
B(  3-C ,  4-C ) :   1.5814 B(  3-C ,  5-H ) :   0.9932 B(  4-C , 20-C ) :   1.0495
B(  6-C ,  7-H ) :   0.9363 B(  6-C ,  8-H ) :   0.9441 B(  6-C ,  9-C ) :   1.0676
B(  9-C , 10-H ) :   0.9555 B(  9-C , 11-H ) :   0.9576 B(  9-C , 12-C ) :   1.0819
B( 12-C , 13-H ) :   0.9768 B( 12-C , 14-H ) :   0.9722 B( 12-C , 15-H ) :   0.9712
B( 16-S , 17-C ) :   1.1389 B( 16-S , 20-C ) :   1.1355 B( 17-C , 18-C ) :   1.6132
B( 17-C , 20-C ) :   0.1063 B( 17-C , 33-H ) :   0.9522 B( 18-C , 19-C ) :   1.2483
B( 18-C , 21-H ) :   0.9819 B( 19-C , 20-C ) :   1.5902 B( 19-C , 22-C ) :   1.0456
B( 22-C , 23-H ) :   0.9329 B( 22-C , 24-H ) :   0.9490 B( 22-C , 25-C ) :   1.0389
B( 25-C , 26-H ) :   0.9569 B( 25-C , 27-H ) :   0.9450 B( 25-C , 28-C ) :   1.0748
B( 28-C , 29-H ) :   0.9737 B( 28-C , 30-H ) :   0.9764 B( 28-C , 31-H ) :   0.9776

Dispersion correction           -0.013794360
FINAL SINGLE POINT ENERGY     -1339.864505122638

DIPOLE MOMENT
-------------
                                X             Y             Z
Electronic contribution:    -11.89827       7.09985     -22.59315
Nuclear contribution   :     12.18179      -7.23527      23.17038
                        -----------------------------------------
Total Dipole Moment    :      0.28352      -0.13542       0.57723
                        -----------------------------------------
Magnitude (a.u.)       :      0.65720
Magnitude (Debye)      :      1.67047

Rotational constants in cm-1:     0.016905     0.008440     0.006740
Rotational constants in MHz :   506.806385   253.017759   202.065838

                             ****ORCA TERMINATED NORMALLY****
TOTAL RUN TIME: 0 days 0 hours 0 minutes 29 seconds 466 msec
