                         Program Version 4.2.1 -  RELEASE  -
|  1> ! wB97X-D3 SP def2-SVP
|  2> %pal
|  3> nprocs 16
|  4> end
|  5>
|  6> * xyz 0 1
|  7> S 	 35.4474 	 -1.82737 	 70.1034
|  8> C 	 35.8194 	 -0.389447 	 70.9973
|  9> C 	 37.1547 	 -0.0377959 	 70.7722
| 10> C 	 37.8446 	 -0.955168 	 69.9207
| 11> C 	 37.0614 	 -1.96589 	 69.3988
| 12> H 	 38.9445 	 -0.881167 	 69.8377
| 13> C 	 37.9629 	 1.07082 	 71.4441
| 14> H 	 37.3226 	 1.8554 	 71.6581
| 15> H 	 38.7211 	 1.43677 	 70.7538
| 16> C 	 38.5356 	 0.661874 	 72.8635
| 17> H 	 37.7814 	 0.183834 	 73.4071
| 18> H 	 39.2988 	 -0.170699 	 72.8061
| 19> C 	 39.348 	 1.76964 	 73.4788
| 20> H 	 38.8202 	 2.6916 	 73.6731
| 21> H 	 39.7642 	 1.46438 	 74.4386
| 22> H 	 40.1829 	 2.13822 	 72.869
| 23> S 	 36.7318 	 -4.68455 	 69.0052
| 24> C 	 37.3156 	 -5.33847 	 67.5141
| 25> C 	 38.2795 	 -4.52821 	 66.9387
| 26> C 	 38.4179 	 -3.23849 	 67.593
| 27> C 	 37.4893 	 -3.14571 	 68.5982
| 28> H 	 38.6826 	 -4.91969 	 65.997
| 29> C 	 39.2827 	 -2.11786 	 67.0097
| 30> H 	 39.67 	 -1.57756 	 67.8474
| 31> H 	 38.6258 	 -1.39247 	 66.5284
| 32> C 	 40.4893 	 -2.54716 	 66.223
| 33> H 	 40.1648 	 -3.19153 	 65.4013
| 34> H 	 41.1561 	 -3.16084 	 66.8
| 35> C 	 41.2148 	 -1.34343 	 65.6221
| 36> H 	 40.7255 	 -0.962753 	 64.6836
| 37> H 	 42.104 	 -1.79731 	 65.2126
| 38> H 	 41.3796 	 -0.532792 	 66.327
| 39> H 	 35.248 	 0.105348 	 71.7253
| 40> H 	 37.0294 	 -6.30367 	 67.1635
| 41> *
| 42>
| 43>                          ****END OF INPUT****

CARTESIAN COORDINATES (ANGSTROEM)
---------------------------------
  S     35.447400   -1.827370   70.103400
  C     35.819400   -0.389447   70.997300
  C     37.154700   -0.037796   70.772200
  C     37.844600   -0.955168   69.920700
  C     37.061400   -1.965890   69.398800
  H     38.944500   -0.881167   69.837700
  C     37.962900    1.070820   71.444100
  H     37.322600    1.855400   71.658100
  H     38.721100    1.436770   70.753800
  C     38.535600    0.661874   72.863500
  H     37.781400    0.183834   73.407100
  H     39.298800   -0.170699   72.806100
  C     39.348000    1.769640   73.478800
  H     38.820200    2.691600   73.673100
  H     39.764200    1.464380   74.438600
  H     40.182900    2.138220   72.869000
  S     36.731800   -4.684550   69.005200
  C     37.315600   -5.338470   67.514100
  C     38.279500   -4.528210   66.938700
  C     38.417900   -3.238490   67.593000
  C     37.489300   -3.145710   68.598200
  H     38.682600   -4.919690   65.997000
  C     39.282700   -2.117860   67.009700
  H     39.670000   -1.577560   67.847400
  H     38.625800   -1.392470   66.528400
  C     40.489300   -2.547160   66.223000
  H     40.164800   -3.191530   65.401300
  H     41.156100   -3.160840   66.800000
  C     41.214800   -1.343430   65.622100
  H     40.725500   -0.962753   64.683600
  H     42.104000   -1.797310   65.212600
  H     41.379600   -0.532792   66.327000
  H     35.248000    0.105348   71.725300
  H     37.029400   -6.303670   67.163500

 Total Charge           Charge          ....    0
 Multiplicity           Mult            ....    1
 Number of Electrons    NEL             ....  134
 Basis Dimension        Dim             ....  322

ORBITAL ENERGIES
----------------

  NO   OCC          E(Eh)            E(eV)
   0   2.0000     -88.967396     -2420.9259
   1   2.0000     -88.962667     -2420.7972
   2   2.0000     -10.332314      -281.1565
   3   2.0000     -10.327684      -281.0306
   4   2.0000     -10.312068      -280.6056
   5   2.0000     -10.311950      -280.6024
   6   2.0000     -10.305983      -280.4401
   7   2.0000     -10.299648      -280.2677
   8   2.0000     -10.296275      -280.1759
   9   2.0000     -10.292986      -280.0864
  10   2.0000     -10.289607      -279.9945
  11   2.0000     -10.288942      -279.9764
  12   2.0000     -10.288643      -279.9682
  13   2.0000     -10.285040      -279.8702
  14   2.0000     -10.281296      -279.7683
  15   2.0000     -10.277858      -279.6747
  16   2.0000      -8.081640      -219.9126
  17   2.0000      -8.077918      -219.8113
  18   2.0000      -6.040246      -164.3635
  19   2.0000      -6.036402      -164.2588
  20   2.0000      -6.036088      -164.2503
  21   2.0000      -6.032516      -164.1531
  22   2.0000      -6.032433      -164.1508
  23   2.0000      -6.028519      -164.0444
  24   2.0000      -1.004727       -27.3400
  25   2.0000      -0.983564       -26.7641
  26   2.0000      -0.915852       -24.9216
  27   2.0000      -0.908164       -24.7124
  28   2.0000      -0.866614       -23.5818
  29   2.0000      -0.854437       -23.2504
  30   2.0000      -0.844914       -22.9913
  31   2.0000      -0.813611       -22.1395
  32   2.0000      -0.783917       -21.3315
  33   2.0000      -0.772723       -21.0269
  34   2.0000      -0.708627       -19.2827
  35   2.0000      -0.704930       -19.1821
  36   2.0000      -0.699040       -19.0218
  37   2.0000      -0.653038       -17.7701
  38   2.0000      -0.636411       -17.3176
  39   2.0000      -0.624500       -16.9935
  40   2.0000      -0.600379       -16.3371
  41   2.0000      -0.570553       -15.5255
  42   2.0000      -0.567127       -15.4323
  43   2.0000      -0.556792       -15.1511
  44   2.0000      -0.535105       -14.5609
  45   2.0000      -0.525775       -14.3071
  46   2.0000      -0.514145       -13.9906
  47   2.0000      -0.509994       -13.8776
  48   2.0000      -0.504707       -13.7338
  49   2.0000      -0.501359       -13.6427
  50   2.0000      -0.492658       -13.4059
  51   2.0000      -0.480568       -13.0769
  52   2.0000      -0.476311       -12.9611
  53   2.0000      -0.465716       -12.6728
  54   2.0000      -0.462555       -12.5868
  55   2.0000      -0.450677       -12.2635
  56   2.0000      -0.447823       -12.1859
  57   2.0000      -0.437365       -11.9013
  58   2.0000      -0.436347       -11.8736
  59   2.0000      -0.425295       -11.5729
  60   2.0000      -0.417622       -11.3641
  61   2.0000      -0.414173       -11.2702
  62   2.0000      -0.410336       -11.1658
  63   2.0000      -0.352207        -9.5840
  64   2.0000      -0.329978        -8.9792
  65   2.0000      -0.326102        -8.8737
  66   2.0000      -0.286649        -7.8001
  67   0.0000       0.023209         0.6316
  68   0.0000       0.080318         2.1856
  69   0.0000       0.103909         2.8275
  70   0.0000       0.123655         3.3648
  71   0.0000       0.137363         3.7378

MULLIKEN ATOMIC CHARGES
-----------------------
   0 S :    0.109811
   1 C :   -0.090203
   2 C :   -0.119518
   3 C :   -0.004267
   4 C :   -0.125545
   5 H :    0.031104
   6 C :    0.082727
   7 H :    0.003749
   8 H :    0.025597
   9 C :   -0.059051
  10 H :    0.016083
  11 H :    0.025927
  12 C :   -0.031446
  13 H :    0.016999
  14 H :    0.032647
  15 H :    0.028568
  16 S :    0.105745
  17 C :   -0.089987
  18 C :   -0.061182
  19 C :   -0.026303
  20 C :   -0.149328
  21 H :    0.028799
  22 C :    0.101115
  23 H :   -0.000430
  24 H :    0.044818
  25 C :   -0.094846
  26 H :    0.025774
  27 H :    0.028905
  28 C :   -0.030627
  29 H :    0.036932
  30 H :    0.026166
  31 H :    0.038570
  32 H :    0.028684
  33 H :    0.044013
Sum of atomic charges:    0.0000000

LOEWDIN ATOMIC CHARGES
----------------------
   0 S :    0.411501
   1 C :   -0.202087
   2 C :   -0.061394
   3 C :   -0.070964
   4 C :   -0.189586
   5 H :    0.034080
   6 C :   -0.023840
   7 H :    0.019355
   8 H :    0.030177
   9 C :   -0.036381
  10 H :    0.016798
  11 H :    0.030234
  12 C :   -0.069374
  13 H :    0.018431
  14 H :    0.028242
  15 H :    0.029054
  16 S :    0.396858
  17 C :   -0.184019
  18 C :   -0.074701
  19 C :   -0.052492
  20 C :   -0.187100
  21 H :    0.034436
  22 C :   -0.031856
  23 H :    0.024672
  24 H :    0.038935
  25 C :   -0.039913
  26 H :    0.023129
  27 H :    0.023685
  28 C :   -0.062603
  29 H :    0.032466
  30 H :    0.027491
  31 H :    0.023815
  32 H :    0.021624
  33 H :    0.021327

  Mayer bond orders larger than 0.100000
B(  0-S ,  1-C ) :   1.1396 B(  0-S ,  4-C ) :   1.1526 B(  1-C ,  2-C ) :   1.5865
B(  1-C , 32-H ) :   0.9751 B(  2-C ,  3-C ) :   1.2828 B(  2-C ,  6-C ) :   1.0381
B(  3-C ,  4-C ) :   1.5443 B(  3-C ,  5-H ) :   0.9798 B(  4-C , 20-C ) :   1.0541
B(  6-C ,  7-H ) :   0.9354 B(  6-C ,  8-H ) :   0.9443 B(  6-C ,  9-C ) :   1.0507
B(  9-C , 10-H ) :   0.9580 B(  9-C , 11-H ) :   0.9561 B(  9-C , 12-C ) :   1.0760
B( 12-C , 13-H ) :   0.9738 B( 12-C , 14-H ) :   0.9723 B( 12-C , 15-H ) :   0.9718
B( 16-S , 17-C ) :   1.1421 B( 16-S , 20-C ) :   1.1383 B( 17-C , 18-C ) :   1.6417
B( 17-C , 33-H ) :   0.9703 B( 18-C , 19-C ) :   1.1929 B( 18-C , 21-H ) :   0.9881
B( 19-C , 20-C ) :   1.6287 B( 19-C , 22-C ) :   1.0319 B( 22-C , 23-H ) :   0.9195
B( 22-C , 24-H ) :   0.9307 B( 22-C , 25-C ) :   1.0787 B( 25-C , 26-H ) :   0.9443
B( 25-C , 27-H ) :   0.9586 B( 25-C , 28-C ) :   1.0874 B( 28-C , 29-H ) :   0.9738
B( 28-C , 30-H ) :   0.9704 B( 28-C , 31-H ) :   0.9748

Dispersion correction           -0.013295706
FINAL SINGLE POINT ENERGY     -1339.871611482002

DIPOLE MOMENT
-------------
                                X             Y             Z
Electronic contribution:    -23.15411     -18.67934      -0.19379
Nuclear contribution   :     23.76004      18.99280       0.12787
                        -----------------------------------------
Total Dipole Moment    :      0.60593       0.31346      -0.06593
                        -----------------------------------------
Magnitude (a.u.)       :      0.68539
Magnitude (Debye)      :      1.74211

Rotational constants in cm-1:     0.016778     0.008247     0.006054
Rotational constants in MHz :   502.977723   247.241581   181.488925

                             ****ORCA TERMINATED NORMALLY****
TOTAL RUN TIME: 0 days 0 hours 0 minutes 28 seconds 667 msec
