                         Program Version 4.2.1 -  RELEASE  -
|  1> ! wB97X-D3 SP def2-SVP
|  2> %pal
|  3> nprocs 16
|  4> end
|  5>
|  6> * xyz 0 1
|  7> S 	 -112.979 	 54.6933 	 113.992
|  8> C 	 -112.662 	 55.885 	 112.696
|  9> C 	 -112.086 	 55.2722 	 111.567
| 10> C 	 -111.811 	 53.9372 	 111.77
| 11> C 	 -112.365 	 53.3913 	 112.936
| 12> H 	 -111.185 	 53.3233 	 111.156
| 13> C 	 -111.528 	 55.9698 	 110.347
| 14> H 	 -112.34 	 56.2272 	 109.787
| 15> H 	 -111.097 	 55.1834 	 109.675
| 16> C 	 -110.511 	 57.0811 	 110.588
| 17> H 	 -109.923 	 57.3656 	 109.706
| 18> H 	 -110.962 	 57.9709 	 110.888
| 19> C 	 -109.487 	 56.6844 	 111.731
| 20> H 	 -109.096 	 57.5331 	 112.23
| 21> H 	 -110.025 	 56.0863 	 112.493
| 22> H 	 -108.657 	 56.197 	 111.27
| 23> S 	 -111.511 	 52.0119 	 115.076
| 24> C 	 -111.11 	 50.2982 	 115.003
| 25> C 	 -111.428 	 49.824 	 113.725
| 26> C 	 -111.875 	 50.8302 	 112.772
| 27> C 	 -112.042 	 52.0519 	 113.442
| 28> H 	 -111.249 	 48.7759 	 113.428
| 29> C 	 -112.22 	 50.429 	 111.353
| 30> H 	 -111.342 	 49.9958 	 110.906
| 31> H 	 -112.388 	 51.4127 	 110.848
| 32> C 	 -113.352 	 49.4646 	 111.1
| 33> H 	 -113.021 	 48.5145 	 111.544
| 34> H 	 -113.547 	 49.3895 	 110.017
| 35> C 	 -114.55 	 49.9824 	 111.915
| 36> H 	 -114.275 	 50.1568 	 112.995
| 37> H 	 -115.407 	 49.2946 	 111.833
| 38> H 	 -114.942 	 50.9377 	 111.469
| 39> H 	 -113.118 	 56.8426 	 112.62
| 40> H 	 -110.791 	 49.7353 	 115.927
| 41> *
| 42>
| 43>                          ****END OF INPUT****

CARTESIAN COORDINATES (ANGSTROEM)
---------------------------------
  S    -112.979000   54.693300  113.992000
  C    -112.662000   55.885000  112.696000
  C    -112.086000   55.272200  111.567000
  C    -111.811000   53.937200  111.770000
  C    -112.365000   53.391300  112.936000
  H    -111.185000   53.323300  111.156000
  C    -111.528000   55.969800  110.347000
  H    -112.340000   56.227200  109.787000
  H    -111.097000   55.183400  109.675000
  C    -110.511000   57.081100  110.588000
  H    -109.923000   57.365600  109.706000
  H    -110.962000   57.970900  110.888000
  C    -109.487000   56.684400  111.731000
  H    -109.096000   57.533100  112.230000
  H    -110.025000   56.086300  112.493000
  H    -108.657000   56.197000  111.270000
  S    -111.511000   52.011900  115.076000
  C    -111.110000   50.298200  115.003000
  C    -111.428000   49.824000  113.725000
  C    -111.875000   50.830200  112.772000
  C    -112.042000   52.051900  113.442000
  H    -111.249000   48.775900  113.428000
  C    -112.220000   50.429000  111.353000
  H    -111.342000   49.995800  110.906000
  H    -112.388000   51.412700  110.848000
  C    -113.352000   49.464600  111.100000
  H    -113.021000   48.514500  111.544000
  H    -113.547000   49.389500  110.017000
  C    -114.550000   49.982400  111.915000
  H    -114.275000   50.156800  112.995000
  H    -115.407000   49.294600  111.833000
  H    -114.942000   50.937700  111.469000
  H    -113.118000   56.842600  112.620000
  H    -110.791000   49.735300  115.927000

 Total Charge           Charge          ....    0
 Multiplicity           Mult            ....    1
 Number of Electrons    NEL             ....  134
 Basis Dimension        Dim             ....  322

ORBITAL ENERGIES
----------------

  NO   OCC          E(Eh)            E(eV)
   0   2.0000     -88.974742     -2421.1258
   1   2.0000     -88.965732     -2420.8806
   2   2.0000     -10.335439      -281.2416
   3   2.0000     -10.329938      -281.0919
   4   2.0000     -10.325722      -280.9772
   5   2.0000     -10.317697      -280.7588
   6   2.0000     -10.307425      -280.4793
   7   2.0000     -10.301674      -280.3228
   8   2.0000     -10.300324      -280.2861
   9   2.0000     -10.290878      -280.0290
  10   2.0000     -10.290067      -280.0070
  11   2.0000     -10.288790      -279.9722
  12   2.0000     -10.287643      -279.9410
  13   2.0000     -10.283228      -279.8209
  14   2.0000     -10.277414      -279.6626
  15   2.0000     -10.266124      -279.3554
  16   2.0000      -8.087730      -220.0783
  17   2.0000      -8.080977      -219.8946
  18   2.0000      -6.046351      -164.5296
  19   2.0000      -6.042455      -164.4236
  20   2.0000      -6.039531      -164.3440
  21   2.0000      -6.038507      -164.3161
  22   2.0000      -6.035320      -164.2294
  23   2.0000      -6.031741      -164.1320
  24   2.0000      -1.006457       -27.3871
  25   2.0000      -0.981693       -26.7132
  26   2.0000      -0.915581       -24.9142
  27   2.0000      -0.910195       -24.7677
  28   2.0000      -0.863140       -23.4872
  29   2.0000      -0.851334       -23.1660
  30   2.0000      -0.840399       -22.8684
  31   2.0000      -0.807401       -21.9705
  32   2.0000      -0.782560       -21.2945
  33   2.0000      -0.773065       -21.0362
  34   2.0000      -0.709139       -19.2967
  35   2.0000      -0.703372       -19.1397
  36   2.0000      -0.689707       -18.7679
  37   2.0000      -0.660040       -17.9606
  38   2.0000      -0.637370       -17.3437
  39   2.0000      -0.615925       -16.7602
  40   2.0000      -0.593662       -16.1544
  41   2.0000      -0.569108       -15.4862
  42   2.0000      -0.559719       -15.2307
  43   2.0000      -0.552238       -15.0272
  44   2.0000      -0.550365       -14.9762
  45   2.0000      -0.540350       -14.7037
  46   2.0000      -0.514744       -14.0069
  47   2.0000      -0.505801       -13.7635
  48   2.0000      -0.500866       -13.6292
  49   2.0000      -0.494493       -13.4558
  50   2.0000      -0.486525       -13.2390
  51   2.0000      -0.472329       -12.8527
  52   2.0000      -0.462444       -12.5837
  53   2.0000      -0.458887       -12.4870
  54   2.0000      -0.454156       -12.3582
  55   2.0000      -0.446592       -12.1524
  56   2.0000      -0.445439       -12.1210
  57   2.0000      -0.443582       -12.0705
  58   2.0000      -0.428161       -11.6508
  59   2.0000      -0.423059       -11.5120
  60   2.0000      -0.418868       -11.3980
  61   2.0000      -0.414437       -11.2774
  62   2.0000      -0.411809       -11.2059
  63   2.0000      -0.354008        -9.6330
  64   2.0000      -0.338143        -9.2014
  65   2.0000      -0.328771        -8.9463
  66   2.0000      -0.284070        -7.7299
  67   0.0000       0.016162         0.4398
  68   0.0000       0.070261         1.9119
  69   0.0000       0.098067         2.6685
  70   0.0000       0.114448         3.1143
  71   0.0000       0.137522         3.7422

MULLIKEN ATOMIC CHARGES
-----------------------
   0 S :    0.104082
   1 C :   -0.117522
   2 C :   -0.128992
   3 C :    0.005240
   4 C :   -0.122794
   5 H :    0.020884
   6 C :    0.125128
   7 H :    0.009637
   8 H :    0.016828
   9 C :   -0.054348
  10 H :    0.030739
  11 H :    0.011721
  12 C :   -0.059102
  13 H :    0.019090
  14 H :    0.062834
  15 H :    0.027642
  16 S :    0.097722
  17 C :   -0.122792
  18 C :   -0.037215
  19 C :   -0.100870
  20 C :   -0.135765
  21 H :    0.030654
  22 C :    0.067883
  23 H :    0.024870
  24 H :    0.018166
  25 C :   -0.043997
  26 H :    0.026135
  27 H :    0.045695
  28 C :   -0.093090
  29 H :    0.069083
  30 H :    0.031461
  31 H :    0.034483
  32 H :    0.049140
  33 H :    0.087373
Sum of atomic charges:   -0.0000000

LOEWDIN ATOMIC CHARGES
----------------------
   0 S :    0.387337
   1 C :   -0.190123
   2 C :   -0.059540
   3 C :   -0.060025
   4 C :   -0.178245
   5 H :    0.029228
   6 C :   -0.028025
   7 H :    0.021254
   8 H :    0.036178
   9 C :   -0.033150
  10 H :    0.028341
  11 H :    0.011913
  12 C :   -0.061877
  13 H :    0.018944
  14 H :    0.033567
  15 H :    0.019699
  16 S :    0.413910
  17 C :   -0.198884
  18 C :   -0.071254
  19 C :   -0.064831
  20 C :   -0.203365
  21 H :    0.032538
  22 C :   -0.039562
  23 H :    0.028716
  24 H :    0.030526
  25 C :   -0.039016
  26 H :    0.022872
  27 H :    0.032557
  28 C :   -0.074325
  29 H :    0.037332
  30 H :    0.021153
  31 H :    0.028949
  32 H :    0.023404
  33 H :    0.043804

  Mayer bond orders larger than 0.100000
B(  0-S ,  1-C ) :   1.1363 B(  0-S ,  4-C ) :   1.1578 B(  1-C ,  2-C ) :   1.5693
B(  1-C ,  4-C ) :   0.1144 B(  1-C , 32-H ) :   0.9673 B(  2-C ,  3-C ) :   1.2944
B(  2-C ,  6-C ) :   1.0154 B(  3-C ,  4-C ) :   1.5290 B(  3-C ,  5-H ) :   0.9829
B(  4-C , 20-C ) :   1.0447 B(  6-C ,  7-H ) :   0.9232 B(  6-C ,  8-H ) :   0.9420
B(  6-C ,  9-C ) :   1.0632 B(  9-C , 10-H ) :   0.9608 B(  9-C , 11-H ) :   0.9582
B(  9-C , 12-C ) :   1.0713 B( 12-C , 13-H ) :   0.9770 B( 12-C , 14-H ) :   0.9727
B( 12-C , 15-H ) :   0.9809 B( 16-S , 17-C ) :   1.1446 B( 16-S , 20-C ) :   1.1657
B( 17-C , 18-C ) :   1.5929 B( 17-C , 33-H ) :   0.9646 B( 18-C , 19-C ) :   1.2409
B( 18-C , 21-H ) :   0.9834 B( 19-C , 20-C ) :   1.5700 B( 19-C , 22-C ) :   1.0435
B( 22-C , 23-H ) :   0.9267 B( 22-C , 24-H ) :   0.9294 B( 22-C , 25-C ) :   1.0789
B( 25-C , 26-H ) :   0.9485 B( 25-C , 27-H ) :   0.9527 B( 25-C , 28-C ) :   1.0782
B( 28-C , 29-H ) :   0.9667 B( 28-C , 30-H ) :   0.9753 B( 28-C , 31-H ) :   0.9753

Dispersion correction           -0.015200106
FINAL SINGLE POINT ENERGY     -1339.865340687574

DIPOLE MOMENT
-------------
                                X             Y             Z
Electronic contribution:     -2.40120      -0.11785      19.14098
Nuclear contribution   :      2.57812       0.00572     -19.71743
                        -----------------------------------------
Total Dipole Moment    :      0.17692      -0.11213      -0.57645
                        -----------------------------------------
Magnitude (a.u.)       :      0.61333
Magnitude (Debye)      :      1.55895

Rotational constants in cm-1:     0.021230     0.008483     0.007443
Rotational constants in MHz :   636.455923   254.323565   223.146812

                             ****ORCA TERMINATED NORMALLY****
TOTAL RUN TIME: 0 days 0 hours 0 minutes 35 seconds 14 msec
