                         Program Version 4.2.1 -  RELEASE  -
|  1> ! wB97X-D3 SP def2-SVP
|  2> %pal
|  3> nprocs 16
|  4> end
|  5>
|  6> * xyz 0 1
|  7> S 	 45.6991 	 24.3009 	 83.1824
|  8> C 	 45.9339 	 25.1718 	 81.6775
|  9> C 	 46.4816 	 24.4534 	 80.6058
| 10> C 	 46.5862 	 23.0905 	 80.9951
| 11> C 	 46.1655 	 22.835 	 82.3129
| 12> H 	 46.9414 	 22.3242 	 80.4375
| 13> C 	 46.8076 	 24.9091 	 79.2299
| 14> H 	 47.4465 	 24.126 	 78.8283
| 15> H 	 47.3112 	 25.923 	 79.3315
| 16> C 	 45.6256 	 25.0933 	 78.3448
| 17> H 	 45.2743 	 24.1252 	 78.2083
| 18> H 	 44.8723 	 25.7404 	 78.8677
| 19> C 	 45.995 	 25.6398 	 76.9729
| 20> H 	 45.1393 	 26.1072 	 76.4975
| 21> H 	 46.642 	 26.4762 	 77.1915
| 22> H 	 46.3887 	 24.9754 	 76.2233
| 23> S 	 46.7221 	 21.1489 	 84.5713
| 24> C 	 46.1048 	 19.4899 	 84.5414
| 25> C 	 45.6852 	 19.1162 	 83.2974
| 26> C 	 45.6953 	 20.267 	 82.3743
| 27> C 	 46.0466 	 21.4969 	 82.9461
| 28> H 	 45.4006 	 18.1276 	 83.1231
| 29> C 	 45.2759 	 20.0636 	 80.9344
| 30> H 	 44.9027 	 20.95 	 80.4544
| 31> H 	 44.3624 	 19.4798 	 80.7699
| 32> C 	 46.3437 	 19.4134 	 80.0477
| 33> H 	 46.6485 	 18.3793 	 80.4693
| 34> H 	 47.2362 	 20.0168 	 80.1058
| 35> C 	 46.0581 	 19.1412 	 78.5799
| 36> H 	 46.8368 	 18.6278 	 78.0047
| 37> H 	 45.8911 	 20.0593 	 77.8669
| 38> H 	 45.119 	 18.6463 	 78.4115
| 39> H 	 45.8905 	 26.2298 	 81.5638
| 40> H 	 46.1493 	 18.7533 	 85.3749
| 41> *
| 42>
| 43>                          ****END OF INPUT****

CARTESIAN COORDINATES (ANGSTROEM)
---------------------------------
  S     45.699100   24.300900   83.182400
  C     45.933900   25.171800   81.677500
  C     46.481600   24.453400   80.605800
  C     46.586200   23.090500   80.995100
  C     46.165500   22.835000   82.312900
  H     46.941400   22.324200   80.437500
  C     46.807600   24.909100   79.229900
  H     47.446500   24.126000   78.828300
  H     47.311200   25.923000   79.331500
  C     45.625600   25.093300   78.344800
  H     45.274300   24.125200   78.208300
  H     44.872300   25.740400   78.867700
  C     45.995000   25.639800   76.972900
  H     45.139300   26.107200   76.497500
  H     46.642000   26.476200   77.191500
  H     46.388700   24.975400   76.223300
  S     46.722100   21.148900   84.571300
  C     46.104800   19.489900   84.541400
  C     45.685200   19.116200   83.297400
  C     45.695300   20.267000   82.374300
  C     46.046600   21.496900   82.946100
  H     45.400600   18.127600   83.123100
  C     45.275900   20.063600   80.934400
  H     44.902700   20.950000   80.454400
  H     44.362400   19.479800   80.769900
  C     46.343700   19.413400   80.047700
  H     46.648500   18.379300   80.469300
  H     47.236200   20.016800   80.105800
  C     46.058100   19.141200   78.579900
  H     46.836800   18.627800   78.004700
  H     45.891100   20.059300   77.866900
  H     45.119000   18.646300   78.411500
  H     45.890500   26.229800   81.563800
  H     46.149300   18.753300   85.374900

 Total Charge           Charge          ....    0
 Multiplicity           Mult            ....    1
 Number of Electrons    NEL             ....  134
 Basis Dimension        Dim             ....  322

ORBITAL ENERGIES
----------------

  NO   OCC          E(Eh)            E(eV)
   0   2.0000     -88.975233     -2421.1392
   1   2.0000     -88.964055     -2420.8350
   2   2.0000     -10.335178      -281.2345
   3   2.0000     -10.335093      -281.2322
   4   2.0000     -10.321786      -280.8701
   5   2.0000     -10.314043      -280.6594
   6   2.0000     -10.311533      -280.5911
   7   2.0000     -10.301155      -280.3087
   8   2.0000     -10.294563      -280.1293
   9   2.0000     -10.294522      -280.1282
  10   2.0000     -10.294306      -280.1223
  11   2.0000     -10.290874      -280.0289
  12   2.0000     -10.289508      -279.9918
  13   2.0000     -10.287068      -279.9253
  14   2.0000     -10.282713      -279.8068
  15   2.0000     -10.275654      -279.6148
  16   2.0000      -8.089082      -220.1151
  17   2.0000      -8.077932      -219.8117
  18   2.0000      -6.047513      -164.5612
  19   2.0000      -6.043884      -164.4624
  20   2.0000      -6.039822      -164.3519
  21   2.0000      -6.036696      -164.2668
  22   2.0000      -6.032725      -164.1588
  23   2.0000      -6.028302      -164.0384
  24   2.0000      -0.999951       -27.2101
  25   2.0000      -0.979240       -26.6465
  26   2.0000      -0.925313       -25.1790
  27   2.0000      -0.906786       -24.6749
  28   2.0000      -0.868084       -23.6218
  29   2.0000      -0.857345       -23.3295
  30   2.0000      -0.843546       -22.9540
  31   2.0000      -0.816132       -22.2081
  32   2.0000      -0.786519       -21.4023
  33   2.0000      -0.772524       -21.0214
  34   2.0000      -0.704468       -19.1696
  35   2.0000      -0.703738       -19.1497
  36   2.0000      -0.694072       -18.8867
  37   2.0000      -0.661618       -18.0035
  38   2.0000      -0.642719       -17.4893
  39   2.0000      -0.624585       -16.9958
  40   2.0000      -0.598444       -16.2845
  41   2.0000      -0.585215       -15.9245
  42   2.0000      -0.571335       -15.5468
  43   2.0000      -0.555102       -15.1051
  44   2.0000      -0.529423       -14.4063
  45   2.0000      -0.524727       -14.2785
  46   2.0000      -0.517829       -14.0908
  47   2.0000      -0.510889       -13.9020
  48   2.0000      -0.508556       -13.8385
  49   2.0000      -0.496303       -13.5051
  50   2.0000      -0.486719       -13.2443
  51   2.0000      -0.480230       -13.0677
  52   2.0000      -0.470915       -12.8142
  53   2.0000      -0.468223       -12.7410
  54   2.0000      -0.457158       -12.4399
  55   2.0000      -0.455177       -12.3860
  56   2.0000      -0.442152       -12.0316
  57   2.0000      -0.439015       -11.9462
  58   2.0000      -0.431602       -11.7445
  59   2.0000      -0.429921       -11.6987
  60   2.0000      -0.423801       -11.5322
  61   2.0000      -0.420970       -11.4552
  62   2.0000      -0.403999       -10.9934
  63   2.0000      -0.348266        -9.4768
  64   2.0000      -0.336552        -9.1581
  65   2.0000      -0.326705        -8.8901
  66   2.0000      -0.289117        -7.8673
  67   0.0000       0.022061         0.6003
  68   0.0000       0.070094         1.9074
  69   0.0000       0.101468         2.7611
  70   0.0000       0.114869         3.1257
  71   0.0000       0.125593         3.4176

MULLIKEN ATOMIC CHARGES
-----------------------
   0 S :    0.135343
   1 C :   -0.101057
   2 C :   -0.088198
   3 C :    0.067902
   4 C :   -0.158204
   5 H :   -0.054360
   6 C :    0.052703
   7 H :    0.026083
   8 H :    0.033134
   9 C :   -0.051296
  10 H :    0.005906
  11 H :    0.037423
  12 C :   -0.014881
  13 H :    0.025413
  14 H :    0.014235
  15 H :    0.038939
  16 S :    0.082645
  17 C :   -0.098863
  18 C :    0.007454
  19 C :   -0.041903
  20 C :   -0.103665
  21 H :    0.002071
  22 C :    0.054190
  23 H :    0.015222
  24 H :    0.014690
  25 C :   -0.083955
  26 H :    0.036971
  27 H :    0.028655
  28 C :   -0.069466
  29 H :    0.042620
  30 H :    0.021765
  31 H :    0.024015
  32 H :    0.027878
  33 H :    0.070592
Sum of atomic charges:   -0.0000000

LOEWDIN ATOMIC CHARGES
----------------------
   0 S :    0.412783
   1 C :   -0.193435
   2 C :   -0.057059
   3 C :   -0.041022
   4 C :   -0.186021
   5 H :    0.010741
   6 C :   -0.034450
   7 H :    0.033242
   8 H :    0.035924
   9 C :   -0.036518
  10 H :    0.015323
  11 H :    0.032178
  12 C :   -0.064226
  13 H :    0.028531
  14 H :    0.022643
  15 H :    0.025771
  16 S :    0.365945
  17 C :   -0.176300
  18 C :   -0.061078
  19 C :   -0.048005
  20 C :   -0.184808
  21 H :    0.024654
  22 C :   -0.043310
  23 H :    0.027095
  24 H :    0.030199
  25 C :   -0.046356
  26 H :    0.033748
  27 H :    0.017967
  28 C :   -0.080292
  29 H :    0.030576
  30 H :    0.028846
  31 H :    0.019630
  32 H :    0.017437
  33 H :    0.039647

  Mayer bond orders larger than 0.100000
B(  0-S ,  1-C ) :   1.1480 B(  0-S ,  4-C ) :   1.1502 B(  1-C ,  2-C ) :   1.6035
B(  1-C ,  4-C ) :   0.1009 B(  1-C , 32-H ) :   0.9602 B(  2-C ,  3-C ) :   1.2502
B(  2-C ,  6-C ) :   1.0341 B(  3-C ,  4-C ) :   1.5536 B(  3-C ,  5-H ) :   1.0084
B(  4-C , 20-C ) :   1.0457 B(  6-C ,  7-H ) :   0.9367 B(  6-C ,  8-H ) :   0.9236
B(  6-C ,  9-C ) :   1.0833 B(  9-C , 10-H ) :   0.9481 B(  9-C , 11-H ) :   0.9537
B(  9-C , 12-C ) :   1.0834 B( 12-C , 13-H ) :   0.9710 B( 12-C , 14-H ) :   0.9714
B( 12-C , 15-H ) :   0.9752 B( 16-S , 17-C ) :   1.1337 B( 16-S , 20-C ) :   1.1070
B( 17-C , 18-C ) :   1.6492 B( 17-C , 33-H ) :   0.9595 B( 18-C , 19-C ) :   1.1935
B( 18-C , 21-H ) :   1.0022 B( 19-C , 20-C ) :   1.6242 B( 19-C , 22-C ) :   1.0560
B( 22-C , 23-H ) :   0.9335 B( 22-C , 24-H ) :   0.9328 B( 22-C , 25-C ) :   1.0517
B( 25-C , 26-H ) :   0.9511 B( 25-C , 27-H ) :   0.9517 B( 25-C , 28-C ) :   1.0796
B( 28-C , 29-H ) :   0.9744 B( 28-C , 30-H ) :   0.9700 B( 28-C , 31-H ) :   0.9727

Dispersion correction           -0.014121020
FINAL SINGLE POINT ENERGY     -1339.858024911339

DIPOLE MOMENT
-------------
                                X             Y             Z
Electronic contribution:      1.12817       2.05097      33.74777
Nuclear contribution   :     -1.17536      -2.25612     -34.50966
                        -----------------------------------------
Total Dipole Moment    :     -0.04720      -0.20515      -0.76190
                        -----------------------------------------
Magnitude (a.u.)       :      0.79044
Magnitude (Debye)      :      2.00914

Rotational constants in cm-1:     0.017944     0.008984     0.006249
Rotational constants in MHz :   537.933746   269.346036   187.353604

                             ****ORCA TERMINATED NORMALLY****
TOTAL RUN TIME: 0 days 0 hours 0 minutes 30 seconds 484 msec
