                         Program Version 4.2.1 -  RELEASE  -
|  1> ! wB97X-D3 SP def2-SVP
|  2> %pal
|  3> nprocs 16
|  4> end
|  5>
|  6> * xyz 0 1
|  7> S 	 -2.25852 	 -11.4842 	 94.4375
|  8> C 	 -3.17998 	 -12.1878 	 95.8695
|  9> C 	 -4.31577 	 -12.8878 	 95.4179
| 10> C 	 -4.33216 	 -13.0458 	 93.9466
| 11> C 	 -3.32759 	 -12.3088 	 93.3501
| 12> H 	 -5.10766 	 -13.4689 	 93.2853
| 13> C 	 -5.35358 	 -13.599 	 96.2736
| 14> H 	 -4.91216 	 -13.4126 	 97.3052
| 15> H 	 -5.38473 	 -14.666 	 96.0582
| 16> C 	 -6.72885 	 -13.0847 	 95.9869
| 17> H 	 -7.0874 	 -13.429 	 95.0038
| 18> H 	 -7.51952 	 -13.5519 	 96.5992
| 19> C 	 -6.97968 	 -11.559 	 96.0626
| 20> H 	 -7.14131 	 -11.2802 	 97.0902
| 21> H 	 -6.14844 	 -10.9009 	 95.7232
| 22> H 	 -7.82115 	 -11.1966 	 95.4336
| 23> S 	 -4.09288 	 -11.1586 	 90.9237
| 24> C 	 -3.51718 	 -11.8234 	 89.5245
| 25> C 	 -2.6144 	 -12.9003 	 89.7505
| 26> C 	 -2.33323 	 -13.134 	 91.1609
| 27> C 	 -3.13974 	 -12.2717 	 91.8773
| 28> H 	 -2.24258 	 -13.4838 	 88.887
| 29> C 	 -1.47573 	 -14.2267 	 91.7209
| 30> H 	 -1.72216 	 -15.1287 	 91.1577
| 31> H 	 -1.69789 	 -14.4713 	 92.7788
| 32> C 	 -0.00514691 	 -13.9337 	 91.4813
| 33> H 	 0.085517 	 -13.0159 	 92.0251
| 34> H 	 -0.0318253 	 -13.7901 	 90.4118
| 35> C 	 0.89591 	 -15.1185 	 91.9076
| 36> H 	 0.848398 	 -15.215 	 93.0291
| 37> H 	 1.82893 	 -14.9325 	 91.5552
| 38> H 	 0.548424 	 -16.0072 	 91.4827
| 39> H 	 -2.97256 	 -11.9483 	 96.8915
| 40> H 	 -3.80547 	 -11.5832 	 88.5065
| 41> *
| 42>
| 43>                          ****END OF INPUT****

CARTESIAN COORDINATES (ANGSTROEM)
---------------------------------
  S     -2.258520  -11.484200   94.437500
  C     -3.179980  -12.187800   95.869500
  C     -4.315770  -12.887800   95.417900
  C     -4.332160  -13.045800   93.946600
  C     -3.327590  -12.308800   93.350100
  H     -5.107660  -13.468900   93.285300
  C     -5.353580  -13.599000   96.273600
  H     -4.912160  -13.412600   97.305200
  H     -5.384730  -14.666000   96.058200
  C     -6.728850  -13.084700   95.986900
  H     -7.087400  -13.429000   95.003800
  H     -7.519520  -13.551900   96.599200
  C     -6.979680  -11.559000   96.062600
  H     -7.141310  -11.280200   97.090200
  H     -6.148440  -10.900900   95.723200
  H     -7.821150  -11.196600   95.433600
  S     -4.092880  -11.158600   90.923700
  C     -3.517180  -11.823400   89.524500
  C     -2.614400  -12.900300   89.750500
  C     -2.333230  -13.134000   91.160900
  C     -3.139740  -12.271700   91.877300
  H     -2.242580  -13.483800   88.887000
  C     -1.475730  -14.226700   91.720900
  H     -1.722160  -15.128700   91.157700
  H     -1.697890  -14.471300   92.778800
  C     -0.005147  -13.933700   91.481300
  H      0.085517  -13.015900   92.025100
  H     -0.031825  -13.790100   90.411800
  C      0.895910  -15.118500   91.907600
  H      0.848398  -15.215000   93.029100
  H      1.828930  -14.932500   91.555200
  H      0.548424  -16.007200   91.482700
  H     -2.972560  -11.948300   96.891500
  H     -3.805470  -11.583200   88.506500

 Total Charge           Charge          ....    0
 Multiplicity           Mult            ....    1
 Number of Electrons    NEL             ....  134
 Basis Dimension        Dim             ....  322

ORBITAL ENERGIES
----------------

  NO   OCC          E(Eh)            E(eV)
   0   2.0000     -88.968554     -2420.9574
   1   2.0000     -88.967047     -2420.9164
   2   2.0000     -10.326936      -281.0102
   3   2.0000     -10.322501      -280.8895
   4   2.0000     -10.320323      -280.8303
   5   2.0000     -10.313387      -280.6415
   6   2.0000     -10.311286      -280.5844
   7   2.0000     -10.303282      -280.3666
   8   2.0000     -10.298992      -280.2498
   9   2.0000     -10.298421      -280.2343
  10   2.0000     -10.296471      -280.1812
  11   2.0000     -10.289489      -279.9912
  12   2.0000     -10.285469      -279.8818
  13   2.0000     -10.277553      -279.6664
  14   2.0000     -10.275555      -279.6121
  15   2.0000     -10.270156      -279.4652
  16   2.0000      -8.084949      -220.0026
  17   2.0000      -8.080507      -219.8818
  18   2.0000      -6.043134      -164.4420
  19   2.0000      -6.039201      -164.3350
  20   2.0000      -6.039194      -164.3348
  21   2.0000      -6.035978      -164.2473
  22   2.0000      -6.035237      -164.2271
  23   2.0000      -6.031122      -164.1152
  24   2.0000      -1.006621       -27.3915
  25   2.0000      -0.976232       -26.5646
  26   2.0000      -0.918300       -24.9882
  27   2.0000      -0.912623       -24.8337
  28   2.0000      -0.862485       -23.4694
  29   2.0000      -0.850167       -23.1342
  30   2.0000      -0.837054       -22.7774
  31   2.0000      -0.805360       -21.9149
  32   2.0000      -0.787601       -21.4317
  33   2.0000      -0.776019       -21.1166
  34   2.0000      -0.702587       -19.1184
  35   2.0000      -0.697442       -18.9784
  36   2.0000      -0.689077       -18.7507
  37   2.0000      -0.655925       -17.8486
  38   2.0000      -0.634635       -17.2693
  39   2.0000      -0.611939       -16.6517
  40   2.0000      -0.596066       -16.2198
  41   2.0000      -0.571153       -15.5419
  42   2.0000      -0.560986       -15.2652
  43   2.0000      -0.550277       -14.9738
  44   2.0000      -0.540191       -14.6994
  45   2.0000      -0.526450       -14.3254
  46   2.0000      -0.518683       -14.1141
  47   2.0000      -0.514095       -13.9892
  48   2.0000      -0.505624       -13.7587
  49   2.0000      -0.497199       -13.5295
  50   2.0000      -0.487938       -13.2775
  51   2.0000      -0.472174       -12.8485
  52   2.0000      -0.463444       -12.6109
  53   2.0000      -0.458766       -12.4837
  54   2.0000      -0.450261       -12.2522
  55   2.0000      -0.448581       -12.2065
  56   2.0000      -0.445348       -12.1185
  57   2.0000      -0.439463       -11.9584
  58   2.0000      -0.429309       -11.6821
  59   2.0000      -0.426684       -11.6107
  60   2.0000      -0.425018       -11.5653
  61   2.0000      -0.421354       -11.4656
  62   2.0000      -0.403664       -10.9842
  63   2.0000      -0.334449        -9.1008
  64   2.0000      -0.326589        -8.8869
  65   2.0000      -0.318113        -8.6563
  66   2.0000      -0.311037        -8.4637
  67   0.0000       0.048430         1.3178
  68   0.0000       0.059468         1.6182
  69   0.0000       0.105967         2.8835
  70   0.0000       0.113167         3.0794
  71   0.0000       0.123900         3.3715

MULLIKEN ATOMIC CHARGES
-----------------------
   0 S :    0.099918
   1 C :   -0.126304
   2 C :   -0.107476
   3 C :    0.030820
   4 C :   -0.176778
   5 H :    0.033938
   6 C :    0.106713
   7 H :    0.028436
   8 H :    0.042880
   9 C :   -0.093584
  10 H :    0.024023
  11 H :    0.030091
  12 C :   -0.072598
  13 H :    0.027135
  14 H :    0.044880
  15 H :    0.036869
  16 S :    0.151287
  17 C :   -0.089417
  18 C :   -0.073783
  19 C :    0.004389
  20 C :   -0.225514
  21 H :    0.027228
  22 C :    0.066975
  23 H :    0.014649
  24 H :    0.035708
  25 C :   -0.103252
  26 H :    0.027570
  27 H :    0.022321
  28 C :    0.050222
  29 H :    0.039132
  30 H :    0.016243
  31 H :    0.007760
  32 H :    0.045047
  33 H :    0.054473
Sum of atomic charges:   -0.0000000

LOEWDIN ATOMIC CHARGES
----------------------
   0 S :    0.372496
   1 C :   -0.180437
   2 C :   -0.048410
   3 C :   -0.070223
   4 C :   -0.194726
   5 H :    0.038760
   6 C :   -0.033865
   7 H :    0.036067
   8 H :    0.038550
   9 C :   -0.051920
  10 H :    0.025059
  11 H :    0.029128
  12 C :   -0.074536
  13 H :    0.020644
  14 H :    0.030561
  15 H :    0.031416
  16 S :    0.453407
  17 C :   -0.223656
  18 C :   -0.079340
  19 C :   -0.045671
  20 C :   -0.214557
  21 H :    0.031137
  22 C :   -0.032786
  23 H :    0.027105
  24 H :    0.030674
  25 C :   -0.032676
  26 H :    0.022306
  27 H :    0.021677
  28 C :   -0.046606
  29 H :    0.036483
  30 H :    0.013095
  31 H :    0.017611
  32 H :    0.022442
  33 H :    0.030792

  Mayer bond orders larger than 0.100000
B(  0-S ,  1-C ) :   1.1010 B(  0-S ,  4-C ) :   1.1477 B(  1-C ,  2-C ) :   1.6516
B(  1-C , 32-H ) :   0.9682 B(  2-C ,  3-C ) :   1.1668 B(  2-C ,  6-C ) :   1.0216
B(  3-C ,  4-C ) :   1.6437 B(  3-C ,  5-H ) :   0.9806 B(  4-C , 20-C ) :   0.9892
B(  6-C ,  7-H ) :   0.9439 B(  6-C ,  8-H ) :   0.9381 B(  6-C ,  9-C ) :   1.0624
B(  9-C , 10-H ) :   0.9552 B(  9-C , 11-H ) :   0.9543 B(  9-C , 12-C ) :   1.0665
B( 12-C , 13-H ) :   0.9783 B( 12-C , 14-H ) :   0.9744 B( 12-C , 15-H ) :   0.9758
B( 16-S , 17-C ) :   1.1814 B( 16-S , 20-C ) :   1.1639 B( 17-C , 18-C ) :   1.5957
B( 17-C , 33-H ) :   0.9657 B( 18-C , 19-C ) :   1.2364 B( 18-C , 21-H ) :   0.9806
B( 19-C , 20-C ) :   1.5942 B( 19-C , 22-C ) :   1.0442 B( 22-C , 23-H ) :   0.9305
B( 22-C , 24-H ) :   0.9319 B( 22-C , 25-C ) :   1.0390 B( 25-C , 26-H ) :   0.9576
B( 25-C , 27-H ) :   0.9616 B( 25-C , 28-C ) :   1.0786 B( 28-C , 29-H ) :   0.9724
B( 28-C , 30-H ) :   0.9727 B( 28-C , 31-H ) :   0.9693

Dispersion correction           -0.014822628
FINAL SINGLE POINT ENERGY     -1339.866649884807

DIPOLE MOMENT
-------------
                                X             Y             Z
Electronic contribution:      0.90445      13.28510      -7.57758
Nuclear contribution   :     -1.14474     -13.77769       7.54288
                        -----------------------------------------
Total Dipole Moment    :     -0.24029      -0.49259      -0.03469
                        -----------------------------------------
Magnitude (a.u.)       :      0.54917
Magnitude (Debye)      :      1.39589

Rotational constants in cm-1:     0.019349     0.008670     0.007012
Rotational constants in MHz :   580.062815   259.910175   210.220774

                             ****ORCA TERMINATED NORMALLY****
TOTAL RUN TIME: 0 days 0 hours 0 minutes 33 seconds 462 msec
