                         Program Version 4.2.1 -  RELEASE  -
|  1> ! wB97X-D3 SP def2-SVP
|  2> %pal
|  3> nprocs 16
|  4> end
|  5>
|  6> * xyz 0 1
|  7> S 	 39.2505 	 11.1908 	 82.697
|  8> C 	 40.4393 	 10.7524 	 81.4768
|  9> C 	 40.6537 	 11.8376 	 80.5923
| 10> C 	 40.008 	 13.0454 	 81.0882
| 11> C 	 39.1893 	 12.8975 	 82.1533
| 12> H 	 40.0925 	 14.0894 	 80.726
| 13> C 	 41.6135 	 11.8171 	 79.4913
| 14> H 	 41.437 	 12.5351 	 78.6678
| 15> H 	 41.5559 	 10.9054 	 78.9381
| 16> C 	 43.0524 	 12.113 	 79.9743
| 17> H 	 43.0029 	 13.0853 	 80.4469
| 18> H 	 43.4965 	 11.365 	 80.7527
| 19> C 	 44.0293 	 12.3045 	 78.7753
| 20> H 	 43.5907 	 12.9738 	 78.029
| 21> H 	 44.9337 	 12.785 	 79.0851
| 22> H 	 44.4241 	 11.3989 	 78.3539
| 23> S 	 36.7127 	 13.8123 	 83.0461
| 24> C 	 36.4577 	 15.496 	 83.2017
| 25> C 	 37.6728 	 16.0794 	 83.3808
| 26> C 	 38.7916 	 15.2798 	 83.1876
| 27> C 	 38.4558 	 13.9748 	 82.8177
| 28> H 	 37.6698 	 17.142 	 83.624
| 29> C 	 40.2164 	 15.8497 	 83.3918
| 30> H 	 41.0229 	 15.065 	 83.5704
| 31> H 	 40.2217 	 16.4706 	 84.2779
| 32> C 	 40.6217 	 16.7749 	 82.2667
| 33> H 	 39.8316 	 17.5233 	 82.1474
| 34> H 	 40.655 	 16.2259 	 81.3363
| 35> C 	 41.9366 	 17.4823 	 82.5398
| 36> H 	 42.2373 	 18.0458 	 81.69
| 37> H 	 42.7589 	 16.8541 	 82.8174
| 38> H 	 41.8891 	 18.0598 	 83.4108
| 39> H 	 40.7103 	 9.78791 	 81.109
| 40> H 	 35.4816 	 15.9624 	 83.2306
| 41> *
| 42>
| 43>                          ****END OF INPUT****

CARTESIAN COORDINATES (ANGSTROEM)
---------------------------------
  S     39.250500   11.190800   82.697000
  C     40.439300   10.752400   81.476800
  C     40.653700   11.837600   80.592300
  C     40.008000   13.045400   81.088200
  C     39.189300   12.897500   82.153300
  H     40.092500   14.089400   80.726000
  C     41.613500   11.817100   79.491300
  H     41.437000   12.535100   78.667800
  H     41.555900   10.905400   78.938100
  C     43.052400   12.113000   79.974300
  H     43.002900   13.085300   80.446900
  H     43.496500   11.365000   80.752700
  C     44.029300   12.304500   78.775300
  H     43.590700   12.973800   78.029000
  H     44.933700   12.785000   79.085100
  H     44.424100   11.398900   78.353900
  S     36.712700   13.812300   83.046100
  C     36.457700   15.496000   83.201700
  C     37.672800   16.079400   83.380800
  C     38.791600   15.279800   83.187600
  C     38.455800   13.974800   82.817700
  H     37.669800   17.142000   83.624000
  C     40.216400   15.849700   83.391800
  H     41.022900   15.065000   83.570400
  H     40.221700   16.470600   84.277900
  C     40.621700   16.774900   82.266700
  H     39.831600   17.523300   82.147400
  H     40.655000   16.225900   81.336300
  C     41.936600   17.482300   82.539800
  H     42.237300   18.045800   81.690000
  H     42.758900   16.854100   82.817400
  H     41.889100   18.059800   83.410800
  H     40.710300    9.787910   81.109000
  H     35.481600   15.962400   83.230600

 Total Charge           Charge          ....    0
 Multiplicity           Mult            ....    1
 Number of Electrons    NEL             ....  134
 Basis Dimension        Dim             ....  322

ORBITAL ENERGIES
----------------

  NO   OCC          E(Eh)            E(eV)
   0   2.0000     -88.965188     -2420.8658
   1   2.0000     -88.961412     -2420.7631
   2   2.0000     -10.331643      -281.1383
   3   2.0000     -10.330710      -281.1129
   4   2.0000     -10.316271      -280.7200
   5   2.0000     -10.316229      -280.7189
   6   2.0000     -10.306477      -280.4535
   7   2.0000     -10.305065      -280.4151
   8   2.0000     -10.296622      -280.1853
   9   2.0000     -10.295764      -280.1620
  10   2.0000     -10.295308      -280.1496
  11   2.0000     -10.289667      -279.9961
  12   2.0000     -10.289582      -279.9938
  13   2.0000     -10.284139      -279.8457
  14   2.0000     -10.276169      -279.6288
  15   2.0000     -10.268728      -279.4263
  16   2.0000      -8.078975      -219.8401
  17   2.0000      -8.077215      -219.7922
  18   2.0000      -6.037778      -164.2963
  19   2.0000      -6.035575      -164.2364
  20   2.0000      -6.033581      -164.1821
  21   2.0000      -6.031557      -164.1270
  22   2.0000      -6.029495      -164.0709
  23   2.0000      -6.028048      -164.0315
  24   2.0000      -1.010199       -27.4889
  25   2.0000      -0.984865       -26.7996
  26   2.0000      -0.915590       -24.9145
  27   2.0000      -0.913381       -24.8544
  28   2.0000      -0.871272       -23.7085
  29   2.0000      -0.853779       -23.2325
  30   2.0000      -0.843463       -22.9518
  31   2.0000      -0.818996       -22.2860
  32   2.0000      -0.784948       -21.3595
  33   2.0000      -0.772398       -21.0180
  34   2.0000      -0.708384       -19.2761
  35   2.0000      -0.700339       -19.0572
  36   2.0000      -0.698694       -19.0124
  37   2.0000      -0.661114       -17.9898
  38   2.0000      -0.645411       -17.5625
  39   2.0000      -0.615371       -16.7451
  40   2.0000      -0.604098       -16.4383
  41   2.0000      -0.575902       -15.6711
  42   2.0000      -0.567872       -15.4526
  43   2.0000      -0.557606       -15.1732
  44   2.0000      -0.532779       -14.4977
  45   2.0000      -0.522387       -14.2149
  46   2.0000      -0.518227       -14.1017
  47   2.0000      -0.515891       -14.0381
  48   2.0000      -0.507860       -13.8196
  49   2.0000      -0.501655       -13.6507
  50   2.0000      -0.499346       -13.5879
  51   2.0000      -0.483303       -13.1513
  52   2.0000      -0.468262       -12.7421
  53   2.0000      -0.463655       -12.6167
  54   2.0000      -0.458132       -12.4664
  55   2.0000      -0.447793       -12.1851
  56   2.0000      -0.442380       -12.0378
  57   2.0000      -0.438969       -11.9450
  58   2.0000      -0.434245       -11.8164
  59   2.0000      -0.424014       -11.5380
  60   2.0000      -0.420930       -11.4541
  61   2.0000      -0.418937       -11.3999
  62   2.0000      -0.413793       -11.2599
  63   2.0000      -0.349550        -9.5117
  64   2.0000      -0.330973        -9.0062
  65   2.0000      -0.325472        -8.8565
  66   2.0000      -0.293084        -7.9752
  67   0.0000       0.027634         0.7520
  68   0.0000       0.061231         1.6662
  69   0.0000       0.116523         3.1707
  70   0.0000       0.118848         3.2340
  71   0.0000       0.121513         3.3065

MULLIKEN ATOMIC CHARGES
-----------------------
   0 S :    0.100048
   1 C :   -0.080729
   2 C :   -0.097926
   3 C :    0.008910
   4 C :   -0.116132
   5 H :    0.013805
   6 C :    0.062150
   7 H :    0.019258
   8 H :    0.015299
   9 C :   -0.098025
  10 H :    0.024408
  11 H :    0.050307
  12 C :   -0.032117
  13 H :    0.028792
  14 H :    0.019865
  15 H :    0.029451
  16 S :    0.100203
  17 C :   -0.090516
  18 C :   -0.052996
  19 C :    0.002570
  20 C :   -0.172504
  21 H :    0.020989
  22 C :    0.043019
  23 H :    0.046821
  24 H :    0.018287
  25 C :   -0.081702
  26 H :    0.024363
  27 H :    0.020015
  28 C :    0.012728
  29 H :    0.031830
  30 H :    0.012467
  31 H :    0.007896
  32 H :    0.046120
  33 H :    0.063047
Sum of atomic charges:    0.0000000

LOEWDIN ATOMIC CHARGES
----------------------
   0 S :    0.380270
   1 C :   -0.193130
   2 C :   -0.056115
   3 C :   -0.065867
   4 C :   -0.180979
   5 H :    0.035540
   6 C :   -0.043528
   7 H :    0.034441
   8 H :    0.026536
   9 C :   -0.036913
  10 H :    0.022388
  11 H :    0.035343
  12 C :   -0.068809
  13 H :    0.025308
  14 H :    0.023484
  15 H :    0.022033
  16 S :    0.415795
  17 C :   -0.187394
  18 C :   -0.082931
  19 C :   -0.053970
  20 C :   -0.193499
  21 H :    0.032480
  22 C :   -0.029989
  23 H :    0.038470
  24 H :    0.028581
  25 C :   -0.039125
  26 H :    0.024191
  27 H :    0.017144
  28 C :   -0.059541
  29 H :    0.025590
  30 H :    0.023869
  31 H :    0.018738
  32 H :    0.027121
  33 H :    0.034465

  Mayer bond orders larger than 0.100000
B(  0-S ,  1-C ) :   1.1314 B(  0-S ,  4-C ) :   1.1151 B(  1-C ,  2-C ) :   1.6159
B(  1-C , 32-H ) :   0.9618 B(  2-C ,  3-C ) :   1.1998 B(  2-C ,  6-C ) :   1.0659
B(  3-C ,  4-C ) :   1.6336 B(  3-C ,  5-H ) :   0.9871 B(  4-C , 20-C ) :   1.0304
B(  6-C ,  7-H ) :   0.9375 B(  6-C ,  8-H ) :   0.9309 B(  6-C ,  9-C ) :   1.0505
B(  9-C , 10-H ) :   0.9568 B(  9-C , 11-H ) :   0.9559 B(  9-C , 12-C ) :   1.0793
B( 12-C , 13-H ) :   0.9722 B( 12-C , 14-H ) :   0.9729 B( 12-C , 15-H ) :   0.9760
B( 16-S , 17-C ) :   1.1797 B( 16-S , 20-C ) :   1.1463 B( 17-C , 18-C ) :   1.5671
B( 17-C , 20-C ) :   0.1070 B( 17-C , 33-H ) :   0.9728 B( 18-C , 19-C ) :   1.2681
B( 18-C , 21-H ) :   0.9912 B( 19-C , 20-C ) :   1.5600 B( 19-C , 22-C ) :   1.0281
B( 22-C , 23-H ) :   0.9429 B( 22-C , 24-H ) :   0.9379 B( 22-C , 25-C ) :   1.0646
B( 25-C , 26-H ) :   0.9524 B( 25-C , 27-H ) :   0.9505 B( 25-C , 28-C ) :   1.0881
B( 28-C , 29-H ) :   0.9719 B( 28-C , 30-H ) :   0.9681 B( 28-C , 31-H ) :   0.9685

Dispersion correction           -0.014017365
FINAL SINGLE POINT ENERGY     -1339.868315113933

DIPOLE MOMENT
-------------
                                X             Y             Z
Electronic contribution:    -27.58065     -13.36306      12.51634
Nuclear contribution   :     28.05229      13.98503     -12.85025
                        -----------------------------------------
Total Dipole Moment    :      0.47163       0.62197      -0.33391
                        -----------------------------------------
Magnitude (a.u.)       :      0.84899
Magnitude (Debye)      :      2.15796

Rotational constants in cm-1:     0.016966     0.009209     0.006448
Rotational constants in MHz :   508.630326   276.091501   193.308004

                             ****ORCA TERMINATED NORMALLY****
TOTAL RUN TIME: 0 days 0 hours 0 minutes 30 seconds 134 msec
