                         Program Version 4.2.1 -  RELEASE  -
|  1> ! wB97X-D3 SP def2-SVP
|  2> %pal
|  3> nprocs 16
|  4> end
|  5>
|  6> * xyz 0 1
|  7> S 	 -40.9726 	 35.4954 	 84.6653
|  8> C 	 -42.6871 	 35.7511 	 84.6225
|  9> C 	 -43.281 	 35.0487 	 85.642
| 10> C 	 -42.3435 	 34.3906 	 86.5331
| 11> C 	 -41.0526 	 34.6904 	 86.2105
| 12> H 	 -42.615 	 33.7563 	 87.3859
| 13> C 	 -44.7645 	 34.9162 	 85.7379
| 14> H 	 -45.0764 	 35.9564 	 85.6376
| 15> H 	 -45.0425 	 34.741 	 86.8164
| 16> C 	 -45.5085 	 34.0735 	 84.6687
| 17> H 	 -46.4453 	 34.519 	 84.7025
| 18> H 	 -45.2293 	 34.3451 	 83.6192
| 19> C 	 -45.4488 	 32.5099 	 84.6644
| 20> H 	 -45.5514 	 32.1878 	 83.6356
| 21> H 	 -44.4774 	 32.1545 	 85.0314
| 22> H 	 -46.1749 	 32.0508 	 85.366
| 23> S 	 -39.3706 	 35.2044 	 88.2194
| 24> C 	 -37.8821 	 34.2998 	 88.2756
| 25> C 	 -37.8517 	 33.2857 	 87.3936
| 26> C 	 -38.9951 	 33.192 	 86.521
| 27> C 	 -39.8493 	 34.2273 	 86.8614
| 28> H 	 -36.9995 	 32.5409 	 87.4009
| 29> C 	 -39.2143 	 32.1394 	 85.4197
| 30> H 	 -38.4302 	 31.3377 	 85.368
| 31> H 	 -39.5132 	 32.6737 	 84.5078
| 32> C 	 -40.3694 	 31.241 	 85.9234
| 33> H 	 -41.3041 	 31.7931 	 85.9025
| 34> H 	 -40.0518 	 31.0646 	 87.0012
| 35> C 	 -40.4624 	 29.8435 	 85.1446
| 36> H 	 -39.6178 	 29.2313 	 85.2031
| 37> H 	 -40.7125 	 30.0707 	 84.2014
| 38> H 	 -41.3407 	 29.2875 	 85.4691
| 39> H 	 -43.2191 	 36.4872 	 83.9568
| 40> H 	 -37.0727 	 34.5095 	 89.008
| 41> *
| 42>
| 43>                          ****END OF INPUT****

CARTESIAN COORDINATES (ANGSTROEM)
---------------------------------
  S    -40.972600   35.495400   84.665300
  C    -42.687100   35.751100   84.622500
  C    -43.281000   35.048700   85.642000
  C    -42.343500   34.390600   86.533100
  C    -41.052600   34.690400   86.210500
  H    -42.615000   33.756300   87.385900
  C    -44.764500   34.916200   85.737900
  H    -45.076400   35.956400   85.637600
  H    -45.042500   34.741000   86.816400
  C    -45.508500   34.073500   84.668700
  H    -46.445300   34.519000   84.702500
  H    -45.229300   34.345100   83.619200
  C    -45.448800   32.509900   84.664400
  H    -45.551400   32.187800   83.635600
  H    -44.477400   32.154500   85.031400
  H    -46.174900   32.050800   85.366000
  S    -39.370600   35.204400   88.219400
  C    -37.882100   34.299800   88.275600
  C    -37.851700   33.285700   87.393600
  C    -38.995100   33.192000   86.521000
  C    -39.849300   34.227300   86.861400
  H    -36.999500   32.540900   87.400900
  C    -39.214300   32.139400   85.419700
  H    -38.430200   31.337700   85.368000
  H    -39.513200   32.673700   84.507800
  C    -40.369400   31.241000   85.923400
  H    -41.304100   31.793100   85.902500
  H    -40.051800   31.064600   87.001200
  C    -40.462400   29.843500   85.144600
  H    -39.617800   29.231300   85.203100
  H    -40.712500   30.070700   84.201400
  H    -41.340700   29.287500   85.469100
  H    -43.219100   36.487200   83.956800
  H    -37.072700   34.509500   89.008000

 Total Charge           Charge          ....    0
 Multiplicity           Mult            ....    1
 Number of Electrons    NEL             ....  134
 Basis Dimension        Dim             ....  322

ORBITAL ENERGIES
----------------

  NO   OCC          E(Eh)            E(eV)
   0   2.0000     -88.964521     -2420.8477
   1   2.0000     -88.962084     -2420.7814
   2   2.0000     -10.322393      -280.8866
   3   2.0000     -10.319219      -280.8002
   4   2.0000     -10.313041      -280.6321
   5   2.0000     -10.312309      -280.6122
   6   2.0000     -10.305360      -280.4231
   7   2.0000     -10.298647      -280.2404
   8   2.0000     -10.296359      -280.1782
   9   2.0000     -10.294129      -280.1175
  10   2.0000     -10.293766      -280.1076
  11   2.0000     -10.293377      -280.0970
  12   2.0000     -10.289443      -279.9900
  13   2.0000     -10.288109      -279.9537
  14   2.0000     -10.283161      -279.8190
  15   2.0000     -10.266737      -279.3721
  16   2.0000      -8.079836      -219.8635
  17   2.0000      -8.077215      -219.7922
  18   2.0000      -6.038274      -164.3098
  19   2.0000      -6.035722      -164.2403
  20   2.0000      -6.034433      -164.2053
  21   2.0000      -6.031706      -164.1311
  22   2.0000      -6.030466      -164.0973
  23   2.0000      -6.027909      -164.0277
  24   2.0000      -1.010415       -27.4948
  25   2.0000      -0.986392       -26.8411
  26   2.0000      -0.907619       -24.6976
  27   2.0000      -0.905027       -24.6270
  28   2.0000      -0.868435       -23.6313
  29   2.0000      -0.846843       -23.0438
  30   2.0000      -0.843603       -22.9556
  31   2.0000      -0.815620       -22.1941
  32   2.0000      -0.787170       -21.4200
  33   2.0000      -0.771103       -20.9828
  34   2.0000      -0.707153       -19.2426
  35   2.0000      -0.700837       -19.0707
  36   2.0000      -0.684742       -18.6328
  37   2.0000      -0.656005       -17.8508
  38   2.0000      -0.637931       -17.3590
  39   2.0000      -0.610080       -16.6011
  40   2.0000      -0.592593       -16.1253
  41   2.0000      -0.575165       -15.6510
  42   2.0000      -0.565764       -15.3952
  43   2.0000      -0.544469       -14.8158
  44   2.0000      -0.533775       -14.5248
  45   2.0000      -0.521769       -14.1981
  46   2.0000      -0.519106       -14.1256
  47   2.0000      -0.508011       -13.8237
  48   2.0000      -0.503675       -13.7057
  49   2.0000      -0.494223       -13.4485
  50   2.0000      -0.485883       -13.2216
  51   2.0000      -0.483034       -13.1440
  52   2.0000      -0.471981       -12.8433
  53   2.0000      -0.464952       -12.6520
  54   2.0000      -0.460783       -12.5385
  55   2.0000      -0.448018       -12.1912
  56   2.0000      -0.442857       -12.0507
  57   2.0000      -0.436095       -11.8667
  58   2.0000      -0.432748       -11.7757
  59   2.0000      -0.423410       -11.5216
  60   2.0000      -0.419706       -11.4208
  61   2.0000      -0.413527       -11.2526
  62   2.0000      -0.407079       -11.0772
  63   2.0000      -0.335540        -9.1305
  64   2.0000      -0.332611        -9.0508
  65   2.0000      -0.320282        -8.7153
  66   2.0000      -0.303325        -8.2539
  67   0.0000       0.047521         1.2931
  68   0.0000       0.054812         1.4915
  69   0.0000       0.109614         2.9828
  70   0.0000       0.117962         3.2099
  71   0.0000       0.132564         3.6072

MULLIKEN ATOMIC CHARGES
-----------------------
   0 S :    0.114214
   1 C :   -0.147990
   2 C :   -0.097845
   3 C :    0.048511
   4 C :   -0.168866
   5 H :    0.024207
   6 C :    0.033504
   7 H :    0.020574
   8 H :    0.027878
   9 C :   -0.038220
  10 H :    0.010857
  11 H :    0.017725
  12 C :   -0.037169
  13 H :    0.039147
  14 H :    0.030385
  15 H :    0.039818
  16 S :    0.124299
  17 C :   -0.097282
  18 C :   -0.055628
  19 C :   -0.022945
  20 C :   -0.220099
  21 H :    0.033239
  22 C :    0.117821
  23 H :    0.026797
  24 H :    0.039385
  25 C :   -0.162054
  26 H :    0.043591
  27 H :    0.042086
  28 C :    0.025793
  29 H :    0.027304
  30 H :    0.000598
  31 H :    0.024904
  32 H :    0.071027
  33 H :    0.064436
Sum of atomic charges:   -0.0000000

LOEWDIN ATOMIC CHARGES
----------------------
   0 S :    0.411883
   1 C :   -0.213693
   2 C :   -0.071076
   3 C :   -0.066774
   4 C :   -0.202074
   5 H :    0.036680
   6 C :   -0.043749
   7 H :    0.036258
   8 H :    0.034227
   9 C :   -0.040920
  10 H :    0.016627
  11 H :    0.029764
  12 C :   -0.065269
  13 H :    0.028627
  14 H :    0.027192
  15 H :    0.028200
  16 S :    0.416003
  17 C :   -0.194294
  18 C :   -0.080381
  19 C :   -0.050155
  20 C :   -0.208279
  21 H :    0.039507
  22 C :   -0.031442
  23 H :    0.038487
  24 H :    0.031276
  25 C :   -0.036760
  26 H :    0.019778
  27 H :    0.028119
  28 C :   -0.054983
  29 H :    0.017573
  30 H :    0.009551
  31 H :    0.031166
  32 H :    0.042521
  33 H :    0.036409

  Mayer bond orders larger than 0.100000
B(  0-S ,  1-C ) :   1.1319 B(  0-S ,  4-C ) :   1.1576 B(  1-C ,  2-C ) :   1.6141
B(  1-C , 32-H ) :   0.9632 B(  2-C ,  3-C ) :   1.2294 B(  2-C ,  6-C ) :   1.0234
B(  3-C ,  4-C ) :   1.5820 B(  3-C ,  5-H ) :   0.9928 B(  4-C , 20-C ) :   1.0038
B(  6-C ,  7-H ) :   0.9313 B(  6-C ,  8-H ) :   0.9440 B(  6-C ,  9-C ) :   1.0674
B(  9-C , 10-H ) :   0.9550 B(  9-C , 11-H ) :   0.9582 B(  9-C , 12-C ) :   1.0558
B( 12-C , 13-H ) :   0.9787 B( 12-C , 14-H ) :   0.9785 B( 12-C , 15-H ) :   0.9770
B( 16-S , 17-C ) :   1.1331 B( 16-S , 20-C ) :   1.1626 B( 17-C , 18-C ) :   1.6529
B( 17-C , 33-H ) :   0.9614 B( 18-C , 19-C ) :   1.2229 B( 18-C , 21-H ) :   0.9758
B( 19-C , 20-C ) :   1.6032 B( 19-C , 22-C ) :   1.0502 B( 22-C , 23-H ) :   0.9412
B( 22-C , 24-H ) :   0.9221 B( 22-C , 25-C ) :   1.0417 B( 25-C , 26-H ) :   0.9563
B( 25-C , 27-H ) :   0.9606 B( 25-C , 28-C ) :   1.0791 B( 28-C , 29-H ) :   0.9762
B( 28-C , 30-H ) :   0.9688 B( 28-C , 31-H ) :   0.9721

Dispersion correction           -0.015143694
FINAL SINGLE POINT ENERGY     -1339.855960015152

DIPOLE MOMENT
-------------
                                X             Y             Z
Electronic contribution:     16.83016      20.63140       8.32962
Nuclear contribution   :    -17.17761     -21.01133      -8.40147
                        -----------------------------------------
Total Dipole Moment    :     -0.34745      -0.37992      -0.07185
                        -----------------------------------------
Magnitude (a.u.)       :      0.51983
Magnitude (Debye)      :      1.32131

Rotational constants in cm-1:     0.018793     0.009350     0.007320
Rotational constants in MHz :   563.399376   280.293784   219.437508

                             ****ORCA TERMINATED NORMALLY****
TOTAL RUN TIME: 0 days 0 hours 0 minutes 29 seconds 221 msec
