                         Program Version 4.2.1 -  RELEASE  -
|  1> ! wB97X-D3 SP def2-SVP
|  2> %pal
|  3> nprocs 16
|  4> end
|  5>
|  6> * xyz 0 1
|  7> S 	 31.1678 	 31.7187 	 54.1657
|  8> C 	 31.3866 	 30 	 54.1076
|  9> C 	 31.2683 	 29.4243 	 55.3673
| 10> C 	 30.8333 	 30.3673 	 56.3452
| 11> C 	 30.5059 	 31.6431 	 55.7969
| 12> H 	 30.7106 	 30.0878 	 57.3933
| 13> C 	 31.7327 	 28.0432 	 55.7622
| 14> H 	 31.8883 	 27.5015 	 54.7968
| 15> H 	 30.7963 	 27.6165 	 56.287
| 16> C 	 33.0078 	 27.9092 	 56.685
| 17> H 	 33.8313 	 28.4503 	 56.1367
| 18> H 	 32.7684 	 28.3072 	 57.724
| 19> C 	 33.4731 	 26.4115 	 56.7977
| 20> H 	 32.5841 	 25.8506 	 57.2082
| 21> H 	 33.881 	 25.831 	 55.9788
| 22> H 	 34.163 	 26.1995 	 57.5766
| 23> S 	 28.8788 	 33.7948 	 55.7162
| 24> C 	 28.4474 	 34.6792 	 57.1595
| 25> C 	 29.2492 	 34.1969 	 58.1917
| 26> C 	 30.0904 	 33.1019 	 57.8436
| 27> C 	 29.9317 	 32.7472 	 56.4924
| 28> H 	 29.2072 	 34.5835 	 59.1934
| 29> C 	 31.0934 	 32.5079 	 58.7924
| 30> H 	 31.7005 	 33.3655 	 59.1547
| 31> H 	 31.9406 	 31.9861 	 58.2603
| 32> C 	 30.4135 	 31.8025 	 60.002
| 33> H 	 29.7804 	 31.0757 	 59.5258
| 34> H 	 29.7282 	 32.4952 	 60.4842
| 35> C 	 31.3376 	 31.1749 	 61.004
| 36> H 	 30.8099 	 30.6144 	 61.7829
| 37> H 	 32.1558 	 31.8349 	 61.3069
| 38> H 	 31.8221 	 30.3383 	 60.5007
| 39> H 	 31.8306 	 29.4688 	 53.2962
| 40> H 	 27.9834 	 35.5988 	 57.1413
| 41> *
| 42>
| 43>                          ****END OF INPUT****

CARTESIAN COORDINATES (ANGSTROEM)
---------------------------------
  S     31.167800   31.718700   54.165700
  C     31.386600   30.000000   54.107600
  C     31.268300   29.424300   55.367300
  C     30.833300   30.367300   56.345200
  C     30.505900   31.643100   55.796900
  H     30.710600   30.087800   57.393300
  C     31.732700   28.043200   55.762200
  H     31.888300   27.501500   54.796800
  H     30.796300   27.616500   56.287000
  C     33.007800   27.909200   56.685000
  H     33.831300   28.450300   56.136700
  H     32.768400   28.307200   57.724000
  C     33.473100   26.411500   56.797700
  H     32.584100   25.850600   57.208200
  H     33.881000   25.831000   55.978800
  H     34.163000   26.199500   57.576600
  S     28.878800   33.794800   55.716200
  C     28.447400   34.679200   57.159500
  C     29.249200   34.196900   58.191700
  C     30.090400   33.101900   57.843600
  C     29.931700   32.747200   56.492400
  H     29.207200   34.583500   59.193400
  C     31.093400   32.507900   58.792400
  H     31.700500   33.365500   59.154700
  H     31.940600   31.986100   58.260300
  C     30.413500   31.802500   60.002000
  H     29.780400   31.075700   59.525800
  H     29.728200   32.495200   60.484200
  C     31.337600   31.174900   61.004000
  H     30.809900   30.614400   61.782900
  H     32.155800   31.834900   61.306900
  H     31.822100   30.338300   60.500700
  H     31.830600   29.468800   53.296200
  H     27.983400   35.598800   57.141300

 Total Charge           Charge          ....    0
 Multiplicity           Mult            ....    1
 Number of Electrons    NEL             ....  134
 Basis Dimension        Dim             ....  322

ORBITAL ENERGIES
----------------

  NO   OCC          E(Eh)            E(eV)
   0   2.0000     -88.969033     -2420.9705
   1   2.0000     -88.964587     -2420.8495
   2   2.0000     -10.333532      -281.1897
   3   2.0000     -10.321934      -280.8741
   4   2.0000     -10.313110      -280.6340
   5   2.0000     -10.311237      -280.5830
   6   2.0000     -10.310488      -280.5626
   7   2.0000     -10.304482      -280.3992
   8   2.0000     -10.300889      -280.3014
   9   2.0000     -10.299499      -280.2636
  10   2.0000     -10.297357      -280.2053
  11   2.0000     -10.296034      -280.1693
  12   2.0000     -10.295439      -280.1531
  13   2.0000     -10.286932      -279.9216
  14   2.0000     -10.283226      -279.8208
  15   2.0000     -10.280069      -279.7349
  16   2.0000      -8.083582      -219.9654
  17   2.0000      -8.080751      -219.8884
  18   2.0000      -6.042087      -164.4135
  19   2.0000      -6.039146      -164.3335
  20   2.0000      -6.038257      -164.3093
  21   2.0000      -6.034782      -164.2148
  22   2.0000      -6.034225      -164.1996
  23   2.0000      -6.031815      -164.1340
  24   2.0000      -1.013093       -27.5677
  25   2.0000      -0.986140       -26.8342
  26   2.0000      -0.912260       -24.8238
  27   2.0000      -0.904105       -24.6019
  28   2.0000      -0.872483       -23.7415
  29   2.0000      -0.856286       -23.3007
  30   2.0000      -0.846516       -23.0349
  31   2.0000      -0.813390       -22.1335
  32   2.0000      -0.780545       -21.2397
  33   2.0000      -0.770821       -20.9751
  34   2.0000      -0.711411       -19.3585
  35   2.0000      -0.704484       -19.1700
  36   2.0000      -0.699116       -19.0239
  37   2.0000      -0.665703       -18.1147
  38   2.0000      -0.633775       -17.2459
  39   2.0000      -0.621035       -16.8992
  40   2.0000      -0.599478       -16.3126
  41   2.0000      -0.567360       -15.4386
  42   2.0000      -0.562781       -15.3141
  43   2.0000      -0.559025       -15.2119
  44   2.0000      -0.533783       -14.5250
  45   2.0000      -0.521920       -14.2022
  46   2.0000      -0.521496       -14.1906
  47   2.0000      -0.510555       -13.8929
  48   2.0000      -0.509948       -13.8764
  49   2.0000      -0.499532       -13.5930
  50   2.0000      -0.491545       -13.3756
  51   2.0000      -0.482558       -13.1311
  52   2.0000      -0.476216       -12.9585
  53   2.0000      -0.462520       -12.5858
  54   2.0000      -0.456627       -12.4255
  55   2.0000      -0.450862       -12.2686
  56   2.0000      -0.446282       -12.1440
  57   2.0000      -0.436424       -11.8757
  58   2.0000      -0.433966       -11.8088
  59   2.0000      -0.428361       -11.6563
  60   2.0000      -0.422194       -11.4885
  61   2.0000      -0.416759       -11.3406
  62   2.0000      -0.410669       -11.1749
  63   2.0000      -0.353991        -9.6326
  64   2.0000      -0.329603        -8.9690
  65   2.0000      -0.326314        -8.8795
  66   2.0000      -0.283820        -7.7231
  67   0.0000       0.018310         0.4982
  68   0.0000       0.078075         2.1245
  69   0.0000       0.104948         2.8558
  70   0.0000       0.113626         3.0919
  71   0.0000       0.125442         3.4135

MULLIKEN ATOMIC CHARGES
-----------------------
   0 S :    0.117027
   1 C :   -0.101864
   2 C :   -0.087186
   3 C :    0.008869
   4 C :   -0.142899
   5 H :    0.009717
   6 C :    0.010216
   7 H :    0.028244
   8 H :    0.047075
   9 C :   -0.074063
  10 H :    0.051200
  11 H :    0.051538
  12 C :   -0.062797
  13 H :    0.023749
  14 H :    0.041720
  15 H :    0.021466
  16 S :    0.110679
  17 C :   -0.064879
  18 C :   -0.033743
  19 C :   -0.040681
  20 C :   -0.138577
  21 H :    0.015314
  22 C :    0.007453
  23 H :    0.025706
  24 H :    0.040510
  25 C :   -0.072760
  26 H :    0.021173
  27 H :    0.027098
  28 C :   -0.004937
  29 H :    0.038161
  30 H :    0.038287
  31 H :    0.008625
  32 H :    0.037633
  33 H :    0.042928
Sum of atomic charges:   -0.0000000

LOEWDIN ATOMIC CHARGES
----------------------
   0 S :    0.412602
   1 C :   -0.204151
   2 C :   -0.071210
   3 C :   -0.059818
   4 C :   -0.187635
   5 H :    0.028857
   6 C :   -0.043424
   7 H :    0.032601
   8 H :    0.039575
   9 C :   -0.038706
  10 H :    0.033174
  11 H :    0.034415
  12 C :   -0.080393
  13 H :    0.030845
  14 H :    0.026745
  15 H :    0.021710
  16 S :    0.447488
  17 C :   -0.185580
  18 C :   -0.059370
  19 C :   -0.060856
  20 C :   -0.227813
  21 H :    0.027595
  22 C :   -0.045051
  23 H :    0.032868
  24 H :    0.037507
  25 C :   -0.040734
  26 H :    0.020639
  27 H :    0.022575
  28 C :   -0.068882
  29 H :    0.032084
  30 H :    0.028959
  31 H :    0.024317
  32 H :    0.022741
  33 H :    0.016328

  Mayer bond orders larger than 0.100000
B(  0-S ,  1-C ) :   1.1398 B(  0-S ,  4-C ) :   1.1624 B(  1-C ,  2-C ) :   1.5851
B(  1-C ,  4-C ) :   0.1034 B(  1-C , 32-H ) :   0.9663 B(  2-C ,  3-C ) :   1.2753
B(  2-C ,  6-C ) :   1.0306 B(  3-C ,  4-C ) :   1.5089 B(  3-C ,  5-H ) :   0.9927
B(  4-C , 20-C ) :   1.0906 B(  6-C ,  7-H ) :   0.9452 B(  6-C ,  8-H ) :   0.9337
B(  6-C ,  9-C ) :   1.0526 B(  9-C , 10-H ) :   0.9587 B(  9-C , 11-H ) :   0.9506
B(  9-C , 12-C ) :   1.0694 B( 12-C , 13-H ) :   0.9719 B( 12-C , 14-H ) :   0.9792
B( 12-C , 15-H ) :   0.9749 B( 16-S , 17-C ) :   1.1656 B( 16-S , 20-C ) :   1.1741
B( 17-C , 18-C ) :   1.5487 B( 17-C , 20-C ) :   0.1036 B( 17-C , 33-H ) :   0.9787
B( 18-C , 19-C ) :   1.3046 B( 18-C , 21-H ) :   0.9875 B( 19-C , 20-C ) :   1.5084
B( 19-C , 22-C ) :   1.0431 B( 22-C , 23-H ) :   0.9277 B( 22-C , 24-H ) :   0.9408
B( 22-C , 25-C ) :   1.0374 B( 25-C , 26-H ) :   0.9549 B( 25-C , 27-H ) :   0.9548
B( 25-C , 28-C ) :   1.0917 B( 28-C , 29-H ) :   0.9693 B( 28-C , 30-H ) :   0.9713
B( 28-C , 31-H ) :   0.9679

Dispersion correction           -0.014242896
FINAL SINGLE POINT ENERGY     -1339.867397853955

DIPOLE MOMENT
-------------
                                X             Y             Z
Electronic contribution:    -13.16301      21.96609     -21.94549
Nuclear contribution   :     13.59768     -22.29761      22.54540
                        -----------------------------------------
Total Dipole Moment    :      0.43466      -0.33152       0.59992
                        -----------------------------------------
Magnitude (a.u.)       :      0.81162
Magnitude (Debye)      :      2.06299

Rotational constants in cm-1:     0.017500     0.009318     0.006339
Rotational constants in MHz :   524.647256   279.337077   190.028848

                             ****ORCA TERMINATED NORMALLY****
TOTAL RUN TIME: 0 days 0 hours 0 minutes 35 seconds 429 msec
