                         Program Version 4.2.1 -  RELEASE  -
|  1> ! wB97X-D3 SP def2-SVP
|  2> %pal
|  3> nprocs 16
|  4> end
|  5>
|  6> * xyz 0 1
|  7> S 	 26.2954 	 6.14316 	 74.2315
|  8> C 	 26.7795 	 4.49265 	 74.3726
|  9> C 	 26.8749 	 4.07794 	 75.672
| 10> C 	 26.5336 	 5.13654 	 76.626
| 11> C 	 26.1653 	 6.31201 	 75.9947
| 12> H 	 26.644 	 5.21063 	 77.6851
| 13> C 	 27.4059 	 2.71387 	 76.1656
| 14> H 	 28.5034 	 2.79188 	 76.2514
| 15> H 	 27.1984 	 2.00071 	 75.2946
| 16> C 	 26.8022 	 2.14023 	 77.413
| 17> H 	 27.2037 	 1.15715 	 77.4596
| 18> H 	 26.9317 	 2.73772 	 78.3293
| 19> C 	 25.2965 	 1.97794 	 77.3248
| 20> H 	 25.0365 	 1.52333 	 76.3649
| 21> H 	 24.7028 	 1.54973 	 78.152
| 22> H 	 24.7908 	 3.03953 	 77.2952
| 23> S 	 23.8624 	 7.81697 	 76.322
| 24> C 	 23.8086 	 9.08694 	 77.508
| 25> C 	 25.0592 	 9.27169 	 78.0508
| 26> C 	 26.041 	 8.33188 	 77.6606
| 27> C 	 25.5639 	 7.46934 	 76.6594
| 28> H 	 25.1033 	 10.0819 	 78.802
| 29> C 	 27.4667 	 8.35544 	 78.1892
| 30> H 	 27.8992 	 9.28036 	 77.9834
| 31> H 	 28.0192 	 7.70565 	 77.5271
| 32> C 	 27.6099 	 7.7798 	 79.6078
| 33> H 	 27.5457 	 6.59211 	 79.4669
| 34> H 	 26.6769 	 7.9246 	 80.2023
| 35> C 	 28.9453 	 8.30829 	 80.2172
| 36> H 	 29.7751 	 8.43934 	 79.5655
| 37> H 	 29.3396 	 7.65548 	 81.0278
| 38> H 	 28.7642 	 9.28163 	 80.595
| 39> H 	 27.0468 	 3.80882 	 73.62
| 40> H 	 22.9302 	 9.61567 	 77.8757
| 41> *
| 42>
| 43>                          ****END OF INPUT****

CARTESIAN COORDINATES (ANGSTROEM)
---------------------------------
  S     26.295400    6.143160   74.231500
  C     26.779500    4.492650   74.372600
  C     26.874900    4.077940   75.672000
  C     26.533600    5.136540   76.626000
  C     26.165300    6.312010   75.994700
  H     26.644000    5.210630   77.685100
  C     27.405900    2.713870   76.165600
  H     28.503400    2.791880   76.251400
  H     27.198400    2.000710   75.294600
  C     26.802200    2.140230   77.413000
  H     27.203700    1.157150   77.459600
  H     26.931700    2.737720   78.329300
  C     25.296500    1.977940   77.324800
  H     25.036500    1.523330   76.364900
  H     24.702800    1.549730   78.152000
  H     24.790800    3.039530   77.295200
  S     23.862400    7.816970   76.322000
  C     23.808600    9.086940   77.508000
  C     25.059200    9.271690   78.050800
  C     26.041000    8.331880   77.660600
  C     25.563900    7.469340   76.659400
  H     25.103300   10.081900   78.802000
  C     27.466700    8.355440   78.189200
  H     27.899200    9.280360   77.983400
  H     28.019200    7.705650   77.527100
  C     27.609900    7.779800   79.607800
  H     27.545700    6.592110   79.466900
  H     26.676900    7.924600   80.202300
  C     28.945300    8.308290   80.217200
  H     29.775100    8.439340   79.565500
  H     29.339600    7.655480   81.027800
  H     28.764200    9.281630   80.595000
  H     27.046800    3.808820   73.620000
  H     22.930200    9.615670   77.875700

 Total Charge           Charge          ....    0
 Multiplicity           Mult            ....    1
 Number of Electrons    NEL             ....  134
 Basis Dimension        Dim             ....  322

ORBITAL ENERGIES
----------------

  NO   OCC          E(Eh)            E(eV)
   0   2.0000     -88.967081     -2420.9173
   1   2.0000     -88.963815     -2420.8285
   2   2.0000     -10.331038      -281.1218
   3   2.0000     -10.329234      -281.0728
   4   2.0000     -10.315465      -280.6981
   5   2.0000     -10.309028      -280.5229
   6   2.0000     -10.304794      -280.4077
   7   2.0000     -10.304383      -280.3965
   8   2.0000     -10.303308      -280.3673
   9   2.0000     -10.301465      -280.3171
  10   2.0000     -10.295818      -280.1634
  11   2.0000     -10.292196      -280.0649
  12   2.0000     -10.285442      -279.8811
  13   2.0000     -10.284136      -279.8456
  14   2.0000     -10.280407      -279.7441
  15   2.0000     -10.280363      -279.7429
  16   2.0000      -8.081649      -219.9129
  17   2.0000      -8.078461      -219.8261
  18   2.0000      -6.040288      -164.3646
  19   2.0000      -6.036924      -164.2731
  20   2.0000      -6.036204      -164.2535
  21   2.0000      -6.032858      -164.1624
  22   2.0000      -6.032255      -164.1460
  23   2.0000      -6.029386      -164.0679
  24   2.0000      -1.003879       -27.3169
  25   2.0000      -0.983278       -26.7564
  26   2.0000      -0.915241       -24.9050
  27   2.0000      -0.907629       -24.6979
  28   2.0000      -0.871972       -23.7276
  29   2.0000      -0.847460       -23.0606
  30   2.0000      -0.841447       -22.8969
  31   2.0000      -0.815758       -22.1979
  32   2.0000      -0.782093       -21.2818
  33   2.0000      -0.772166       -21.0117
  34   2.0000      -0.709154       -19.2971
  35   2.0000      -0.701034       -19.0761
  36   2.0000      -0.691692       -18.8219
  37   2.0000      -0.654720       -17.8158
  38   2.0000      -0.642278       -17.4773
  39   2.0000      -0.618824       -16.8391
  40   2.0000      -0.595944       -16.2165
  41   2.0000      -0.570684       -15.5291
  42   2.0000      -0.559335       -15.2203
  43   2.0000      -0.553016       -15.0483
  44   2.0000      -0.537423       -14.6240
  45   2.0000      -0.523796       -14.2532
  46   2.0000      -0.516746       -14.0614
  47   2.0000      -0.510565       -13.8932
  48   2.0000      -0.509047       -13.8519
  49   2.0000      -0.501848       -13.6560
  50   2.0000      -0.486590       -13.2408
  51   2.0000      -0.479292       -13.0422
  52   2.0000      -0.477126       -12.9833
  53   2.0000      -0.463301       -12.6071
  54   2.0000      -0.455860       -12.4046
  55   2.0000      -0.455075       -12.3832
  56   2.0000      -0.441819       -12.0225
  57   2.0000      -0.436619       -11.8810
  58   2.0000      -0.433515       -11.7965
  59   2.0000      -0.421969       -11.4824
  60   2.0000      -0.416768       -11.3408
  61   2.0000      -0.407844       -11.0980
  62   2.0000      -0.405292       -11.0286
  63   2.0000      -0.344621        -9.3776
  64   2.0000      -0.330925        -9.0049
  65   2.0000      -0.325592        -8.8598
  66   2.0000      -0.297924        -8.1069
  67   0.0000       0.037677         1.0253
  68   0.0000       0.062054         1.6886
  69   0.0000       0.117056         3.1853
  70   0.0000       0.126673         3.4469
  71   0.0000       0.131784         3.5860

MULLIKEN ATOMIC CHARGES
-----------------------
   0 S :    0.119066
   1 C :   -0.085311
   2 C :   -0.106627
   3 C :    0.060092
   4 C :   -0.185859
   5 H :   -0.003976
   6 C :    0.034825
   7 H :    0.055152
   8 H :    0.028813
   9 C :   -0.028167
  10 H :    0.029967
  11 H :    0.039039
  12 C :   -0.111087
  13 H :    0.026112
  14 H :    0.044871
  15 H :    0.041097
  16 S :    0.111733
  17 C :   -0.105286
  18 C :   -0.047620
  19 C :   -0.041424
  20 C :   -0.161643
  21 H :    0.024274
  22 C :    0.104460
  23 H :    0.019508
  24 H :    0.016547
  25 C :   -0.122055
  26 H :    0.038063
  27 H :    0.046217
  28 C :   -0.019921
  29 H :    0.026746
  30 H :    0.038539
  31 H :    0.029024
  32 H :    0.023095
  33 H :    0.061739
Sum of atomic charges:    0.0000000

LOEWDIN ATOMIC CHARGES
----------------------
   0 S :    0.403362
   1 C :   -0.199496
   2 C :   -0.063375
   3 C :   -0.055045
   4 C :   -0.190361
   5 H :    0.025556
   6 C :   -0.034495
   7 H :    0.038022
   8 H :    0.036053
   9 C :   -0.047514
  10 H :    0.026844
  11 H :    0.028690
  12 C :   -0.080354
  13 H :    0.020728
  14 H :    0.027991
  15 H :    0.035932
  16 S :    0.406618
  17 C :   -0.192744
  18 C :   -0.080135
  19 C :   -0.055039
  20 C :   -0.196743
  21 H :    0.035284
  22 C :   -0.030058
  23 H :    0.023009
  24 H :    0.031382
  25 C :   -0.044744
  26 H :    0.030644
  27 H :    0.026747
  28 C :   -0.063528
  29 H :    0.023047
  30 H :    0.031334
  31 H :    0.024337
  32 H :    0.022889
  33 H :    0.035164

  Mayer bond orders larger than 0.100000
B(  0-S ,  1-C ) :   1.1256 B(  0-S ,  4-C ) :   1.1378 B(  1-C ,  2-C ) :   1.6614
B(  1-C , 32-H ) :   0.9668 B(  2-C ,  3-C ) :   1.1977 B(  2-C ,  6-C ) :   1.0036
B(  3-C ,  4-C ) :   1.6095 B(  3-C ,  5-H ) :   0.9909 B(  4-C , 20-C ) :   1.0262
B(  6-C ,  7-H ) :   0.9393 B(  6-C ,  8-H ) :   0.9404 B(  6-C ,  9-C ) :   1.0837
B(  9-C , 10-H ) :   0.9502 B(  9-C , 11-H ) :   0.9483 B(  9-C , 12-C ) :   1.0785
B( 12-C , 13-H ) :   0.9740 B( 12-C , 14-H ) :   0.9756 B( 12-C , 15-H ) :   0.9667
B( 16-S , 17-C ) :   1.1591 B( 16-S , 20-C ) :   1.1493 B( 17-C , 18-C ) :   1.6133
B( 17-C , 20-C ) :   0.1022 B( 17-C , 33-H ) :   0.9651 B( 18-C , 19-C ) :   1.2387
B( 18-C , 21-H ) :   0.9874 B( 19-C , 20-C ) :   1.5835 B( 19-C , 22-C ) :   1.0370
B( 22-C , 23-H ) :   0.9493 B( 22-C , 24-H ) :   0.9215 B( 22-C , 25-C ) :   1.0306
B( 25-C , 26-H ) :   0.9518 B( 25-C , 27-H ) :   0.9702 B( 25-C , 28-C ) :   1.0520
B( 28-C , 29-H ) :   0.9756 B( 28-C , 30-H ) :   0.9756 B( 28-C , 31-H ) :   0.9768

Dispersion correction           -0.014602915
FINAL SINGLE POINT ENERGY     -1339.866330449513

DIPOLE MOMENT
-------------
                                X             Y             Z
Electronic contribution:    -12.53169      11.92691     -19.39621
Nuclear contribution   :     12.91879     -12.07270      19.96196
                        -----------------------------------------
Total Dipole Moment    :      0.38710      -0.14578       0.56574
                        -----------------------------------------
Magnitude (a.u.)       :      0.70083
Magnitude (Debye)      :      1.78137

Rotational constants in cm-1:     0.016101     0.009299     0.007441
Rotational constants in MHz :   482.703264   278.765291   223.069729

                             ****ORCA TERMINATED NORMALLY****
TOTAL RUN TIME: 0 days 0 hours 0 minutes 35 seconds 776 msec
