                         Program Version 4.2.1 -  RELEASE  -
|  1> ! wB97X-D3 SP def2-SVP
|  2> %pal
|  3> nprocs 16
|  4> end
|  5>
|  6> * xyz 0 1
|  7> S 	 -17.3132 	 56.1883 	 60.8811
|  8> C 	 -17.4909 	 54.4999 	 60.6717
|  9> C 	 -16.6427 	 53.7927 	 61.5325
| 10> C 	 -15.7514 	 54.6832 	 62.1987
| 11> C 	 -15.936 	 56.0375 	 61.9169
| 12> H 	 -15.0383 	 54.2615 	 62.918
| 13> C 	 -16.6664 	 52.2884 	 61.6207
| 14> H 	 -15.7023 	 52.1135 	 61.9223
| 15> H 	 -16.5572 	 51.821 	 60.6519
| 16> C 	 -17.6237 	 51.6679 	 62.5914
| 17> H 	 -18.5867 	 51.8288 	 62.2249
| 18> H 	 -17.3711 	 50.5697 	 62.7056
| 19> C 	 -17.699 	 52.273 	 64.0063
| 20> H 	 -18.3121 	 51.7578 	 64.7324
| 21> H 	 -16.7291 	 52.5433 	 64.3175
| 22> H 	 -18.3397 	 53.1737 	 63.8332
| 23> S 	 -14.5918 	 58.2791 	 60.8939
| 24> C 	 -13.86 	 59.282 	 62.0943
| 25> C 	 -13.644 	 58.6598 	 63.2708
| 26> C 	 -14.2387 	 57.3606 	 63.3189
| 27> C 	 -14.9506 	 57.0971 	 62.1776
| 28> H 	 -13.178 	 59.0792 	 64.1403
| 29> C 	 -14.2248 	 56.5287 	 64.5304
| 30> H 	 -13.2364 	 56.1096 	 64.6523
| 31> H 	 -14.8948 	 55.6607 	 64.5467
| 32> C 	 -14.6216 	 57.3146 	 65.7446
| 33> H 	 -15.5515 	 57.894 	 65.6037
| 34> H 	 -13.9399 	 58.1013 	 66.0524
| 35> C 	 -14.5841 	 56.4591 	 67.004
| 36> H 	 -15.1314 	 57.0566 	 67.7676
| 37> H 	 -13.4883 	 56.2337 	 67.306
| 38> H 	 -15.1316 	 55.5039 	 66.9583
| 39> H 	 -18.1637 	 53.97 	 60.0195
| 40> H 	 -13.4922 	 60.2816 	 61.8786
| 41> *
| 42>
| 43>                          ****END OF INPUT****

CARTESIAN COORDINATES (ANGSTROEM)
---------------------------------
  S    -17.313200   56.188300   60.881100
  C    -17.490900   54.499900   60.671700
  C    -16.642700   53.792700   61.532500
  C    -15.751400   54.683200   62.198700
  C    -15.936000   56.037500   61.916900
  H    -15.038300   54.261500   62.918000
  C    -16.666400   52.288400   61.620700
  H    -15.702300   52.113500   61.922300
  H    -16.557200   51.821000   60.651900
  C    -17.623700   51.667900   62.591400
  H    -18.586700   51.828800   62.224900
  H    -17.371100   50.569700   62.705600
  C    -17.699000   52.273000   64.006300
  H    -18.312100   51.757800   64.732400
  H    -16.729100   52.543300   64.317500
  H    -18.339700   53.173700   63.833200
  S    -14.591800   58.279100   60.893900
  C    -13.860000   59.282000   62.094300
  C    -13.644000   58.659800   63.270800
  C    -14.238700   57.360600   63.318900
  C    -14.950600   57.097100   62.177600
  H    -13.178000   59.079200   64.140300
  C    -14.224800   56.528700   64.530400
  H    -13.236400   56.109600   64.652300
  H    -14.894800   55.660700   64.546700
  C    -14.621600   57.314600   65.744600
  H    -15.551500   57.894000   65.603700
  H    -13.939900   58.101300   66.052400
  C    -14.584100   56.459100   67.004000
  H    -15.131400   57.056600   67.767600
  H    -13.488300   56.233700   67.306000
  H    -15.131600   55.503900   66.958300
  H    -18.163700   53.970000   60.019500
  H    -13.492200   60.281600   61.878600

 Total Charge           Charge          ....    0
 Multiplicity           Mult            ....    1
 Number of Electrons    NEL             ....  134
 Basis Dimension        Dim             ....  322

ORBITAL ENERGIES
----------------

  NO   OCC          E(Eh)            E(eV)
   0   2.0000     -88.968692     -2420.9612
   1   2.0000     -88.962638     -2420.7964
   2   2.0000     -10.328507      -281.0530
   3   2.0000     -10.324870      -280.9540
   4   2.0000     -10.311644      -280.5941
   5   2.0000     -10.309903      -280.5467
   6   2.0000     -10.297243      -280.2022
   7   2.0000     -10.295191      -280.1464
   8   2.0000     -10.294573      -280.1296
   9   2.0000     -10.287789      -279.9450
  10   2.0000     -10.286899      -279.9207
  11   2.0000     -10.286295      -279.9043
  12   2.0000     -10.284002      -279.8419
  13   2.0000     -10.283331      -279.8237
  14   2.0000     -10.281633      -279.7775
  15   2.0000     -10.274744      -279.5900
  16   2.0000      -8.083926      -219.9748
  17   2.0000      -8.077659      -219.8043
  18   2.0000      -6.042293      -164.4191
  19   2.0000      -6.038207      -164.3080
  20   2.0000      -6.036151      -164.2520
  21   2.0000      -6.034955      -164.2195
  22   2.0000      -6.032430      -164.1508
  23   2.0000      -6.028109      -164.0332
  24   2.0000      -1.009797       -27.4780
  25   2.0000      -0.989804       -26.9339
  26   2.0000      -0.920724       -25.0542
  27   2.0000      -0.919084       -25.0095
  28   2.0000      -0.868171       -23.6241
  29   2.0000      -0.854429       -23.2502
  30   2.0000      -0.846357       -23.0305
  31   2.0000      -0.814615       -22.1668
  32   2.0000      -0.788633       -21.4598
  33   2.0000      -0.773611       -21.0510
  34   2.0000      -0.704313       -19.1653
  35   2.0000      -0.700858       -19.0713
  36   2.0000      -0.697099       -18.9690
  37   2.0000      -0.659280       -17.9399
  38   2.0000      -0.636150       -17.3105
  39   2.0000      -0.621093       -16.9008
  40   2.0000      -0.605602       -16.4793
  41   2.0000      -0.578723       -15.7479
  42   2.0000      -0.570233       -15.5168
  43   2.0000      -0.559295       -15.2192
  44   2.0000      -0.546227       -14.8636
  45   2.0000      -0.529203       -14.4004
  46   2.0000      -0.517993       -14.0953
  47   2.0000      -0.506913       -13.7938
  48   2.0000      -0.504129       -13.7181
  49   2.0000      -0.497614       -13.5408
  50   2.0000      -0.489411       -13.3176
  51   2.0000      -0.479758       -13.0549
  52   2.0000      -0.467717       -12.7272
  53   2.0000      -0.466190       -12.6857
  54   2.0000      -0.464286       -12.6339
  55   2.0000      -0.456111       -12.4114
  56   2.0000      -0.448397       -12.2015
  57   2.0000      -0.439396       -11.9566
  58   2.0000      -0.436197       -11.8695
  59   2.0000      -0.422255       -11.4901
  60   2.0000      -0.410963       -11.1829
  61   2.0000      -0.409851       -11.1526
  62   2.0000      -0.406980       -11.0745
  63   2.0000      -0.350948        -9.5498
  64   2.0000      -0.332817        -9.0564
  65   2.0000      -0.327233        -8.9045
  66   2.0000      -0.284891        -7.7523
  67   0.0000       0.024471         0.6659
  68   0.0000       0.080729         2.1968
  69   0.0000       0.107718         2.9312
  70   0.0000       0.118652         3.2287
  71   0.0000       0.131099         3.5674

MULLIKEN ATOMIC CHARGES
-----------------------
   0 S :    0.131631
   1 C :   -0.113323
   2 C :   -0.165005
   3 C :    0.022884
   4 C :   -0.147462
   5 H :    0.018241
   6 C :    0.136777
   7 H :   -0.024989
   8 H :    0.026332
   9 C :   -0.052083
  10 H :    0.011533
  11 H :    0.040965
  12 C :   -0.041561
  13 H :    0.037067
  14 H :    0.017884
  15 H :    0.034366
  16 S :    0.109462
  17 C :   -0.084999
  18 C :   -0.010679
  19 C :   -0.027783
  20 C :   -0.157168
  21 H :    0.007367
  22 C :    0.099656
  23 H :    0.025654
  24 H :    0.023107
  25 C :   -0.122408
  26 H :    0.042137
  27 H :    0.024057
  28 C :   -0.073740
  29 H :    0.038895
  30 H :    0.046538
  31 H :    0.030906
  32 H :    0.041987
  33 H :    0.053756
Sum of atomic charges:    0.0000000

LOEWDIN ATOMIC CHARGES
----------------------
   0 S :    0.439772
   1 C :   -0.209770
   2 C :   -0.065384
   3 C :   -0.066542
   4 C :   -0.207865
   5 H :    0.028647
   6 C :   -0.037463
   7 H :    0.018988
   8 H :    0.038890
   9 C :   -0.035270
  10 H :    0.013862
  11 H :    0.030302
  12 C :   -0.061635
  13 H :    0.027754
  14 H :    0.012649
  15 H :    0.034760
  16 S :    0.389896
  17 C :   -0.183386
  18 C :   -0.066930
  19 C :   -0.053518
  20 C :   -0.182159
  21 H :    0.029008
  22 C :   -0.035020
  23 H :    0.035027
  24 H :    0.032825
  25 C :   -0.049066
  26 H :    0.029798
  27 H :    0.022064
  28 C :   -0.072500
  29 H :    0.031609
  30 H :    0.034612
  31 H :    0.019564
  32 H :    0.027866
  33 H :    0.028613

  Mayer bond orders larger than 0.100000
B(  0-S ,  1-C ) :   1.1651 B(  0-S ,  4-C ) :   1.1668 B(  1-C ,  2-C ) :   1.5531
B(  1-C , 32-H ) :   0.9700 B(  2-C ,  3-C ) :   1.3197 B(  2-C ,  6-C ) :   1.0087
B(  3-C ,  4-C ) :   1.5000 B(  3-C ,  5-H ) :   0.9774 B(  4-C , 20-C ) :   1.0626
B(  6-C ,  7-H ) :   0.9145 B(  6-C ,  8-H ) :   0.9361 B(  6-C ,  9-C ) :   1.0655
B(  9-C , 10-H ) :   0.9626 B(  9-C , 11-H ) :   0.9545 B(  9-C , 12-C ) :   1.0778
B( 12-C , 13-H ) :   0.9736 B( 12-C , 14-H ) :   0.9793 B( 12-C , 15-H ) :   0.9697
B( 16-S , 17-C ) :   1.1417 B( 16-S , 20-C ) :   1.1188 B( 17-C , 18-C ) :   1.6245
B( 17-C , 33-H ) :   0.9647 B( 18-C , 19-C ) :   1.2218 B( 18-C , 21-H ) :   0.9953
B( 19-C , 20-C ) :   1.6205 B( 19-C , 22-C ) :   1.0580 B( 22-C , 23-H ) :   0.9129
B( 22-C , 24-H ) :   0.9321 B( 22-C , 25-C ) :   1.0666 B( 25-C , 26-H ) :   0.9592
B( 25-C , 27-H ) :   0.9434 B( 25-C , 28-C ) :   1.0813 B( 28-C , 29-H ) :   0.9726
B( 28-C , 30-H ) :   0.9732 B( 28-C , 31-H ) :   0.9741

Dispersion correction           -0.014371635
FINAL SINGLE POINT ENERGY     -1339.858308300101

DIPOLE MOMENT
-------------
                                X             Y             Z
Electronic contribution:      0.75480      17.57880     -24.05929
Nuclear contribution   :     -0.61627     -17.94326      24.54656
                        -----------------------------------------
Total Dipole Moment    :      0.13853      -0.36445       0.48727
                        -----------------------------------------
Magnitude (a.u.)       :      0.62406
Magnitude (Debye)      :      1.58623

Rotational constants in cm-1:     0.017767     0.009590     0.006706
Rotational constants in MHz :   532.632319   287.497811   201.026453

                             ****ORCA TERMINATED NORMALLY****
TOTAL RUN TIME: 0 days 0 hours 0 minutes 34 seconds 569 msec
