                         Program Version 4.2.1 -  RELEASE  -
|  1> ! wB97X-D3 SP def2-SVP
|  2> %pal
|  3> nprocs 16
|  4> end
|  5>
|  6> * xyz 0 1
|  7> S 	 11.2832 	 22.7746 	 52.8048
|  8> C 	 12.1733 	 22.5534 	 54.3062
|  9> C 	 13.1446 	 23.545 	 54.4379
| 10> C 	 13.2796 	 24.3935 	 53.3276
| 11> C 	 12.2118 	 24.1975 	 52.4716
| 12> H 	 14.0552 	 25.1706 	 53.1415
| 13> C 	 14.1169 	 23.5587 	 55.6001
| 14> H 	 13.7679 	 22.7603 	 56.2043
| 15> H 	 13.9166 	 24.5967 	 55.9516
| 16> C 	 15.6394 	 23.3895 	 55.4382
| 17> H 	 15.8077 	 22.5145 	 54.8237
| 18> H 	 15.9885 	 24.2428 	 54.8325
| 19> C 	 16.3646 	 23.3084 	 56.7569
| 20> H 	 17.3934 	 23.13 	 56.4639
| 21> H 	 16.3117 	 24.2956 	 57.2597
| 22> H 	 16.0652 	 22.505 	 57.391
| 23> S 	 12.3172 	 24.2858 	 49.7099
| 24> C 	 11.595 	 25.6465 	 48.9279
| 25> C 	 11.1893 	 26.6085 	 49.8317
| 26> C 	 11.3492 	 26.2287 	 51.1898
| 27> C 	 11.9801 	 25.011 	 51.2956
| 28> H 	 10.6895 	 27.4452 	 49.4288
| 29> C 	 10.9161 	 27.0619 	 52.4247
| 30> H 	 11.7841 	 27.1781 	 53.0954
| 31> H 	 10.2236 	 26.3238 	 52.9082
| 32> C 	 10.3757 	 28.4383 	 52.182
| 33> H 	 9.60144 	 28.3619 	 51.3714
| 34> H 	 11.1469 	 29.0482 	 51.7075
| 35> C 	 9.88188 	 29.1024 	 53.4735
| 36> H 	 9.07898 	 28.5504 	 54.0394
| 37> H 	 9.3768 	 30.0386 	 53.2411
| 38> H 	 10.6639 	 29.3381 	 54.2355
| 39> H 	 11.9757 	 21.8215 	 55.0615
| 40> H 	 11.5449 	 25.7279 	 47.8094
| 41> *
| 42>
| 43>                          ****END OF INPUT****

CARTESIAN COORDINATES (ANGSTROEM)
---------------------------------
  S     11.283200   22.774600   52.804800
  C     12.173300   22.553400   54.306200
  C     13.144600   23.545000   54.437900
  C     13.279600   24.393500   53.327600
  C     12.211800   24.197500   52.471600
  H     14.055200   25.170600   53.141500
  C     14.116900   23.558700   55.600100
  H     13.767900   22.760300   56.204300
  H     13.916600   24.596700   55.951600
  C     15.639400   23.389500   55.438200
  H     15.807700   22.514500   54.823700
  H     15.988500   24.242800   54.832500
  C     16.364600   23.308400   56.756900
  H     17.393400   23.130000   56.463900
  H     16.311700   24.295600   57.259700
  H     16.065200   22.505000   57.391000
  S     12.317200   24.285800   49.709900
  C     11.595000   25.646500   48.927900
  C     11.189300   26.608500   49.831700
  C     11.349200   26.228700   51.189800
  C     11.980100   25.011000   51.295600
  H     10.689500   27.445200   49.428800
  C     10.916100   27.061900   52.424700
  H     11.784100   27.178100   53.095400
  H     10.223600   26.323800   52.908200
  C     10.375700   28.438300   52.182000
  H      9.601440   28.361900   51.371400
  H     11.146900   29.048200   51.707500
  C      9.881880   29.102400   53.473500
  H      9.078980   28.550400   54.039400
  H      9.376800   30.038600   53.241100
  H     10.663900   29.338100   54.235500
  H     11.975700   21.821500   55.061500
  H     11.544900   25.727900   47.809400

 Total Charge           Charge          ....    0
 Multiplicity           Mult            ....    1
 Number of Electrons    NEL             ....  134
 Basis Dimension        Dim             ....  322

ORBITAL ENERGIES
----------------

  NO   OCC          E(Eh)            E(eV)
   0   2.0000     -88.967935     -2420.9406
   1   2.0000     -88.961498     -2420.7654
   2   2.0000     -10.322788      -280.8973
   3   2.0000     -10.317270      -280.7472
   4   2.0000     -10.316648      -280.7303
   5   2.0000     -10.310745      -280.5696
   6   2.0000     -10.302253      -280.3386
   7   2.0000     -10.296438      -280.1803
   8   2.0000     -10.293712      -280.1061
   9   2.0000     -10.292613      -280.0762
  10   2.0000     -10.291971      -280.0588
  11   2.0000     -10.287859      -279.9469
  12   2.0000     -10.286009      -279.8965
  13   2.0000     -10.285816      -279.8913
  14   2.0000     -10.285409      -279.8802
  15   2.0000     -10.278134      -279.6822
  16   2.0000      -8.082534      -219.9369
  17   2.0000      -8.076487      -219.7724
  18   2.0000      -6.040937      -164.3823
  19   2.0000      -6.037098      -164.2778
  20   2.0000      -6.034880      -164.2174
  21   2.0000      -6.033381      -164.1766
  22   2.0000      -6.030934      -164.1101
  23   2.0000      -6.027399      -164.0139
  24   2.0000      -1.007036       -27.4028
  25   2.0000      -0.983715       -26.7682
  26   2.0000      -0.912540       -24.8315
  27   2.0000      -0.909128       -24.7386
  28   2.0000      -0.869292       -23.6546
  29   2.0000      -0.853742       -23.2315
  30   2.0000      -0.846821       -23.0432
  31   2.0000      -0.813244       -22.1295
  32   2.0000      -0.781872       -21.2758
  33   2.0000      -0.768503       -20.9120
  34   2.0000      -0.706933       -19.2366
  35   2.0000      -0.700244       -19.0546
  36   2.0000      -0.692549       -18.8452
  37   2.0000      -0.648280       -17.6406
  38   2.0000      -0.637888       -17.3578
  39   2.0000      -0.617489       -16.8027
  40   2.0000      -0.595981       -16.2175
  41   2.0000      -0.574360       -15.6291
  42   2.0000      -0.564382       -15.3576
  43   2.0000      -0.560781       -15.2596
  44   2.0000      -0.527151       -14.3445
  45   2.0000      -0.521763       -14.1979
  46   2.0000      -0.517765       -14.0891
  47   2.0000      -0.510328       -13.8867
  48   2.0000      -0.497625       -13.5411
  49   2.0000      -0.496988       -13.5237
  50   2.0000      -0.490554       -13.3486
  51   2.0000      -0.485145       -13.2015
  52   2.0000      -0.474362       -12.9081
  53   2.0000      -0.465592       -12.6694
  54   2.0000      -0.461449       -12.5567
  55   2.0000      -0.450708       -12.2644
  56   2.0000      -0.446501       -12.1499
  57   2.0000      -0.433131       -11.7861
  58   2.0000      -0.430750       -11.7213
  59   2.0000      -0.424953       -11.5636
  60   2.0000      -0.419115       -11.4047
  61   2.0000      -0.416749       -11.3403
  62   2.0000      -0.410771       -11.1777
  63   2.0000      -0.335640        -9.1332
  64   2.0000      -0.329498        -8.9661
  65   2.0000      -0.321008        -8.7351
  66   2.0000      -0.299824        -8.1586
  67   0.0000       0.040024         1.0891
  68   0.0000       0.060367         1.6427
  69   0.0000       0.121296         3.3006
  70   0.0000       0.126429         3.4403
  71   0.0000       0.129160         3.5146

MULLIKEN ATOMIC CHARGES
-----------------------
   0 S :    0.130768
   1 C :   -0.123788
   2 C :   -0.086763
   3 C :    0.015017
   4 C :   -0.170438
   5 H :    0.038113
   6 C :    0.067230
   7 H :   -0.001413
   8 H :    0.035049
   9 C :   -0.075099
  10 H :    0.026616
  11 H :    0.024015
  12 C :   -0.025621
  13 H :    0.032406
  14 H :    0.037455
  15 H :    0.033225
  16 S :    0.109285
  17 C :   -0.109616
  18 C :   -0.047060
  19 C :   -0.007451
  20 C :   -0.208125
  21 H :    0.001027
  22 C :    0.066784
  23 H :    0.031973
  24 H :    0.047454
  25 C :   -0.076830
  26 H :    0.033340
  27 H :    0.032719
  28 C :   -0.052414
  29 H :    0.036555
  30 H :    0.030061
  31 H :    0.041757
  32 H :    0.040812
  33 H :    0.072958
Sum of atomic charges:    0.0000000

LOEWDIN ATOMIC CHARGES
----------------------
   0 S :    0.416477
   1 C :   -0.204945
   2 C :   -0.062277
   3 C :   -0.064072
   4 C :   -0.200218
   5 H :    0.042787
   6 C :   -0.035343
   7 H :    0.020545
   8 H :    0.036878
   9 C :   -0.041395
  10 H :    0.022138
  11 H :    0.023747
  12 C :   -0.059288
  13 H :    0.030289
  14 H :    0.031312
  15 H :    0.022247
  16 S :    0.401178
  17 C :   -0.193253
  18 C :   -0.081539
  19 C :   -0.048352
  20 C :   -0.205531
  21 H :    0.023726
  22 C :   -0.035256
  23 H :    0.033357
  24 H :    0.042230
  25 C :   -0.049782
  26 H :    0.027304
  27 H :    0.028283
  28 C :   -0.071979
  29 H :    0.031549
  30 H :    0.026373
  31 H :    0.030818
  32 H :    0.023689
  33 H :    0.038303

  Mayer bond orders larger than 0.100000
B(  0-S ,  1-C ) :   1.1232 B(  0-S ,  4-C ) :   1.1728 B(  1-C ,  2-C ) :   1.6034
B(  1-C , 32-H ) :   0.9679 B(  2-C ,  3-C ) :   1.2399 B(  2-C ,  6-C ) :   1.0235
B(  3-C ,  4-C ) :   1.5653 B(  3-C ,  5-H ) :   0.9878 B(  4-C , 20-C ) :   1.0256
B(  6-C ,  7-H ) :   0.9400 B(  6-C ,  8-H ) :   0.9299 B(  6-C ,  9-C ) :   1.0724
B(  9-C , 10-H ) :   0.9550 B(  9-C , 11-H ) :   0.9475 B(  9-C , 12-C ) :   1.0911
B( 12-C , 13-H ) :   0.9712 B( 12-C , 14-H ) :   0.9735 B( 12-C , 15-H ) :   0.9747
B( 16-S , 17-C ) :   1.1676 B( 16-S , 20-C ) :   1.1466 B( 17-C , 18-C ) :   1.6023
B( 17-C , 20-C ) :   0.1016 B( 17-C , 33-H ) :   0.9572 B( 18-C , 19-C ) :   1.2379
B( 18-C , 21-H ) :   0.9975 B( 19-C , 20-C ) :   1.6180 B( 19-C , 22-C ) :   1.0125
B( 22-C , 23-H ) :   0.9378 B( 22-C , 24-H ) :   0.9234 B( 22-C , 25-C ) :   1.0847
B( 25-C , 26-H ) :   0.9479 B( 25-C , 27-H ) :   0.9473 B( 25-C , 28-C ) :   1.0806
B( 28-C , 29-H ) :   0.9752 B( 28-C , 30-H ) :   0.9722 B( 28-C , 31-H ) :   0.9731

Dispersion correction           -0.013596608
FINAL SINGLE POINT ENERGY     -1339.881230693461

DIPOLE MOMENT
-------------
                                X             Y             Z
Electronic contribution:     -7.33983     -14.90755     -20.57026
Nuclear contribution   :      7.51068      15.32064      20.90899
                        -----------------------------------------
Total Dipole Moment    :      0.17085       0.41309       0.33874
                        -----------------------------------------
Magnitude (a.u.)       :      0.56087
Magnitude (Debye)      :      1.42562

Rotational constants in cm-1:     0.017467     0.007738     0.006403
Rotational constants in MHz :   523.655349   231.983695   191.950210

                             ****ORCA TERMINATED NORMALLY****
TOTAL RUN TIME: 0 days 0 hours 0 minutes 33 seconds 156 msec
