                         Program Version 4.2.1 -  RELEASE  -
|  1> ! wB97X-D3 SP def2-SVP
|  2> %pal
|  3> nprocs 16
|  4> end
|  5>
|  6> * xyz 0 1
|  7> S 	 10.0807 	 0.997064 	 85.8377
|  8> C 	 11.5303 	 1.99736 	 85.5055
|  9> C 	 11.7666 	 2.04689 	 84.0846
| 10> C 	 10.8524 	 1.1632 	 83.3676
| 11> C 	 9.91845 	 0.517313 	 84.1427
| 12> H 	 10.7868 	 1.10032 	 82.3294
| 13> C 	 12.6947 	 2.95935 	 83.377
| 14> H 	 12.5513 	 3.86931 	 83.9771
| 15> H 	 12.4842 	 3.14996 	 82.2929
| 16> C 	 14.203 	 2.61544 	 83.4217
| 17> H 	 14.4785 	 1.86805 	 82.7099
| 18> H 	 14.7261 	 3.53958 	 83.1237
| 19> C 	 15.0035 	 2.17509 	 84.6943
| 20> H 	 14.6907 	 2.85921 	 85.5002
| 21> H 	 14.6738 	 1.21783 	 85.1256
| 22> H 	 16.0914 	 2.04188 	 84.6562
| 23> S 	 7.64473 	 -0.596235 	 84.753
| 24> C 	 6.69449 	 -1.55407 	 83.6336
| 25> C 	 7.47548 	 -1.82261 	 82.4795
| 26> C 	 8.7237 	 -1.11531 	 82.4101
| 27> C 	 8.90459 	 -0.382446 	 83.5936
| 28> H 	 6.97181 	 -2.41112 	 81.709
| 29> C 	 9.52918 	 -1.16905 	 81.1695
| 30> H 	 9.57109 	 -2.20145 	 80.763
| 31> H 	 10.529 	 -0.775335 	 81.3464
| 32> C 	 8.94053 	 -0.274496 	 80.104
| 33> H 	 8.50237 	 0.609045 	 80.5588
| 34> H 	 8.1215 	 -0.788367 	 79.5988
| 35> C 	 10.0048 	 0.158302 	 79.0843
| 36> H 	 10.9539 	 0.526707 	 79.4658
| 37> H 	 9.58256 	 0.859166 	 78.3634
| 38> H 	 10.1725 	 -0.723593 	 78.5174
| 39> H 	 12.1032 	 2.49077 	 86.2139
| 40> H 	 5.63462 	 -1.98806 	 83.7753
| 41> *
| 42>
| 43>                          ****END OF INPUT****

CARTESIAN COORDINATES (ANGSTROEM)
---------------------------------
  S     10.080700    0.997064   85.837700
  C     11.530300    1.997360   85.505500
  C     11.766600    2.046890   84.084600
  C     10.852400    1.163200   83.367600
  C      9.918450    0.517313   84.142700
  H     10.786800    1.100320   82.329400
  C     12.694700    2.959350   83.377000
  H     12.551300    3.869310   83.977100
  H     12.484200    3.149960   82.292900
  C     14.203000    2.615440   83.421700
  H     14.478500    1.868050   82.709900
  H     14.726100    3.539580   83.123700
  C     15.003500    2.175090   84.694300
  H     14.690700    2.859210   85.500200
  H     14.673800    1.217830   85.125600
  H     16.091400    2.041880   84.656200
  S      7.644730   -0.596235   84.753000
  C      6.694490   -1.554070   83.633600
  C      7.475480   -1.822610   82.479500
  C      8.723700   -1.115310   82.410100
  C      8.904590   -0.382446   83.593600
  H      6.971810   -2.411120   81.709000
  C      9.529180   -1.169050   81.169500
  H      9.571090   -2.201450   80.763000
  H     10.529000   -0.775335   81.346400
  C      8.940530   -0.274496   80.104000
  H      8.502370    0.609045   80.558800
  H      8.121500   -0.788367   79.598800
  C     10.004800    0.158302   79.084300
  H     10.953900    0.526707   79.465800
  H      9.582560    0.859166   78.363400
  H     10.172500   -0.723593   78.517400
  H     12.103200    2.490770   86.213900
  H      5.634620   -1.988060   83.775300

 Total Charge           Charge          ....    0
 Multiplicity           Mult            ....    1
 Number of Electrons    NEL             ....  134
 Basis Dimension        Dim             ....  322

ORBITAL ENERGIES
----------------

  NO   OCC          E(Eh)            E(eV)
   0   2.0000     -88.970650     -2421.0145
   1   2.0000     -88.966625     -2420.9050
   2   2.0000     -10.332649      -281.1657
   3   2.0000     -10.331079      -281.1229
   4   2.0000     -10.326580      -281.0005
   5   2.0000     -10.318907      -280.7917
   6   2.0000     -10.310548      -280.5643
   7   2.0000     -10.309307      -280.5305
   8   2.0000     -10.301121      -280.3077
   9   2.0000     -10.299191      -280.2552
  10   2.0000     -10.292995      -280.0866
  11   2.0000     -10.289074      -279.9799
  12   2.0000     -10.288686      -279.9694
  13   2.0000     -10.284926      -279.8671
  14   2.0000     -10.281259      -279.7673
  15   2.0000     -10.277348      -279.6609
  16   2.0000      -8.083831      -219.9722
  17   2.0000      -8.081849      -219.9183
  18   2.0000      -6.042647      -164.4288
  19   2.0000      -6.040367      -164.3667
  20   2.0000      -6.038581      -164.3181
  21   2.0000      -6.036226      -164.2541
  22   2.0000      -6.034331      -164.2025
  23   2.0000      -6.032644      -164.1566
  24   2.0000      -1.006565       -27.3900
  25   2.0000      -0.975912       -26.5559
  26   2.0000      -0.922376       -25.0991
  27   2.0000      -0.908747       -24.7283
  28   2.0000      -0.864240       -23.5172
  29   2.0000      -0.856521       -23.3071
  30   2.0000      -0.843491       -22.9525
  31   2.0000      -0.812819       -22.1179
  32   2.0000      -0.783199       -21.3119
  33   2.0000      -0.775429       -21.1005
  34   2.0000      -0.707574       -19.2541
  35   2.0000      -0.702621       -19.1193
  36   2.0000      -0.694124       -18.8881
  37   2.0000      -0.664084       -18.0707
  38   2.0000      -0.638297       -17.3689
  39   2.0000      -0.621865       -16.9218
  40   2.0000      -0.596053       -16.2194
  41   2.0000      -0.576680       -15.6923
  42   2.0000      -0.561443       -15.2776
  43   2.0000      -0.556270       -15.1369
  44   2.0000      -0.534625       -14.5479
  45   2.0000      -0.526710       -14.3325
  46   2.0000      -0.523280       -14.2392
  47   2.0000      -0.514706       -14.0059
  48   2.0000      -0.504255       -13.7215
  49   2.0000      -0.498576       -13.5670
  50   2.0000      -0.493133       -13.4188
  51   2.0000      -0.484923       -13.1954
  52   2.0000      -0.473028       -12.8717
  53   2.0000      -0.469728       -12.7819
  54   2.0000      -0.453069       -12.3286
  55   2.0000      -0.449863       -12.2414
  56   2.0000      -0.446052       -12.1377
  57   2.0000      -0.439603       -11.9622
  58   2.0000      -0.430716       -11.7204
  59   2.0000      -0.427740       -11.6394
  60   2.0000      -0.420102       -11.4316
  61   2.0000      -0.412187       -11.2162
  62   2.0000      -0.408831       -11.1249
  63   2.0000      -0.358021        -9.7422
  64   2.0000      -0.334606        -9.1051
  65   2.0000      -0.322885        -8.7862
  66   2.0000      -0.278272        -7.5722
  67   0.0000       0.017717         0.4821
  68   0.0000       0.072460         1.9717
  69   0.0000       0.094523         2.5721
  70   0.0000       0.109428         2.9777
  71   0.0000       0.134465         3.6590

MULLIKEN ATOMIC CHARGES
-----------------------
   0 S :    0.106805
   1 C :   -0.096473
   2 C :   -0.072580
   3 C :   -0.008657
   4 C :   -0.064818
   5 H :   -0.027080
   6 C :    0.063281
   7 H :    0.036324
   8 H :    0.047275
   9 C :   -0.085220
  10 H :    0.026489
  11 H :    0.032981
  12 C :   -0.076927
  13 H :    0.016932
  14 H :    0.028863
  15 H :    0.048467
  16 S :    0.092515
  17 C :   -0.125409
  18 C :   -0.061104
  19 C :   -0.038034
  20 C :   -0.139338
  21 H :    0.025582
  22 C :    0.072098
  23 H :    0.039279
  24 H :    0.014576
  25 C :   -0.087248
  26 H :    0.035554
  27 H :    0.027218
  28 C :   -0.034364
  29 H :    0.036769
  30 H :    0.034322
  31 H :    0.016969
  32 H :    0.025170
  33 H :    0.089785
Sum of atomic charges:    0.0000000

LOEWDIN ATOMIC CHARGES
----------------------
   0 S :    0.380572
   1 C :   -0.184189
   2 C :   -0.047488
   3 C :   -0.068849
   4 C :   -0.184687
   5 H :    0.016059
   6 C :   -0.038097
   7 H :    0.040382
   8 H :    0.045238
   9 C :   -0.042521
  10 H :    0.018284
  11 H :    0.028161
  12 C :   -0.078997
  13 H :    0.020289
  14 H :    0.023981
  15 H :    0.032755
  16 S :    0.417084
  17 C :   -0.207411
  18 C :   -0.071915
  19 C :   -0.056070
  20 C :   -0.189860
  21 H :    0.031974
  22 C :   -0.033991
  23 H :    0.039598
  24 H :    0.026541
  25 C :   -0.037373
  26 H :    0.022322
  27 H :    0.024583
  28 C :   -0.063157
  29 H :    0.022542
  30 H :    0.028686
  31 H :    0.022144
  32 H :    0.012333
  33 H :    0.051076

  Mayer bond orders larger than 0.100000
B(  0-S ,  1-C ) :   1.1183 B(  0-S ,  4-C ) :   1.1297 B(  1-C ,  2-C ) :   1.5852
B(  1-C , 32-H ) :   0.9796 B(  2-C ,  3-C ) :   1.2346 B(  2-C ,  6-C ) :   1.0217
B(  3-C ,  4-C ) :   1.5808 B(  3-C ,  5-H ) :   1.0022 B(  4-C , 20-C ) :   1.0793
B(  6-C ,  7-H ) :   0.9328 B(  6-C ,  8-H ) :   0.9454 B(  6-C ,  9-C ) :   1.0676
B(  9-C , 10-H ) :   0.9595 B(  9-C , 11-H ) :   0.9564 B(  9-C , 12-C ) :   1.0727
B( 12-C , 13-H ) :   0.9739 B( 12-C , 14-H ) :   0.9708 B( 12-C , 15-H ) :   0.9753
B( 16-S , 17-C ) :   1.1557 B( 16-S , 20-C ) :   1.1468 B( 17-C , 18-C ) :   1.6084
B( 17-C , 20-C ) :   0.1003 B( 17-C , 33-H ) :   0.9571 B( 18-C , 19-C ) :   1.2330
B( 18-C , 21-H ) :   0.9853 B( 19-C , 20-C ) :   1.5552 B( 19-C , 22-C ) :   1.0717
B( 22-C , 23-H ) :   0.9212 B( 22-C , 24-H ) :   0.9342 B( 22-C , 25-C ) :   1.0547
B( 25-C , 26-H ) :   0.9600 B( 25-C , 27-H ) :   0.9501 B( 25-C , 28-C ) :   1.0869
B( 28-C , 29-H ) :   0.9771 B( 28-C , 30-H ) :   0.9729 B( 28-C , 31-H ) :   0.9703

Dispersion correction           -0.014202501
FINAL SINGLE POINT ENERGY     -1339.855847477997

DIPOLE MOMENT
-------------
                                X             Y             Z
Electronic contribution:    -19.45624      -6.40416      20.68533
Nuclear contribution   :     19.62218       6.48898     -21.43439
                        -----------------------------------------
Total Dipole Moment    :      0.16594       0.08482      -0.74906
                        -----------------------------------------
Magnitude (a.u.)       :      0.77189
Magnitude (Debye)      :      1.96200

Rotational constants in cm-1:     0.018569     0.008991     0.006375
Rotational constants in MHz :   556.671795   269.550274   191.106210

                             ****ORCA TERMINATED NORMALLY****
TOTAL RUN TIME: 0 days 0 hours 0 minutes 32 seconds 814 msec
