                         Program Version 4.2.1 -  RELEASE  -
|  1> ! wB97X-D3 SP def2-SVP
|  2> %pal
|  3> nprocs 16
|  4> end
|  5>
|  6> * xyz 0 1
|  7> S 	 -44.9611 	 65.026 	 140.666
|  8> C 	 -44.017 	 64.3358 	 141.898
|  9> C 	 -43.5418 	 63.0874 	 141.434
| 10> C 	 -43.9451 	 62.7898 	 140.091
| 11> C 	 -44.7834 	 63.7657 	 139.52
| 12> H 	 -43.4738 	 61.9792 	 139.483
| 13> C 	 -42.6768 	 62.1292 	 142.184
| 14> H 	 -41.8345 	 62.6841 	 142.532
| 15> H 	 -42.3554 	 61.4415 	 141.49
| 16> C 	 -43.4037 	 61.2621 	 143.206
| 17> H 	 -44.0165 	 61.8375 	 143.887
| 18> H 	 -44.1473 	 60.6303 	 142.682
| 19> C 	 -42.4103 	 60.4009 	 144.069
| 20> H 	 -43.0132 	 59.8266 	 144.767
| 21> H 	 -41.6379 	 59.7714 	 143.507
| 22> H 	 -41.8459 	 61.0507 	 144.702
| 23> S 	 -46.9543 	 63.0876 	 137.947
| 24> C 	 -46.9458 	 63.5063 	 136.302
| 25> C 	 -45.7603 	 63.9135 	 135.811
| 26> C 	 -44.8329 	 64.1511 	 136.898
| 27> C 	 -45.3463 	 63.7842 	 138.154
| 28> H 	 -45.6456 	 64.0377 	 134.723
| 29> C 	 -43.4159 	 64.7535 	 136.775
| 30> H 	 -42.8227 	 64.3301 	 137.598
| 31> H 	 -43.5167 	 65.8351 	 137.125
| 32> C 	 -42.7168 	 64.5971 	 135.417
| 33> H 	 -43.0069 	 65.3319 	 134.631
| 34> H 	 -42.8998 	 63.5846 	 135.006
| 35> C 	 -41.1788 	 64.7921 	 135.451
| 36> H 	 -40.817 	 64.802 	 134.453
| 37> H 	 -40.7196 	 63.9486 	 136.007
| 38> H 	 -40.8867 	 65.7653 	 135.89
| 39> H 	 -43.8148 	 64.7112 	 142.89
| 40> H 	 -47.7667 	 63.1351 	 135.734
| 41> *
| 42>
| 43>                          ****END OF INPUT****

CARTESIAN COORDINATES (ANGSTROEM)
---------------------------------
  S    -44.961100   65.026000  140.666000
  C    -44.017000   64.335800  141.898000
  C    -43.541800   63.087400  141.434000
  C    -43.945100   62.789800  140.091000
  C    -44.783400   63.765700  139.520000
  H    -43.473800   61.979200  139.483000
  C    -42.676800   62.129200  142.184000
  H    -41.834500   62.684100  142.532000
  H    -42.355400   61.441500  141.490000
  C    -43.403700   61.262100  143.206000
  H    -44.016500   61.837500  143.887000
  H    -44.147300   60.630300  142.682000
  C    -42.410300   60.400900  144.069000
  H    -43.013200   59.826600  144.767000
  H    -41.637900   59.771400  143.507000
  H    -41.845900   61.050700  144.702000
  S    -46.954300   63.087600  137.947000
  C    -46.945800   63.506300  136.302000
  C    -45.760300   63.913500  135.811000
  C    -44.832900   64.151100  136.898000
  C    -45.346300   63.784200  138.154000
  H    -45.645600   64.037700  134.723000
  C    -43.415900   64.753500  136.775000
  H    -42.822700   64.330100  137.598000
  H    -43.516700   65.835100  137.125000
  C    -42.716800   64.597100  135.417000
  H    -43.006900   65.331900  134.631000
  H    -42.899800   63.584600  135.006000
  C    -41.178800   64.792100  135.451000
  H    -40.817000   64.802000  134.453000
  H    -40.719600   63.948600  136.007000
  H    -40.886700   65.765300  135.890000
  H    -43.814800   64.711200  142.890000
  H    -47.766700   63.135100  135.734000

 Total Charge           Charge          ....    0
 Multiplicity           Mult            ....    1
 Number of Electrons    NEL             ....  134
 Basis Dimension        Dim             ....  322

ORBITAL ENERGIES
----------------

  NO   OCC          E(Eh)            E(eV)
   0   2.0000     -88.966946     -2420.9137
   1   2.0000     -88.959808     -2420.7194
   2   2.0000     -10.329024      -281.0670
   3   2.0000     -10.325737      -280.9776
   4   2.0000     -10.313443      -280.6431
   5   2.0000     -10.311250      -280.5834
   6   2.0000     -10.307672      -280.4860
   7   2.0000     -10.298478      -280.2358
   8   2.0000     -10.297574      -280.2112
   9   2.0000     -10.297131      -280.1992
  10   2.0000     -10.294983      -280.1407
  11   2.0000     -10.292544      -280.0744
  12   2.0000     -10.288679      -279.9692
  13   2.0000     -10.283087      -279.8170
  14   2.0000     -10.278864      -279.7021
  15   2.0000     -10.278003      -279.6787
  16   2.0000      -8.082579      -219.9381
  17   2.0000      -8.075869      -219.7556
  18   2.0000      -6.040888      -164.3809
  19   2.0000      -6.036538      -164.2626
  20   2.0000      -6.034123      -164.1968
  21   2.0000      -6.033898      -164.1907
  22   2.0000      -6.030286      -164.0924
  23   2.0000      -6.026718      -163.9953
  24   2.0000      -1.008128       -27.4326
  25   2.0000      -0.989955       -26.9381
  26   2.0000      -0.913592       -24.8601
  27   2.0000      -0.902302       -24.5529
  28   2.0000      -0.867905       -23.6169
  29   2.0000      -0.848413       -23.0865
  30   2.0000      -0.846352       -23.0304
  31   2.0000      -0.814228       -22.1563
  32   2.0000      -0.781402       -21.2630
  33   2.0000      -0.769747       -20.9459
  34   2.0000      -0.703403       -19.1406
  35   2.0000      -0.699851       -19.0439
  36   2.0000      -0.695239       -18.9184
  37   2.0000      -0.646602       -17.5949
  38   2.0000      -0.642110       -17.4727
  39   2.0000      -0.616243       -16.7688
  40   2.0000      -0.596969       -16.2443
  41   2.0000      -0.575159       -15.6509
  42   2.0000      -0.563384       -15.3305
  43   2.0000      -0.558996       -15.2111
  44   2.0000      -0.527642       -14.3579
  45   2.0000      -0.522627       -14.2214
  46   2.0000      -0.514021       -13.9872
  47   2.0000      -0.512337       -13.9414
  48   2.0000      -0.507813       -13.8183
  49   2.0000      -0.494952       -13.4683
  50   2.0000      -0.490461       -13.3461
  51   2.0000      -0.474906       -12.9229
  52   2.0000      -0.470260       -12.7964
  53   2.0000      -0.465875       -12.6771
  54   2.0000      -0.461068       -12.5463
  55   2.0000      -0.455714       -12.4006
  56   2.0000      -0.445330       -12.1180
  57   2.0000      -0.435229       -11.8432
  58   2.0000      -0.432008       -11.7555
  59   2.0000      -0.420648       -11.4464
  60   2.0000      -0.419509       -11.4154
  61   2.0000      -0.416019       -11.3205
  62   2.0000      -0.413127       -11.2418
  63   2.0000      -0.332465        -9.0468
  64   2.0000      -0.328545        -8.9402
  65   2.0000      -0.316908        -8.6235
  66   2.0000      -0.311878        -8.4866
  67   0.0000       0.049153         1.3375
  68   0.0000       0.053065         1.4440
  69   0.0000       0.117140         3.1875
  70   0.0000       0.125449         3.4136
  71   0.0000       0.137355         3.7376

MULLIKEN ATOMIC CHARGES
-----------------------
   0 S :    0.138988
   1 C :   -0.106494
   2 C :   -0.155491
   3 C :    0.035468
   4 C :   -0.188361
   5 H :    0.035551
   6 C :    0.136557
   7 H :    0.023896
   8 H :   -0.012678
   9 C :   -0.080841
  10 H :    0.019191
  11 H :    0.030547
  12 C :   -0.046461
  13 H :    0.032806
  14 H :    0.045104
  15 H :    0.018940
  16 S :    0.110006
  17 C :   -0.073778
  18 C :   -0.048226
  19 C :   -0.032431
  20 C :   -0.181060
  21 H :    0.035349
  22 C :    0.072251
  23 H :    0.028735
  24 H :    0.050057
  25 C :   -0.108880
  26 H :    0.038314
  27 H :    0.037765
  28 C :   -0.050773
  29 H :    0.025672
  30 H :    0.039252
  31 H :    0.035433
  32 H :    0.047109
  33 H :    0.048485
Sum of atomic charges:    0.0000000

LOEWDIN ATOMIC CHARGES
----------------------
   0 S :    0.461218
   1 C :   -0.221832
   2 C :   -0.065015
   3 C :   -0.070762
   4 C :   -0.227417
   5 H :    0.039270
   6 C :   -0.030561
   7 H :    0.028474
   8 H :    0.020654
   9 C :   -0.033434
  10 H :    0.018549
  11 H :    0.027377
  12 C :   -0.068449
  13 H :    0.026277
  14 H :    0.032535
  15 H :    0.018851
  16 S :    0.421879
  17 C :   -0.187884
  18 C :   -0.082760
  19 C :   -0.042602
  20 C :   -0.210691
  21 H :    0.041145
  22 C :   -0.041415
  23 H :    0.033129
  24 H :    0.045266
  25 C :   -0.050429
  26 H :    0.028600
  27 H :    0.027228
  28 C :   -0.063033
  29 H :    0.020595
  30 H :    0.026260
  31 H :    0.026703
  32 H :    0.031842
  33 H :    0.020432

  Mayer bond orders larger than 0.100000
B(  0-S ,  1-C ) :   1.1763 B(  0-S ,  4-C ) :   1.1987 B(  1-C ,  2-C ) :   1.5281
B(  1-C ,  4-C ) :   0.1091 B(  1-C , 32-H ) :   0.9772 B(  2-C ,  3-C ) :   1.3172
B(  2-C ,  6-C ) :   1.0331 B(  3-C ,  4-C ) :   1.5153 B(  3-C ,  5-H ) :   0.9823
B(  4-C , 20-C ) :   1.0017 B(  6-C ,  7-H ) :   0.9393 B(  6-C ,  8-H ) :   0.9263
B(  6-C ,  9-C ) :   1.0583 B(  9-C , 10-H ) :   0.9604 B(  9-C , 11-H ) :   0.9555
B(  9-C , 12-C ) :   1.0732 B( 12-C , 13-H ) :   0.9748 B( 12-C , 14-H ) :   0.9763
B( 12-C , 15-H ) :   0.9755 B( 16-S , 17-C ) :   1.1850 B( 16-S , 20-C ) :   1.1496
B( 17-C , 18-C ) :   1.6101 B( 17-C , 33-H ) :   0.9620 B( 18-C , 19-C ) :   1.2226
B( 18-C , 21-H ) :   0.9932 B( 19-C , 20-C ) :   1.6114 B( 19-C , 22-C ) :   1.0331
B( 22-C , 23-H ) :   0.9374 B( 22-C , 24-H ) :   0.9264 B( 22-C , 25-C ) :   1.0564
B( 25-C , 26-H ) :   0.9515 B( 25-C , 27-H ) :   0.9608 B( 25-C , 28-C ) :   1.0902
B( 28-C , 29-H ) :   0.9753 B( 28-C , 30-H ) :   0.9763 B( 28-C , 31-H ) :   0.9748

Dispersion correction           -0.013541781
FINAL SINGLE POINT ENERGY     -1339.879188644041

DIPOLE MOMENT
-------------
                                X             Y             Z
Electronic contribution:    -22.66963       8.06205      -2.26892
Nuclear contribution   :     23.19740      -8.25616       2.13009
                        -----------------------------------------
Total Dipole Moment    :      0.52776      -0.19411      -0.13882
                        -----------------------------------------
Magnitude (a.u.)       :      0.57921
Magnitude (Debye)      :      1.47224

Rotational constants in cm-1:     0.018745     0.007213     0.006174
Rotational constants in MHz :   561.958339   216.232965   185.091965

                             ****ORCA TERMINATED NORMALLY****
TOTAL RUN TIME: 0 days 0 hours 0 minutes 33 seconds 242 msec
