                         Program Version 4.2.1 -  RELEASE  -
|  1> ! wB97X-D3 SP def2-SVP
|  2> %pal
|  3> nprocs 16
|  4> end
|  5>
|  6> * xyz 0 1
|  7> S 	 -53.5019 	 12.9615 	 90.5805
|  8> C 	 -53.4197 	 14.5201 	 91.3374
|  9> C 	 -52.3276 	 15.2593 	 90.9189
| 10> C 	 -51.5938 	 14.5779 	 89.9326
| 11> C 	 -52.0724 	 13.3333 	 89.6428
| 12> H 	 -50.7596 	 14.9517 	 89.4445
| 13> C 	 -52.025 	 16.6441 	 91.4424
| 14> H 	 -52.3741 	 16.75 	 92.4591
| 15> H 	 -52.5994 	 17.3049 	 90.7814
| 16> C 	 -50.4288 	 16.9139 	 91.5533
| 17> H 	 -50.0167 	 16.0872 	 92.0327
| 18> H 	 -50.0327 	 17.0029 	 90.5842
| 19> C 	 -50.2221 	 18.1425 	 92.4609
| 20> H 	 -50.8869 	 19.017 	 92.3537
| 21> H 	 -50.3038 	 17.83 	 93.4779
| 22> H 	 -49.2823 	 18.603 	 92.3609
| 23> S 	 -51.1682 	 10.5985 	 89.2925
| 24> C 	 -50.4126 	 10.18 	 87.7877
| 25> C 	 -50.6136 	 11.1098 	 86.8313
| 26> C 	 -51.1521 	 12.3682 	 87.337
| 27> C 	 -51.5106 	 12.3105 	 88.687
| 28> H 	 -50.1582 	 10.8807 	 85.8576
| 29> C 	 -51.2314 	 13.5703 	 86.4138
| 30> H 	 -50.402 	 13.4662 	 85.8295
| 31> H 	 -51.305 	 14.5396 	 86.9504
| 32> C 	 -52.3318 	 13.427 	 85.2879
| 33> H 	 -52.2549 	 14.3337 	 84.6804
| 34> H 	 -53.2751 	 13.3061 	 85.7652
| 35> C 	 -52.1915 	 12.2495 	 84.3337
| 36> H 	 -52.153 	 11.2731 	 84.8367
| 37> H 	 -51.3323 	 12.3857 	 83.7038
| 38> H 	 -52.9529 	 12.2227 	 83.5344
| 39> H 	 -54.125 	 14.8335 	 92.0877
| 40> H 	 -49.96 	 9.26143 	 87.5419
| 41> *
| 42>
| 43>                          ****END OF INPUT****

CARTESIAN COORDINATES (ANGSTROEM)
---------------------------------
  S    -53.501900   12.961500   90.580500
  C    -53.419700   14.520100   91.337400
  C    -52.327600   15.259300   90.918900
  C    -51.593800   14.577900   89.932600
  C    -52.072400   13.333300   89.642800
  H    -50.759600   14.951700   89.444500
  C    -52.025000   16.644100   91.442400
  H    -52.374100   16.750000   92.459100
  H    -52.599400   17.304900   90.781400
  C    -50.428800   16.913900   91.553300
  H    -50.016700   16.087200   92.032700
  H    -50.032700   17.002900   90.584200
  C    -50.222100   18.142500   92.460900
  H    -50.886900   19.017000   92.353700
  H    -50.303800   17.830000   93.477900
  H    -49.282300   18.603000   92.360900
  S    -51.168200   10.598500   89.292500
  C    -50.412600   10.180000   87.787700
  C    -50.613600   11.109800   86.831300
  C    -51.152100   12.368200   87.337000
  C    -51.510600   12.310500   88.687000
  H    -50.158200   10.880700   85.857600
  C    -51.231400   13.570300   86.413800
  H    -50.402000   13.466200   85.829500
  H    -51.305000   14.539600   86.950400
  C    -52.331800   13.427000   85.287900
  H    -52.254900   14.333700   84.680400
  H    -53.275100   13.306100   85.765200
  C    -52.191500   12.249500   84.333700
  H    -52.153000   11.273100   84.836700
  H    -51.332300   12.385700   83.703800
  H    -52.952900   12.222700   83.534400
  H    -54.125000   14.833500   92.087700
  H    -49.960000    9.261430   87.541900

 Total Charge           Charge          ....    0
 Multiplicity           Mult            ....    1
 Number of Electrons    NEL             ....  134
 Basis Dimension        Dim             ....  322

ORBITAL ENERGIES
----------------

  NO   OCC          E(Eh)            E(eV)
   0   2.0000     -88.964935     -2420.8590
   1   2.0000     -88.960653     -2420.7424
   2   2.0000     -10.336537      -281.2715
   3   2.0000     -10.330840      -281.1164
   4   2.0000     -10.311550      -280.5915
   5   2.0000     -10.310044      -280.5506
   6   2.0000     -10.308151      -280.4990
   7   2.0000     -10.295922      -280.1663
   8   2.0000     -10.294999      -280.1412
   9   2.0000     -10.292539      -280.0742
  10   2.0000     -10.289212      -279.9837
  11   2.0000     -10.286981      -279.9230
  12   2.0000     -10.286040      -279.8974
  13   2.0000     -10.284694      -279.8608
  14   2.0000     -10.275744      -279.6172
  15   2.0000     -10.274296      -279.5778
  16   2.0000      -8.080003      -219.8681
  17   2.0000      -8.074544      -219.7195
  18   2.0000      -6.038349      -164.3118
  19   2.0000      -6.034534      -164.2080
  20   2.0000      -6.033220      -164.1722
  21   2.0000      -6.030861      -164.1081
  22   2.0000      -6.029310      -164.0659
  23   2.0000      -6.025031      -163.9494
  24   2.0000      -1.002503       -27.2795
  25   2.0000      -0.981099       -26.6971
  26   2.0000      -0.908355       -24.7176
  27   2.0000      -0.906365       -24.6635
  28   2.0000      -0.865821       -23.5602
  29   2.0000      -0.852385       -23.1946
  30   2.0000      -0.841328       -22.8937
  31   2.0000      -0.818965       -22.2852
  32   2.0000      -0.785012       -21.3613
  33   2.0000      -0.770416       -20.9641
  34   2.0000      -0.718484       -19.5510
  35   2.0000      -0.700376       -19.0582
  36   2.0000      -0.687290       -18.7021
  37   2.0000      -0.655373       -17.8336
  38   2.0000      -0.644991       -17.5511
  39   2.0000      -0.624924       -17.0050
  40   2.0000      -0.594486       -16.1768
  41   2.0000      -0.574188       -15.6245
  42   2.0000      -0.566478       -15.4147
  43   2.0000      -0.558304       -15.1922
  44   2.0000      -0.538739       -14.6598
  45   2.0000      -0.519149       -14.1268
  46   2.0000      -0.512074       -13.9342
  47   2.0000      -0.509122       -13.8539
  48   2.0000      -0.506603       -13.7854
  49   2.0000      -0.496497       -13.5104
  50   2.0000      -0.483642       -13.1606
  51   2.0000      -0.481680       -13.1072
  52   2.0000      -0.473786       -12.8924
  53   2.0000      -0.471440       -12.8285
  54   2.0000      -0.457960       -12.4617
  55   2.0000      -0.456456       -12.4208
  56   2.0000      -0.446460       -12.1488
  57   2.0000      -0.440070       -11.9749
  58   2.0000      -0.436537       -11.8788
  59   2.0000      -0.431757       -11.7487
  60   2.0000      -0.416217       -11.3258
  61   2.0000      -0.413327       -11.2472
  62   2.0000      -0.408088       -11.1046
  63   2.0000      -0.346328        -9.4241
  64   2.0000      -0.332145        -9.0381
  65   2.0000      -0.325030        -8.8445
  66   2.0000      -0.292256        -7.9527
  67   0.0000       0.036312         0.9881
  68   0.0000       0.065662         1.7867
  69   0.0000       0.117095         3.1863
  70   0.0000       0.122902         3.3443
  71   0.0000       0.134431         3.6580

MULLIKEN ATOMIC CHARGES
-----------------------
   0 S :    0.114873
   1 C :   -0.127439
   2 C :   -0.094097
   3 C :    0.048325
   4 C :   -0.146607
   5 H :   -0.020476
   6 C :    0.055238
   7 H :    0.019687
   8 H :    0.052421
   9 C :   -0.051680
  10 H :    0.029758
  11 H :    0.031557
  12 C :   -0.037176
  13 H :    0.029487
  14 H :    0.027861
  15 H :    0.017856
  16 S :    0.080170
  17 C :   -0.059821
  18 C :   -0.060210
  19 C :   -0.054265
  20 C :   -0.153994
  21 H :    0.033505
  22 C :    0.131945
  23 H :   -0.009207
  24 H :    0.039067
  25 C :   -0.063724
  26 H :    0.033030
  27 H :    0.032442
  28 C :   -0.077032
  29 H :    0.054346
  30 H :    0.011439
  31 H :    0.032388
  32 H :    0.040933
  33 H :    0.039400
Sum of atomic charges:    0.0000000

LOEWDIN ATOMIC CHARGES
----------------------
   0 S :    0.413432
   1 C :   -0.201518
   2 C :   -0.067371
   3 C :   -0.060020
   4 C :   -0.186338
   5 H :    0.019877
   6 C :   -0.023250
   7 H :    0.026971
   8 H :    0.036753
   9 C :   -0.020019
  10 H :    0.022025
  11 H :    0.014702
  12 C :   -0.066060
  13 H :    0.028377
  14 H :    0.024437
  15 H :    0.019579
  16 S :    0.357678
  17 C :   -0.172454
  18 C :   -0.084235
  19 C :   -0.047079
  20 C :   -0.174034
  21 H :    0.036878
  22 C :   -0.023143
  23 H :    0.017184
  24 H :    0.036417
  25 C :   -0.028232
  26 H :    0.026795
  27 H :    0.020313
  28 C :   -0.073949
  29 H :    0.028803
  30 H :    0.017844
  31 H :    0.031443
  32 H :    0.023956
  33 H :    0.024242

  Mayer bond orders larger than 0.100000
B(  0-S ,  1-C ) :   1.1443 B(  0-S ,  4-C ) :   1.1658 B(  1-C ,  2-C ) :   1.6066
B(  1-C , 32-H ) :   0.9721 B(  2-C ,  3-C ) :   1.2487 B(  2-C ,  6-C ) :   1.0093
B(  3-C ,  4-C ) :   1.5720 B(  3-C ,  5-H ) :   1.0108 B(  4-C , 20-C ) :   1.0161
B(  6-C ,  7-H ) :   0.9498 B(  6-C ,  8-H ) :   0.9359 B(  6-C ,  9-C ) :   1.0558
B(  9-C , 10-H ) :   0.9639 B(  9-C , 11-H ) :   0.9575 B(  9-C , 12-C ) :   1.0822
B( 12-C , 13-H ) :   0.9758 B( 12-C , 14-H ) :   0.9761 B( 12-C , 15-H ) :   0.9730
B( 16-S , 17-C ) :   1.1422 B( 16-S , 20-C ) :   1.0993 B( 17-C , 18-C ) :   1.6770
B( 17-C , 33-H ) :   0.9622 B( 18-C , 19-C ) :   1.1854 B( 18-C , 21-H ) :   0.9747
B( 19-C , 20-C ) :   1.6451 B( 19-C , 22-C ) :   1.0445 B( 22-C , 23-H ) :   0.9189
B( 22-C , 24-H ) :   0.9404 B( 22-C , 25-C ) :   1.0608 B( 25-C , 26-H ) :   0.9572
B( 25-C , 27-H ) :   0.9564 B( 25-C , 28-C ) :   1.0935 B( 28-C , 29-H ) :   0.9647
B( 28-C , 30-H ) :   0.9706 B( 28-C , 31-H ) :   0.9681

Dispersion correction           -0.013743885
FINAL SINGLE POINT ENERGY     -1339.863976038908

DIPOLE MOMENT
-------------
                                X             Y             Z
Electronic contribution:     -6.23049     -20.73226       8.82131
Nuclear contribution   :      6.53689      21.30803      -9.16650
                        -----------------------------------------
Total Dipole Moment    :      0.30640       0.57578      -0.34518
                        -----------------------------------------
Magnitude (a.u.)       :      0.73793
Magnitude (Debye)      :      1.87568

Rotational constants in cm-1:     0.020289     0.007246     0.006472
Rotational constants in MHz :   608.237814   217.235245   194.039833

                             ****ORCA TERMINATED NORMALLY****
TOTAL RUN TIME: 0 days 0 hours 0 minutes 29 seconds 770 msec
