                         Program Version 4.2.1 -  RELEASE  -
|  1> ! wB97X-D3 SP def2-SVP
|  2> %pal
|  3> nprocs 16
|  4> end
|  5>
|  6> * xyz 0 1
|  7> S 	 -57.3436 	 38.3816 	 116.532
|  8> C 	 -57.1192 	 36.9034 	 117.511
|  9> C 	 -56.755 	 35.8403 	 116.702
| 10> C 	 -56.7194 	 36.158 	 115.338
| 11> C 	 -57.1216 	 37.4663 	 115.026
| 12> H 	 -56.3899 	 35.5154 	 114.534
| 13> C 	 -56.3976 	 34.4608 	 117.309
| 14> H 	 -56.9273 	 33.7 	 116.726
| 15> H 	 -56.8864 	 34.3898 	 118.336
| 16> C 	 -54.8787 	 34.199 	 117.431
| 17> H 	 -54.7565 	 33.1541 	 117.556
| 18> H 	 -54.3282 	 34.4505 	 116.527
| 19> C 	 -54.2503 	 35.0047 	 118.466
| 20> H 	 -54.5933 	 34.7676 	 119.414
| 21> H 	 -53.1955 	 34.7679 	 118.454
| 22> H 	 -54.3889 	 36.1196 	 118.31
| 23> S 	 -58.6824 	 38.4595 	 112.981
| 24> C 	 -57.9091 	 38.8937 	 111.501
| 25> C 	 -56.5303 	 39.0264 	 111.652
| 26> C 	 -56.0872 	 38.513 	 112.897
| 27> C 	 -57.1329 	 38.0898 	 113.695
| 28> H 	 -55.8222 	 39.286 	 110.892
| 29> C 	 -54.657 	 38.4929 	 113.26
| 30> H 	 -54.5298 	 38.3867 	 114.342
| 31> H 	 -54.284 	 39.5662 	 113.204
| 32> C 	 -53.823 	 37.4914 	 112.496
| 33> H 	 -52.8155 	 37.865 	 112.458
| 34> H 	 -53.8738 	 37.4348 	 111.413
| 35> C 	 -53.7712 	 36.0704 	 113.054
| 36> H 	 -52.8826 	 35.5414 	 112.622
| 37> H 	 -54.6481 	 35.4359 	 112.82
| 38> H 	 -53.7034 	 36.0433 	 114.106
| 39> H 	 -57.0637 	 36.8647 	 118.637
| 40> H 	 -58.3538 	 39.3094 	 110.651
| 41> *
| 42>
| 43>                          ****END OF INPUT****

CARTESIAN COORDINATES (ANGSTROEM)
---------------------------------
  S    -57.343600   38.381600  116.532000
  C    -57.119200   36.903400  117.511000
  C    -56.755000   35.840300  116.702000
  C    -56.719400   36.158000  115.338000
  C    -57.121600   37.466300  115.026000
  H    -56.389900   35.515400  114.534000
  C    -56.397600   34.460800  117.309000
  H    -56.927300   33.700000  116.726000
  H    -56.886400   34.389800  118.336000
  C    -54.878700   34.199000  117.431000
  H    -54.756500   33.154100  117.556000
  H    -54.328200   34.450500  116.527000
  C    -54.250300   35.004700  118.466000
  H    -54.593300   34.767600  119.414000
  H    -53.195500   34.767900  118.454000
  H    -54.388900   36.119600  118.310000
  S    -58.682400   38.459500  112.981000
  C    -57.909100   38.893700  111.501000
  C    -56.530300   39.026400  111.652000
  C    -56.087200   38.513000  112.897000
  C    -57.132900   38.089800  113.695000
  H    -55.822200   39.286000  110.892000
  C    -54.657000   38.492900  113.260000
  H    -54.529800   38.386700  114.342000
  H    -54.284000   39.566200  113.204000
  C    -53.823000   37.491400  112.496000
  H    -52.815500   37.865000  112.458000
  H    -53.873800   37.434800  111.413000
  C    -53.771200   36.070400  113.054000
  H    -52.882600   35.541400  112.622000
  H    -54.648100   35.435900  112.820000
  H    -53.703400   36.043300  114.106000
  H    -57.063700   36.864700  118.637000
  H    -58.353800   39.309400  110.651000

 Total Charge           Charge          ....    0
 Multiplicity           Mult            ....    1
 Number of Electrons    NEL             ....  134
 Basis Dimension        Dim             ....  322

ORBITAL ENERGIES
----------------

  NO   OCC          E(Eh)            E(eV)
   0   2.0000     -88.966434     -2420.8997
   1   2.0000     -88.965882     -2420.8847
   2   2.0000     -10.331554      -281.1359
   3   2.0000     -10.321783      -280.8700
   4   2.0000     -10.319995      -280.8213
   5   2.0000     -10.312682      -280.6223
   6   2.0000     -10.300017      -280.2777
   7   2.0000     -10.298521      -280.2370
   8   2.0000     -10.296404      -280.1794
   9   2.0000     -10.293856      -280.1101
  10   2.0000     -10.292807      -280.0815
  11   2.0000     -10.289438      -279.9899
  12   2.0000     -10.284538      -279.8565
  13   2.0000     -10.279398      -279.7166
  14   2.0000     -10.279060      -279.7074
  15   2.0000     -10.268589      -279.4225
  16   2.0000      -8.081048      -219.8965
  17   2.0000      -8.079909      -219.8655
  18   2.0000      -6.039452      -164.3418
  19   2.0000      -6.038439      -164.3143
  20   2.0000      -6.035545      -164.2355
  21   2.0000      -6.034603      -164.2099
  22   2.0000      -6.031853      -164.1351
  23   2.0000      -6.030712      -164.1040
  24   2.0000      -1.004878       -27.3441
  25   2.0000      -0.981410       -26.7055
  26   2.0000      -0.915544       -24.9132
  27   2.0000      -0.914192       -24.8764
  28   2.0000      -0.867607       -23.6088
  29   2.0000      -0.853915       -23.2362
  30   2.0000      -0.845540       -23.0083
  31   2.0000      -0.812359       -22.1054
  32   2.0000      -0.783928       -21.3318
  33   2.0000      -0.772036       -21.0082
  34   2.0000      -0.712893       -19.3988
  35   2.0000      -0.702536       -19.1170
  36   2.0000      -0.690931       -18.8012
  37   2.0000      -0.662076       -18.0160
  38   2.0000      -0.636924       -17.3316
  39   2.0000      -0.616704       -16.7814
  40   2.0000      -0.601271       -16.3614
  41   2.0000      -0.573610       -15.6087
  42   2.0000      -0.558304       -15.1922
  43   2.0000      -0.553046       -15.0491
  44   2.0000      -0.540306       -14.7025
  45   2.0000      -0.530229       -14.4283
  46   2.0000      -0.519494       -14.1361
  47   2.0000      -0.515412       -14.0251
  48   2.0000      -0.500865       -13.6292
  49   2.0000      -0.494751       -13.4629
  50   2.0000      -0.485017       -13.1980
  51   2.0000      -0.478420       -13.0185
  52   2.0000      -0.470480       -12.8024
  53   2.0000      -0.465393       -12.6640
  54   2.0000      -0.463033       -12.5998
  55   2.0000      -0.450129       -12.2486
  56   2.0000      -0.445456       -12.1215
  57   2.0000      -0.443132       -12.0582
  58   2.0000      -0.433428       -11.7942
  59   2.0000      -0.424426       -11.5492
  60   2.0000      -0.419144       -11.4055
  61   2.0000      -0.411639       -11.2013
  62   2.0000      -0.405093       -11.0231
  63   2.0000      -0.334962        -9.1148
  64   2.0000      -0.329626        -8.9696
  65   2.0000      -0.324136        -8.8202
  66   2.0000      -0.304623        -8.2892
  67   0.0000       0.040796         1.1101
  68   0.0000       0.052416         1.4263
  69   0.0000       0.110455         3.0056
  70   0.0000       0.119692         3.2570
  71   0.0000       0.130920         3.5625

MULLIKEN ATOMIC CHARGES
-----------------------
   0 S :    0.103916
   1 C :   -0.143324
   2 C :   -0.089817
   3 C :    0.057561
   4 C :   -0.173681
   5 H :    0.000451
   6 C :    0.033324
   7 H :    0.032347
   8 H :    0.028264
   9 C :   -0.032520
  10 H :    0.019972
  11 H :    0.023307
  12 C :   -0.030429
  13 H :    0.002770
  14 H :    0.027149
  15 H :    0.047589
  16 S :    0.126542
  17 C :   -0.055250
  18 C :   -0.033079
  19 C :   -0.006635
  20 C :   -0.201114
  21 H :    0.011677
  22 C :    0.047499
  23 H :    0.025514
  24 H :    0.040983
  25 C :   -0.046015
  26 H :    0.008675
  27 H :    0.017829
  28 C :   -0.052865
  29 H :    0.036480
  30 H :    0.043091
  31 H :    0.021547
  32 H :    0.070349
  33 H :    0.037895
Sum of atomic charges:   -0.0000000

LOEWDIN ATOMIC CHARGES
----------------------
   0 S :    0.381335
   1 C :   -0.197959
   2 C :   -0.070464
   3 C :   -0.057512
   4 C :   -0.190369
   5 H :    0.030751
   6 C :   -0.029163
   7 H :    0.029271
   8 H :    0.034689
   9 C :   -0.041517
  10 H :    0.020952
  11 H :    0.025798
  12 C :   -0.061245
  13 H :    0.009750
  14 H :    0.027932
  15 H :    0.035401
  16 S :    0.425831
  17 C :   -0.182142
  18 C :   -0.064268
  19 C :   -0.054510
  20 C :   -0.213656
  21 H :    0.027812
  22 C :   -0.039891
  23 H :    0.034617
  24 H :    0.045007
  25 C :   -0.049475
  26 H :    0.025935
  27 H :    0.026890
  28 C :   -0.063009
  29 H :    0.033975
  30 H :    0.025115
  31 H :    0.014931
  32 H :    0.040479
  33 H :    0.018708

  Mayer bond orders larger than 0.100000
B(  0-S ,  1-C ) :   1.1353 B(  0-S ,  4-C ) :   1.1519 B(  1-C ,  2-C ) :   1.6015
B(  1-C ,  4-C ) :   0.1072 B(  1-C , 32-H ) :   0.9572 B(  2-C ,  3-C ) :   1.2594
B(  2-C ,  6-C ) :   1.0130 B(  3-C ,  4-C ) :   1.5710 B(  3-C ,  5-H ) :   0.9961
B(  4-C , 20-C ) :   1.0162 B(  6-C ,  7-H ) :   0.9431 B(  6-C ,  8-H ) :   0.9474
B(  6-C ,  9-C ) :   1.0622 B(  9-C , 10-H ) :   0.9505 B(  9-C , 11-H ) :   0.9560
B(  9-C , 12-C ) :   1.0890 B( 12-C , 13-H ) :   0.9715 B( 12-C , 14-H ) :   0.9671
B( 12-C , 15-H ) :   0.9699 B( 16-S , 17-C ) :   1.1719 B( 16-S , 20-C ) :   1.1453
B( 17-C , 18-C ) :   1.5866 B( 17-C , 33-H ) :   0.9701 B( 18-C , 19-C ) :   1.2645
B( 18-C , 21-H ) :   0.9865 B( 19-C , 20-C ) :   1.5904 B( 19-C , 22-C ) :   1.0539
B( 22-C , 23-H ) :   0.9278 B( 22-C , 24-H ) :   0.9346 B( 22-C , 25-C ) :   1.0588
B( 25-C , 26-H ) :   0.9445 B( 25-C , 27-H ) :   0.9541 B( 25-C , 28-C ) :   1.0830
B( 28-C , 29-H ) :   0.9694 B( 28-C , 30-H ) :   0.9716 B( 28-C , 31-H ) :   0.9741

Dispersion correction           -0.015909740
FINAL SINGLE POINT ENERGY     -1339.874476211283

DIPOLE MOMENT
-------------
                                X             Y             Z
Electronic contribution:    -23.52272      16.43869      -4.99270
Nuclear contribution   :     24.25954     -16.74701       4.89151
                        -----------------------------------------
Total Dipole Moment    :      0.73682      -0.30832      -0.10119
                        -----------------------------------------
Magnitude (a.u.)       :      0.80511
Magnitude (Debye)      :      2.04643

Rotational constants in cm-1:     0.020647     0.009291     0.007310
Rotational constants in MHz :   618.969794   278.547785   219.159756

                             ****ORCA TERMINATED NORMALLY****
TOTAL RUN TIME: 0 days 0 hours 0 minutes 32 seconds 433 msec
