                         Program Version 4.2.1 -  RELEASE  -
|  1> ! wB97X-D3 SP def2-SVP
|  2> %pal
|  3> nprocs 16
|  4> end
|  5>
|  6> * xyz 0 1
|  7> S 	 7.70251 	 -26.6453 	 85.6738
|  8> C 	 6.08112 	 -26.06 	 85.5449
|  9> C 	 5.89509 	 -25.2584 	 84.3884
| 10> C 	 7.1168 	 -25.2408 	 83.606
| 11> C 	 8.11066 	 -26.0379 	 84.0996
| 12> H 	 7.28451 	 -24.6813 	 82.6895
| 13> C 	 4.73036 	 -24.3332 	 84.0818
| 14> H 	 4.14965 	 -24.2113 	 84.9762
| 15> H 	 4.15076 	 -24.7594 	 83.271
| 16> C 	 5.18431 	 -22.9778 	 83.6072
| 17> H 	 5.77289 	 -22.4416 	 84.4212
| 18> H 	 5.99389 	 -23.1276 	 82.8437
| 19> C 	 4.13701 	 -22.0636 	 83.0413
| 20> H 	 4.66831 	 -21.1979 	 82.7735
| 21> H 	 3.55096 	 -22.4986 	 82.1759
| 22> H 	 3.3501 	 -21.7468 	 83.7637
| 23> S 	 10.195 	 -27.692 	 83.8287
| 24> C 	 11.4864 	 -27.3651 	 82.6616
| 25> C 	 11.1368 	 -26.2651 	 81.9124
| 26> C 	 9.97252 	 -25.5462 	 82.3848
| 27> C 	 9.33529 	 -26.291 	 83.3839
| 28> H 	 11.8312 	 -26.0037 	 81.0819
| 29> C 	 9.62121 	 -24.236 	 81.795
| 30> H 	 10.5401 	 -23.7013 	 81.6578
| 31> H 	 9.02863 	 -23.6903 	 82.54
| 32> C 	 8.89698 	 -24.1868 	 80.4196
| 33> H 	 8.07262 	 -24.8986 	 80.2571
| 34> H 	 9.56896 	 -24.4282 	 79.6183
| 35> C 	 8.31372 	 -22.812 	 79.9628
| 36> H 	 7.75733 	 -22.832 	 79.0983
| 37> H 	 9.04279 	 -21.9911 	 79.8253
| 38> H 	 7.60806 	 -22.472 	 80.8017
| 39> H 	 5.25812 	 -26.2873 	 86.2825
| 40> H 	 12.4045 	 -27.8908 	 82.7645
| 41> *
| 42>
| 43>                          ****END OF INPUT****

CARTESIAN COORDINATES (ANGSTROEM)
---------------------------------
  S      7.702510  -26.645300   85.673800
  C      6.081120  -26.060000   85.544900
  C      5.895090  -25.258400   84.388400
  C      7.116800  -25.240800   83.606000
  C      8.110660  -26.037900   84.099600
  H      7.284510  -24.681300   82.689500
  C      4.730360  -24.333200   84.081800
  H      4.149650  -24.211300   84.976200
  H      4.150760  -24.759400   83.271000
  C      5.184310  -22.977800   83.607200
  H      5.772890  -22.441600   84.421200
  H      5.993890  -23.127600   82.843700
  C      4.137010  -22.063600   83.041300
  H      4.668310  -21.197900   82.773500
  H      3.550960  -22.498600   82.175900
  H      3.350100  -21.746800   83.763700
  S     10.195000  -27.692000   83.828700
  C     11.486400  -27.365100   82.661600
  C     11.136800  -26.265100   81.912400
  C      9.972520  -25.546200   82.384800
  C      9.335290  -26.291000   83.383900
  H     11.831200  -26.003700   81.081900
  C      9.621210  -24.236000   81.795000
  H     10.540100  -23.701300   81.657800
  H      9.028630  -23.690300   82.540000
  C      8.896980  -24.186800   80.419600
  H      8.072620  -24.898600   80.257100
  H      9.568960  -24.428200   79.618300
  C      8.313720  -22.812000   79.962800
  H      7.757330  -22.832000   79.098300
  H      9.042790  -21.991100   79.825300
  H      7.608060  -22.472000   80.801700
  H      5.258120  -26.287300   86.282500
  H     12.404500  -27.890800   82.764500

 Total Charge           Charge          ....    0
 Multiplicity           Mult            ....    1
 Number of Electrons    NEL             ....  134
 Basis Dimension        Dim             ....  322

ORBITAL ENERGIES
----------------

  NO   OCC          E(Eh)            E(eV)
   0   2.0000     -88.969335     -2420.9787
   1   2.0000     -88.961090     -2420.7543
   2   2.0000     -10.325904      -280.9821
   3   2.0000     -10.324463      -280.9429
   4   2.0000     -10.320518      -280.8356
   5   2.0000     -10.315046      -280.6867
   6   2.0000     -10.306160      -280.4449
   7   2.0000     -10.304659      -280.4040
   8   2.0000     -10.299507      -280.2638
   9   2.0000     -10.295637      -280.1585
  10   2.0000     -10.292897      -280.0840
  11   2.0000     -10.291152      -280.0365
  12   2.0000     -10.290858      -280.0285
  13   2.0000     -10.289493      -279.9914
  14   2.0000     -10.284057      -279.8434
  15   2.0000     -10.281306      -279.7686
  16   2.0000      -8.084301      -219.9850
  17   2.0000      -8.076912      -219.7839
  18   2.0000      -6.042853      -164.4344
  19   2.0000      -6.038811      -164.3244
  20   2.0000      -6.035374      -164.2309
  21   2.0000      -6.034976      -164.2200
  22   2.0000      -6.031198      -164.1172
  23   2.0000      -6.027725      -164.0227
  24   2.0000      -1.011924       -27.5359
  25   2.0000      -0.984673       -26.7943
  26   2.0000      -0.918372       -24.9902
  27   2.0000      -0.909884       -24.7592
  28   2.0000      -0.872930       -23.7536
  29   2.0000      -0.856048       -23.2942
  30   2.0000      -0.847275       -23.0555
  31   2.0000      -0.816468       -22.2172
  32   2.0000      -0.784088       -21.3361
  33   2.0000      -0.773972       -21.0608
  34   2.0000      -0.710649       -19.3377
  35   2.0000      -0.700148       -19.0520
  36   2.0000      -0.688143       -18.7253
  37   2.0000      -0.665667       -18.1137
  38   2.0000      -0.635095       -17.2818
  39   2.0000      -0.626128       -17.0378
  40   2.0000      -0.599757       -16.3202
  41   2.0000      -0.573118       -15.5953
  42   2.0000      -0.564784       -15.3686
  43   2.0000      -0.557935       -15.1822
  44   2.0000      -0.531735       -14.4692
  45   2.0000      -0.527115       -14.3435
  46   2.0000      -0.519439       -14.1346
  47   2.0000      -0.516534       -14.0556
  48   2.0000      -0.505523       -13.7560
  49   2.0000      -0.499043       -13.5796
  50   2.0000      -0.494338       -13.4516
  51   2.0000      -0.485137       -13.2012
  52   2.0000      -0.473706       -12.8902
  53   2.0000      -0.470653       -12.8071
  54   2.0000      -0.460065       -12.5190
  55   2.0000      -0.451842       -12.2952
  56   2.0000      -0.447722       -12.1831
  57   2.0000      -0.438262       -11.9257
  58   2.0000      -0.434043       -11.8109
  59   2.0000      -0.427850       -11.6424
  60   2.0000      -0.419071       -11.4035
  61   2.0000      -0.415776       -11.3138
  62   2.0000      -0.408932       -11.1276
  63   2.0000      -0.358643        -9.7592
  64   2.0000      -0.331542        -9.0217
  65   2.0000      -0.325462        -8.8563
  66   2.0000      -0.282461        -7.6862
  67   0.0000       0.021835         0.5942
  68   0.0000       0.088472         2.4074
  69   0.0000       0.101634         2.7656
  70   0.0000       0.112768         3.0686
  71   0.0000       0.120782         3.2866

MULLIKEN ATOMIC CHARGES
-----------------------
   0 S :    0.127872
   1 C :   -0.153719
   2 C :   -0.082085
   3 C :   -0.030391
   4 C :   -0.099827
   5 H :    0.000829
   6 C :    0.142390
   7 H :    0.018635
   8 H :    0.028741
   9 C :   -0.164915
  10 H :    0.037449
  11 H :    0.029075
  12 C :   -0.024496
  13 H :    0.027435
  14 H :    0.038025
  15 H :    0.033699
  16 S :    0.085214
  17 C :   -0.104823
  18 C :   -0.035617
  19 C :   -0.052769
  20 C :   -0.121149
  21 H :    0.036783
  22 C :    0.074168
  23 H :    0.023785
  24 H :    0.023411
  25 C :   -0.074734
  26 H :    0.038576
  27 H :    0.021086
  28 C :   -0.060753
  29 H :    0.024658
  30 H :    0.034027
  31 H :    0.028208
  32 H :    0.072021
  33 H :    0.059191
Sum of atomic charges:   -0.0000000

LOEWDIN ATOMIC CHARGES
----------------------
   0 S :    0.418650
   1 C :   -0.218008
   2 C :   -0.056299
   3 C :   -0.067036
   4 C :   -0.199359
   5 H :    0.028953
   6 C :   -0.029905
   7 H :    0.028258
   8 H :    0.032876
   9 C :   -0.052569
  10 H :    0.032071
  11 H :    0.023197
  12 C :   -0.066784
  13 H :    0.023497
  14 H :    0.031153
  15 H :    0.028039
  16 S :    0.408576
  17 C :   -0.180115
  18 C :   -0.066593
  19 C :   -0.064438
  20 C :   -0.197975
  21 H :    0.039012
  22 C :   -0.034610
  23 H :    0.034936
  24 H :    0.030548
  25 C :   -0.043503
  26 H :    0.027510
  27 H :    0.021511
  28 C :   -0.065203
  29 H :    0.015261
  30 H :    0.025808
  31 H :    0.027175
  32 H :    0.041178
  33 H :    0.024188

  Mayer bond orders larger than 0.100000
B(  0-S ,  1-C ) :   1.1439 B(  0-S ,  4-C ) :   1.1382 B(  1-C ,  2-C ) :   1.5976
B(  1-C , 32-H ) :   0.9598 B(  2-C ,  3-C ) :   1.2398 B(  2-C ,  6-C ) :   1.0262
B(  3-C ,  4-C ) :   1.5734 B(  3-C ,  5-H ) :   0.9846 B(  4-C , 20-C ) :   1.0872
B(  6-C ,  7-H ) :   0.9418 B(  6-C ,  8-H ) :   0.9221 B(  6-C ,  9-C ) :   1.0772
B(  9-C , 10-H ) :   0.9481 B(  9-C , 11-H ) :   0.9444 B(  9-C , 12-C ) :   1.0948
B( 12-C , 13-H ) :   0.9689 B( 12-C , 14-H ) :   0.9704 B( 12-C , 15-H ) :   0.9718
B( 16-S , 17-C ) :   1.1386 B( 16-S , 20-C ) :   1.1539 B( 17-C , 18-C ) :   1.6071
B( 17-C , 33-H ) :   0.9772 B( 18-C , 19-C ) :   1.2327 B( 18-C , 21-H ) :   0.9828
B( 19-C , 20-C ) :   1.5575 B( 19-C , 22-C ) :   1.0646 B( 22-C , 23-H ) :   0.9194
B( 22-C , 24-H ) :   0.9326 B( 22-C , 25-C ) :   1.0504 B( 25-C , 26-H ) :   0.9578
B( 25-C , 27-H ) :   0.9511 B( 25-C , 28-C ) :   1.0812 B( 28-C , 29-H ) :   0.9741
B( 28-C , 30-H ) :   0.9746 B( 28-C , 31-H ) :   0.9739

Dispersion correction           -0.014611865
FINAL SINGLE POINT ENERGY     -1339.876418965647

DIPOLE MOMENT
-------------
                                X             Y             Z
Electronic contribution:     14.56619     -26.21233      17.77512
Nuclear contribution   :    -14.70065      26.80137     -18.20436
                        -----------------------------------------
Total Dipole Moment    :     -0.13447       0.58904      -0.42924
                        -----------------------------------------
Magnitude (a.u.)       :      0.74114
Magnitude (Debye)      :      1.88384

Rotational constants in cm-1:     0.016918     0.010465     0.006639
Rotational constants in MHz :   507.186945   313.719950   199.033546

                             ****ORCA TERMINATED NORMALLY****
TOTAL RUN TIME: 0 days 0 hours 0 minutes 33 seconds 293 msec
