                         Program Version 4.2.1 -  RELEASE  -
|  1> ! wB97X-D3 SP def2-SVP
|  2> %pal
|  3> nprocs 16
|  4> end
|  5>
|  6> * xyz 0 1
|  7> S 	 -99.3127 	 48.7841 	 118.926
|  8> C 	 -100.889 	 48.3679 	 119.497
|  9> C 	 -101.96 	 48.9662 	 118.88
| 10> C 	 -101.51 	 49.9618 	 117.995
| 11> C 	 -100.117 	 50.0689 	 118.025
| 12> H 	 -102.078 	 50.6145 	 117.401
| 13> C 	 -103.419 	 48.6342 	 119.148
| 14> H 	 -103.962 	 49.477 	 119.5
| 15> H 	 -103.58 	 47.9852 	 120.007
| 16> C 	 -104.02 	 47.9859 	 117.868
| 17> H 	 -103.801 	 48.4956 	 116.954
| 18> H 	 -103.588 	 46.9589 	 117.787
| 19> C 	 -105.509 	 47.8081 	 118.039
| 20> H 	 -105.869 	 47.6601 	 117.064
| 21> H 	 -105.764 	 46.9428 	 118.715
| 22> H 	 -105.956 	 48.7374 	 118.405
| 23> S 	 -98.1288 	 49.9858 	 116.152
| 24> C 	 -97.642 	 51.3689 	 115.322
| 25> C 	 -98.4297 	 52.4562 	 115.582
| 26> C 	 -99.4199 	 52.2454 	 116.637
| 27> C 	 -99.3287 	 50.9415 	 117.088
| 28> H 	 -98.3537 	 53.2724 	 114.937
| 29> C 	 -100.473 	 53.2033 	 117.111
| 30> H 	 -100.048 	 54.1844 	 117.25
| 31> H 	 -100.779 	 52.902 	 118.115
| 32> C 	 -101.717 	 53.324 	 116.216
| 33> H 	 -102.334 	 54.0392 	 116.72
| 34> H 	 -102.286 	 52.4236 	 116.357
| 35> C 	 -101.482 	 53.6125 	 114.742
| 36> H 	 -100.873 	 52.8828 	 114.263
| 37> H 	 -101.028 	 54.5483 	 114.464
| 38> H 	 -102.485 	 53.5303 	 114.225
| 39> H 	 -101.003 	 47.498 	 120.099
| 40> H 	 -96.9166 	 51.3399 	 114.545
| 41> *
| 42>
| 43>                          ****END OF INPUT****

CARTESIAN COORDINATES (ANGSTROEM)
---------------------------------
  S    -99.312700   48.784100  118.926000
  C    -100.889000   48.367900  119.497000
  C    -101.960000   48.966200  118.880000
  C    -101.510000   49.961800  117.995000
  C    -100.117000   50.068900  118.025000
  H    -102.078000   50.614500  117.401000
  C    -103.419000   48.634200  119.148000
  H    -103.962000   49.477000  119.500000
  H    -103.580000   47.985200  120.007000
  C    -104.020000   47.985900  117.868000
  H    -103.801000   48.495600  116.954000
  H    -103.588000   46.958900  117.787000
  C    -105.509000   47.808100  118.039000
  H    -105.869000   47.660100  117.064000
  H    -105.764000   46.942800  118.715000
  H    -105.956000   48.737400  118.405000
  S    -98.128800   49.985800  116.152000
  C    -97.642000   51.368900  115.322000
  C    -98.429700   52.456200  115.582000
  C    -99.419900   52.245400  116.637000
  C    -99.328700   50.941500  117.088000
  H    -98.353700   53.272400  114.937000
  C    -100.473000   53.203300  117.111000
  H    -100.048000   54.184400  117.250000
  H    -100.779000   52.902000  118.115000
  C    -101.717000   53.324000  116.216000
  H    -102.334000   54.039200  116.720000
  H    -102.286000   52.423600  116.357000
  C    -101.482000   53.612500  114.742000
  H    -100.873000   52.882800  114.263000
  H    -101.028000   54.548300  114.464000
  H    -102.485000   53.530300  114.225000
  H    -101.003000   47.498000  120.099000
  H    -96.916600   51.339900  114.545000

 Total Charge           Charge          ....    0
 Multiplicity           Mult            ....    1
 Number of Electrons    NEL             ....  134
 Basis Dimension        Dim             ....  322

ORBITAL ENERGIES
----------------

  NO   OCC          E(Eh)            E(eV)
   0   2.0000     -88.969820     -2420.9919
   1   2.0000     -88.958438     -2420.6822
   2   2.0000     -10.331199      -281.1262
   3   2.0000     -10.326284      -280.9925
   4   2.0000     -10.306290      -280.4484
   5   2.0000     -10.305314      -280.4219
   6   2.0000     -10.303505      -280.3726
   7   2.0000     -10.298160      -280.2272
   8   2.0000     -10.291782      -280.0536
   9   2.0000     -10.291234      -280.0387
  10   2.0000     -10.288494      -279.9642
  11   2.0000     -10.287714      -279.9429
  12   2.0000     -10.286433      -279.9081
  13   2.0000     -10.285436      -279.8810
  14   2.0000     -10.278278      -279.6862
  15   2.0000     -10.275954      -279.6229
  16   2.0000      -8.084652      -219.9946
  17   2.0000      -8.074177      -219.7095
  18   2.0000      -6.042871      -164.4349
  19   2.0000      -6.039463      -164.3421
  20   2.0000      -6.035404      -164.2317
  21   2.0000      -6.032575      -164.1547
  22   2.0000      -6.028618      -164.0470
  23   2.0000      -6.024920      -163.9464
  24   2.0000      -1.005953       -27.3734
  25   2.0000      -0.985404       -26.8142
  26   2.0000      -0.914269       -24.8785
  27   2.0000      -0.913079       -24.8461
  28   2.0000      -0.865123       -23.5412
  29   2.0000      -0.857521       -23.3343
  30   2.0000      -0.845518       -23.0077
  31   2.0000      -0.813888       -22.1470
  32   2.0000      -0.789385       -21.4803
  33   2.0000      -0.772464       -21.0198
  34   2.0000      -0.710007       -19.3203
  35   2.0000      -0.699953       -19.0467
  36   2.0000      -0.688798       -18.7431
  37   2.0000      -0.664402       -18.0793
  38   2.0000      -0.643974       -17.5234
  39   2.0000      -0.624760       -17.0006
  40   2.0000      -0.595387       -16.2013
  41   2.0000      -0.566878       -15.4255
  42   2.0000      -0.563761       -15.3407
  43   2.0000      -0.553292       -15.0558
  44   2.0000      -0.542268       -14.7559
  45   2.0000      -0.530760       -14.4427
  46   2.0000      -0.519190       -14.1279
  47   2.0000      -0.508187       -13.8285
  48   2.0000      -0.506172       -13.7736
  49   2.0000      -0.496043       -13.4980
  50   2.0000      -0.486690       -13.2435
  51   2.0000      -0.481342       -13.0980
  52   2.0000      -0.472880       -12.8677
  53   2.0000      -0.466374       -12.6907
  54   2.0000      -0.459330       -12.4990
  55   2.0000      -0.456139       -12.4122
  56   2.0000      -0.447930       -12.1888
  57   2.0000      -0.437796       -11.9130
  58   2.0000      -0.433493       -11.7959
  59   2.0000      -0.431389       -11.7387
  60   2.0000      -0.423982       -11.5371
  61   2.0000      -0.417448       -11.3593
  62   2.0000      -0.413656       -11.2562
  63   2.0000      -0.346475        -9.4281
  64   2.0000      -0.333586        -9.0773
  65   2.0000      -0.325839        -8.8665
  66   2.0000      -0.287838        -7.8325
  67   0.0000       0.032261         0.8779
  68   0.0000       0.072228         1.9654
  69   0.0000       0.104500         2.8436
  70   0.0000       0.125570         3.4169
  71   0.0000       0.135129         3.6770

MULLIKEN ATOMIC CHARGES
-----------------------
   0 S :    0.117520
   1 C :   -0.101266
   2 C :   -0.054600
   3 C :    0.050575
   4 C :   -0.135233
   5 H :   -0.036308
   6 C :    0.087818
   7 H :    0.018337
   8 H :    0.009731
   9 C :   -0.114331
  10 H :    0.033252
  11 H :    0.036734
  12 C :   -0.013991
  13 H :    0.019984
  14 H :    0.044385
  15 H :    0.023279
  16 S :    0.084357
  17 C :   -0.063942
  18 C :   -0.031420
  19 C :   -0.047930
  20 C :   -0.159583
  21 H :   -0.006186
  22 C :    0.069571
  23 H :    0.018569
  24 H :    0.025107
  25 C :   -0.028318
  26 H :    0.020548
  27 H :    0.009836
  28 C :   -0.050108
  29 H :    0.035673
  30 H :    0.029582
  31 H :    0.037446
  32 H :    0.028403
  33 H :    0.042508
Sum of atomic charges:    0.0000000

LOEWDIN ATOMIC CHARGES
----------------------
   0 S :    0.410561
   1 C :   -0.197602
   2 C :   -0.057964
   3 C :   -0.049216
   4 C :   -0.186783
   5 H :    0.018819
   6 C :   -0.027525
   7 H :    0.023554
   8 H :    0.030330
   9 C :   -0.037047
  10 H :    0.019650
  11 H :    0.032466
  12 C :   -0.063630
  13 H :    0.019624
  14 H :    0.032742
  15 H :    0.022273
  16 S :    0.397690
  17 C :   -0.196451
  18 C :   -0.069622
  19 C :   -0.057436
  20 C :   -0.175146
  21 H :    0.018650
  22 C :   -0.031703
  23 H :    0.027753
  24 H :    0.034149
  25 C :   -0.034484
  26 H :    0.024030
  27 H :    0.018131
  28 C :   -0.066539
  29 H :    0.023470
  30 H :    0.022217
  31 H :    0.037084
  32 H :    0.015485
  33 H :    0.022470

  Mayer bond orders larger than 0.100000
B(  0-S ,  1-C ) :   1.1387 B(  0-S ,  4-C ) :   1.1622 B(  1-C ,  2-C ) :   1.6240
B(  1-C , 32-H ) :   0.9624 B(  2-C ,  3-C ) :   1.2431 B(  2-C ,  6-C ) :   1.0212
B(  3-C ,  4-C ) :   1.5554 B(  3-C ,  5-H ) :   1.0041 B(  4-C , 20-C ) :   1.0126
B(  6-C ,  7-H ) :   0.9431 B(  6-C ,  8-H ) :   0.9396 B(  6-C ,  9-C ) :   1.0471
B(  9-C , 10-H ) :   0.9681 B(  9-C , 11-H ) :   0.9520 B(  9-C , 12-C ) :   1.0856
B( 12-C , 13-H ) :   0.9721 B( 12-C , 14-H ) :   0.9736 B( 12-C , 15-H ) :   0.9741
B( 16-S , 17-C ) :   1.1549 B( 16-S , 20-C ) :   1.1373 B( 17-C , 18-C ) :   1.6307
B( 17-C , 33-H ) :   0.9692 B( 18-C , 19-C ) :   1.1920 B( 18-C , 21-H ) :   1.0007
B( 19-C , 20-C ) :   1.6407 B( 19-C , 22-C ) :   1.0551 B( 22-C , 23-H ) :   0.9295
B( 22-C , 24-H ) :   0.9276 B( 22-C , 25-C ) :   1.0777 B( 25-C , 26-H ) :   0.9476
B( 25-C , 27-H ) :   0.9481 B( 25-C , 28-C ) :   1.0816 B( 28-C , 29-H ) :   0.9685
B( 28-C , 30-H ) :   0.9764 B( 28-C , 31-H ) :   0.9700

Dispersion correction           -0.014591679
FINAL SINGLE POINT ENERGY     -1339.875880959934

DIPOLE MOMENT
-------------
                                X             Y             Z
Electronic contribution:     27.47261      -7.07771       4.75832
Nuclear contribution   :    -28.16940       7.21000      -5.00040
                        -----------------------------------------
Total Dipole Moment    :     -0.69679       0.13229      -0.24208
                        -----------------------------------------
Magnitude (a.u.)       :      0.74941
Magnitude (Debye)      :      1.90485

Rotational constants in cm-1:     0.018374     0.009017     0.006826
Rotational constants in MHz :   550.840595   270.316576   204.647993

                             ****ORCA TERMINATED NORMALLY****
TOTAL RUN TIME: 0 days 0 hours 0 minutes 33 seconds 382 msec
