                         Program Version 4.2.1 -  RELEASE  -
|  1> ! wB97X-D3 SP def2-SVP
|  2> %pal
|  3> nprocs 16
|  4> end
|  5>
|  6> * xyz 0 1
|  7> S 	 -0.942286 	 -12.3086 	 75.4955
|  8> C 	 -2.53835 	 -12.8451 	 74.9405
|  9> C 	 -3.44005 	 -12.9248 	 76.0244
| 10> C 	 -2.77157 	 -12.557 	 77.252
| 11> C 	 -1.43667 	 -12.2812 	 77.1307
| 12> H 	 -3.28931 	 -12.5703 	 78.2202
| 13> C 	 -4.94187 	 -13.2564 	 75.8632
| 14> H 	 -5.54029 	 -12.7813 	 76.6434
| 15> H 	 -5.05245 	 -14.2821 	 75.9931
| 16> C 	 -5.59529 	 -12.9666 	 74.4956
| 17> H 	 -5.14542 	 -13.5504 	 73.6668
| 18> H 	 -6.63176 	 -13.199 	 74.5323
| 19> C 	 -5.52926 	 -11.4985 	 74.0647
| 20> H 	 -4.50794 	 -11.2004 	 74.0093
| 21> H 	 -5.89355 	 -11.2897 	 73.1245
| 22> H 	 -5.94629 	 -10.7905 	 74.7585
| 23> S 	 0.208289 	 -12.892 	 79.2282
| 24> C 	 0.921429 	 -11.5254 	 80.0831
| 25> C 	 0.311269 	 -10.3251 	 79.8047
| 26> C 	 -0.639757 	 -10.534 	 78.7596
| 27> C 	 -0.584027 	 -11.8113 	 78.2161
| 28> H 	 0.563185 	 -9.50568 	 80.4494
| 29> C 	 -1.46374 	 -9.35668 	 78.199
| 30> H 	 -1.72328 	 -9.59788 	 77.1819
| 31> H 	 -0.729387 	 -8.51359 	 78.0699
| 32> C 	 -2.60232 	 -8.98447 	 79.1099
| 33> H 	 -2.27432 	 -9.19338 	 80.1436
| 34> H 	 -3.44948 	 -9.6109 	 78.9423
| 35> C 	 -3.15138 	 -7.49166 	 79.0162
| 36> H 	 -3.62913 	 -7.18175 	 79.9044
| 37> H 	 -3.94434 	 -7.43641 	 78.254
| 38> H 	 -2.39745 	 -6.68712 	 78.8716
| 39> H 	 -2.74131 	 -12.9811 	 73.8727
| 40> H 	 1.5559 	 -11.5846 	 80.9099
| 41> *
| 42>
| 43>                          ****END OF INPUT****

CARTESIAN COORDINATES (ANGSTROEM)
---------------------------------
  S     -0.942286  -12.308600   75.495500
  C     -2.538350  -12.845100   74.940500
  C     -3.440050  -12.924800   76.024400
  C     -2.771570  -12.557000   77.252000
  C     -1.436670  -12.281200   77.130700
  H     -3.289310  -12.570300   78.220200
  C     -4.941870  -13.256400   75.863200
  H     -5.540290  -12.781300   76.643400
  H     -5.052450  -14.282100   75.993100
  C     -5.595290  -12.966600   74.495600
  H     -5.145420  -13.550400   73.666800
  H     -6.631760  -13.199000   74.532300
  C     -5.529260  -11.498500   74.064700
  H     -4.507940  -11.200400   74.009300
  H     -5.893550  -11.289700   73.124500
  H     -5.946290  -10.790500   74.758500
  S      0.208289  -12.892000   79.228200
  C      0.921429  -11.525400   80.083100
  C      0.311269  -10.325100   79.804700
  C     -0.639757  -10.534000   78.759600
  C     -0.584027  -11.811300   78.216100
  H      0.563185   -9.505680   80.449400
  C     -1.463740   -9.356680   78.199000
  H     -1.723280   -9.597880   77.181900
  H     -0.729387   -8.513590   78.069900
  C     -2.602320   -8.984470   79.109900
  H     -2.274320   -9.193380   80.143600
  H     -3.449480   -9.610900   78.942300
  C     -3.151380   -7.491660   79.016200
  H     -3.629130   -7.181750   79.904400
  H     -3.944340   -7.436410   78.254000
  H     -2.397450   -6.687120   78.871600
  H     -2.741310  -12.981100   73.872700
  H      1.555900  -11.584600   80.909900

 Total Charge           Charge          ....    0
 Multiplicity           Mult            ....    1
 Number of Electrons    NEL             ....  134
 Basis Dimension        Dim             ....  322

ORBITAL ENERGIES
----------------

  NO   OCC          E(Eh)            E(eV)
   0   2.0000     -88.966026     -2420.8886
   1   2.0000     -88.965696     -2420.8797
   2   2.0000     -10.322482      -280.8890
   3   2.0000     -10.319565      -280.8096
   4   2.0000     -10.316967      -280.7389
   5   2.0000     -10.309788      -280.5436
   6   2.0000     -10.309449      -280.5344
   7   2.0000     -10.301091      -280.3069
   8   2.0000     -10.294723      -280.1337
   9   2.0000     -10.293678      -280.1052
  10   2.0000     -10.291932      -280.0577
  11   2.0000     -10.288416      -279.9620
  12   2.0000     -10.287026      -279.9242
  13   2.0000     -10.286429      -279.9080
  14   2.0000     -10.279091      -279.7083
  15   2.0000     -10.261384      -279.2265
  16   2.0000      -8.081585      -219.9111
  17   2.0000      -8.080893      -219.8923
  18   2.0000      -6.039854      -164.3528
  19   2.0000      -6.039308      -164.3379
  20   2.0000      -6.036219      -164.2539
  21   2.0000      -6.035281      -164.2283
  22   2.0000      -6.032234      -164.1454
  23   2.0000      -6.031844      -164.1348
  24   2.0000      -1.012589       -27.5539
  25   2.0000      -0.985919       -26.8282
  26   2.0000      -0.911979       -24.8162
  27   2.0000      -0.902918       -24.5696
  28   2.0000      -0.869784       -23.6680
  29   2.0000      -0.847976       -23.0746
  30   2.0000      -0.844127       -22.9699
  31   2.0000      -0.813518       -22.1370
  32   2.0000      -0.790355       -21.5066
  33   2.0000      -0.772133       -21.0108
  34   2.0000      -0.706222       -19.2173
  35   2.0000      -0.702396       -19.1132
  36   2.0000      -0.694475       -18.8976
  37   2.0000      -0.659524       -17.9466
  38   2.0000      -0.642089       -17.4721
  39   2.0000      -0.613504       -16.6943
  40   2.0000      -0.592144       -16.1131
  41   2.0000      -0.578549       -15.7431
  42   2.0000      -0.558906       -15.2086
  43   2.0000      -0.558480       -15.1970
  44   2.0000      -0.541317       -14.7300
  45   2.0000      -0.518322       -14.1043
  46   2.0000      -0.515060       -14.0155
  47   2.0000      -0.512138       -13.9360
  48   2.0000      -0.507856       -13.8195
  49   2.0000      -0.495054       -13.4711
  50   2.0000      -0.488974       -13.3057
  51   2.0000      -0.473611       -12.8876
  52   2.0000      -0.469701       -12.7812
  53   2.0000      -0.464994       -12.6531
  54   2.0000      -0.463353       -12.6085
  55   2.0000      -0.451070       -12.2742
  56   2.0000      -0.440718       -11.9925
  57   2.0000      -0.437052       -11.8928
  58   2.0000      -0.436168       -11.8687
  59   2.0000      -0.430670       -11.7191
  60   2.0000      -0.418691       -11.3932
  61   2.0000      -0.418152       -11.3785
  62   2.0000      -0.413259       -11.2454
  63   2.0000      -0.337489        -9.1835
  64   2.0000      -0.330559        -8.9950
  65   2.0000      -0.316785        -8.6201
  66   2.0000      -0.310424        -8.4471
  67   0.0000       0.048817         1.3284
  68   0.0000       0.054148         1.4734
  69   0.0000       0.109376         2.9763
  70   0.0000       0.117979         3.2104
  71   0.0000       0.132116         3.5951

MULLIKEN ATOMIC CHARGES
-----------------------
   0 S :    0.117964
   1 C :   -0.147711
   2 C :   -0.103535
   3 C :    0.032983
   4 C :   -0.182921
   5 H :    0.019185
   6 C :    0.117847
   7 H :    0.025458
   8 H :    0.028847
   9 C :   -0.096126
  10 H :    0.031962
  11 H :    0.026775
  12 C :   -0.007067
  13 H :    0.008575
  14 H :    0.011790
  15 H :    0.017436
  16 S :    0.126512
  17 C :   -0.069708
  18 C :   -0.027883
  19 C :   -0.051475
  20 C :   -0.160384
  21 H :    0.021130
  22 C :    0.092913
  23 H :    0.022700
  24 H :    0.030407
  25 C :   -0.063176
  26 H :    0.030161
  27 H :    0.023275
  28 C :   -0.052348
  29 H :    0.018128
  30 H :    0.035114
  31 H :    0.034097
  32 H :    0.063205
  33 H :    0.025870
Sum of atomic charges:    0.0000000

LOEWDIN ATOMIC CHARGES
----------------------
   0 S :    0.421016
   1 C :   -0.197867
   2 C :   -0.056431
   3 C :   -0.066292
   4 C :   -0.215040
   5 H :    0.033958
   6 C :   -0.023578
   7 H :    0.032559
   8 H :    0.028907
   9 C :   -0.036507
  10 H :    0.026198
  11 H :    0.023000
  12 C :   -0.062316
  13 H :    0.020026
  14 H :    0.014584
  15 H :    0.022618
  16 S :    0.433021
  17 C :   -0.170425
  18 C :   -0.065288
  19 C :   -0.047933
  20 C :   -0.234192
  21 H :    0.035106
  22 C :   -0.032068
  23 H :    0.024642
  24 H :    0.034440
  25 C :   -0.037419
  26 H :    0.025404
  27 H :    0.022996
  28 C :   -0.069001
  29 H :    0.019282
  30 H :    0.027076
  31 H :    0.027234
  32 H :    0.028725
  33 H :    0.013564

  Mayer bond orders larger than 0.100000
B(  0-S ,  1-C ) :   1.1484 B(  0-S ,  4-C ) :   1.1666 B(  1-C ,  2-C ) :   1.5900
B(  1-C , 32-H ) :   0.9645 B(  2-C ,  3-C ) :   1.2594 B(  2-C ,  6-C ) :   1.0027
B(  3-C ,  4-C ) :   1.5830 B(  3-C ,  5-H ) :   0.9947 B(  4-C , 20-C ) :   0.9918
B(  6-C ,  7-H ) :   0.9446 B(  6-C ,  8-H ) :   0.9287 B(  6-C ,  9-C ) :   1.0891
B(  9-C , 10-H ) :   0.9496 B(  9-C , 11-H ) :   0.9548 B(  9-C , 12-C ) :   1.0829
B( 12-C , 13-H ) :   0.9696 B( 12-C , 14-H ) :   0.9724 B( 12-C , 15-H ) :   0.9722
B( 16-S , 17-C ) :   1.1575 B( 16-S , 20-C ) :   1.1603 B( 17-C , 18-C ) :   1.6266
B( 17-C , 33-H ) :   0.9711 B( 18-C , 19-C ) :   1.2257 B( 18-C , 21-H ) :   0.9963
B( 19-C , 20-C ) :   1.5937 B( 19-C , 22-C ) :   1.0361 B( 22-C , 23-H ) :   0.9290
B( 22-C , 24-H ) :   0.9489 B( 22-C , 25-C ) :   1.0477 B( 25-C , 26-H ) :   0.9668
B( 25-C , 27-H ) :   0.9513 B( 25-C , 28-C ) :   1.0694 B( 28-C , 29-H ) :   0.9762
B( 28-C , 30-H ) :   0.9792 B( 28-C , 31-H ) :   0.9783

Dispersion correction           -0.014828344
FINAL SINGLE POINT ENERGY     -1339.868455045159

DIPOLE MOMENT
-------------
                                X             Y             Z
Electronic contribution:     23.68815     -15.47907       4.42334
Nuclear contribution   :    -24.28927      15.76735      -4.23642
                        -----------------------------------------
Total Dipole Moment    :     -0.60112       0.28829       0.18693
                        -----------------------------------------
Magnitude (a.u.)       :      0.69238
Magnitude (Debye)      :      1.75990

Rotational constants in cm-1:     0.018847     0.008846     0.006868
Rotational constants in MHz :   565.018052   265.186656   205.900714

                             ****ORCA TERMINATED NORMALLY****
TOTAL RUN TIME: 0 days 0 hours 0 minutes 33 seconds 859 msec
