                         Program Version 4.2.1 -  RELEASE  -
|  1> ! wB97X-D3 SP def2-SVP
|  2> %pal
|  3> nprocs 16
|  4> end
|  5>
|  6> * xyz 0 1
|  7> S 	 -119.379 	 46.7085 	 131.934
|  8> C 	 -119.481 	 46.7837 	 133.664
|  9> C 	 -119.275 	 45.5863 	 134.317
| 10> C 	 -118.89 	 44.6083 	 133.346
| 11> C 	 -118.789 	 45.0442 	 132.045
| 12> H 	 -118.665 	 43.5663 	 133.483
| 13> C 	 -119.333 	 45.2813 	 135.828
| 14> H 	 -118.623 	 44.4546 	 135.955
| 15> H 	 -120.383 	 44.8765 	 135.942
| 16> C 	 -118.791 	 46.359 	 136.759
| 17> H 	 -118.291 	 45.928 	 137.643
| 18> H 	 -117.978 	 46.7304 	 136.101
| 19> C 	 -119.689 	 47.6309 	 137.017
| 20> H 	 -120.389 	 47.7852 	 136.229
| 21> H 	 -120.264 	 47.774 	 137.889
| 22> H 	 -118.984 	 48.4879 	 136.973
| 23> S 	 -119.804 	 43.8768 	 129.84
| 24> C 	 -118.692 	 42.951 	 128.774
| 25> C 	 -117.417 	 42.8688 	 129.356
| 26> C 	 -117.239 	 43.6041 	 130.592
| 27> C 	 -118.442 	 44.2739 	 130.912
| 28> H 	 -116.725 	 42.1161 	 128.924
| 29> C 	 -115.984 	 43.6297 	 131.369
| 30> H 	 -115.945 	 42.8118 	 132.119
| 31> H 	 -115.871 	 44.622 	 131.798
| 32> C 	 -114.683 	 43.4249 	 130.542
| 33> H 	 -114.629 	 42.4968 	 129.915
| 34> H 	 -113.91 	 43.4329 	 131.242
| 35> C 	 -114.296 	 44.5844 	 129.678
| 36> H 	 -115.04 	 44.8385 	 128.986
| 37> H 	 -113.357 	 44.4619 	 129.092
| 38> H 	 -114.298 	 45.4357 	 130.272
| 39> H 	 -119.958 	 47.6325 	 134.195
| 40> H 	 -118.937 	 42.4064 	 127.867
| 41> *
| 42>
| 43>                          ****END OF INPUT****

CARTESIAN COORDINATES (ANGSTROEM)
---------------------------------
  S    -119.379000   46.708500  131.934000
  C    -119.481000   46.783700  133.664000
  C    -119.275000   45.586300  134.317000
  C    -118.890000   44.608300  133.346000
  C    -118.789000   45.044200  132.045000
  H    -118.665000   43.566300  133.483000
  C    -119.333000   45.281300  135.828000
  H    -118.623000   44.454600  135.955000
  H    -120.383000   44.876500  135.942000
  C    -118.791000   46.359000  136.759000
  H    -118.291000   45.928000  137.643000
  H    -117.978000   46.730400  136.101000
  C    -119.689000   47.630900  137.017000
  H    -120.389000   47.785200  136.229000
  H    -120.264000   47.774000  137.889000
  H    -118.984000   48.487900  136.973000
  S    -119.804000   43.876800  129.840000
  C    -118.692000   42.951000  128.774000
  C    -117.417000   42.868800  129.356000
  C    -117.239000   43.604100  130.592000
  C    -118.442000   44.273900  130.912000
  H    -116.725000   42.116100  128.924000
  C    -115.984000   43.629700  131.369000
  H    -115.945000   42.811800  132.119000
  H    -115.871000   44.622000  131.798000
  C    -114.683000   43.424900  130.542000
  H    -114.629000   42.496800  129.915000
  H    -113.910000   43.432900  131.242000
  C    -114.296000   44.584400  129.678000
  H    -115.040000   44.838500  128.986000
  H    -113.357000   44.461900  129.092000
  H    -114.298000   45.435700  130.272000
  H    -119.958000   47.632500  134.195000
  H    -118.937000   42.406400  127.867000

 Total Charge           Charge          ....    0
 Multiplicity           Mult            ....    1
 Number of Electrons    NEL             ....  134
 Basis Dimension        Dim             ....  322

ORBITAL ENERGIES
----------------

  NO   OCC          E(Eh)            E(eV)
   0   2.0000     -88.966938     -2420.9135
   1   2.0000     -88.964344     -2420.8429
   2   2.0000     -10.325592      -280.9736
   3   2.0000     -10.322792      -280.8975
   4   2.0000     -10.321469      -280.8615
   5   2.0000     -10.313230      -280.6373
   6   2.0000     -10.308389      -280.5055
   7   2.0000     -10.302386      -280.3422
   8   2.0000     -10.301339      -280.3137
   9   2.0000     -10.299904      -280.2746
  10   2.0000     -10.297365      -280.2055
  11   2.0000     -10.295642      -280.1587
  12   2.0000     -10.291545      -280.0472
  13   2.0000     -10.281494      -279.7737
  14   2.0000     -10.279916      -279.7307
  15   2.0000     -10.261716      -279.2355
  16   2.0000      -8.080370      -219.8780
  17   2.0000      -8.079181      -219.8457
  18   2.0000      -6.038968      -164.3287
  19   2.0000      -6.037628      -164.2922
  20   2.0000      -6.035152      -164.2248
  21   2.0000      -6.033795      -164.1879
  22   2.0000      -6.031005      -164.1120
  23   2.0000      -6.029887      -164.0816
  24   2.0000      -1.003890       -27.3172
  25   2.0000      -0.975884       -26.5551
  26   2.0000      -0.915472       -24.9113
  27   2.0000      -0.909414       -24.7464
  28   2.0000      -0.868104       -23.6223
  29   2.0000      -0.851790       -23.1784
  30   2.0000      -0.846347       -23.0303
  31   2.0000      -0.809316       -22.0226
  32   2.0000      -0.789473       -21.4827
  33   2.0000      -0.774390       -21.0722
  34   2.0000      -0.708048       -19.2670
  35   2.0000      -0.705627       -19.2011
  36   2.0000      -0.694954       -18.9107
  37   2.0000      -0.652478       -17.7548
  38   2.0000      -0.641199       -17.4479
  39   2.0000      -0.607634       -16.5346
  40   2.0000      -0.596300       -16.2262
  41   2.0000      -0.571229       -15.5439
  42   2.0000      -0.558568       -15.1994
  43   2.0000      -0.543936       -14.8012
  44   2.0000      -0.541048       -14.7227
  45   2.0000      -0.532801       -14.4983
  46   2.0000      -0.523412       -14.2428
  47   2.0000      -0.518947       -14.1213
  48   2.0000      -0.504139       -13.7183
  49   2.0000      -0.495843       -13.4926
  50   2.0000      -0.489818       -13.3286
  51   2.0000      -0.479422       -13.0457
  52   2.0000      -0.472283       -12.8515
  53   2.0000      -0.464003       -12.6262
  54   2.0000      -0.456694       -12.4273
  55   2.0000      -0.443209       -12.0603
  56   2.0000      -0.440096       -11.9756
  57   2.0000      -0.437657       -11.9092
  58   2.0000      -0.433532       -11.7970
  59   2.0000      -0.427066       -11.6211
  60   2.0000      -0.423494       -11.5239
  61   2.0000      -0.416477       -11.3329
  62   2.0000      -0.408374       -11.1124
  63   2.0000      -0.338819        -9.2197
  64   2.0000      -0.327146        -8.9021
  65   2.0000      -0.325769        -8.8646
  66   2.0000      -0.297113        -8.0849
  67   0.0000       0.031049         0.8449
  68   0.0000       0.059433         1.6173
  69   0.0000       0.106415         2.8957
  70   0.0000       0.122323         3.3286
  71   0.0000       0.132145         3.5959

MULLIKEN ATOMIC CHARGES
-----------------------
   0 S :    0.117393
   1 C :   -0.142905
   2 C :   -0.101444
   3 C :    0.042582
   4 C :   -0.195207
   5 H :    0.003880
   6 C :    0.065967
   7 H :    0.029225
   8 H :    0.059467
   9 C :   -0.087895
  10 H :    0.045509
  11 H :    0.040671
  12 C :   -0.035428
  13 H :    0.013168
  14 H :    0.030798
  15 H :    0.033909
  16 S :    0.107132
  17 C :   -0.091217
  18 C :   -0.061096
  19 C :   -0.016089
  20 C :   -0.177200
  21 H :    0.035911
  22 C :    0.070800
  23 H :    0.051750
  24 H :    0.035863
  25 C :   -0.081006
  26 H :    0.034246
  27 H :    0.012825
  28 C :   -0.012838
  29 H :    0.010595
  30 H :    0.042324
  31 H :    0.000021
  32 H :    0.059332
  33 H :    0.058958
Sum of atomic charges:   -0.0000000

LOEWDIN ATOMIC CHARGES
----------------------
   0 S :    0.401829
   1 C :   -0.209853
   2 C :   -0.068751
   3 C :   -0.053469
   4 C :   -0.204894
   5 H :    0.029108
   6 C :   -0.036484
   7 H :    0.035843
   8 H :    0.040817
   9 C :   -0.044868
  10 H :    0.030080
  11 H :    0.036760
  12 C :   -0.067134
  13 H :    0.018162
  14 H :    0.020342
  15 H :    0.033865
  16 S :    0.382309
  17 C :   -0.177289
  18 C :   -0.074921
  19 C :   -0.052701
  20 C :   -0.194160
  21 H :    0.036754
  22 C :   -0.029424
  23 H :    0.041963
  24 H :    0.037814
  25 C :   -0.039662
  26 H :    0.024819
  27 H :    0.018322
  28 C :   -0.062522
  29 H :    0.016768
  30 H :    0.033325
  31 H :    0.015385
  32 H :    0.030256
  33 H :    0.031613

  Mayer bond orders larger than 0.100000
B(  0-S ,  1-C ) :   1.1466 B(  0-S ,  4-C ) :   1.1271 B(  1-C ,  2-C ) :   1.6252
B(  1-C , 32-H ) :   0.9532 B(  2-C ,  3-C ) :   1.2362 B(  2-C ,  6-C ) :   0.9959
B(  3-C ,  4-C ) :   1.6014 B(  3-C ,  5-H ) :   0.9929 B(  4-C , 20-C ) :   1.0653
B(  6-C ,  7-H ) :   0.9454 B(  6-C ,  8-H ) :   0.9326 B(  6-C ,  9-C ) :   1.0677
B(  9-C , 10-H ) :   0.9633 B(  9-C , 11-H ) :   0.9599 B(  9-C , 12-C ) :   1.0466
B( 12-C , 13-H ) :   0.9762 B( 12-C , 14-H ) :   0.9760 B( 12-C , 15-H ) :   0.9818
B( 16-S , 17-C ) :   1.1311 B( 16-S , 20-C ) :   1.1439 B( 17-C , 18-C ) :   1.6385
B( 17-C , 20-C ) :   0.1043 B( 17-C , 33-H ) :   0.9645 B( 18-C , 19-C ) :   1.2196
B( 18-C , 21-H ) :   0.9742 B( 19-C , 20-C ) :   1.5851 B( 19-C , 22-C ) :   1.0563
B( 22-C , 23-H ) :   0.9228 B( 22-C , 24-H ) :   0.9302 B( 22-C , 25-C ) :   1.0880
B( 25-C , 26-H ) :   0.9496 B( 25-C , 27-H ) :   0.9525 B( 25-C , 28-C ) :   1.0806
B( 28-C , 29-H ) :   0.9706 B( 28-C , 30-H ) :   0.9728 B( 28-C , 31-H ) :   0.9659

Dispersion correction           -0.014169758
FINAL SINGLE POINT ENERGY     -1339.855062104143

DIPOLE MOMENT
-------------
                                X             Y             Z
Electronic contribution:    -16.01409      -1.65602     -15.59119
Nuclear contribution   :     16.37401       1.31779      16.06857
                        -----------------------------------------
Total Dipole Moment    :      0.35992      -0.33823       0.47738
                        -----------------------------------------
Magnitude (a.u.)       :      0.68690
Magnitude (Debye)      :      1.74597

Rotational constants in cm-1:     0.022374     0.007358     0.006309
Rotational constants in MHz :   670.767482   220.592397   189.147199

                             ****ORCA TERMINATED NORMALLY****
TOTAL RUN TIME: 0 days 0 hours 0 minutes 33 seconds 622 msec
