                         Program Version 4.2.1 -  RELEASE  -
|  1> ! wB97X-D3 SP def2-SVP
|  2> %pal
|  3> nprocs 16
|  4> end
|  5>
|  6> * xyz 0 1
|  7> S 	 40.4068 	 9.7132 	 83.0876
|  8> C 	 41.0891 	 8.32994 	 82.2607
|  9> C 	 41.618 	 7.47345 	 83.131
| 10> C 	 41.5406 	 7.89752 	 84.4969
| 11> C 	 40.9354 	 9.15587 	 84.7024
| 12> H 	 41.8861 	 7.22754 	 85.3011
| 13> C 	 42.4408 	 6.26402 	 82.6192
| 14> H 	 42.7081 	 6.53383 	 81.6022
| 15> H 	 41.8819 	 5.38076 	 82.6843
| 16> C 	 43.8075 	 5.98303 	 83.2586
| 17> H 	 43.7328 	 5.82211 	 84.3685
| 18> H 	 44.0441 	 4.96816 	 82.9113
| 19> C 	 44.8821 	 7.06922 	 82.9567
| 20> H 	 44.7579 	 7.91518 	 83.5759
| 21> H 	 45.9066 	 6.86118 	 83.1783
| 22> H 	 44.8956 	 7.38367 	 81.9374
| 23> S 	 38.9937 	 10.5113 	 86.1315
| 24> C 	 39.4052 	 11.0118 	 87.8134
| 25> C 	 40.6983 	 10.771 	 88.0869
| 26> C 	 41.3882 	 9.90565 	 87.1588
| 27> C 	 40.6894 	 9.86217 	 85.9551
| 28> H 	 41.1835 	 11.1587 	 89.0379
| 29> C 	 42.8861 	 9.57945 	 87.3257
| 30> H 	 43.4326 	 10.5227 	 87.1994
| 31> H 	 43.2994 	 8.95868 	 86.5016
| 32> C 	 43.2681 	 9.07643 	 88.7253
| 33> H 	 42.6528 	 8.20554 	 88.958
| 34> H 	 43.1225 	 9.82379 	 89.5049
| 35> C 	 44.7096 	 8.57587 	 88.8483
| 36> H 	 45.0041 	 7.80208 	 88.1442
| 37> H 	 44.9377 	 8.25354 	 89.823
| 38> H 	 45.2639 	 9.54213 	 88.6902
| 39> H 	 41.2111 	 8.28583 	 81.1724
| 40> H 	 38.8043 	 11.6805 	 88.4128
| 41> *
| 42>
| 43>                          ****END OF INPUT****

CARTESIAN COORDINATES (ANGSTROEM)
---------------------------------
  S     40.406800    9.713200   83.087600
  C     41.089100    8.329940   82.260700
  C     41.618000    7.473450   83.131000
  C     41.540600    7.897520   84.496900
  C     40.935400    9.155870   84.702400
  H     41.886100    7.227540   85.301100
  C     42.440800    6.264020   82.619200
  H     42.708100    6.533830   81.602200
  H     41.881900    5.380760   82.684300
  C     43.807500    5.983030   83.258600
  H     43.732800    5.822110   84.368500
  H     44.044100    4.968160   82.911300
  C     44.882100    7.069220   82.956700
  H     44.757900    7.915180   83.575900
  H     45.906600    6.861180   83.178300
  H     44.895600    7.383670   81.937400
  S     38.993700   10.511300   86.131500
  C     39.405200   11.011800   87.813400
  C     40.698300   10.771000   88.086900
  C     41.388200    9.905650   87.158800
  C     40.689400    9.862170   85.955100
  H     41.183500   11.158700   89.037900
  C     42.886100    9.579450   87.325700
  H     43.432600   10.522700   87.199400
  H     43.299400    8.958680   86.501600
  C     43.268100    9.076430   88.725300
  H     42.652800    8.205540   88.958000
  H     43.122500    9.823790   89.504900
  C     44.709600    8.575870   88.848300
  H     45.004100    7.802080   88.144200
  H     44.937700    8.253540   89.823000
  H     45.263900    9.542130   88.690200
  H     41.211100    8.285830   81.172400
  H     38.804300   11.680500   88.412800

 Total Charge           Charge          ....    0
 Multiplicity           Mult            ....    1
 Number of Electrons    NEL             ....  134
 Basis Dimension        Dim             ....  322

ORBITAL ENERGIES
----------------

  NO   OCC          E(Eh)            E(eV)
   0   2.0000     -88.964202     -2420.8390
   1   2.0000     -88.963746     -2420.8266
   2   2.0000     -10.338745      -281.3315
   3   2.0000     -10.337591      -281.3002
   4   2.0000     -10.318437      -280.7789
   5   2.0000     -10.311849      -280.5997
   6   2.0000     -10.311154      -280.5808
   7   2.0000     -10.300045      -280.2785
   8   2.0000     -10.299925      -280.2752
   9   2.0000     -10.299733      -280.2700
  10   2.0000     -10.295521      -280.1554
  11   2.0000     -10.295432      -280.1529
  12   2.0000     -10.290570      -280.0207
  13   2.0000     -10.288445      -279.9628
  14   2.0000     -10.279419      -279.7172
  15   2.0000     -10.272064      -279.5171
  16   2.0000      -8.078049      -219.8149
  17   2.0000      -8.077383      -219.7968
  18   2.0000      -6.036795      -164.2695
  19   2.0000      -6.036193      -164.2531
  20   2.0000      -6.032516      -164.1531
  21   2.0000      -6.032347      -164.1485
  22   2.0000      -6.028666      -164.0483
  23   2.0000      -6.027653      -164.0208
  24   2.0000      -1.000551       -27.2264
  25   2.0000      -0.980303       -26.6754
  26   2.0000      -0.910223       -24.7684
  27   2.0000      -0.908274       -24.7154
  28   2.0000      -0.871801       -23.7229
  29   2.0000      -0.849880       -23.1264
  30   2.0000      -0.837843       -22.7989
  31   2.0000      -0.815871       -22.2010
  32   2.0000      -0.787715       -21.4348
  33   2.0000      -0.776927       -21.1413
  34   2.0000      -0.714571       -19.4445
  35   2.0000      -0.697451       -18.9786
  36   2.0000      -0.693426       -18.8691
  37   2.0000      -0.652386       -17.7523
  38   2.0000      -0.634767       -17.2729
  39   2.0000      -0.620384       -16.8815
  40   2.0000      -0.598018       -16.2729
  41   2.0000      -0.573376       -15.6024
  42   2.0000      -0.568355       -15.4657
  43   2.0000      -0.560891       -15.2626
  44   2.0000      -0.532681       -14.4950
  45   2.0000      -0.528199       -14.3730
  46   2.0000      -0.517014       -14.0687
  47   2.0000      -0.512671       -13.9505
  48   2.0000      -0.500134       -13.6093
  49   2.0000      -0.495643       -13.4871
  50   2.0000      -0.486143       -13.2286
  51   2.0000      -0.482049       -13.1172
  52   2.0000      -0.473989       -12.8979
  53   2.0000      -0.468341       -12.7442
  54   2.0000      -0.456948       -12.4342
  55   2.0000      -0.452354       -12.3092
  56   2.0000      -0.443636       -12.0719
  57   2.0000      -0.440717       -11.9925
  58   2.0000      -0.430781       -11.7222
  59   2.0000      -0.427875       -11.6431
  60   2.0000      -0.421294       -11.4640
  61   2.0000      -0.412077       -11.2132
  62   2.0000      -0.406944       -11.0735
  63   2.0000      -0.357359        -9.7242
  64   2.0000      -0.330722        -8.9994
  65   2.0000      -0.329348        -8.9620
  66   2.0000      -0.290635        -7.9086
  67   0.0000       0.020531         0.5587
  68   0.0000       0.070407         1.9159
  69   0.0000       0.106712         2.9038
  70   0.0000       0.112287         3.0555
  71   0.0000       0.123206         3.3526

MULLIKEN ATOMIC CHARGES
-----------------------
   0 S :    0.092546
   1 C :   -0.143215
   2 C :   -0.076887
   3 C :    0.014870
   4 C :   -0.132500
   5 H :    0.022865
   6 C :    0.084964
   7 H :    0.015855
   8 H :    0.032335
   9 C :   -0.094194
  10 H :    0.026748
  11 H :    0.027157
  12 C :   -0.016247
  13 H :    0.024375
  14 H :    0.019668
  15 H :    0.021837
  16 S :    0.074350
  17 C :   -0.075596
  18 C :   -0.045429
  19 C :   -0.022627
  20 C :   -0.124589
  21 H :    0.045945
  22 C :    0.030015
  23 H :    0.038203
  24 H :    0.030214
  25 C :   -0.110596
  26 H :    0.029680
  27 H :    0.032974
  28 C :   -0.029871
  29 H :    0.038272
  30 H :    0.025349
  31 H :    0.025983
  32 H :    0.060584
  33 H :    0.056962
Sum of atomic charges:   -0.0000000

LOEWDIN ATOMIC CHARGES
----------------------
   0 S :    0.384330
   1 C :   -0.192734
   2 C :   -0.074489
   3 C :   -0.066965
   4 C :   -0.182430
   5 H :    0.032591
   6 C :   -0.019697
   7 H :    0.029318
   8 H :    0.025768
   9 C :   -0.041804
  10 H :    0.023470
  11 H :    0.025947
  12 C :   -0.065108
  13 H :    0.024524
  14 H :    0.025436
  15 H :    0.022011
  16 S :    0.346702
  17 C :   -0.166278
  18 C :   -0.070921
  19 C :   -0.053036
  20 C :   -0.163612
  21 H :    0.042275
  22 C :   -0.033695
  23 H :    0.036592
  24 H :    0.033150
  25 C :   -0.045023
  26 H :    0.021592
  27 H :    0.022978
  28 C :   -0.060257
  29 H :    0.024343
  30 H :    0.019178
  31 H :    0.030011
  32 H :    0.035639
  33 H :    0.030194

  Mayer bond orders larger than 0.100000
B(  0-S ,  1-C ) :   1.1258 B(  0-S ,  4-C ) :   1.1429 B(  1-C ,  2-C ) :   1.6421
B(  1-C , 32-H ) :   0.9621 B(  2-C ,  3-C ) :   1.2583 B(  2-C ,  6-C ) :   0.9981
B(  3-C ,  4-C ) :   1.5507 B(  3-C ,  5-H ) :   0.9846 B(  4-C , 20-C ) :   1.0602
B(  6-C ,  7-H ) :   0.9512 B(  6-C ,  8-H ) :   0.9354 B(  6-C ,  9-C ) :   1.0861
B(  9-C , 10-H ) :   0.9526 B(  9-C , 11-H ) :   0.9559 B(  9-C , 12-C ) :   1.0609
B( 12-C , 13-H ) :   0.9732 B( 12-C , 14-H ) :   0.9741 B( 12-C , 15-H ) :   0.9774
B( 16-S , 17-C ) :   1.1095 B( 16-S , 20-C ) :   1.1112 B( 17-C , 18-C ) :   1.6977
B( 17-C , 33-H ) :   0.9617 B( 18-C , 19-C ) :   1.1764 B( 18-C , 21-H ) :   0.9678
B( 19-C , 20-C ) :   1.6360 B( 19-C , 22-C ) :   1.0459 B( 22-C , 23-H ) :   0.9343
B( 22-C , 24-H ) :   0.9466 B( 22-C , 25-C ) :   1.0479 B( 25-C , 26-H ) :   0.9606
B( 25-C , 27-H ) :   0.9536 B( 25-C , 28-C ) :   1.0900 B( 28-C , 29-H ) :   0.9760
B( 28-C , 30-H ) :   0.9732 B( 28-C , 31-H ) :   0.9740

Dispersion correction           -0.013994022
FINAL SINGLE POINT ENERGY     -1339.867433534735

DIPOLE MOMENT
-------------
                                X             Y             Z
Electronic contribution:    -27.95933      14.14136      -6.80651
Nuclear contribution   :     28.72728     -14.42856       7.09971
                        -----------------------------------------
Total Dipole Moment    :      0.76795      -0.28720       0.29320
                        -----------------------------------------
Magnitude (a.u.)       :      0.87075
Magnitude (Debye)      :      2.21326

Rotational constants in cm-1:     0.015759     0.010042     0.006491
Rotational constants in MHz :   472.454537   301.049274   194.581260

                             ****ORCA TERMINATED NORMALLY****
TOTAL RUN TIME: 0 days 0 hours 0 minutes 30 seconds 639 msec
