                         Program Version 4.2.1 -  RELEASE  -
|  1> ! wB97X-D3 SP def2-SVP
|  2> %pal
|  3> nprocs 16
|  4> end
|  5>
|  6> * xyz 0 1
|  7> S 	 10.0814 	 -9.61903 	 91.4712
|  8> C 	 11.0419 	 -9.93273 	 90.0768
|  9> C 	 10.5868 	 -11.0787 	 89.4119
| 10> C 	 9.51847 	 -11.7168 	 90.1585
| 11> C 	 9.08981 	 -11.0529 	 91.2119
| 12> H 	 9.1066 	 -12.6827 	 89.8605
| 13> C 	 11.3215 	 -11.6539 	 88.2288
| 14> H 	 11.8318 	 -10.7635 	 87.7139
| 15> H 	 10.6663 	 -12.1639 	 87.6419
| 16> C 	 12.5279 	 -12.5526 	 88.5702
| 17> H 	 13.0325 	 -12.8417 	 87.6594
| 18> H 	 13.1253 	 -11.7974 	 89.0553
| 19> C 	 12.1412 	 -13.738 	 89.3408
| 20> H 	 11.4341 	 -13.5672 	 90.1301
| 21> H 	 11.7455 	 -14.5969 	 88.7838
| 22> H 	 13.027 	 -14.1088 	 89.7679
| 23> S 	 7.13244 	 -10.0997 	 92.7442
| 24> C 	 6.1652 	 -11.1287 	 93.7266
| 25> C 	 6.59886 	 -12.446 	 93.6444
| 26> C 	 7.58736 	 -12.6296 	 92.6321
| 27> C 	 7.98786 	 -11.4709 	 92.0191
| 28> H 	 6.22412 	 -13.2406 	 94.3013
| 29> C 	 8.23792 	 -14.0096 	 92.3227
| 30> H 	 9.32967 	 -13.9608 	 92.1931
| 31> H 	 7.73697 	 -14.2678 	 91.3584
| 32> C 	 7.92175 	 -15.1394 	 93.3298
| 33> H 	 6.86521 	 -15.3536 	 93.3904
| 34> H 	 8.19232 	 -14.7012 	 94.2524
| 35> C 	 8.59933 	 -16.5185 	 93.1837
| 36> H 	 8.21208 	 -17.1749 	 92.4416
| 37> H 	 8.74604 	 -17.0338 	 94.1711
| 38> H 	 9.62429 	 -16.2626 	 92.9214
| 39> H 	 11.8445 	 -9.35777 	 89.7436
| 40> H 	 5.47645 	 -10.7404 	 94.3655
| 41> *
| 42>
| 43>                          ****END OF INPUT****

CARTESIAN COORDINATES (ANGSTROEM)
---------------------------------
  S     10.081400   -9.619030   91.471200
  C     11.041900   -9.932730   90.076800
  C     10.586800  -11.078700   89.411900
  C      9.518470  -11.716800   90.158500
  C      9.089810  -11.052900   91.211900
  H      9.106600  -12.682700   89.860500
  C     11.321500  -11.653900   88.228800
  H     11.831800  -10.763500   87.713900
  H     10.666300  -12.163900   87.641900
  C     12.527900  -12.552600   88.570200
  H     13.032500  -12.841700   87.659400
  H     13.125300  -11.797400   89.055300
  C     12.141200  -13.738000   89.340800
  H     11.434100  -13.567200   90.130100
  H     11.745500  -14.596900   88.783800
  H     13.027000  -14.108800   89.767900
  S      7.132440  -10.099700   92.744200
  C      6.165200  -11.128700   93.726600
  C      6.598860  -12.446000   93.644400
  C      7.587360  -12.629600   92.632100
  C      7.987860  -11.470900   92.019100
  H      6.224120  -13.240600   94.301300
  C      8.237920  -14.009600   92.322700
  H      9.329670  -13.960800   92.193100
  H      7.736970  -14.267800   91.358400
  C      7.921750  -15.139400   93.329800
  H      6.865210  -15.353600   93.390400
  H      8.192320  -14.701200   94.252400
  C      8.599330  -16.518500   93.183700
  H      8.212080  -17.174900   92.441600
  H      8.746040  -17.033800   94.171100
  H      9.624290  -16.262600   92.921400
  H     11.844500   -9.357770   89.743600
  H      5.476450  -10.740400   94.365500

 Total Charge           Charge          ....    0
 Multiplicity           Mult            ....    1
 Number of Electrons    NEL             ....  134
 Basis Dimension        Dim             ....  322

ORBITAL ENERGIES
----------------

  NO   OCC          E(Eh)            E(eV)
   0   2.0000     -88.966440     -2420.8999
   1   2.0000     -88.961075     -2420.7539
   2   2.0000     -10.323909      -280.9278
   3   2.0000     -10.322540      -280.8906
   4   2.0000     -10.312026      -280.6045
   5   2.0000     -10.309846      -280.5452
   6   2.0000     -10.307898      -280.4922
   7   2.0000     -10.301721      -280.3241
   8   2.0000     -10.300044      -280.2784
   9   2.0000     -10.297668      -280.2138
  10   2.0000     -10.287823      -279.9459
  11   2.0000     -10.285107      -279.8720
  12   2.0000     -10.284770      -279.8628
  13   2.0000     -10.282212      -279.7932
  14   2.0000     -10.279468      -279.7185
  15   2.0000     -10.266097      -279.3547
  16   2.0000      -8.081306      -219.9035
  17   2.0000      -8.076586      -219.7751
  18   2.0000      -6.039929      -164.3548
  19   2.0000      -6.035817      -164.2429
  20   2.0000      -6.034958      -164.2196
  21   2.0000      -6.031895      -164.1362
  22   2.0000      -6.030946      -164.1104
  23   2.0000      -6.027485      -164.0162
  24   2.0000      -1.013484       -27.5783
  25   2.0000      -0.987688       -26.8764
  26   2.0000      -0.920444       -25.0466
  27   2.0000      -0.907943       -24.7064
  28   2.0000      -0.878995       -23.9187
  29   2.0000      -0.854220       -23.2445
  30   2.0000      -0.845405       -23.0046
  31   2.0000      -0.821268       -22.3478
  32   2.0000      -0.785133       -21.3645
  33   2.0000      -0.775889       -21.1130
  34   2.0000      -0.710202       -19.3256
  35   2.0000      -0.707801       -19.2602
  36   2.0000      -0.700652       -19.0657
  37   2.0000      -0.659708       -17.9516
  38   2.0000      -0.643606       -17.5134
  39   2.0000      -0.617220       -16.7954
  40   2.0000      -0.601102       -16.3568
  41   2.0000      -0.581898       -15.8342
  42   2.0000      -0.576005       -15.6739
  43   2.0000      -0.549846       -14.9621
  44   2.0000      -0.548053       -14.9133
  45   2.0000      -0.524311       -14.2672
  46   2.0000      -0.522224       -14.2104
  47   2.0000      -0.518532       -14.1100
  48   2.0000      -0.512980       -13.9589
  49   2.0000      -0.505616       -13.7585
  50   2.0000      -0.491935       -13.3862
  51   2.0000      -0.482202       -13.1214
  52   2.0000      -0.474809       -12.9202
  53   2.0000      -0.469894       -12.7865
  54   2.0000      -0.464565       -12.6415
  55   2.0000      -0.456236       -12.4148
  56   2.0000      -0.441732       -12.0201
  57   2.0000      -0.436345       -11.8735
  58   2.0000      -0.427435       -11.6311
  59   2.0000      -0.425743       -11.5851
  60   2.0000      -0.417591       -11.3632
  61   2.0000      -0.412686       -11.2298
  62   2.0000      -0.407853       -11.0983
  63   2.0000      -0.360980        -9.8228
  64   2.0000      -0.331740        -9.0271
  65   2.0000      -0.326452        -8.8832
  66   2.0000      -0.287198        -7.8151
  67   0.0000       0.029351         0.7987
  68   0.0000       0.070832         1.9274
  69   0.0000       0.113613         3.0916
  70   0.0000       0.124953         3.4002
  71   0.0000       0.131764         3.5855

MULLIKEN ATOMIC CHARGES
-----------------------
   0 S :    0.119316
   1 C :   -0.099603
   2 C :   -0.101478
   3 C :   -0.025113
   4 C :   -0.083680
   5 H :    0.012804
   6 C :    0.068178
   7 H :    0.030582
   8 H :   -0.003741
   9 C :   -0.029749
  10 H :    0.028817
  11 H :    0.011521
  12 C :   -0.020225
  13 H :    0.026720
  14 H :    0.025494
  15 H :    0.015903
  16 S :    0.081058
  17 C :   -0.036738
  18 C :   -0.047284
  19 C :   -0.057574
  20 C :   -0.155741
  21 H :    0.029428
  22 C :    0.041345
  23 H :    0.048390
  24 H :    0.047667
  25 C :   -0.098106
  26 H :    0.030611
  27 H :    0.021671
  28 C :   -0.025758
  29 H :    0.039656
  30 H :    0.043282
  31 H :    0.013056
  32 H :    0.026888
  33 H :    0.022403
Sum of atomic charges:   -0.0000000

LOEWDIN ATOMIC CHARGES
----------------------
   0 S :    0.406824
   1 C :   -0.194193
   2 C :   -0.058472
   3 C :   -0.069362
   4 C :   -0.195181
   5 H :    0.031506
   6 C :   -0.026484
   7 H :    0.040013
   8 H :    0.009040
   9 C :   -0.034588
  10 H :    0.025342
  11 H :    0.020849
  12 C :   -0.066480
  13 H :    0.023050
  14 H :    0.029338
  15 H :    0.023895
  16 S :    0.407834
  17 C :   -0.171020
  18 C :   -0.074564
  19 C :   -0.055539
  20 C :   -0.182438
  21 H :    0.036219
  22 C :   -0.031479
  23 H :    0.031917
  24 H :    0.036839
  25 C :   -0.045805
  26 H :    0.020680
  27 H :    0.019333
  28 C :   -0.064014
  29 H :    0.021172
  30 H :    0.037827
  31 H :    0.023271
  32 H :    0.016769
  33 H :    0.007901

  Mayer bond orders larger than 0.100000
B(  0-S ,  1-C ) :   1.1367 B(  0-S ,  4-C ) :   1.1153 B(  1-C ,  2-C ) :   1.5995
B(  1-C , 32-H ) :   0.9753 B(  2-C ,  3-C ) :   1.2116 B(  2-C ,  6-C ) :   1.0520
B(  3-C ,  4-C ) :   1.5995 B(  3-C ,  5-H ) :   0.9981 B(  4-C , 20-C ) :   1.0796
B(  6-C ,  7-H ) :   0.9424 B(  6-C ,  8-H ) :   0.9331 B(  6-C ,  9-C ) :   1.0617
B(  9-C , 10-H ) :   0.9507 B(  9-C , 11-H ) :   0.9557 B(  9-C , 12-C ) :   1.0889
B( 12-C , 13-H ) :   0.9725 B( 12-C , 14-H ) :   0.9678 B( 12-C , 15-H ) :   0.9634
B( 16-S , 17-C ) :   1.1775 B( 16-S , 20-C ) :   1.1257 B( 17-C , 18-C ) :   1.5611
B( 17-C , 20-C ) :   0.1004 B( 17-C , 33-H ) :   0.9804 B( 18-C , 19-C ) :   1.2747
B( 18-C , 21-H ) :   0.9859 B( 19-C , 20-C ) :   1.5988 B( 19-C , 22-C ) :   1.0090
B( 22-C , 23-H ) :   0.9378 B( 22-C , 24-H ) :   0.9291 B( 22-C , 25-C ) :   1.0854
B( 25-C , 26-H ) :   0.9482 B( 25-C , 27-H ) :   0.9529 B( 25-C , 28-C ) :   1.0798
B( 28-C , 29-H ) :   0.9776 B( 28-C , 30-H ) :   0.9727 B( 28-C , 31-H ) :   0.9716

Dispersion correction           -0.014250793
FINAL SINGLE POINT ENERGY     -1339.860567838154

DIPOLE MOMENT
-------------
                                X             Y             Z
Electronic contribution:    -11.16683      27.85216       6.38217
Nuclear contribution   :     11.41021     -28.55073      -6.42635
                        -----------------------------------------
Total Dipole Moment    :      0.24338      -0.69857      -0.04418
                        -----------------------------------------
Magnitude (a.u.)       :      0.74107
Magnitude (Debye)      :      1.88366

Rotational constants in cm-1:     0.016501     0.010092     0.006596
Rotational constants in MHz :   494.682172   302.540435   197.739022

                             ****ORCA TERMINATED NORMALLY****
TOTAL RUN TIME: 0 days 0 hours 0 minutes 32 seconds 349 msec
