                         Program Version 4.2.1 -  RELEASE  -
|  1> ! wB97X-D3 SP def2-SVP
|  2> %pal
|  3> nprocs 16
|  4> end
|  5>
|  6> * xyz 0 1
|  7> S 	 8.11017 	 -18.5399 	 56.4688
|  8> C 	 7.97089 	 -17.3808 	 57.8057
|  9> C 	 8.51074 	 -16.1692 	 57.5205
| 10> C 	 8.90873 	 -16.0754 	 56.1459
| 11> C 	 8.70638 	 -17.228 	 55.4609
| 12> H 	 9.42264 	 -15.2786 	 55.6407
| 13> C 	 8.67279 	 -14.9751 	 58.4672
| 14> H 	 9.67147 	 -15.0623 	 58.8936
| 15> H 	 8.00112 	 -15.0802 	 59.3396
| 16> C 	 8.32692 	 -13.6102 	 57.8941
| 17> H 	 8.34173 	 -12.84 	 58.5632
| 18> H 	 9.01208 	 -13.3242 	 57.0837
| 19> C 	 6.93822 	 -13.6761 	 57.222
| 20> H 	 6.25429 	 -14.2309 	 57.8509
| 21> H 	 6.51605 	 -12.6989 	 56.897
| 22> H 	 7.10921 	 -14.1629 	 56.2335
| 23> S 	 10.7019 	 -17.0312 	 53.4765
| 24> C 	 10.1735 	 -17.2086 	 51.826
| 25> C 	 8.85268 	 -17.5458 	 51.6676
| 26> C 	 8.26557 	 -17.8138 	 52.931
| 27> C 	 9.0529 	 -17.5001 	 54.044
| 28> H 	 8.39014 	 -17.7276 	 50.6426
| 29> C 	 6.77143 	 -18.2605 	 52.9919
| 30> H 	 6.26391 	 -17.3418 	 52.6904
| 31> H 	 6.59863 	 -18.4604 	 54.0401
| 32> C 	 6.35708 	 -19.5443 	 52.2228
| 33> H 	 6.85891 	 -20.3664 	 52.7786
| 34> H 	 6.62351 	 -19.6369 	 51.1727
| 35> C 	 4.83807 	 -19.7633 	 52.3711
| 36> H 	 4.39392 	 -19.6896 	 53.3779
| 37> H 	 4.6384 	 -20.7002 	 51.9401
| 38> H 	 4.29307 	 -19.1111 	 51.7069
| 39> H 	 7.5105 	 -17.5228 	 58.7909
| 40> H 	 10.8541 	 -17.1239 	 51.0079
| 41> *
| 42>
| 43>                          ****END OF INPUT****

CARTESIAN COORDINATES (ANGSTROEM)
---------------------------------
  S      8.110170  -18.539900   56.468800
  C      7.970890  -17.380800   57.805700
  C      8.510740  -16.169200   57.520500
  C      8.908730  -16.075400   56.145900
  C      8.706380  -17.228000   55.460900
  H      9.422640  -15.278600   55.640700
  C      8.672790  -14.975100   58.467200
  H      9.671470  -15.062300   58.893600
  H      8.001120  -15.080200   59.339600
  C      8.326920  -13.610200   57.894100
  H      8.341730  -12.840000   58.563200
  H      9.012080  -13.324200   57.083700
  C      6.938220  -13.676100   57.222000
  H      6.254290  -14.230900   57.850900
  H      6.516050  -12.698900   56.897000
  H      7.109210  -14.162900   56.233500
  S     10.701900  -17.031200   53.476500
  C     10.173500  -17.208600   51.826000
  C      8.852680  -17.545800   51.667600
  C      8.265570  -17.813800   52.931000
  C      9.052900  -17.500100   54.044000
  H      8.390140  -17.727600   50.642600
  C      6.771430  -18.260500   52.991900
  H      6.263910  -17.341800   52.690400
  H      6.598630  -18.460400   54.040100
  C      6.357080  -19.544300   52.222800
  H      6.858910  -20.366400   52.778600
  H      6.623510  -19.636900   51.172700
  C      4.838070  -19.763300   52.371100
  H      4.393920  -19.689600   53.377900
  H      4.638400  -20.700200   51.940100
  H      4.293070  -19.111100   51.706900
  H      7.510500  -17.522800   58.790900
  H     10.854100  -17.123900   51.007900

 Total Charge           Charge          ....    0
 Multiplicity           Mult            ....    1
 Number of Electrons    NEL             ....  134
 Basis Dimension        Dim             ....  322

ORBITAL ENERGIES
----------------

  NO   OCC          E(Eh)            E(eV)
   0   2.0000     -88.967373     -2420.9253
   1   2.0000     -88.966198     -2420.8933
   2   2.0000     -10.329557      -281.0815
   3   2.0000     -10.329388      -281.0769
   4   2.0000     -10.317315      -280.7484
   5   2.0000     -10.312063      -280.6055
   6   2.0000     -10.306214      -280.4463
   7   2.0000     -10.300290      -280.2851
   8   2.0000     -10.297913      -280.2204
   9   2.0000     -10.295528      -280.1556
  10   2.0000     -10.291453      -280.0447
  11   2.0000     -10.289888      -280.0021
  12   2.0000     -10.289739      -279.9980
  13   2.0000     -10.280197      -279.7384
  14   2.0000     -10.275802      -279.6188
  15   2.0000     -10.272355      -279.5250
  16   2.0000      -8.081241      -219.9017
  17   2.0000      -8.080194      -219.8732
  18   2.0000      -6.039906      -164.3542
  19   2.0000      -6.038687      -164.3210
  20   2.0000      -6.036060      -164.2496
  21   2.0000      -6.034868      -164.2171
  22   2.0000      -6.031700      -164.1309
  23   2.0000      -6.030968      -164.1110
  24   2.0000      -1.003101       -27.2958
  25   2.0000      -0.982404       -26.7326
  26   2.0000      -0.914113       -24.8743
  27   2.0000      -0.902273       -24.5521
  28   2.0000      -0.866575       -23.5807
  29   2.0000      -0.850597       -23.1459
  30   2.0000      -0.842075       -22.9140
  31   2.0000      -0.813797       -22.1445
  32   2.0000      -0.781785       -21.2735
  33   2.0000      -0.770149       -20.9568
  34   2.0000      -0.706019       -19.2118
  35   2.0000      -0.699321       -19.0295
  36   2.0000      -0.691212       -18.8088
  37   2.0000      -0.659652       -17.9501
  38   2.0000      -0.633668       -17.2430
  39   2.0000      -0.619485       -16.8570
  40   2.0000      -0.594705       -16.1828
  41   2.0000      -0.564179       -15.3521
  42   2.0000      -0.562811       -15.3149
  43   2.0000      -0.560368       -15.2484
  44   2.0000      -0.542181       -14.7535
  45   2.0000      -0.525106       -14.2889
  46   2.0000      -0.511264       -13.9122
  47   2.0000      -0.506739       -13.7891
  48   2.0000      -0.503345       -13.6967
  49   2.0000      -0.491626       -13.3778
  50   2.0000      -0.482584       -13.1318
  51   2.0000      -0.479817       -13.0565
  52   2.0000      -0.470749       -12.8097
  53   2.0000      -0.463570       -12.6144
  54   2.0000      -0.456939       -12.4339
  55   2.0000      -0.450484       -12.2583
  56   2.0000      -0.441363       -12.0101
  57   2.0000      -0.439629       -11.9629
  58   2.0000      -0.434332       -11.8188
  59   2.0000      -0.422190       -11.4884
  60   2.0000      -0.419972       -11.4280
  61   2.0000      -0.418788       -11.3958
  62   2.0000      -0.409812       -11.1515
  63   2.0000      -0.340498        -9.2654
  64   2.0000      -0.334584        -9.1045
  65   2.0000      -0.330401        -8.9907
  66   2.0000      -0.296061        -8.0562
  67   0.0000       0.034793         0.9468
  68   0.0000       0.068681         1.8689
  69   0.0000       0.105303         2.8654
  70   0.0000       0.113460         3.0874
  71   0.0000       0.130732         3.5574

MULLIKEN ATOMIC CHARGES
-----------------------
   0 S :    0.109533
   1 C :   -0.122073
   2 C :   -0.100216
   3 C :    0.020572
   4 C :   -0.148721
   5 H :    0.010355
   6 C :    0.070996
   7 H :    0.047705
   8 H :    0.019621
   9 C :   -0.043040
  10 H :    0.012614
  11 H :    0.025584
  12 C :   -0.072245
  13 H :    0.033388
  14 H :    0.034345
  15 H :    0.039248
  16 S :    0.097101
  17 C :   -0.084438
  18 C :   -0.041516
  19 C :   -0.052232
  20 C :   -0.155785
  21 H :    0.049410
  22 C :    0.071555
  23 H :    0.041447
  24 H :    0.011724
  25 C :   -0.085638
  26 H :    0.037052
  27 H :    0.031944
  28 C :   -0.025351
  29 H :    0.043039
  30 H :    0.014633
  31 H :    0.019000
  32 H :    0.041714
  33 H :    0.048673
Sum of atomic charges:   -0.0000000

LOEWDIN ATOMIC CHARGES
----------------------
   0 S :    0.390946
   1 C :   -0.195094
   2 C :   -0.058995
   3 C :   -0.066722
   4 C :   -0.179321
   5 H :    0.029148
   6 C :   -0.029556
   7 H :    0.036221
   8 H :    0.030348
   9 C :   -0.036717
  10 H :    0.011312
  11 H :    0.023789
  12 C :   -0.066389
  13 H :    0.020878
  14 H :    0.026916
  15 H :    0.031988
  16 S :    0.385593
  17 C :   -0.171805
  18 C :   -0.084626
  19 C :   -0.047878
  20 C :   -0.198249
  21 H :    0.047446
  22 C :   -0.030780
  23 H :    0.033474
  24 H :    0.018727
  25 C :   -0.036886
  26 H :    0.031042
  27 H :    0.021547
  28 C :   -0.062486
  29 H :    0.030386
  30 H :    0.019642
  31 H :    0.022024
  32 H :    0.032090
  33 H :    0.021987

  Mayer bond orders larger than 0.100000
B(  0-S ,  1-C ) :   1.1095 B(  0-S ,  4-C ) :   1.1361 B(  1-C ,  2-C ) :   1.6860
B(  1-C , 32-H ) :   0.9575 B(  2-C ,  3-C ) :   1.1903 B(  2-C ,  6-C ) :   1.0050
B(  3-C ,  4-C ) :   1.6398 B(  3-C ,  5-H ) :   0.9901 B(  4-C , 20-C ) :   1.0060
B(  6-C ,  7-H ) :   0.9355 B(  6-C ,  8-H ) :   0.9449 B(  6-C ,  9-C ) :   1.0722
B(  9-C , 10-H ) :   0.9592 B(  9-C , 11-H ) :   0.9500 B(  9-C , 12-C ) :   1.0779
B( 12-C , 13-H ) :   0.9778 B( 12-C , 14-H ) :   0.9731 B( 12-C , 15-H ) :   0.9675
B( 16-S , 17-C ) :   1.1701 B( 16-S , 20-C ) :   1.1149 B( 17-C , 18-C ) :   1.6077
B( 17-C , 33-H ) :   0.9661 B( 18-C , 19-C ) :   1.2510 B( 18-C , 21-H ) :   0.9790
B( 19-C , 20-C ) :   1.6000 B( 19-C , 22-C ) :   1.0224 B( 22-C , 23-H ) :   0.9405
B( 22-C , 24-H ) :   0.9335 B( 22-C , 25-C ) :   1.0561 B( 25-C , 26-H ) :   0.9556
B( 25-C , 27-H ) :   0.9586 B( 25-C , 28-C ) :   1.0873 B( 28-C , 29-H ) :   0.9750
B( 28-C , 30-H ) :   0.9713 B( 28-C , 31-H ) :   0.9734

Dispersion correction           -0.014383997
FINAL SINGLE POINT ENERGY     -1339.875727341129

DIPOLE MOMENT
-------------
                                X             Y             Z
Electronic contribution:     17.69117      -7.05132      -0.26130
Nuclear contribution   :    -17.94951       7.33290       0.09834
                        -----------------------------------------
Total Dipole Moment    :     -0.25833       0.28159      -0.16296
                        -----------------------------------------
Magnitude (a.u.)       :      0.41543
Magnitude (Debye)      :      1.05594

Rotational constants in cm-1:     0.018274     0.008451     0.007101
Rotational constants in MHz :   547.840789   253.356536   212.891687

                             ****ORCA TERMINATED NORMALLY****
TOTAL RUN TIME: 0 days 0 hours 0 minutes 30 seconds 280 msec
