                         Program Version 4.2.1 -  RELEASE  -
|  1> ! wB97X-D3 SP def2-SVP
|  2> %pal
|  3> nprocs 16
|  4> end
|  5>
|  6> * xyz 0 1
|  7> S 	 -78.5283 	 45.8094 	 121.804
|  8> C 	 -79.692 	 44.4173 	 121.685
|  9> C 	 -79.7378 	 43.6329 	 122.81
| 10> C 	 -78.7136 	 44.09 	 123.778
| 11> C 	 -78.0028 	 45.2031 	 123.397
| 12> H 	 -78.4758 	 43.7239 	 124.737
| 13> C 	 -80.5794 	 42.414 	 123.031
| 14> H 	 -81.6001 	 42.6041 	 122.554
| 15> H 	 -80.8106 	 42.4077 	 124.077
| 16> C 	 -80.0015 	 41.1226 	 122.539
| 17> H 	 -79.0687 	 41.0377 	 123.094
| 18> H 	 -80.586 	 40.2844 	 122.868
| 19> C 	 -79.7094 	 41.0067 	 121.075
| 20> H 	 -80.5857 	 41.3266 	 120.563
| 21> H 	 -78.9164 	 41.6459 	 120.659
| 22> H 	 -79.4502 	 39.9299 	 120.742
| 23> S 	 -77.651 	 47.757 	 124.254
| 24> C 	 -76.2688 	 48.1124 	 125.278
| 25> C 	 -75.5851 	 46.981 	 125.629
| 26> C 	 -76.0793 	 45.7726 	 125.04
| 27> C 	 -77.2228 	 46.0498 	 124.265
| 28> H 	 -74.7053 	 47.1099 	 126.27
| 29> C 	 -75.6374 	 44.3398 	 125.509
| 30> H 	 -76.4878 	 43.7822 	 125.941
| 31> H 	 -74.8402 	 44.3809 	 126.206
| 32> C 	 -75.0178 	 43.4424 	 124.378
| 33> H 	 -74.3343 	 44.0894 	 123.829
| 34> H 	 -75.7312 	 43.0455 	 123.667
| 35> C 	 -74.1384 	 42.2242 	 124.839
| 36> H 	 -73.1875 	 42.4827 	 125.273
| 37> H 	 -73.9223 	 41.5923 	 123.995
| 38> H 	 -74.7391 	 41.6822 	 125.478
| 39> H 	 -80.3851 	 44.2321 	 120.852
| 40> H 	 -76.0087 	 49.0971 	 125.636
| 41> *
| 42>
| 43>                          ****END OF INPUT****

CARTESIAN COORDINATES (ANGSTROEM)
---------------------------------
  S    -78.528300   45.809400  121.804000
  C    -79.692000   44.417300  121.685000
  C    -79.737800   43.632900  122.810000
  C    -78.713600   44.090000  123.778000
  C    -78.002800   45.203100  123.397000
  H    -78.475800   43.723900  124.737000
  C    -80.579400   42.414000  123.031000
  H    -81.600100   42.604100  122.554000
  H    -80.810600   42.407700  124.077000
  C    -80.001500   41.122600  122.539000
  H    -79.068700   41.037700  123.094000
  H    -80.586000   40.284400  122.868000
  C    -79.709400   41.006700  121.075000
  H    -80.585700   41.326600  120.563000
  H    -78.916400   41.645900  120.659000
  H    -79.450200   39.929900  120.742000
  S    -77.651000   47.757000  124.254000
  C    -76.268800   48.112400  125.278000
  C    -75.585100   46.981000  125.629000
  C    -76.079300   45.772600  125.040000
  C    -77.222800   46.049800  124.265000
  H    -74.705300   47.109900  126.270000
  C    -75.637400   44.339800  125.509000
  H    -76.487800   43.782200  125.941000
  H    -74.840200   44.380900  126.206000
  C    -75.017800   43.442400  124.378000
  H    -74.334300   44.089400  123.829000
  H    -75.731200   43.045500  123.667000
  C    -74.138400   42.224200  124.839000
  H    -73.187500   42.482700  125.273000
  H    -73.922300   41.592300  123.995000
  H    -74.739100   41.682200  125.478000
  H    -80.385100   44.232100  120.852000
  H    -76.008700   49.097100  125.636000

 Total Charge           Charge          ....    0
 Multiplicity           Mult            ....    1
 Number of Electrons    NEL             ....  134
 Basis Dimension        Dim             ....  322

ORBITAL ENERGIES
----------------

  NO   OCC          E(Eh)            E(eV)
   0   2.0000     -88.967953     -2420.9411
   1   2.0000     -88.966784     -2420.9093
   2   2.0000     -10.329209      -281.0721
   3   2.0000     -10.328639      -281.0566
   4   2.0000     -10.320563      -280.8368
   5   2.0000     -10.314736      -280.6782
   6   2.0000     -10.310375      -280.5596
   7   2.0000     -10.307180      -280.4726
   8   2.0000     -10.300046      -280.2785
   9   2.0000     -10.295675      -280.1596
  10   2.0000     -10.295613      -280.1579
  11   2.0000     -10.295344      -280.1505
  12   2.0000     -10.283339      -279.8239
  13   2.0000     -10.282816      -279.8097
  14   2.0000     -10.280077      -279.7351
  15   2.0000     -10.269659      -279.4516
  16   2.0000      -8.082374      -219.9326
  17   2.0000      -8.080015      -219.8684
  18   2.0000      -6.040856      -164.3800
  19   2.0000      -6.038749      -164.3227
  20   2.0000      -6.036938      -164.2734
  21   2.0000      -6.034883      -164.2175
  22   2.0000      -6.033148      -164.1703
  23   2.0000      -6.030449      -164.0969
  24   2.0000      -1.002578       -27.2815
  25   2.0000      -0.975544       -26.5459
  26   2.0000      -0.920689       -25.0532
  27   2.0000      -0.898894       -24.4602
  28   2.0000      -0.870550       -23.6889
  29   2.0000      -0.849455       -23.1148
  30   2.0000      -0.841712       -22.9041
  31   2.0000      -0.814132       -22.1537
  32   2.0000      -0.787113       -21.4184
  33   2.0000      -0.776997       -21.1432
  34   2.0000      -0.709329       -19.3018
  35   2.0000      -0.699928       -19.0460
  36   2.0000      -0.688754       -18.7419
  37   2.0000      -0.659774       -17.9534
  38   2.0000      -0.639496       -17.4016
  39   2.0000      -0.615203       -16.7405
  40   2.0000      -0.593846       -16.1594
  41   2.0000      -0.571186       -15.5428
  42   2.0000      -0.566928       -15.4269
  43   2.0000      -0.553329       -15.0569
  44   2.0000      -0.544216       -14.8089
  45   2.0000      -0.524701       -14.2778
  46   2.0000      -0.514640       -14.0041
  47   2.0000      -0.512935       -13.9577
  48   2.0000      -0.496284       -13.5046
  49   2.0000      -0.493646       -13.4328
  50   2.0000      -0.489820       -13.3287
  51   2.0000      -0.487652       -13.2697
  52   2.0000      -0.473300       -12.8791
  53   2.0000      -0.461075       -12.5465
  54   2.0000      -0.458172       -12.4675
  55   2.0000      -0.448389       -12.2013
  56   2.0000      -0.444444       -12.0939
  57   2.0000      -0.440154       -11.9772
  58   2.0000      -0.429766       -11.6945
  59   2.0000      -0.426652       -11.6098
  60   2.0000      -0.421877       -11.4799
  61   2.0000      -0.413608       -11.2549
  62   2.0000      -0.411773       -11.2049
  63   2.0000      -0.349150        -9.5008
  64   2.0000      -0.334811        -9.1107
  65   2.0000      -0.329119        -8.9558
  66   2.0000      -0.290266        -7.8985
  67   0.0000       0.025729         0.7001
  68   0.0000       0.065537         1.7833
  69   0.0000       0.105300         2.8653
  70   0.0000       0.116959         3.1826
  71   0.0000       0.122467         3.3325

MULLIKEN ATOMIC CHARGES
-----------------------
   0 S :    0.091439
   1 C :   -0.124281
   2 C :   -0.089581
   3 C :    0.044184
   4 C :   -0.125848
   5 H :   -0.014954
   6 C :    0.053208
   7 H :    0.029223
   8 H :    0.022401
   9 C :   -0.016048
  10 H :    0.014861
  11 H :    0.028818
  12 C :   -0.068868
  13 H :    0.011575
  14 H :    0.046340
  15 H :    0.047041
  16 S :    0.113672
  17 C :   -0.096807
  18 C :   -0.036843
  19 C :   -0.010526
  20 C :   -0.175417
  21 H :    0.025745
  22 C :    0.070841
  23 H :    0.045964
  24 H :    0.007488
  25 C :   -0.116145
  26 H :    0.027097
  27 H :    0.040442
  28 C :   -0.018678
  29 H :    0.031075
  30 H :    0.028583
  31 H :    0.010937
  32 H :    0.051448
  33 H :    0.051614
Sum of atomic charges:   -0.0000000

LOEWDIN ATOMIC CHARGES
----------------------
   0 S :    0.357257
   1 C :   -0.175475
   2 C :   -0.057577
   3 C :   -0.052467
   4 C :   -0.180359
   5 H :    0.020715
   6 C :   -0.036033
   7 H :    0.034820
   8 H :    0.031624
   9 C :   -0.043040
  10 H :    0.024545
  11 H :    0.026171
  12 C :   -0.070775
  13 H :    0.016036
  14 H :    0.029271
  15 H :    0.038822
  16 S :    0.404157
  17 C :   -0.186551
  18 C :   -0.072246
  19 C :   -0.055298
  20 C :   -0.190239
  21 H :    0.035675
  22 C :   -0.023438
  23 H :    0.031207
  24 H :    0.024876
  25 C :   -0.038652
  26 H :    0.022229
  27 H :    0.021168
  28 C :   -0.057883
  29 H :    0.021719
  30 H :    0.028433
  31 H :    0.011631
  32 H :    0.031568
  33 H :    0.028106

  Mayer bond orders larger than 0.100000
B(  0-S ,  1-C ) :   1.1044 B(  0-S ,  4-C ) :   1.1127 B(  1-C ,  2-C ) :   1.6745
B(  1-C , 32-H ) :   0.9606 B(  2-C ,  3-C ) :   1.1740 B(  2-C ,  6-C ) :   1.0282
B(  3-C ,  4-C ) :   1.6241 B(  3-C ,  5-H ) :   0.9932 B(  4-C , 20-C ) :   1.0600
B(  6-C ,  7-H ) :   0.9351 B(  6-C ,  8-H ) :   0.9320 B(  6-C ,  9-C ) :   1.0826
B(  9-C , 10-H ) :   0.9457 B(  9-C , 11-H ) :   0.9508 B(  9-C , 12-C ) :   1.0809
B( 12-C , 13-H ) :   0.9728 B( 12-C , 14-H ) :   0.9706 B( 12-C , 15-H ) :   0.9714
B( 16-S , 17-C ) :   1.1378 B( 16-S , 20-C ) :   1.1514 B( 17-C , 18-C ) :   1.6305
B( 17-C , 33-H ) :   0.9671 B( 18-C , 19-C ) :   1.2427 B( 18-C , 21-H ) :   0.9845
B( 19-C , 20-C ) :   1.5788 B( 19-C , 22-C ) :   1.0356 B( 22-C , 23-H ) :   0.9455
B( 22-C , 24-H ) :   0.9382 B( 22-C , 25-C ) :   1.0450 B( 25-C , 26-H ) :   0.9612
B( 25-C , 27-H ) :   0.9598 B( 25-C , 28-C ) :   1.0845 B( 28-C , 29-H ) :   0.9763
B( 28-C , 30-H ) :   0.9739 B( 28-C , 31-H ) :   0.9753

Dispersion correction           -0.014499355
FINAL SINGLE POINT ENERGY     -1339.873000333356

DIPOLE MOMENT
-------------
                                X             Y             Z
Electronic contribution:     -4.68410      29.13628      -1.26907
Nuclear contribution   :      4.70795     -29.69387       1.61905
                        -----------------------------------------
Total Dipole Moment    :      0.02385      -0.55759       0.34998
                        -----------------------------------------
Magnitude (a.u.)       :      0.65876
Magnitude (Debye)      :      1.67443

Rotational constants in cm-1:     0.018006     0.009327     0.006798
Rotational constants in MHz :   539.809971   279.623402   203.793429

                             ****ORCA TERMINATED NORMALLY****
TOTAL RUN TIME: 0 days 0 hours 0 minutes 33 seconds 676 msec
