                         Program Version 4.2.1 -  RELEASE  -
|  1> ! wB97X-D3 SP def2-SVP
|  2> %pal
|  3> nprocs 16
|  4> end
|  5>
|  6> * xyz 0 1
|  7> S 	 67.6815 	 21.6494 	 73.2009
|  8> C 	 67.0177 	 21.4145 	 74.7555
|  9> C 	 67.2303 	 22.4874 	 75.6423
| 10> C 	 67.7999 	 23.6283 	 74.9375
| 11> C 	 68.2045 	 23.2645 	 73.6748
| 12> H 	 67.9473 	 24.5944 	 75.3832
| 13> C 	 66.7979 	 22.5557 	 77.1543
| 14> H 	 67.1296 	 23.5059 	 77.5288
| 15> H 	 67.4233 	 21.8086 	 77.6698
| 16> C 	 65.3459 	 22.1823 	 77.5275
| 17> H 	 64.6716 	 22.8196 	 76.9282
| 18> H 	 65.0906 	 21.1617 	 77.1884
| 19> C 	 65.1207 	 22.3545 	 78.9995
| 20> H 	 65.5138 	 21.5215 	 79.6049
| 21> H 	 65.4826 	 23.2412 	 79.3672
| 22> H 	 64.0043 	 22.3582 	 79.1379
| 23> S 	 67.8958 	 24.9354 	 71.4138
| 24> C 	 69.1886 	 25.9864 	 70.8712
| 25> C 	 70.3497 	 25.4089 	 71.3454
| 26> C 	 70.2133 	 24.3943 	 72.3692
| 27> C 	 68.8499 	 24.1202 	 72.6816
| 28> H 	 71.2739 	 25.9088 	 71.0839
| 29> C 	 71.3956 	 23.7998 	 73.0388
| 30> H 	 72.1114 	 23.5292 	 72.2982
| 31> H 	 71.0968 	 22.8983 	 73.534
| 32> C 	 72.1335 	 24.6995 	 74.0504
| 33> H 	 71.3853 	 24.7895 	 74.919
| 34> H 	 72.3526 	 25.6988 	 73.6791
| 35> C 	 73.4421 	 23.9278 	 74.4852
| 36> H 	 73.7328 	 24.1528 	 75.5489
| 37> H 	 74.3273 	 24.0992 	 73.877
| 38> H 	 73.3733 	 22.8199 	 74.5192
| 39> H 	 66.4238 	 20.5234 	 75.0418
| 40> H 	 69.0712 	 26.8004 	 70.0945
| 41> *
| 42>
| 43>                          ****END OF INPUT****

CARTESIAN COORDINATES (ANGSTROEM)
---------------------------------
  S     67.681500   21.649400   73.200900
  C     67.017700   21.414500   74.755500
  C     67.230300   22.487400   75.642300
  C     67.799900   23.628300   74.937500
  C     68.204500   23.264500   73.674800
  H     67.947300   24.594400   75.383200
  C     66.797900   22.555700   77.154300
  H     67.129600   23.505900   77.528800
  H     67.423300   21.808600   77.669800
  C     65.345900   22.182300   77.527500
  H     64.671600   22.819600   76.928200
  H     65.090600   21.161700   77.188400
  C     65.120700   22.354500   78.999500
  H     65.513800   21.521500   79.604900
  H     65.482600   23.241200   79.367200
  H     64.004300   22.358200   79.137900
  S     67.895800   24.935400   71.413800
  C     69.188600   25.986400   70.871200
  C     70.349700   25.408900   71.345400
  C     70.213300   24.394300   72.369200
  C     68.849900   24.120200   72.681600
  H     71.273900   25.908800   71.083900
  C     71.395600   23.799800   73.038800
  H     72.111400   23.529200   72.298200
  H     71.096800   22.898300   73.534000
  C     72.133500   24.699500   74.050400
  H     71.385300   24.789500   74.919000
  H     72.352600   25.698800   73.679100
  C     73.442100   23.927800   74.485200
  H     73.732800   24.152800   75.548900
  H     74.327300   24.099200   73.877000
  H     73.373300   22.819900   74.519200
  H     66.423800   20.523400   75.041800
  H     69.071200   26.800400   70.094500

 Total Charge           Charge          ....    0
 Multiplicity           Mult            ....    1
 Number of Electrons    NEL             ....  134
 Basis Dimension        Dim             ....  322

ORBITAL ENERGIES
----------------

  NO   OCC          E(Eh)            E(eV)
   0   2.0000     -88.969755     -2420.9901
   1   2.0000     -88.955441     -2420.6006
   2   2.0000     -10.329584      -281.0823
   3   2.0000     -10.328467      -281.0519
   4   2.0000     -10.322793      -280.8975
   5   2.0000     -10.316070      -280.7145
   6   2.0000     -10.307682      -280.4863
   7   2.0000     -10.305483      -280.4264
   8   2.0000     -10.299925      -280.2752
   9   2.0000     -10.296691      -280.1872
  10   2.0000     -10.296164      -280.1729
  11   2.0000     -10.292587      -280.0755
  12   2.0000     -10.290641      -280.0226
  13   2.0000     -10.284422      -279.8533
  14   2.0000     -10.281082      -279.7625
  15   2.0000     -10.277014      -279.6518
  16   2.0000      -8.084861      -220.0003
  17   2.0000      -8.069993      -219.5957
  18   2.0000      -6.043194      -164.4437
  19   2.0000      -6.039339      -164.3388
  20   2.0000      -6.035753      -164.2412
  21   2.0000      -6.028544      -164.0450
  22   2.0000      -6.024486      -163.9346
  23   2.0000      -6.020722      -163.8322
  24   2.0000      -1.001825       -27.2611
  25   2.0000      -0.979254       -26.6469
  26   2.0000      -0.910297       -24.7704
  27   2.0000      -0.905524       -24.6406
  28   2.0000      -0.866384       -23.5755
  29   2.0000      -0.854003       -23.2386
  30   2.0000      -0.837173       -22.7806
  31   2.0000      -0.811252       -22.0753
  32   2.0000      -0.778340       -21.1797
  33   2.0000      -0.764296       -20.7975
  34   2.0000      -0.705575       -19.1997
  35   2.0000      -0.702429       -19.1141
  36   2.0000      -0.691318       -18.8117
  37   2.0000      -0.650539       -17.7021
  38   2.0000      -0.643843       -17.5199
  39   2.0000      -0.616757       -16.7828
  40   2.0000      -0.594160       -16.1679
  41   2.0000      -0.569756       -15.5039
  42   2.0000      -0.562750       -15.3132
  43   2.0000      -0.555838       -15.1251
  44   2.0000      -0.526903       -14.3378
  45   2.0000      -0.518858       -14.1189
  46   2.0000      -0.512052       -13.9336
  47   2.0000      -0.507562       -13.8115
  48   2.0000      -0.505376       -13.7520
  49   2.0000      -0.498769       -13.5722
  50   2.0000      -0.491213       -13.3666
  51   2.0000      -0.478617       -13.0238
  52   2.0000      -0.469076       -12.7642
  53   2.0000      -0.463332       -12.6079
  54   2.0000      -0.459811       -12.5121
  55   2.0000      -0.454970       -12.3803
  56   2.0000      -0.444692       -12.1007
  57   2.0000      -0.438172       -11.9233
  58   2.0000      -0.431183       -11.7331
  59   2.0000      -0.423721       -11.5300
  60   2.0000      -0.417433       -11.3589
  61   2.0000      -0.417230       -11.3534
  62   2.0000      -0.406749       -11.0682
  63   2.0000      -0.339014        -9.2250
  64   2.0000      -0.320681        -8.7262
  65   2.0000      -0.313654        -8.5350
  66   2.0000      -0.307416        -8.3652
  67   0.0000       0.043342         1.1794
  68   0.0000       0.046438         1.2636
  69   0.0000       0.114194         3.1074
  70   0.0000       0.119110         3.2411
  71   0.0000       0.123287         3.3548

MULLIKEN ATOMIC CHARGES
-----------------------
   0 S :    0.140594
   1 C :   -0.139251
   2 C :   -0.100878
   3 C :    0.056288
   4 C :   -0.187313
   5 H :    0.017814
   6 C :    0.065738
   7 H :    0.008857
   8 H :    0.034279
   9 C :   -0.082460
  10 H :    0.033332
  11 H :    0.027553
  12 C :   -0.020079
  13 H :    0.037588
  14 H :    0.013160
  15 H :    0.035875
  16 S :    0.084118
  17 C :   -0.122345
  18 C :   -0.029038
  19 C :   -0.018477
  20 C :   -0.168323
  21 H :    0.017886
  22 C :    0.077910
  23 H :    0.018669
  24 H :    0.021686
  25 C :   -0.077879
  26 H :    0.040511
  27 H :    0.037570
  28 C :   -0.076196
  29 H :    0.035373
  30 H :    0.037632
  31 H :    0.030775
  32 H :    0.060149
  33 H :    0.088882
Sum of atomic charges:   -0.0000000

LOEWDIN ATOMIC CHARGES
----------------------
   0 S :    0.427767
   1 C :   -0.217405
   2 C :   -0.061989
   3 C :   -0.044278
   4 C :   -0.202417
   5 H :    0.033906
   6 C :   -0.031885
   7 H :    0.022795
   8 H :    0.035045
   9 C :   -0.043151
  10 H :    0.025311
  11 H :    0.024872
  12 C :   -0.058880
  13 H :    0.029585
  14 H :    0.011775
  15 H :    0.035819
  16 S :    0.381202
  17 C :   -0.190060
  18 C :   -0.081023
  19 C :   -0.050319
  20 C :   -0.200060
  21 H :    0.026971
  22 C :   -0.035482
  23 H :    0.028375
  24 H :    0.028750
  25 C :   -0.034057
  26 H :    0.032649
  27 H :    0.022438
  28 C :   -0.078889
  29 H :    0.030200
  30 H :    0.024514
  31 H :    0.027861
  32 H :    0.032191
  33 H :    0.047870

  Mayer bond orders larger than 0.100000
B(  0-S ,  1-C ) :   1.1582 B(  0-S ,  4-C ) :   1.1520 B(  1-C ,  2-C ) :   1.6054
B(  1-C , 32-H ) :   0.9628 B(  2-C ,  3-C ) :   1.2434 B(  2-C ,  6-C ) :   1.0106
B(  3-C ,  4-C ) :   1.5908 B(  3-C ,  5-H ) :   0.9919 B(  4-C , 20-C ) :   1.0323
B(  6-C ,  7-H ) :   0.9466 B(  6-C ,  8-H ) :   0.9373 B(  6-C ,  9-C ) :   1.0626
B(  9-C , 10-H ) :   0.9592 B(  9-C , 11-H ) :   0.9497 B(  9-C , 12-C ) :   1.0871
B( 12-C , 13-H ) :   0.9735 B( 12-C , 14-H ) :   0.9746 B( 12-C , 15-H ) :   0.9723
B( 16-S , 17-C ) :   1.1583 B( 16-S , 20-C ) :   1.1373 B( 17-C , 18-C ) :   1.5950
B( 17-C , 20-C ) :   0.1063 B( 17-C , 33-H ) :   0.9623 B( 18-C , 19-C ) :   1.2377
B( 18-C , 21-H ) :   0.9873 B( 19-C , 20-C ) :   1.5625 B( 19-C , 22-C ) :   1.0671
B( 22-C , 23-H ) :   0.9324 B( 22-C , 24-H ) :   0.9248 B( 22-C , 25-C ) :   1.0604
B( 25-C , 26-H ) :   0.9569 B( 25-C , 27-H ) :   0.9626 B( 25-C , 28-C ) :   1.0547
B( 28-C , 29-H ) :   0.9770 B( 28-C , 30-H ) :   0.9778 B( 28-C , 31-H ) :   0.9753

Dispersion correction           -0.013495925
FINAL SINGLE POINT ENERGY     -1339.868710567310

DIPOLE MOMENT
-------------
                                X             Y             Z
Electronic contribution:     -7.76990       0.80807     -24.49881
Nuclear contribution   :      7.99749      -0.75050      25.03804
                        -----------------------------------------
Total Dipole Moment    :      0.22759       0.05757       0.53924
                        -----------------------------------------
Magnitude (a.u.)       :      0.58812
Magnitude (Debye)      :      1.49489

Rotational constants in cm-1:     0.019011     0.007200     0.006070
Rotational constants in MHz :   569.925270   215.863825   181.970851

                             ****ORCA TERMINATED NORMALLY****
TOTAL RUN TIME: 0 days 0 hours 0 minutes 29 seconds 987 msec
