                         Program Version 4.2.1 -  RELEASE  -
|  1> ! wB97X-D3 SP def2-SVP
|  2> %pal
|  3> nprocs 16
|  4> end
|  5>
|  6> * xyz 0 1
|  7> S 	 2.61465 	 -13.392 	 80.1928
|  8> C 	 2.47726 	 -13.4664 	 81.897
|  9> C 	 1.51993 	 -12.6003 	 82.4209
| 10> C 	 0.991872 	 -11.7639 	 81.3977
| 11> C 	 1.49726 	 -12.0513 	 80.1425
| 12> H 	 0.306997 	 -10.9519 	 81.4622
| 13> C 	 0.926123 	 -12.6929 	 83.8311
| 14> H 	 0.689145 	 -11.7458 	 84.2529
| 15> H 	 1.79281 	 -13.053 	 84.5002
| 16> C 	 -0.371067 	 -13.5627 	 83.9929
| 17> H 	 -1.1044 	 -12.9476 	 83.6195
| 18> H 	 -0.265123 	 -14.4305 	 83.3791
| 19> C 	 -0.759662 	 -13.9925 	 85.4585
| 20> H 	 -1.01752 	 -13.2322 	 86.2691
| 21> H 	 -1.69117 	 -14.5067 	 85.3067
| 22> H 	 0.0675766 	 -14.5365 	 85.9482
| 23> S 	 2.86476 	 -10.6699 	 78.2875
| 24> C 	 1.8597 	 -10.2232 	 76.8991
| 25> C 	 0.521619 	 -10.1888 	 77.0983
| 26> C 	 0.209855 	 -10.8421 	 78.348
| 27> C 	 1.37745 	 -11.2518 	 78.973
| 28> H 	 -0.0985622 	 -9.65077 	 76.3894
| 29> C 	 -1.21444 	 -11.0036 	 78.865
| 30> H 	 -1.67398 	 -10.053 	 78.8961
| 31> H 	 -1.28475 	 -11.3718 	 79.8693
| 32> C 	 -2.21658 	 -11.68 	 77.9792
| 33> H 	 -2.00772 	 -12.7201 	 77.7746
| 34> H 	 -2.17587 	 -11.2619 	 76.9802
| 35> C 	 -3.62969 	 -11.6985 	 78.5131
| 36> H 	 -3.52385 	 -12.1691 	 79.4975
| 37> H 	 -4.31413 	 -12.2726 	 77.9494
| 38> H 	 -3.97763 	 -10.6955 	 78.6327
| 39> H 	 2.92943 	 -14.0877 	 82.6179
| 40> H 	 2.20143 	 -9.94913 	 75.9026
| 41> *
| 42>
| 43>                          ****END OF INPUT****

CARTESIAN COORDINATES (ANGSTROEM)
---------------------------------
  S      2.614650  -13.392000   80.192800
  C      2.477260  -13.466400   81.897000
  C      1.519930  -12.600300   82.420900
  C      0.991872  -11.763900   81.397700
  C      1.497260  -12.051300   80.142500
  H      0.306997  -10.951900   81.462200
  C      0.926123  -12.692900   83.831100
  H      0.689145  -11.745800   84.252900
  H      1.792810  -13.053000   84.500200
  C     -0.371067  -13.562700   83.992900
  H     -1.104400  -12.947600   83.619500
  H     -0.265123  -14.430500   83.379100
  C     -0.759662  -13.992500   85.458500
  H     -1.017520  -13.232200   86.269100
  H     -1.691170  -14.506700   85.306700
  H      0.067577  -14.536500   85.948200
  S      2.864760  -10.669900   78.287500
  C      1.859700  -10.223200   76.899100
  C      0.521619  -10.188800   77.098300
  C      0.209855  -10.842100   78.348000
  C      1.377450  -11.251800   78.973000
  H     -0.098562   -9.650770   76.389400
  C     -1.214440  -11.003600   78.865000
  H     -1.673980  -10.053000   78.896100
  H     -1.284750  -11.371800   79.869300
  C     -2.216580  -11.680000   77.979200
  H     -2.007720  -12.720100   77.774600
  H     -2.175870  -11.261900   76.980200
  C     -3.629690  -11.698500   78.513100
  H     -3.523850  -12.169100   79.497500
  H     -4.314130  -12.272600   77.949400
  H     -3.977630  -10.695500   78.632700
  H      2.929430  -14.087700   82.617900
  H      2.201430   -9.949130   75.902600

 Total Charge           Charge          ....    0
 Multiplicity           Mult            ....    1
 Number of Electrons    NEL             ....  134
 Basis Dimension        Dim             ....  322

ORBITAL ENERGIES
----------------

  NO   OCC          E(Eh)            E(eV)
   0   2.0000     -88.968936     -2420.9678
   1   2.0000     -88.968121     -2420.9457
   2   2.0000     -10.318895      -280.7914
   3   2.0000     -10.318526      -280.7814
   4   2.0000     -10.312446      -280.6159
   5   2.0000     -10.307590      -280.4838
   6   2.0000     -10.305127      -280.4168
   7   2.0000     -10.299564      -280.2654
   8   2.0000     -10.295952      -280.1671
   9   2.0000     -10.292387      -280.0701
  10   2.0000     -10.288520      -279.9649
  11   2.0000     -10.287983      -279.9503
  12   2.0000     -10.285889      -279.8933
  13   2.0000     -10.285278      -279.8766
  14   2.0000     -10.276166      -279.6287
  15   2.0000     -10.271975      -279.5146
  16   2.0000      -8.084026      -219.9775
  17   2.0000      -8.082950      -219.9482
  18   2.0000      -6.042398      -164.4220
  19   2.0000      -6.041384      -164.3944
  20   2.0000      -6.038452      -164.3146
  21   2.0000      -6.037972      -164.3016
  22   2.0000      -6.034945      -164.2192
  23   2.0000      -6.033231      -164.1726
  24   2.0000      -1.011807       -27.5327
  25   2.0000      -0.985325       -26.8121
  26   2.0000      -0.918793       -25.0016
  27   2.0000      -0.903965       -24.5981
  28   2.0000      -0.872447       -23.7405
  29   2.0000      -0.856596       -23.3092
  30   2.0000      -0.847549       -23.0630
  31   2.0000      -0.815455       -22.1897
  32   2.0000      -0.785856       -21.3842
  33   2.0000      -0.771763       -21.0007
  34   2.0000      -0.709273       -19.3003
  35   2.0000      -0.700424       -19.0595
  36   2.0000      -0.696219       -18.9451
  37   2.0000      -0.659581       -17.9481
  38   2.0000      -0.642025       -17.4704
  39   2.0000      -0.616463       -16.7748
  40   2.0000      -0.600872       -16.3505
  41   2.0000      -0.574704       -15.6385
  42   2.0000      -0.572602       -15.5813
  43   2.0000      -0.557028       -15.1575
  44   2.0000      -0.527745       -14.3607
  45   2.0000      -0.527510       -14.3543
  46   2.0000      -0.521897       -14.2015
  47   2.0000      -0.506988       -13.7958
  48   2.0000      -0.499755       -13.5990
  49   2.0000      -0.493739       -13.4353
  50   2.0000      -0.488117       -13.2823
  51   2.0000      -0.485016       -13.1980
  52   2.0000      -0.471694       -12.8354
  53   2.0000      -0.463621       -12.6158
  54   2.0000      -0.458294       -12.4708
  55   2.0000      -0.454961       -12.3801
  56   2.0000      -0.448412       -12.2019
  57   2.0000      -0.440657       -11.9909
  58   2.0000      -0.432033       -11.7562
  59   2.0000      -0.430613       -11.7176
  60   2.0000      -0.427684       -11.6379
  61   2.0000      -0.414373       -11.2757
  62   2.0000      -0.411671       -11.2021
  63   2.0000      -0.345833        -9.4106
  64   2.0000      -0.332686        -9.0528
  65   2.0000      -0.324175        -8.8212
  66   2.0000      -0.288058        -7.8384
  67   0.0000       0.029291         0.7970
  68   0.0000       0.071316         1.9406
  69   0.0000       0.096310         2.6207
  70   0.0000       0.118305         3.2192
  71   0.0000       0.135220         3.6795

MULLIKEN ATOMIC CHARGES
-----------------------
   0 S :    0.138777
   1 C :   -0.080113
   2 C :   -0.099506
   3 C :    0.049801
   4 C :   -0.192154
   5 H :    0.003833
   6 C :    0.030074
   7 H :    0.015432
   8 H :    0.024249
   9 C :   -0.015025
  10 H :    0.012212
  11 H :    0.031649
  12 C :   -0.086833
  13 H :    0.036924
  14 H :    0.041641
  15 H :    0.042726
  16 S :    0.132022
  17 C :   -0.085174
  18 C :   -0.045132
  19 C :    0.004591
  20 C :   -0.180458
  21 H :    0.027001
  22 C :    0.124662
  23 H :    0.007429
  24 H :    0.002316
  25 C :   -0.096739
  26 H :    0.017800
  27 H :    0.015015
  28 C :   -0.015530
  29 H :    0.023939
  30 H :    0.030645
  31 H :    0.019603
  32 H :    0.020380
  33 H :    0.043943
Sum of atomic charges:    0.0000000

LOEWDIN ATOMIC CHARGES
----------------------
   0 S :    0.430750
   1 C :   -0.204842
   2 C :   -0.065969
   3 C :   -0.055474
   4 C :   -0.202540
   5 H :    0.025273
   6 C :   -0.035686
   7 H :    0.021435
   8 H :    0.031891
   9 C :   -0.024921
  10 H :    0.013943
  11 H :    0.024253
  12 C :   -0.074192
  13 H :    0.031829
  14 H :    0.027999
  15 H :    0.027759
  16 S :    0.398676
  17 C :   -0.173016
  18 C :   -0.067851
  19 C :   -0.042706
  20 C :   -0.205653
  21 H :    0.036319
  22 C :   -0.029319
  23 H :    0.031860
  24 H :    0.024121
  25 C :   -0.043350
  26 H :    0.019945
  27 H :    0.017558
  28 C :   -0.053842
  29 H :    0.028528
  30 H :    0.022972
  31 H :    0.017823
  32 H :    0.020617
  33 H :    0.025807

  Mayer bond orders larger than 0.100000
B(  0-S ,  1-C ) :   1.1510 B(  0-S ,  4-C ) :   1.1472 B(  1-C ,  2-C ) :   1.6027
B(  1-C , 32-H ) :   0.9646 B(  2-C ,  3-C ) :   1.2448 B(  2-C ,  6-C ) :   1.0366
B(  3-C ,  4-C ) :   1.5643 B(  3-C ,  5-H ) :   0.9936 B(  4-C , 20-C ) :   1.0646
B(  6-C ,  7-H ) :   0.9433 B(  6-C ,  8-H ) :   0.9425 B(  6-C ,  9-C ) :   1.0461
B(  9-C , 10-H ) :   0.9562 B(  9-C , 11-H ) :   0.9596 B(  9-C , 12-C ) :   1.0710
B( 12-C , 13-H ) :   0.9769 B( 12-C , 14-H ) :   0.9752 B( 12-C , 15-H ) :   0.9778
B( 16-S , 17-C ) :   1.1197 B( 16-S , 20-C ) :   1.1303 B( 17-C , 18-C ) :   1.6879
B( 17-C , 33-H ) :   0.9603 B( 18-C , 19-C ) :   1.1789 B( 18-C , 21-H ) :   0.9864
B( 19-C , 20-C ) :   1.6306 B( 19-C , 22-C ) :   1.0513 B( 22-C , 23-H ) :   0.9235
B( 22-C , 24-H ) :   0.9266 B( 22-C , 25-C ) :   1.0578 B( 25-C , 26-H ) :   0.9506
B( 25-C , 27-H ) :   0.9509 B( 25-C , 28-C ) :   1.0906 B( 28-C , 29-H ) :   0.9723
B( 28-C , 30-H ) :   0.9724 B( 28-C , 31-H ) :   0.9743

Dispersion correction           -0.013529783
FINAL SINGLE POINT ENERGY     -1339.847740101341

DIPOLE MOMENT
-------------
                                X             Y             Z
Electronic contribution:     27.09141       3.94817     -15.20409
Nuclear contribution   :    -27.72387      -3.82223      15.37719
                        -----------------------------------------
Total Dipole Moment    :     -0.63247       0.12594       0.17310
                        -----------------------------------------
Magnitude (a.u.)       :      0.66771
Magnitude (Debye)      :      1.69718

Rotational constants in cm-1:     0.017206     0.008760     0.006280
Rotational constants in MHz :   515.820647   262.615452   188.278239

                             ****ORCA TERMINATED NORMALLY****
TOTAL RUN TIME: 0 days 0 hours 0 minutes 34 seconds 159 msec
