                         Program Version 4.2.1 -  RELEASE  -
|  1> ! wB97X-D3 SP def2-SVP
|  2> %pal
|  3> nprocs 16
|  4> end
|  5>
|  6> * xyz 0 1
|  7> S 	 43.5121 	 10.1149 	 50.6443
|  8> C 	 42.7642 	 9.4164 	 52.1141
|  9> C 	 43.0001 	 10.1383 	 53.275
| 10> C 	 43.6329 	 11.3855 	 52.8613
| 11> C 	 43.9679 	 11.5716 	 51.5334
| 12> H 	 43.8193 	 12.2327 	 53.5005
| 13> C 	 42.5596 	 9.66722 	 54.6742
| 14> H 	 43.4609 	 9.75849 	 55.3092
| 15> H 	 42.2164 	 8.62127 	 54.7433
| 16> C 	 41.6383 	 10.6013 	 55.4722
| 17> H 	 42.0193 	 11.6046 	 55.6606
| 18> H 	 40.6021 	 10.6656 	 55.0603
| 19> C 	 41.4995 	 10.1333 	 56.9356
| 20> H 	 40.7981 	 9.34167 	 57.0389
| 21> H 	 42.4648 	 9.68394 	 57.27
| 22> H 	 41.193 	 10.9424 	 57.6613
| 23> S 	 46.1858 	 12.0809 	 50.1436
| 24> C 	 46.5046 	 13.7573 	 49.6528
| 25> C 	 45.5655 	 14.6061 	 50.1096
| 26> C 	 44.4649 	 13.9724 	 50.7598
| 27> C 	 44.7251 	 12.6429 	 50.9142
| 28> H 	 45.6502 	 15.7062 	 50.1127
| 29> C 	 43.3 	 14.6919 	 51.438
| 30> H 	 43.6092 	 15.2975 	 52.3047
| 31> H 	 42.6155 	 13.8945 	 51.754
| 32> C 	 42.6522 	 15.6559 	 50.5212
| 33> H 	 43.3646 	 16.3357 	 50.0776
| 34> H 	 41.9244 	 16.3666 	 50.9783
| 35> C 	 41.9486 	 14.9209 	 49.4628
| 36> H 	 41.2683 	 15.5743 	 48.9006
| 37> H 	 41.335 	 14.0688 	 49.8443
| 38> H 	 42.6558 	 14.5693 	 48.7954
| 39> H 	 42.2325 	 8.50378 	 52.1149
| 40> H 	 47.391 	 14.0192 	 49.1233
| 41> *
| 42>
| 43>                          ****END OF INPUT****

CARTESIAN COORDINATES (ANGSTROEM)
---------------------------------
  S     43.512100   10.114900   50.644300
  C     42.764200    9.416400   52.114100
  C     43.000100   10.138300   53.275000
  C     43.632900   11.385500   52.861300
  C     43.967900   11.571600   51.533400
  H     43.819300   12.232700   53.500500
  C     42.559600    9.667220   54.674200
  H     43.460900    9.758490   55.309200
  H     42.216400    8.621270   54.743300
  C     41.638300   10.601300   55.472200
  H     42.019300   11.604600   55.660600
  H     40.602100   10.665600   55.060300
  C     41.499500   10.133300   56.935600
  H     40.798100    9.341670   57.038900
  H     42.464800    9.683940   57.270000
  H     41.193000   10.942400   57.661300
  S     46.185800   12.080900   50.143600
  C     46.504600   13.757300   49.652800
  C     45.565500   14.606100   50.109600
  C     44.464900   13.972400   50.759800
  C     44.725100   12.642900   50.914200
  H     45.650200   15.706200   50.112700
  C     43.300000   14.691900   51.438000
  H     43.609200   15.297500   52.304700
  H     42.615500   13.894500   51.754000
  C     42.652200   15.655900   50.521200
  H     43.364600   16.335700   50.077600
  H     41.924400   16.366600   50.978300
  C     41.948600   14.920900   49.462800
  H     41.268300   15.574300   48.900600
  H     41.335000   14.068800   49.844300
  H     42.655800   14.569300   48.795400
  H     42.232500    8.503780   52.114900
  H     47.391000   14.019200   49.123300

 Total Charge           Charge          ....    0
 Multiplicity           Mult            ....    1
 Number of Electrons    NEL             ....  134
 Basis Dimension        Dim             ....  322

ORBITAL ENERGIES
----------------

  NO   OCC          E(Eh)            E(eV)
   0   2.0000     -88.964373     -2420.8437
   1   2.0000     -88.963560     -2420.8215
   2   2.0000     -10.328267      -281.0464
   3   2.0000     -10.323609      -280.9197
   4   2.0000     -10.315433      -280.6972
   5   2.0000     -10.315190      -280.6906
   6   2.0000     -10.311154      -280.5808
   7   2.0000     -10.306637      -280.4579
   8   2.0000     -10.300155      -280.2815
   9   2.0000     -10.297507      -280.2094
  10   2.0000     -10.294585      -280.1299
  11   2.0000     -10.292439      -280.0715
  12   2.0000     -10.289959      -280.0040
  13   2.0000     -10.282839      -279.8103
  14   2.0000     -10.275626      -279.6140
  15   2.0000     -10.261473      -279.2289
  16   2.0000      -8.079355      -219.8504
  17   2.0000      -8.077574      -219.8020
  18   2.0000      -6.037859      -164.2985
  19   2.0000      -6.036176      -164.2527
  20   2.0000      -6.033985      -164.1931
  21   2.0000      -6.032261      -164.1462
  22   2.0000      -6.029921      -164.0825
  23   2.0000      -6.028183      -164.0352
  24   2.0000      -1.008528       -27.4435
  25   2.0000      -0.979906       -26.6646
  26   2.0000      -0.924089       -25.1457
  27   2.0000      -0.912942       -24.8424
  28   2.0000      -0.873605       -23.7720
  29   2.0000      -0.851318       -23.1655
  30   2.0000      -0.840956       -22.8836
  31   2.0000      -0.815065       -22.1790
  32   2.0000      -0.783313       -21.3150
  33   2.0000      -0.774026       -21.0623
  34   2.0000      -0.705775       -19.2051
  35   2.0000      -0.697536       -18.9809
  36   2.0000      -0.693392       -18.8681
  37   2.0000      -0.658605       -17.9216
  38   2.0000      -0.646923       -17.6037
  39   2.0000      -0.615324       -16.7438
  40   2.0000      -0.605064       -16.4646
  41   2.0000      -0.573574       -15.6077
  42   2.0000      -0.564332       -15.3562
  43   2.0000      -0.560708       -15.2577
  44   2.0000      -0.549158       -14.9434
  45   2.0000      -0.524216       -14.2646
  46   2.0000      -0.521073       -14.1791
  47   2.0000      -0.507842       -13.8191
  48   2.0000      -0.499922       -13.6036
  49   2.0000      -0.496822       -13.5192
  50   2.0000      -0.488212       -13.2849
  51   2.0000      -0.479126       -13.0377
  52   2.0000      -0.470353       -12.7990
  53   2.0000      -0.467155       -12.7119
  54   2.0000      -0.454535       -12.3685
  55   2.0000      -0.445982       -12.1358
  56   2.0000      -0.441696       -12.0192
  57   2.0000      -0.436197       -11.8695
  58   2.0000      -0.434121       -11.8130
  59   2.0000      -0.424581       -11.5534
  60   2.0000      -0.423987       -11.5373
  61   2.0000      -0.419005       -11.4017
  62   2.0000      -0.409225       -11.1356
  63   2.0000      -0.344238        -9.3672
  64   2.0000      -0.333388        -9.0720
  65   2.0000      -0.326963        -8.8971
  66   2.0000      -0.298118        -8.1122
  67   0.0000       0.037501         1.0204
  68   0.0000       0.063940         1.7399
  69   0.0000       0.104795         2.8516
  70   0.0000       0.122912         3.3446
  71   0.0000       0.125090         3.4039

MULLIKEN ATOMIC CHARGES
-----------------------
   0 S :    0.100166
   1 C :   -0.121399
   2 C :   -0.043995
   3 C :    0.036160
   4 C :   -0.169075
   5 H :    0.003850
   6 C :    0.063669
   7 H :    0.034289
   8 H :    0.037190
   9 C :   -0.085040
  10 H :    0.035283
  11 H :    0.042525
  12 C :   -0.084729
  13 H :    0.023254
  14 H :    0.024516
  15 H :    0.048885
  16 S :    0.101985
  17 C :   -0.076109
  18 C :   -0.027121
  19 C :   -0.047076
  20 C :   -0.177476
  21 H :    0.030568
  22 C :    0.089971
  23 H :    0.040140
  24 H :    0.033433
  25 C :   -0.081233
  26 H :    0.013896
  27 H :    0.024803
  28 C :   -0.031948
  29 H :    0.023006
  30 H :    0.034860
  31 H :    0.023963
  32 H :    0.032007
  33 H :    0.046781
Sum of atomic charges:   -0.0000000

LOEWDIN ATOMIC CHARGES
----------------------
   0 S :    0.374565
   1 C :   -0.171459
   2 C :   -0.058916
   3 C :   -0.059354
   4 C :   -0.197267
   5 H :    0.025291
   6 C :   -0.031892
   7 H :    0.040162
   8 H :    0.036687
   9 C :   -0.046569
  10 H :    0.026552
  11 H :    0.027149
  12 C :   -0.071662
  13 H :    0.015287
  14 H :    0.024597
  15 H :    0.033947
  16 S :    0.394464
  17 C :   -0.165636
  18 C :   -0.070071
  19 C :   -0.057629
  20 C :   -0.192331
  21 H :    0.036505
  22 C :   -0.026661
  23 H :    0.035220
  24 H :    0.033491
  25 C :   -0.052373
  26 H :    0.020236
  27 H :    0.025474
  28 C :   -0.059753
  29 H :    0.024467
  30 H :    0.030577
  31 H :    0.016448
  32 H :    0.017340
  33 H :    0.023116

  Mayer bond orders larger than 0.100000
B(  0-S ,  1-C ) :   1.1341 B(  0-S ,  4-C ) :   1.1196 B(  1-C ,  2-C ) :   1.6299
B(  1-C , 32-H ) :   0.9723 B(  2-C ,  3-C ) :   1.2035 B(  2-C ,  6-C ) :   1.0264
B(  3-C ,  4-C ) :   1.6213 B(  3-C ,  5-H ) :   0.9905 B(  4-C , 20-C ) :   1.0251
B(  6-C ,  7-H ) :   0.9285 B(  6-C ,  8-H ) :   0.9506 B(  6-C ,  9-C ) :   1.0592
B(  9-C , 10-H ) :   0.9585 B(  9-C , 11-H ) :   0.9572 B(  9-C , 12-C ) :   1.0652
B( 12-C , 13-H ) :   0.9772 B( 12-C , 14-H ) :   0.9723 B( 12-C , 15-H ) :   0.9776
B( 16-S , 17-C ) :   1.1274 B( 16-S , 20-C ) :   1.1442 B( 17-C , 18-C ) :   1.6460
B( 17-C , 33-H ) :   0.9726 B( 18-C , 19-C ) :   1.2047 B( 18-C , 21-H ) :   0.9789
B( 19-C , 20-C ) :   1.6403 B( 19-C , 22-C ) :   1.0313 B( 22-C , 23-H ) :   0.9355
B( 22-C , 24-H ) :   0.9347 B( 22-C , 25-C ) :   1.0737 B( 25-C , 26-H ) :   0.9476
B( 25-C , 27-H ) :   0.9544 B( 25-C , 28-C ) :   1.0845 B( 28-C , 29-H ) :   0.9706
B( 28-C , 30-H ) :   0.9728 B( 28-C , 31-H ) :   0.9703

Dispersion correction           -0.013909302
FINAL SINGLE POINT ENERGY     -1339.872856647941

DIPOLE MOMENT
-------------
                                X             Y             Z
Electronic contribution:     17.57433      -9.16018     -17.45407
Nuclear contribution   :    -17.78058       9.51073      18.02556
                        -----------------------------------------
Total Dipole Moment    :     -0.20625       0.35055       0.57149
                        -----------------------------------------
Magnitude (a.u.)       :      0.70144
Magnitude (Debye)      :      1.78293

Rotational constants in cm-1:     0.019808     0.007797     0.006647
Rotational constants in MHz :   593.826345   233.736031   199.282947

                             ****ORCA TERMINATED NORMALLY****
TOTAL RUN TIME: 0 days 0 hours 0 minutes 33 seconds 939 msec
