                         Program Version 4.2.1 -  RELEASE  -
|  1> ! wB97X-D3 SP def2-SVP
|  2> %pal
|  3> nprocs 16
|  4> end
|  5>
|  6> * xyz 0 1
|  7> S 	 -42.4076 	 48.5507 	 107.213
|  8> C 	 -41.447 	 47.3682 	 106.283
|  9> C 	 -40.8291 	 47.9342 	 105.182
| 10> C 	 -41.0867 	 49.3464 	 105.085
| 11> C 	 -41.9635 	 49.8003 	 106.072
| 12> H 	 -40.7366 	 49.9794 	 104.271
| 13> C 	 -40.1179 	 47.0954 	 104.104
| 14> H 	 -39.9165 	 46.0356 	 104.409
| 15> H 	 -39.151 	 47.4849 	 104.132
| 16> C 	 -40.8622 	 47.137 	 102.719
| 17> H 	 -40.8874 	 48.1832 	 102.442
| 18> H 	 -40.2042 	 46.6473 	 101.955
| 19> C 	 -42.2324 	 46.5209 	 102.768
| 20> H 	 -42.7545 	 46.8903 	 101.869
| 21> H 	 -42.3973 	 45.5028 	 102.721
| 22> H 	 -42.8486 	 46.8309 	 103.603
| 23> S 	 -42.4408 	 52.0297 	 107.705
| 24> C 	 -42.849 	 53.4762 	 106.934
| 25> C 	 -43.1218 	 53.4232 	 105.577
| 26> C 	 -42.9859 	 52.0529 	 105.153
| 27> C 	 -42.5384 	 51.1852 	 106.147
| 28> H 	 -43.5163 	 54.3039 	 105.14
| 29> C 	 -43.1596 	 51.6505 	 103.672
| 30> H 	 -42.199 	 51.1776 	 103.257
| 31> H 	 -43.3663 	 52.6461 	 103.146
| 32> C 	 -44.3017 	 50.6697 	 103.461
| 33> H 	 -44.1174 	 49.6542 	 103.85
| 34> H 	 -44.3668 	 50.5473 	 102.361
| 35> C 	 -45.5844 	 51.2274 	 104.015
| 36> H 	 -45.6078 	 52.3482 	 104.034
| 37> H 	 -45.6888 	 50.9365 	 105.051
| 38> H 	 -46.4288 	 50.7991 	 103.422
| 39> H 	 -41.2845 	 46.3479 	 106.612
| 40> H 	 -42.789 	 54.3856 	 107.468
| 41> *
| 42>
| 43>                          ****END OF INPUT****

CARTESIAN COORDINATES (ANGSTROEM)
---------------------------------
  S    -42.407600   48.550700  107.213000
  C    -41.447000   47.368200  106.283000
  C    -40.829100   47.934200  105.182000
  C    -41.086700   49.346400  105.085000
  C    -41.963500   49.800300  106.072000
  H    -40.736600   49.979400  104.271000
  C    -40.117900   47.095400  104.104000
  H    -39.916500   46.035600  104.409000
  H    -39.151000   47.484900  104.132000
  C    -40.862200   47.137000  102.719000
  H    -40.887400   48.183200  102.442000
  H    -40.204200   46.647300  101.955000
  C    -42.232400   46.520900  102.768000
  H    -42.754500   46.890300  101.869000
  H    -42.397300   45.502800  102.721000
  H    -42.848600   46.830900  103.603000
  S    -42.440800   52.029700  107.705000
  C    -42.849000   53.476200  106.934000
  C    -43.121800   53.423200  105.577000
  C    -42.985900   52.052900  105.153000
  C    -42.538400   51.185200  106.147000
  H    -43.516300   54.303900  105.140000
  C    -43.159600   51.650500  103.672000
  H    -42.199000   51.177600  103.257000
  H    -43.366300   52.646100  103.146000
  C    -44.301700   50.669700  103.461000
  H    -44.117400   49.654200  103.850000
  H    -44.366800   50.547300  102.361000
  C    -45.584400   51.227400  104.015000
  H    -45.607800   52.348200  104.034000
  H    -45.688800   50.936500  105.051000
  H    -46.428800   50.799100  103.422000
  H    -41.284500   46.347900  106.612000
  H    -42.789000   54.385600  107.468000

 Total Charge           Charge          ....    0
 Multiplicity           Mult            ....    1
 Number of Electrons    NEL             ....  134
 Basis Dimension        Dim             ....  322

ORBITAL ENERGIES
----------------

  NO   OCC          E(Eh)            E(eV)
   0   2.0000     -88.967650     -2420.9328
   1   2.0000     -88.966861     -2420.9114
   2   2.0000     -10.336151      -281.2610
   3   2.0000     -10.328299      -281.0473
   4   2.0000     -10.314348      -280.6677
   5   2.0000     -10.311837      -280.5993
   6   2.0000     -10.308321      -280.5037
   7   2.0000     -10.303555      -280.3740
   8   2.0000     -10.301261      -280.3116
   9   2.0000     -10.297736      -280.2156
  10   2.0000     -10.294931      -280.1393
  11   2.0000     -10.294567      -280.1294
  12   2.0000     -10.293314      -280.0953
  13   2.0000     -10.281043      -279.7614
  14   2.0000     -10.273145      -279.5465
  15   2.0000     -10.268952      -279.4324
  16   2.0000      -8.082617      -219.9392
  17   2.0000      -8.081867      -219.9188
  18   2.0000      -6.040815      -164.3789
  19   2.0000      -6.040449      -164.3690
  20   2.0000      -6.037053      -164.2766
  21   2.0000      -6.036487      -164.2612
  22   2.0000      -6.033583      -164.1821
  23   2.0000      -6.032559      -164.1543
  24   2.0000      -1.003927       -27.3183
  25   2.0000      -0.982277       -26.7291
  26   2.0000      -0.910346       -24.7718
  27   2.0000      -0.908333       -24.7170
  28   2.0000      -0.863219       -23.4894
  29   2.0000      -0.849932       -23.1278
  30   2.0000      -0.844241       -22.9730
  31   2.0000      -0.811655       -22.0863
  32   2.0000      -0.784686       -21.3524
  33   2.0000      -0.771132       -20.9836
  34   2.0000      -0.709334       -19.3020
  35   2.0000      -0.697982       -18.9930
  36   2.0000      -0.680980       -18.5304
  37   2.0000      -0.663736       -18.0612
  38   2.0000      -0.636912       -17.3313
  39   2.0000      -0.620994       -16.8981
  40   2.0000      -0.585738       -15.9387
  41   2.0000      -0.568529       -15.4705
  42   2.0000      -0.554531       -15.0895
  43   2.0000      -0.547797       -14.9063
  44   2.0000      -0.545432       -14.8420
  45   2.0000      -0.539203       -14.6725
  46   2.0000      -0.516402       -14.0520
  47   2.0000      -0.508073       -13.8254
  48   2.0000      -0.496797       -13.5185
  49   2.0000      -0.490067       -13.3354
  50   2.0000      -0.486724       -13.2444
  51   2.0000      -0.480146       -13.0654
  52   2.0000      -0.472740       -12.8639
  53   2.0000      -0.466217       -12.6864
  54   2.0000      -0.461668       -12.5626
  55   2.0000      -0.450863       -12.2686
  56   2.0000      -0.442366       -12.0374
  57   2.0000      -0.435836       -11.8597
  58   2.0000      -0.430060       -11.7025
  59   2.0000      -0.423870       -11.5341
  60   2.0000      -0.420226       -11.4349
  61   2.0000      -0.413369       -11.2483
  62   2.0000      -0.403992       -10.9932
  63   2.0000      -0.344336        -9.3698
  64   2.0000      -0.334855        -9.1119
  65   2.0000      -0.332191        -9.0394
  66   2.0000      -0.289844        -7.8871
  67   0.0000       0.029122         0.7924
  68   0.0000       0.068910         1.8751
  69   0.0000       0.104837         2.8528
  70   0.0000       0.114173         3.1068
  71   0.0000       0.131434         3.5765

MULLIKEN ATOMIC CHARGES
-----------------------
   0 S :    0.100437
   1 C :   -0.124526
   2 C :   -0.104446
   3 C :    0.014514
   4 C :   -0.132758
   5 H :    0.017521
   6 C :    0.076223
   7 H :    0.021407
   8 H :    0.017598
   9 C :   -0.062585
  10 H :    0.025300
  11 H :    0.039224
  12 C :   -0.028173
  13 H :    0.024494
  14 H :    0.015217
  15 H :    0.039358
  16 S :    0.116402
  17 C :   -0.084263
  18 C :   -0.025711
  19 C :   -0.048302
  20 C :   -0.148572
  21 H :    0.015844
  22 C :    0.007005
  23 H :    0.042447
  24 H :    0.035367
  25 C :   -0.069692
  26 H :    0.047627
  27 H :    0.028011
  28 C :   -0.050996
  29 H :    0.026247
  30 H :    0.038911
  31 H :    0.039950
  32 H :    0.048192
  33 H :    0.042728
Sum of atomic charges:    0.0000000

LOEWDIN ATOMIC CHARGES
----------------------
   0 S :    0.385086
   1 C :   -0.191941
   2 C :   -0.058892
   3 C :   -0.068163
   4 C :   -0.185548
   5 H :    0.031018
   6 C :   -0.031064
   7 H :    0.032079
   8 H :    0.022490
   9 C :   -0.034821
  10 H :    0.021819
  11 H :    0.031672
  12 C :   -0.067530
  13 H :    0.033189
  14 H :    0.016273
  15 H :    0.029435
  16 S :    0.423191
  17 C :   -0.184326
  18 C :   -0.076136
  19 C :   -0.050795
  20 C :   -0.202209
  21 H :    0.031137
  22 C :   -0.037456
  23 H :    0.033592
  24 H :    0.035106
  25 C :   -0.050297
  26 H :    0.029500
  27 H :    0.024067
  28 C :   -0.069415
  29 H :    0.025959
  30 H :    0.027446
  31 H :    0.030987
  32 H :    0.026696
  33 H :    0.017849

  Mayer bond orders larger than 0.100000
B(  0-S ,  1-C ) :   1.1160 B(  0-S ,  4-C ) :   1.1598 B(  1-C ,  2-C ) :   1.6289
B(  1-C , 32-H ) :   0.9675 B(  2-C ,  3-C ) :   1.2271 B(  2-C ,  6-C ) :   1.0116
B(  3-C ,  4-C ) :   1.5753 B(  3-C ,  5-H ) :   0.9918 B(  4-C , 20-C ) :   1.0154
B(  6-C ,  7-H ) :   0.9485 B(  6-C ,  8-H ) :   0.9348 B(  6-C ,  9-C ) :   1.0629
B(  9-C , 10-H ) :   0.9598 B(  9-C , 11-H ) :   0.9545 B(  9-C , 12-C ) :   1.0704
B( 12-C , 13-H ) :   0.9699 B( 12-C , 14-H ) :   0.9747 B( 12-C , 15-H ) :   0.9727
B( 16-S , 17-C ) :   1.1968 B( 16-S , 20-C ) :   1.1337 B( 17-C , 18-C ) :   1.6035
B( 17-C , 33-H ) :   0.9652 B( 18-C , 19-C ) :   1.2273 B( 18-C , 21-H ) :   0.9986
B( 19-C , 20-C ) :   1.6074 B( 19-C , 22-C ) :   1.0211 B( 22-C , 23-H ) :   0.9395
B( 22-C , 24-H ) :   0.9411 B( 22-C , 25-C ) :   1.0775 B( 25-C , 26-H ) :   0.9508
B( 25-C , 27-H ) :   0.9588 B( 25-C , 28-C ) :   1.0677 B( 28-C , 29-H ) :   0.9784
B( 28-C , 30-H ) :   0.9684 B( 28-C , 31-H ) :   0.9731

Dispersion correction           -0.016286994
FINAL SINGLE POINT ENERGY     -1339.877427601268

DIPOLE MOMENT
-------------
                                X             Y             Z
Electronic contribution:      4.81331       8.46089      25.48755
Nuclear contribution   :     -4.71947      -8.46366     -26.08825
                        -----------------------------------------
Total Dipole Moment    :      0.09384      -0.00277      -0.60070
                        -----------------------------------------
Magnitude (a.u.)       :      0.60799
Magnitude (Debye)      :      1.54539

Rotational constants in cm-1:     0.020341     0.009814     0.007775
Rotational constants in MHz :   609.813759   294.219554   233.100766

                             ****ORCA TERMINATED NORMALLY****
TOTAL RUN TIME: 0 days 0 hours 0 minutes 33 seconds 113 msec
