                         Program Version 4.2.1 -  RELEASE  -
|  1> ! wB97X-D3 SP def2-SVP
|  2> %pal
|  3> nprocs 16
|  4> end
|  5>
|  6> * xyz 0 1
|  7> S 	 -22.8207 	 -5.53445 	 96.487
|  8> C 	 -23.6994 	 -6.2442 	 97.7581
|  9> C 	 -23.5429 	 -5.50882 	 98.9311
| 10> C 	 -22.7045 	 -4.37161 	 98.7238
| 11> C 	 -22.1887 	 -4.30167 	 97.4675
| 12> H 	 -22.4556 	 -3.61043 	 99.4575
| 13> C 	 -24.0935 	 -5.9149 	 100.281
| 14> H 	 -24.0334 	 -5.02898 	 101.017
| 15> H 	 -23.3456 	 -6.57937 	 100.714
| 16> C 	 -25.4599 	 -6.6652 	 100.256
| 17> H 	 -25.2815 	 -7.61666 	 99.8142
| 18> H 	 -25.6661 	 -6.888 	 101.285
| 19> C 	 -26.6757 	 -5.87818 	 99.7533
| 20> H 	 -26.6208 	 -4.83649 	 100.094
| 21> H 	 -26.6159 	 -5.83069 	 98.704
| 22> H 	 -27.6606 	 -6.40728 	 99.9815
| 23> S 	 -19.5978 	 -3.82153 	 96.7177
| 24> C 	 -19.1661 	 -2.30562 	 95.9573
| 25> C 	 -20.2626 	 -1.43578 	 95.943
| 26> C 	 -21.4505 	 -2.01651 	 96.4936
| 27> C 	 -21.2677 	 -3.26595 	 96.99
| 28> H 	 -20.0969 	 -0.465214 	 95.454
| 29> C 	 -22.797 	 -1.21644 	 96.3659
| 30> H 	 -23.5707 	 -2.01343 	 96.1545
| 31> H 	 -22.8837 	 -0.464916 	 95.5041
| 32> C 	 -23.1549 	 -0.450485 	 97.5527
| 33> H 	 -23.1393 	 -1.07946 	 98.4773
| 34> H 	 -24.2322 	 -0.190268 	 97.4496
| 35> C 	 -22.2361 	 0.786181 	 97.7479
| 36> H 	 -22.1494 	 1.56346 	 96.9475
| 37> H 	 -21.24 	 0.487487 	 98.1005
| 38> H 	 -22.668 	 1.2658 	 98.6291
| 39> H 	 -24.3807 	 -7.1011 	 97.7544
| 40> H 	 -18.3931 	 -2.04614 	 95.3206
| 41> *
| 42>
| 43>                          ****END OF INPUT****

CARTESIAN COORDINATES (ANGSTROEM)
---------------------------------
  S    -22.820700   -5.534450   96.487000
  C    -23.699400   -6.244200   97.758100
  C    -23.542900   -5.508820   98.931100
  C    -22.704500   -4.371610   98.723800
  C    -22.188700   -4.301670   97.467500
  H    -22.455600   -3.610430   99.457500
  C    -24.093500   -5.914900  100.281000
  H    -24.033400   -5.028980  101.017000
  H    -23.345600   -6.579370  100.714000
  C    -25.459900   -6.665200  100.256000
  H    -25.281500   -7.616660   99.814200
  H    -25.666100   -6.888000  101.285000
  C    -26.675700   -5.878180   99.753300
  H    -26.620800   -4.836490  100.094000
  H    -26.615900   -5.830690   98.704000
  H    -27.660600   -6.407280   99.981500
  S    -19.597800   -3.821530   96.717700
  C    -19.166100   -2.305620   95.957300
  C    -20.262600   -1.435780   95.943000
  C    -21.450500   -2.016510   96.493600
  C    -21.267700   -3.265950   96.990000
  H    -20.096900   -0.465214   95.454000
  C    -22.797000   -1.216440   96.365900
  H    -23.570700   -2.013430   96.154500
  H    -22.883700   -0.464916   95.504100
  C    -23.154900   -0.450485   97.552700
  H    -23.139300   -1.079460   98.477300
  H    -24.232200   -0.190268   97.449600
  C    -22.236100    0.786181   97.747900
  H    -22.149400    1.563460   96.947500
  H    -21.240000    0.487487   98.100500
  H    -22.668000    1.265800   98.629100
  H    -24.380700   -7.101100   97.754400
  H    -18.393100   -2.046140   95.320600

 Total Charge           Charge          ....    0
 Multiplicity           Mult            ....    1
 Number of Electrons    NEL             ....  134
 Basis Dimension        Dim             ....  322

ORBITAL ENERGIES
----------------

  NO   OCC          E(Eh)            E(eV)
   0   2.0000     -88.968116     -2420.9455
   1   2.0000     -88.964420     -2420.8449
   2   2.0000     -10.326133      -280.9884
   3   2.0000     -10.321447      -280.8609
   4   2.0000     -10.311601      -280.5929
   5   2.0000     -10.310983      -280.5761
   6   2.0000     -10.305318      -280.4220
   7   2.0000     -10.299941      -280.2756
   8   2.0000     -10.298989      -280.2497
   9   2.0000     -10.296361      -280.1782
  10   2.0000     -10.293875      -280.1106
  11   2.0000     -10.289830      -280.0005
  12   2.0000     -10.286483      -279.9094
  13   2.0000     -10.286468      -279.9090
  14   2.0000     -10.280434      -279.7448
  15   2.0000     -10.279970      -279.7322
  16   2.0000      -8.084186      -219.9819
  17   2.0000      -8.078614      -219.8303
  18   2.0000      -6.042532      -164.4256
  19   2.0000      -6.038342      -164.3116
  20   2.0000      -6.037199      -164.2805
  21   2.0000      -6.035179      -164.2256
  22   2.0000      -6.033176      -164.1711
  23   2.0000      -6.029336      -164.0666
  24   2.0000      -1.014291       -27.6003
  25   2.0000      -0.986065       -26.8322
  26   2.0000      -0.911252       -24.7964
  27   2.0000      -0.910541       -24.7771
  28   2.0000      -0.868367       -23.6295
  29   2.0000      -0.852236       -23.1905
  30   2.0000      -0.840709       -22.8769
  31   2.0000      -0.814548       -22.1650
  32   2.0000      -0.783293       -21.3145
  33   2.0000      -0.776214       -21.1218
  34   2.0000      -0.708772       -19.2867
  35   2.0000      -0.703992       -19.1566
  36   2.0000      -0.681349       -18.5404
  37   2.0000      -0.660538       -17.9742
  38   2.0000      -0.642655       -17.4875
  39   2.0000      -0.609206       -16.5773
  40   2.0000      -0.590588       -16.0707
  41   2.0000      -0.579273       -15.7628
  42   2.0000      -0.553554       -15.0630
  43   2.0000      -0.549912       -14.9639
  44   2.0000      -0.540347       -14.7036
  45   2.0000      -0.537934       -14.6379
  46   2.0000      -0.516320       -14.0498
  47   2.0000      -0.509501       -13.8642
  48   2.0000      -0.503607       -13.7039
  49   2.0000      -0.496366       -13.5068
  50   2.0000      -0.487720       -13.2715
  51   2.0000      -0.481141       -13.0925
  52   2.0000      -0.471702       -12.8357
  53   2.0000      -0.468314       -12.7435
  54   2.0000      -0.465031       -12.6541
  55   2.0000      -0.441856       -12.0235
  56   2.0000      -0.440120       -11.9763
  57   2.0000      -0.435026       -11.8377
  58   2.0000      -0.431672       -11.7464
  59   2.0000      -0.426839       -11.6149
  60   2.0000      -0.416174       -11.3247
  61   2.0000      -0.414497       -11.2790
  62   2.0000      -0.403629       -10.9833
  63   2.0000      -0.336606        -9.1595
  64   2.0000      -0.331520        -9.0211
  65   2.0000      -0.321780        -8.7561
  66   2.0000      -0.311232        -8.4691
  67   0.0000       0.041951         1.1416
  68   0.0000       0.060545         1.6475
  69   0.0000       0.117025         3.1844
  70   0.0000       0.124855         3.3975
  71   0.0000       0.130586         3.5534

MULLIKEN ATOMIC CHARGES
-----------------------
   0 S :    0.150589
   1 C :   -0.125922
   2 C :   -0.093676
   3 C :    0.031933
   4 C :   -0.164478
   5 H :    0.013614
   6 C :    0.023020
   7 H :    0.031135
   8 H :    0.045503
   9 C :   -0.070610
  10 H :    0.023040
  11 H :    0.020796
  12 C :   -0.031347
  13 H :    0.037675
  14 H :    0.017108
  15 H :    0.049092
  16 S :    0.105404
  17 C :   -0.056780
  18 C :   -0.078691
  19 C :    0.012781
  20 C :   -0.203412
  21 H :    0.030038
  22 C :    0.045444
  23 H :    0.035731
  24 H :    0.037668
  25 C :   -0.075073
  26 H :    0.027185
  27 H :    0.033035
  28 C :   -0.067324
  29 H :    0.042036
  30 H :    0.042039
  31 H :    0.027517
  32 H :    0.051864
  33 H :    0.033067
Sum of atomic charges:   -0.0000000

LOEWDIN ATOMIC CHARGES
----------------------
   0 S :    0.458899
   1 C :   -0.223874
   2 C :   -0.068628
   3 C :   -0.061985
   4 C :   -0.224613
   5 H :    0.032265
   6 C :   -0.038038
   7 H :    0.035331
   8 H :    0.038125
   9 C :   -0.042730
  10 H :    0.018189
  11 H :    0.024529
  12 C :   -0.065014
  13 H :    0.031301
  14 H :    0.015423
  15 H :    0.037358
  16 S :    0.396098
  17 C :   -0.181843
  18 C :   -0.072873
  19 C :   -0.051858
  20 C :   -0.192412
  21 H :    0.035168
  22 C :   -0.038198
  23 H :    0.033990
  24 H :    0.037696
  25 C :   -0.050260
  26 H :    0.027234
  27 H :    0.027986
  28 C :   -0.074307
  29 H :    0.028167
  30 H :    0.028602
  31 H :    0.027823
  32 H :    0.032939
  33 H :    0.019512

  Mayer bond orders larger than 0.100000
B(  0-S ,  1-C ) :   1.1569 B(  0-S ,  4-C ) :   1.1763 B(  1-C ,  2-C ) :   1.5846
B(  1-C , 32-H ) :   0.9625 B(  2-C ,  3-C ) :   1.2636 B(  2-C ,  6-C ) :   1.0106
B(  3-C ,  4-C ) :   1.5686 B(  3-C ,  5-H ) :   0.9961 B(  4-C , 20-C ) :   0.9957
B(  6-C ,  7-H ) :   0.9446 B(  6-C ,  8-H ) :   0.9342 B(  6-C ,  9-C ) :   1.0832
B(  9-C , 10-H ) :   0.9496 B(  9-C , 11-H ) :   0.9517 B(  9-C , 12-C ) :   1.0697
B( 12-C , 13-H ) :   0.9724 B( 12-C , 14-H ) :   0.9741 B( 12-C , 15-H ) :   0.9749
B( 16-S , 17-C ) :   1.1507 B( 16-S , 20-C ) :   1.1308 B( 17-C , 18-C ) :   1.6399
B( 17-C , 33-H ) :   0.9675 B( 18-C , 19-C ) :   1.2158 B( 18-C , 21-H ) :   0.9851
B( 19-C , 20-C ) :   1.6569 B( 19-C , 22-C ) :   1.0127 B( 22-C , 23-H ) :   0.9283
B( 22-C , 24-H ) :   0.9468 B( 22-C , 25-C ) :   1.0952 B( 25-C , 26-H ) :   0.9475
B( 25-C , 27-H ) :   0.9523 B( 25-C , 28-C ) :   1.0689 B( 28-C , 29-H ) :   0.9755
B( 28-C , 30-H ) :   0.9710 B( 28-C , 31-H ) :   0.9723

Dispersion correction           -0.014763280
FINAL SINGLE POINT ENERGY     -1339.871007817133

DIPOLE MOMENT
-------------
                                X             Y             Z
Electronic contribution:     19.14685     -10.12582     -13.27428
Nuclear contribution   :    -19.56615      10.33460      13.50960
                        -----------------------------------------
Total Dipole Moment    :     -0.41929       0.20878       0.23532
                        -----------------------------------------
Magnitude (a.u.)       :      0.52419
Magnitude (Debye)      :      1.33238

Rotational constants in cm-1:     0.021603     0.008120     0.006627
Rotational constants in MHz :   647.631721   243.421197   198.660054

                             ****ORCA TERMINATED NORMALLY****
TOTAL RUN TIME: 0 days 0 hours 0 minutes 30 seconds 652 msec
