                         Program Version 4.2.1 -  RELEASE  -
|  1> ! wB97X-D3 SP def2-SVP
|  2> %pal
|  3> nprocs 16
|  4> end
|  5>
|  6> * xyz 0 1
|  7> S 	 -19.9577 	 -0.244217 	 76.9111
|  8> C 	 -19.2708 	 -1.05309 	 75.5591
|  9> C 	 -20.1449 	 -1.14784 	 74.4703
| 10> C 	 -21.3865 	 -0.464594 	 74.7023
| 11> C 	 -21.36 	 0.105394 	 76.0075
| 12> H 	 -22.2133 	 -0.333549 	 74
| 13> C 	 -19.7924 	 -1.73129 	 73.0465
| 14> H 	 -20.6921 	 -1.98075 	 72.5346
| 15> H 	 -19.3443 	 -2.73844 	 73.3206
| 16> C 	 -18.977 	 -1.00828 	 72.1041
| 17> H 	 -18.0155 	 -0.949352 	 72.6219
| 18> H 	 -18.8585 	 -1.65699 	 71.2265
| 19> C 	 -19.4539 	 0.460495 	 71.7436
| 20> H 	 -20.4142 	 0.421991 	 71.2911
| 21> H 	 -19.5593 	 1.00781 	 72.609
| 22> H 	 -18.726 	 1.01624 	 71.1463
| 23> S 	 -22.1748 	 2.62758 	 76.2616
| 24> C 	 -23.5877 	 2.98842 	 77.3036
| 25> C 	 -24.28 	 1.81736 	 77.7599
| 26> C 	 -23.6365 	 0.645736 	 77.2643
| 27> C 	 -22.4187 	 0.889647 	 76.5364
| 28> H 	 -25.1606 	 1.80579 	 78.3512
| 29> C 	 -24.0883 	 -0.817231 	 77.6036
| 30> H 	 -24.0085 	 -1.21376 	 76.5798
| 31> H 	 -25.1572 	 -0.817946 	 77.7744
| 32> C 	 -23.2258 	 -1.595 	 78.6268
| 33> H 	 -23.2674 	 -1.19329 	 79.5807
| 34> H 	 -22.1289 	 -1.48948 	 78.2732
| 35> C 	 -23.5894 	 -3.06383 	 78.6747
| 36> H 	 -22.8433 	 -3.74476 	 79.0879
| 37> H 	 -23.7912 	 -3.39865 	 77.6982
| 38> H 	 -24.4449 	 -3.18165 	 79.2404
| 39> H 	 -18.2297 	 -1.24813 	 75.5324
| 40> H 	 -24.2151 	 3.87181 	 77.3559
| 41> *
| 42>
| 43>                          ****END OF INPUT****

CARTESIAN COORDINATES (ANGSTROEM)
---------------------------------
  S    -19.957700   -0.244217   76.911100
  C    -19.270800   -1.053090   75.559100
  C    -20.144900   -1.147840   74.470300
  C    -21.386500   -0.464594   74.702300
  C    -21.360000    0.105394   76.007500
  H    -22.213300   -0.333549   74.000000
  C    -19.792400   -1.731290   73.046500
  H    -20.692100   -1.980750   72.534600
  H    -19.344300   -2.738440   73.320600
  C    -18.977000   -1.008280   72.104100
  H    -18.015500   -0.949352   72.621900
  H    -18.858500   -1.656990   71.226500
  C    -19.453900    0.460495   71.743600
  H    -20.414200    0.421991   71.291100
  H    -19.559300    1.007810   72.609000
  H    -18.726000    1.016240   71.146300
  S    -22.174800    2.627580   76.261600
  C    -23.587700    2.988420   77.303600
  C    -24.280000    1.817360   77.759900
  C    -23.636500    0.645736   77.264300
  C    -22.418700    0.889647   76.536400
  H    -25.160600    1.805790   78.351200
  C    -24.088300   -0.817231   77.603600
  H    -24.008500   -1.213760   76.579800
  H    -25.157200   -0.817946   77.774400
  C    -23.225800   -1.595000   78.626800
  H    -23.267400   -1.193290   79.580700
  H    -22.128900   -1.489480   78.273200
  C    -23.589400   -3.063830   78.674700
  H    -22.843300   -3.744760   79.087900
  H    -23.791200   -3.398650   77.698200
  H    -24.444900   -3.181650   79.240400
  H    -18.229700   -1.248130   75.532400
  H    -24.215100    3.871810   77.355900

 Total Charge           Charge          ....    0
 Multiplicity           Mult            ....    1
 Number of Electrons    NEL             ....  134
 Basis Dimension        Dim             ....  322

ORBITAL ENERGIES
----------------

  NO   OCC          E(Eh)            E(eV)
   0   2.0000     -88.973944     -2421.1041
   1   2.0000     -88.969900     -2420.9940
   2   2.0000     -10.326342      -280.9940
   3   2.0000     -10.324953      -280.9563
   4   2.0000     -10.321149      -280.8527
   5   2.0000     -10.311794      -280.5982
   6   2.0000     -10.309688      -280.5409
   7   2.0000     -10.308215      -280.5008
   8   2.0000     -10.302202      -280.3372
   9   2.0000     -10.296985      -280.1952
  10   2.0000     -10.291729      -280.0522
  11   2.0000     -10.290804      -280.0270
  12   2.0000     -10.284596      -279.8581
  13   2.0000     -10.282239      -279.7939
  14   2.0000     -10.271070      -279.4900
  15   2.0000     -10.261476      -279.2289
  16   2.0000      -8.089251      -220.1197
  17   2.0000      -8.082981      -219.9491
  18   2.0000      -6.047470      -164.5600
  19   2.0000      -6.043561      -164.4537
  20   2.0000      -6.041561      -164.3992
  21   2.0000      -6.040387      -164.3673
  22   2.0000      -6.037606      -164.2916
  23   2.0000      -6.033877      -164.1901
  24   2.0000      -1.007671       -27.4201
  25   2.0000      -0.972394       -26.4602
  26   2.0000      -0.917132       -24.9564
  27   2.0000      -0.901181       -24.5224
  28   2.0000      -0.868711       -23.6388
  29   2.0000      -0.850222       -23.1357
  30   2.0000      -0.846422       -23.0323
  31   2.0000      -0.807272       -21.9670
  32   2.0000      -0.790324       -21.5058
  33   2.0000      -0.765005       -20.8168
  34   2.0000      -0.706330       -19.2202
  35   2.0000      -0.701182       -19.0801
  36   2.0000      -0.691289       -18.8109
  37   2.0000      -0.662301       -18.0221
  38   2.0000      -0.648888       -17.6571
  39   2.0000      -0.604773       -16.4567
  40   2.0000      -0.582477       -15.8500
  41   2.0000      -0.574657       -15.6372
  42   2.0000      -0.563798       -15.3417
  43   2.0000      -0.549032       -14.9399
  44   2.0000      -0.547385       -14.8951
  45   2.0000      -0.519745       -14.1430
  46   2.0000      -0.512629       -13.9494
  47   2.0000      -0.508532       -13.8379
  48   2.0000      -0.502394       -13.6708
  49   2.0000      -0.497930       -13.5494
  50   2.0000      -0.487578       -13.2677
  51   2.0000      -0.483902       -13.1677
  52   2.0000      -0.475285       -12.9332
  53   2.0000      -0.467319       -12.7164
  54   2.0000      -0.458733       -12.4828
  55   2.0000      -0.450408       -12.2562
  56   2.0000      -0.447717       -12.1830
  57   2.0000      -0.442588       -12.0434
  58   2.0000      -0.435539       -11.8516
  59   2.0000      -0.415234       -11.2991
  60   2.0000      -0.413628       -11.2554
  61   2.0000      -0.411399       -11.1947
  62   2.0000      -0.405834       -11.0433
  63   2.0000      -0.340458        -9.2643
  64   2.0000      -0.331155        -9.0112
  65   2.0000      -0.313035        -8.5181
  66   2.0000      -0.302368        -8.2279
  67   0.0000       0.036419         0.9910
  68   0.0000       0.042766         1.1637
  69   0.0000       0.105960         2.8833
  70   0.0000       0.113190         3.0801
  71   0.0000       0.127682         3.4744

MULLIKEN ATOMIC CHARGES
-----------------------
   0 S :    0.159123
   1 C :   -0.127671
   2 C :   -0.087734
   3 C :    0.047468
   4 C :   -0.200464
   5 H :    0.027606
   6 C :    0.040249
   7 H :    0.004833
   8 H :    0.038864
   9 C :   -0.041441
  10 H :    0.015930
  11 H :    0.036199
  12 C :   -0.021374
  13 H :    0.021795
  14 H :    0.021458
  15 H :    0.038442
  16 S :    0.117799
  17 C :   -0.081207
  18 C :   -0.053637
  19 C :   -0.029252
  20 C :   -0.206916
  21 H :    0.012861
  22 C :    0.065718
  23 H :    0.026566
  24 H :    0.011340
  25 C :   -0.049191
  26 H :    0.017548
  27 H :    0.034033
  28 C :    0.005606
  29 H :    0.032820
  30 H :    0.010316
  31 H :    0.009444
  32 H :    0.041919
  33 H :    0.060948
Sum of atomic charges:   -0.0000000

LOEWDIN ATOMIC CHARGES
----------------------
   0 S :    0.465483
   1 C :   -0.211251
   2 C :   -0.057954
   3 C :   -0.053924
   4 C :   -0.229479
   5 H :    0.037314
   6 C :   -0.037733
   7 H :    0.020003
   8 H :    0.040472
   9 C :   -0.042196
  10 H :    0.022083
  11 H :    0.029651
  12 C :   -0.054434
  13 H :    0.020341
  14 H :    0.017329
  15 H :    0.030740
  16 S :    0.400101
  17 C :   -0.189382
  18 C :   -0.065657
  19 C :   -0.047067
  20 C :   -0.206292
  21 H :    0.027806
  22 C :   -0.034487
  23 H :    0.035408
  24 H :    0.022893
  25 C :   -0.035585
  26 H :    0.013351
  27 H :    0.026258
  28 C :   -0.056160
  29 H :    0.029790
  30 H :    0.018897
  31 H :    0.014562
  32 H :    0.019048
  33 H :    0.030070

  Mayer bond orders larger than 0.100000
B(  0-S ,  1-C ) :   1.1612 B(  0-S ,  4-C ) :   1.1942 B(  1-C ,  2-C ) :   1.5762
B(  1-C , 32-H ) :   0.9752 B(  2-C ,  3-C ) :   1.2658 B(  2-C ,  6-C ) :   1.0022
B(  3-C ,  4-C ) :   1.5274 B(  3-C ,  5-H ) :   0.9922 B(  4-C , 20-C ) :   1.0344
B(  6-C ,  7-H ) :   0.9395 B(  6-C ,  8-H ) :   0.9375 B(  6-C ,  9-C ) :   1.0915
B(  9-C , 10-H ) :   0.9511 B(  9-C , 11-H ) :   0.9484 B(  9-C , 12-C ) :   1.0679
B( 12-C , 13-H ) :   0.9766 B( 12-C , 14-H ) :   0.9733 B( 12-C , 15-H ) :   0.9760
B( 16-S , 17-C ) :   1.1588 B( 16-S , 20-C ) :   1.1507 B( 17-C , 18-C ) :   1.5740
B( 17-C , 20-C ) :   0.1242 B( 17-C , 33-H ) :   0.9594 B( 18-C , 19-C ) :   1.2855
B( 18-C , 21-H ) :   0.9893 B( 19-C , 20-C ) :   1.5515 B( 19-C , 22-C ) :   1.0210
B( 22-C , 23-H ) :   0.9320 B( 22-C , 24-H ) :   0.9378 B( 22-C , 25-C ) :   1.0554
B( 25-C , 26-H ) :   0.9594 B( 25-C , 27-H ) :   0.9502 B( 25-C , 28-C ) :   1.0821
B( 28-C , 29-H ) :   0.9726 B( 28-C , 30-H ) :   0.9737 B( 28-C , 31-H ) :   0.9737

Dispersion correction           -0.015016826
FINAL SINGLE POINT ENERGY     -1339.842684637483

DIPOLE MOMENT
-------------
                                X             Y             Z
Electronic contribution:      1.86924      15.44904       8.71491
Nuclear contribution   :     -2.03705     -15.76924      -8.97338
                        -----------------------------------------
Total Dipole Moment    :     -0.16781      -0.32020      -0.25846
                        -----------------------------------------
Magnitude (a.u.)       :      0.44440
Magnitude (Debye)      :      1.12957

Rotational constants in cm-1:     0.018831     0.009079     0.007187
Rotational constants in MHz :   564.538692   272.176599   215.453441

                             ****ORCA TERMINATED NORMALLY****
TOTAL RUN TIME: 0 days 0 hours 0 minutes 32 seconds 238 msec
