                         Program Version 4.2.1 -  RELEASE  -
|  1> ! wB97X-D3 SP def2-SVP
|  2> %pal
|  3> nprocs 16
|  4> end
|  5>
|  6> * xyz 0 1
|  7> S 	 -68.5551 	 37.397 	 141.027
|  8> C 	 -69.3854 	 36.0805 	 141.781
|  9> C 	 -68.4805 	 35.3194 	 142.525
| 10> C 	 -67.1353 	 35.7309 	 142.301
| 11> C 	 -67.0132 	 36.8437 	 141.498
| 12> H 	 -66.2873 	 35.3028 	 142.758
| 13> C 	 -68.7786 	 34.0413 	 143.257
| 14> H 	 -69.4727 	 33.4566 	 142.695
| 15> H 	 -69.3317 	 34.3664 	 144.114
| 16> C 	 -67.6595 	 33.1942 	 143.728
| 17> H 	 -67.0164 	 33.7559 	 144.508
| 18> H 	 -68.1453 	 32.441 	 144.376
| 19> C 	 -66.9324 	 32.3072 	 142.713
| 20> H 	 -65.952 	 32.0381 	 143.07
| 21> H 	 -67.6175 	 31.421 	 142.416
| 22> H 	 -66.6849 	 32.8437 	 141.825
| 23> S 	 -65.7811 	 39.3068 	 141.749
| 24> C 	 -64.2152 	 39.5414 	 141.015
| 25> C 	 -63.623 	 38.4002 	 140.676
| 26> C 	 -64.5192 	 37.2648 	 140.859
| 27> C 	 -65.7558 	 37.6106 	 141.269
| 28> H 	 -62.5862 	 38.4195 	 140.312
| 29> C 	 -64.0019 	 35.8503 	 140.55
| 30> H 	 -64.3398 	 35.3704 	 141.504
| 31> H 	 -62.9304 	 35.8332 	 140.798
| 32> C 	 -64.3351 	 35.2267 	 139.238
| 33> H 	 -63.8872 	 34.2565 	 139.078
| 34> H 	 -64.0049 	 35.8531 	 138.478
| 35> C 	 -65.871 	 35.0521 	 138.994
| 36> H 	 -66.0054 	 34.4811 	 138.057
| 37> H 	 -66.4991 	 35.949 	 138.738
| 38> H 	 -66.3495 	 34.5368 	 139.791
| 39> H 	 -70.3806 	 35.8765 	 141.874
| 40> H 	 -63.7221 	 40.484 	 140.976
| 41> *
| 42>
| 43>                          ****END OF INPUT****

CARTESIAN COORDINATES (ANGSTROEM)
---------------------------------
  S    -68.555100   37.397000  141.027000
  C    -69.385400   36.080500  141.781000
  C    -68.480500   35.319400  142.525000
  C    -67.135300   35.730900  142.301000
  C    -67.013200   36.843700  141.498000
  H    -66.287300   35.302800  142.758000
  C    -68.778600   34.041300  143.257000
  H    -69.472700   33.456600  142.695000
  H    -69.331700   34.366400  144.114000
  C    -67.659500   33.194200  143.728000
  H    -67.016400   33.755900  144.508000
  H    -68.145300   32.441000  144.376000
  C    -66.932400   32.307200  142.713000
  H    -65.952000   32.038100  143.070000
  H    -67.617500   31.421000  142.416000
  H    -66.684900   32.843700  141.825000
  S    -65.781100   39.306800  141.749000
  C    -64.215200   39.541400  141.015000
  C    -63.623000   38.400200  140.676000
  C    -64.519200   37.264800  140.859000
  C    -65.755800   37.610600  141.269000
  H    -62.586200   38.419500  140.312000
  C    -64.001900   35.850300  140.550000
  H    -64.339800   35.370400  141.504000
  H    -62.930400   35.833200  140.798000
  C    -64.335100   35.226700  139.238000
  H    -63.887200   34.256500  139.078000
  H    -64.004900   35.853100  138.478000
  C    -65.871000   35.052100  138.994000
  H    -66.005400   34.481100  138.057000
  H    -66.499100   35.949000  138.738000
  H    -66.349500   34.536800  139.791000
  H    -70.380600   35.876500  141.874000
  H    -63.722100   40.484000  140.976000

 Total Charge           Charge          ....    0
 Multiplicity           Mult            ....    1
 Number of Electrons    NEL             ....  134
 Basis Dimension        Dim             ....  322

ORBITAL ENERGIES
----------------

  NO   OCC          E(Eh)            E(eV)
   0   2.0000     -88.968872     -2420.9661
   1   2.0000     -88.958331     -2420.6793
   2   2.0000     -10.326098      -280.9874
   3   2.0000     -10.324778      -280.9515
   4   2.0000     -10.306917      -280.4655
   5   2.0000     -10.305438      -280.4252
   6   2.0000     -10.300526      -280.2916
   7   2.0000     -10.296929      -280.1937
   8   2.0000     -10.293063      -280.0885
   9   2.0000     -10.291283      -280.0401
  10   2.0000     -10.289262      -279.9851
  11   2.0000     -10.284910      -279.8666
  12   2.0000     -10.284478      -279.8549
  13   2.0000     -10.283551      -279.8296
  14   2.0000     -10.280854      -279.7563
  15   2.0000     -10.270588      -279.4769
  16   2.0000      -8.083955      -219.9756
  17   2.0000      -8.073605      -219.6940
  18   2.0000      -6.042433      -164.4230
  19   2.0000      -6.038162      -164.3067
  20   2.0000      -6.034971      -164.2199
  21   2.0000      -6.032221      -164.1451
  22   2.0000      -6.028263      -164.0374
  23   2.0000      -6.023992      -163.9212
  24   2.0000      -1.010948       -27.5093
  25   2.0000      -0.989669       -26.9303
  26   2.0000      -0.920672       -25.0528
  27   2.0000      -0.907140       -24.6845
  28   2.0000      -0.870737       -23.6940
  29   2.0000      -0.847968       -23.0744
  30   2.0000      -0.840653       -22.8753
  31   2.0000      -0.821223       -22.3466
  32   2.0000      -0.788896       -21.4669
  33   2.0000      -0.775811       -21.1109
  34   2.0000      -0.710406       -19.3311
  35   2.0000      -0.699742       -19.0409
  36   2.0000      -0.693773       -18.8785
  37   2.0000      -0.658210       -17.9108
  38   2.0000      -0.639571       -17.4036
  39   2.0000      -0.626692       -17.0532
  40   2.0000      -0.591531       -16.0964
  41   2.0000      -0.574546       -15.6342
  42   2.0000      -0.561702       -15.2847
  43   2.0000      -0.549375       -14.9493
  44   2.0000      -0.542130       -14.7521
  45   2.0000      -0.535971       -14.5845
  46   2.0000      -0.519594       -14.1389
  47   2.0000      -0.513202       -13.9649
  48   2.0000      -0.504987       -13.7414
  49   2.0000      -0.498870       -13.5750
  50   2.0000      -0.492141       -13.3918
  51   2.0000      -0.483718       -13.1626
  52   2.0000      -0.471887       -12.8407
  53   2.0000      -0.460683       -12.5358
  54   2.0000      -0.454679       -12.3725
  55   2.0000      -0.446133       -12.1399
  56   2.0000      -0.440344       -11.9824
  57   2.0000      -0.439648       -11.9634
  58   2.0000      -0.436405       -11.8752
  59   2.0000      -0.428105       -11.6493
  60   2.0000      -0.415542       -11.3075
  61   2.0000      -0.406438       -11.0597
  62   2.0000      -0.399090       -10.8598
  63   2.0000      -0.347332        -9.4514
  64   2.0000      -0.329047        -8.9538
  65   2.0000      -0.326160        -8.8753
  66   2.0000      -0.296341        -8.0639
  67   0.0000       0.036379         0.9899
  68   0.0000       0.074745         2.0339
  69   0.0000       0.109053         2.9675
  70   0.0000       0.127020         3.4564
  71   0.0000       0.136530         3.7152

MULLIKEN ATOMIC CHARGES
-----------------------
   0 S :    0.133079
   1 C :   -0.079721
   2 C :   -0.111704
   3 C :    0.026563
   4 C :   -0.134558
   5 H :   -0.004036
   6 C :    0.115004
   7 H :    0.017659
   8 H :    0.024744
   9 C :   -0.137225
  10 H :    0.043135
  11 H :    0.029453
  12 C :   -0.027692
  13 H :    0.030317
  14 H :    0.050759
  15 H :    0.018277
  16 S :    0.089967
  17 C :   -0.069181
  18 C :   -0.034911
  19 C :   -0.079956
  20 C :   -0.152511
  21 H :    0.027177
  22 C :    0.059511
  23 H :    0.013228
  24 H :    0.012690
  25 C :    0.036888
  26 H :    0.030219
  27 H :    0.010987
  28 C :   -0.082816
  29 H :    0.023296
  30 H :    0.042686
  31 H :    0.033876
  32 H :    0.003717
  33 H :    0.041082
Sum of atomic charges:    0.0000000

LOEWDIN ATOMIC CHARGES
----------------------
   0 S :    0.447811
   1 C :   -0.200884
   2 C :   -0.055229
   3 C :   -0.064810
   4 C :   -0.206259
   5 H :    0.020084
   6 C :   -0.036527
   7 H :    0.029470
   8 H :    0.036959
   9 C :   -0.059878
  10 H :    0.032898
  11 H :    0.032720
  12 C :   -0.068216
  13 H :    0.028143
  14 H :    0.040293
  15 H :    0.016924
  16 S :    0.384181
  17 C :   -0.174261
  18 C :   -0.076042
  19 C :   -0.058378
  20 C :   -0.186669
  21 H :    0.038749
  22 C :   -0.041620
  23 H :    0.032820
  24 H :    0.031352
  25 C :   -0.029698
  26 H :    0.028156
  27 H :    0.020408
  28 C :   -0.070751
  29 H :    0.026094
  30 H :    0.031222
  31 H :    0.016118
  32 H :    0.011239
  33 H :    0.023583

  Mayer bond orders larger than 0.100000
B(  0-S ,  1-C ) :   1.1486 B(  0-S ,  4-C ) :   1.1787 B(  1-C ,  2-C ) :   1.5803
B(  1-C ,  4-C ) :   0.1019 B(  1-C , 32-H ) :   0.9828 B(  2-C ,  3-C ) :   1.2951
B(  2-C ,  6-C ) :   1.0025 B(  3-C ,  4-C ) :   1.5294 B(  3-C ,  5-H ) :   0.9919
B(  4-C , 20-C ) :   1.0066 B(  6-C ,  7-H ) :   0.9380 B(  6-C ,  8-H ) :   0.9105
B(  6-C ,  9-C ) :   1.1172 B(  9-C , 10-H ) :   0.9438 B(  9-C , 11-H ) :   0.9471
B(  9-C , 12-C ) :   1.0640 B( 12-C , 13-H ) :   0.9681 B( 12-C , 14-H ) :   0.9713
B( 12-C , 15-H ) :   0.9810 B( 16-S , 17-C ) :   1.1299 B( 16-S , 20-C ) :   1.1253
B( 17-C , 18-C ) :   1.6701 B( 17-C , 33-H ) :   0.9669 B( 18-C , 19-C ) :   1.1870
B( 18-C , 21-H ) :   0.9904 B( 19-C , 20-C ) :   1.6884 B( 19-C , 22-C ) :   1.0086
B( 22-C , 23-H ) :   0.9362 B( 22-C , 24-H ) :   0.9297 B( 22-C , 25-C ) :   1.0731
B( 25-C , 26-H ) :   0.9529 B( 25-C , 27-H ) :   0.9451 B( 25-C , 28-C ) :   1.0831
B( 28-C , 29-H ) :   0.9705 B( 28-C , 30-H ) :   0.9659 B( 28-C , 31-H ) :   0.9781

Dispersion correction           -0.016468868
FINAL SINGLE POINT ENERGY     -1339.860552370088

DIPOLE MOMENT
-------------
                                X             Y             Z
Electronic contribution:     -5.03274      26.97294       0.60264
Nuclear contribution   :      5.29602     -27.58326      -0.45035
                        -----------------------------------------
Total Dipole Moment    :      0.26327      -0.61032       0.15230
                        -----------------------------------------
Magnitude (a.u.)       :      0.68191
Magnitude (Debye)      :      1.73327

Rotational constants in cm-1:     0.019485     0.010188     0.008180
Rotational constants in MHz :   584.141745   305.418509   245.227170

                             ****ORCA TERMINATED NORMALLY****
TOTAL RUN TIME: 0 days 0 hours 0 minutes 38 seconds 626 msec
