                         Program Version 4.2.1 -  RELEASE  -
|  1> ! wB97X-D3 SP def2-SVP
|  2> %pal
|  3> nprocs 16
|  4> end
|  5>
|  6> * xyz 0 1
|  7> S 	 9.99667 	 -9.03466 	 70.65
|  8> C 	 8.42564 	 -8.29167 	 70.7303
|  9> C 	 8.31392 	 -7.36379 	 69.7223
| 10> C 	 9.39105 	 -7.40565 	 68.7712
| 11> C 	 10.3992 	 -8.2021 	 69.1808
| 12> H 	 9.56577 	 -6.76335 	 67.9353
| 13> C 	 7.05486 	 -6.55624 	 69.5363
| 14> H 	 6.35038 	 -7.09459 	 70.1445
| 15> H 	 6.74464 	 -6.49477 	 68.5594
| 16> C 	 7.17528 	 -5.15793 	 70.1016
| 17> H 	 7.37953 	 -5.33657 	 71.1836
| 18> H 	 8.05282 	 -4.6203 	 69.685
| 19> C 	 5.92108 	 -4.23363 	 69.9073
| 20> H 	 6.0361 	 -3.28633 	 70.4266
| 21> H 	 5.68281 	 -4.11239 	 68.8619
| 22> H 	 5.00687 	 -4.6678 	 70.4069
| 23> S 	 12.1135 	 -10.272 	 68.4534
| 24> C 	 13.3834 	 -10.0904 	 67.3213
| 25> C 	 13.3901 	 -8.75357 	 66.8853
| 26> C 	 12.4123 	 -7.86483 	 67.5035
| 27> C 	 11.6339 	 -8.54626 	 68.4428
| 28> H 	 14.1361 	 -8.41033 	 66.1267
| 29> C 	 12.2993 	 -6.36624 	 67.167
| 30> H 	 11.3877 	 -6.14997 	 66.661
| 31> H 	 12.9721 	 -5.96973 	 66.3875
| 32> C 	 12.5785 	 -5.46928 	 68.3338
| 33> H 	 13.5834 	 -5.49927 	 68.7111
| 34> H 	 11.9262 	 -5.64663 	 69.2599
| 35> C 	 12.4028 	 -3.95053 	 68.1585
| 36> H 	 12.7648 	 -3.58016 	 67.2144
| 37> H 	 12.7648 	 -3.3101 	 69.0561
| 38> H 	 11.3746 	 -3.71836 	 68.1787
| 39> H 	 7.6957 	 -8.54528 	 71.4945
| 40> H 	 13.8978 	 -10.9172 	 66.8537
| 41> *
| 42>
| 43>                          ****END OF INPUT****

CARTESIAN COORDINATES (ANGSTROEM)
---------------------------------
  S      9.996670   -9.034660   70.650000
  C      8.425640   -8.291670   70.730300
  C      8.313920   -7.363790   69.722300
  C      9.391050   -7.405650   68.771200
  C     10.399200   -8.202100   69.180800
  H      9.565770   -6.763350   67.935300
  C      7.054860   -6.556240   69.536300
  H      6.350380   -7.094590   70.144500
  H      6.744640   -6.494770   68.559400
  C      7.175280   -5.157930   70.101600
  H      7.379530   -5.336570   71.183600
  H      8.052820   -4.620300   69.685000
  C      5.921080   -4.233630   69.907300
  H      6.036100   -3.286330   70.426600
  H      5.682810   -4.112390   68.861900
  H      5.006870   -4.667800   70.406900
  S     12.113500  -10.272000   68.453400
  C     13.383400  -10.090400   67.321300
  C     13.390100   -8.753570   66.885300
  C     12.412300   -7.864830   67.503500
  C     11.633900   -8.546260   68.442800
  H     14.136100   -8.410330   66.126700
  C     12.299300   -6.366240   67.167000
  H     11.387700   -6.149970   66.661000
  H     12.972100   -5.969730   66.387500
  C     12.578500   -5.469280   68.333800
  H     13.583400   -5.499270   68.711100
  H     11.926200   -5.646630   69.259900
  C     12.402800   -3.950530   68.158500
  H     12.764800   -3.580160   67.214400
  H     12.764800   -3.310100   69.056100
  H     11.374600   -3.718360   68.178700
  H      7.695700   -8.545280   71.494500
  H     13.897800  -10.917200   66.853700

 Total Charge           Charge          ....    0
 Multiplicity           Mult            ....    1
 Number of Electrons    NEL             ....  134
 Basis Dimension        Dim             ....  322

ORBITAL ENERGIES
----------------

  NO   OCC          E(Eh)            E(eV)
   0   2.0000     -88.965246     -2420.8674
   1   2.0000     -88.963709     -2420.8256
   2   2.0000     -10.335643      -281.2471
   3   2.0000     -10.329723      -281.0860
   4   2.0000     -10.320223      -280.8276
   5   2.0000     -10.314675      -280.6766
   6   2.0000     -10.314393      -280.6689
   7   2.0000     -10.303589      -280.3749
   8   2.0000     -10.301694      -280.3233
   9   2.0000     -10.298990      -280.2498
  10   2.0000     -10.290725      -280.0249
  11   2.0000     -10.289888      -280.0021
  12   2.0000     -10.284984      -279.8686
  13   2.0000     -10.283351      -279.8242
  14   2.0000     -10.280492      -279.7464
  15   2.0000     -10.277744      -279.6716
  16   2.0000      -8.080053      -219.8694
  17   2.0000      -8.079180      -219.8457
  18   2.0000      -6.038551      -164.3173
  19   2.0000      -6.037704      -164.2943
  20   2.0000      -6.034338      -164.2027
  21   2.0000      -6.033576      -164.1820
  22   2.0000      -6.030996      -164.1117
  23   2.0000      -6.029884      -164.0815
  24   2.0000      -1.010360       -27.4933
  25   2.0000      -0.985496       -26.8167
  26   2.0000      -0.914781       -24.8924
  27   2.0000      -0.912841       -24.8397
  28   2.0000      -0.868715       -23.6389
  29   2.0000      -0.851251       -23.1637
  30   2.0000      -0.843828       -22.9617
  31   2.0000      -0.816284       -22.2122
  32   2.0000      -0.787101       -21.4181
  33   2.0000      -0.774839       -21.0845
  34   2.0000      -0.704424       -19.1684
  35   2.0000      -0.696494       -18.9526
  36   2.0000      -0.691563       -18.8184
  37   2.0000      -0.664467       -18.0811
  38   2.0000      -0.646280       -17.5862
  39   2.0000      -0.621939       -16.9238
  40   2.0000      -0.600133       -16.3304
  41   2.0000      -0.578953       -15.7541
  42   2.0000      -0.563319       -15.3287
  43   2.0000      -0.554691       -15.0939
  44   2.0000      -0.531804       -14.4711
  45   2.0000      -0.522782       -14.2256
  46   2.0000      -0.517220       -14.0743
  47   2.0000      -0.516721       -14.0607
  48   2.0000      -0.508962       -13.8496
  49   2.0000      -0.502020       -13.6607
  50   2.0000      -0.495472       -13.4825
  51   2.0000      -0.492832       -13.4106
  52   2.0000      -0.476688       -12.9713
  53   2.0000      -0.463127       -12.6023
  54   2.0000      -0.459742       -12.5102
  55   2.0000      -0.446236       -12.1427
  56   2.0000      -0.439858       -11.9691
  57   2.0000      -0.433947       -11.8083
  58   2.0000      -0.429174       -11.6784
  59   2.0000      -0.422231       -11.4895
  60   2.0000      -0.417204       -11.3527
  61   2.0000      -0.414687       -11.2842
  62   2.0000      -0.406167       -11.0524
  63   2.0000      -0.356748        -9.7076
  64   2.0000      -0.330916        -9.0047
  65   2.0000      -0.330710        -8.9991
  66   2.0000      -0.292057        -7.9473
  67   0.0000       0.025037         0.6813
  68   0.0000       0.077381         2.1056
  69   0.0000       0.111401         3.0314
  70   0.0000       0.118879         3.2349
  71   0.0000       0.126322         3.4374

MULLIKEN ATOMIC CHARGES
-----------------------
   0 S :    0.099679
   1 C :   -0.127662
   2 C :   -0.108951
   3 C :    0.042931
   4 C :   -0.128482
   5 H :   -0.006531
   6 C :    0.142638
   7 H :    0.005654
   8 H :    0.000067
   9 C :   -0.119235
  10 H :    0.028020
  11 H :    0.034167
  12 C :   -0.041879
  13 H :    0.040009
  14 H :    0.034257
  15 H :    0.027796
  16 S :    0.097171
  17 C :   -0.089205
  18 C :   -0.060361
  19 C :   -0.024509
  20 C :   -0.127370
  21 H :    0.034267
  22 C :    0.088414
  23 H :    0.025051
  24 H :    0.012977
  25 C :   -0.101942
  26 H :    0.032161
  27 H :    0.045755
  28 C :   -0.061914
  29 H :    0.020841
  30 H :    0.047693
  31 H :    0.009280
  32 H :    0.058324
  33 H :    0.070887
Sum of atomic charges:   -0.0000000

LOEWDIN ATOMIC CHARGES
----------------------
   0 S :    0.407974
   1 C :   -0.199542
   2 C :   -0.055031
   3 C :   -0.064506
   4 C :   -0.188240
   5 H :    0.028636
   6 C :   -0.022858
   7 H :    0.028890
   8 H :    0.015644
   9 C :   -0.043602
  10 H :    0.026320
  11 H :    0.023345
  12 C :   -0.070038
  13 H :    0.027866
  14 H :    0.022077
  15 H :    0.028653
  16 S :    0.411261
  17 C :   -0.202544
  18 C :   -0.077346
  19 C :   -0.052549
  20 C :   -0.180938
  21 H :    0.035380
  22 C :   -0.035702
  23 H :    0.025794
  24 H :    0.037468
  25 C :   -0.050646
  26 H :    0.024729
  27 H :    0.033656
  28 C :   -0.071180
  29 H :    0.015533
  30 H :    0.041422
  31 H :    0.012620
  32 H :    0.032184
  33 H :    0.035271

  Mayer bond orders larger than 0.100000
B(  0-S ,  1-C ) :   1.1291 B(  0-S ,  4-C ) :   1.1552 B(  1-C ,  2-C ) :   1.6139
B(  1-C , 32-H ) :   0.9695 B(  2-C ,  3-C ) :   1.2244 B(  2-C ,  6-C ) :   1.0346
B(  3-C ,  4-C ) :   1.5925 B(  3-C ,  5-H ) :   0.9928 B(  4-C , 20-C ) :   1.0280
B(  6-C ,  7-H ) :   0.9362 B(  6-C ,  8-H ) :   0.9385 B(  6-C ,  9-C ) :   1.0553
B(  9-C , 10-H ) :   0.9552 B(  9-C , 11-H ) :   0.9598 B(  9-C , 12-C ) :   1.0782
B( 12-C , 13-H ) :   0.9752 B( 12-C , 14-H ) :   0.9752 B( 12-C , 15-H ) :   0.9739
B( 16-S , 17-C ) :   1.1693 B( 16-S , 20-C ) :   1.1505 B( 17-C , 18-C ) :   1.5741
B( 17-C , 20-C ) :   0.1017 B( 17-C , 33-H ) :   0.9700 B( 18-C , 19-C ) :   1.2715
B( 18-C , 21-H ) :   0.9814 B( 19-C , 20-C ) :   1.5779 B( 19-C , 22-C ) :   1.0323
B( 22-C , 23-H ) :   0.9350 B( 22-C , 24-H ) :   0.9266 B( 22-C , 25-C ) :   1.0572
B( 25-C , 26-H ) :   0.9592 B( 25-C , 27-H ) :   0.9559 B( 25-C , 28-C ) :   1.0761
B( 28-C , 29-H ) :   0.9728 B( 28-C , 30-H ) :   0.9740 B( 28-C , 31-H ) :   0.9756

Dispersion correction           -0.014081630
FINAL SINGLE POINT ENERGY     -1339.873532372953

DIPOLE MOMENT
-------------
                                X             Y             Z
Electronic contribution:     10.57195     -30.32063       2.84377
Nuclear contribution   :    -10.79802      30.83315      -3.21280
                        -----------------------------------------
Total Dipole Moment    :     -0.22607       0.51252      -0.36903
                        -----------------------------------------
Magnitude (a.u.)       :      0.67080
Magnitude (Debye)      :      1.70503

Rotational constants in cm-1:     0.018931     0.008785     0.006501
Rotational constants in MHz :   567.537342   263.379314   194.884347

                             ****ORCA TERMINATED NORMALLY****
TOTAL RUN TIME: 0 days 0 hours 0 minutes 33 seconds 138 msec
