                         Program Version 4.2.1 -  RELEASE  -
|  1> ! wB97X-D3 SP def2-SVP
|  2> %pal
|  3> nprocs 16
|  4> end
|  5>
|  6> * xyz 0 1
|  7> S 	 54.8843 	 3.75655 	 84.0956
|  8> C 	 55.0602 	 4.47577 	 82.4825
|  9> C 	 55.9356 	 3.75073 	 81.6403
| 10> C 	 56.4822 	 2.63351 	 82.3445
| 11> C 	 55.9761 	 2.46074 	 83.6114
| 12> H 	 57.1254 	 1.89181 	 81.8477
| 13> C 	 56.2957 	 4.19304 	 80.23
| 14> H 	 57.3717 	 4.4156 	 80.4103
| 15> H 	 55.7494 	 5.07195 	 79.9348
| 16> C 	 56.1408 	 3.11086 	 79.1074
| 17> H 	 56.5266 	 2.12485 	 79.4323
| 18> H 	 55.0801 	 3.04424 	 78.7928
| 19> C 	 56.8721 	 3.48847 	 77.7609
| 20> H 	 56.5877 	 2.85974 	 76.9141
| 21> H 	 56.5193 	 4.47681 	 77.4815
| 22> H 	 57.9812 	 3.51196 	 77.8625
| 23> S 	 54.9994 	 0.490795 	 85.407
| 24> C 	 56.068 	 -0.455056 	 86.4351
| 25> C 	 57.3371 	 -0.166668 	 86.0712
| 26> C 	 57.5564 	 0.857195 	 85.0315
| 27> C 	 56.3415 	 1.37921 	 84.5787
| 28> H 	 58.1073 	 -0.649459 	 86.6884
| 29> C 	 58.8871 	 1.46825 	 84.7163
| 30> H 	 59.4328 	 1.36861 	 85.6195
| 31> H 	 58.5425 	 2.35242 	 84.2706
| 32> C 	 59.7425 	 0.82724 	 83.5971
| 33> H 	 59.1804 	 1.02436 	 82.6162
| 34> H 	 59.7951 	 -0.24623 	 83.7789
| 35> C 	 61.1978 	 1.35938 	 83.5587
| 36> H 	 61.7433 	 0.733616 	 82.9918
| 37> H 	 61.5304 	 1.38257 	 84.6018
| 38> H 	 61.0963 	 2.36408 	 83.1109
| 39> H 	 54.6511 	 5.42923 	 82.1975
| 40> H 	 55.8386 	 -1.05442 	 87.3276
| 41> *
| 42>
| 43>                          ****END OF INPUT****

CARTESIAN COORDINATES (ANGSTROEM)
---------------------------------
  S     54.884300    3.756550   84.095600
  C     55.060200    4.475770   82.482500
  C     55.935600    3.750730   81.640300
  C     56.482200    2.633510   82.344500
  C     55.976100    2.460740   83.611400
  H     57.125400    1.891810   81.847700
  C     56.295700    4.193040   80.230000
  H     57.371700    4.415600   80.410300
  H     55.749400    5.071950   79.934800
  C     56.140800    3.110860   79.107400
  H     56.526600    2.124850   79.432300
  H     55.080100    3.044240   78.792800
  C     56.872100    3.488470   77.760900
  H     56.587700    2.859740   76.914100
  H     56.519300    4.476810   77.481500
  H     57.981200    3.511960   77.862500
  S     54.999400    0.490795   85.407000
  C     56.068000   -0.455056   86.435100
  C     57.337100   -0.166668   86.071200
  C     57.556400    0.857195   85.031500
  C     56.341500    1.379210   84.578700
  H     58.107300   -0.649459   86.688400
  C     58.887100    1.468250   84.716300
  H     59.432800    1.368610   85.619500
  H     58.542500    2.352420   84.270600
  C     59.742500    0.827240   83.597100
  H     59.180400    1.024360   82.616200
  H     59.795100   -0.246230   83.778900
  C     61.197800    1.359380   83.558700
  H     61.743300    0.733616   82.991800
  H     61.530400    1.382570   84.601800
  H     61.096300    2.364080   83.110900
  H     54.651100    5.429230   82.197500
  H     55.838600   -1.054420   87.327600

 Total Charge           Charge          ....    0
 Multiplicity           Mult            ....    1
 Number of Electrons    NEL             ....  134
 Basis Dimension        Dim             ....  322

ORBITAL ENERGIES
----------------

  NO   OCC          E(Eh)            E(eV)
   0   2.0000     -88.972511     -2421.0651
   1   2.0000     -88.957580     -2420.6588
   2   2.0000     -10.338390      -281.3219
   3   2.0000     -10.334590      -281.2185
   4   2.0000     -10.319587      -280.8102
   5   2.0000     -10.317313      -280.7484
   6   2.0000     -10.309268      -280.5295
   7   2.0000     -10.307660      -280.4857
   8   2.0000     -10.303145      -280.3628
   9   2.0000     -10.302155      -280.3359
  10   2.0000     -10.299890      -280.2743
  11   2.0000     -10.293732      -280.1067
  12   2.0000     -10.289823      -280.0003
  13   2.0000     -10.285688      -279.8878
  14   2.0000     -10.282424      -279.7990
  15   2.0000     -10.274214      -279.5756
  16   2.0000      -8.086388      -220.0418
  17   2.0000      -8.071604      -219.6395
  18   2.0000      -6.044872      -164.4893
  19   2.0000      -6.041114      -164.3871
  20   2.0000      -6.037104      -164.2780
  21   2.0000      -6.030362      -164.0945
  22   2.0000      -6.026158      -163.9801
  23   2.0000      -6.022162      -163.8714
  24   2.0000      -0.999851       -27.2073
  25   2.0000      -0.978167       -26.6173
  26   2.0000      -0.911273       -24.7970
  27   2.0000      -0.907678       -24.6992
  28   2.0000      -0.865782       -23.5591
  29   2.0000      -0.851997       -23.1840
  30   2.0000      -0.844051       -22.9678
  31   2.0000      -0.817615       -22.2484
  32   2.0000      -0.782026       -21.2800
  33   2.0000      -0.771208       -20.9856
  34   2.0000      -0.707623       -19.2554
  35   2.0000      -0.695707       -18.9311
  36   2.0000      -0.688032       -18.7223
  37   2.0000      -0.655620       -17.8403
  38   2.0000      -0.640960       -17.4414
  39   2.0000      -0.624129       -16.9834
  40   2.0000      -0.590332       -16.0638
  41   2.0000      -0.578203       -15.7337
  42   2.0000      -0.567555       -15.4440
  43   2.0000      -0.561861       -15.2890
  44   2.0000      -0.535271       -14.5655
  45   2.0000      -0.523975       -14.2581
  46   2.0000      -0.517520       -14.0824
  47   2.0000      -0.511420       -13.9165
  48   2.0000      -0.505134       -13.7454
  49   2.0000      -0.500673       -13.6240
  50   2.0000      -0.493620       -13.4321
  51   2.0000      -0.475733       -12.9454
  52   2.0000      -0.473987       -12.8978
  53   2.0000      -0.464180       -12.6310
  54   2.0000      -0.459456       -12.5024
  55   2.0000      -0.454410       -12.3651
  56   2.0000      -0.442279       -12.0350
  57   2.0000      -0.437886       -11.9155
  58   2.0000      -0.431289       -11.7360
  59   2.0000      -0.429869       -11.6973
  60   2.0000      -0.419602       -11.4180
  61   2.0000      -0.416527       -11.3343
  62   2.0000      -0.404539       -11.0081
  63   2.0000      -0.346905        -9.4398
  64   2.0000      -0.334580        -9.1044
  65   2.0000      -0.320895        -8.7320
  66   2.0000      -0.296245        -8.0612
  67   0.0000       0.026706         0.7267
  68   0.0000       0.071141         1.9359
  69   0.0000       0.109646         2.9836
  70   0.0000       0.118993         3.2380
  71   0.0000       0.125490         3.4148

MULLIKEN ATOMIC CHARGES
-----------------------
   0 S :    0.126224
   1 C :   -0.118803
   2 C :   -0.099461
   3 C :    0.010995
   4 C :   -0.141952
   5 H :    0.028832
   6 C :    0.075839
   7 H :    0.047287
   8 H :    0.020272
   9 C :   -0.100378
  10 H :    0.040552
  11 H :    0.044755
  12 C :   -0.068547
  13 H :    0.040967
  14 H :    0.021720
  15 H :    0.040938
  16 S :    0.070984
  17 C :   -0.092967
  18 C :   -0.049522
  19 C :   -0.038308
  20 C :   -0.161572
  21 H :    0.020290
  22 C :    0.132468
  23 H :    0.012190
  24 H :    0.014410
  25 C :   -0.146968
  26 H :    0.028798
  27 H :    0.024515
  28 C :    0.019959
  29 H :    0.016876
  30 H :    0.029616
  31 H :    0.037180
  32 H :    0.041965
  33 H :    0.070849
Sum of atomic charges:   -0.0000000

LOEWDIN ATOMIC CHARGES
----------------------
   0 S :    0.403095
   1 C :   -0.190922
   2 C :   -0.058540
   3 C :   -0.066076
   4 C :   -0.188986
   5 H :    0.034364
   6 C :   -0.029858
   7 H :    0.042076
   8 H :    0.028426
   9 C :   -0.039991
  10 H :    0.023351
  11 H :    0.031189
  12 C :   -0.069861
  13 H :    0.027871
  14 H :    0.021024
  15 H :    0.026137
  16 S :    0.360546
  17 C :   -0.186868
  18 C :   -0.082053
  19 C :   -0.052263
  20 C :   -0.180102
  21 H :    0.030768
  22 C :   -0.026510
  23 H :    0.028294
  24 H :    0.029256
  25 C :   -0.040055
  26 H :    0.022922
  27 H :    0.016493
  28 C :   -0.049651
  29 H :    0.009430
  30 H :    0.027803
  31 H :    0.031981
  32 H :    0.022936
  33 H :    0.043775

  Mayer bond orders larger than 0.100000
B(  0-S ,  1-C ) :   1.1338 B(  0-S ,  4-C ) :   1.1555 B(  1-C ,  2-C ) :   1.6121
B(  1-C , 32-H ) :   0.9672 B(  2-C ,  3-C ) :   1.2451 B(  2-C ,  6-C ) :   1.0148
B(  3-C ,  4-C ) :   1.5738 B(  3-C ,  5-H ) :   0.9828 B(  4-C , 20-C ) :   1.0227
B(  6-C ,  7-H ) :   0.9404 B(  6-C ,  8-H ) :   0.9416 B(  6-C ,  9-C ) :   1.0534
B(  9-C , 10-H ) :   0.9620 B(  9-C , 11-H ) :   0.9576 B(  9-C , 12-C ) :   1.0737
B( 12-C , 13-H ) :   0.9768 B( 12-C , 14-H ) :   0.9749 B( 12-C , 15-H ) :   0.9784
B( 16-S , 17-C ) :   1.1236 B( 16-S , 20-C ) :   1.1198 B( 17-C , 18-C ) :   1.6706
B( 17-C , 33-H ) :   0.9616 B( 18-C , 19-C ) :   1.1888 B( 18-C , 21-H ) :   0.9800
B( 19-C , 20-C ) :   1.6156 B( 19-C , 22-C ) :   1.0523 B( 22-C , 23-H ) :   0.9273
B( 22-C , 24-H ) :   0.9223 B( 22-C , 25-C ) :   1.0741 B( 25-C , 26-H ) :   0.9524
B( 25-C , 27-H ) :   0.9586 B( 25-C , 28-C ) :   1.0764 B( 28-C , 29-H ) :   0.9746
B( 28-C , 30-H ) :   0.9742 B( 28-C , 31-H ) :   0.9757

Dispersion correction           -0.013604229
FINAL SINGLE POINT ENERGY     -1339.862290581867

DIPOLE MOMENT
-------------
                                X             Y             Z
Electronic contribution:    -21.54516      -1.78130      22.35458
Nuclear contribution   :     22.13480       1.91412     -22.74748
                        -----------------------------------------
Total Dipole Moment    :      0.58964       0.13282      -0.39290
                        -----------------------------------------
Magnitude (a.u.)       :      0.72089
Magnitude (Debye)      :      1.83236

Rotational constants in cm-1:     0.016342     0.008576     0.006414
Rotational constants in MHz :   489.915515   257.093233   192.284202

                             ****ORCA TERMINATED NORMALLY****
TOTAL RUN TIME: 0 days 0 hours 0 minutes 28 seconds 989 msec
