                         Program Version 4.2.1 -  RELEASE  -
|  1> ! wB97X-D3 SP def2-SVP
|  2> %pal
|  3> nprocs 16
|  4> end
|  5>
|  6> * xyz 0 1
|  7> S 	 -67.2236 	 42.4402 	 137.36
|  8> C 	 -66.8653 	 41.5063 	 138.786
|  9> C 	 -66.2531 	 40.3534 	 138.444
| 10> C 	 -65.9418 	 40.2224 	 137.052
| 11> C 	 -66.5049 	 41.2471 	 136.299
| 12> H 	 -65.3172 	 39.4124 	 136.6
| 13> C 	 -65.9598 	 39.2581 	 139.429
| 14> H 	 -66.0685 	 39.6705 	 140.444
| 15> H 	 -64.8955 	 38.9809 	 139.277
| 16> C 	 -66.9337 	 38.0749 	 139.322
| 17> H 	 -67.0527 	 37.7844 	 138.322
| 18> H 	 -66.5563 	 37.3286 	 140.02
| 19> C 	 -68.278 	 38.4596 	 139.886
| 20> H 	 -68.8529 	 37.5957 	 140.31
| 21> H 	 -68.0726 	 39.0952 	 140.746
| 22> H 	 -68.9547 	 39.0217 	 139.201
| 23> S 	 -67.2389 	 42.5636 	 134.031
| 24> C 	 -66.3453 	 42.3096 	 132.543
| 25> C 	 -65.4293 	 41.3425 	 132.695
| 26> C 	 -65.1746 	 40.9725 	 134.06
| 27> C 	 -66.1097 	 41.5536 	 134.933
| 28> H 	 -64.8267 	 40.986 	 131.849
| 29> C 	 -63.982 	 40.0694 	 134.37
| 30> H 	 -63.7043 	 40.4087 	 135.373
| 31> H 	 -63.0455 	 40.4781 	 133.908
| 32> C 	 -63.9709 	 38.5935 	 134.33
| 33> H 	 -64.0796 	 38.4069 	 135.368
| 34> H 	 -62.9246 	 38.3579 	 134.047
| 35> C 	 -65.092 	 37.9639 	 133.444
| 36> H 	 -66.1368 	 38.278 	 133.659
| 37> H 	 -65.0765 	 36.8889 	 133.296
| 38> H 	 -64.8267 	 38.3237 	 132.428
| 39> H 	 -67.4499 	 41.7898 	 139.642
| 40> H 	 -66.5704 	 42.7156 	 131.603
| 41> *
| 42>
| 43>                          ****END OF INPUT****

CARTESIAN COORDINATES (ANGSTROEM)
---------------------------------
  S    -67.223600   42.440200  137.360000
  C    -66.865300   41.506300  138.786000
  C    -66.253100   40.353400  138.444000
  C    -65.941800   40.222400  137.052000
  C    -66.504900   41.247100  136.299000
  H    -65.317200   39.412400  136.600000
  C    -65.959800   39.258100  139.429000
  H    -66.068500   39.670500  140.444000
  H    -64.895500   38.980900  139.277000
  C    -66.933700   38.074900  139.322000
  H    -67.052700   37.784400  138.322000
  H    -66.556300   37.328600  140.020000
  C    -68.278000   38.459600  139.886000
  H    -68.852900   37.595700  140.310000
  H    -68.072600   39.095200  140.746000
  H    -68.954700   39.021700  139.201000
  S    -67.238900   42.563600  134.031000
  C    -66.345300   42.309600  132.543000
  C    -65.429300   41.342500  132.695000
  C    -65.174600   40.972500  134.060000
  C    -66.109700   41.553600  134.933000
  H    -64.826700   40.986000  131.849000
  C    -63.982000   40.069400  134.370000
  H    -63.704300   40.408700  135.373000
  H    -63.045500   40.478100  133.908000
  C    -63.970900   38.593500  134.330000
  H    -64.079600   38.406900  135.368000
  H    -62.924600   38.357900  134.047000
  C    -65.092000   37.963900  133.444000
  H    -66.136800   38.278000  133.659000
  H    -65.076500   36.888900  133.296000
  H    -64.826700   38.323700  132.428000
  H    -67.449900   41.789800  139.642000
  H    -66.570400   42.715600  131.603000

 Total Charge           Charge          ....    0
 Multiplicity           Mult            ....    1
 Number of Electrons    NEL             ....  134
 Basis Dimension        Dim             ....  322

ORBITAL ENERGIES
----------------

  NO   OCC          E(Eh)            E(eV)
   0   2.0000     -88.962709     -2420.7984
   1   2.0000     -88.961475     -2420.7648
   2   2.0000     -10.331603      -281.1372
   3   2.0000     -10.330984      -281.1204
   4   2.0000     -10.310638      -280.5667
   5   2.0000     -10.310525      -280.5636
   6   2.0000     -10.307548      -280.4826
   7   2.0000     -10.299548      -280.2650
   8   2.0000     -10.298998      -280.2500
   9   2.0000     -10.291545      -280.0472
  10   2.0000     -10.290338      -280.0143
  11   2.0000     -10.290164      -280.0096
  12   2.0000     -10.289891      -280.0022
  13   2.0000     -10.286390      -279.9069
  14   2.0000     -10.281561      -279.7755
  15   2.0000     -10.278220      -279.6846
  16   2.0000      -8.077571      -219.8019
  17   2.0000      -8.076904      -219.7837
  18   2.0000      -6.036141      -164.2517
  19   2.0000      -6.035556      -164.2358
  20   2.0000      -6.032174      -164.1438
  21   2.0000      -6.031247      -164.1186
  22   2.0000      -6.028148      -164.0343
  23   2.0000      -6.027541      -164.0177
  24   2.0000      -1.009568       -27.4717
  25   2.0000      -0.987373       -26.8678
  26   2.0000      -0.919268       -25.0146
  27   2.0000      -0.917238       -24.9593
  28   2.0000      -0.874949       -23.8086
  29   2.0000      -0.850480       -23.1427
  30   2.0000      -0.841745       -22.9050
  31   2.0000      -0.816745       -22.2248
  32   2.0000      -0.788296       -21.4506
  33   2.0000      -0.773522       -21.0486
  34   2.0000      -0.715097       -19.4588
  35   2.0000      -0.697599       -18.9826
  36   2.0000      -0.691118       -18.8063
  37   2.0000      -0.663428       -18.0528
  38   2.0000      -0.641002       -17.4426
  39   2.0000      -0.623873       -16.9764
  40   2.0000      -0.592152       -16.1133
  41   2.0000      -0.576464       -15.6864
  42   2.0000      -0.571049       -15.5390
  43   2.0000      -0.550178       -14.9711
  44   2.0000      -0.544831       -14.8256
  45   2.0000      -0.541259       -14.7284
  46   2.0000      -0.521588       -14.1931
  47   2.0000      -0.505380       -13.7521
  48   2.0000      -0.500078       -13.6078
  49   2.0000      -0.498708       -13.5705
  50   2.0000      -0.492872       -13.4117
  51   2.0000      -0.480073       -13.0634
  52   2.0000      -0.472361       -12.8536
  53   2.0000      -0.460043       -12.5184
  54   2.0000      -0.454534       -12.3685
  55   2.0000      -0.449569       -12.2334
  56   2.0000      -0.444539       -12.0965
  57   2.0000      -0.439526       -11.9601
  58   2.0000      -0.437594       -11.9075
  59   2.0000      -0.432510       -11.7692
  60   2.0000      -0.419530       -11.4160
  61   2.0000      -0.407307       -11.0834
  62   2.0000      -0.395630       -10.7656
  63   2.0000      -0.363025        -9.8784
  64   2.0000      -0.333022        -9.0620
  65   2.0000      -0.327063        -8.8998
  66   2.0000      -0.288718        -7.8564
  67   0.0000       0.018449         0.5020
  68   0.0000       0.087258         2.3744
  69   0.0000       0.100037         2.7222
  70   0.0000       0.114598         3.1184
  71   0.0000       0.124949         3.4000

MULLIKEN ATOMIC CHARGES
-----------------------
   0 S :    0.076289
   1 C :   -0.121161
   2 C :   -0.083053
   3 C :   -0.024010
   4 C :   -0.065121
   5 H :    0.003588
   6 C :    0.032965
   7 H :    0.019742
   8 H :    0.036005
   9 C :   -0.011511
  10 H :    0.026354
  11 H :    0.033505
  12 C :   -0.087800
  13 H :    0.040250
  14 H :    0.009599
  15 H :    0.050972
  16 S :    0.080620
  17 C :   -0.049563
  18 C :   -0.029129
  19 C :   -0.087517
  20 C :   -0.108672
  21 H :    0.025127
  22 C :   -0.017608
  23 H :    0.017304
  24 H :    0.028447
  25 C :   -0.005130
  26 H :    0.017075
  27 H :    0.032150
  28 C :   -0.052872
  29 H :    0.060605
  30 H :    0.037016
  31 H :    0.021113
  32 H :    0.059068
  33 H :    0.035352
Sum of atomic charges:   -0.0000000

LOEWDIN ATOMIC CHARGES
----------------------
   0 S :    0.397783
   1 C :   -0.192376
   2 C :   -0.066760
   3 C :   -0.069179
   4 C :   -0.190002
   5 H :    0.038308
   6 C :   -0.031846
   7 H :    0.027498
   8 H :    0.032481
   9 C :   -0.032922
  10 H :    0.018426
  11 H :    0.030240
  12 C :   -0.071597
  13 H :    0.030618
  14 H :    0.018441
  15 H :    0.029433
  16 S :    0.389377
  17 C :   -0.171484
  18 C :   -0.069487
  19 C :   -0.056708
  20 C :   -0.186014
  21 H :    0.034192
  22 C :   -0.052816
  23 H :    0.032131
  24 H :    0.036363
  25 C :   -0.041500
  26 H :    0.012669
  27 H :    0.036369
  28 C :   -0.069475
  29 H :    0.036243
  30 H :    0.025477
  31 H :    0.028348
  32 H :    0.026501
  33 H :    0.021268

  Mayer bond orders larger than 0.100000
B(  0-S ,  1-C ) :   1.1293 B(  0-S ,  4-C ) :   1.1515 B(  1-C ,  2-C ) :   1.6138
B(  1-C , 32-H ) :   0.9680 B(  2-C ,  3-C ) :   1.2468 B(  2-C ,  6-C ) :   1.0231
B(  3-C ,  4-C ) :   1.5576 B(  3-C ,  5-H ) :   0.9837 B(  4-C , 20-C ) :   1.0513
B(  6-C ,  7-H ) :   0.9454 B(  6-C ,  8-H ) :   0.9378 B(  6-C ,  9-C ) :   1.0764
B(  9-C , 10-H ) :   0.9570 B(  9-C , 11-H ) :   0.9528 B(  9-C , 12-C ) :   1.0750
B( 12-C , 13-H ) :   0.9744 B( 12-C , 14-H ) :   0.9733 B( 12-C , 15-H ) :   0.9739
B( 16-S , 17-C ) :   1.1347 B( 16-S , 20-C ) :   1.1239 B( 17-C , 18-C ) :   1.6407
B( 17-C , 33-H ) :   0.9719 B( 18-C , 19-C ) :   1.2416 B( 18-C , 21-H ) :   0.9817
B( 19-C , 20-C ) :   1.5948 B( 19-C , 22-C ) :   1.0261 B( 22-C , 23-H ) :   0.9421
B( 22-C , 24-H ) :   0.9331 B( 22-C , 25-C ) :   1.0450 B( 25-C , 26-H ) :   0.9567
B( 25-C , 27-H ) :   0.9484 B( 25-C , 28-C ) :   1.0839 B( 28-C , 29-H ) :   0.9676
B( 28-C , 30-H ) :   0.9769 B( 28-C , 31-H ) :   0.9722

Dispersion correction           -0.015242450
FINAL SINGLE POINT ENERGY     -1339.860827000919

DIPOLE MOMENT
-------------
                                X             Y             Z
Electronic contribution:     -7.16319      24.43501      -7.08759
Nuclear contribution   :      7.56457     -25.08254       7.08833
                        -----------------------------------------
Total Dipole Moment    :      0.40138      -0.64753       0.00074
                        -----------------------------------------
Magnitude (a.u.)       :      0.76184
Magnitude (Debye)      :      1.93645

Rotational constants in cm-1:     0.019739     0.009466     0.007117
Rotational constants in MHz :   591.763757   283.781495   213.368447

                             ****ORCA TERMINATED NORMALLY****
TOTAL RUN TIME: 0 days 0 hours 0 minutes 37 seconds 11 msec
