                         Program Version 4.2.1 -  RELEASE  -
|  1> ! wB97X-D3 SP def2-SVP
|  2> %pal
|  3> nprocs 16
|  4> end
|  5>
|  6> * xyz 0 1
|  7> S 	 27.2319 	 33.3658 	 57.3381
|  8> C 	 25.7282 	 32.7906 	 58.0001
|  9> C 	 24.7338 	 33.2844 	 57.1583
| 10> C 	 25.1467 	 34.032 	 55.9936
| 11> C 	 26.5552 	 34.0875 	 55.893
| 12> H 	 24.5379 	 34.4772 	 55.238
| 13> C 	 23.2968 	 33.0305 	 57.4042
| 14> H 	 23.258 	 32.6166 	 58.4862
| 15> H 	 22.8392 	 32.2701 	 56.8264
| 16> C 	 22.3651 	 34.267 	 57.379
| 17> H 	 22.5935 	 34.8349 	 58.2365
| 18> H 	 22.5203 	 34.8112 	 56.5128
| 19> C 	 20.86 	 33.933 	 57.4293
| 20> H 	 20.7059 	 33.252 	 58.2888
| 21> H 	 20.3196 	 34.8809 	 57.5738
| 22> H 	 20.3992 	 33.6042 	 56.5223
| 23> S 	 28.2814 	 36.1472 	 55.45
| 24> C 	 29.0427 	 36.4065 	 53.9502
| 25> C 	 28.4053 	 35.6682 	 52.9563
| 26> C 	 27.4618 	 34.6983 	 53.4804
| 27> C 	 27.3725 	 34.7504 	 54.8724
| 28> H 	 28.6491 	 35.8086 	 51.9323
| 29> C 	 26.7519 	 33.7633 	 52.5702
| 30> H 	 26.1996 	 32.9757 	 53.196
| 31> H 	 27.6428 	 33.2236 	 52.2157
| 32> C 	 25.9454 	 34.3041 	 51.385
| 33> H 	 25.8504 	 33.5927 	 50.6443
| 34> H 	 26.4781 	 35.1656 	 50.9958
| 35> C 	 24.5492 	 34.7914 	 51.8632
| 36> H 	 24.6783 	 35.8148 	 52.2536
| 37> H 	 23.9786 	 34.1017 	 52.5746
| 38> H 	 23.8968 	 34.8689 	 51.0196
| 39> H 	 25.4784 	 32.1055 	 58.7953
| 40> H 	 29.8589 	 37.046 	 53.7804
| 41> *
| 42>
| 43>                          ****END OF INPUT****

CARTESIAN COORDINATES (ANGSTROEM)
---------------------------------
  S     27.231900   33.365800   57.338100
  C     25.728200   32.790600   58.000100
  C     24.733800   33.284400   57.158300
  C     25.146700   34.032000   55.993600
  C     26.555200   34.087500   55.893000
  H     24.537900   34.477200   55.238000
  C     23.296800   33.030500   57.404200
  H     23.258000   32.616600   58.486200
  H     22.839200   32.270100   56.826400
  C     22.365100   34.267000   57.379000
  H     22.593500   34.834900   58.236500
  H     22.520300   34.811200   56.512800
  C     20.860000   33.933000   57.429300
  H     20.705900   33.252000   58.288800
  H     20.319600   34.880900   57.573800
  H     20.399200   33.604200   56.522300
  S     28.281400   36.147200   55.450000
  C     29.042700   36.406500   53.950200
  C     28.405300   35.668200   52.956300
  C     27.461800   34.698300   53.480400
  C     27.372500   34.750400   54.872400
  H     28.649100   35.808600   51.932300
  C     26.751900   33.763300   52.570200
  H     26.199600   32.975700   53.196000
  H     27.642800   33.223600   52.215700
  C     25.945400   34.304100   51.385000
  H     25.850400   33.592700   50.644300
  H     26.478100   35.165600   50.995800
  C     24.549200   34.791400   51.863200
  H     24.678300   35.814800   52.253600
  H     23.978600   34.101700   52.574600
  H     23.896800   34.868900   51.019600
  H     25.478400   32.105500   58.795300
  H     29.858900   37.046000   53.780400

 Total Charge           Charge          ....    0
 Multiplicity           Mult            ....    1
 Number of Electrons    NEL             ....  134
 Basis Dimension        Dim             ....  322

ORBITAL ENERGIES
----------------

  NO   OCC          E(Eh)            E(eV)
   0   2.0000     -88.965672     -2420.8790
   1   2.0000     -88.960591     -2420.7408
   2   2.0000     -10.334935      -281.2279
   3   2.0000     -10.327177      -281.0168
   4   2.0000     -10.316315      -280.7212
   5   2.0000     -10.313817      -280.6532
   6   2.0000     -10.308319      -280.5036
   7   2.0000     -10.299769      -280.2710
   8   2.0000     -10.297050      -280.1970
   9   2.0000     -10.293846      -280.1098
  10   2.0000     -10.293109      -280.0897
  11   2.0000     -10.287549      -279.9384
  12   2.0000     -10.287444      -279.9356
  13   2.0000     -10.283810      -279.8367
  14   2.0000     -10.278102      -279.6814
  15   2.0000     -10.276068      -279.6260
  16   2.0000      -8.080167      -219.8725
  17   2.0000      -8.076280      -219.7668
  18   2.0000      -6.038730      -164.3222
  19   2.0000      -6.034770      -164.2144
  20   2.0000      -6.034421      -164.2049
  21   2.0000      -6.031111      -164.1149
  22   2.0000      -6.030612      -164.1013
  23   2.0000      -6.027026      -164.0037
  24   2.0000      -1.005572       -27.3630
  25   2.0000      -0.985215       -26.8091
  26   2.0000      -0.913365       -24.8539
  27   2.0000      -0.910767       -24.7832
  28   2.0000      -0.870685       -23.6925
  29   2.0000      -0.851516       -23.1709
  30   2.0000      -0.844055       -22.9679
  31   2.0000      -0.815870       -22.2010
  32   2.0000      -0.779608       -21.2142
  33   2.0000      -0.769283       -20.9333
  34   2.0000      -0.715261       -19.4632
  35   2.0000      -0.703240       -19.1361
  36   2.0000      -0.693634       -18.8747
  37   2.0000      -0.659949       -17.9581
  38   2.0000      -0.641983       -17.4692
  39   2.0000      -0.618652       -16.8344
  40   2.0000      -0.598266       -16.2797
  41   2.0000      -0.574406       -15.6304
  42   2.0000      -0.569521       -15.4974
  43   2.0000      -0.560878       -15.2623
  44   2.0000      -0.540529       -14.7085
  45   2.0000      -0.523941       -14.2572
  46   2.0000      -0.521988       -14.2040
  47   2.0000      -0.513689       -13.9782
  48   2.0000      -0.511045       -13.9063
  49   2.0000      -0.500968       -13.6320
  50   2.0000      -0.490039       -13.3346
  51   2.0000      -0.480850       -13.0846
  52   2.0000      -0.469395       -12.7729
  53   2.0000      -0.460187       -12.5223
  54   2.0000      -0.457939       -12.4611
  55   2.0000      -0.449106       -12.2208
  56   2.0000      -0.448534       -12.2052
  57   2.0000      -0.430557       -11.7160
  58   2.0000      -0.429129       -11.6772
  59   2.0000      -0.428129       -11.6500
  60   2.0000      -0.421388       -11.4665
  61   2.0000      -0.418645       -11.3919
  62   2.0000      -0.408735       -11.1223
  63   2.0000      -0.339786        -9.2461
  64   2.0000      -0.325238        -8.8502
  65   2.0000      -0.321149        -8.7389
  66   2.0000      -0.298495        -8.1225
  67   0.0000       0.030074         0.8184
  68   0.0000       0.064990         1.7685
  69   0.0000       0.108662         2.9568
  70   0.0000       0.124303         3.3825
  71   0.0000       0.132513         3.6059

MULLIKEN ATOMIC CHARGES
-----------------------
   0 S :    0.116106
   1 C :   -0.090981
   2 C :   -0.100262
   3 C :    0.061450
   4 C :   -0.168655
   5 H :    0.006622
   6 C :    0.035951
   7 H :    0.012680
   8 H :    0.028263
   9 C :   -0.053342
  10 H :    0.026344
  11 H :    0.014687
  12 C :   -0.056319
  13 H :    0.036708
  14 H :    0.029797
  15 H :    0.027661
  16 S :    0.108435
  17 C :   -0.064263
  18 C :   -0.047891
  19 C :   -0.018678
  20 C :   -0.167617
  21 H :    0.008686
  22 C :    0.007756
  23 H :    0.039273
  24 H :    0.039372
  25 C :   -0.005593
  26 H :    0.017423
  27 H :    0.025215
  28 C :   -0.079779
  29 H :    0.047248
  30 H :    0.044519
  31 H :    0.024482
  32 H :    0.050662
  33 H :    0.044040
Sum of atomic charges:   -0.0000000

LOEWDIN ATOMIC CHARGES
----------------------
   0 S :    0.419898
   1 C :   -0.205979
   2 C :   -0.068197
   3 C :   -0.056705
   4 C :   -0.198290
   5 H :    0.027795
   6 C :   -0.037973
   7 H :    0.032508
   8 H :    0.022117
   9 C :   -0.028462
  10 H :    0.022481
  11 H :    0.011106
  12 C :   -0.065364
  13 H :    0.027559
  14 H :    0.030547
  15 H :    0.019754
  16 S :    0.420214
  17 C :   -0.184609
  18 C :   -0.074863
  19 C :   -0.051259
  20 C :   -0.206854
  21 H :    0.023238
  22 C :   -0.043753
  23 H :    0.037884
  24 H :    0.039917
  25 C :   -0.026700
  26 H :    0.015226
  27 H :    0.027106
  28 C :   -0.070318
  29 H :    0.031283
  30 H :    0.031042
  31 H :    0.020400
  32 H :    0.037179
  33 H :    0.022073

  Mayer bond orders larger than 0.100000
B(  0-S ,  1-C ) :   1.1353 B(  0-S ,  4-C ) :   1.1739 B(  1-C ,  2-C ) :   1.5903
B(  1-C ,  4-C ) :   0.1026 B(  1-C , 32-H ) :   0.9688 B(  2-C ,  3-C ) :   1.2379
B(  2-C ,  6-C ) :   1.0382 B(  3-C ,  4-C ) :   1.5382 B(  3-C ,  5-H ) :   0.9989
B(  4-C , 20-C ) :   1.0237 B(  6-C ,  7-H ) :   0.9388 B(  6-C ,  8-H ) :   0.9434
B(  6-C ,  9-C ) :   1.0600 B(  9-C , 10-H ) :   0.9570 B(  9-C , 11-H ) :   0.9572
B(  9-C , 12-C ) :   1.0908 B( 12-C , 13-H ) :   0.9753 B( 12-C , 14-H ) :   0.9720
B( 12-C , 15-H ) :   0.9748 B( 16-S , 17-C ) :   1.1756 B( 16-S , 20-C ) :   1.1445
B( 17-C , 18-C ) :   1.5848 B( 17-C , 33-H ) :   0.9761 B( 18-C , 19-C ) :   1.2313
B( 18-C , 21-H ) :   0.9953 B( 19-C , 20-C ) :   1.5863 B( 19-C , 22-C ) :   1.0364
B( 22-C , 23-H ) :   0.9407 B( 22-C , 24-H ) :   0.9280 B( 22-C , 25-C ) :   1.0698
B( 25-C , 26-H ) :   0.9546 B( 25-C , 27-H ) :   0.9549 B( 25-C , 28-C ) :   1.0697
B( 28-C , 29-H ) :   0.9781 B( 28-C , 30-H ) :   0.9742 B( 28-C , 31-H ) :   0.9735

Dispersion correction           -0.014072399
FINAL SINGLE POINT ENERGY     -1339.861670896320

DIPOLE MOMENT
-------------
                                X             Y             Z
Electronic contribution:     26.99224       3.33385      10.05309
Nuclear contribution   :    -27.47406      -3.37367     -10.63022
                        -----------------------------------------
Total Dipole Moment    :     -0.48182      -0.03982      -0.57713
                        -----------------------------------------
Magnitude (a.u.)       :      0.75287
Magnitude (Debye)      :      1.91365

Rotational constants in cm-1:     0.017908     0.008718     0.006727
Rotational constants in MHz :   536.855124   261.368620   201.655609

                             ****ORCA TERMINATED NORMALLY****
TOTAL RUN TIME: 0 days 0 hours 0 minutes 34 seconds 612 msec
