                         Program Version 4.2.1 -  RELEASE  -
|  1> ! wB97X-D3 SP def2-SVP
|  2> %pal
|  3> nprocs 16
|  4> end
|  5>
|  6> * xyz 0 1
|  7> S 	 -66.1984 	 49.4424 	 125.026
|  8> C 	 -65.0364 	 48.0673 	 125.22
|  9> C 	 -63.959 	 48.4834 	 126.041
| 10> C 	 -64.0629 	 49.8589 	 126.37
| 11> C 	 -65.3064 	 50.4861 	 126.089
| 12> H 	 -63.3141 	 50.4775 	 126.906
| 13> C 	 -62.821 	 47.5854 	 126.438
| 14> H 	 -61.9122 	 47.8578 	 125.921
| 15> H 	 -63.0933 	 46.6568 	 125.919
| 16> C 	 -62.7353 	 47.0384 	 127.898
| 17> H 	 -62.4638 	 47.8606 	 128.641
| 18> H 	 -63.709 	 46.6271 	 128.017
| 19> C 	 -61.8033 	 45.8115 	 128.07
| 20> H 	 -60.7315 	 45.9629 	 128.18
| 21> H 	 -62.1515 	 45.2049 	 128.931
| 22> H 	 -62.0308 	 45.1156 	 127.233
| 23> S 	 -66.3142 	 52.8496 	 125.095
| 24> C 	 -66.2147 	 54.3616 	 125.973
| 25> C 	 -65.8254 	 54.1055 	 127.32
| 26> C 	 -65.4854 	 52.7277 	 127.506
| 27> C 	 -65.6482 	 51.9248 	 126.388
| 28> H 	 -65.8618 	 54.9023 	 128.019
| 29> C 	 -65.0674 	 52.3292 	 128.883
| 30> H 	 -65.1709 	 51.2894 	 128.967
| 31> H 	 -65.6931 	 52.7665 	 129.673
| 32> C 	 -63.664 	 52.7806 	 129.287
| 33> H 	 -63.5887 	 53.8455 	 129.4
| 34> H 	 -63.0272 	 52.5411 	 128.444
| 35> C 	 -63.0403 	 52.1522 	 130.552
| 36> H 	 -62.6328 	 51.1474 	 130.24
| 37> H 	 -63.742 	 52.0106 	 131.372
| 38> H 	 -62.2739 	 52.6869 	 131.021
| 39> H 	 -65.2267 	 47.0278 	 125.021
| 40> H 	 -66.6648 	 55.2496 	 125.538
| 41> *
| 42>
| 43>                          ****END OF INPUT****

CARTESIAN COORDINATES (ANGSTROEM)
---------------------------------
  S    -66.198400   49.442400  125.026000
  C    -65.036400   48.067300  125.220000
  C    -63.959000   48.483400  126.041000
  C    -64.062900   49.858900  126.370000
  C    -65.306400   50.486100  126.089000
  H    -63.314100   50.477500  126.906000
  C    -62.821000   47.585400  126.438000
  H    -61.912200   47.857800  125.921000
  H    -63.093300   46.656800  125.919000
  C    -62.735300   47.038400  127.898000
  H    -62.463800   47.860600  128.641000
  H    -63.709000   46.627100  128.017000
  C    -61.803300   45.811500  128.070000
  H    -60.731500   45.962900  128.180000
  H    -62.151500   45.204900  128.931000
  H    -62.030800   45.115600  127.233000
  S    -66.314200   52.849600  125.095000
  C    -66.214700   54.361600  125.973000
  C    -65.825400   54.105500  127.320000
  C    -65.485400   52.727700  127.506000
  C    -65.648200   51.924800  126.388000
  H    -65.861800   54.902300  128.019000
  C    -65.067400   52.329200  128.883000
  H    -65.170900   51.289400  128.967000
  H    -65.693100   52.766500  129.673000
  C    -63.664000   52.780600  129.287000
  H    -63.588700   53.845500  129.400000
  H    -63.027200   52.541100  128.444000
  C    -63.040300   52.152200  130.552000
  H    -62.632800   51.147400  130.240000
  H    -63.742000   52.010600  131.372000
  H    -62.273900   52.686900  131.021000
  H    -65.226700   47.027800  125.021000
  H    -66.664800   55.249600  125.538000

 Total Charge           Charge          ....    0
 Multiplicity           Mult            ....    1
 Number of Electrons    NEL             ....  134
 Basis Dimension        Dim             ....  322

ORBITAL ENERGIES
----------------

  NO   OCC          E(Eh)            E(eV)
   0   2.0000     -88.971553     -2421.0391
   1   2.0000     -88.965832     -2420.8834
   2   2.0000     -10.340880      -281.3897
   3   2.0000     -10.333971      -281.2016
   4   2.0000     -10.324249      -280.9371
   5   2.0000     -10.323052      -280.9045
   6   2.0000     -10.308425      -280.5065
   7   2.0000     -10.306101      -280.4433
   8   2.0000     -10.300183      -280.2822
   9   2.0000     -10.299040      -280.2511
  10   2.0000     -10.297523      -280.2099
  11   2.0000     -10.293705      -280.1060
  12   2.0000     -10.286243      -279.9029
  13   2.0000     -10.284575      -279.8575
  14   2.0000     -10.282510      -279.8013
  15   2.0000     -10.277864      -279.6749
  16   2.0000      -8.085132      -220.0076
  17   2.0000      -8.081209      -219.9009
  18   2.0000      -6.043816      -164.4606
  19   2.0000      -6.039673      -164.3479
  20   2.0000      -6.039617      -164.3463
  21   2.0000      -6.035946      -164.2464
  22   2.0000      -6.035486      -164.2339
  23   2.0000      -6.032116      -164.1422
  24   2.0000      -1.005115       -27.3506
  25   2.0000      -0.981601       -26.7107
  26   2.0000      -0.913219       -24.8499
  27   2.0000      -0.910340       -24.7716
  28   2.0000      -0.865586       -23.5538
  29   2.0000      -0.852059       -23.1857
  30   2.0000      -0.844135       -22.9701
  31   2.0000      -0.812941       -22.1212
  32   2.0000      -0.783398       -21.3173
  33   2.0000      -0.774640       -21.0790
  34   2.0000      -0.706052       -19.2126
  35   2.0000      -0.700060       -19.0496
  36   2.0000      -0.695481       -18.9250
  37   2.0000      -0.668323       -18.1860
  38   2.0000      -0.637834       -17.3563
  39   2.0000      -0.616986       -16.7890
  40   2.0000      -0.598920       -16.2974
  41   2.0000      -0.573794       -15.6137
  42   2.0000      -0.570238       -15.5170
  43   2.0000      -0.563388       -15.3306
  44   2.0000      -0.528113       -14.3707
  45   2.0000      -0.520896       -14.1743
  46   2.0000      -0.518682       -14.1140
  47   2.0000      -0.516012       -14.0414
  48   2.0000      -0.504422       -13.7260
  49   2.0000      -0.499958       -13.6045
  50   2.0000      -0.496531       -13.5113
  51   2.0000      -0.477561       -12.9951
  52   2.0000      -0.471454       -12.8289
  53   2.0000      -0.462267       -12.5789
  54   2.0000      -0.459799       -12.5118
  55   2.0000      -0.449543       -12.2327
  56   2.0000      -0.446600       -12.1526
  57   2.0000      -0.434502       -11.8234
  58   2.0000      -0.431003       -11.7282
  59   2.0000      -0.425350       -11.5744
  60   2.0000      -0.421450       -11.4682
  61   2.0000      -0.414571       -11.2811
  62   2.0000      -0.412974       -11.2376
  63   2.0000      -0.348460        -9.4821
  64   2.0000      -0.332708        -9.0535
  65   2.0000      -0.329771        -8.9735
  66   2.0000      -0.291224        -7.9246
  67   0.0000       0.021733         0.5914
  68   0.0000       0.066092         1.7985
  69   0.0000       0.102296         2.7836
  70   0.0000       0.114933         3.1275
  71   0.0000       0.122622         3.3367

MULLIKEN ATOMIC CHARGES
-----------------------
   0 S :    0.100912
   1 C :   -0.106959
   2 C :   -0.112383
   3 C :    0.016007
   4 C :   -0.133463
   5 H :    0.021244
   6 C :    0.064875
   7 H :    0.042030
   8 H :   -0.007598
   9 C :   -0.054017
  10 H :    0.050933
  11 H :    0.023789
  12 C :   -0.075476
  13 H :    0.048547
  14 H :    0.037278
  15 H :    0.024030
  16 S :    0.099179
  17 C :   -0.112101
  18 C :   -0.015695
  19 C :   -0.058189
  20 C :   -0.128954
  21 H :    0.016324
  22 C :    0.098505
  23 H :    0.007521
  24 H :    0.025388
  25 C :   -0.085164
  26 H :    0.020274
  27 H :    0.021843
  28 C :   -0.035138
  29 H :    0.035212
  30 H :    0.023348
  31 H :    0.022724
  32 H :    0.054925
  33 H :    0.070252
Sum of atomic charges:   -0.0000000

LOEWDIN ATOMIC CHARGES
----------------------
   0 S :    0.394737
   1 C :   -0.187257
   2 C :   -0.059808
   3 C :   -0.071059
   4 C :   -0.194860
   5 H :    0.033301
   6 C :   -0.040665
   7 H :    0.031784
   8 H :    0.030057
   9 C :   -0.035541
  10 H :    0.029336
  11 H :    0.025522
  12 C :   -0.072986
  13 H :    0.024758
  14 H :    0.032068
  15 H :    0.027053
  16 S :    0.420674
  17 C :   -0.184236
  18 C :   -0.057713
  19 C :   -0.058409
  20 C :   -0.205668
  21 H :    0.027984
  22 C :   -0.028902
  23 H :    0.021273
  24 H :    0.034608
  25 C :   -0.039662
  26 H :    0.018334
  27 H :    0.019210
  28 C :   -0.064511
  29 H :    0.031230
  30 H :    0.023601
  31 H :    0.018803
  32 H :    0.028064
  33 H :    0.028880

  Mayer bond orders larger than 0.100000
B(  0-S ,  1-C ) :   1.1320 B(  0-S ,  4-C ) :   1.1671 B(  1-C ,  2-C ) :   1.5881
B(  1-C ,  4-C ) :   0.1117 B(  1-C , 32-H ) :   0.9605 B(  2-C ,  3-C ) :   1.2607
B(  2-C ,  6-C ) :   1.0391 B(  3-C ,  4-C ) :   1.5414 B(  3-C ,  5-H ) :   0.9862
B(  4-C , 20-C ) :   1.0171 B(  6-C ,  7-H ) :   0.9385 B(  6-C ,  8-H ) :   0.9301
B(  6-C ,  9-C ) :   1.0466 B(  9-C , 10-H ) :   0.9575 B(  9-C , 11-H ) :   0.9532
B(  9-C , 12-C ) :   1.0837 B( 12-C , 13-H ) :   0.9780 B( 12-C , 14-H ) :   0.9761
B( 12-C , 15-H ) :   0.9697 B( 16-S , 17-C ) :   1.1825 B( 16-S , 20-C ) :   1.1498
B( 17-C , 18-C ) :   1.5545 B( 17-C , 20-C ) :   0.1013 B( 17-C , 33-H ) :   0.9693
B( 18-C , 19-C ) :   1.2534 B( 18-C , 21-H ) :   1.0022 B( 19-C , 20-C ) :   1.5806
B( 19-C , 22-C ) :   1.0660 B( 22-C , 23-H ) :   0.9320 B( 22-C , 24-H ) :   0.9300
B( 22-C , 25-C ) :   1.0529 B( 25-C , 26-H ) :   0.9558 B( 25-C , 27-H ) :   0.9585
B( 25-C , 28-C ) :   1.0797 B( 28-C , 29-H ) :   0.9776 B( 28-C , 30-H ) :   0.9739
B( 28-C , 31-H ) :   0.9758

Dispersion correction           -0.013702696
FINAL SINGLE POINT ENERGY     -1339.860518240069

DIPOLE MOMENT
-------------
                                X             Y             Z
Electronic contribution:    -20.85257      11.81692     -23.30066
Nuclear contribution   :     21.20591     -11.90021      23.87761
                        -----------------------------------------
Total Dipole Moment    :      0.35334      -0.08330       0.57694
                        -----------------------------------------
Magnitude (a.u.)       :      0.68165
Magnitude (Debye)      :      1.73262

Rotational constants in cm-1:     0.017284     0.008853     0.006089
Rotational constants in MHz :   518.155063   265.417856   182.553511

                             ****ORCA TERMINATED NORMALLY****
TOTAL RUN TIME: 0 days 0 hours 0 minutes 32 seconds 762 msec
