                         Program Version 4.2.1 -  RELEASE  -
|  1> ! wB97X-D3 SP def2-SVP
|  2> %pal
|  3> nprocs 16
|  4> end
|  5>
|  6> * xyz 0 1
|  7> S 	 2.2899 	 -13.2919 	 58.8926
|  8> C 	 3.30886 	 -12.398 	 59.8424
|  9> C 	 3.84467 	 -13.1615 	 60.9215
| 10> C 	 3.49506 	 -14.5264 	 60.7341
| 11> C 	 2.67083 	 -14.7867 	 59.6464
| 12> H 	 3.9151 	 -15.3351 	 61.3448
| 13> C 	 4.77421 	 -12.6838 	 62.0032
| 14> H 	 5.59644 	 -12.2352 	 61.3784
| 15> H 	 5.12947 	 -13.5963 	 62.4773
| 16> C 	 4.10808 	 -11.7501 	 63.0751
| 17> H 	 4.9067 	 -11.2503 	 63.6262
| 18> H 	 3.47501 	 -11.0052 	 62.5534
| 19> C 	 3.38901 	 -12.6106 	 64.108
| 20> H 	 4.13133 	 -13.3066 	 64.62
| 21> H 	 2.96515 	 -11.8902 	 64.8433
| 22> H 	 2.57793 	 -13.1623 	 63.6927
| 23> S 	 1.90927 	 -16.1593 	 57.401
| 24> C 	 1.28463 	 -17.7939 	 57.5936
| 25> C 	 1.22703 	 -18.23 	 58.8763
| 26> C 	 1.60637 	 -17.1777 	 59.758
| 27> C 	 2.13963 	 -16.0161 	 59.1334
| 28> H 	 0.849561 	 -19.2494 	 59.08
| 29> C 	 1.69018 	 -17.353 	 61.2553
| 30> H 	 2.69911 	 -17.2165 	 61.7032
| 31> H 	 1.37161 	 -18.3739 	 61.4939
| 32> C 	 0.791317 	 -16.5195 	 62.089
| 33> H 	 -0.231469 	 -16.5048 	 61.6167
| 34> H 	 1.22747 	 -15.5195 	 61.9015
| 35> C 	 0.629176 	 -16.9531 	 63.5821
| 36> H 	 0.033849 	 -16.2793 	 64.2479
| 37> H 	 1.59937 	 -17.026 	 63.9923
| 38> H 	 0.181987 	 -17.9408 	 63.6594
| 39> H 	 3.49836 	 -11.377 	 59.7177
| 40> H 	 1.03512 	 -18.4767 	 56.8614
| 41> *
| 42>
| 43>                          ****END OF INPUT****

CARTESIAN COORDINATES (ANGSTROEM)
---------------------------------
  S      2.289900  -13.291900   58.892600
  C      3.308860  -12.398000   59.842400
  C      3.844670  -13.161500   60.921500
  C      3.495060  -14.526400   60.734100
  C      2.670830  -14.786700   59.646400
  H      3.915100  -15.335100   61.344800
  C      4.774210  -12.683800   62.003200
  H      5.596440  -12.235200   61.378400
  H      5.129470  -13.596300   62.477300
  C      4.108080  -11.750100   63.075100
  H      4.906700  -11.250300   63.626200
  H      3.475010  -11.005200   62.553400
  C      3.389010  -12.610600   64.108000
  H      4.131330  -13.306600   64.620000
  H      2.965150  -11.890200   64.843300
  H      2.577930  -13.162300   63.692700
  S      1.909270  -16.159300   57.401000
  C      1.284630  -17.793900   57.593600
  C      1.227030  -18.230000   58.876300
  C      1.606370  -17.177700   59.758000
  C      2.139630  -16.016100   59.133400
  H      0.849561  -19.249400   59.080000
  C      1.690180  -17.353000   61.255300
  H      2.699110  -17.216500   61.703200
  H      1.371610  -18.373900   61.493900
  C      0.791317  -16.519500   62.089000
  H     -0.231469  -16.504800   61.616700
  H      1.227470  -15.519500   61.901500
  C      0.629176  -16.953100   63.582100
  H      0.033849  -16.279300   64.247900
  H      1.599370  -17.026000   63.992300
  H      0.181987  -17.940800   63.659400
  H      3.498360  -11.377000   59.717700
  H      1.035120  -18.476700   56.861400

 Total Charge           Charge          ....    0
 Multiplicity           Mult            ....    1
 Number of Electrons    NEL             ....  134
 Basis Dimension        Dim             ....  322

ORBITAL ENERGIES
----------------

  NO   OCC          E(Eh)            E(eV)
   0   2.0000     -88.968635     -2420.9596
   1   2.0000     -88.967839     -2420.9380
   2   2.0000     -10.329628      -281.0835
   3   2.0000     -10.325995      -280.9846
   4   2.0000     -10.310606      -280.5658
   5   2.0000     -10.307197      -280.4731
   6   2.0000     -10.306786      -280.4619
   7   2.0000     -10.301634      -280.3217
   8   2.0000     -10.296346      -280.1778
   9   2.0000     -10.295601      -280.1576
  10   2.0000     -10.294478      -280.1270
  11   2.0000     -10.292858      -280.0829
  12   2.0000     -10.285027      -279.8698
  13   2.0000     -10.282996      -279.8145
  14   2.0000     -10.280349      -279.7425
  15   2.0000     -10.278551      -279.6936
  16   2.0000      -8.084716      -219.9963
  17   2.0000      -8.083026      -219.9503
  18   2.0000      -6.042877      -164.4350
  19   2.0000      -6.041544      -164.3988
  20   2.0000      -6.038687      -164.3210
  21   2.0000      -6.037592      -164.2912
  22   2.0000      -6.035957      -164.2467
  23   2.0000      -6.033784      -164.1876
  24   2.0000      -1.016421       -27.6582
  25   2.0000      -0.989710       -26.9314
  26   2.0000      -0.913407       -24.8551
  27   2.0000      -0.910669       -24.7806
  28   2.0000      -0.876859       -23.8606
  29   2.0000      -0.855326       -23.2746
  30   2.0000      -0.844484       -22.9796
  31   2.0000      -0.818307       -22.2673
  32   2.0000      -0.781368       -21.2621
  33   2.0000      -0.768604       -20.9148
  34   2.0000      -0.710636       -19.3374
  35   2.0000      -0.702509       -19.1162
  36   2.0000      -0.682552       -18.5732
  37   2.0000      -0.664874       -18.0921
  38   2.0000      -0.643197       -17.5023
  39   2.0000      -0.617786       -16.8108
  40   2.0000      -0.596058       -16.2196
  41   2.0000      -0.577712       -15.7203
  42   2.0000      -0.566359       -15.4114
  43   2.0000      -0.553310       -15.0563
  44   2.0000      -0.545972       -14.8567
  45   2.0000      -0.517528       -14.0827
  46   2.0000      -0.512715       -13.9517
  47   2.0000      -0.510884       -13.9019
  48   2.0000      -0.507757       -13.8168
  49   2.0000      -0.500316       -13.6143
  50   2.0000      -0.490706       -13.3528
  51   2.0000      -0.478424       -13.0186
  52   2.0000      -0.473626       -12.8880
  53   2.0000      -0.470404       -12.8003
  54   2.0000      -0.460359       -12.5270
  55   2.0000      -0.455879       -12.4051
  56   2.0000      -0.447564       -12.1788
  57   2.0000      -0.434115       -11.8129
  58   2.0000      -0.431795       -11.7497
  59   2.0000      -0.423823       -11.5328
  60   2.0000      -0.421782       -11.4773
  61   2.0000      -0.412348       -11.2206
  62   2.0000      -0.404565       -11.0088
  63   2.0000      -0.356149        -9.6913
  64   2.0000      -0.336347        -9.1525
  65   2.0000      -0.328230        -8.9316
  66   2.0000      -0.281413        -7.6576
  67   0.0000       0.020010         0.5445
  68   0.0000       0.076841         2.0909
  69   0.0000       0.109631         2.9832
  70   0.0000       0.117705         3.2029
  71   0.0000       0.129372         3.5204

MULLIKEN ATOMIC CHARGES
-----------------------
   0 S :    0.141417
   1 C :   -0.096541
   2 C :   -0.125682
   3 C :    0.003221
   4 C :   -0.148089
   5 H :    0.015704
   6 C :    0.045745
   7 H :    0.051842
   8 H :    0.012158
   9 C :   -0.055639
  10 H :    0.032703
  11 H :    0.039546
  12 C :   -0.073451
  13 H :    0.042204
  14 H :    0.040689
  15 H :    0.041289
  16 S :    0.106934
  17 C :   -0.042664
  18 C :   -0.049364
  19 C :   -0.018027
  20 C :   -0.136215
  21 H :    0.036625
  22 C :    0.038592
  23 H :    0.032860
  24 H :   -0.004971
  25 C :   -0.108028
  26 H :    0.028891
  27 H :    0.039684
  28 C :   -0.025648
  29 H :    0.045611
  30 H :    0.013151
  31 H :    0.028833
  32 H :    0.026717
  33 H :    0.019904
Sum of atomic charges:   -0.0000000

LOEWDIN ATOMIC CHARGES
----------------------
   0 S :    0.471785
   1 C :   -0.224900
   2 C :   -0.063897
   3 C :   -0.072409
   4 C :   -0.216170
   5 H :    0.031260
   6 C :   -0.037617
   7 H :    0.041946
   8 H :    0.026250
   9 C :   -0.037954
  10 H :    0.025127
  11 H :    0.026686
  12 C :   -0.066489
  13 H :    0.032947
  14 H :    0.031310
  15 H :    0.020292
  16 S :    0.403227
  17 C :   -0.168822
  18 C :   -0.069685
  19 C :   -0.050199
  20 C :   -0.196897
  21 H :    0.043844
  22 C :   -0.042304
  23 H :    0.028865
  24 H :    0.022477
  25 C :   -0.050847
  26 H :    0.025327
  27 H :    0.024040
  28 C :   -0.064087
  29 H :    0.033955
  30 H :    0.016174
  31 H :    0.025061
  32 H :    0.016095
  33 H :    0.015611

  Mayer bond orders larger than 0.100000
B(  0-S ,  1-C ) :   1.1943 B(  0-S ,  4-C ) :   1.1850 B(  1-C ,  2-C ) :   1.5162
B(  1-C ,  4-C ) :   0.1068 B(  1-C , 32-H ) :   0.9780 B(  2-C ,  3-C ) :   1.3195
B(  2-C ,  6-C ) :   1.0124 B(  3-C ,  4-C ) :   1.4979 B(  3-C ,  5-H ) :   0.9898
B(  4-C , 20-C ) :   1.0879 B(  6-C ,  7-H ) :   0.9408 B(  6-C ,  8-H ) :   0.9428
B(  6-C ,  9-C ) :   1.0541 B(  9-C , 10-H ) :   0.9560 B(  9-C , 11-H ) :   0.9607
B(  9-C , 12-C ) :   1.0716 B( 12-C , 13-H ) :   0.9728 B( 12-C , 14-H ) :   0.9721
B( 12-C , 15-H ) :   0.9796 B( 16-S , 17-C ) :   1.1492 B( 16-S , 20-C ) :   1.1316
B( 17-C , 18-C ) :   1.6317 B( 17-C , 33-H ) :   0.9655 B( 18-C , 19-C ) :   1.2472
B( 18-C , 21-H ) :   0.9837 B( 19-C , 20-C ) :   1.5519 B( 19-C , 22-C ) :   1.0475
B( 22-C , 23-H ) :   0.9398 B( 22-C , 24-H ) :   0.9300 B( 22-C , 25-C ) :   1.0486
B( 25-C , 26-H ) :   0.9531 B( 25-C , 27-H ) :   0.9550 B( 25-C , 28-C ) :   1.0728
B( 28-C , 29-H ) :   0.9763 B( 28-C , 30-H ) :   0.9732 B( 28-C , 31-H ) :   0.9727

Dispersion correction           -0.014773750
FINAL SINGLE POINT ENERGY     -1339.874593266320

DIPOLE MOMENT
-------------
                                X             Y             Z
Electronic contribution:     -1.59596      -0.69972     -31.17892
Nuclear contribution   :      1.74870       0.60598      31.68916
                        -----------------------------------------
Total Dipole Moment    :      0.15274      -0.09374       0.51024
                        -----------------------------------------
Magnitude (a.u.)       :      0.54079
Magnitude (Debye)      :      1.37459

Rotational constants in cm-1:     0.019179     0.009715     0.006922
Rotational constants in MHz :   574.963614   291.236670   207.512441

                             ****ORCA TERMINATED NORMALLY****
TOTAL RUN TIME: 0 days 0 hours 0 minutes 33 seconds 427 msec
