                         Program Version 4.2.1 -  RELEASE  -
|  1> ! wB97X-D3 SP def2-SVP
|  2> %pal
|  3> nprocs 16
|  4> end
|  5>
|  6> * xyz 0 1
|  7> S 	 -1.21461 	 -13.9807 	 82.5165
|  8> C 	 -2.46913 	 -14.5826 	 83.5546
|  9> C 	 -3.38456 	 -13.605 	 83.8845
| 10> C 	 -3.00601 	 -12.3656 	 83.2508
| 11> C 	 -1.8418 	 -12.3469 	 82.5789
| 12> H 	 -3.51621 	 -11.434 	 83.4155
| 13> C 	 -4.47183 	 -13.7224 	 84.9231
| 14> H 	 -4.52412 	 -14.7639 	 85.09
| 15> H 	 -5.43081 	 -13.4009 	 84.5942
| 16> C 	 -3.98411 	 -13.0435 	 86.1822
| 17> H 	 -3.15164 	 -13.4609 	 86.6269
| 18> H 	 -3.73778 	 -11.9994 	 86.0581
| 19> C 	 -4.87729 	 -13.1101 	 87.393
| 20> H 	 -4.62865 	 -14.013 	 87.9909
| 21> H 	 -4.64988 	 -12.2176 	 87.9936
| 22> H 	 -5.96696 	 -13.067 	 87.1527
| 23> S 	 -0.907957 	 -11.5895 	 80.1604
| 24> C 	 -0.565641 	 -9.98517 	 79.8303
| 25> C 	 -0.573115 	 -9.22225 	 80.9768
| 26> C 	 -1.01368 	 -9.94298 	 82.1386
| 27> C 	 -1.27256 	 -11.2747 	 81.8447
| 28> H 	 -0.324792 	 -8.15955 	 80.8745
| 29> C 	 -1.07921 	 -9.26836 	 83.4643
| 30> H 	 -0.319586 	 -8.52877 	 83.5125
| 31> H 	 -0.956681 	 -9.94443 	 84.3425
| 32> C 	 -2.30678 	 -8.38496 	 83.7543
| 33> H 	 -3.10951 	 -9.10099 	 83.7791
| 34> H 	 -2.61661 	 -7.70019 	 82.9418
| 35> C 	 -2.09929 	 -7.73806 	 85.1861
| 36> H 	 -2.11276 	 -8.57623 	 85.8568
| 37> H 	 -2.9444 	 -7.08702 	 85.392
| 38> H 	 -1.14068 	 -7.17065 	 85.3198
| 39> H 	 -2.38804 	 -15.5449 	 84.0582
| 40> H 	 -0.124999 	 -9.69619 	 78.9043
| 41> *
| 42>
| 43>                          ****END OF INPUT****

CARTESIAN COORDINATES (ANGSTROEM)
---------------------------------
  S     -1.214610  -13.980700   82.516500
  C     -2.469130  -14.582600   83.554600
  C     -3.384560  -13.605000   83.884500
  C     -3.006010  -12.365600   83.250800
  C     -1.841800  -12.346900   82.578900
  H     -3.516210  -11.434000   83.415500
  C     -4.471830  -13.722400   84.923100
  H     -4.524120  -14.763900   85.090000
  H     -5.430810  -13.400900   84.594200
  C     -3.984110  -13.043500   86.182200
  H     -3.151640  -13.460900   86.626900
  H     -3.737780  -11.999400   86.058100
  C     -4.877290  -13.110100   87.393000
  H     -4.628650  -14.013000   87.990900
  H     -4.649880  -12.217600   87.993600
  H     -5.966960  -13.067000   87.152700
  S     -0.907957  -11.589500   80.160400
  C     -0.565641   -9.985170   79.830300
  C     -0.573115   -9.222250   80.976800
  C     -1.013680   -9.942980   82.138600
  C     -1.272560  -11.274700   81.844700
  H     -0.324792   -8.159550   80.874500
  C     -1.079210   -9.268360   83.464300
  H     -0.319586   -8.528770   83.512500
  H     -0.956681   -9.944430   84.342500
  C     -2.306780   -8.384960   83.754300
  H     -3.109510   -9.100990   83.779100
  H     -2.616610   -7.700190   82.941800
  C     -2.099290   -7.738060   85.186100
  H     -2.112760   -8.576230   85.856800
  H     -2.944400   -7.087020   85.392000
  H     -1.140680   -7.170650   85.319800
  H     -2.388040  -15.544900   84.058200
  H     -0.124999   -9.696190   78.904300

 Total Charge           Charge          ....    0
 Multiplicity           Mult            ....    1
 Number of Electrons    NEL             ....  134
 Basis Dimension        Dim             ....  322

ORBITAL ENERGIES
----------------

  NO   OCC          E(Eh)            E(eV)
   0   2.0000     -88.961664     -2420.7700
   1   2.0000     -88.960538     -2420.7393
   2   2.0000     -10.323000      -280.9031
   3   2.0000     -10.322245      -280.8826
   4   2.0000     -10.312528      -280.6181
   5   2.0000     -10.308607      -280.5115
   6   2.0000     -10.304452      -280.3984
   7   2.0000     -10.300816      -280.2995
   8   2.0000     -10.292948      -280.0853
   9   2.0000     -10.289644      -279.9954
  10   2.0000     -10.289017      -279.9784
  11   2.0000     -10.288196      -279.9560
  12   2.0000     -10.287656      -279.9414
  13   2.0000     -10.285961      -279.8952
  14   2.0000     -10.280007      -279.7332
  15   2.0000     -10.275204      -279.6025
  16   2.0000      -8.077208      -219.7920
  17   2.0000      -8.076971      -219.7856
  18   2.0000      -6.035579      -164.2365
  19   2.0000      -6.035509      -164.2346
  20   2.0000      -6.031409      -164.1230
  21   2.0000      -6.031357      -164.1216
  22   2.0000      -6.028135      -164.0339
  23   2.0000      -6.027590      -164.0190
  24   2.0000      -1.014889       -27.6165
  25   2.0000      -0.990830       -26.9619
  26   2.0000      -0.923118       -25.1193
  27   2.0000      -0.913233       -24.8503
  28   2.0000      -0.877899       -23.8888
  29   2.0000      -0.853733       -23.2313
  30   2.0000      -0.847186       -23.0531
  31   2.0000      -0.818428       -22.2706
  32   2.0000      -0.783701       -21.3256
  33   2.0000      -0.773278       -21.0420
  34   2.0000      -0.709451       -19.3051
  35   2.0000      -0.699573       -19.0363
  36   2.0000      -0.694527       -18.8991
  37   2.0000      -0.666215       -18.1286
  38   2.0000      -0.644684       -17.5427
  39   2.0000      -0.624140       -16.9837
  40   2.0000      -0.604166       -16.4402
  41   2.0000      -0.579086       -15.7577
  42   2.0000      -0.567490       -15.4422
  43   2.0000      -0.560879       -15.2623
  44   2.0000      -0.535815       -14.5803
  45   2.0000      -0.522293       -14.2123
  46   2.0000      -0.521691       -14.1959
  47   2.0000      -0.517726       -14.0880
  48   2.0000      -0.509073       -13.8526
  49   2.0000      -0.502609       -13.6767
  50   2.0000      -0.497302       -13.5323
  51   2.0000      -0.480584       -13.0773
  52   2.0000      -0.470068       -12.7912
  53   2.0000      -0.465021       -12.6539
  54   2.0000      -0.462316       -12.5803
  55   2.0000      -0.447062       -12.1652
  56   2.0000      -0.444742       -12.1021
  57   2.0000      -0.440460       -11.9855
  58   2.0000      -0.437128       -11.8949
  59   2.0000      -0.422556       -11.4983
  60   2.0000      -0.419592       -11.4177
  61   2.0000      -0.417871       -11.3708
  62   2.0000      -0.416282       -11.3276
  63   2.0000      -0.352813        -9.6005
  64   2.0000      -0.327993        -8.9252
  65   2.0000      -0.327270        -8.9055
  66   2.0000      -0.292741        -7.9659
  67   0.0000       0.035279         0.9600
  68   0.0000       0.072096         1.9618
  69   0.0000       0.116356         3.1662
  70   0.0000       0.118182         3.2159
  71   0.0000       0.126951         3.4545

MULLIKEN ATOMIC CHARGES
-----------------------
   0 S :    0.098696
   1 C :   -0.122510
   2 C :   -0.115220
   3 C :    0.030329
   4 C :   -0.143568
   5 H :   -0.006771
   6 C :    0.165554
   7 H :   -0.000653
   8 H :    0.023789
   9 C :   -0.068523
  10 H :    0.006352
  11 H :    0.019317
  12 C :   -0.065701
  13 H :    0.039943
  14 H :    0.032250
  15 H :    0.031185
  16 S :    0.110201
  17 C :   -0.078515
  18 C :   -0.055309
  19 C :    0.009165
  20 C :   -0.149458
  21 H :    0.025390
  22 C :    0.043226
  23 H :    0.005411
  24 H :    0.034293
  25 C :   -0.088700
  26 H :    0.009418
  27 H :    0.036698
  28 C :   -0.046347
  29 H :    0.027381
  30 H :    0.040490
  31 H :    0.046007
  32 H :    0.054102
  33 H :    0.052076
Sum of atomic charges:    0.0000000

LOEWDIN ATOMIC CHARGES
----------------------
   0 S :    0.398818
   1 C :   -0.199710
   2 C :   -0.056872
   3 C :   -0.060278
   4 C :   -0.195419
   5 H :    0.024361
   6 C :   -0.017714
   7 H :    0.027443
   8 H :    0.028423
   9 C :   -0.042049
  10 H :    0.021097
  11 H :    0.021242
  12 C :   -0.067877
  13 H :    0.026301
  14 H :    0.029849
  15 H :    0.023204
  16 S :    0.436728
  17 C :   -0.204120
  18 C :   -0.074760
  19 C :   -0.053431
  20 C :   -0.198341
  21 H :    0.034524
  22 C :   -0.035423
  23 H :    0.024870
  24 H :    0.035390
  25 C :   -0.037637
  26 H :    0.013691
  27 H :    0.024549
  28 C :   -0.062622
  29 H :    0.023170
  30 H :    0.026643
  31 H :    0.030994
  32 H :    0.029819
  33 H :    0.025136

  Mayer bond orders larger than 0.100000
B(  0-S ,  1-C ) :   1.1381 B(  0-S ,  4-C ) :   1.1285 B(  1-C ,  2-C ) :   1.6308
B(  1-C , 32-H ) :   0.9610 B(  2-C ,  3-C ) :   1.2179 B(  2-C ,  6-C ) :   1.0361
B(  3-C ,  4-C ) :   1.6103 B(  3-C ,  5-H ) :   0.9968 B(  4-C , 20-C ) :   1.0513
B(  6-C ,  7-H ) :   0.9274 B(  6-C ,  8-H ) :   0.9312 B(  6-C ,  9-C ) :   1.0684
B(  9-C , 10-H ) :   0.9526 B(  9-C , 11-H ) :   0.9623 B(  9-C , 12-C ) :   1.0796
B( 12-C , 13-H ) :   0.9830 B( 12-C , 14-H ) :   0.9742 B( 12-C , 15-H ) :   0.9730
B( 16-S , 17-C ) :   1.1842 B( 16-S , 20-C ) :   1.1472 B( 17-C , 18-C ) :   1.5896
B( 17-C , 33-H ) :   0.9681 B( 18-C , 19-C ) :   1.2407 B( 18-C , 21-H ) :   0.9904
B( 19-C , 20-C ) :   1.5757 B( 19-C , 22-C ) :   1.0593 B( 22-C , 23-H ) :   0.9314
B( 22-C , 24-H ) :   0.9389 B( 22-C , 25-C ) :   1.0507 B( 25-C , 26-H ) :   0.9533
B( 25-C , 27-H ) :   0.9574 B( 25-C , 28-C ) :   1.0656 B( 28-C , 29-H ) :   0.9748
B( 28-C , 30-H ) :   0.9752 B( 28-C , 31-H ) :   0.9775

Dispersion correction           -0.014033230
FINAL SINGLE POINT ENERGY     -1339.874864515264

DIPOLE MOMENT
-------------
                                X             Y             Z
Electronic contribution:     13.50876     -12.94081     -27.09787
Nuclear contribution   :    -13.72501      13.36060      27.66518
                        -----------------------------------------
Total Dipole Moment    :     -0.21625       0.41979       0.56730
                        -----------------------------------------
Magnitude (a.u.)       :      0.73812
Magnitude (Debye)      :      1.87615

Rotational constants in cm-1:     0.016960     0.009774     0.006561
Rotational constants in MHz :   508.453129   293.005724   196.682194

                             ****ORCA TERMINATED NORMALLY****
TOTAL RUN TIME: 0 days 0 hours 0 minutes 33 seconds 837 msec
