                         Program Version 4.2.1 -  RELEASE  -
|  1> ! wB97X-D3 SP def2-SVP
|  2> %pal
|  3> nprocs 16
|  4> end
|  5>
|  6> * xyz 0 1
|  7> S 	 22.1913 	 1.82391 	 76.4221
|  8> C 	 23.0321 	 1.81146 	 77.9866
|  9> C 	 22.1192 	 1.86255 	 79.0551
| 10> C 	 20.7662 	 1.84082 	 78.6479
| 11> C 	 20.6179 	 1.80255 	 77.2588
| 12> H 	 19.9523 	 1.81465 	 79.2911
| 13> C 	 22.5614 	 1.99159 	 80.5068
| 14> H 	 22.2357 	 1.04215 	 81.0511
| 15> H 	 22.0446 	 2.80218 	 81.0322
| 16> C 	 24.0986 	 2.31931 	 80.7163
| 17> H 	 24.7423 	 1.59409 	 80.237
| 18> H 	 24.2363 	 3.31098 	 80.2366
| 19> C 	 24.593 	 2.57797 	 82.2112
| 20> H 	 23.977 	 3.43375 	 82.6584
| 21> H 	 24.3525 	 1.73956 	 82.8565
| 22> H 	 25.6662 	 2.90125 	 82.3212
| 23> S 	 19.0916 	 0.639997 	 75.2198
| 24> C 	 17.3861 	 1.0665 	 75.0444
| 25> C 	 16.9333 	 1.93777 	 76.0661
| 26> C 	 18.044 	 2.31631 	 76.9302
| 27> C 	 19.268 	 1.75413 	 76.5379
| 28> H 	 15.9241 	 2.21974 	 75.9717
| 29> C 	 17.8456 	 3.42401 	 77.9395
| 30> H 	 18.5884 	 4.2494 	 77.8351
| 31> H 	 18.1016 	 2.99921 	 78.8738
| 32> C 	 16.4949 	 3.96947 	 78.2307
| 33> H 	 15.9084 	 3.16096 	 78.5759
| 34> H 	 16.0372 	 4.39735 	 77.3364
| 35> C 	 16.4105 	 5.09114 	 79.2998
| 36> H 	 16.8467 	 4.77517 	 80.2399
| 37> H 	 15.3506 	 5.34664 	 79.4611
| 38> H 	 17.0215 	 5.92734 	 79.0048
| 39> H 	 24.0704 	 1.78601 	 78.1045
| 40> H 	 16.8171 	 0.674193 	 74.2121
| 41> *
| 42>
| 43>                          ****END OF INPUT****

CARTESIAN COORDINATES (ANGSTROEM)
---------------------------------
  S     22.191300    1.823910   76.422100
  C     23.032100    1.811460   77.986600
  C     22.119200    1.862550   79.055100
  C     20.766200    1.840820   78.647900
  C     20.617900    1.802550   77.258800
  H     19.952300    1.814650   79.291100
  C     22.561400    1.991590   80.506800
  H     22.235700    1.042150   81.051100
  H     22.044600    2.802180   81.032200
  C     24.098600    2.319310   80.716300
  H     24.742300    1.594090   80.237000
  H     24.236300    3.310980   80.236600
  C     24.593000    2.577970   82.211200
  H     23.977000    3.433750   82.658400
  H     24.352500    1.739560   82.856500
  H     25.666200    2.901250   82.321200
  S     19.091600    0.639997   75.219800
  C     17.386100    1.066500   75.044400
  C     16.933300    1.937770   76.066100
  C     18.044000    2.316310   76.930200
  C     19.268000    1.754130   76.537900
  H     15.924100    2.219740   75.971700
  C     17.845600    3.424010   77.939500
  H     18.588400    4.249400   77.835100
  H     18.101600    2.999210   78.873800
  C     16.494900    3.969470   78.230700
  H     15.908400    3.160960   78.575900
  H     16.037200    4.397350   77.336400
  C     16.410500    5.091140   79.299800
  H     16.846700    4.775170   80.239900
  H     15.350600    5.346640   79.461100
  H     17.021500    5.927340   79.004800
  H     24.070400    1.786010   78.104500
  H     16.817100    0.674193   74.212100

 Total Charge           Charge          ....    0
 Multiplicity           Mult            ....    1
 Number of Electrons    NEL             ....  134
 Basis Dimension        Dim             ....  322

ORBITAL ENERGIES
----------------

  NO   OCC          E(Eh)            E(eV)
   0   2.0000     -88.970735     -2421.0168
   1   2.0000     -88.967090     -2420.9176
   2   2.0000     -10.339845      -281.3615
   3   2.0000     -10.332614      -281.1647
   4   2.0000     -10.321400      -280.8596
   5   2.0000     -10.314443      -280.6703
   6   2.0000     -10.311776      -280.5977
   7   2.0000     -10.305250      -280.4201
   8   2.0000     -10.304777      -280.4072
   9   2.0000     -10.299982      -280.2768
  10   2.0000     -10.298707      -280.2421
  11   2.0000     -10.293553      -280.1018
  12   2.0000     -10.291985      -280.0591
  13   2.0000     -10.286320      -279.9050
  14   2.0000     -10.281574      -279.7759
  15   2.0000     -10.280700      -279.7521
  16   2.0000      -8.084155      -219.9810
  17   2.0000      -8.081758      -219.9158
  18   2.0000      -6.042780      -164.4324
  19   2.0000      -6.040128      -164.3602
  20   2.0000      -6.038893      -164.3266
  21   2.0000      -6.036237      -164.2544
  22   2.0000      -6.034830      -164.2161
  23   2.0000      -6.032728      -164.1589
  24   2.0000      -0.997792       -27.1513
  25   2.0000      -0.977958       -26.6116
  26   2.0000      -0.916766       -24.9465
  27   2.0000      -0.899319       -24.4717
  28   2.0000      -0.857242       -23.3267
  29   2.0000      -0.852622       -23.2010
  30   2.0000      -0.845746       -23.0139
  31   2.0000      -0.812797       -22.1173
  32   2.0000      -0.782108       -21.2822
  33   2.0000      -0.768383       -20.9088
  34   2.0000      -0.710607       -19.3366
  35   2.0000      -0.705277       -19.1916
  36   2.0000      -0.686068       -18.6689
  37   2.0000      -0.655960       -17.8496
  38   2.0000      -0.642460       -17.4822
  39   2.0000      -0.617743       -16.8096
  40   2.0000      -0.598140       -16.2762
  41   2.0000      -0.578214       -15.7340
  42   2.0000      -0.571470       -15.5505
  43   2.0000      -0.560422       -15.2499
  44   2.0000      -0.531022       -14.4498
  45   2.0000      -0.519879       -14.1466
  46   2.0000      -0.517452       -14.0806
  47   2.0000      -0.509714       -13.8700
  48   2.0000      -0.495465       -13.4823
  49   2.0000      -0.493016       -13.4157
  50   2.0000      -0.486366       -13.2347
  51   2.0000      -0.480514       -13.0755
  52   2.0000      -0.476462       -12.9652
  53   2.0000      -0.463336       -12.6080
  54   2.0000      -0.456444       -12.4205
  55   2.0000      -0.451262       -12.2795
  56   2.0000      -0.445565       -12.1244
  57   2.0000      -0.436413       -11.8754
  58   2.0000      -0.430414       -11.7122
  59   2.0000      -0.428182       -11.6514
  60   2.0000      -0.427113       -11.6223
  61   2.0000      -0.419244       -11.4082
  62   2.0000      -0.415710       -11.3120
  63   2.0000      -0.347432        -9.4541
  64   2.0000      -0.333005        -9.0615
  65   2.0000      -0.328565        -8.9407
  66   2.0000      -0.287530        -7.8241
  67   0.0000       0.024270         0.6604
  68   0.0000       0.074119         2.0169
  69   0.0000       0.106649         2.9021
  70   0.0000       0.118008         3.2112
  71   0.0000       0.134047         3.6476

MULLIKEN ATOMIC CHARGES
-----------------------
   0 S :    0.109311
   1 C :   -0.105407
   2 C :   -0.077926
   3 C :    0.043426
   4 C :   -0.126581
   5 H :   -0.014809
   6 C :    0.037734
   7 H :    0.049138
   8 H :    0.034573
   9 C :   -0.128750
  10 H :    0.044718
  11 H :    0.045418
  12 C :   -0.076239
  13 H :    0.032239
  14 H :    0.035899
  15 H :    0.055402
  16 S :    0.105018
  17 C :   -0.111022
  18 C :   -0.028222
  19 C :   -0.033018
  20 C :   -0.130737
  21 H :    0.014937
  22 C :    0.067908
  23 H :    0.041986
  24 H :   -0.000921
  25 C :   -0.087201
  26 H :    0.020129
  27 H :    0.028271
  28 C :   -0.026072
  29 H :    0.017507
  30 H :    0.044032
  31 H :    0.029104
  32 H :    0.029358
  33 H :    0.060795
Sum of atomic charges:    0.0000000

LOEWDIN ATOMIC CHARGES
----------------------
   0 S :    0.386292
   1 C :   -0.185786
   2 C :   -0.058883
   3 C :   -0.054210
   4 C :   -0.174431
   5 H :    0.020275
   6 C :   -0.036660
   7 H :    0.038794
   8 H :    0.031729
   9 C :   -0.045852
  10 H :    0.018270
  11 H :    0.030751
  12 C :   -0.075950
  13 H :    0.029949
  14 H :    0.020840
  15 H :    0.035527
  16 S :    0.408559
  17 C :   -0.177702
  18 C :   -0.064630
  19 C :   -0.052481
  20 C :   -0.205288
  21 H :    0.028823
  22 C :   -0.041023
  23 H :    0.038251
  24 H :    0.024665
  25 C :   -0.040749
  26 H :    0.019271
  27 H :    0.020785
  28 C :   -0.055313
  29 H :    0.019621
  30 H :    0.033010
  31 H :    0.023035
  32 H :    0.015062
  33 H :    0.025450

  Mayer bond orders larger than 0.100000
B(  0-S ,  1-C ) :   1.1239 B(  0-S ,  4-C ) :   1.1549 B(  1-C ,  2-C ) :   1.6107
B(  1-C , 32-H ) :   0.9669 B(  2-C ,  3-C ) :   1.2608 B(  2-C ,  6-C ) :   1.0152
B(  3-C ,  4-C ) :   1.5594 B(  3-C ,  5-H ) :   1.0063 B(  4-C , 20-C ) :   1.0155
B(  6-C ,  7-H ) :   0.9327 B(  6-C ,  8-H ) :   0.9474 B(  6-C ,  9-C ) :   1.0657
B(  9-C , 10-H ) :   0.9534 B(  9-C , 11-H ) :   0.9587 B(  9-C , 12-C ) :   1.0710
B( 12-C , 13-H ) :   0.9753 B( 12-C , 14-H ) :   0.9781 B( 12-C , 15-H ) :   0.9753
B( 16-S , 17-C ) :   1.1680 B( 16-S , 20-C ) :   1.1512 B( 17-C , 18-C ) :   1.5889
B( 17-C , 33-H ) :   0.9662 B( 18-C , 19-C ) :   1.2304 B( 18-C , 21-H ) :   1.0003
B( 19-C , 20-C ) :   1.5975 B( 19-C , 22-C ) :   1.0266 B( 22-C , 23-H ) :   0.9371
B( 22-C , 24-H ) :   0.9133 B( 22-C , 25-C ) :   1.0972 B( 25-C , 26-H ) :   0.9472
B( 25-C , 27-H ) :   0.9444 B( 25-C , 28-C ) :   1.0885 B( 28-C , 29-H ) :   0.9740
B( 28-C , 30-H ) :   0.9727 B( 28-C , 31-H ) :   0.9750

Dispersion correction           -0.013189608
FINAL SINGLE POINT ENERGY     -1339.871213139790

DIPOLE MOMENT
-------------
                                X             Y             Z
Electronic contribution:      1.05461     -14.23266     -27.35285
Nuclear contribution   :     -1.30889      14.51997      27.96059
                        -----------------------------------------
Total Dipole Moment    :     -0.25428       0.28731       0.60774
                        -----------------------------------------
Magnitude (a.u.)       :      0.71871
Magnitude (Debye)      :      1.82682

Rotational constants in cm-1:     0.018040     0.007556     0.005585
Rotational constants in MHz :   540.815773   226.530171   167.448432

                             ****ORCA TERMINATED NORMALLY****
TOTAL RUN TIME: 0 days 0 hours 0 minutes 32 seconds 388 msec
