                         Program Version 4.2.1 -  RELEASE  -
|  1> ! wB97X-D3 SP def2-SVP
|  2> %pal
|  3> nprocs 16
|  4> end
|  5>
|  6> * xyz 0 1
|  7> S 	 -0.351554 	 -12.1165 	 71.9201
|  8> C 	 -0.47859 	 -13.1355 	 70.5791
|  9> C 	 -1.0606 	 -14.379 	 70.8674
| 10> C 	 -0.94046 	 -14.6214 	 72.2667
| 11> C 	 -0.522484 	 -13.4815 	 72.9765
| 12> H 	 -1.22063 	 -15.5772 	 72.7467
| 13> C 	 -1.55487 	 -15.3295 	 69.847
| 14> H 	 -1.19785 	 -16.3757 	 70.0721
| 15> H 	 -1.13306 	 -15.1629 	 68.8875
| 16> C 	 -3.04632 	 -15.417 	 69.6477
| 17> H 	 -3.55129 	 -15.3751 	 70.6382
| 18> H 	 -3.34152 	 -14.5629 	 68.9845
| 19> C 	 -3.33128 	 -16.7217 	 68.8678
| 20> H 	 -3.18839 	 -17.6484 	 69.4768
| 21> H 	 -4.37633 	 -16.8116 	 68.5165
| 22> H 	 -2.67389 	 -16.6893 	 67.8993
| 23> S 	 -2.07337 	 -13.9797 	 75.2801
| 24> C 	 -1.42361 	 -13.6646 	 76.8587
| 25> C 	 -0.111011 	 -13.2106 	 76.7121
| 26> C 	 0.369075 	 -13.1179 	 75.347
| 27> C 	 -0.647625 	 -13.3665 	 74.4228
| 28> H 	 0.478768 	 -13.1073 	 77.5547
| 29> C 	 1.84271 	 -13.0075 	 74.9821
| 30> H 	 1.99141 	 -12.8588 	 73.8812
| 31> H 	 2.25478 	 -13.9699 	 75.3561
| 32> C 	 2.69376 	 -11.9203 	 75.713
| 33> H 	 2.49673 	 -11.8364 	 76.7871
| 34> H 	 2.38627 	 -11.0024 	 75.1965
| 35> C 	 4.20474 	 -12.0744 	 75.4052
| 36> H 	 4.70939 	 -11.1841 	 75.6607
| 37> H 	 4.57458 	 -12.4933 	 74.4187
| 38> H 	 4.48933 	 -12.8063 	 76.1764
| 39> H 	 -0.583195 	 -12.8165 	 69.5691
| 40> H 	 -2.01427 	 -13.7745 	 77.7673
| 41> *
| 42>
| 43>                          ****END OF INPUT****

CARTESIAN COORDINATES (ANGSTROEM)
---------------------------------
  S     -0.351554  -12.116500   71.920100
  C     -0.478590  -13.135500   70.579100
  C     -1.060600  -14.379000   70.867400
  C     -0.940460  -14.621400   72.266700
  C     -0.522484  -13.481500   72.976500
  H     -1.220630  -15.577200   72.746700
  C     -1.554870  -15.329500   69.847000
  H     -1.197850  -16.375700   70.072100
  H     -1.133060  -15.162900   68.887500
  C     -3.046320  -15.417000   69.647700
  H     -3.551290  -15.375100   70.638200
  H     -3.341520  -14.562900   68.984500
  C     -3.331280  -16.721700   68.867800
  H     -3.188390  -17.648400   69.476800
  H     -4.376330  -16.811600   68.516500
  H     -2.673890  -16.689300   67.899300
  S     -2.073370  -13.979700   75.280100
  C     -1.423610  -13.664600   76.858700
  C     -0.111011  -13.210600   76.712100
  C      0.369075  -13.117900   75.347000
  C     -0.647625  -13.366500   74.422800
  H      0.478768  -13.107300   77.554700
  C      1.842710  -13.007500   74.982100
  H      1.991410  -12.858800   73.881200
  H      2.254780  -13.969900   75.356100
  C      2.693760  -11.920300   75.713000
  H      2.496730  -11.836400   76.787100
  H      2.386270  -11.002400   75.196500
  C      4.204740  -12.074400   75.405200
  H      4.709390  -11.184100   75.660700
  H      4.574580  -12.493300   74.418700
  H      4.489330  -12.806300   76.176400
  H     -0.583195  -12.816500   69.569100
  H     -2.014270  -13.774500   77.767300

 Total Charge           Charge          ....    0
 Multiplicity           Mult            ....    1
 Number of Electrons    NEL             ....  134
 Basis Dimension        Dim             ....  322

ORBITAL ENERGIES
----------------

  NO   OCC          E(Eh)            E(eV)
   0   2.0000     -88.971589     -2421.0400
   1   2.0000     -88.962639     -2420.7965
   2   2.0000     -10.326687      -281.0034
   3   2.0000     -10.324036      -280.9313
   4   2.0000     -10.321675      -280.8670
   5   2.0000     -10.305377      -280.4236
   6   2.0000     -10.305198      -280.4187
   7   2.0000     -10.298702      -280.2419
   8   2.0000     -10.296893      -280.1927
   9   2.0000     -10.296603      -280.1848
  10   2.0000     -10.292456      -280.0720
  11   2.0000     -10.292137      -280.0633
  12   2.0000     -10.291955      -280.0583
  13   2.0000     -10.288556      -279.9659
  14   2.0000     -10.287358      -279.9332
  15   2.0000     -10.279020      -279.7064
  16   2.0000      -8.087042      -220.0596
  17   2.0000      -8.077164      -219.7908
  18   2.0000      -6.045285      -164.5006
  19   2.0000      -6.041614      -164.4007
  20   2.0000      -6.037872      -164.2989
  21   2.0000      -6.035746      -164.2410
  22   2.0000      -6.031574      -164.1275
  23   2.0000      -6.027993      -164.0300
  24   2.0000      -1.008536       -27.4437
  25   2.0000      -0.984213       -26.7818
  26   2.0000      -0.918725       -24.9998
  27   2.0000      -0.902772       -24.5657
  28   2.0000      -0.868887       -23.6436
  29   2.0000      -0.852684       -23.2027
  30   2.0000      -0.845747       -23.0139
  31   2.0000      -0.808801       -22.0086
  32   2.0000      -0.778642       -21.1879
  33   2.0000      -0.766426       -20.8555
  34   2.0000      -0.701483       -19.0883
  35   2.0000      -0.695130       -18.9154
  36   2.0000      -0.690990       -18.8028
  37   2.0000      -0.659857       -17.9556
  38   2.0000      -0.636869       -17.3301
  39   2.0000      -0.620853       -16.8943
  40   2.0000      -0.597222       -16.2512
  41   2.0000      -0.571357       -15.5474
  42   2.0000      -0.567255       -15.4358
  43   2.0000      -0.564121       -15.3505
  44   2.0000      -0.527943       -14.3661
  45   2.0000      -0.524156       -14.2630
  46   2.0000      -0.516327       -14.0500
  47   2.0000      -0.503392       -13.6980
  48   2.0000      -0.498517       -13.5653
  49   2.0000      -0.494903       -13.4670
  50   2.0000      -0.490249       -13.3403
  51   2.0000      -0.475655       -12.9432
  52   2.0000      -0.470252       -12.7962
  53   2.0000      -0.466645       -12.6981
  54   2.0000      -0.458211       -12.4686
  55   2.0000      -0.451498       -12.2859
  56   2.0000      -0.443729       -12.0745
  57   2.0000      -0.435200       -11.8424
  58   2.0000      -0.432616       -11.7721
  59   2.0000      -0.428907       -11.6712
  60   2.0000      -0.418317       -11.3830
  61   2.0000      -0.417883       -11.3712
  62   2.0000      -0.405389       -11.0312
  63   2.0000      -0.340053        -9.2533
  64   2.0000      -0.331061        -9.0086
  65   2.0000      -0.323567        -8.8047
  66   2.0000      -0.292407        -7.9568
  67   0.0000       0.030042         0.8175
  68   0.0000       0.063640         1.7317
  69   0.0000       0.101952         2.7742
  70   0.0000       0.114335         3.1112
  71   0.0000       0.132941         3.6175

MULLIKEN ATOMIC CHARGES
-----------------------
   0 S :    0.142605
   1 C :   -0.078513
   2 C :   -0.101709
   3 C :   -0.000455
   4 C :   -0.158287
   5 H :    0.026629
   6 C :    0.033697
   7 H :    0.027599
   8 H :    0.006046
   9 C :   -0.069045
  10 H :    0.044293
  11 H :    0.037869
  12 C :   -0.100387
  13 H :    0.048350
  14 H :    0.038360
  15 H :    0.043812
  16 S :    0.096149
  17 C :   -0.107143
  18 C :    0.000653
  19 C :   -0.024184
  20 C :   -0.145721
  21 H :   -0.008698
  22 C :    0.032281
  23 H :    0.047045
  24 H :    0.040291
  25 C :   -0.100364
  26 H :    0.039640
  27 H :    0.030600
  28 C :   -0.054452
  29 H :    0.030047
  30 H :    0.051635
  31 H :    0.024730
  32 H :    0.034328
  33 H :    0.072300
Sum of atomic charges:   -0.0000000

LOEWDIN ATOMIC CHARGES
----------------------
   0 S :    0.451834
   1 C :   -0.219279
   2 C :   -0.058667
   3 C :   -0.061846
   4 C :   -0.206106
   5 H :    0.034275
   6 C :   -0.042550
   7 H :    0.034890
   8 H :    0.024160
   9 C :   -0.042810
  10 H :    0.028254
  11 H :    0.029995
  12 C :   -0.078080
  13 H :    0.029132
  14 H :    0.025098
  15 H :    0.036049
  16 S :    0.401382
  17 C :   -0.185239
  18 C :   -0.068845
  19 C :   -0.050324
  20 C :   -0.204627
  21 H :    0.014667
  22 C :   -0.033542
  23 H :    0.035084
  24 H :    0.036479
  25 C :   -0.041942
  26 H :    0.023760
  27 H :    0.022388
  28 C :   -0.071361
  29 H :    0.020135
  30 H :    0.035819
  31 H :    0.026834
  32 H :    0.019823
  33 H :    0.035158

  Mayer bond orders larger than 0.100000
B(  0-S ,  1-C ) :   1.1675 B(  0-S ,  4-C ) :   1.1708 B(  1-C ,  2-C ) :   1.5789
B(  1-C , 32-H ) :   0.9607 B(  2-C ,  3-C ) :   1.2741 B(  2-C ,  6-C ) :   1.0393
B(  3-C ,  4-C ) :   1.5197 B(  3-C ,  5-H ) :   0.9933 B(  4-C , 20-C ) :   1.0519
B(  6-C ,  7-H ) :   0.9480 B(  6-C ,  8-H ) :   0.9333 B(  6-C ,  9-C ) :   1.0507
B(  9-C , 10-H ) :   0.9590 B(  9-C , 11-H ) :   0.9516 B(  9-C , 12-C ) :   1.0758
B( 12-C , 13-H ) :   0.9741 B( 12-C , 14-H ) :   0.9742 B( 12-C , 15-H ) :   0.9693
B( 16-S , 17-C ) :   1.1703 B( 16-S , 20-C ) :   1.1293 B( 17-C , 18-C ) :   1.5797
B( 17-C , 33-H ) :   0.9698 B( 18-C , 19-C ) :   1.2499 B( 18-C , 21-H ) :   1.0014
B( 19-C , 20-C ) :   1.5664 B( 19-C , 22-C ) :   1.0435 B( 22-C , 23-H ) :   0.9342
B( 22-C , 24-H ) :   0.9365 B( 22-C , 25-C ) :   1.0513 B( 25-C , 26-H ) :   0.9600
B( 25-C , 27-H ) :   0.9603 B( 25-C , 28-C ) :   1.0672 B( 28-C , 29-H ) :   0.9748
B( 28-C , 30-H ) :   0.9757 B( 28-C , 31-H ) :   0.9767

Dispersion correction           -0.013504233
FINAL SINGLE POINT ENERGY     -1339.865234216455

DIPOLE MOMENT
-------------
                                X             Y             Z
Electronic contribution:     -8.53078       7.74053       8.45241
Nuclear contribution   :      8.61675      -8.00411      -8.47223
                        -----------------------------------------
Total Dipole Moment    :      0.08598      -0.26358      -0.01983
                        -----------------------------------------
Magnitude (a.u.)       :      0.27796
Magnitude (Debye)      :      0.70651

Rotational constants in cm-1:     0.021844     0.007227     0.005945
Rotational constants in MHz :   654.857979   216.663414   178.230424

                             ****ORCA TERMINATED NORMALLY****
TOTAL RUN TIME: 0 days 0 hours 0 minutes 31 seconds 158 msec
