                         Program Version 4.2.1 -  RELEASE  -
|  1> ! wB97X-D3 SP def2-SVP
|  2> %pal
|  3> nprocs 16
|  4> end
|  5>
|  6> * xyz 0 1
|  7> S 	 -101.456 	 57.3105 	 120.767
|  8> C 	 -100.479 	 58.7513 	 120.583
|  9> C 	 -101.372 	 59.7783 	 120.364
| 10> C 	 -102.714 	 59.4145 	 120.174
| 11> C 	 -102.98 	 58.135 	 120.548
| 12> H 	 -103.545 	 60.048 	 119.988
| 13> C 	 -100.984 	 61.2553 	 120.17
| 14> H 	 -100.132 	 61.5586 	 120.769
| 15> H 	 -101.837 	 61.774 	 120.658
| 16> C 	 -100.99 	 61.75 	 118.735
| 17> H 	 -101.907 	 61.5075 	 118.23
| 18> H 	 -100.924 	 62.8019 	 118.864
| 19> C 	 -99.8578 	 61.2073 	 117.983
| 20> H 	 -99.8592 	 61.559 	 116.962
| 21> H 	 -98.9176 	 61.6089 	 118.426
| 22> H 	 -99.9543 	 60.0959 	 117.979
| 23> S 	 -104.688 	 56.5741 	 118.874
| 24> C 	 -106.398 	 56.5029 	 119.309
| 25> C 	 -106.601 	 56.9002 	 120.634
| 26> C 	 -105.403 	 57.5267 	 121.17
| 27> C 	 -104.275 	 57.4826 	 120.351
| 28> H 	 -107.549 	 56.6916 	 121.101
| 29> C 	 -105.559 	 58.24 	 122.538
| 30> H 	 -104.538 	 58.1965 	 122.816
| 31> H 	 -106.146 	 57.6428 	 123.203
| 32> C 	 -106.13 	 59.653 	 122.563
| 33> H 	 -107.182 	 59.509 	 122.359
| 34> H 	 -105.717 	 60.1153 	 121.69
| 35> C 	 -105.686 	 60.3993 	 123.834
| 36> H 	 -105.855 	 59.8373 	 124.723
| 37> H 	 -106.326 	 61.3574 	 123.905
| 38> H 	 -104.684 	 60.604 	 123.834
| 39> H 	 -99.3921 	 58.9065 	 120.651
| 40> H 	 -107.21 	 56.1348 	 118.707
| 41> *
| 42>
| 43>                          ****END OF INPUT****

CARTESIAN COORDINATES (ANGSTROEM)
---------------------------------
  S    -101.456000   57.310500  120.767000
  C    -100.479000   58.751300  120.583000
  C    -101.372000   59.778300  120.364000
  C    -102.714000   59.414500  120.174000
  C    -102.980000   58.135000  120.548000
  H    -103.545000   60.048000  119.988000
  C    -100.984000   61.255300  120.170000
  H    -100.132000   61.558600  120.769000
  H    -101.837000   61.774000  120.658000
  C    -100.990000   61.750000  118.735000
  H    -101.907000   61.507500  118.230000
  H    -100.924000   62.801900  118.864000
  C    -99.857800   61.207300  117.983000
  H    -99.859200   61.559000  116.962000
  H    -98.917600   61.608900  118.426000
  H    -99.954300   60.095900  117.979000
  S    -104.688000   56.574100  118.874000
  C    -106.398000   56.502900  119.309000
  C    -106.601000   56.900200  120.634000
  C    -105.403000   57.526700  121.170000
  C    -104.275000   57.482600  120.351000
  H    -107.549000   56.691600  121.101000
  C    -105.559000   58.240000  122.538000
  H    -104.538000   58.196500  122.816000
  H    -106.146000   57.642800  123.203000
  C    -106.130000   59.653000  122.563000
  H    -107.182000   59.509000  122.359000
  H    -105.717000   60.115300  121.690000
  C    -105.686000   60.399300  123.834000
  H    -105.855000   59.837300  124.723000
  H    -106.326000   61.357400  123.905000
  H    -104.684000   60.604000  123.834000
  H    -99.392100   58.906500  120.651000
  H    -107.210000   56.134800  118.707000

 Total Charge           Charge          ....    0
 Multiplicity           Mult            ....    1
 Number of Electrons    NEL             ....  134
 Basis Dimension        Dim             ....  322

ORBITAL ENERGIES
----------------

  NO   OCC          E(Eh)            E(eV)
   0   2.0000     -88.966762     -2420.9087
   1   2.0000     -88.965427     -2420.8723
   2   2.0000     -10.330905      -281.1182
   3   2.0000     -10.328450      -281.0514
   4   2.0000     -10.321813      -280.8708
   5   2.0000     -10.319036      -280.7952
   6   2.0000     -10.307696      -280.4867
   7   2.0000     -10.297985      -280.2224
   8   2.0000     -10.296132      -280.1720
   9   2.0000     -10.288906      -279.9754
  10   2.0000     -10.288410      -279.9619
  11   2.0000     -10.281684      -279.7789
  12   2.0000     -10.280391      -279.7437
  13   2.0000     -10.276882      -279.6482
  14   2.0000     -10.275179      -279.6018
  15   2.0000     -10.272635      -279.5326
  16   2.0000      -8.080574      -219.8836
  17   2.0000      -8.080089      -219.8704
  18   2.0000      -6.039259      -164.3366
  19   2.0000      -6.038665      -164.3204
  20   2.0000      -6.035245      -164.2274
  21   2.0000      -6.034450      -164.2057
  22   2.0000      -6.031149      -164.1159
  23   2.0000      -6.030887      -164.1088
  24   2.0000      -1.008856       -27.4524
  25   2.0000      -0.981632       -26.7116
  26   2.0000      -0.919800       -25.0290
  27   2.0000      -0.908553       -24.7230
  28   2.0000      -0.872518       -23.7424
  29   2.0000      -0.850094       -23.1322
  30   2.0000      -0.844988       -22.9933
  31   2.0000      -0.816634       -22.2217
  32   2.0000      -0.781535       -21.2666
  33   2.0000      -0.772932       -21.0326
  34   2.0000      -0.710641       -19.3375
  35   2.0000      -0.699125       -19.0242
  36   2.0000      -0.691073       -18.8051
  37   2.0000      -0.659838       -17.9551
  38   2.0000      -0.644747       -17.5445
  39   2.0000      -0.622566       -16.9409
  40   2.0000      -0.587448       -15.9853
  41   2.0000      -0.578735       -15.7482
  42   2.0000      -0.569717       -15.5028
  43   2.0000      -0.552982       -15.0474
  44   2.0000      -0.544207       -14.8086
  45   2.0000      -0.527359       -14.3502
  46   2.0000      -0.522093       -14.2069
  47   2.0000      -0.514595       -14.0028
  48   2.0000      -0.509289       -13.8585
  49   2.0000      -0.497086       -13.5264
  50   2.0000      -0.490847       -13.3566
  51   2.0000      -0.484672       -13.1886
  52   2.0000      -0.475570       -12.9409
  53   2.0000      -0.472543       -12.8586
  54   2.0000      -0.459998       -12.5172
  55   2.0000      -0.442176       -12.0322
  56   2.0000      -0.437773       -11.9124
  57   2.0000      -0.433251       -11.7894
  58   2.0000      -0.431266       -11.7353
  59   2.0000      -0.425882       -11.5888
  60   2.0000      -0.420988       -11.4557
  61   2.0000      -0.407946       -11.1008
  62   2.0000      -0.403756       -10.9868
  63   2.0000      -0.340574        -9.2675
  64   2.0000      -0.326015        -8.8713
  65   2.0000      -0.323081        -8.7915
  66   2.0000      -0.310142        -8.4394
  67   0.0000       0.040306         1.0968
  68   0.0000       0.048689         1.3249
  69   0.0000       0.112907         3.0724
  70   0.0000       0.119411         3.2493
  71   0.0000       0.134401         3.6573

MULLIKEN ATOMIC CHARGES
-----------------------
   0 S :    0.101847
   1 C :   -0.108749
   2 C :   -0.102330
   3 C :    0.034812
   4 C :   -0.166862
   5 H :    0.011821
   6 C :    0.032301
   7 H :    0.021534
   8 H :    0.022021
   9 C :   -0.025591
  10 H :    0.022906
  11 H :    0.019716
  12 C :   -0.046549
  13 H :    0.027835
  14 H :    0.022799
  15 H :    0.047422
  16 S :    0.114053
  17 C :   -0.100585
  18 C :   -0.025080
  19 C :   -0.066223
  20 C :   -0.150944
  21 H :    0.024513
  22 C :    0.062960
  23 H :    0.015204
  24 H :    0.016236
  25 C :   -0.028094
  26 H :    0.023120
  27 H :    0.013646
  28 C :   -0.021823
  29 H :    0.022769
  30 H :    0.045086
  31 H :    0.022085
  32 H :    0.060648
  33 H :    0.057497
Sum of atomic charges:   -0.0000000

LOEWDIN ATOMIC CHARGES
----------------------
   0 S :    0.408736
   1 C :   -0.200859
   2 C :   -0.071048
   3 C :   -0.055107
   4 C :   -0.199299
   5 H :    0.029142
   6 C :   -0.032156
   7 H :    0.025647
   8 H :    0.033064
   9 C :   -0.040091
  10 H :    0.022956
  11 H :    0.021308
  12 C :   -0.067079
  13 H :    0.022732
  14 H :    0.026322
  15 H :    0.032224
  16 S :    0.387988
  17 C :   -0.172930
  18 C :   -0.074147
  19 C :   -0.043805
  20 C :   -0.203651
  21 H :    0.031922
  22 C :   -0.028084
  23 H :    0.022562
  24 H :    0.023951
  25 C :   -0.035174
  26 H :    0.022653
  27 H :    0.019198
  28 C :   -0.053239
  29 H :    0.021183
  30 H :    0.038353
  31 H :    0.015908
  32 H :    0.041855
  33 H :    0.028965

  Mayer bond orders larger than 0.100000
B(  0-S ,  1-C ) :   1.1371 B(  0-S ,  4-C ) :   1.1480 B(  1-C ,  2-C ) :   1.5909
B(  1-C , 32-H ) :   0.9708 B(  2-C ,  3-C ) :   1.2491 B(  2-C ,  6-C ) :   1.0203
B(  3-C ,  4-C ) :   1.5795 B(  3-C ,  5-H ) :   0.9930 B(  4-C , 20-C ) :   1.0293
B(  6-C ,  7-H ) :   0.9476 B(  6-C ,  8-H ) :   0.9374 B(  6-C ,  9-C ) :   1.0736
B(  9-C , 10-H ) :   0.9503 B(  9-C , 11-H ) :   0.9485 B(  9-C , 12-C ) :   1.0926
B( 12-C , 13-H ) :   0.9693 B( 12-C , 14-H ) :   0.9714 B( 12-C , 15-H ) :   0.9718
B( 16-S , 17-C ) :   1.1599 B( 16-S , 20-C ) :   1.1106 B( 17-C , 18-C ) :   1.6220
B( 17-C , 33-H ) :   0.9659 B( 18-C , 19-C ) :   1.2181 B( 18-C , 21-H ) :   0.9917
B( 19-C , 20-C ) :   1.6259 B( 19-C , 22-C ) :   1.0353 B( 22-C , 23-H ) :   0.9320
B( 22-C , 24-H ) :   0.9367 B( 22-C , 25-C ) :   1.0609 B( 25-C , 26-H ) :   0.9541
B( 25-C , 27-H ) :   0.9542 B( 25-C , 28-C ) :   1.0759 B( 28-C , 29-H ) :   0.9757
B( 28-C , 30-H ) :   0.9741 B( 28-C , 31-H ) :   0.9750

Dispersion correction           -0.014623776
FINAL SINGLE POINT ENERGY     -1339.856924027911

DIPOLE MOMENT
-------------
                                X             Y             Z
Electronic contribution:      0.10491     -23.19021      -6.34877
Nuclear contribution   :     -0.36983      23.80524       6.49364
                        -----------------------------------------
Total Dipole Moment    :     -0.26492       0.61504       0.14487
                        -----------------------------------------
Magnitude (a.u.)       :      0.68516
Magnitude (Debye)      :      1.74153

Rotational constants in cm-1:     0.017749     0.008782     0.007245
Rotational constants in MHz :   532.087010   263.291660   217.210777

                             ****ORCA TERMINATED NORMALLY****
TOTAL RUN TIME: 0 days 0 hours 0 minutes 35 seconds 945 msec
