                         Program Version 4.2.1 -  RELEASE  -
|  1> ! wB97X-D3 SP def2-SVP
|  2> %pal
|  3> nprocs 16
|  4> end
|  5>
|  6> * xyz 0 1
|  7> S 	 -5.13519 	 19.2595 	 51.828
|  8> C 	 -3.5291 	 18.549 	 51.8156
|  9> C 	 -2.82036 	 18.7787 	 52.9935
| 10> C 	 -3.50749 	 19.6143 	 53.9139
| 11> C 	 -4.74586 	 19.9595 	 53.4501
| 12> H 	 -3.24174 	 19.8568 	 54.9762
| 13> C 	 -1.41416 	 18.3165 	 53.234
| 14> H 	 -1.44415 	 17.3909 	 52.6801
| 15> H 	 -1.25123 	 18.3096 	 54.3163
| 16> C 	 -0.394863 	 19.369 	 52.7008
| 17> H 	 -0.841892 	 19.6841 	 51.7742
| 18> H 	 -0.538846 	 20.2593 	 53.3312
| 19> C 	 0.989712 	 18.8091 	 52.4693
| 20> H 	 1.447 	 18.5729 	 53.3725
| 21> H 	 0.894952 	 17.9601 	 51.769
| 22> H 	 1.70302 	 19.5571 	 52.0831
| 23> S 	 -6.41809 	 19.8359 	 55.6305
| 24> C 	 -7.15198 	 21.3373 	 56.2623
| 25> C 	 -6.93622 	 22.4443 	 55.424
| 26> C 	 -6.07313 	 22.0278 	 54.3166
| 27> C 	 -5.72649 	 20.6546 	 54.2632
| 28> H 	 -7.45582 	 23.4384 	 55.5202
| 29> C 	 -5.63506 	 23.0889 	 53.3561
| 30> H 	 -6.53921 	 23.6395 	 53.0074
| 31> H 	 -5.17047 	 22.5291 	 52.4452
| 32> C 	 -4.61878 	 24.0971 	 53.8357
| 33> H 	 -4.99421 	 24.6269 	 54.719
| 34> H 	 -4.54734 	 24.884 	 53.1007
| 35> C 	 -3.20746 	 23.4326 	 54.0236
| 36> H 	 -2.51117 	 24.2673 	 54.1032
| 37> H 	 -2.90786 	 22.8355 	 53.1425
| 38> H 	 -3.20056 	 22.8229 	 54.9275
| 39> H 	 -3.10741 	 17.9283 	 51.0612
| 40> H 	 -7.74657 	 21.2099 	 57.1435
| 41> *
| 42>
| 43>                          ****END OF INPUT****

CARTESIAN COORDINATES (ANGSTROEM)
---------------------------------
  S     -5.135190   19.259500   51.828000
  C     -3.529100   18.549000   51.815600
  C     -2.820360   18.778700   52.993500
  C     -3.507490   19.614300   53.913900
  C     -4.745860   19.959500   53.450100
  H     -3.241740   19.856800   54.976200
  C     -1.414160   18.316500   53.234000
  H     -1.444150   17.390900   52.680100
  H     -1.251230   18.309600   54.316300
  C     -0.394863   19.369000   52.700800
  H     -0.841892   19.684100   51.774200
  H     -0.538846   20.259300   53.331200
  C      0.989712   18.809100   52.469300
  H      1.447000   18.572900   53.372500
  H      0.894952   17.960100   51.769000
  H      1.703020   19.557100   52.083100
  S     -6.418090   19.835900   55.630500
  C     -7.151980   21.337300   56.262300
  C     -6.936220   22.444300   55.424000
  C     -6.073130   22.027800   54.316600
  C     -5.726490   20.654600   54.263200
  H     -7.455820   23.438400   55.520200
  C     -5.635060   23.088900   53.356100
  H     -6.539210   23.639500   53.007400
  H     -5.170470   22.529100   52.445200
  C     -4.618780   24.097100   53.835700
  H     -4.994210   24.626900   54.719000
  H     -4.547340   24.884000   53.100700
  C     -3.207460   23.432600   54.023600
  H     -2.511170   24.267300   54.103200
  H     -2.907860   22.835500   53.142500
  H     -3.200560   22.822900   54.927500
  H     -3.107410   17.928300   51.061200
  H     -7.746570   21.209900   57.143500

 Total Charge           Charge          ....    0
 Multiplicity           Mult            ....    1
 Number of Electrons    NEL             ....  134
 Basis Dimension        Dim             ....  322

ORBITAL ENERGIES
----------------

  NO   OCC          E(Eh)            E(eV)
   0   2.0000     -88.970769     -2421.0177
   1   2.0000     -88.963879     -2420.8302
   2   2.0000     -10.329935      -281.0918
   3   2.0000     -10.325436      -280.9694
   4   2.0000     -10.324717      -280.9498
   5   2.0000     -10.313418      -280.6424
   6   2.0000     -10.307711      -280.4871
   7   2.0000     -10.306235      -280.4469
   8   2.0000     -10.298025      -280.2235
   9   2.0000     -10.296826      -280.1909
  10   2.0000     -10.290364      -280.0150
  11   2.0000     -10.288874      -279.9745
  12   2.0000     -10.283647      -279.8322
  13   2.0000     -10.283176      -279.8194
  14   2.0000     -10.277337      -279.6606
  15   2.0000     -10.276059      -279.6258
  16   2.0000      -8.084091      -219.9793
  17   2.0000      -8.078436      -219.8254
  18   2.0000      -6.042607      -164.4277
  19   2.0000      -6.038950      -164.3282
  20   2.0000      -6.036890      -164.2721
  21   2.0000      -6.034770      -164.2144
  22   2.0000      -6.032904      -164.1637
  23   2.0000      -6.029324      -164.0663
  24   2.0000      -1.000660       -27.2293
  25   2.0000      -0.977288       -26.5934
  26   2.0000      -0.913259       -24.8510
  27   2.0000      -0.904899       -24.6235
  28   2.0000      -0.868668       -23.6377
  29   2.0000      -0.852096       -23.1867
  30   2.0000      -0.839278       -22.8379
  31   2.0000      -0.814088       -22.1525
  32   2.0000      -0.778041       -21.1716
  33   2.0000      -0.764901       -20.8140
  34   2.0000      -0.706581       -19.2271
  35   2.0000      -0.700712       -19.0674
  36   2.0000      -0.691118       -18.8063
  37   2.0000      -0.659280       -17.9399
  38   2.0000      -0.638709       -17.3801
  39   2.0000      -0.611848       -16.6492
  40   2.0000      -0.590768       -16.0756
  41   2.0000      -0.576512       -15.6877
  42   2.0000      -0.557308       -15.1651
  43   2.0000      -0.549796       -14.9607
  44   2.0000      -0.537849       -14.6356
  45   2.0000      -0.522822       -14.2267
  46   2.0000      -0.512218       -13.9382
  47   2.0000      -0.510600       -13.8941
  48   2.0000      -0.507369       -13.8062
  49   2.0000      -0.499689       -13.5972
  50   2.0000      -0.490015       -13.3340
  51   2.0000      -0.475863       -12.9489
  52   2.0000      -0.467074       -12.7097
  53   2.0000      -0.460073       -12.5192
  54   2.0000      -0.457152       -12.4397
  55   2.0000      -0.448123       -12.1940
  56   2.0000      -0.446216       -12.1421
  57   2.0000      -0.434808       -11.8317
  58   2.0000      -0.428265       -11.6537
  59   2.0000      -0.426257       -11.5990
  60   2.0000      -0.415781       -11.3140
  61   2.0000      -0.414423       -11.2770
  62   2.0000      -0.409193       -11.1347
  63   2.0000      -0.340815        -9.2741
  64   2.0000      -0.331168        -9.0115
  65   2.0000      -0.318172        -8.6579
  66   2.0000      -0.301130        -8.1942
  67   0.0000       0.039604         1.0777
  68   0.0000       0.050857         1.3839
  69   0.0000       0.101272         2.7557
  70   0.0000       0.113361         3.0847
  71   0.0000       0.120078         3.2675

MULLIKEN ATOMIC CHARGES
-----------------------
   0 S :    0.120207
   1 C :   -0.102863
   2 C :   -0.126553
   3 C :    0.028595
   4 C :   -0.176822
   5 H :    0.043301
   6 C :    0.079550
   7 H :    0.022613
   8 H :    0.026179
   9 C :   -0.075272
  10 H :    0.011667
  11 H :    0.023318
  12 C :    0.004914
  13 H :    0.014678
  14 H :    0.038319
  15 H :    0.033751
  16 S :    0.095575
  17 C :   -0.107453
  18 C :   -0.019324
  19 C :   -0.047839
  20 C :   -0.152187
  21 H :    0.053914
  22 C :    0.003839
  23 H :    0.033287
  24 H :    0.034135
  25 C :   -0.054628
  26 H :    0.021936
  27 H :    0.021331
  28 C :   -0.056466
  29 H :    0.030034
  30 H :    0.042369
  31 H :    0.043664
  32 H :    0.031888
  33 H :    0.060343
Sum of atomic charges:    0.0000000

LOEWDIN ATOMIC CHARGES
----------------------
   0 S :    0.385329
   1 C :   -0.197159
   2 C :   -0.061705
   3 C :   -0.058828
   4 C :   -0.180805
   5 H :    0.045131
   6 C :   -0.028266
   7 H :    0.029097
   8 H :    0.031437
   9 C :   -0.041281
  10 H :    0.017411
  11 H :    0.025318
  12 C :   -0.060785
  13 H :    0.016177
  14 H :    0.032113
  15 H :    0.031932
  16 S :    0.399147
  17 C :   -0.164541
  18 C :   -0.075310
  19 C :   -0.052890
  20 C :   -0.219190
  21 H :    0.046887
  22 C :   -0.047596
  23 H :    0.033367
  24 H :    0.034971
  25 C :   -0.040705
  26 H :    0.021391
  27 H :    0.021354
  28 C :   -0.062773
  29 H :    0.024395
  30 H :    0.029189
  31 H :    0.025268
  32 H :    0.021415
  33 H :    0.020503

  Mayer bond orders larger than 0.100000
B(  0-S ,  1-C ) :   1.1272 B(  0-S ,  4-C ) :   1.1301 B(  1-C ,  2-C ) :   1.6280
B(  1-C , 32-H ) :   0.9654 B(  2-C ,  3-C ) :   1.2184 B(  2-C ,  6-C ) :   1.0287
B(  3-C ,  4-C ) :   1.6142 B(  3-C ,  5-H ) :   0.9806 B(  4-C , 20-C ) :   1.0190
B(  6-C ,  7-H ) :   0.9363 B(  6-C ,  8-H ) :   0.9366 B(  6-C ,  9-C ) :   1.0588
B(  9-C , 10-H ) :   0.9586 B(  9-C , 11-H ) :   0.9519 B(  9-C , 12-C ) :   1.0772
B( 12-C , 13-H ) :   0.9720 B( 12-C , 14-H ) :   0.9741 B( 12-C , 15-H ) :   0.9705
B( 16-S , 17-C ) :   1.1730 B( 16-S , 20-C ) :   1.1301 B( 17-C , 18-C ) :   1.5757
B( 17-C , 33-H ) :   0.9718 B( 18-C , 19-C ) :   1.2343 B( 18-C , 21-H ) :   0.9808
B( 19-C , 20-C ) :   1.5900 B( 19-C , 22-C ) :   1.0534 B( 22-C , 23-H ) :   0.9313
B( 22-C , 24-H ) :   0.9346 B( 22-C , 25-C ) :   1.0867 B( 25-C , 26-H ) :   0.9513
B( 25-C , 27-H ) :   0.9535 B( 25-C , 28-C ) :   1.0642 B( 28-C , 29-H ) :   0.9754
B( 28-C , 30-H ) :   0.9743 B( 28-C , 31-H ) :   0.9781

Dispersion correction           -0.015447196
FINAL SINGLE POINT ENERGY     -1339.873395780481

DIPOLE MOMENT
-------------
                                X             Y             Z
Electronic contribution:    -24.26169     -10.42502       3.18117
Nuclear contribution   :     24.65122      10.72760      -3.05841
                        -----------------------------------------
Total Dipole Moment    :      0.38953       0.30259       0.12276
                        -----------------------------------------
Magnitude (a.u.)       :      0.50829
Magnitude (Debye)      :      1.29198

Rotational constants in cm-1:     0.020285     0.008381     0.007317
Rotational constants in MHz :   608.143985   251.249028   219.358790

                             ****ORCA TERMINATED NORMALLY****
TOTAL RUN TIME: 0 days 0 hours 0 minutes 36 seconds 80 msec
