                         Program Version 4.2.1 -  RELEASE  -
|  1> ! wB97X-D3 SP def2-SVP
|  2> %pal
|  3> nprocs 16
|  4> end
|  5>
|  6> * xyz 0 1
|  7> S 	 15.9532 	 2.62823 	 85.7254
|  8> C 	 15.2028 	 3.5771 	 84.5017
|  9> C 	 14.9596 	 4.86657 	 84.989
| 10> C 	 15.2468 	 4.98683 	 86.3874
| 11> C 	 15.7415 	 3.86661 	 86.964
| 12> H 	 15.118 	 5.82351 	 86.9982
| 13> C 	 14.509 	 6.09619 	 84.0886
| 14> H 	 14.595 	 5.83462 	 83.0692
| 15> H 	 15.2015 	 6.95963 	 84.2547
| 16> C 	 13.0697 	 6.45211 	 84.269
| 17> H 	 12.9844 	 7.03488 	 85.1728
| 18> H 	 12.8669 	 7.20585 	 83.4743
| 19> C 	 11.9689 	 5.28336 	 84.163
| 20> H 	 12.0093 	 4.53433 	 83.3495
| 21> H 	 12.0096 	 4.63566 	 85.0232
| 22> H 	 10.9912 	 5.76684 	 84.0874
| 23> S 	 17.4721 	 3.07574 	 88.9133
| 24> C 	 17.1018 	 3.27573 	 90.6193
| 25> C 	 15.8751 	 3.85111 	 90.7444
| 26> C 	 15.2046 	 4.21402 	 89.5231
| 27> C 	 15.9834 	 3.77627 	 88.3802
| 28> H 	 15.4845 	 3.92073 	 91.7838
| 29> C 	 13.7247 	 4.745 	 89.4223
| 30> H 	 13.3368 	 4.998 	 88.437
| 31> H 	 13.7649 	 5.72942 	 89.9359
| 32> C 	 12.6985 	 3.8787 	 90.0296
| 33> H 	 13.0045 	 3.66355 	 91.1001
| 34> H 	 12.7402 	 2.88956 	 89.4473
| 35> C 	 11.2226 	 4.32202 	 89.9153
| 36> H 	 10.8174 	 4.67262 	 90.8673
| 37> H 	 10.6449 	 3.34566 	 89.8178
| 38> H 	 10.9479 	 4.87236 	 89.0251
| 39> H 	 15.0124 	 3.23828 	 83.4817
| 40> H 	 17.6369 	 2.91845 	 91.4529
| 41> *
| 42>
| 43>                          ****END OF INPUT****

CARTESIAN COORDINATES (ANGSTROEM)
---------------------------------
  S     15.953200    2.628230   85.725400
  C     15.202800    3.577100   84.501700
  C     14.959600    4.866570   84.989000
  C     15.246800    4.986830   86.387400
  C     15.741500    3.866610   86.964000
  H     15.118000    5.823510   86.998200
  C     14.509000    6.096190   84.088600
  H     14.595000    5.834620   83.069200
  H     15.201500    6.959630   84.254700
  C     13.069700    6.452110   84.269000
  H     12.984400    7.034880   85.172800
  H     12.866900    7.205850   83.474300
  C     11.968900    5.283360   84.163000
  H     12.009300    4.534330   83.349500
  H     12.009600    4.635660   85.023200
  H     10.991200    5.766840   84.087400
  S     17.472100    3.075740   88.913300
  C     17.101800    3.275730   90.619300
  C     15.875100    3.851110   90.744400
  C     15.204600    4.214020   89.523100
  C     15.983400    3.776270   88.380200
  H     15.484500    3.920730   91.783800
  C     13.724700    4.745000   89.422300
  H     13.336800    4.998000   88.437000
  H     13.764900    5.729420   89.935900
  C     12.698500    3.878700   90.029600
  H     13.004500    3.663550   91.100100
  H     12.740200    2.889560   89.447300
  C     11.222600    4.322020   89.915300
  H     10.817400    4.672620   90.867300
  H     10.644900    3.345660   89.817800
  H     10.947900    4.872360   89.025100
  H     15.012400    3.238280   83.481700
  H     17.636900    2.918450   91.452900

 Total Charge           Charge          ....    0
 Multiplicity           Mult            ....    1
 Number of Electrons    NEL             ....  134
 Basis Dimension        Dim             ....  322

ORBITAL ENERGIES
----------------

  NO   OCC          E(Eh)            E(eV)
   0   2.0000     -88.967025     -2420.9158
   1   2.0000     -88.965083     -2420.8630
   2   2.0000     -10.333269      -281.1825
   3   2.0000     -10.326128      -280.9882
   4   2.0000     -10.317885      -280.7639
   5   2.0000     -10.316497      -280.7262
   6   2.0000     -10.313192      -280.6362
   7   2.0000     -10.305873      -280.4371
   8   2.0000     -10.298543      -280.2376
   9   2.0000     -10.294028      -280.1147
  10   2.0000     -10.293741      -280.1069
  11   2.0000     -10.291167      -280.0369
  12   2.0000     -10.291144      -280.0363
  13   2.0000     -10.286845      -279.9193
  14   2.0000     -10.284273      -279.8493
  15   2.0000     -10.283629      -279.8318
  16   2.0000      -8.081947      -219.9210
  17   2.0000      -8.080039      -219.8690
  18   2.0000      -6.040581      -164.3726
  19   2.0000      -6.038514      -164.3163
  20   2.0000      -6.036327      -164.2568
  21   2.0000      -6.034365      -164.2034
  22   2.0000      -6.032651      -164.1568
  23   2.0000      -6.030972      -164.1111
  24   2.0000      -1.008071       -27.4310
  25   2.0000      -0.984143       -26.7799
  26   2.0000      -0.909016       -24.7356
  27   2.0000      -0.906273       -24.6609
  28   2.0000      -0.876128       -23.8407
  29   2.0000      -0.847104       -23.0509
  30   2.0000      -0.837096       -22.7785
  31   2.0000      -0.814812       -22.1722
  32   2.0000      -0.786207       -21.3938
  33   2.0000      -0.775688       -21.1075
  34   2.0000      -0.708991       -19.2926
  35   2.0000      -0.695164       -18.9164
  36   2.0000      -0.686982       -18.6937
  37   2.0000      -0.653476       -17.7820
  38   2.0000      -0.641751       -17.4629
  39   2.0000      -0.623978       -16.9793
  40   2.0000      -0.599886       -16.3237
  41   2.0000      -0.566121       -15.4049
  42   2.0000      -0.561796       -15.2873
  43   2.0000      -0.548981       -14.9385
  44   2.0000      -0.538416       -14.6511
  45   2.0000      -0.523076       -14.2336
  46   2.0000      -0.515765       -14.0347
  47   2.0000      -0.511281       -13.9127
  48   2.0000      -0.505814       -13.7639
  49   2.0000      -0.500312       -13.6142
  50   2.0000      -0.492233       -13.3943
  51   2.0000      -0.482643       -13.1334
  52   2.0000      -0.478310       -13.0155
  53   2.0000      -0.465174       -12.6580
  54   2.0000      -0.463559       -12.6141
  55   2.0000      -0.445633       -12.1263
  56   2.0000      -0.442239       -12.0339
  57   2.0000      -0.438563       -11.9339
  58   2.0000      -0.428176       -11.6513
  59   2.0000      -0.424099       -11.5403
  60   2.0000      -0.416839       -11.3428
  61   2.0000      -0.406841       -11.0707
  62   2.0000      -0.397945       -10.8286
  63   2.0000      -0.356996        -9.7143
  64   2.0000      -0.332662        -9.0522
  65   2.0000      -0.328022        -8.9259
  66   2.0000      -0.288658        -7.8548
  67   0.0000       0.026332         0.7165
  68   0.0000       0.074701         2.0327
  69   0.0000       0.117095         3.1863
  70   0.0000       0.122920         3.3448
  71   0.0000       0.127801         3.4776

MULLIKEN ATOMIC CHARGES
-----------------------
   0 S :    0.119879
   1 C :   -0.132220
   2 C :   -0.094566
   3 C :    0.028784
   4 C :   -0.112746
   5 H :   -0.005583
   6 C :    0.090136
   7 H :    0.003111
   8 H :    0.046367
   9 C :   -0.086609
  10 H :    0.025374
  11 H :    0.030706
  12 C :   -0.058421
  13 H :    0.029348
  14 H :    0.038158
  15 H :    0.039333
  16 S :    0.102900
  17 C :   -0.075042
  18 C :   -0.063172
  19 C :   -0.018937
  20 C :   -0.179860
  21 H :    0.034966
  22 C :    0.074863
  23 H :    0.017023
  24 H :    0.028035
  25 C :   -0.126179
  26 H :    0.034001
  27 H :    0.044354
  28 C :   -0.044382
  29 H :    0.038180
  30 H :    0.031246
  31 H :    0.040045
  32 H :    0.058176
  33 H :    0.042732
Sum of atomic charges:   -0.0000000

LOEWDIN ATOMIC CHARGES
----------------------
   0 S :    0.410963
   1 C :   -0.207119
   2 C :   -0.060183
   3 C :   -0.055157
   4 C :   -0.196508
   5 H :    0.023225
   6 C :   -0.028714
   7 H :    0.020307
   8 H :    0.039621
   9 C :   -0.043726
  10 H :    0.020022
  11 H :    0.027181
  12 C :   -0.069578
  13 H :    0.027168
  14 H :    0.023875
  15 H :    0.029198
  16 S :    0.413983
  17 C :   -0.186071
  18 C :   -0.075801
  19 C :   -0.053988
  20 C :   -0.197209
  21 H :    0.038811
  22 C :   -0.040671
  23 H :    0.026712
  24 H :    0.031687
  25 C :   -0.054564
  26 H :    0.026806
  27 H :    0.034158
  28 C :   -0.074969
  29 H :    0.027710
  30 H :    0.038003
  31 H :    0.025567
  32 H :    0.033528
  33 H :    0.025733

  Mayer bond orders larger than 0.100000
B(  0-S ,  1-C ) :   1.1508 B(  0-S ,  4-C ) :   1.1318 B(  1-C ,  2-C ) :   1.5932
B(  1-C , 32-H ) :   0.9691 B(  2-C ,  3-C ) :   1.2284 B(  2-C ,  6-C ) :   1.0120
B(  3-C ,  4-C ) :   1.5698 B(  3-C ,  5-H ) :   1.0123 B(  4-C , 20-C ) :   1.0707
B(  6-C ,  7-H ) :   0.9396 B(  6-C ,  8-H ) :   0.9481 B(  6-C ,  9-C ) :   1.0761
B(  9-C , 10-H ) :   0.9586 B(  9-C , 11-H ) :   0.9592 B(  9-C , 12-C ) :   1.0530
B( 12-C , 13-H ) :   0.9793 B( 12-C , 14-H ) :   0.9747 B( 12-C , 15-H ) :   0.9773
B( 16-S , 17-C ) :   1.1411 B( 16-S , 20-C ) :   1.1665 B( 17-C , 18-C ) :   1.6254
B( 17-C , 20-C ) :   0.1032 B( 17-C , 33-H ) :   0.9723 B( 18-C , 19-C ) :   1.2519
B( 18-C , 21-H ) :   0.9783 B( 19-C , 20-C ) :   1.5392 B( 19-C , 22-C ) :   1.0250
B( 22-C , 23-H ) :   0.9392 B( 22-C , 24-H ) :   0.9280 B( 22-C , 25-C ) :   1.0767
B( 25-C , 26-H ) :   0.9518 B( 25-C , 27-H ) :   0.9608 B( 25-C , 28-C ) :   1.0698
B( 28-C , 29-H ) :   0.9751 B( 28-C , 30-H ) :   0.9774 B( 28-C , 31-H ) :   0.9732

Dispersion correction           -0.014389247
FINAL SINGLE POINT ENERGY     -1339.863731313413

DIPOLE MOMENT
-------------
                                X             Y             Z
Electronic contribution:     27.69924     -12.81663       2.11050
Nuclear contribution   :    -28.27125      13.17361      -2.07619
                        -----------------------------------------
Total Dipole Moment    :     -0.57201       0.35698       0.03431
                        -----------------------------------------
Magnitude (a.u.)       :      0.67514
Magnitude (Debye)      :      1.71606

Rotational constants in cm-1:     0.016882     0.009670     0.006917
Rotational constants in MHz :   506.121370   289.893389   207.366676

                             ****ORCA TERMINATED NORMALLY****
TOTAL RUN TIME: 0 days 0 hours 0 minutes 34 seconds 902 msec
