                         Program Version 4.2.1 -  RELEASE  -
|  1> ! wB97X-D3 SP def2-SVP
|  2> %pal
|  3> nprocs 16
|  4> end
|  5>
|  6> * xyz 0 1
|  7> S 	 43.6174 	 11.9461 	 49.6952
|  8> C 	 43.6148 	 13.0822 	 48.3374
|  9> C 	 42.9884 	 14.2628 	 48.7332
| 10> C 	 42.6756 	 14.2805 	 50.1182
| 11> C 	 42.9964 	 13.1809 	 50.7738
| 12> H 	 42.3959 	 15.1702 	 50.6364
| 13> C 	 42.8471 	 15.4976 	 47.8642
| 14> H 	 43.1475 	 15.2247 	 46.8341
| 15> H 	 43.5429 	 16.1651 	 48.3045
| 16> C 	 41.4618 	 16.2184 	 47.9695
| 17> H 	 40.7401 	 15.4518 	 47.717
| 18> H 	 41.1623 	 16.6604 	 48.9745
| 19> C 	 41.219 	 17.3011 	 46.9353
| 20> H 	 42.0796 	 18.0591 	 46.9387
| 21> H 	 41.0594 	 16.9052 	 45.9315
| 22> H 	 40.238 	 17.7426 	 47.263
| 23> S 	 44.6461 	 12.4185 	 52.9038
| 24> C 	 43.9289 	 12.4475 	 54.4671
| 25> C 	 42.5998 	 12.8068 	 54.4252
| 26> C 	 42.1186 	 13.238 	 53.1884
| 27> C 	 43.0907 	 12.9524 	 52.2314
| 28> H 	 41.9944 	 12.7515 	 55.3056
| 29> C 	 40.7321 	 13.6276 	 52.937
| 30> H 	 40.1495 	 12.8753 	 53.4447
| 31> H 	 40.5557 	 13.5084 	 51.9085
| 32> C 	 40.3462 	 15.0472 	 53.3827
| 33> H 	 40.9656 	 15.7957 	 52.8891
| 34> H 	 40.6646 	 15.17 	 54.4019
| 35> C 	 38.7629 	 15.3171 	 53.3531
| 36> H 	 38.3844 	 14.5139 	 53.8987
| 37> H 	 38.5615 	 15.2066 	 52.3482
| 38> H 	 38.5543 	 16.3235 	 53.7866
| 39> H 	 44.1404 	 12.9263 	 47.443
| 40> H 	 44.4551 	 12.0489 	 55.2905
| 41> *
| 42>
| 43>                          ****END OF INPUT****

CARTESIAN COORDINATES (ANGSTROEM)
---------------------------------
  S     43.617400   11.946100   49.695200
  C     43.614800   13.082200   48.337400
  C     42.988400   14.262800   48.733200
  C     42.675600   14.280500   50.118200
  C     42.996400   13.180900   50.773800
  H     42.395900   15.170200   50.636400
  C     42.847100   15.497600   47.864200
  H     43.147500   15.224700   46.834100
  H     43.542900   16.165100   48.304500
  C     41.461800   16.218400   47.969500
  H     40.740100   15.451800   47.717000
  H     41.162300   16.660400   48.974500
  C     41.219000   17.301100   46.935300
  H     42.079600   18.059100   46.938700
  H     41.059400   16.905200   45.931500
  H     40.238000   17.742600   47.263000
  S     44.646100   12.418500   52.903800
  C     43.928900   12.447500   54.467100
  C     42.599800   12.806800   54.425200
  C     42.118600   13.238000   53.188400
  C     43.090700   12.952400   52.231400
  H     41.994400   12.751500   55.305600
  C     40.732100   13.627600   52.937000
  H     40.149500   12.875300   53.444700
  H     40.555700   13.508400   51.908500
  C     40.346200   15.047200   53.382700
  H     40.965600   15.795700   52.889100
  H     40.664600   15.170000   54.401900
  C     38.762900   15.317100   53.353100
  H     38.384400   14.513900   53.898700
  H     38.561500   15.206600   52.348200
  H     38.554300   16.323500   53.786600
  H     44.140400   12.926300   47.443000
  H     44.455100   12.048900   55.290500

 Total Charge           Charge          ....    0
 Multiplicity           Mult            ....    1
 Number of Electrons    NEL             ....  134
 Basis Dimension        Dim             ....  322

ORBITAL ENERGIES
----------------

  NO   OCC          E(Eh)            E(eV)
   0   2.0000     -88.967281     -2420.9228
   1   2.0000     -88.958611     -2420.6869
   2   2.0000     -10.325899      -280.9820
   3   2.0000     -10.321277      -280.8562
   4   2.0000     -10.310266      -280.5566
   5   2.0000     -10.309591      -280.5382
   6   2.0000     -10.299475      -280.2630
   7   2.0000     -10.296942      -280.1940
   8   2.0000     -10.293175      -280.0915
   9   2.0000     -10.292071      -280.0615
  10   2.0000     -10.287409      -279.9346
  11   2.0000     -10.287357      -279.9332
  12   2.0000     -10.287237      -279.9299
  13   2.0000     -10.283868      -279.8383
  14   2.0000     -10.283026      -279.8154
  15   2.0000     -10.277723      -279.6711
  16   2.0000      -8.082069      -219.9243
  17   2.0000      -8.073441      -219.6895
  18   2.0000      -6.040448      -164.3690
  19   2.0000      -6.036643      -164.2654
  20   2.0000      -6.032893      -164.1634
  21   2.0000      -6.032034      -164.1400
  22   2.0000      -6.027981      -164.0297
  23   2.0000      -6.024073      -163.9234
  24   2.0000      -1.009262       -27.4634
  25   2.0000      -0.987096       -26.8602
  26   2.0000      -0.915484       -24.9116
  27   2.0000      -0.909306       -24.7435
  28   2.0000      -0.866825       -23.5875
  29   2.0000      -0.857111       -23.3232
  30   2.0000      -0.846760       -23.0415
  31   2.0000      -0.816865       -22.2280
  32   2.0000      -0.787937       -21.4409
  33   2.0000      -0.768849       -20.9215
  34   2.0000      -0.710280       -19.3277
  35   2.0000      -0.700732       -19.0679
  36   2.0000      -0.688373       -18.7316
  37   2.0000      -0.660376       -17.9697
  38   2.0000      -0.645311       -17.5598
  39   2.0000      -0.624047       -16.9812
  40   2.0000      -0.604035       -16.4366
  41   2.0000      -0.571941       -15.5633
  42   2.0000      -0.568278       -15.4636
  43   2.0000      -0.555101       -15.1051
  44   2.0000      -0.533482       -14.5168
  45   2.0000      -0.527867       -14.3640
  46   2.0000      -0.517907       -14.0930
  47   2.0000      -0.516494       -14.0545
  48   2.0000      -0.513852       -13.9826
  49   2.0000      -0.496365       -13.5068
  50   2.0000      -0.491610       -13.3774
  51   2.0000      -0.481835       -13.1114
  52   2.0000      -0.469172       -12.7668
  53   2.0000      -0.466831       -12.7031
  54   2.0000      -0.460362       -12.5271
  55   2.0000      -0.450354       -12.2548
  56   2.0000      -0.446624       -12.1533
  57   2.0000      -0.444497       -12.0954
  58   2.0000      -0.431004       -11.7282
  59   2.0000      -0.424719       -11.5572
  60   2.0000      -0.420608       -11.4453
  61   2.0000      -0.418615       -11.3911
  62   2.0000      -0.412350       -11.2206
  63   2.0000      -0.345356        -9.3976
  64   2.0000      -0.334515        -9.1026
  65   2.0000      -0.323830        -8.8119
  66   2.0000      -0.291737        -7.9386
  67   0.0000       0.031264         0.8507
  68   0.0000       0.074448         2.0258
  69   0.0000       0.115961         3.1555
  70   0.0000       0.122780         3.3410
  71   0.0000       0.128415         3.4944

MULLIKEN ATOMIC CHARGES
-----------------------
   0 S :    0.085163
   1 C :   -0.122370
   2 C :   -0.089882
   3 C :    0.034539
   4 C :   -0.145874
   5 H :   -0.002951
   6 C :    0.097075
   7 H :    0.025747
   8 H :    0.030494
   9 C :   -0.127028
  10 H :    0.029871
  11 H :    0.046208
  12 C :   -0.065201
  13 H :    0.042973
  14 H :    0.036697
  15 H :    0.040280
  16 S :    0.123068
  17 C :   -0.080808
  18 C :   -0.019760
  19 C :   -0.021290
  20 C :   -0.160982
  21 H :    0.004360
  22 C :    0.096529
  23 H :    0.020213
  24 H :    0.011371
  25 C :   -0.107127
  26 H :    0.021823
  27 H :    0.012860
  28 C :    0.011137
  29 H :    0.021186
  30 H :    0.021479
  31 H :    0.053596
  32 H :    0.032525
  33 H :    0.044078
Sum of atomic charges:   -0.0000000

LOEWDIN ATOMIC CHARGES
----------------------
   0 S :    0.380110
   1 C :   -0.189051
   2 C :   -0.055654
   3 C :   -0.069316
   4 C :   -0.182137
   5 H :    0.028291
   6 C :   -0.029455
   7 H :    0.033926
   8 H :    0.029358
   9 C :   -0.051523
  10 H :    0.024294
  11 H :    0.031106
  12 C :   -0.071643
  13 H :    0.029707
  14 H :    0.022629
  15 H :    0.033924
  16 S :    0.412707
  17 C :   -0.187761
  18 C :   -0.065289
  19 C :   -0.052167
  20 C :   -0.189135
  21 H :    0.026171
  22 C :   -0.028190
  23 H :    0.033935
  24 H :    0.024231
  25 C :   -0.034666
  26 H :    0.018804
  27 H :    0.015712
  28 C :   -0.045409
  29 H :    0.018282
  30 H :    0.015387
  31 H :    0.035896
  32 H :    0.017630
  33 H :    0.019295

  Mayer bond orders larger than 0.100000
B(  0-S ,  1-C ) :   1.1170 B(  0-S ,  4-C ) :   1.1398 B(  1-C ,  2-C ) :   1.6232
B(  1-C , 32-H ) :   0.9794 B(  2-C ,  3-C ) :   1.2118 B(  2-C ,  6-C ) :   1.0324
B(  3-C ,  4-C ) :   1.6237 B(  3-C ,  5-H ) :   0.9969 B(  4-C , 20-C ) :   1.0085
B(  6-C ,  7-H ) :   0.9457 B(  6-C ,  8-H ) :   0.9291 B(  6-C ,  9-C ) :   1.0506
B(  9-C , 10-H ) :   0.9586 B(  9-C , 11-H ) :   0.9550 B(  9-C , 12-C ) :   1.0886
B( 12-C , 13-H ) :   0.9731 B( 12-C , 14-H ) :   0.9762 B( 12-C , 15-H ) :   0.9740
B( 16-S , 17-C ) :   1.1570 B( 16-S , 20-C ) :   1.1579 B( 17-C , 18-C ) :   1.5898
B( 17-C , 20-C ) :   0.1031 B( 17-C , 33-H ) :   0.9732 B( 18-C , 19-C ) :   1.2494
B( 18-C , 21-H ) :   0.9917 B( 19-C , 20-C ) :   1.5656 B( 19-C , 22-C ) :   1.0562
B( 22-C , 23-H ) :   0.9293 B( 22-C , 24-H ) :   0.9208 B( 22-C , 25-C ) :   1.0527
B( 25-C , 26-H ) :   0.9543 B( 25-C , 27-H ) :   0.9599 B( 25-C , 28-C ) :   1.0570
B( 28-C , 29-H ) :   0.9770 B( 28-C , 30-H ) :   0.9804 B( 28-C , 31-H ) :   0.9765

Dispersion correction           -0.013881855
FINAL SINGLE POINT ENERGY     -1339.866870342621

DIPOLE MOMENT
-------------
                                X             Y             Z
Electronic contribution:     21.56030     -22.65857       6.05049
Nuclear contribution   :    -21.92267      23.14968      -5.96297
                        -----------------------------------------
Total Dipole Moment    :     -0.36237       0.49111       0.08752
                        -----------------------------------------
Magnitude (a.u.)       :      0.61657
Magnitude (Debye)      :      1.56720

Rotational constants in cm-1:     0.016219     0.009448     0.006467
Rotational constants in MHz :   486.239014   283.255735   193.872781

                             ****ORCA TERMINATED NORMALLY****
TOTAL RUN TIME: 0 days 0 hours 0 minutes 32 seconds 980 msec
