                         Program Version 4.2.1 -  RELEASE  -
|  1> ! wB97X-D3 SP def2-SVP
|  2> %pal
|  3> nprocs 16
|  4> end
|  5>
|  6> * xyz 0 1
|  7> S 	 -71.3182 	 38.1287 	 122.939
|  8> C 	 -72.7881 	 39.0637 	 122.749
|  9> C 	 -73.4336 	 38.8284 	 121.551
| 10> C 	 -72.6877 	 37.8822 	 120.723
| 11> C 	 -71.5564 	 37.4357 	 121.403
| 12> H 	 -72.9803 	 37.6376 	 119.743
| 13> C 	 -74.7322 	 39.4988 	 121.064
| 14> H 	 -74.5771 	 40.5477 	 121.314
| 15> H 	 -75.4834 	 39.1028 	 121.702
| 16> C 	 -75.1468 	 39.2916 	 119.54
| 17> H 	 -74.2665 	 39.5194 	 118.903
| 18> H 	 -75.4359 	 38.2115 	 119.309
| 19> C 	 -76.4035 	 40.0891 	 119.055
| 20> H 	 -76.3789 	 41.1003 	 119.532
| 21> H 	 -76.4159 	 40.2178 	 117.933
| 22> H 	 -77.3553 	 39.6153 	 119.303
| 23> S 	 -69.216 	 37.4102 	 119.983
| 24> C 	 -68.5804 	 35.9352 	 119.367
| 25> C 	 -69.3548 	 34.8707 	 119.63
| 26> C 	 -70.4094 	 35.2522 	 120.558
| 27> C 	 -70.4915 	 36.6258 	 120.872
| 28> H 	 -69.2514 	 33.8467 	 119.227
| 29> C 	 -71.4479 	 34.1725 	 120.933
| 30> H 	 -72.0762 	 34.4783 	 121.753
| 31> H 	 -70.9778 	 33.3684 	 121.407
| 32> C 	 -72.2288 	 33.5511 	 119.727
| 33> H 	 -71.5191 	 33.624 	 118.909
| 34> H 	 -73.1584 	 34.1157 	 119.441
| 35> C 	 -72.4566 	 31.9927 	 119.929
| 36> H 	 -71.5534 	 31.486 	 120.215
| 37> H 	 -72.8654 	 31.5627 	 119.041
| 38> H 	 -73.2255 	 31.9731 	 120.711
| 39> H 	 -73.2561 	 39.5859 	 123.582
| 40> H 	 -67.9003 	 36.0381 	 118.529
| 41> *
| 42>
| 43>                          ****END OF INPUT****

CARTESIAN COORDINATES (ANGSTROEM)
---------------------------------
  S    -71.318200   38.128700  122.939000
  C    -72.788100   39.063700  122.749000
  C    -73.433600   38.828400  121.551000
  C    -72.687700   37.882200  120.723000
  C    -71.556400   37.435700  121.403000
  H    -72.980300   37.637600  119.743000
  C    -74.732200   39.498800  121.064000
  H    -74.577100   40.547700  121.314000
  H    -75.483400   39.102800  121.702000
  C    -75.146800   39.291600  119.540000
  H    -74.266500   39.519400  118.903000
  H    -75.435900   38.211500  119.309000
  C    -76.403500   40.089100  119.055000
  H    -76.378900   41.100300  119.532000
  H    -76.415900   40.217800  117.933000
  H    -77.355300   39.615300  119.303000
  S    -69.216000   37.410200  119.983000
  C    -68.580400   35.935200  119.367000
  C    -69.354800   34.870700  119.630000
  C    -70.409400   35.252200  120.558000
  C    -70.491500   36.625800  120.872000
  H    -69.251400   33.846700  119.227000
  C    -71.447900   34.172500  120.933000
  H    -72.076200   34.478300  121.753000
  H    -70.977800   33.368400  121.407000
  C    -72.228800   33.551100  119.727000
  H    -71.519100   33.624000  118.909000
  H    -73.158400   34.115700  119.441000
  C    -72.456600   31.992700  119.929000
  H    -71.553400   31.486000  120.215000
  H    -72.865400   31.562700  119.041000
  H    -73.225500   31.973100  120.711000
  H    -73.256100   39.585900  123.582000
  H    -67.900300   36.038100  118.529000

 Total Charge           Charge          ....    0
 Multiplicity           Mult            ....    1
 Number of Electrons    NEL             ....  134
 Basis Dimension        Dim             ....  322

ORBITAL ENERGIES
----------------

  NO   OCC          E(Eh)            E(eV)
   0   2.0000     -88.966613     -2420.9046
   1   2.0000     -88.957445     -2420.6551
   2   2.0000     -10.324905      -280.9549
   3   2.0000     -10.321718      -280.8682
   4   2.0000     -10.311689      -280.5953
   5   2.0000     -10.310462      -280.5619
   6   2.0000     -10.306122      -280.4438
   7   2.0000     -10.305139      -280.4171
   8   2.0000     -10.304830      -280.4087
   9   2.0000     -10.298419      -280.2342
  10   2.0000     -10.294990      -280.1409
  11   2.0000     -10.294260      -280.1211
  12   2.0000     -10.291078      -280.0345
  13   2.0000     -10.290994      -280.0322
  14   2.0000     -10.281775      -279.7813
  15   2.0000     -10.278895      -279.7030
  16   2.0000      -8.082151      -219.9265
  17   2.0000      -8.073533      -219.6920
  18   2.0000      -6.040493      -164.3702
  19   2.0000      -6.036551      -164.2629
  20   2.0000      -6.033044      -164.1675
  21   2.0000      -6.031973      -164.1383
  22   2.0000      -6.027789      -164.0245
  23   2.0000      -6.024330      -163.9303
  24   2.0000      -1.008766       -27.4499
  25   2.0000      -0.985096       -26.8058
  26   2.0000      -0.904096       -24.6017
  27   2.0000      -0.899834       -24.4857
  28   2.0000      -0.870045       -23.6751
  29   2.0000      -0.846313       -23.0293
  30   2.0000      -0.840922       -22.8826
  31   2.0000      -0.813979       -22.1495
  32   2.0000      -0.782858       -21.3026
  33   2.0000      -0.768387       -20.9089
  34   2.0000      -0.710052       -19.3215
  35   2.0000      -0.698345       -19.0029
  36   2.0000      -0.685610       -18.6564
  37   2.0000      -0.655741       -17.8436
  38   2.0000      -0.640087       -17.4176
  39   2.0000      -0.620753       -16.8915
  40   2.0000      -0.602524       -16.3955
  41   2.0000      -0.566270       -15.4090
  42   2.0000      -0.563569       -15.3355
  43   2.0000      -0.554248       -15.0819
  44   2.0000      -0.522677       -14.2228
  45   2.0000      -0.520846       -14.1729
  46   2.0000      -0.515615       -14.0306
  47   2.0000      -0.507904       -13.8208
  48   2.0000      -0.504249       -13.7213
  49   2.0000      -0.501156       -13.6372
  50   2.0000      -0.487767       -13.2728
  51   2.0000      -0.478046       -13.0083
  52   2.0000      -0.468931       -12.7603
  53   2.0000      -0.464676       -12.6445
  54   2.0000      -0.460646       -12.5348
  55   2.0000      -0.454648       -12.3716
  56   2.0000      -0.447554       -12.1786
  57   2.0000      -0.432463       -11.7679
  58   2.0000      -0.431672       -11.7464
  59   2.0000      -0.426278       -11.5996
  60   2.0000      -0.419660       -11.4195
  61   2.0000      -0.419202       -11.4071
  62   2.0000      -0.406559       -11.0630
  63   2.0000      -0.338255        -9.2044
  64   2.0000      -0.327429        -8.9098
  65   2.0000      -0.316725        -8.6185
  66   2.0000      -0.309181        -8.4132
  67   0.0000       0.048395         1.3169
  68   0.0000       0.054511         1.4833
  69   0.0000       0.116973         3.1830
  70   0.0000       0.123610         3.3636
  71   0.0000       0.129736         3.5303

MULLIKEN ATOMIC CHARGES
-----------------------
   0 S :    0.130031
   1 C :   -0.139337
   2 C :   -0.123268
   3 C :    0.061757
   4 C :   -0.168258
   5 H :   -0.003622
   6 C :    0.094607
   7 H :    0.039674
   8 H :    0.035652
   9 C :   -0.143386
  10 H :    0.049312
  11 H :    0.047287
  12 C :   -0.062848
  13 H :    0.037053
  14 H :    0.046566
  15 H :    0.039409
  16 S :    0.095336
  17 C :   -0.074680
  18 C :   -0.038567
  19 C :   -0.068446
  20 C :   -0.142659
  21 H :    0.040949
  22 C :    0.109306
  23 H :    0.016963
  24 H :   -0.002694
  25 C :   -0.106653
  26 H :    0.017306
  27 H :    0.046951
  28 C :   -0.053754
  29 H :    0.037497
  30 H :    0.032916
  31 H :    0.037248
  32 H :    0.048200
  33 H :    0.064153
Sum of atomic charges:   -0.0000000

LOEWDIN ATOMIC CHARGES
----------------------
   0 S :    0.436797
   1 C :   -0.210823
   2 C :   -0.055398
   3 C :   -0.050215
   4 C :   -0.212846
   5 H :    0.023573
   6 C :   -0.030300
   7 H :    0.035399
   8 H :    0.030639
   9 C :   -0.051950
  10 H :    0.027324
  11 H :    0.031836
  12 C :   -0.072853
  13 H :    0.027755
  14 H :    0.035127
  15 H :    0.024254
  16 S :    0.418245
  17 C :   -0.189540
  18 C :   -0.077367
  19 C :   -0.046559
  20 C :   -0.221862
  21 H :    0.039860
  22 C :   -0.034678
  23 H :    0.027613
  24 H :    0.021812
  25 C :   -0.037273
  26 H :    0.015827
  27 H :    0.029649
  28 C :   -0.059635
  29 H :    0.021864
  30 H :    0.021879
  31 H :    0.027011
  32 H :    0.026540
  33 H :    0.028296

  Mayer bond orders larger than 0.100000
B(  0-S ,  1-C ) :   1.1370 B(  0-S ,  4-C ) :   1.1865 B(  1-C ,  2-C ) :   1.6345
B(  1-C , 32-H ) :   0.9689 B(  2-C ,  3-C ) :   1.2476 B(  2-C ,  6-C ) :   0.9895
B(  3-C ,  4-C ) :   1.5565 B(  3-C ,  5-H ) :   1.0041 B(  4-C , 20-C ) :   0.9927
B(  6-C ,  7-H ) :   0.9435 B(  6-C ,  8-H ) :   0.9346 B(  6-C ,  9-C ) :   1.0727
B(  9-C , 10-H ) :   0.9575 B(  9-C , 11-H ) :   0.9536 B(  9-C , 12-C ) :   1.0697
B( 12-C , 13-H ) :   0.9766 B( 12-C , 14-H ) :   0.9751 B( 12-C , 15-H ) :   0.9785
B( 16-S , 17-C ) :   1.1754 B( 16-S , 20-C ) :   1.1416 B( 17-C , 18-C ) :   1.6008
B( 17-C , 33-H ) :   0.9603 B( 18-C , 19-C ) :   1.2464 B( 18-C , 21-H ) :   0.9845
B( 19-C , 20-C ) :   1.6036 B( 19-C , 22-C ) :   1.0530 B( 22-C , 23-H ) :   0.9301
B( 22-C , 24-H ) :   0.9351 B( 22-C , 25-C ) :   1.0370 B( 25-C , 26-H ) :   0.9649
B( 25-C , 27-H ) :   0.9582 B( 25-C , 28-C ) :   1.0678 B( 28-C , 29-H ) :   0.9766
B( 28-C , 30-H ) :   0.9766 B( 28-C , 31-H ) :   0.9811

Dispersion correction           -0.013640586
FINAL SINGLE POINT ENERGY     -1339.867210287063

DIPOLE MOMENT
-------------
                                X             Y             Z
Electronic contribution:     23.64704       8.99534      11.21306
Nuclear contribution   :    -24.30552      -9.20383     -11.62996
                        -----------------------------------------
Total Dipole Moment    :     -0.65849      -0.20849      -0.41690
                        -----------------------------------------
Magnitude (a.u.)       :      0.80677
Magnitude (Debye)      :      2.05065

Rotational constants in cm-1:     0.016231     0.008085     0.006783
Rotational constants in MHz :   486.600388   242.387316   203.337250

                             ****ORCA TERMINATED NORMALLY****
TOTAL RUN TIME: 0 days 0 hours 0 minutes 33 seconds 114 msec
