                         Program Version 4.2.1 -  RELEASE  -
|  1> ! wB97X-D3 SP def2-SVP
|  2> %pal
|  3> nprocs 16
|  4> end
|  5>
|  6> * xyz 0 1
|  7> S 	 -26.4465 	 63.8001 	 105.527
|  8> C 	 -27.8451 	 64.846 	 105.662
|  9> C 	 -28.9744 	 64.0545 	 105.811
| 10> C 	 -28.6784 	 62.6572 	 105.938
| 11> C 	 -27.3987 	 62.3504 	 105.635
| 12> H 	 -29.3666 	 61.8723 	 106.083
| 13> C 	 -30.3956 	 64.4908 	 105.934
| 14> H 	 -30.3097 	 65.5423 	 106.236
| 15> H 	 -30.8788 	 64.0778 	 106.764
| 16> C 	 -31.2059 	 64.4021 	 104.622
| 17> H 	 -32.2276 	 64.6123 	 104.872
| 18> H 	 -30.7759 	 65.0987 	 104.004
| 19> C 	 -31.1649 	 63.1154 	 103.818
| 20> H 	 -31.6411 	 63.2335 	 102.889
| 21> H 	 -30.1522 	 62.77 	 103.551
| 22> H 	 -31.6219 	 62.3378 	 104.487
| 23> S 	 -25.6099 	 60.607 	 106.797
| 24> C 	 -25.4713 	 59.0028 	 106.19
| 25> C 	 -26.402 	 58.7828 	 105.203
| 26> C 	 -27.1141 	 59.9146 	 104.817
| 27> C 	 -26.8346 	 61.0205 	 105.551
| 28> H 	 -26.4052 	 57.7581 	 104.795
| 29> C 	 -27.9712 	 59.9618 	 103.55
| 30> H 	 -27.3655 	 60.075 	 102.678
| 31> H 	 -28.6069 	 60.8372 	 103.578
| 32> C 	 -28.88 	 58.7478 	 103.371
| 33> H 	 -28.339 	 57.835 	 103.314
| 34> H 	 -29.4196 	 58.8807 	 102.458
| 35> C 	 -29.9162 	 58.5121 	 104.501
| 36> H 	 -29.6279 	 58.9398 	 105.431
| 37> H 	 -30.2031 	 57.4753 	 104.649
| 38> H 	 -30.8045 	 59.0694 	 104.296
| 39> H 	 -27.8569 	 65.9425 	 105.584
| 40> H 	 -24.6615 	 58.3495 	 106.567
| 41> *
| 42>
| 43>                          ****END OF INPUT****

CARTESIAN COORDINATES (ANGSTROEM)
---------------------------------
  S    -26.446500   63.800100  105.527000
  C    -27.845100   64.846000  105.662000
  C    -28.974400   64.054500  105.811000
  C    -28.678400   62.657200  105.938000
  C    -27.398700   62.350400  105.635000
  H    -29.366600   61.872300  106.083000
  C    -30.395600   64.490800  105.934000
  H    -30.309700   65.542300  106.236000
  H    -30.878800   64.077800  106.764000
  C    -31.205900   64.402100  104.622000
  H    -32.227600   64.612300  104.872000
  H    -30.775900   65.098700  104.004000
  C    -31.164900   63.115400  103.818000
  H    -31.641100   63.233500  102.889000
  H    -30.152200   62.770000  103.551000
  H    -31.621900   62.337800  104.487000
  S    -25.609900   60.607000  106.797000
  C    -25.471300   59.002800  106.190000
  C    -26.402000   58.782800  105.203000
  C    -27.114100   59.914600  104.817000
  C    -26.834600   61.020500  105.551000
  H    -26.405200   57.758100  104.795000
  C    -27.971200   59.961800  103.550000
  H    -27.365500   60.075000  102.678000
  H    -28.606900   60.837200  103.578000
  C    -28.880000   58.747800  103.371000
  H    -28.339000   57.835000  103.314000
  H    -29.419600   58.880700  102.458000
  C    -29.916200   58.512100  104.501000
  H    -29.627900   58.939800  105.431000
  H    -30.203100   57.475300  104.649000
  H    -30.804500   59.069400  104.296000
  H    -27.856900   65.942500  105.584000
  H    -24.661500   58.349500  106.567000

 Total Charge           Charge          ....    0
 Multiplicity           Mult            ....    1
 Number of Electrons    NEL             ....  134
 Basis Dimension        Dim             ....  322

ORBITAL ENERGIES
----------------

  NO   OCC          E(Eh)            E(eV)
   0   2.0000     -88.963572     -2420.8219
   1   2.0000     -88.958952     -2420.6962
   2   2.0000     -10.323554      -280.9182
   3   2.0000     -10.323361      -280.9129
   4   2.0000     -10.317730      -280.7597
   5   2.0000     -10.317700      -280.7589
   6   2.0000     -10.300583      -280.2931
   7   2.0000     -10.298634      -280.2401
   8   2.0000     -10.291607      -280.0489
   9   2.0000     -10.288088      -279.9531
  10   2.0000     -10.285029      -279.8699
  11   2.0000     -10.284166      -279.8464
  12   2.0000     -10.279607      -279.7223
  13   2.0000     -10.277540      -279.6661
  14   2.0000     -10.276266      -279.6314
  15   2.0000     -10.267931      -279.4046
  16   2.0000      -8.078586      -219.8295
  17   2.0000      -8.074222      -219.7108
  18   2.0000      -6.037179      -164.2800
  19   2.0000      -6.033010      -164.1666
  20   2.0000      -6.032572      -164.1546
  21   2.0000      -6.029266      -164.0647
  22   2.0000      -6.028631      -164.0474
  23   2.0000      -6.025127      -163.9520
  24   2.0000      -1.011276       -27.5182
  25   2.0000      -0.989335       -26.9212
  26   2.0000      -0.916149       -24.9297
  27   2.0000      -0.909783       -24.7565
  28   2.0000      -0.872902       -23.7529
  29   2.0000      -0.850400       -23.1406
  30   2.0000      -0.844935       -22.9919
  31   2.0000      -0.817647       -22.2493
  32   2.0000      -0.788683       -21.4612
  33   2.0000      -0.777807       -21.1652
  34   2.0000      -0.706935       -19.2367
  35   2.0000      -0.702430       -19.1141
  36   2.0000      -0.698196       -18.9989
  37   2.0000      -0.656236       -17.8571
  38   2.0000      -0.645256       -17.5583
  39   2.0000      -0.617872       -16.8132
  40   2.0000      -0.603706       -16.4277
  41   2.0000      -0.583923       -15.8893
  42   2.0000      -0.557374       -15.1669
  43   2.0000      -0.552815       -15.0429
  44   2.0000      -0.545409       -14.8413
  45   2.0000      -0.536869       -14.6089
  46   2.0000      -0.521483       -14.1903
  47   2.0000      -0.516491       -14.0544
  48   2.0000      -0.504378       -13.7248
  49   2.0000      -0.499548       -13.5934
  50   2.0000      -0.492263       -13.3952
  51   2.0000      -0.480326       -13.0703
  52   2.0000      -0.474865       -12.9217
  53   2.0000      -0.467934       -12.7331
  54   2.0000      -0.456623       -12.4253
  55   2.0000      -0.447879       -12.1874
  56   2.0000      -0.441023       -12.0008
  57   2.0000      -0.438641       -11.9360
  58   2.0000      -0.437997       -11.9185
  59   2.0000      -0.422844       -11.5062
  60   2.0000      -0.417779       -11.3683
  61   2.0000      -0.414183       -11.2705
  62   2.0000      -0.408812       -11.1243
  63   2.0000      -0.340520        -9.2660
  64   2.0000      -0.334137        -9.0923
  65   2.0000      -0.325994        -8.8707
  66   2.0000      -0.301093        -8.1931
  67   0.0000       0.034784         0.9465
  68   0.0000       0.068698         1.8694
  69   0.0000       0.119119         3.2414
  70   0.0000       0.126608         3.4452
  71   0.0000       0.127681         3.4744

MULLIKEN ATOMIC CHARGES
-----------------------
   0 S :    0.108474
   1 C :   -0.117750
   2 C :   -0.128208
   3 C :    0.059838
   4 C :   -0.163821
   5 H :   -0.006815
   6 C :    0.087590
   7 H :    0.008423
   8 H :    0.014121
   9 C :   -0.009034
  10 H :    0.029138
  11 H :    0.002287
  12 C :   -0.069616
  13 H :    0.029134
  14 H :    0.046723
  15 H :    0.032707
  16 S :    0.091423
  17 C :   -0.110209
  18 C :   -0.059710
  19 C :   -0.011938
  20 C :   -0.160502
  21 H :    0.029004
  22 C :    0.121517
  23 H :    0.037007
  24 H :    0.006205
  25 C :   -0.072230
  26 H :    0.021194
  27 H :    0.023851
  28 C :   -0.041726
  29 H :    0.023600
  30 H :    0.033699
  31 H :    0.013559
  32 H :    0.056786
  33 H :    0.075277
Sum of atomic charges:   -0.0000000

LOEWDIN ATOMIC CHARGES
----------------------
   0 S :    0.407116
   1 C :   -0.201774
   2 C :   -0.063023
   3 C :   -0.053062
   4 C :   -0.199763
   5 H :    0.024408
   6 C :   -0.030611
   7 H :    0.032867
   8 H :    0.022002
   9 C :   -0.027155
  10 H :    0.024523
  11 H :    0.013536
  12 C :   -0.064552
  13 H :    0.021630
  14 H :    0.025105
  15 H :    0.027179
  16 S :    0.393274
  17 C :   -0.186390
  18 C :   -0.083474
  19 C :   -0.058835
  20 C :   -0.183425
  21 H :    0.037927
  22 C :   -0.017614
  23 H :    0.033320
  24 H :    0.026638
  25 C :   -0.035825
  26 H :    0.015907
  27 H :    0.023567
  28 C :   -0.064358
  29 H :    0.019519
  30 H :    0.027425
  31 H :    0.021044
  32 H :    0.036076
  33 H :    0.036797

  Mayer bond orders larger than 0.100000
B(  0-S ,  1-C ) :   1.1292 B(  0-S ,  4-C ) :   1.1496 B(  1-C ,  2-C ) :   1.6185
B(  1-C , 32-H ) :   0.9667 B(  2-C ,  3-C ) :   1.2190 B(  2-C ,  6-C ) :   1.0276
B(  3-C ,  4-C ) :   1.5948 B(  3-C ,  5-H ) :   1.0027 B(  4-C , 20-C ) :   1.0124
B(  6-C ,  7-H ) :   0.9344 B(  6-C ,  8-H ) :   0.9397 B(  6-C ,  9-C ) :   1.0666
B(  9-C , 10-H ) :   0.9554 B(  9-C , 11-H ) :   0.9469 B(  9-C , 12-C ) :   1.1041
B( 12-C , 13-H ) :   0.9668 B( 12-C , 14-H ) :   0.9642 B( 12-C , 15-H ) :   0.9749
B( 16-S , 17-C ) :   1.1729 B( 16-S , 20-C ) :   1.1385 B( 17-C , 18-C ) :   1.5942
B( 17-C , 20-C ) :   0.1065 B( 17-C , 33-H ) :   0.9641 B( 18-C , 19-C ) :   1.2220
B( 18-C , 21-H ) :   0.9957 B( 19-C , 20-C ) :   1.6238 B( 19-C , 22-C ) :   1.0303
B( 22-C , 23-H ) :   0.9319 B( 22-C , 24-H ) :   0.9314 B( 22-C , 25-C ) :   1.0824
B( 25-C , 26-H ) :   0.9599 B( 25-C , 27-H ) :   0.9575 B( 25-C , 28-C ) :   1.0649
B( 28-C , 29-H ) :   0.9765 B( 28-C , 30-H ) :   0.9771 B( 28-C , 31-H ) :   0.9747

Dispersion correction           -0.015985958
FINAL SINGLE POINT ENERGY     -1339.878123056786

DIPOLE MOMENT
-------------
                                X             Y             Z
Electronic contribution:     25.87289       5.61500      12.00021
Nuclear contribution   :    -26.42506      -5.76140     -12.31932
                        -----------------------------------------
Total Dipole Moment    :     -0.55217      -0.14640      -0.31911
                        -----------------------------------------
Magnitude (a.u.)       :      0.65434
Magnitude (Debye)      :      1.66319

Rotational constants in cm-1:     0.018035     0.010819     0.007437
Rotational constants in MHz :   540.667165   324.331148   222.948143

                             ****ORCA TERMINATED NORMALLY****
TOTAL RUN TIME: 0 days 0 hours 0 minutes 30 seconds 898 msec
