                         Program Version 4.2.1 -  RELEASE  -
|  1> ! wB97X-D3 SP def2-SVP
|  2> %pal
|  3> nprocs 16
|  4> end
|  5>
|  6> * xyz 0 1
|  7> S 	 -0.475766 	 -12.8661 	 80.0999
|  8> C 	 -1.26204 	 -14.112 	 81.149
|  9> C 	 -2.24637 	 -13.5618 	 81.944
| 10> C 	 -2.34687 	 -12.1246 	 81.6457
| 11> C 	 -1.41254 	 -11.5338 	 80.8131
| 12> H 	 -3.03567 	 -11.4685 	 82.2054
| 13> C 	 -3.14741 	 -14.316 	 82.9063
| 14> H 	 -3.97898 	 -13.6683 	 83.1943
| 15> H 	 -2.5755 	 -14.6944 	 83.6861
| 16> C 	 -3.88654 	 -15.5556 	 82.3757
| 17> H 	 -3.37409 	 -16.1901 	 81.7124
| 18> H 	 -3.98403 	 -16.096 	 83.2682
| 19> C 	 -5.2731 	 -15.2307 	 81.7991
| 20> H 	 -5.89427 	 -14.7495 	 82.6029
| 21> H 	 -4.9998 	 -14.501 	 81.0089
| 22> H 	 -5.87855 	 -16.0627 	 81.3916
| 23> S 	 0.597892 	 -9.63853 	 80.6978
| 24> C 	 -0.0237634 	 -7.9645 	 80.6566
| 25> C 	 -1.35884 	 -7.81841 	 80.3126
| 26> C 	 -2.0452 	 -9.10864 	 80.3324
| 27> C 	 -1.10909 	 -10.1297 	 80.579
| 28> H 	 -1.81739 	 -6.88513 	 79.9534
| 29> C 	 -3.43135 	 -9.2802 	 79.7721
| 30> H 	 -4.20824 	 -8.96383 	 80.4779
| 31> H 	 -3.59094 	 -10.3765 	 79.6228
| 32> C 	 -3.75244 	 -8.5913 	 78.3919
| 33> H 	 -2.92452 	 -8.66013 	 77.7245
| 34> H 	 -3.90364 	 -7.61748 	 78.56
| 35> C 	 -4.9712 	 -9.28206 	 77.8063
| 36> H 	 -5.45263 	 -8.74315 	 76.9796
| 37> H 	 -5.7744 	 -9.45937 	 78.545
| 38> H 	 -4.69799 	 -10.2763 	 77.5081
| 39> H 	 -1.00896 	 -15.2281 	 81.1499
| 40> H 	 0.614444 	 -7.11028 	 80.7513
| 41> *
| 42>
| 43>                          ****END OF INPUT****

CARTESIAN COORDINATES (ANGSTROEM)
---------------------------------
  S     -0.475766  -12.866100   80.099900
  C     -1.262040  -14.112000   81.149000
  C     -2.246370  -13.561800   81.944000
  C     -2.346870  -12.124600   81.645700
  C     -1.412540  -11.533800   80.813100
  H     -3.035670  -11.468500   82.205400
  C     -3.147410  -14.316000   82.906300
  H     -3.978980  -13.668300   83.194300
  H     -2.575500  -14.694400   83.686100
  C     -3.886540  -15.555600   82.375700
  H     -3.374090  -16.190100   81.712400
  H     -3.984030  -16.096000   83.268200
  C     -5.273100  -15.230700   81.799100
  H     -5.894270  -14.749500   82.602900
  H     -4.999800  -14.501000   81.008900
  H     -5.878550  -16.062700   81.391600
  S      0.597892   -9.638530   80.697800
  C     -0.023763   -7.964500   80.656600
  C     -1.358840   -7.818410   80.312600
  C     -2.045200   -9.108640   80.332400
  C     -1.109090  -10.129700   80.579000
  H     -1.817390   -6.885130   79.953400
  C     -3.431350   -9.280200   79.772100
  H     -4.208240   -8.963830   80.477900
  H     -3.590940  -10.376500   79.622800
  C     -3.752440   -8.591300   78.391900
  H     -2.924520   -8.660130   77.724500
  H     -3.903640   -7.617480   78.560000
  C     -4.971200   -9.282060   77.806300
  H     -5.452630   -8.743150   76.979600
  H     -5.774400   -9.459370   78.545000
  H     -4.697990  -10.276300   77.508100
  H     -1.008960  -15.228100   81.149900
  H      0.614444   -7.110280   80.751300

 Total Charge           Charge          ....    0
 Multiplicity           Mult            ....    1
 Number of Electrons    NEL             ....  134
 Basis Dimension        Dim             ....  322

ORBITAL ENERGIES
----------------

  NO   OCC          E(Eh)            E(eV)
   0   2.0000     -88.973519     -2421.0925
   1   2.0000     -88.961736     -2420.7719
   2   2.0000     -10.332802      -281.1698
   3   2.0000     -10.330993      -281.1206
   4   2.0000     -10.322828      -280.8984
   5   2.0000     -10.321419      -280.8601
   6   2.0000     -10.308808      -280.5169
   7   2.0000     -10.305576      -280.4290
   8   2.0000     -10.301480      -280.3175
   9   2.0000     -10.297216      -280.2015
  10   2.0000     -10.295542      -280.1559
  11   2.0000     -10.291376      -280.0426
  12   2.0000     -10.284264      -279.8490
  13   2.0000     -10.278605      -279.6951
  14   2.0000     -10.277882      -279.6754
  15   2.0000     -10.277830      -279.6740
  16   2.0000      -8.087102      -220.0612
  17   2.0000      -8.075306      -219.7402
  18   2.0000      -6.045663      -164.5109
  19   2.0000      -6.042227      -164.4173
  20   2.0000      -6.037398      -164.2859
  21   2.0000      -6.034154      -164.1977
  22   2.0000      -6.029972      -164.0839
  23   2.0000      -6.025793      -163.9702
  24   2.0000      -0.996897       -27.1269
  25   2.0000      -0.972501       -26.4631
  26   2.0000      -0.916651       -24.9433
  27   2.0000      -0.910045       -24.7636
  28   2.0000      -0.866198       -23.5704
  29   2.0000      -0.853980       -23.2380
  30   2.0000      -0.835918       -22.7465
  31   2.0000      -0.808858       -22.0101
  32   2.0000      -0.781741       -21.2722
  33   2.0000      -0.768141       -20.9022
  34   2.0000      -0.713985       -19.4285
  35   2.0000      -0.705291       -19.1919
  36   2.0000      -0.694515       -18.8987
  37   2.0000      -0.657637       -17.8952
  38   2.0000      -0.630077       -17.1453
  39   2.0000      -0.609122       -16.5750
  40   2.0000      -0.597184       -16.2502
  41   2.0000      -0.576541       -15.6885
  42   2.0000      -0.573002       -15.5922
  43   2.0000      -0.567491       -15.4422
  44   2.0000      -0.532600       -14.4928
  45   2.0000      -0.519194       -14.1280
  46   2.0000      -0.516847       -14.0641
  47   2.0000      -0.505082       -13.7440
  48   2.0000      -0.501898       -13.6573
  49   2.0000      -0.489392       -13.3170
  50   2.0000      -0.479122       -13.0376
  51   2.0000      -0.477899       -13.0043
  52   2.0000      -0.468595       -12.7511
  53   2.0000      -0.463092       -12.6014
  54   2.0000      -0.460750       -12.5377
  55   2.0000      -0.453887       -12.3509
  56   2.0000      -0.441627       -12.0173
  57   2.0000      -0.436223       -11.8702
  58   2.0000      -0.435126       -11.8404
  59   2.0000      -0.429906       -11.6984
  60   2.0000      -0.425634       -11.5821
  61   2.0000      -0.417511       -11.3610
  62   2.0000      -0.411569       -11.1994
  63   2.0000      -0.348231        -9.4758
  64   2.0000      -0.332223        -9.0403
  65   2.0000      -0.325532        -8.8582
  66   2.0000      -0.286608        -7.7990
  67   0.0000       0.023400         0.6368
  68   0.0000       0.061894         1.6842
  69   0.0000       0.098513         2.6807
  70   0.0000       0.122399         3.3306
  71   0.0000       0.125614         3.4181

MULLIKEN ATOMIC CHARGES
-----------------------
   0 S :    0.073632
   1 C :   -0.153782
   2 C :   -0.096964
   3 C :    0.018149
   4 C :   -0.144281
   5 H :    0.014392
   6 C :    0.098225
   7 H :    0.021840
   8 H :    0.028459
   9 C :   -0.048491
  10 H :    0.016715
  11 H :    0.007408
  12 C :   -0.091018
  13 H :    0.036661
  14 H :    0.044501
  15 H :    0.048354
  16 S :    0.121834
  17 C :   -0.081662
  18 C :   -0.032090
  19 C :   -0.027288
  20 C :   -0.146134
  21 H :    0.035309
  22 C :   -0.009475
  23 H :    0.036477
  24 H :    0.038192
  25 C :    0.003268
  26 H :    0.030943
  27 H :    0.001299
  28 C :   -0.061485
  29 H :    0.037388
  30 H :    0.024840
  31 H :    0.031792
  32 H :    0.075330
  33 H :    0.047662
Sum of atomic charges:   -0.0000000

LOEWDIN ATOMIC CHARGES
----------------------
   0 S :    0.354813
   1 C :   -0.190159
   2 C :   -0.067008
   3 C :   -0.071057
   4 C :   -0.186159
   5 H :    0.028589
   6 C :   -0.019176
   7 H :    0.035689
   8 H :    0.029734
   9 C :   -0.034602
  10 H :    0.014809
  11 H :    0.015901
  12 C :   -0.072356
  13 H :    0.026773
  14 H :    0.031809
  15 H :    0.028647
  16 S :    0.385841
  17 C :   -0.166317
  18 C :   -0.064816
  19 C :   -0.050905
  20 C :   -0.188183
  21 H :    0.037654
  22 C :   -0.034449
  23 H :    0.032043
  24 H :    0.034920
  25 C :   -0.022109
  26 H :    0.024976
  27 H :    0.003544
  28 C :   -0.061999
  29 H :    0.027493
  30 H :    0.026317
  31 H :    0.024740
  32 H :    0.043765
  33 H :    0.021240

  Mayer bond orders larger than 0.100000
B(  0-S ,  1-C ) :   1.1158 B(  0-S ,  4-C ) :   1.1165 B(  1-C ,  2-C ) :   1.6399
B(  1-C , 32-H ) :   0.9561 B(  2-C ,  3-C ) :   1.2242 B(  2-C ,  6-C ) :   1.0223
B(  3-C ,  4-C ) :   1.6044 B(  3-C ,  5-H ) :   0.9832 B(  4-C , 20-C ) :   1.0547
B(  6-C ,  7-H ) :   0.9436 B(  6-C ,  8-H ) :   0.9344 B(  6-C ,  9-C ) :   1.0643
B(  9-C , 10-H ) :   0.9585 B(  9-C , 11-H ) :   0.9553 B(  9-C , 12-C ) :   1.0754
B( 12-C , 13-H ) :   0.9725 B( 12-C , 14-H ) :   0.9800 B( 12-C , 15-H ) :   0.9757
B( 16-S , 17-C ) :   1.1306 B( 16-S , 20-C ) :   1.1205 B( 17-C , 18-C ) :   1.6475
B( 17-C , 33-H ) :   0.9680 B( 18-C , 19-C ) :   1.1987 B( 18-C , 21-H ) :   0.9821
B( 19-C , 20-C ) :   1.6113 B( 19-C , 22-C ) :   1.0488 B( 22-C , 23-H ) :   0.9237
B( 22-C , 24-H ) :   0.9474 B( 22-C , 25-C ) :   1.0558 B( 25-C , 26-H ) :   0.9586
B( 25-C , 27-H ) :   0.9466 B( 25-C , 28-C ) :   1.0879 B( 28-C , 29-H ) :   0.9726
B( 28-C , 30-H ) :   0.9729 B( 28-C , 31-H ) :   0.9755

Dispersion correction           -0.013620005
FINAL SINGLE POINT ENERGY     -1339.852909264953

DIPOLE MOMENT
-------------
                                X             Y             Z
Electronic contribution:     28.24947       6.35776       1.30862
Nuclear contribution   :    -28.86323      -6.27621      -1.20200
                        -----------------------------------------
Total Dipole Moment    :     -0.61376       0.08155       0.10662
                        -----------------------------------------
Magnitude (a.u.)       :      0.62827
Magnitude (Debye)      :      1.59692

Rotational constants in cm-1:     0.017936     0.008282     0.006371
Rotational constants in MHz :   537.713786   248.285483   191.002768

                             ****ORCA TERMINATED NORMALLY****
TOTAL RUN TIME: 0 days 0 hours 0 minutes 34 seconds 816 msec
