                         Program Version 4.2.1 -  RELEASE  -
|  1> ! wB97X-D3 SP def2-SVP
|  2> %pal
|  3> nprocs 16
|  4> end
|  5>
|  6> * xyz 0 1
|  7> S 	 -103.323 	 50.7549 	 122.338
|  8> C 	 -104.883 	 50.0206 	 122.172
|  9> C 	 -105.125 	 49.6429 	 120.884
| 10> C 	 -104.089 	 50.0668 	 119.984
| 11> C 	 -103.053 	 50.7441 	 120.609
| 12> H 	 -104.186 	 49.918 	 118.901
| 13> C 	 -106.292 	 48.7765 	 120.523
| 14> H 	 -107.148 	 49.1487 	 121.112
| 15> H 	 -106.126 	 47.7133 	 120.732
| 16> C 	 -106.816 	 48.9439 	 119.101
| 17> H 	 -107.153 	 49.9808 	 118.811
| 18> H 	 -105.981 	 48.6726 	 118.426
| 19> C 	 -108.087 	 48.02 	 118.813
| 20> H 	 -108.943 	 48.172 	 119.576
| 21> H 	 -108.474 	 48.2748 	 117.805
| 22> H 	 -107.729 	 46.9791 	 118.917
| 23> S 	 -100.384 	 51.0075 	 120.663
| 24> C 	 -99.6003 	 52.0485 	 119.462
| 25> C 	 -100.458 	 52.4687 	 118.486
| 26> C 	 -101.797 	 52.0744 	 118.703
| 27> C 	 -101.93 	 51.3609 	 119.886
| 28> H 	 -100.012 	 53.0993 	 117.691
| 29> C 	 -102.926 	 52.5332 	 117.857
| 30> H 	 -102.732 	 53.6115 	 117.733
| 31> H 	 -103.876 	 52.4919 	 118.484
| 32> C 	 -103.139 	 51.8918 	 116.521
| 33> H 	 -104.136 	 52.2114 	 116.234
| 34> H 	 -103.251 	 50.7981 	 116.669
| 35> C 	 -102.209 	 52.2281 	 115.366
| 36> H 	 -102.071 	 53.2658 	 115.04
| 37> H 	 -102.552 	 51.6203 	 114.473
| 38> H 	 -101.243 	 51.883 	 115.518
| 39> H 	 -105.666 	 49.779 	 122.903
| 40> H 	 -98.574 	 52.4038 	 119.608
| 41> *
| 42>
| 43>                          ****END OF INPUT****

CARTESIAN COORDINATES (ANGSTROEM)
---------------------------------
  S    -103.323000   50.754900  122.338000
  C    -104.883000   50.020600  122.172000
  C    -105.125000   49.642900  120.884000
  C    -104.089000   50.066800  119.984000
  C    -103.053000   50.744100  120.609000
  H    -104.186000   49.918000  118.901000
  C    -106.292000   48.776500  120.523000
  H    -107.148000   49.148700  121.112000
  H    -106.126000   47.713300  120.732000
  C    -106.816000   48.943900  119.101000
  H    -107.153000   49.980800  118.811000
  H    -105.981000   48.672600  118.426000
  C    -108.087000   48.020000  118.813000
  H    -108.943000   48.172000  119.576000
  H    -108.474000   48.274800  117.805000
  H    -107.729000   46.979100  118.917000
  S    -100.384000   51.007500  120.663000
  C    -99.600300   52.048500  119.462000
  C    -100.458000   52.468700  118.486000
  C    -101.797000   52.074400  118.703000
  C    -101.930000   51.360900  119.886000
  H    -100.012000   53.099300  117.691000
  C    -102.926000   52.533200  117.857000
  H    -102.732000   53.611500  117.733000
  H    -103.876000   52.491900  118.484000
  C    -103.139000   51.891800  116.521000
  H    -104.136000   52.211400  116.234000
  H    -103.251000   50.798100  116.669000
  C    -102.209000   52.228100  115.366000
  H    -102.071000   53.265800  115.040000
  H    -102.552000   51.620300  114.473000
  H    -101.243000   51.883000  115.518000
  H    -105.666000   49.779000  122.903000
  H    -98.574000   52.403800  119.608000

 Total Charge           Charge          ....    0
 Multiplicity           Mult            ....    1
 Number of Electrons    NEL             ....  134
 Basis Dimension        Dim             ....  322

ORBITAL ENERGIES
----------------

  NO   OCC          E(Eh)            E(eV)
   0   2.0000     -88.970447     -2421.0089
   1   2.0000     -88.961426     -2420.7635
   2   2.0000     -10.330784      -281.1149
   3   2.0000     -10.327779      -281.0332
   4   2.0000     -10.315724      -280.7051
   5   2.0000     -10.310675      -280.5677
   6   2.0000     -10.301474      -280.3174
   7   2.0000     -10.296287      -280.1762
   8   2.0000     -10.294736      -280.1340
   9   2.0000     -10.294620      -280.1309
  10   2.0000     -10.294389      -280.1246
  11   2.0000     -10.294362      -280.1238
  12   2.0000     -10.293750      -280.1072
  13   2.0000     -10.290700      -280.0242
  14   2.0000     -10.288257      -279.9577
  15   2.0000     -10.278501      -279.6922
  16   2.0000      -8.084973      -220.0033
  17   2.0000      -8.076104      -219.7620
  18   2.0000      -6.043621      -164.4553
  19   2.0000      -6.039494      -164.3430
  20   2.0000      -6.035589      -164.2367
  21   2.0000      -6.034519      -164.2076
  22   2.0000      -6.030790      -164.1061
  23   2.0000      -6.026813      -163.9979
  24   2.0000      -1.007497       -27.4154
  25   2.0000      -0.985971       -26.8296
  26   2.0000      -0.914674       -24.8895
  27   2.0000      -0.910817       -24.7846
  28   2.0000      -0.869051       -23.6481
  29   2.0000      -0.852782       -23.2054
  30   2.0000      -0.842271       -22.9194
  31   2.0000      -0.815857       -22.2006
  32   2.0000      -0.784420       -21.3452
  33   2.0000      -0.771003       -20.9801
  34   2.0000      -0.713879       -19.4256
  35   2.0000      -0.697461       -18.9789
  36   2.0000      -0.684036       -18.6136
  37   2.0000      -0.660633       -17.9767
  38   2.0000      -0.632545       -17.2124
  39   2.0000      -0.621263       -16.9054
  40   2.0000      -0.593380       -16.1467
  41   2.0000      -0.575036       -15.6475
  42   2.0000      -0.564608       -15.3638
  43   2.0000      -0.549695       -14.9580
  44   2.0000      -0.544129       -14.8065
  45   2.0000      -0.526783       -14.3345
  46   2.0000      -0.516818       -14.0633
  47   2.0000      -0.503951       -13.7132
  48   2.0000      -0.499176       -13.5833
  49   2.0000      -0.496613       -13.5135
  50   2.0000      -0.491751       -13.3812
  51   2.0000      -0.486639       -13.2421
  52   2.0000      -0.477373       -12.9900
  53   2.0000      -0.464336       -12.6352
  54   2.0000      -0.461267       -12.5517
  55   2.0000      -0.445425       -12.1206
  56   2.0000      -0.443084       -12.0569
  57   2.0000      -0.436211       -11.8699
  58   2.0000      -0.434242       -11.8163
  59   2.0000      -0.424006       -11.5378
  60   2.0000      -0.420234       -11.4352
  61   2.0000      -0.413105       -11.2412
  62   2.0000      -0.409830       -11.1520
  63   2.0000      -0.349331        -9.5058
  64   2.0000      -0.331990        -9.0339
  65   2.0000      -0.330480        -8.9928
  66   2.0000      -0.289340        -7.8733
  67   0.0000       0.027287         0.7425
  68   0.0000       0.074234         2.0200
  69   0.0000       0.105896         2.8816
  70   0.0000       0.124092         3.3767
  71   0.0000       0.132040         3.5930

MULLIKEN ATOMIC CHARGES
-----------------------
   0 S :    0.132164
   1 C :   -0.116300
   2 C :   -0.088992
   3 C :    0.013454
   4 C :   -0.122108
   5 H :    0.011700
   6 C :    0.062593
   7 H :    0.025379
   8 H :    0.052939
   9 C :   -0.155469
  10 H :    0.042971
  11 H :    0.041178
  12 C :   -0.077789
  13 H :    0.045419
  14 H :    0.048486
  15 H :    0.040294
  16 S :    0.082191
  17 C :   -0.102026
  18 C :   -0.050309
  19 C :    0.001313
  20 C :   -0.167040
  21 H :    0.033025
  22 C :    0.006774
  23 H :    0.027027
  24 H :    0.044241
  25 C :   -0.041652
  26 H :    0.022553
  27 H :    0.030620
  28 C :   -0.037591
  29 H :    0.034262
  30 H :    0.036097
  31 H :    0.015130
  32 H :    0.046744
  33 H :    0.062726
Sum of atomic charges:    0.0000000

LOEWDIN ATOMIC CHARGES
----------------------
   0 S :    0.418654
   1 C :   -0.207026
   2 C :   -0.071273
   3 C :   -0.064588
   4 C :   -0.202918
   5 H :    0.030456
   6 C :   -0.038699
   7 H :    0.035049
   8 H :    0.036747
   9 C :   -0.050272
  10 H :    0.027710
  11 H :    0.020648
  12 C :   -0.073153
  13 H :    0.032273
  14 H :    0.029283
  15 H :    0.025367
  16 S :    0.378815
  17 C :   -0.176529
  18 C :   -0.075686
  19 C :   -0.061930
  20 C :   -0.178305
  21 H :    0.041231
  22 C :   -0.043236
  23 H :    0.034160
  24 H :    0.042353
  25 C :   -0.043156
  26 H :    0.026769
  27 H :    0.027865
  28 C :   -0.068017
  29 H :    0.027654
  30 H :    0.038459
  31 H :    0.013099
  32 H :    0.037951
  33 H :    0.030246

  Mayer bond orders larger than 0.100000
B(  0-S ,  1-C ) :   1.1293 B(  0-S ,  4-C ) :   1.1512 B(  1-C ,  2-C ) :   1.6308
B(  1-C , 32-H ) :   0.9626 B(  2-C ,  3-C ) :   1.2551 B(  2-C ,  6-C ) :   1.0179
B(  3-C ,  4-C ) :   1.5412 B(  3-C ,  5-H ) :   0.9911 B(  4-C , 20-C ) :   1.0363
B(  6-C ,  7-H ) :   0.9387 B(  6-C ,  8-H ) :   0.9391 B(  6-C ,  9-C ) :   1.0624
B(  9-C , 10-H ) :   0.9640 B(  9-C , 11-H ) :   0.9474 B(  9-C , 12-C ) :   1.0708
B( 12-C , 13-H ) :   0.9760 B( 12-C , 14-H ) :   0.9757 B( 12-C , 15-H ) :   0.9759
B( 16-S , 17-C ) :   1.1366 B( 16-S , 20-C ) :   1.1400 B( 17-C , 18-C ) :   1.6427
B( 17-C , 20-C ) :   0.1006 B( 17-C , 33-H ) :   0.9636 B( 18-C , 19-C ) :   1.2038
B( 18-C , 21-H ) :   0.9855 B( 19-C , 20-C ) :   1.6147 B( 19-C , 22-C ) :   1.0399
B( 22-C , 23-H ) :   0.9316 B( 22-C , 24-H ) :   0.9326 B( 22-C , 25-C ) :   1.0798
B( 25-C , 26-H ) :   0.9501 B( 25-C , 27-H ) :   0.9453 B( 25-C , 28-C ) :   1.0844
B( 28-C , 29-H ) :   0.9742 B( 28-C , 30-H ) :   0.9683 B( 28-C , 31-H ) :   0.9714

Dispersion correction           -0.014120149
FINAL SINGLE POINT ENERGY     -1339.879958710123

DIPOLE MOMENT
-------------
                                X             Y             Z
Electronic contribution:     20.29675       3.88645      23.91675
Nuclear contribution   :    -20.72625      -3.85774     -24.46557
                        -----------------------------------------
Total Dipole Moment    :     -0.42950       0.02872      -0.54883
                        -----------------------------------------
Magnitude (a.u.)       :      0.69750
Magnitude (Debye)      :      1.77291

Rotational constants in cm-1:     0.017205     0.009220     0.006340
Rotational constants in MHz :   515.795003   276.413470   190.056107

                             ****ORCA TERMINATED NORMALLY****
TOTAL RUN TIME: 0 days 0 hours 0 minutes 33 seconds 464 msec
