                         Program Version 4.2.1 -  RELEASE  -
|  1> ! wB97X-D3 SP def2-SVP
|  2> %pal
|  3> nprocs 16
|  4> end
|  5>
|  6> * xyz 0 1
|  7> S 	 51.3542 	 24.2567 	 89.1535
|  8> C 	 49.6731 	 23.9594 	 88.7146
|  9> C 	 49.4989 	 22.642 	 88.2703
| 10> C 	 50.6624 	 21.841 	 88.4866
| 11> C 	 51.7238 	 22.5873 	 88.7809
| 12> H 	 50.9207 	 20.7955 	 88.3977
| 13> C 	 48.2039 	 22.0118 	 87.8591
| 14> H 	 47.5232 	 22.069 	 88.7755
| 15> H 	 48.4235 	 20.9568 	 87.6193
| 16> C 	 47.4768 	 22.7014 	 86.6761
| 17> H 	 47.5166 	 23.7543 	 86.694
| 18> H 	 48.0619 	 22.3073 	 85.8668
| 19> C 	 46.0002 	 22.3152 	 86.4506
| 20> H 	 45.8132 	 22.7589 	 85.446
| 21> H 	 45.9487 	 21.244 	 86.4824
| 22> H 	 45.2315 	 22.6876 	 87.1284
| 23> S 	 53.9858 	 22.7992 	 90.3428
| 24> C 	 54.9684 	 21.3711 	 90.5159
| 25> C 	 54.8705 	 20.5136 	 89.3921
| 26> C 	 53.7602 	 20.9279 	 88.5691
| 27> C 	 53.0799 	 22.0554 	 89.0329
| 28> H 	 55.6489 	 19.7968 	 89.2252
| 29> C 	 53.3074 	 19.9859 	 87.4266
| 30> H 	 54.1606 	 19.7531 	 86.7392
| 31> H 	 52.5727 	 20.5353 	 86.7885
| 32> C 	 52.6732 	 18.6824 	 87.9306
| 33> H 	 51.6681 	 18.983 	 88.3519
| 34> H 	 53.311 	 18.2504 	 88.7282
| 35> C 	 52.3729 	 17.5561 	 86.954
| 36> H 	 51.6674 	 16.7078 	 87.2576
| 37> H 	 53.2699 	 16.9678 	 86.6707
| 38> H 	 51.8863 	 18.0519 	 86.1554
| 39> H 	 48.9197 	 24.7989 	 88.8252
| 40> H 	 55.7409 	 21.2066 	 91.3063
| 41> *
| 42>
| 43>                          ****END OF INPUT****

CARTESIAN COORDINATES (ANGSTROEM)
---------------------------------
  S     51.354200   24.256700   89.153500
  C     49.673100   23.959400   88.714600
  C     49.498900   22.642000   88.270300
  C     50.662400   21.841000   88.486600
  C     51.723800   22.587300   88.780900
  H     50.920700   20.795500   88.397700
  C     48.203900   22.011800   87.859100
  H     47.523200   22.069000   88.775500
  H     48.423500   20.956800   87.619300
  C     47.476800   22.701400   86.676100
  H     47.516600   23.754300   86.694000
  H     48.061900   22.307300   85.866800
  C     46.000200   22.315200   86.450600
  H     45.813200   22.758900   85.446000
  H     45.948700   21.244000   86.482400
  H     45.231500   22.687600   87.128400
  S     53.985800   22.799200   90.342800
  C     54.968400   21.371100   90.515900
  C     54.870500   20.513600   89.392100
  C     53.760200   20.927900   88.569100
  C     53.079900   22.055400   89.032900
  H     55.648900   19.796800   89.225200
  C     53.307400   19.985900   87.426600
  H     54.160600   19.753100   86.739200
  H     52.572700   20.535300   86.788500
  C     52.673200   18.682400   87.930600
  H     51.668100   18.983000   88.351900
  H     53.311000   18.250400   88.728200
  C     52.372900   17.556100   86.954000
  H     51.667400   16.707800   87.257600
  H     53.269900   16.967800   86.670700
  H     51.886300   18.051900   86.155400
  H     48.919700   24.798900   88.825200
  H     55.740900   21.206600   91.306300

 Total Charge           Charge          ....    0
 Multiplicity           Mult            ....    1
 Number of Electrons    NEL             ....  134
 Basis Dimension        Dim             ....  322

ORBITAL ENERGIES
----------------

  NO   OCC          E(Eh)            E(eV)
   0   2.0000     -88.967139     -2420.9189
   1   2.0000     -88.964306     -2420.8419
   2   2.0000     -10.330179      -281.0985
   3   2.0000     -10.325439      -280.9695
   4   2.0000     -10.325293      -280.9655
   5   2.0000     -10.321050      -280.8500
   6   2.0000     -10.311602      -280.5929
   7   2.0000     -10.305898      -280.4377
   8   2.0000     -10.302147      -280.3357
   9   2.0000     -10.300000      -280.2772
  10   2.0000     -10.295555      -280.1563
  11   2.0000     -10.294122      -280.1173
  12   2.0000     -10.287860      -279.9469
  13   2.0000     -10.283544      -279.8295
  14   2.0000     -10.281912      -279.7850
  15   2.0000     -10.279694      -279.7247
  16   2.0000      -8.082045      -219.9236
  17   2.0000      -8.079235      -219.8472
  18   2.0000      -6.040573      -164.3724
  19   2.0000      -6.037780      -164.2963
  20   2.0000      -6.036643      -164.2654
  21   2.0000      -6.033904      -164.1909
  22   2.0000      -6.032651      -164.1568
  23   2.0000      -6.029790      -164.0789
  24   2.0000      -1.009177       -27.4611
  25   2.0000      -0.983541       -26.7635
  26   2.0000      -0.910505       -24.7761
  27   2.0000      -0.907970       -24.7071
  28   2.0000      -0.866537       -23.5797
  29   2.0000      -0.857244       -23.3268
  30   2.0000      -0.847542       -23.0628
  31   2.0000      -0.815710       -22.1966
  32   2.0000      -0.781344       -21.2614
  33   2.0000      -0.768111       -20.9014
  34   2.0000      -0.703875       -19.1534
  35   2.0000      -0.695149       -18.9160
  36   2.0000      -0.685478       -18.6528
  37   2.0000      -0.666507       -18.1366
  38   2.0000      -0.642219       -17.4757
  39   2.0000      -0.614016       -16.7082
  40   2.0000      -0.591897       -16.1063
  41   2.0000      -0.577785       -15.7223
  42   2.0000      -0.567494       -15.4423
  43   2.0000      -0.554676       -15.0935
  44   2.0000      -0.528548       -14.3825
  45   2.0000      -0.526553       -14.3282
  46   2.0000      -0.520333       -14.1590
  47   2.0000      -0.511737       -13.9251
  48   2.0000      -0.509186       -13.8557
  49   2.0000      -0.494270       -13.4498
  50   2.0000      -0.491816       -13.3830
  51   2.0000      -0.483754       -13.1636
  52   2.0000      -0.475090       -12.9279
  53   2.0000      -0.462365       -12.5816
  54   2.0000      -0.460002       -12.5173
  55   2.0000      -0.453700       -12.3458
  56   2.0000      -0.443280       -12.0623
  57   2.0000      -0.438368       -11.9286
  58   2.0000      -0.427937       -11.6447
  59   2.0000      -0.422023       -11.4838
  60   2.0000      -0.419257       -11.4085
  61   2.0000      -0.413233       -11.2446
  62   2.0000      -0.409120       -11.1327
  63   2.0000      -0.354183        -9.6378
  64   2.0000      -0.334562        -9.1039
  65   2.0000      -0.325469        -8.8565
  66   2.0000      -0.283513        -7.7148
  67   0.0000       0.023269         0.6332
  68   0.0000       0.068355         1.8600
  69   0.0000       0.093097         2.5333
  70   0.0000       0.113185         3.0799
  71   0.0000       0.129277         3.5178

MULLIKEN ATOMIC CHARGES
-----------------------
   0 S :    0.090834
   1 C :   -0.156580
   2 C :   -0.050113
   3 C :    0.014935
   4 C :   -0.097272
   5 H :   -0.033342
   6 C :    0.032602
   7 H :    0.048904
   8 H :    0.028160
   9 C :   -0.071331
  10 H :    0.024466
  11 H :    0.027469
  12 C :   -0.048567
  13 H :    0.040680
  14 H :    0.025342
  15 H :    0.038002
  16 S :    0.106046
  17 C :   -0.118713
  18 C :   -0.032269
  19 C :   -0.045397
  20 C :   -0.124925
  21 H :    0.026580
  22 C :    0.020801
  23 H :    0.035312
  24 H :    0.034339
  25 C :   -0.099859
  26 H :    0.044668
  27 H :    0.035961
  28 C :   -0.054303
  29 H :    0.045340
  30 H :    0.037219
  31 H :    0.022213
  32 H :    0.078476
  33 H :    0.074319
Sum of atomic charges:   -0.0000000

LOEWDIN ATOMIC CHARGES
----------------------
   0 S :    0.384577
   1 C :   -0.201803
   2 C :   -0.059139
   3 C :   -0.070908
   4 C :   -0.177893
   5 H :    0.034131
   6 C :   -0.039907
   7 H :    0.039342
   8 H :    0.029910
   9 C :   -0.036252
  10 H :    0.015983
  11 H :    0.026525
  12 C :   -0.064399
  13 H :    0.034980
  14 H :    0.020490
  15 H :    0.024049
  16 S :    0.403132
  17 C :   -0.186787
  18 C :   -0.069739
  19 C :   -0.055407
  20 C :   -0.193210
  21 H :    0.032426
  22 C :   -0.040325
  23 H :    0.034528
  24 H :    0.029277
  25 C :   -0.050224
  26 H :    0.026610
  27 H :    0.025198
  28 C :   -0.075447
  29 H :    0.037862
  30 H :    0.027038
  31 H :    0.018640
  32 H :    0.040080
  33 H :    0.036662

  Mayer bond orders larger than 0.100000
B(  0-S ,  1-C ) :   1.1268 B(  0-S ,  4-C ) :   1.1323 B(  1-C ,  2-C ) :   1.6084
B(  1-C , 32-H ) :   0.9646 B(  2-C ,  3-C ) :   1.1886 B(  2-C ,  6-C ) :   1.0278
B(  3-C ,  4-C ) :   1.6381 B(  3-C ,  5-H ) :   0.9844 B(  4-C , 20-C ) :   1.0279
B(  6-C ,  7-H ) :   0.9401 B(  6-C ,  8-H ) :   0.9459 B(  6-C ,  9-C ) :   1.0471
B(  9-C , 10-H ) :   0.9653 B(  9-C , 11-H ) :   0.9572 B(  9-C , 12-C ) :   1.0804
B( 12-C , 13-H ) :   0.9749 B( 12-C , 14-H ) :   0.9747 B( 12-C , 15-H ) :   0.9770
B( 16-S , 17-C ) :   1.1701 B( 16-S , 20-C ) :   1.1248 B( 17-C , 18-C ) :   1.6023
B( 17-C , 33-H ) :   0.9614 B( 18-C , 19-C ) :   1.2233 B( 18-C , 21-H ) :   0.9934
B( 19-C , 20-C ) :   1.6079 B( 19-C , 22-C ) :   1.0490 B( 22-C , 23-H ) :   0.9368
B( 22-C , 24-H ) :   0.9357 B( 22-C , 25-C ) :   1.0531 B( 25-C , 26-H ) :   0.9447
B( 25-C , 27-H ) :   0.9546 B( 25-C , 28-C ) :   1.0774 B( 28-C , 29-H ) :   0.9744
B( 28-C , 30-H ) :   0.9738 B( 28-C , 31-H ) :   0.9729

Dispersion correction           -0.013752399
FINAL SINGLE POINT ENERGY     -1339.854687067473

DIPOLE MOMENT
-------------
                                X             Y             Z
Electronic contribution:     19.00702      20.17478      16.45134
Nuclear contribution   :    -19.19746     -20.74621     -16.66838
                        -----------------------------------------
Total Dipole Moment    :     -0.19044      -0.57143      -0.21704
                        -----------------------------------------
Magnitude (a.u.)       :      0.64024
Magnitude (Debye)      :      1.62736

Rotational constants in cm-1:     0.018007     0.008648     0.006039
Rotational constants in MHz :   539.822374   259.249405   181.036118

                             ****ORCA TERMINATED NORMALLY****
TOTAL RUN TIME: 0 days 0 hours 0 minutes 28 seconds 126 msec
