                         Program Version 4.2.1 -  RELEASE  -
|  1> ! wB97X-D3 SP def2-SVP
|  2> %pal
|  3> nprocs 16
|  4> end
|  5>
|  6> * xyz 0 1
|  7> S 	 40.731 	 9.98463 	 79.0345
|  8> C 	 41.7648 	 8.99897 	 77.9236
|  9> C 	 43.0143 	 9.58131 	 77.8601
| 10> C 	 43.2649 	 10.6397 	 78.7661
| 11> C 	 42.1052 	 10.9743 	 79.5033
| 12> H 	 44.1786 	 11.2593 	 78.9161
| 13> C 	 44.0271 	 8.96153 	 76.997
| 14> H 	 43.4633 	 8.5326 	 76.1658
| 15> H 	 44.5312 	 8.20034 	 77.5941
| 16> C 	 45.0942 	 9.94818 	 76.4081
| 17> H 	 45.6262 	 10.578 	 77.1111
| 18> H 	 45.8384 	 9.41245 	 75.8298
| 19> C 	 44.4847 	 10.8919 	 75.3189
| 20> H 	 44.3105 	 10.3011 	 74.3746
| 21> H 	 43.547 	 11.3036 	 75.6541
| 22> H 	 45.1774 	 11.6622 	 75.068
| 23> S 	 42.9074 	 13.4407 	 80.4639
| 24> C 	 42.1382 	 14.1287 	 81.8731
| 25> C 	 41.2224 	 13.3048 	 82.4122
| 26> C 	 41.0612 	 12.0626 	 81.6785
| 27> C 	 41.9138 	 11.9728 	 80.5774
| 28> H 	 40.678 	 13.6178 	 83.2885
| 29> C 	 40.0339 	 11.0466 	 82.1871
| 30> H 	 39.4434 	 10.6208 	 81.3237
| 31> H 	 39.2518 	 11.5769 	 82.7555
| 32> C 	 40.6262 	 9.8465 	 83.0287
| 33> H 	 41.4199 	 9.30701 	 82.4361
| 34> H 	 39.8614 	 9.15642 	 83.1922
| 35> C 	 41.2618 	 10.2884 	 84.3252
| 36> H 	 40.47 	 10.7114 	 84.9361
| 37> H 	 41.9959 	 11.0997 	 84.2421
| 38> H 	 41.6725 	 9.44694 	 84.7881
| 39> H 	 41.3866 	 8.30432 	 77.2003
| 40> H 	 42.4694 	 15.0838 	 82.2544
| 41> *
| 42>
| 43>                          ****END OF INPUT****

CARTESIAN COORDINATES (ANGSTROEM)
---------------------------------
  S     40.731000    9.984630   79.034500
  C     41.764800    8.998970   77.923600
  C     43.014300    9.581310   77.860100
  C     43.264900   10.639700   78.766100
  C     42.105200   10.974300   79.503300
  H     44.178600   11.259300   78.916100
  C     44.027100    8.961530   76.997000
  H     43.463300    8.532600   76.165800
  H     44.531200    8.200340   77.594100
  C     45.094200    9.948180   76.408100
  H     45.626200   10.578000   77.111100
  H     45.838400    9.412450   75.829800
  C     44.484700   10.891900   75.318900
  H     44.310500   10.301100   74.374600
  H     43.547000   11.303600   75.654100
  H     45.177400   11.662200   75.068000
  S     42.907400   13.440700   80.463900
  C     42.138200   14.128700   81.873100
  C     41.222400   13.304800   82.412200
  C     41.061200   12.062600   81.678500
  C     41.913800   11.972800   80.577400
  H     40.678000   13.617800   83.288500
  C     40.033900   11.046600   82.187100
  H     39.443400   10.620800   81.323700
  H     39.251800   11.576900   82.755500
  C     40.626200    9.846500   83.028700
  H     41.419900    9.307010   82.436100
  H     39.861400    9.156420   83.192200
  C     41.261800   10.288400   84.325200
  H     40.470000   10.711400   84.936100
  H     41.995900   11.099700   84.242100
  H     41.672500    9.446940   84.788100
  H     41.386600    8.304320   77.200300
  H     42.469400   15.083800   82.254400

 Total Charge           Charge          ....    0
 Multiplicity           Mult            ....    1
 Number of Electrons    NEL             ....  134
 Basis Dimension        Dim             ....  322

ORBITAL ENERGIES
----------------

  NO   OCC          E(Eh)            E(eV)
   0   2.0000     -88.966652     -2420.9057
   1   2.0000     -88.964034     -2420.8344
   2   2.0000     -10.339708      -281.3578
   3   2.0000     -10.334519      -281.2166
   4   2.0000     -10.316624      -280.7296
   5   2.0000     -10.313106      -280.6339
   6   2.0000     -10.310163      -280.5538
   7   2.0000     -10.301089      -280.3069
   8   2.0000     -10.299336      -280.2592
   9   2.0000     -10.297525      -280.2099
  10   2.0000     -10.293960      -280.1129
  11   2.0000     -10.290977      -280.0317
  12   2.0000     -10.287263      -279.9307
  13   2.0000     -10.282550      -279.8024
  14   2.0000     -10.274444      -279.5818
  15   2.0000     -10.266473      -279.3649
  16   2.0000      -8.079922      -219.8659
  17   2.0000      -8.078791      -219.8351
  18   2.0000      -6.038499      -164.3159
  19   2.0000      -6.037381      -164.2855
  20   2.0000      -6.034601      -164.2098
  21   2.0000      -6.033339      -164.1755
  22   2.0000      -6.030738      -164.1047
  23   2.0000      -6.029439      -164.0694
  24   2.0000      -1.002560       -27.2810
  25   2.0000      -0.981903       -26.7189
  26   2.0000      -0.911497       -24.8031
  27   2.0000      -0.902128       -24.5481
  28   2.0000      -0.867635       -23.6095
  29   2.0000      -0.849771       -23.1234
  30   2.0000      -0.839921       -22.8554
  31   2.0000      -0.817889       -22.2559
  32   2.0000      -0.781705       -21.2713
  33   2.0000      -0.769085       -20.9279
  34   2.0000      -0.713056       -19.4032
  35   2.0000      -0.695574       -18.9275
  36   2.0000      -0.686321       -18.6757
  37   2.0000      -0.666481       -18.1359
  38   2.0000      -0.630231       -17.1495
  39   2.0000      -0.617931       -16.8148
  40   2.0000      -0.592934       -16.1346
  41   2.0000      -0.565827       -15.3969
  42   2.0000      -0.558979       -15.2106
  43   2.0000      -0.549061       -14.9407
  44   2.0000      -0.548066       -14.9136
  45   2.0000      -0.534907       -14.5556
  46   2.0000      -0.521644       -14.1947
  47   2.0000      -0.517312       -14.0768
  48   2.0000      -0.502025       -13.6608
  49   2.0000      -0.492335       -13.3971
  50   2.0000      -0.484029       -13.1711
  51   2.0000      -0.479119       -13.0375
  52   2.0000      -0.472522       -12.8580
  53   2.0000      -0.466972       -12.7070
  54   2.0000      -0.455485       -12.3944
  55   2.0000      -0.447598       -12.1797
  56   2.0000      -0.435755       -11.8575
  57   2.0000      -0.434189       -11.8149
  58   2.0000      -0.430141       -11.7047
  59   2.0000      -0.426279       -11.5996
  60   2.0000      -0.421724       -11.4757
  61   2.0000      -0.414294       -11.2735
  62   2.0000      -0.407114       -11.0781
  63   2.0000      -0.356301        -9.6955
  64   2.0000      -0.332670        -9.0524
  65   2.0000      -0.329840        -8.9754
  66   2.0000      -0.286497        -7.7960
  67   0.0000       0.017748         0.4829
  68   0.0000       0.080476         2.1899
  69   0.0000       0.109417         2.9774
  70   0.0000       0.113515         3.0889
  71   0.0000       0.128375         3.4933

MULLIKEN ATOMIC CHARGES
-----------------------
   0 S :    0.087024
   1 C :   -0.120209
   2 C :   -0.096134
   3 C :    0.001223
   4 C :   -0.126489
   5 H :    0.036227
   6 C :    0.078996
   7 H :    0.020330
   8 H :    0.054956
   9 C :   -0.088759
  10 H :    0.033511
  11 H :    0.025732
  12 C :   -0.071084
  13 H :    0.032480
  14 H :    0.039646
  15 H :    0.031370
  16 S :    0.078011
  17 C :   -0.081240
  18 C :   -0.022605
  19 C :   -0.052880
  20 C :   -0.125648
  21 H :    0.018843
  22 C :    0.012277
  23 H :    0.042621
  24 H :    0.023176
  25 C :   -0.047561
  26 H :    0.038586
  27 H :    0.019917
  28 C :   -0.027067
  29 H :    0.012811
  30 H :    0.040233
  31 H :    0.026323
  32 H :    0.049293
  33 H :    0.056089
Sum of atomic charges:   -0.0000000

LOEWDIN ATOMIC CHARGES
----------------------
   0 S :    0.393889
   1 C :   -0.189203
   2 C :   -0.063178
   3 C :   -0.080641
   4 C :   -0.172946
   5 H :    0.037853
   6 C :   -0.028074
   7 H :    0.032927
   8 H :    0.039320
   9 C :   -0.040659
  10 H :    0.019619
  11 H :    0.024280
  12 C :   -0.063882
  13 H :    0.028137
  14 H :    0.020874
  15 H :    0.021177
  16 S :    0.388737
  17 C :   -0.174363
  18 C :   -0.072190
  19 C :   -0.056344
  20 C :   -0.188707
  21 H :    0.033303
  22 C :   -0.041743
  23 H :    0.026327
  24 H :    0.028970
  25 C :   -0.031626
  26 H :    0.030436
  27 H :    0.015854
  28 C :   -0.061650
  29 H :    0.021179
  30 H :    0.028009
  31 H :    0.019704
  32 H :    0.026259
  33 H :    0.028354

  Mayer bond orders larger than 0.100000
B(  0-S ,  1-C ) :   1.1089 B(  0-S ,  4-C ) :   1.1733 B(  1-C ,  2-C ) :   1.6105
B(  1-C ,  4-C ) :   0.1020 B(  1-C , 32-H ) :   0.9702 B(  2-C ,  3-C ) :   1.2362
B(  2-C ,  6-C ) :   1.0250 B(  3-C ,  4-C ) :   1.5489 B(  3-C ,  5-H ) :   0.9791
B(  4-C , 20-C ) :   1.0494 B(  6-C ,  7-H ) :   0.9403 B(  6-C ,  8-H ) :   0.9369
B(  6-C ,  9-C ) :   1.0709 B(  9-C , 10-H ) :   0.9596 B(  9-C , 11-H ) :   0.9589
B(  9-C , 12-C ) :   1.0686 B( 12-C , 13-H ) :   0.9772 B( 12-C , 14-H ) :   0.9800
B( 12-C , 15-H ) :   0.9765 B( 16-S , 17-C ) :   1.1459 B( 16-S , 20-C ) :   1.1275
B( 17-C , 18-C ) :   1.6304 B( 17-C , 33-H ) :   0.9674 B( 18-C , 19-C ) :   1.2165
B( 18-C , 21-H ) :   0.9938 B( 19-C , 20-C ) :   1.6001 B( 19-C , 22-C ) :   1.0358
B( 22-C , 23-H ) :   0.9345 B( 22-C , 24-H ) :   0.9386 B( 22-C , 25-C ) :   1.0634
B( 25-C , 26-H ) :   0.9572 B( 25-C , 27-H ) :   0.9559 B( 25-C , 28-C ) :   1.0793
B( 28-C , 29-H ) :   0.9727 B( 28-C , 30-H ) :   0.9745 B( 28-C , 31-H ) :   0.9724

Dispersion correction           -0.014698293
FINAL SINGLE POINT ENERGY     -1339.888104469626

DIPOLE MOMENT
-------------
                                X             Y             Z
Electronic contribution:     -5.54866       8.73194       0.58872
Nuclear contribution   :      5.66428      -8.83097      -0.48159
                        -----------------------------------------
Total Dipole Moment    :      0.11562      -0.09903       0.10713
                        -----------------------------------------
Magnitude (a.u.)       :      0.18615
Magnitude (Debye)      :      0.47315

Rotational constants in cm-1:     0.022487     0.008288     0.006799
Rotational constants in MHz :   674.131033   248.463112   203.830912

                             ****ORCA TERMINATED NORMALLY****
TOTAL RUN TIME: 0 days 0 hours 0 minutes 30 seconds 96 msec
