                         Program Version 4.2.1 -  RELEASE  -
|  1> ! wB97X-D3 SP def2-SVP
|  2> %pal
|  3> nprocs 16
|  4> end
|  5>
|  6> * xyz 0 1
|  7> S 	 -28.7428 	 -0.385873 	 106.402
|  8> C 	 -27.4667 	 -1.41535 	 106.996
|  9> C 	 -27.0351 	 -2.25303 	 105.974
| 10> C 	 -27.6233 	 -1.94598 	 104.72
| 11> C 	 -28.7003 	 -1.06538 	 104.823
| 12> H 	 -27.3699 	 -2.22983 	 103.669
| 13> C 	 -25.935 	 -3.23914 	 106.108
| 14> H 	 -26.2694 	 -4.24402 	 106.308
| 15> H 	 -25.3918 	 -2.98964 	 107.082
| 16> C 	 -24.8811 	 -3.22975 	 104.94
| 17> H 	 -24.681 	 -2.24791 	 104.532
| 18> H 	 -23.9591 	 -3.52537 	 105.391
| 19> C 	 -25.0953 	 -4.16932 	 103.795
| 20> H 	 -26.1195 	 -4.23923 	 103.448
| 21> H 	 -24.4674 	 -3.97974 	 102.953
| 22> H 	 -24.9028 	 -5.17866 	 104.094
| 23> S 	 -28.9648 	 1.15803 	 103.255
| 24> C 	 -30.1536 	 1.18064 	 102.009
| 25> C 	 -30.7963 	 -0.00772218 	 101.942
| 26> C 	 -30.5014 	 -0.977997 	 102.962
| 27> C 	 -29.4956 	 -0.48748 	 103.784
| 28> H 	 -31.4174 	 -0.145479 	 101.071
| 29> C 	 -31.2539 	 -2.32198 	 103.159
| 30> H 	 -32.3443 	 -2.00099 	 103.098
| 31> H 	 -31.136 	 -2.76526 	 104.156
| 32> C 	 -30.9349 	 -3.30924 	 102.041
| 33> H 	 -29.9676 	 -3.63019 	 102.183
| 34> H 	 -30.8814 	 -2.65261 	 101.201
| 35> C 	 -32.0494 	 -4.36819 	 101.974
| 36> H 	 -32.9265 	 -4.14572 	 101.338
| 37> H 	 -32.3765 	 -4.77498 	 102.901
| 38> H 	 -31.6449 	 -5.26574 	 101.487
| 39> H 	 -27.1683 	 -1.49058 	 108.038
| 40> H 	 -30.1705 	 2.06491 	 101.317
| 41> *
| 42>
| 43>                          ****END OF INPUT****

CARTESIAN COORDINATES (ANGSTROEM)
---------------------------------
  S    -28.742800   -0.385873  106.402000
  C    -27.466700   -1.415350  106.996000
  C    -27.035100   -2.253030  105.974000
  C    -27.623300   -1.945980  104.720000
  C    -28.700300   -1.065380  104.823000
  H    -27.369900   -2.229830  103.669000
  C    -25.935000   -3.239140  106.108000
  H    -26.269400   -4.244020  106.308000
  H    -25.391800   -2.989640  107.082000
  C    -24.881100   -3.229750  104.940000
  H    -24.681000   -2.247910  104.532000
  H    -23.959100   -3.525370  105.391000
  C    -25.095300   -4.169320  103.795000
  H    -26.119500   -4.239230  103.448000
  H    -24.467400   -3.979740  102.953000
  H    -24.902800   -5.178660  104.094000
  S    -28.964800    1.158030  103.255000
  C    -30.153600    1.180640  102.009000
  C    -30.796300   -0.007722  101.942000
  C    -30.501400   -0.977997  102.962000
  C    -29.495600   -0.487480  103.784000
  H    -31.417400   -0.145479  101.071000
  C    -31.253900   -2.321980  103.159000
  H    -32.344300   -2.000990  103.098000
  H    -31.136000   -2.765260  104.156000
  C    -30.934900   -3.309240  102.041000
  H    -29.967600   -3.630190  102.183000
  H    -30.881400   -2.652610  101.201000
  C    -32.049400   -4.368190  101.974000
  H    -32.926500   -4.145720  101.338000
  H    -32.376500   -4.774980  102.901000
  H    -31.644900   -5.265740  101.487000
  H    -27.168300   -1.490580  108.038000
  H    -30.170500    2.064910  101.317000

 Total Charge           Charge          ....    0
 Multiplicity           Mult            ....    1
 Number of Electrons    NEL             ....  134
 Basis Dimension        Dim             ....  322

ORBITAL ENERGIES
----------------

  NO   OCC          E(Eh)            E(eV)
   0   2.0000     -88.962114     -2420.7822
   1   2.0000     -88.957360     -2420.6528
   2   2.0000     -10.325055      -280.9590
   3   2.0000     -10.321728      -280.8685
   4   2.0000     -10.317179      -280.7447
   5   2.0000     -10.312669      -280.6220
   6   2.0000     -10.309255      -280.5291
   7   2.0000     -10.299694      -280.2689
   8   2.0000     -10.297154      -280.1998
   9   2.0000     -10.295486      -280.1544
  10   2.0000     -10.295099      -280.1439
  11   2.0000     -10.291651      -280.0501
  12   2.0000     -10.282555      -279.8026
  13   2.0000     -10.279661      -279.7238
  14   2.0000     -10.279226      -279.7120
  15   2.0000     -10.269557      -279.4488
  16   2.0000      -8.077516      -219.8004
  17   2.0000      -8.072464      -219.6629
  18   2.0000      -6.035906      -164.2453
  19   2.0000      -6.031762      -164.1326
  20   2.0000      -6.030882      -164.1086
  21   2.0000      -6.028514      -164.0442
  22   2.0000      -6.026931      -164.0011
  23   2.0000      -6.023276      -163.9017
  24   2.0000      -1.007499       -27.4154
  25   2.0000      -0.984019       -26.7765
  26   2.0000      -0.912352       -24.8264
  27   2.0000      -0.911320       -24.7983
  28   2.0000      -0.873320       -23.7642
  29   2.0000      -0.849346       -23.1119
  30   2.0000      -0.844014       -22.9668
  31   2.0000      -0.813495       -22.1363
  32   2.0000      -0.784571       -21.3493
  33   2.0000      -0.772466       -21.0199
  34   2.0000      -0.712894       -19.3988
  35   2.0000      -0.704579       -19.1726
  36   2.0000      -0.693302       -18.8657
  37   2.0000      -0.653947       -17.7948
  38   2.0000      -0.644787       -17.5455
  39   2.0000      -0.617588       -16.8054
  40   2.0000      -0.601168       -16.3586
  41   2.0000      -0.569680       -15.5018
  42   2.0000      -0.561998       -15.2927
  43   2.0000      -0.541071       -14.7233
  44   2.0000      -0.531575       -14.4649
  45   2.0000      -0.523955       -14.2575
  46   2.0000      -0.522344       -14.2137
  47   2.0000      -0.513963       -13.9856
  48   2.0000      -0.505845       -13.7648
  49   2.0000      -0.501618       -13.6497
  50   2.0000      -0.492228       -13.3942
  51   2.0000      -0.487589       -13.2680
  52   2.0000      -0.472508       -12.8576
  53   2.0000      -0.464718       -12.6456
  54   2.0000      -0.462207       -12.5773
  55   2.0000      -0.449311       -12.2264
  56   2.0000      -0.436302       -11.8724
  57   2.0000      -0.434340       -11.8190
  58   2.0000      -0.432902       -11.7799
  59   2.0000      -0.425994       -11.5919
  60   2.0000      -0.423199       -11.5158
  61   2.0000      -0.414533       -11.2800
  62   2.0000      -0.409563       -11.1448
  63   2.0000      -0.334491        -9.1020
  64   2.0000      -0.328400        -8.9362
  65   2.0000      -0.321129        -8.7384
  66   2.0000      -0.303514        -8.2590
  67   0.0000       0.040078         1.0906
  68   0.0000       0.059904         1.6301
  69   0.0000       0.121931         3.3179
  70   0.0000       0.124790         3.3957
  71   0.0000       0.127840         3.4787

MULLIKEN ATOMIC CHARGES
-----------------------
   0 S :    0.114658
   1 C :   -0.125503
   2 C :   -0.067496
   3 C :    0.024132
   4 C :   -0.187498
   5 H :    0.034420
   6 C :    0.053788
   7 H :    0.034046
   8 H :    0.022692
   9 C :   -0.065969
  10 H :    0.031112
  11 H :    0.019670
  12 C :   -0.025282
  13 H :    0.019700
  14 H :    0.030439
  15 H :    0.012169
  16 S :    0.091023
  17 C :   -0.105492
  18 C :   -0.046129
  19 C :    0.002711
  20 C :   -0.197903
  21 H :    0.017424
  22 C :    0.030270
  23 H :    0.041050
  24 H :    0.039315
  25 C :   -0.005528
  26 H :    0.008383
  27 H :    0.012924
  28 C :   -0.035807
  29 H :    0.042603
  30 H :    0.025743
  31 H :    0.019970
  32 H :    0.054035
  33 H :    0.080328
Sum of atomic charges:    0.0000000

LOEWDIN ATOMIC CHARGES
----------------------
   0 S :    0.427664
   1 C :   -0.203572
   2 C :   -0.068934
   3 C :   -0.065866
   4 C :   -0.215442
   5 H :    0.041465
   6 C :   -0.032064
   7 H :    0.029694
   8 H :    0.037559
   9 C :   -0.039268
  10 H :    0.025278
  11 H :    0.024817
  12 C :   -0.064458
  13 H :    0.020001
  14 H :    0.025984
  15 H :    0.020785
  16 S :    0.383062
  17 C :   -0.192026
  18 C :   -0.083716
  19 C :   -0.048860
  20 C :   -0.190166
  21 H :    0.029065
  22 C :   -0.025343
  23 H :    0.038867
  24 H :    0.029997
  25 C :   -0.030669
  26 H :    0.015154
  27 H :    0.023692
  28 C :   -0.067835
  29 H :    0.033033
  30 H :    0.021728
  31 H :    0.028420
  32 H :    0.030681
  33 H :    0.041273

  Mayer bond orders larger than 0.100000
B(  0-S ,  1-C ) :   1.1503 B(  0-S ,  4-C ) :   1.1772 B(  1-C ,  2-C ) :   1.5899
B(  1-C ,  4-C ) :   0.1038 B(  1-C , 32-H ) :   0.9687 B(  2-C ,  3-C ) :   1.2406
B(  2-C ,  6-C ) :   1.0338 B(  3-C ,  4-C ) :   1.5719 B(  3-C ,  5-H ) :   0.9824
B(  4-C , 20-C ) :   1.0229 B(  6-C ,  7-H ) :   0.9335 B(  6-C ,  8-H ) :   0.9438
B(  6-C ,  9-C ) :   1.0575 B(  9-C , 10-H ) :   0.9647 B(  9-C , 11-H ) :   0.9551
B(  9-C , 12-C ) :   1.0781 B( 12-C , 13-H ) :   0.9749 B( 12-C , 14-H ) :   0.9721
B( 12-C , 15-H ) :   0.9697 B( 16-S , 17-C ) :   1.1482 B( 16-S , 20-C ) :   1.1396
B( 17-C , 18-C ) :   1.6350 B( 17-C , 33-H ) :   0.9610 B( 18-C , 19-C ) :   1.2026
B( 18-C , 21-H ) :   0.9877 B( 19-C , 20-C ) :   1.6248 B( 19-C , 22-C ) :   1.0246
B( 22-C , 23-H ) :   0.9460 B( 22-C , 24-H ) :   0.9391 B( 22-C , 25-C ) :   1.0493
B( 25-C , 26-H ) :   0.9535 B( 25-C , 27-H ) :   0.9614 B( 25-C , 28-C ) :   1.0689
B( 28-C , 29-H ) :   0.9758 B( 28-C , 30-H ) :   0.9749 B( 28-C , 31-H ) :   0.9720

Dispersion correction           -0.014003422
FINAL SINGLE POINT ENERGY     -1339.869470346955

DIPOLE MOMENT
-------------
                                X             Y             Z
Electronic contribution:     -3.58969      25.32193       9.39317
Nuclear contribution   :      3.73449     -25.91631      -9.72522
                        -----------------------------------------
Total Dipole Moment    :      0.14480      -0.59438      -0.33205
                        -----------------------------------------
Magnitude (a.u.)       :      0.69607
Magnitude (Debye)      :      1.76927

Rotational constants in cm-1:     0.015765     0.009236     0.007343
Rotational constants in MHz :   472.633637   276.883115   220.140393

                             ****ORCA TERMINATED NORMALLY****
TOTAL RUN TIME: 0 days 0 hours 0 minutes 28 seconds 211 msec
