                         Program Version 4.2.1 -  RELEASE  -
|  1> ! wB97X-D3 SP def2-SVP
|  2> %pal
|  3> nprocs 16
|  4> end
|  5>
|  6> * xyz 0 1
|  7> S 	 67.7157 	 25.8825 	 73.828
|  8> C 	 68.5536 	 24.4238 	 74.4136
|  9> C 	 69.608 	 24.6867 	 75.2546
| 10> C 	 69.8261 	 26.1115 	 75.3165
| 11> C 	 68.8444 	 26.872 	 74.7359
| 12> H 	 70.6363 	 26.6966 	 75.746
| 13> C 	 70.4888 	 23.7379 	 76.0394
| 14> H 	 71.18 	 23.4142 	 75.2842
| 15> H 	 69.8818 	 22.9496 	 76.3425
| 16> C 	 71.2454 	 24.3274 	 77.2128
| 17> H 	 71.7857 	 25.2649 	 76.8478
| 18> H 	 70.5837 	 24.7804 	 77.949
| 19> C 	 72.1717 	 23.1835 	 77.7477
| 20> H 	 73.0209 	 22.8284 	 77.1449
| 21> H 	 72.5712 	 23.6003 	 78.765
| 22> H 	 71.5428 	 22.3052 	 78.0518
| 23> S 	 69.2134 	 29.0531 	 73.0299
| 24> C 	 69.1854 	 30.5521 	 73.748
| 25> C 	 69.0135 	 30.54 	 75.0977
| 26> C 	 68.9636 	 29.2122 	 75.6135
| 27> C 	 68.9355 	 28.3053 	 74.5676
| 28> H 	 69.1676 	 31.4296 	 75.6303
| 29> C 	 68.7988 	 28.8926 	 77.1285
| 30> H 	 68.827 	 27.8514 	 77.3277
| 31> H 	 67.7375 	 29.2303 	 77.373
| 32> C 	 69.7551 	 29.5965 	 78.1295
| 33> H 	 69.9696 	 30.561 	 77.7489
| 34> H 	 70.7554 	 29.1008 	 78.1327
| 35> C 	 69.1608 	 29.5939 	 79.5988
| 36> H 	 68.3043 	 30.1959 	 79.7773
| 37> H 	 69.8362 	 30.0601 	 80.2822
| 38> H 	 68.9778 	 28.5786 	 79.9992
| 39> H 	 68.126 	 23.4557 	 74.0881
| 40> H 	 69.3242 	 31.5182 	 73.1975
| 41> *
| 42>
| 43>                          ****END OF INPUT****

CARTESIAN COORDINATES (ANGSTROEM)
---------------------------------
  S     67.715700   25.882500   73.828000
  C     68.553600   24.423800   74.413600
  C     69.608000   24.686700   75.254600
  C     69.826100   26.111500   75.316500
  C     68.844400   26.872000   74.735900
  H     70.636300   26.696600   75.746000
  C     70.488800   23.737900   76.039400
  H     71.180000   23.414200   75.284200
  H     69.881800   22.949600   76.342500
  C     71.245400   24.327400   77.212800
  H     71.785700   25.264900   76.847800
  H     70.583700   24.780400   77.949000
  C     72.171700   23.183500   77.747700
  H     73.020900   22.828400   77.144900
  H     72.571200   23.600300   78.765000
  H     71.542800   22.305200   78.051800
  S     69.213400   29.053100   73.029900
  C     69.185400   30.552100   73.748000
  C     69.013500   30.540000   75.097700
  C     68.963600   29.212200   75.613500
  C     68.935500   28.305300   74.567600
  H     69.167600   31.429600   75.630300
  C     68.798800   28.892600   77.128500
  H     68.827000   27.851400   77.327700
  H     67.737500   29.230300   77.373000
  C     69.755100   29.596500   78.129500
  H     69.969600   30.561000   77.748900
  H     70.755400   29.100800   78.132700
  C     69.160800   29.593900   79.598800
  H     68.304300   30.195900   79.777300
  H     69.836200   30.060100   80.282200
  H     68.977800   28.578600   79.999200
  H     68.126000   23.455700   74.088100
  H     69.324200   31.518200   73.197500

 Total Charge           Charge          ....    0
 Multiplicity           Mult            ....    1
 Number of Electrons    NEL             ....  134
 Basis Dimension        Dim             ....  322

ORBITAL ENERGIES
----------------

  NO   OCC          E(Eh)            E(eV)
   0   2.0000     -88.965897     -2420.8851
   1   2.0000     -88.960836     -2420.7474
   2   2.0000     -10.319338      -280.8035
   3   2.0000     -10.316212      -280.7184
   4   2.0000     -10.315128      -280.6889
   5   2.0000     -10.309367      -280.5321
   6   2.0000     -10.301889      -280.3287
   7   2.0000     -10.301777      -280.3256
   8   2.0000     -10.296828      -280.1909
   9   2.0000     -10.296401      -280.1793
  10   2.0000     -10.293817      -280.1090
  11   2.0000     -10.292871      -280.0833
  12   2.0000     -10.288855      -279.9740
  13   2.0000     -10.284506      -279.8556
  14   2.0000     -10.282454      -279.7998
  15   2.0000     -10.279612      -279.7225
  16   2.0000      -8.082646      -219.9400
  17   2.0000      -8.075325      -219.7408
  18   2.0000      -6.040924      -164.3819
  19   2.0000      -6.036947      -164.2737
  20   2.0000      -6.033814      -164.1884
  21   2.0000      -6.033457      -164.1787
  22   2.0000      -6.029981      -164.0841
  23   2.0000      -6.026031      -163.9766
  24   2.0000      -1.012861       -27.5614
  25   2.0000      -0.984764       -26.7968
  26   2.0000      -0.915197       -24.9038
  27   2.0000      -0.901312       -24.5259
  28   2.0000      -0.869120       -23.6500
  29   2.0000      -0.851346       -23.1663
  30   2.0000      -0.841046       -22.8860
  31   2.0000      -0.809864       -22.0375
  32   2.0000      -0.783939       -21.3321
  33   2.0000      -0.770510       -20.9667
  34   2.0000      -0.712912       -19.3993
  35   2.0000      -0.704381       -19.1672
  36   2.0000      -0.686897       -18.6914
  37   2.0000      -0.654200       -17.8017
  38   2.0000      -0.641759       -17.4632
  39   2.0000      -0.617968       -16.8158
  40   2.0000      -0.600593       -16.3430
  41   2.0000      -0.571446       -15.5498
  42   2.0000      -0.561758       -15.2862
  43   2.0000      -0.553059       -15.0495
  44   2.0000      -0.523127       -14.2350
  45   2.0000      -0.517608       -14.0848
  46   2.0000      -0.513313       -13.9680
  47   2.0000      -0.507934       -13.8216
  48   2.0000      -0.503987       -13.7142
  49   2.0000      -0.499053       -13.5799
  50   2.0000      -0.484168       -13.1749
  51   2.0000      -0.478676       -13.0254
  52   2.0000      -0.473146       -12.8749
  53   2.0000      -0.465231       -12.6596
  54   2.0000      -0.457694       -12.4545
  55   2.0000      -0.455699       -12.4002
  56   2.0000      -0.447009       -12.1637
  57   2.0000      -0.437204       -11.8969
  58   2.0000      -0.435037       -11.8380
  59   2.0000      -0.427866       -11.6428
  60   2.0000      -0.422051       -11.4846
  61   2.0000      -0.420107       -11.4317
  62   2.0000      -0.412365       -11.2210
  63   2.0000      -0.339117        -9.2278
  64   2.0000      -0.332401        -9.0451
  65   2.0000      -0.324576        -8.8322
  66   2.0000      -0.294912        -8.0250
  67   0.0000       0.041491         1.1290
  68   0.0000       0.072567         1.9747
  69   0.0000       0.117796         3.2054
  70   0.0000       0.121224         3.2987
  71   0.0000       0.130569         3.5530

MULLIKEN ATOMIC CHARGES
-----------------------
   0 S :    0.091428
   1 C :   -0.165831
   2 C :   -0.059510
   3 C :    0.003749
   4 C :   -0.178620
   5 H :    0.017464
   6 C :    0.122855
   7 H :    0.039333
   8 H :    0.013781
   9 C :   -0.109263
  10 H :    0.043249
  11 H :    0.035250
  12 C :   -0.080689
  13 H :    0.056285
  14 H :    0.041773
  15 H :    0.041591
  16 S :    0.148453
  17 C :   -0.109736
  18 C :   -0.018195
  19 C :   -0.031321
  20 C :   -0.172302
  21 H :   -0.000524
  22 C :    0.059647
  23 H :    0.018679
  24 H :    0.046569
  25 C :   -0.061662
  26 H :    0.014026
  27 H :    0.032358
  28 C :   -0.048523
  29 H :    0.026571
  30 H :    0.020428
  31 H :    0.038899
  32 H :    0.055947
  33 H :    0.067840
Sum of atomic charges:   -0.0000000

LOEWDIN ATOMIC CHARGES
----------------------
   0 S :    0.379909
   1 C :   -0.190664
   2 C :   -0.059275
   3 C :   -0.064837
   4 C :   -0.192451
   5 H :    0.031615
   6 C :   -0.028400
   7 H :    0.038636
   8 H :    0.022739
   9 C :   -0.046368
  10 H :    0.030293
  11 H :    0.025857
  12 C :   -0.073734
  13 H :    0.030228
  14 H :    0.035737
  15 H :    0.030711
  16 S :    0.451700
  17 C :   -0.214689
  18 C :   -0.077633
  19 C :   -0.048960
  20 C :   -0.218837
  21 H :    0.021754
  22 C :   -0.030623
  23 H :    0.020169
  24 H :    0.042304
  25 C :   -0.034488
  26 H :    0.014124
  27 H :    0.028450
  28 C :   -0.066425
  29 H :    0.021750
  30 H :    0.023846
  31 H :    0.030234
  32 H :    0.028266
  33 H :    0.039064

  Mayer bond orders larger than 0.100000
B(  0-S ,  1-C ) :   1.1295 B(  0-S ,  4-C ) :   1.1365 B(  1-C ,  2-C ) :   1.6349
B(  1-C , 32-H ) :   0.9705 B(  2-C ,  3-C ) :   1.2008 B(  2-C ,  6-C ) :   0.9908
B(  3-C ,  4-C ) :   1.6227 B(  3-C ,  5-H ) :   0.9803 B(  4-C , 20-C ) :   1.0298
B(  6-C ,  7-H ) :   0.9289 B(  6-C ,  8-H ) :   0.9393 B(  6-C ,  9-C ) :   1.0840
B(  9-C , 10-H ) :   0.9426 B(  9-C , 11-H ) :   0.9586 B(  9-C , 12-C ) :   1.0647
B( 12-C , 13-H ) :   0.9773 B( 12-C , 14-H ) :   0.9745 B( 12-C , 15-H ) :   0.9729
B( 16-S , 17-C ) :   1.1794 B( 16-S , 20-C ) :   1.1549 B( 17-C , 18-C ) :   1.6141
B( 17-C , 33-H ) :   0.9557 B( 18-C , 19-C ) :   1.2465 B( 18-C , 21-H ) :   0.9931
B( 19-C , 20-C ) :   1.5940 B( 19-C , 22-C ) :   1.0334 B( 22-C , 23-H ) :   0.9335
B( 22-C , 24-H ) :   0.9449 B( 22-C , 25-C ) :   1.0497 B( 25-C , 26-H ) :   0.9627
B( 25-C , 27-H ) :   0.9539 B( 25-C , 28-C ) :   1.0744 B( 28-C , 29-H ) :   0.9763
B( 28-C , 30-H ) :   0.9732 B( 28-C , 31-H ) :   0.9776

Dispersion correction           -0.013905171
FINAL SINGLE POINT ENERGY     -1339.869651407460

DIPOLE MOMENT
-------------
                                X             Y             Z
Electronic contribution:    -12.60324       5.54969     -29.04775
Nuclear contribution   :     13.04339      -5.58238      29.61838
                        -----------------------------------------
Total Dipole Moment    :      0.44015      -0.03269       0.57063
                        -----------------------------------------
Magnitude (a.u.)       :      0.72140
Magnitude (Debye)      :      1.83366

Rotational constants in cm-1:     0.015083     0.009668     0.006715
Rotational constants in MHz :   452.165922   289.831673   201.314916

                             ****ORCA TERMINATED NORMALLY****
TOTAL RUN TIME: 0 days 0 hours 0 minutes 28 seconds 407 msec
