                         Program Version 4.2.1 -  RELEASE  -
|  1> ! wB97X-D3 SP def2-SVP
|  2> %pal
|  3> nprocs 16
|  4> end
|  5>
|  6> * xyz 0 1
|  7> S 	 -44.572 	 28.885 	 86.3503
|  8> C 	 -45.5656 	 30.2333 	 85.8106
|  9> C 	 -44.9806 	 30.7629 	 84.667
| 10> C 	 -43.8036 	 30.0662 	 84.2195
| 11> C 	 -43.3624 	 29.106 	 85.1116
| 12> H 	 -43.1783 	 30.3213 	 83.3146
| 13> C 	 -45.5224 	 31.9938 	 84.0277
| 14> H 	 -46.5715 	 31.8 	 83.9771
| 15> H 	 -45.1525 	 32.1771 	 83.0652
| 16> C 	 -45.3875 	 33.2514 	 84.8623
| 17> H 	 -45.5534 	 33.0368 	 85.8696
| 18> H 	 -44.4377 	 33.7107 	 84.684
| 19> C 	 -46.2629 	 34.406 	 84.3978
| 20> H 	 -47.3114 	 34.1612 	 84.5385
| 21> H 	 -46.1239 	 35.3129 	 85.0109
| 22> H 	 -46.0675 	 34.7834 	 83.3985
| 23> S 	 -42.8033 	 26.4956 	 84.6829
| 24> C 	 -41.1582 	 25.9296 	 84.4302
| 25> C 	 -40.2689 	 26.9733 	 84.6329
| 26> C 	 -40.8581 	 28.2408 	 84.7272
| 27> C 	 -42.2632 	 28.1201 	 84.8876
| 28> H 	 -39.2006 	 26.8466 	 84.5509
| 29> C 	 -40.0771 	 29.4817 	 85.049
| 30> H 	 -39.2812 	 29.1868 	 85.7579
| 31> H 	 -40.7653 	 30.1738 	 85.6378
| 32> C 	 -39.5746 	 30.1812 	 83.721
| 33> H 	 -39.0852 	 31.157 	 83.8781
| 34> H 	 -40.4561 	 30.3588 	 83.1122
| 35> C 	 -38.5058 	 29.3814 	 82.9599
| 36> H 	 -37.9213 	 30.0203 	 82.3144
| 37> H 	 -39.038 	 28.6764 	 82.3273
| 38> H 	 -37.7717 	 28.8428 	 83.5342
| 39> H 	 -46.4309 	 30.6177 	 86.3564
| 40> H 	 -40.8976 	 24.8733 	 84.4056
| 41> *
| 42>
| 43>                          ****END OF INPUT****

CARTESIAN COORDINATES (ANGSTROEM)
---------------------------------
  S    -44.572000   28.885000   86.350300
  C    -45.565600   30.233300   85.810600
  C    -44.980600   30.762900   84.667000
  C    -43.803600   30.066200   84.219500
  C    -43.362400   29.106000   85.111600
  H    -43.178300   30.321300   83.314600
  C    -45.522400   31.993800   84.027700
  H    -46.571500   31.800000   83.977100
  H    -45.152500   32.177100   83.065200
  C    -45.387500   33.251400   84.862300
  H    -45.553400   33.036800   85.869600
  H    -44.437700   33.710700   84.684000
  C    -46.262900   34.406000   84.397800
  H    -47.311400   34.161200   84.538500
  H    -46.123900   35.312900   85.010900
  H    -46.067500   34.783400   83.398500
  S    -42.803300   26.495600   84.682900
  C    -41.158200   25.929600   84.430200
  C    -40.268900   26.973300   84.632900
  C    -40.858100   28.240800   84.727200
  C    -42.263200   28.120100   84.887600
  H    -39.200600   26.846600   84.550900
  C    -40.077100   29.481700   85.049000
  H    -39.281200   29.186800   85.757900
  H    -40.765300   30.173800   85.637800
  C    -39.574600   30.181200   83.721000
  H    -39.085200   31.157000   83.878100
  H    -40.456100   30.358800   83.112200
  C    -38.505800   29.381400   82.959900
  H    -37.921300   30.020300   82.314400
  H    -39.038000   28.676400   82.327300
  H    -37.771700   28.842800   83.534200
  H    -46.430900   30.617700   86.356400
  H    -40.897600   24.873300   84.405600

 Total Charge           Charge          ....    0
 Multiplicity           Mult            ....    1
 Number of Electrons    NEL             ....  134
 Basis Dimension        Dim             ....  322

ORBITAL ENERGIES
----------------

  NO   OCC          E(Eh)            E(eV)
   0   2.0000     -88.966190     -2420.8931
   1   2.0000     -88.965531     -2420.8752
   2   2.0000     -10.332605      -281.1645
   3   2.0000     -10.329659      -281.0843
   4   2.0000     -10.317642      -280.7573
   5   2.0000     -10.316582      -280.7285
   6   2.0000     -10.302553      -280.3467
   7   2.0000     -10.301164      -280.3089
   8   2.0000     -10.300049      -280.2786
   9   2.0000     -10.298573      -280.2384
  10   2.0000     -10.291797      -280.0540
  11   2.0000     -10.290714      -280.0246
  12   2.0000     -10.280060      -279.7346
  13   2.0000     -10.276698      -279.6432
  14   2.0000     -10.276592      -279.6403
  15   2.0000     -10.273623      -279.5595
  16   2.0000      -8.081139      -219.8990
  17   2.0000      -8.080124      -219.8714
  18   2.0000      -6.039508      -164.3434
  19   2.0000      -6.038682      -164.3209
  20   2.0000      -6.035492      -164.2341
  21   2.0000      -6.034468      -164.2062
  22   2.0000      -6.032148      -164.1431
  23   2.0000      -6.031002      -164.1119
  24   2.0000      -1.006987       -27.4015
  25   2.0000      -0.985727       -26.8230
  26   2.0000      -0.920340       -25.0437
  27   2.0000      -0.904620       -24.6159
  28   2.0000      -0.868509       -23.6333
  29   2.0000      -0.849544       -23.1173
  30   2.0000      -0.846868       -23.0445
  31   2.0000      -0.816503       -22.2182
  32   2.0000      -0.781498       -21.2656
  33   2.0000      -0.768922       -20.9234
  34   2.0000      -0.704928       -19.1821
  35   2.0000      -0.703470       -19.1424
  36   2.0000      -0.690111       -18.7789
  37   2.0000      -0.663146       -18.0451
  38   2.0000      -0.642540       -17.4844
  39   2.0000      -0.614261       -16.7149
  40   2.0000      -0.592208       -16.1148
  41   2.0000      -0.586004       -15.9460
  42   2.0000      -0.561811       -15.2877
  43   2.0000      -0.551675       -15.0118
  44   2.0000      -0.539144       -14.6709
  45   2.0000      -0.521768       -14.1980
  46   2.0000      -0.519053       -14.1242
  47   2.0000      -0.515009       -14.0141
  48   2.0000      -0.505109       -13.7447
  49   2.0000      -0.499708       -13.5978
  50   2.0000      -0.492568       -13.4034
  51   2.0000      -0.480579       -13.0772
  52   2.0000      -0.475032       -12.9263
  53   2.0000      -0.466340       -12.6898
  54   2.0000      -0.460242       -12.5238
  55   2.0000      -0.451776       -12.2935
  56   2.0000      -0.443141       -12.0585
  57   2.0000      -0.434430       -11.8214
  58   2.0000      -0.431091       -11.7306
  59   2.0000      -0.424465       -11.5503
  60   2.0000      -0.419157       -11.4058
  61   2.0000      -0.413439       -11.2502
  62   2.0000      -0.412696       -11.2300
  63   2.0000      -0.345023        -9.3886
  64   2.0000      -0.329936        -8.9780
  65   2.0000      -0.324900        -8.8410
  66   2.0000      -0.296917        -8.0795
  67   0.0000       0.031763         0.8643
  68   0.0000       0.061899         1.6844
  69   0.0000       0.113455         3.0873
  70   0.0000       0.123924         3.3721
  71   0.0000       0.132764         3.6127

MULLIKEN ATOMIC CHARGES
-----------------------
   0 S :    0.102692
   1 C :   -0.135963
   2 C :   -0.097761
   3 C :    0.033527
   4 C :   -0.157547
   5 H :    0.038676
   6 C :    0.115633
   7 H :    0.014208
   8 H :    0.000645
   9 C :   -0.034102
  10 H :    0.014575
  11 H :    0.020912
  12 C :   -0.068122
  13 H :    0.022460
  14 H :    0.029352
  15 H :    0.030812
  16 S :    0.118099
  17 C :   -0.100807
  18 C :   -0.024789
  19 C :   -0.027760
  20 C :   -0.173079
  21 H :    0.018012
  22 C :    0.010199
  23 H :    0.040375
  24 H :    0.047733
  25 C :   -0.066385
  26 H :    0.033299
  27 H :    0.028904
  28 C :   -0.049669
  29 H :    0.025610
  30 H :    0.036726
  31 H :    0.026890
  32 H :    0.062937
  33 H :    0.063706
Sum of atomic charges:    0.0000000

LOEWDIN ATOMIC CHARGES
----------------------
   0 S :    0.405859
   1 C :   -0.199642
   2 C :   -0.059681
   3 C :   -0.069966
   4 C :   -0.203421
   5 H :    0.042123
   6 C :   -0.026848
   7 H :    0.030126
   8 H :    0.021680
   9 C :   -0.030124
  10 H :    0.015111
  11 H :    0.024858
  12 C :   -0.066301
  13 H :    0.018210
  14 H :    0.029180
  15 H :    0.023629
  16 S :    0.426009
  17 C :   -0.192104
  18 C :   -0.066796
  19 C :   -0.065939
  20 C :   -0.204100
  21 H :    0.029903
  22 C :   -0.033447
  23 H :    0.033522
  24 H :    0.039934
  25 C :   -0.038070
  26 H :    0.024128
  27 H :    0.023224
  28 C :   -0.067850
  29 H :    0.024900
  30 H :    0.026468
  31 H :    0.020455
  32 H :    0.034377
  33 H :    0.030593

  Mayer bond orders larger than 0.100000
B(  0-S ,  1-C ) :   1.1356 B(  0-S ,  4-C ) :   1.1682 B(  1-C ,  2-C ) :   1.5795
B(  1-C ,  4-C ) :   0.1000 B(  1-C , 32-H ) :   0.9719 B(  2-C ,  3-C ) :   1.2577
B(  2-C ,  6-C ) :   1.0321 B(  3-C ,  4-C ) :   1.5614 B(  3-C ,  5-H ) :   0.9820
B(  4-C , 20-C ) :   0.9946 B(  6-C ,  7-H ) :   0.9343 B(  6-C ,  8-H ) :   0.9376
B(  6-C ,  9-C ) :   1.0749 B(  9-C , 10-H ) :   0.9564 B(  9-C , 11-H ) :   0.9537
B(  9-C , 12-C ) :   1.0853 B( 12-C , 13-H ) :   0.9746 B( 12-C , 14-H ) :   0.9728
B( 12-C , 15-H ) :   0.9751 B( 16-S , 17-C ) :   1.1596 B( 16-S , 20-C ) :   1.1896
B( 17-C , 18-C ) :   1.5787 B( 17-C , 20-C ) :   0.1113 B( 17-C , 33-H ) :   0.9673
B( 18-C , 19-C ) :   1.2840 B( 18-C , 21-H ) :   0.9806 B( 19-C , 20-C ) :   1.5530
B( 19-C , 22-C ) :   1.0274 B( 22-C , 23-H ) :   0.9543 B( 22-C , 24-H ) :   0.9444
B( 22-C , 25-C ) :   1.0492 B( 25-C , 26-H ) :   0.9638 B( 25-C , 27-H ) :   0.9580
B( 25-C , 28-C ) :   1.0701 B( 28-C , 29-H ) :   0.9750 B( 28-C , 30-H ) :   0.9751
B( 28-C , 31-H ) :   0.9766

Dispersion correction           -0.014067974
FINAL SINGLE POINT ENERGY     -1339.876994264726

DIPOLE MOMENT
-------------
                                X             Y             Z
Electronic contribution:     -6.82218     -25.05795       9.23413
Nuclear contribution   :      7.06544      25.57440      -9.43103
                        -----------------------------------------
Total Dipole Moment    :      0.24326       0.51645      -0.19690
                        -----------------------------------------
Magnitude (a.u.)       :      0.60388
Magnitude (Debye)      :      1.53493

Rotational constants in cm-1:     0.020752     0.007825     0.006093
Rotational constants in MHz :   622.140394   234.586880   182.657832

                             ****ORCA TERMINATED NORMALLY****
TOTAL RUN TIME: 0 days 0 hours 0 minutes 29 seconds 94 msec
