                         Program Version 4.2.1 -  RELEASE  -
|  1> ! wB97X-D3 SP def2-SVP
|  2> %pal
|  3> nprocs 16
|  4> end
|  5>
|  6> * xyz 0 1
|  7> S 	 -89.58 	 42.972 	 119.512
|  8> C 	 -88.9833 	 41.3846 	 119.882
|  9> C 	 -89.4128 	 40.4409 	 118.937
| 10> C 	 -89.9959 	 41.1076 	 117.788
| 11> C 	 -90.0963 	 42.4721 	 117.956
| 12> H 	 -90.3619 	 40.5432 	 116.946
| 13> C 	 -89.3554 	 38.9418 	 119.055
| 14> H 	 -88.7381 	 38.8449 	 119.963
| 15> H 	 -88.8767 	 38.5562 	 118.17
| 16> C 	 -90.68 	 38.2695 	 119.33
| 17> H 	 -91.1495 	 38.6257 	 120.259
| 18> H 	 -91.3372 	 38.5399 	 118.542
| 19> C 	 -90.609 	 36.7502 	 119.219
| 20> H 	 -90.5775 	 36.429 	 118.158
| 21> H 	 -89.6184 	 36.4259 	 119.601
| 22> H 	 -91.4609 	 36.2407 	 119.628
| 23> S 	 -92.1795 	 44.3341 	 117.41
| 24> C 	 -92.0852 	 45.1812 	 115.876
| 25> C 	 -91.1323 	 44.6129 	 115.046
| 26> C 	 -90.3781 	 43.6454 	 115.694
| 27> C 	 -90.6988 	 43.417 	 117.012
| 28> H 	 -91.0484 	 44.9427 	 113.993
| 29> C 	 -89.1581 	 43.0303 	 115.047
| 30> H 	 -88.5323 	 42.6022 	 115.856
| 31> H 	 -88.5575 	 43.7934 	 114.632
| 32> C 	 -89.3979 	 41.9162 	 114.045
| 33> H 	 -90.1039 	 42.2614 	 113.3
| 34> H 	 -89.7543 	 40.9917 	 114.592
| 35> C 	 -88.0981 	 41.5929 	 113.28
| 36> H 	 -87.4466 	 41.0335 	 114.011
| 37> H 	 -87.6003 	 42.5099 	 112.916
| 38> H 	 -88.2747 	 41.0332 	 112.339
| 39> H 	 -88.1885 	 41.2103 	 120.645
| 40> H 	 -92.8721 	 45.9231 	 115.655
| 41> *
| 42>
| 43>                          ****END OF INPUT****

CARTESIAN COORDINATES (ANGSTROEM)
---------------------------------
  S    -89.580000   42.972000  119.512000
  C    -88.983300   41.384600  119.882000
  C    -89.412800   40.440900  118.937000
  C    -89.995900   41.107600  117.788000
  C    -90.096300   42.472100  117.956000
  H    -90.361900   40.543200  116.946000
  C    -89.355400   38.941800  119.055000
  H    -88.738100   38.844900  119.963000
  H    -88.876700   38.556200  118.170000
  C    -90.680000   38.269500  119.330000
  H    -91.149500   38.625700  120.259000
  H    -91.337200   38.539900  118.542000
  C    -90.609000   36.750200  119.219000
  H    -90.577500   36.429000  118.158000
  H    -89.618400   36.425900  119.601000
  H    -91.460900   36.240700  119.628000
  S    -92.179500   44.334100  117.410000
  C    -92.085200   45.181200  115.876000
  C    -91.132300   44.612900  115.046000
  C    -90.378100   43.645400  115.694000
  C    -90.698800   43.417000  117.012000
  H    -91.048400   44.942700  113.993000
  C    -89.158100   43.030300  115.047000
  H    -88.532300   42.602200  115.856000
  H    -88.557500   43.793400  114.632000
  C    -89.397900   41.916200  114.045000
  H    -90.103900   42.261400  113.300000
  H    -89.754300   40.991700  114.592000
  C    -88.098100   41.592900  113.280000
  H    -87.446600   41.033500  114.011000
  H    -87.600300   42.509900  112.916000
  H    -88.274700   41.033200  112.339000
  H    -88.188500   41.210300  120.645000
  H    -92.872100   45.923100  115.655000

 Total Charge           Charge          ....    0
 Multiplicity           Mult            ....    1
 Number of Electrons    NEL             ....  134
 Basis Dimension        Dim             ....  322

ORBITAL ENERGIES
----------------

  NO   OCC          E(Eh)            E(eV)
   0   2.0000     -88.967175     -2420.9199
   1   2.0000     -88.963041     -2420.8074
   2   2.0000     -10.328660      -281.0571
   3   2.0000     -10.324914      -280.9552
   4   2.0000     -10.320094      -280.8240
   5   2.0000     -10.318193      -280.7723
   6   2.0000     -10.304131      -280.3897
   7   2.0000     -10.295325      -280.1500
   8   2.0000     -10.295002      -280.1412
   9   2.0000     -10.293875      -280.1106
  10   2.0000     -10.292298      -280.0677
  11   2.0000     -10.287614      -279.9402
  12   2.0000     -10.284173      -279.8466
  13   2.0000     -10.282963      -279.8137
  14   2.0000     -10.280811      -279.7551
  15   2.0000     -10.280531      -279.7475
  16   2.0000      -8.082827      -219.9449
  17   2.0000      -8.077415      -219.7976
  18   2.0000      -6.041198      -164.3893
  19   2.0000      -6.037191      -164.2803
  20   2.0000      -6.035807      -164.2427
  21   2.0000      -6.033694      -164.1851
  22   2.0000      -6.032091      -164.1415
  23   2.0000      -6.028218      -164.0361
  24   2.0000      -1.008638       -27.4464
  25   2.0000      -0.986339       -26.8396
  26   2.0000      -0.919445       -25.0194
  27   2.0000      -0.909088       -24.7375
  28   2.0000      -0.868252       -23.6263
  29   2.0000      -0.852711       -23.2034
  30   2.0000      -0.847754       -23.0686
  31   2.0000      -0.812254       -22.1025
  32   2.0000      -0.781075       -21.2541
  33   2.0000      -0.767749       -20.8915
  34   2.0000      -0.704936       -19.1823
  35   2.0000      -0.695069       -18.9138
  36   2.0000      -0.690916       -18.8008
  37   2.0000      -0.660041       -17.9606
  38   2.0000      -0.640448       -17.4275
  39   2.0000      -0.622711       -16.9448
  40   2.0000      -0.598690       -16.2912
  41   2.0000      -0.575752       -15.6670
  42   2.0000      -0.569232       -15.4896
  43   2.0000      -0.560534       -15.2529
  44   2.0000      -0.533068       -14.5055
  45   2.0000      -0.525876       -14.3098
  46   2.0000      -0.519246       -14.1294
  47   2.0000      -0.509484       -13.8638
  48   2.0000      -0.503733       -13.7073
  49   2.0000      -0.500412       -13.6169
  50   2.0000      -0.492517       -13.4021
  51   2.0000      -0.473436       -12.8828
  52   2.0000      -0.465947       -12.6791
  53   2.0000      -0.463130       -12.6024
  54   2.0000      -0.457553       -12.4507
  55   2.0000      -0.452762       -12.3203
  56   2.0000      -0.446281       -12.1439
  57   2.0000      -0.439965       -11.9721
  58   2.0000      -0.432055       -11.7568
  59   2.0000      -0.429440       -11.6857
  60   2.0000      -0.417907       -11.3718
  61   2.0000      -0.414466       -11.2782
  62   2.0000      -0.409400       -11.1403
  63   2.0000      -0.341954        -9.3050
  64   2.0000      -0.333340        -9.0707
  65   2.0000      -0.329333        -8.9616
  66   2.0000      -0.292962        -7.9719
  67   0.0000       0.032738         0.8908
  68   0.0000       0.061291         1.6678
  69   0.0000       0.113275         3.0824
  70   0.0000       0.118980         3.2376
  71   0.0000       0.125076         3.4035

MULLIKEN ATOMIC CHARGES
-----------------------
   0 S :    0.126897
   1 C :   -0.147850
   2 C :   -0.122771
   3 C :    0.038862
   4 C :   -0.171011
   5 H :    0.010443
   6 C :    0.079358
   7 H :    0.016919
   8 H :    0.027589
   9 C :   -0.057676
  10 H :    0.036500
  11 H :    0.014745
  12 C :   -0.042533
  13 H :    0.025593
  14 H :    0.028146
  15 H :    0.040152
  16 S :    0.093400
  17 C :   -0.116235
  18 C :   -0.034348
  19 C :    0.003692
  20 C :   -0.142441
  21 H :    0.031880
  22 C :    0.042645
  23 H :    0.029848
  24 H :    0.011916
  25 C :   -0.070744
  26 H :    0.023015
  27 H :    0.037136
  28 C :   -0.073482
  29 H :    0.043513
  30 H :    0.030240
  31 H :    0.041038
  32 H :    0.073797
  33 H :    0.071766
Sum of atomic charges:    0.0000000

LOEWDIN ATOMIC CHARGES
----------------------
   0 S :    0.431913
   1 C :   -0.216125
   2 C :   -0.058296
   3 C :   -0.058792
   4 C :   -0.205049
   5 H :    0.028143
   6 C :   -0.032174
   7 H :    0.033451
   8 H :    0.029408
   9 C :   -0.040408
  10 H :    0.029377
  11 H :    0.018692
  12 C :   -0.064977
  13 H :    0.027153
  14 H :    0.025442
  15 H :    0.026017
  16 S :    0.382818
  17 C :   -0.179971
  18 C :   -0.076167
  19 C :   -0.061354
  20 C :   -0.189662
  21 H :    0.039893
  22 C :   -0.032458
  23 H :    0.033755
  24 H :    0.022131
  25 C :   -0.041205
  26 H :    0.018662
  27 H :    0.028142
  28 C :   -0.072631
  29 H :    0.031174
  30 H :    0.024568
  31 H :    0.028032
  32 H :    0.038116
  33 H :    0.032381

  Mayer bond orders larger than 0.100000
B(  0-S ,  1-C ) :   1.1477 B(  0-S ,  4-C ) :   1.1713 B(  1-C ,  2-C ) :   1.6000
B(  1-C , 32-H ) :   0.9590 B(  2-C ,  3-C ) :   1.2481 B(  2-C ,  6-C ) :   1.0318
B(  3-C ,  4-C ) :   1.5481 B(  3-C ,  5-H ) :   0.9959 B(  4-C , 20-C ) :   1.0209
B(  6-C ,  7-H ) :   0.9281 B(  6-C ,  8-H ) :   0.9372 B(  6-C ,  9-C ) :   1.0758
B(  9-C , 10-H ) :   0.9535 B(  9-C , 11-H ) :   0.9560 B(  9-C , 12-C ) :   1.0765
B( 12-C , 13-H ) :   0.9749 B( 12-C , 14-H ) :   0.9748 B( 12-C , 15-H ) :   0.9741
B( 16-S , 17-C ) :   1.1662 B( 16-S , 20-C ) :   1.1336 B( 17-C , 18-C ) :   1.5766
B( 17-C , 20-C ) :   0.1066 B( 17-C , 33-H ) :   0.9657 B( 18-C , 19-C ) :   1.2548
B( 18-C , 21-H ) :   0.9920 B( 19-C , 20-C ) :   1.6037 B( 19-C , 22-C ) :   1.0368
B( 22-C , 23-H ) :   0.9295 B( 22-C , 24-H ) :   0.9424 B( 22-C , 25-C ) :   1.0664
B( 25-C , 26-H ) :   0.9574 B( 25-C , 27-H ) :   0.9504 B( 25-C , 28-C ) :   1.0799
B( 28-C , 29-H ) :   0.9759 B( 28-C , 30-H ) :   0.9735 B( 28-C , 31-H ) :   0.9751

Dispersion correction           -0.014027386
FINAL SINGLE POINT ENERGY     -1339.883247018167

DIPOLE MOMENT
-------------
                                X             Y             Z
Electronic contribution:     -8.55329      24.72644      12.02683
Nuclear contribution   :      8.69590     -25.18143     -12.42881
                        -----------------------------------------
Total Dipole Moment    :      0.14261      -0.45500      -0.40198
                        -----------------------------------------
Magnitude (a.u.)       :      0.62366
Magnitude (Debye)      :      1.58521

Rotational constants in cm-1:     0.016899     0.008594     0.006837
Rotational constants in MHz :   506.613626   257.640269   204.968345

                             ****ORCA TERMINATED NORMALLY****
TOTAL RUN TIME: 0 days 0 hours 0 minutes 31 seconds 874 msec
