                         Program Version 4.2.1 -  RELEASE  -
|  1> ! wB97X-D3 SP def2-SVP
|  2> %pal
|  3> nprocs 16
|  4> end
|  5>
|  6> * xyz 0 1
|  7> S 	 58.1671 	 -5.83665 	 88.3973
|  8> C 	 56.5274 	 -6.28786 	 87.8568
|  9> C 	 55.8648 	 -5.22413 	 87.2621
| 10> C 	 56.6897 	 -4.07289 	 87.2427
| 11> C 	 57.9717 	 -4.2689 	 87.6585
| 12> H 	 56.4349 	 -3.11067 	 86.794
| 13> C 	 54.4414 	 -5.07409 	 86.6855
| 14> H 	 54.1333 	 -6.13011 	 86.6798
| 15> H 	 54.48 	 -4.67504 	 85.7204
| 16> C 	 53.3423 	 -4.40236 	 87.5473
| 17> H 	 52.3314 	 -4.39779 	 86.9891
| 18> H 	 53.1567 	 -5.02765 	 88.4538
| 19> C 	 53.5219 	 -2.90767 	 87.7972
| 20> H 	 52.5671 	 -2.63678 	 88.2717
| 21> H 	 54.2086 	 -2.73083 	 88.5663
| 22> H 	 53.7325 	 -2.26461 	 86.9919
| 23> S 	 60.2473 	 -3.5512 	 86.1713
| 24> C 	 60.892 	 -1.99246 	 86.4482
| 25> C 	 60.329 	 -1.29171 	 87.4859
| 26> C 	 59.1921 	 -1.98555 	 87.9732
| 27> C 	 59.0379 	 -3.27175 	 87.4892
| 28> H 	 60.7119 	 -0.373621 	 87.7798
| 29> C 	 58.3509 	 -1.47074 	 89.1212
| 30> H 	 58.3173 	 -2.28022 	 89.9567
| 31> H 	 57.3542 	 -1.36034 	 88.7868
| 32> C 	 58.7921 	 -0.264851 	 89.8974
| 33> H 	 58.8643 	 0.629058 	 89.2356
| 34> H 	 59.8236 	 -0.425068 	 90.208
| 35> C 	 57.7836 	 0.0177597 	 91.0563
| 36> H 	 57.8875 	 1.04135 	 91.5038
| 37> H 	 57.8588 	 -0.796862 	 91.7813
| 38> H 	 56.8 	 -0.210837 	 90.6958
| 39> H 	 56.0508 	 -7.18686 	 88.0111
| 40> H 	 61.7698 	 -1.61793 	 85.8824
| 41> *
| 42>
| 43>                          ****END OF INPUT****

CARTESIAN COORDINATES (ANGSTROEM)
---------------------------------
  S     58.167100   -5.836650   88.397300
  C     56.527400   -6.287860   87.856800
  C     55.864800   -5.224130   87.262100
  C     56.689700   -4.072890   87.242700
  C     57.971700   -4.268900   87.658500
  H     56.434900   -3.110670   86.794000
  C     54.441400   -5.074090   86.685500
  H     54.133300   -6.130110   86.679800
  H     54.480000   -4.675040   85.720400
  C     53.342300   -4.402360   87.547300
  H     52.331400   -4.397790   86.989100
  H     53.156700   -5.027650   88.453800
  C     53.521900   -2.907670   87.797200
  H     52.567100   -2.636780   88.271700
  H     54.208600   -2.730830   88.566300
  H     53.732500   -2.264610   86.991900
  S     60.247300   -3.551200   86.171300
  C     60.892000   -1.992460   86.448200
  C     60.329000   -1.291710   87.485900
  C     59.192100   -1.985550   87.973200
  C     59.037900   -3.271750   87.489200
  H     60.711900   -0.373621   87.779800
  C     58.350900   -1.470740   89.121200
  H     58.317300   -2.280220   89.956700
  H     57.354200   -1.360340   88.786800
  C     58.792100   -0.264851   89.897400
  H     58.864300    0.629058   89.235600
  H     59.823600   -0.425068   90.208000
  C     57.783600    0.017760   91.056300
  H     57.887500    1.041350   91.503800
  H     57.858800   -0.796862   91.781300
  H     56.800000   -0.210837   90.695800
  H     56.050800   -7.186860   88.011100
  H     61.769800   -1.617930   85.882400

 Total Charge           Charge          ....    0
 Multiplicity           Mult            ....    1
 Number of Electrons    NEL             ....  134
 Basis Dimension        Dim             ....  322

ORBITAL ENERGIES
----------------

  NO   OCC          E(Eh)            E(eV)
   0   2.0000     -88.969209     -2420.9753
   1   2.0000     -88.963603     -2420.8227
   2   2.0000     -10.324872      -280.9540
   3   2.0000     -10.324724      -280.9500
   4   2.0000     -10.316041      -280.7137
   5   2.0000     -10.313845      -280.6540
   6   2.0000     -10.303083      -280.3611
   7   2.0000     -10.301183      -280.3095
   8   2.0000     -10.299033      -280.2509
   9   2.0000     -10.292193      -280.0648
  10   2.0000     -10.289624      -279.9949
  11   2.0000     -10.287847      -279.9465
  12   2.0000     -10.287202      -279.9290
  13   2.0000     -10.286525      -279.9106
  14   2.0000     -10.283255      -279.8216
  15   2.0000     -10.270522      -279.4751
  16   2.0000      -8.083236      -219.9560
  17   2.0000      -8.078419      -219.8250
  18   2.0000      -6.041805      -164.4059
  19   2.0000      -6.037939      -164.3007
  20   2.0000      -6.036785      -164.2693
  21   2.0000      -6.033884      -164.1903
  22   2.0000      -6.032934      -164.1645
  23   2.0000      -6.029309      -164.0658
  24   2.0000      -1.004479       -27.3333
  25   2.0000      -0.984370       -26.7861
  26   2.0000      -0.912243       -24.8234
  27   2.0000      -0.908605       -24.7244
  28   2.0000      -0.868577       -23.6352
  29   2.0000      -0.851118       -23.1601
  30   2.0000      -0.847173       -23.0528
  31   2.0000      -0.813987       -22.1497
  32   2.0000      -0.788542       -21.4573
  33   2.0000      -0.771992       -21.0070
  34   2.0000      -0.706939       -19.2368
  35   2.0000      -0.701810       -19.0972
  36   2.0000      -0.695392       -18.9226
  37   2.0000      -0.651997       -17.7417
  38   2.0000      -0.642039       -17.4708
  39   2.0000      -0.615063       -16.7367
  40   2.0000      -0.600479       -16.3399
  41   2.0000      -0.577145       -15.7049
  42   2.0000      -0.568825       -15.4785
  43   2.0000      -0.552963       -15.0469
  44   2.0000      -0.539189       -14.6721
  45   2.0000      -0.524548       -14.2737
  46   2.0000      -0.522582       -14.2202
  47   2.0000      -0.515664       -14.0319
  48   2.0000      -0.500951       -13.6316
  49   2.0000      -0.491478       -13.3738
  50   2.0000      -0.482107       -13.1188
  51   2.0000      -0.478723       -13.0267
  52   2.0000      -0.475401       -12.9363
  53   2.0000      -0.468977       -12.7615
  54   2.0000      -0.458631       -12.4800
  55   2.0000      -0.457565       -12.4510
  56   2.0000      -0.443272       -12.0620
  57   2.0000      -0.439727       -11.9656
  58   2.0000      -0.432305       -11.7636
  59   2.0000      -0.422958       -11.5093
  60   2.0000      -0.419679       -11.4200
  61   2.0000      -0.414905       -11.2901
  62   2.0000      -0.404184       -10.9984
  63   2.0000      -0.338417        -9.2088
  64   2.0000      -0.330907        -9.0044
  65   2.0000      -0.328500        -8.9389
  66   2.0000      -0.299949        -8.1620
  67   0.0000       0.037908         1.0315
  68   0.0000       0.059469         1.6182
  69   0.0000       0.115750         3.1497
  70   0.0000       0.121041         3.2937
  71   0.0000       0.129084         3.5125

MULLIKEN ATOMIC CHARGES
-----------------------
   0 S :    0.117365
   1 C :   -0.093646
   2 C :   -0.092001
   3 C :    0.033290
   4 C :   -0.165567
   5 H :    0.014386
   6 C :    0.102530
   7 H :    0.015880
   8 H :    0.026748
   9 C :   -0.113969
  10 H :    0.039718
  11 H :    0.037586
  12 C :   -0.020134
  13 H :    0.026353
  14 H :    0.021688
  15 H :    0.030774
  16 S :    0.108209
  17 C :   -0.087004
  18 C :   -0.019246
  19 C :   -0.003697
  20 C :   -0.165379
  21 H :   -0.008498
  22 C :    0.012690
  23 H :    0.046073
  24 H :    0.018227
  25 C :   -0.088978
  26 H :    0.027202
  27 H :    0.029888
  28 C :   -0.017224
  29 H :    0.056194
  30 H :    0.023034
  31 H :    0.015015
  32 H :    0.008870
  33 H :    0.063624
Sum of atomic charges:   -0.0000000

LOEWDIN ATOMIC CHARGES
----------------------
   0 S :    0.397520
   1 C :   -0.175265
   2 C :   -0.059603
   3 C :   -0.060004
   4 C :   -0.201657
   5 H :    0.031978
   6 C :   -0.027411
   7 H :    0.033345
   8 H :    0.023995
   9 C :   -0.041742
  10 H :    0.033813
  11 H :    0.030390
  12 C :   -0.066932
  13 H :    0.032880
  14 H :    0.016332
  15 H :    0.019787
  16 S :    0.400365
  17 C :   -0.187821
  18 C :   -0.073553
  19 C :   -0.048256
  20 C :   -0.189118
  21 H :    0.021820
  22 C :   -0.038694
  23 H :    0.044672
  24 H :    0.022709
  25 C :   -0.047467
  26 H :    0.020219
  27 H :    0.021721
  28 C :   -0.063415
  29 H :    0.035554
  30 H :    0.026819
  31 H :    0.022701
  32 H :    0.010556
  33 H :    0.033760

  Mayer bond orders larger than 0.100000
B(  0-S ,  1-C ) :   1.1285 B(  0-S ,  4-C ) :   1.1378 B(  1-C ,  2-C ) :   1.6317
B(  1-C , 32-H ) :   0.9744 B(  2-C ,  3-C ) :   1.2326 B(  2-C ,  6-C ) :   1.0084
B(  3-C ,  4-C ) :   1.6065 B(  3-C ,  5-H ) :   0.9870 B(  4-C , 20-C ) :   1.0169
B(  6-C ,  7-H ) :   0.9344 B(  6-C ,  8-H ) :   0.9440 B(  6-C ,  9-C ) :   1.0801
B(  9-C , 10-H ) :   0.9598 B(  9-C , 11-H ) :   0.9534 B(  9-C , 12-C ) :   1.0772
B( 12-C , 13-H ) :   0.9707 B( 12-C , 14-H ) :   0.9708 B( 12-C , 15-H ) :   0.9743
B( 16-S , 17-C ) :   1.1858 B( 16-S , 20-C ) :   1.1205 B( 17-C , 18-C ) :   1.5944
B( 17-C , 33-H ) :   0.9538 B( 18-C , 19-C ) :   1.2356 B( 18-C , 21-H ) :   1.0033
B( 19-C , 20-C ) :   1.6226 B( 19-C , 22-C ) :   1.0210 B( 22-C , 23-H ) :   0.9453
B( 22-C , 24-H ) :   0.9197 B( 22-C , 25-C ) :   1.0879 B( 25-C , 26-H ) :   0.9466
B( 25-C , 27-H ) :   0.9511 B( 25-C , 28-C ) :   1.0697 B( 28-C , 29-H ) :   0.9733
B( 28-C , 30-H ) :   0.9713 B( 28-C , 31-H ) :   0.9710

Dispersion correction           -0.014318096
FINAL SINGLE POINT ENERGY     -1339.861800757518

DIPOLE MOMENT
-------------
                                X             Y             Z
Electronic contribution:     21.24797     -16.44441     -10.64768
Nuclear contribution   :    -21.74670      16.89067      10.74358
                        -----------------------------------------
Total Dipole Moment    :     -0.49873       0.44626       0.09590
                        -----------------------------------------
Magnitude (a.u.)       :      0.67607
Magnitude (Debye)      :      1.71844

Rotational constants in cm-1:     0.015751     0.009486     0.007124
Rotational constants in MHz :   472.200934   284.392300   213.559242

                             ****ORCA TERMINATED NORMALLY****
TOTAL RUN TIME: 0 days 0 hours 0 minutes 30 seconds 91 msec
