                         Program Version 4.2.1 -  RELEASE  -
|  1> ! wB97X-D3 SP def2-SVP
|  2> %pal
|  3> nprocs 16
|  4> end
|  5>
|  6> * xyz 0 1
|  7> S 	 -0.126903 	 -24.8657 	 58.9072
|  8> C 	 0.169368 	 -26.5008 	 59.4998
|  9> C 	 1.46681 	 -26.8739 	 59.2287
| 10> C 	 2.25931 	 -25.8274 	 58.7536
| 11> C 	 1.60044 	 -24.5951 	 58.7602
| 12> H 	 3.32239 	 -25.7843 	 58.5248
| 13> C 	 1.98106 	 -28.2932 	 59.2992
| 14> H 	 2.42247 	 -28.6196 	 58.3352
| 15> H 	 1.13265 	 -29.0108 	 59.4455
| 16> C 	 3.07065 	 -28.5588 	 60.3227
| 17> H 	 3.37104 	 -29.615 	 60.2767
| 18> H 	 4.00883 	 -28.0216 	 60.0489
| 19> C 	 2.76743 	 -28.1237 	 61.7363
| 20> H 	 3.00076 	 -27.1048 	 61.8925
| 21> H 	 1.80574 	 -28.4593 	 62.1011
| 22> H 	 3.36076 	 -28.721 	 62.4167
| 23> S 	 1.48385 	 -22.6309 	 56.8874
| 24> C 	 2.61132 	 -21.2736 	 56.9866
| 25> C 	 3.2531 	 -21.2444 	 58.2054
| 26> C 	 3.09596 	 -22.47 	 58.8985
| 27> C 	 2.07896 	 -23.2534 	 58.378
| 28> H 	 3.90528 	 -20.4368 	 58.4932
| 29> C 	 3.79073 	 -22.7868 	 60.1765
| 30> H 	 3.96139 	 -23.84 	 60.2366
| 31> H 	 3.01055 	 -22.5369 	 60.8673
| 32> C 	 5.0262 	 -21.9919 	 60.5588
| 33> H 	 5.27445 	 -22.3041 	 61.6036
| 34> H 	 4.78554 	 -20.9441 	 60.6151
| 35> C 	 6.23924 	 -22.1492 	 59.7022
| 36> H 	 6.86426 	 -21.3497 	 59.7862
| 37> H 	 5.78504 	 -22.2057 	 58.7074
| 38> H 	 6.68739 	 -23.0715 	 59.9912
| 39> H 	 -0.514143 	 -27.2876 	 59.6938
| 40> H 	 2.72391 	 -20.5555 	 56.2236
| 41> *
| 42>
| 43>                          ****END OF INPUT****

CARTESIAN COORDINATES (ANGSTROEM)
---------------------------------
  S     -0.126903  -24.865700   58.907200
  C      0.169368  -26.500800   59.499800
  C      1.466810  -26.873900   59.228700
  C      2.259310  -25.827400   58.753600
  C      1.600440  -24.595100   58.760200
  H      3.322390  -25.784300   58.524800
  C      1.981060  -28.293200   59.299200
  H      2.422470  -28.619600   58.335200
  H      1.132650  -29.010800   59.445500
  C      3.070650  -28.558800   60.322700
  H      3.371040  -29.615000   60.276700
  H      4.008830  -28.021600   60.048900
  C      2.767430  -28.123700   61.736300
  H      3.000760  -27.104800   61.892500
  H      1.805740  -28.459300   62.101100
  H      3.360760  -28.721000   62.416700
  S      1.483850  -22.630900   56.887400
  C      2.611320  -21.273600   56.986600
  C      3.253100  -21.244400   58.205400
  C      3.095960  -22.470000   58.898500
  C      2.078960  -23.253400   58.378000
  H      3.905280  -20.436800   58.493200
  C      3.790730  -22.786800   60.176500
  H      3.961390  -23.840000   60.236600
  H      3.010550  -22.536900   60.867300
  C      5.026200  -21.991900   60.558800
  H      5.274450  -22.304100   61.603600
  H      4.785540  -20.944100   60.615100
  C      6.239240  -22.149200   59.702200
  H      6.864260  -21.349700   59.786200
  H      5.785040  -22.205700   58.707400
  H      6.687390  -23.071500   59.991200
  H     -0.514143  -27.287600   59.693800
  H      2.723910  -20.555500   56.223600

 Total Charge           Charge          ....    0
 Multiplicity           Mult            ....    1
 Number of Electrons    NEL             ....  134
 Basis Dimension        Dim             ....  322

ORBITAL ENERGIES
----------------

  NO   OCC          E(Eh)            E(eV)
   0   2.0000     -88.965833     -2420.8834
   1   2.0000     -88.965539     -2420.8754
   2   2.0000     -10.331285      -281.1286
   3   2.0000     -10.321076      -280.8507
   4   2.0000     -10.317329      -280.7488
   5   2.0000     -10.308904      -280.5195
   6   2.0000     -10.301117      -280.3076
   7   2.0000     -10.297166      -280.2001
   8   2.0000     -10.294764      -280.1348
   9   2.0000     -10.294277      -280.1215
  10   2.0000     -10.292597      -280.0758
  11   2.0000     -10.285351      -279.8786
  12   2.0000     -10.282617      -279.8042
  13   2.0000     -10.282347      -279.7969
  14   2.0000     -10.266944      -279.3777
  15   2.0000     -10.264866      -279.3212
  16   2.0000      -8.080602      -219.8844
  17   2.0000      -8.080222      -219.8740
  18   2.0000      -6.039067      -164.3314
  19   2.0000      -6.038717      -164.3218
  20   2.0000      -6.035035      -164.2217
  21   2.0000      -6.034967      -164.2198
  22   2.0000      -6.031417      -164.1232
  23   2.0000      -6.030828      -164.1072
  24   2.0000      -1.010228       -27.4897
  25   2.0000      -0.987962       -26.8838
  26   2.0000      -0.920638       -25.0518
  27   2.0000      -0.912625       -24.8338
  28   2.0000      -0.870440       -23.6859
  29   2.0000      -0.857838       -23.3430
  30   2.0000      -0.845482       -23.0067
  31   2.0000      -0.819158       -22.2904
  32   2.0000      -0.789083       -21.4720
  33   2.0000      -0.777868       -21.1669
  34   2.0000      -0.707599       -19.2548
  35   2.0000      -0.699377       -19.0310
  36   2.0000      -0.691113       -18.8061
  37   2.0000      -0.659558       -17.9475
  38   2.0000      -0.639757       -17.4087
  39   2.0000      -0.618246       -16.8233
  40   2.0000      -0.604028       -16.4364
  41   2.0000      -0.572101       -15.5677
  42   2.0000      -0.567858       -15.4522
  43   2.0000      -0.548776       -14.9330
  44   2.0000      -0.547621       -14.9015
  45   2.0000      -0.544642       -14.8205
  46   2.0000      -0.525456       -14.2984
  47   2.0000      -0.514570       -14.0021
  48   2.0000      -0.506873       -13.7927
  49   2.0000      -0.499015       -13.5789
  50   2.0000      -0.489644       -13.3239
  51   2.0000      -0.483939       -13.1686
  52   2.0000      -0.473980       -12.8976
  53   2.0000      -0.464435       -12.6379
  54   2.0000      -0.463004       -12.5990
  55   2.0000      -0.447222       -12.1695
  56   2.0000      -0.444596       -12.0981
  57   2.0000      -0.440436       -11.9849
  58   2.0000      -0.425797       -11.5865
  59   2.0000      -0.425066       -11.5666
  60   2.0000      -0.419905       -11.4262
  61   2.0000      -0.415781       -11.3140
  62   2.0000      -0.412247       -11.2178
  63   2.0000      -0.344979        -9.3873
  64   2.0000      -0.330729        -8.9996
  65   2.0000      -0.325116        -8.8469
  66   2.0000      -0.292099        -7.9484
  67   0.0000       0.032197         0.8761
  68   0.0000       0.057543         1.5658
  69   0.0000       0.104355         2.8397
  70   0.0000       0.123497         3.3605
  71   0.0000       0.130218         3.5434

MULLIKEN ATOMIC CHARGES
-----------------------
   0 S :    0.100783
   1 C :   -0.074817
   2 C :   -0.089868
   3 C :    0.050708
   4 C :   -0.193932
   5 H :    0.017432
   6 C :    0.061380
   7 H :    0.036049
   8 H :    0.019670
   9 C :   -0.105952
  10 H :    0.028283
  11 H :    0.024587
  12 C :   -0.003085
  13 H :    0.038853
  14 H :    0.014549
  15 H :    0.012059
  16 S :    0.113471
  17 C :   -0.080244
  18 C :   -0.022016
  19 C :   -0.086487
  20 C :   -0.142017
  21 H :    0.020831
  22 C :    0.101330
  23 H :    0.015960
  24 H :    0.044251
  25 C :   -0.111753
  26 H :    0.026714
  27 H :    0.017337
  28 C :    0.026831
  29 H :    0.016965
  30 H :    0.028426
  31 H :    0.022920
  32 H :    0.029953
  33 H :    0.040827
Sum of atomic charges:   -0.0000000

LOEWDIN ATOMIC CHARGES
----------------------
   0 S :    0.398795
   1 C :   -0.192532
   2 C :   -0.065134
   3 C :   -0.063716
   4 C :   -0.184112
   5 H :    0.033293
   6 C :   -0.035215
   7 H :    0.037440
   8 H :    0.029516
   9 C :   -0.048896
  10 H :    0.025167
  11 H :    0.024964
  12 C :   -0.065039
  13 H :    0.023512
  14 H :    0.023114
  15 H :    0.027504
  16 S :    0.413626
  17 C :   -0.164987
  18 C :   -0.070050
  19 C :   -0.054500
  20 C :   -0.222553
  21 H :    0.031729
  22 C :   -0.032841
  23 H :    0.026803
  24 H :    0.045274
  25 C :   -0.043757
  26 H :    0.028125
  27 H :    0.016827
  28 C :   -0.051871
  29 H :    0.014196
  30 H :    0.030178
  31 H :    0.023998
  32 H :    0.022478
  33 H :    0.018665

  Mayer bond orders larger than 0.100000
B(  0-S ,  1-C ) :   1.1278 B(  0-S ,  4-C ) :   1.1616 B(  1-C ,  2-C ) :   1.6167
B(  1-C ,  4-C ) :   0.1078 B(  1-C , 32-H ) :   0.9644 B(  2-C ,  3-C ) :   1.2370
B(  2-C ,  6-C ) :   1.0277 B(  3-C ,  4-C ) :   1.5661 B(  3-C ,  5-H ) :   0.9941
B(  4-C , 20-C ) :   1.0071 B(  6-C ,  7-H ) :   0.9414 B(  6-C ,  8-H ) :   0.9397
B(  6-C ,  9-C ) :   1.0765 B(  9-C , 10-H ) :   0.9562 B(  9-C , 11-H ) :   0.9542
B(  9-C , 12-C ) :   1.0827 B( 12-C , 13-H ) :   0.9737 B( 12-C , 14-H ) :   0.9730
B( 12-C , 15-H ) :   0.9671 B( 16-S , 17-C ) :   1.1662 B( 16-S , 20-C ) :   1.1480
B( 17-C , 18-C ) :   1.5923 B( 17-C , 20-C ) :   0.1027 B( 17-C , 33-H ) :   0.9733
B( 18-C , 19-C ) :   1.2413 B( 18-C , 21-H ) :   0.9848 B( 19-C , 20-C ) :   1.6092
B( 19-C , 22-C ) :   1.0289 B( 22-C , 23-H ) :   0.9273 B( 22-C , 24-H ) :   0.9215
B( 22-C , 25-C ) :   1.0981 B( 25-C , 26-H ) :   0.9508 B( 25-C , 27-H ) :   0.9463
B( 25-C , 28-C ) :   1.0754 B( 28-C , 29-H ) :   0.9727 B( 28-C , 30-H ) :   0.9756
B( 28-C , 31-H ) :   0.9726

Dispersion correction           -0.014503923
FINAL SINGLE POINT ENERGY     -1339.863781372623

DIPOLE MOMENT
-------------
                                X             Y             Z
Electronic contribution:    -21.09448      10.09498     -16.00880
Nuclear contribution   :     21.72339     -10.24145      16.20110
                        -----------------------------------------
Total Dipole Moment    :      0.62892      -0.14647       0.19230
                        -----------------------------------------
Magnitude (a.u.)       :      0.67377
Magnitude (Debye)      :      1.71259

Rotational constants in cm-1:     0.018415     0.009259     0.006795
Rotational constants in MHz :   552.069598   277.566366   203.698068

                             ****ORCA TERMINATED NORMALLY****
TOTAL RUN TIME: 0 days 0 hours 0 minutes 36 seconds 962 msec
