                         Program Version 4.2.1 -  RELEASE  -
|  1> ! wB97X-D3 SP def2-SVP
|  2> %pal
|  3> nprocs 16
|  4> end
|  5>
|  6> * xyz 0 1
|  7> S 	 -51.8483 	 29.0823 	 92.1458
|  8> C 	 -50.8777 	 27.802 	 92.8127
|  9> C 	 -51.0808 	 26.6139 	 92.1164
| 10> C 	 -52.0097 	 26.7771 	 91.0722
| 11> C 	 -52.5647 	 27.9996 	 90.9978
| 12> H 	 -52.3239 	 26.06 	 90.3392
| 13> C 	 -50.4118 	 25.3071 	 92.4417
| 14> H 	 -49.6084 	 25.3598 	 93.2086
| 15> H 	 -49.9286 	 25.0419 	 91.4871
| 16> C 	 -51.3883 	 24.3591 	 93.0834
| 17> H 	 -52.1031 	 24.1129 	 92.3728
| 18> H 	 -50.8008 	 23.4242 	 93.3399
| 19> C 	 -52.1037 	 24.8374 	 94.3933
| 20> H 	 -51.3537 	 25.2592 	 95.0898
| 21> H 	 -52.9626 	 25.4874 	 94.3026
| 22> H 	 -52.5314 	 23.9354 	 94.8791
| 23> S 	 -53.1775 	 29.5305 	 88.7845
| 24> C 	 -54.6571 	 29.1512 	 88.0052
| 25> C 	 -55.3021 	 28.0393 	 88.4388
| 26> C 	 -54.5913 	 27.4705 	 89.5449
| 27> C 	 -53.4586 	 28.1974 	 89.8866
| 28> H 	 -56.2217 	 27.6987 	 87.9704
| 29> C 	 -55.14 	 26.2169 	 90.1756
| 30> H 	 -54.6191 	 25.985 	 91.0826
| 31> H 	 -55.1202 	 25.3749 	 89.5184
| 32> C 	 -56.647 	 26.3578 	 90.6435
| 33> H 	 -57.2885 	 26.4479 	 89.6844
| 34> H 	 -56.7492 	 27.3324 	 91.2218
| 35> C 	 -57.1653 	 25.2643 	 91.5084
| 36> H 	 -56.6697 	 25.1843 	 92.4654
| 37> H 	 -57.1089 	 24.291 	 91.0113
| 38> H 	 -58.219 	 25.3848 	 91.7601
| 39> H 	 -50.2857 	 27.9865 	 93.732
| 40> H 	 -55.0479 	 29.6343 	 87.0694
| 41> *
| 42>
| 43>                          ****END OF INPUT****

CARTESIAN COORDINATES (ANGSTROEM)
---------------------------------
  S    -51.848300   29.082300   92.145800
  C    -50.877700   27.802000   92.812700
  C    -51.080800   26.613900   92.116400
  C    -52.009700   26.777100   91.072200
  C    -52.564700   27.999600   90.997800
  H    -52.323900   26.060000   90.339200
  C    -50.411800   25.307100   92.441700
  H    -49.608400   25.359800   93.208600
  H    -49.928600   25.041900   91.487100
  C    -51.388300   24.359100   93.083400
  H    -52.103100   24.112900   92.372800
  H    -50.800800   23.424200   93.339900
  C    -52.103700   24.837400   94.393300
  H    -51.353700   25.259200   95.089800
  H    -52.962600   25.487400   94.302600
  H    -52.531400   23.935400   94.879100
  S    -53.177500   29.530500   88.784500
  C    -54.657100   29.151200   88.005200
  C    -55.302100   28.039300   88.438800
  C    -54.591300   27.470500   89.544900
  C    -53.458600   28.197400   89.886600
  H    -56.221700   27.698700   87.970400
  C    -55.140000   26.216900   90.175600
  H    -54.619100   25.985000   91.082600
  H    -55.120200   25.374900   89.518400
  C    -56.647000   26.357800   90.643500
  H    -57.288500   26.447900   89.684400
  H    -56.749200   27.332400   91.221800
  C    -57.165300   25.264300   91.508400
  H    -56.669700   25.184300   92.465400
  H    -57.108900   24.291000   91.011300
  H    -58.219000   25.384800   91.760100
  H    -50.285700   27.986500   93.732000
  H    -55.047900   29.634300   87.069400

 Total Charge           Charge          ....    0
 Multiplicity           Mult            ....    1
 Number of Electrons    NEL             ....  134
 Basis Dimension        Dim             ....  322

ORBITAL ENERGIES
----------------

  NO   OCC          E(Eh)            E(eV)
   0   2.0000     -88.966639     -2420.9053
   1   2.0000     -88.965876     -2420.8846
   2   2.0000     -10.323640      -280.9205
   3   2.0000     -10.317978      -280.7665
   4   2.0000     -10.314862      -280.6817
   5   2.0000     -10.311992      -280.6036
   6   2.0000     -10.301313      -280.3130
   7   2.0000     -10.297820      -280.2179
   8   2.0000     -10.295343      -280.1505
   9   2.0000     -10.291696      -280.0513
  10   2.0000     -10.288506      -279.9645
  11   2.0000     -10.288249      -279.9575
  12   2.0000     -10.286672      -279.9146
  13   2.0000     -10.283117      -279.8178
  14   2.0000     -10.282266      -279.7947
  15   2.0000     -10.275588      -279.6130
  16   2.0000      -8.081635      -219.9125
  17   2.0000      -8.081327      -219.9041
  18   2.0000      -6.040096      -164.3594
  19   2.0000      -6.039724      -164.3492
  20   2.0000      -6.036089      -164.2503
  21   2.0000      -6.035904      -164.2453
  22   2.0000      -6.032454      -164.1514
  23   2.0000      -6.032012      -164.1394
  24   2.0000      -1.013828       -27.5877
  25   2.0000      -0.989819       -26.9343
  26   2.0000      -0.915437       -24.9103
  27   2.0000      -0.907641       -24.6982
  28   2.0000      -0.874991       -23.8097
  29   2.0000      -0.855634       -23.2830
  30   2.0000      -0.845239       -23.0001
  31   2.0000      -0.813232       -22.1292
  32   2.0000      -0.785278       -21.3685
  33   2.0000      -0.772400       -21.0181
  34   2.0000      -0.703549       -19.1445
  35   2.0000      -0.694378       -18.8950
  36   2.0000      -0.689619       -18.7655
  37   2.0000      -0.655555       -17.8386
  38   2.0000      -0.641105       -17.4454
  39   2.0000      -0.624878       -17.0038
  40   2.0000      -0.597576       -16.2609
  41   2.0000      -0.569185       -15.4883
  42   2.0000      -0.564850       -15.3704
  43   2.0000      -0.556630       -15.1467
  44   2.0000      -0.540228       -14.7003
  45   2.0000      -0.521100       -14.1798
  46   2.0000      -0.517801       -14.0901
  47   2.0000      -0.510816       -13.9000
  48   2.0000      -0.501765       -13.6537
  49   2.0000      -0.492705       -13.4072
  50   2.0000      -0.489532       -13.3208
  51   2.0000      -0.482964       -13.1421
  52   2.0000      -0.472240       -12.8503
  53   2.0000      -0.468035       -12.7359
  54   2.0000      -0.460376       -12.5275
  55   2.0000      -0.452583       -12.3154
  56   2.0000      -0.448280       -12.1983
  57   2.0000      -0.441410       -12.0114
  58   2.0000      -0.431986       -11.7549
  59   2.0000      -0.423113       -11.5135
  60   2.0000      -0.419387       -11.4121
  61   2.0000      -0.411866       -11.2074
  62   2.0000      -0.405310       -11.0290
  63   2.0000      -0.350279        -9.5316
  64   2.0000      -0.332423        -9.0457
  65   2.0000      -0.329755        -8.9731
  66   2.0000      -0.289663        -7.8821
  67   0.0000       0.037124         1.0102
  68   0.0000       0.077864         2.1188
  69   0.0000       0.114159         3.1064
  70   0.0000       0.124813         3.3963
  71   0.0000       0.133335         3.6282

MULLIKEN ATOMIC CHARGES
-----------------------
   0 S :    0.114259
   1 C :   -0.155754
   2 C :   -0.051541
   3 C :   -0.019219
   4 C :   -0.120949
   5 H :    0.019013
   6 C :    0.070509
   7 H :    0.017048
   8 H :    0.043319
   9 C :   -0.071163
  10 H :    0.013430
  11 H :    0.038223
  12 C :   -0.062820
  13 H :    0.030768
  14 H :    0.045661
  15 H :    0.034688
  16 S :    0.125579
  17 C :   -0.093951
  18 C :   -0.043345
  19 C :   -0.034142
  20 C :   -0.186443
  21 H :    0.022125
  22 C :    0.098629
  23 H :    0.013862
  24 H :    0.028422
  25 C :   -0.150775
  26 H :    0.037339
  27 H :    0.046356
  28 C :   -0.023174
  29 H :    0.030007
  30 H :    0.023403
  31 H :    0.033254
  32 H :    0.065218
  33 H :    0.062164
Sum of atomic charges:   -0.0000000

LOEWDIN ATOMIC CHARGES
----------------------
   0 S :    0.411966
   1 C :   -0.204916
   2 C :   -0.062869
   3 C :   -0.060937
   4 C :   -0.205502
   5 H :    0.032126
   6 C :   -0.036937
   7 H :    0.029507
   8 H :    0.038244
   9 C :   -0.038160
  10 H :    0.010111
  11 H :    0.031212
  12 C :   -0.066910
  13 H :    0.025843
  14 H :    0.025377
  15 H :    0.031917
  16 S :    0.414432
  17 C :   -0.199899
  18 C :   -0.072800
  19 C :   -0.053845
  20 C :   -0.192517
  21 H :    0.034616
  22 C :   -0.030326
  23 H :    0.023697
  24 H :    0.027490
  25 C :   -0.047809
  26 H :    0.025455
  27 H :    0.031891
  28 C :   -0.071771
  29 H :    0.024447
  30 H :    0.024446
  31 H :    0.030512
  32 H :    0.034743
  33 H :    0.037167

  Mayer bond orders larger than 0.100000
B(  0-S ,  1-C ) :   1.1406 B(  0-S ,  4-C ) :   1.1441 B(  1-C ,  2-C ) :   1.5815
B(  1-C , 32-H ) :   0.9677 B(  2-C ,  3-C ) :   1.2342 B(  2-C ,  6-C ) :   1.0230
B(  3-C ,  4-C ) :   1.5571 B(  3-C ,  5-H ) :   1.0030 B(  4-C , 20-C ) :   1.0585
B(  6-C ,  7-H ) :   0.9430 B(  6-C ,  8-H ) :   0.9411 B(  6-C ,  9-C ) :   1.0676
B(  9-C , 10-H ) :   0.9573 B(  9-C , 11-H ) :   0.9594 B(  9-C , 12-C ) :   1.0672
B( 12-C , 13-H ) :   0.9758 B( 12-C , 14-H ) :   0.9748 B( 12-C , 15-H ) :   0.9738
B( 16-S , 17-C ) :   1.1512 B( 16-S , 20-C ) :   1.1285 B( 17-C , 18-C ) :   1.6485
B( 17-C , 33-H ) :   0.9522 B( 18-C , 19-C ) :   1.2157 B( 18-C , 21-H ) :   0.9904
B( 19-C , 20-C ) :   1.6166 B( 19-C , 22-C ) :   1.0590 B( 22-C , 23-H ) :   0.9288
B( 22-C , 24-H ) :   0.9304 B( 22-C , 25-C ) :   1.0517 B( 25-C , 26-H ) :   0.9489
B( 25-C , 27-H ) :   0.9575 B( 25-C , 28-C ) :   1.1026 B( 28-C , 29-H ) :   0.9697
B( 28-C , 30-H ) :   0.9685 B( 28-C , 31-H ) :   0.9690

Dispersion correction           -0.014759813
FINAL SINGLE POINT ENERGY     -1339.880140030719

DIPOLE MOMENT
-------------
                                X             Y             Z
Electronic contribution:     10.56953      25.61007     -12.25736
Nuclear contribution   :    -10.77625     -26.31016      12.34207
                        -----------------------------------------
Total Dipole Moment    :     -0.20671      -0.70009       0.08471
                        -----------------------------------------
Magnitude (a.u.)       :      0.73486
Magnitude (Debye)      :      1.86788

Rotational constants in cm-1:     0.016761     0.010273     0.007196
Rotational constants in MHz :   502.494241   307.972236   215.718358

                             ****ORCA TERMINATED NORMALLY****
TOTAL RUN TIME: 0 days 0 hours 0 minutes 30 seconds 820 msec
