                         Program Version 4.2.1 -  RELEASE  -
|  1> ! wB97X-D3 SP def2-SVP
|  2> %pal
|  3> nprocs 16
|  4> end
|  5>
|  6> * xyz 0 1
|  7> S 	 -47.2256 	 29.8974 	 92.0264
|  8> C 	 -47.9678 	 28.33 	 92.2204
|  9> C 	 -48.3028 	 27.7589 	 91.0077
| 10> C 	 -48.2134 	 28.7345 	 89.9355
| 11> C 	 -47.5922 	 29.9129 	 90.2529
| 12> H 	 -48.4567 	 28.529 	 88.8845
| 13> C 	 -48.8762 	 26.3295 	 90.7576
| 14> H 	 -48.4683 	 25.6417 	 91.6059
| 15> H 	 -48.3874 	 25.8765 	 89.904
| 16> C 	 -50.3701 	 26.3315 	 90.4919
| 17> H 	 -50.8895 	 26.7643 	 91.3909
| 18> H 	 -50.7042 	 27.0059 	 89.7031
| 19> C 	 -50.9126 	 25.0029 	 90.1056
| 20> H 	 -51.2668 	 24.4408 	 90.9616
| 21> H 	 -51.7584 	 24.9992 	 89.3976
| 22> H 	 -50.2148 	 24.3492 	 89.6522
| 23> S 	 -46.2675 	 32.3389 	 90.1194
| 24> C 	 -46.5048 	 33.4064 	 88.6687
| 25> C 	 -47.1482 	 32.68 	 87.6738
| 26> C 	 -47.5859 	 31.3715 	 88.0683
| 27> C 	 -47.2866 	 31.0877 	 89.4178
| 28> H 	 -47.3363 	 33.1474 	 86.6943
| 29> C 	 -48.3445 	 30.5461 	 86.9772
| 30> H 	 -48.0112 	 29.5571 	 87.1732
| 31> H 	 -47.8249 	 30.8192 	 86.0144
| 32> C 	 -49.8631 	 30.7441 	 86.8623
| 33> H 	 -50.1546 	 31.6916 	 86.5024
| 34> H 	 -50.3943 	 30.7367 	 87.859
| 35> C 	 -50.4128 	 29.5634 	 86.0634
| 36> H 	 -50.1825 	 28.6185 	 86.4879
| 37> H 	 -49.9916 	 29.4689 	 85.1474
| 38> H 	 -51.4424 	 29.5287 	 85.9571
| 39> H 	 -47.9863 	 27.8141 	 93.185
| 40> H 	 -46.2897 	 34.4582 	 88.6152
| 41> *
| 42>
| 43>                          ****END OF INPUT****

CARTESIAN COORDINATES (ANGSTROEM)
---------------------------------
  S    -47.225600   29.897400   92.026400
  C    -47.967800   28.330000   92.220400
  C    -48.302800   27.758900   91.007700
  C    -48.213400   28.734500   89.935500
  C    -47.592200   29.912900   90.252900
  H    -48.456700   28.529000   88.884500
  C    -48.876200   26.329500   90.757600
  H    -48.468300   25.641700   91.605900
  H    -48.387400   25.876500   89.904000
  C    -50.370100   26.331500   90.491900
  H    -50.889500   26.764300   91.390900
  H    -50.704200   27.005900   89.703100
  C    -50.912600   25.002900   90.105600
  H    -51.266800   24.440800   90.961600
  H    -51.758400   24.999200   89.397600
  H    -50.214800   24.349200   89.652200
  S    -46.267500   32.338900   90.119400
  C    -46.504800   33.406400   88.668700
  C    -47.148200   32.680000   87.673800
  C    -47.585900   31.371500   88.068300
  C    -47.286600   31.087700   89.417800
  H    -47.336300   33.147400   86.694300
  C    -48.344500   30.546100   86.977200
  H    -48.011200   29.557100   87.173200
  H    -47.824900   30.819200   86.014400
  C    -49.863100   30.744100   86.862300
  H    -50.154600   31.691600   86.502400
  H    -50.394300   30.736700   87.859000
  C    -50.412800   29.563400   86.063400
  H    -50.182500   28.618500   86.487900
  H    -49.991600   29.468900   85.147400
  H    -51.442400   29.528700   85.957100
  H    -47.986300   27.814100   93.185000
  H    -46.289700   34.458200   88.615200

 Total Charge           Charge          ....    0
 Multiplicity           Mult            ....    1
 Number of Electrons    NEL             ....  134
 Basis Dimension        Dim             ....  322

ORBITAL ENERGIES
----------------

  NO   OCC          E(Eh)            E(eV)
   0   2.0000     -88.967180     -2420.9201
   1   2.0000     -88.963870     -2420.8300
   2   2.0000     -10.337012      -281.2844
   3   2.0000     -10.336365      -281.2668
   4   2.0000     -10.322794      -280.8975
   5   2.0000     -10.317635      -280.7571
   6   2.0000     -10.308783      -280.5162
   7   2.0000     -10.307225      -280.4739
   8   2.0000     -10.304487      -280.3993
   9   2.0000     -10.301121      -280.3078
  10   2.0000     -10.298787      -280.2442
  11   2.0000     -10.297022      -280.1962
  12   2.0000     -10.291702      -280.0514
  13   2.0000     -10.288080      -279.9529
  14   2.0000     -10.272329      -279.5243
  15   2.0000     -10.263389      -279.2810
  16   2.0000      -8.080691      -219.8868
  17   2.0000      -8.077959      -219.8124
  18   2.0000      -6.039431      -164.3413
  19   2.0000      -6.036712      -164.2673
  20   2.0000      -6.035460      -164.2332
  21   2.0000      -6.032678      -164.1575
  22   2.0000      -6.031199      -164.1173
  23   2.0000      -6.028375      -164.0404
  24   2.0000      -0.998460       -27.1695
  25   2.0000      -0.975789       -26.5526
  26   2.0000      -0.913008       -24.8442
  27   2.0000      -0.909850       -24.7583
  28   2.0000      -0.869160       -23.6510
  29   2.0000      -0.853305       -23.2196
  30   2.0000      -0.843319       -22.9479
  31   2.0000      -0.815479       -22.1903
  32   2.0000      -0.781996       -21.2792
  33   2.0000      -0.772670       -21.0254
  34   2.0000      -0.718312       -19.5463
  35   2.0000      -0.703000       -19.1296
  36   2.0000      -0.696181       -18.9440
  37   2.0000      -0.664165       -18.0729
  38   2.0000      -0.639259       -17.3951
  39   2.0000      -0.618521       -16.8308
  40   2.0000      -0.592158       -16.1135
  41   2.0000      -0.567487       -15.4421
  42   2.0000      -0.562537       -15.3074
  43   2.0000      -0.554265       -15.0823
  44   2.0000      -0.535961       -14.5842
  45   2.0000      -0.529466       -14.4075
  46   2.0000      -0.516436       -14.0529
  47   2.0000      -0.508287       -13.8312
  48   2.0000      -0.506070       -13.7709
  49   2.0000      -0.498101       -13.5540
  50   2.0000      -0.494764       -13.4632
  51   2.0000      -0.486846       -13.2477
  52   2.0000      -0.474058       -12.8998
  53   2.0000      -0.465723       -12.6730
  54   2.0000      -0.459512       -12.5039
  55   2.0000      -0.452619       -12.3164
  56   2.0000      -0.444709       -12.1012
  57   2.0000      -0.441995       -12.0273
  58   2.0000      -0.436907       -11.8888
  59   2.0000      -0.422973       -11.5097
  60   2.0000      -0.419242       -11.4082
  61   2.0000      -0.410266       -11.1639
  62   2.0000      -0.405661       -11.0386
  63   2.0000      -0.363674        -9.8961
  64   2.0000      -0.335967        -9.1421
  65   2.0000      -0.324946        -8.8422
  66   2.0000      -0.281534        -7.6609
  67   0.0000       0.015729         0.4280
  68   0.0000       0.079505         2.1634
  69   0.0000       0.091081         2.4784
  70   0.0000       0.116715         3.1760
  71   0.0000       0.128569         3.4986

MULLIKEN ATOMIC CHARGES
-----------------------
   0 S :    0.085352
   1 C :   -0.122342
   2 C :   -0.081377
   3 C :   -0.022200
   4 C :   -0.090826
   5 H :    0.005410
   6 C :    0.039830
   7 H :    0.042401
   8 H :    0.022157
   9 C :   -0.072562
  10 H :    0.035797
  11 H :    0.031279
  12 C :   -0.024652
  13 H :    0.026568
  14 H :    0.029172
  15 H :    0.012431
  16 S :    0.083587
  17 C :   -0.092144
  18 C :   -0.034144
  19 C :   -0.081051
  20 C :   -0.105248
  21 H :    0.030304
  22 C :    0.034885
  23 H :    0.016283
  24 H :    0.034588
  25 C :   -0.023004
  26 H :    0.016543
  27 H :    0.038495
  28 C :    0.032926
  29 H :    0.001628
  30 H :   -0.003317
  31 H :    0.014359
  32 H :    0.058746
  33 H :    0.060125
Sum of atomic charges:   -0.0000000

LOEWDIN ATOMIC CHARGES
----------------------
   0 S :    0.369596
   1 C :   -0.193634
   2 C :   -0.062425
   3 C :   -0.068989
   4 C :   -0.166647
   5 H :    0.030219
   6 C :   -0.034776
   7 H :    0.041132
   8 H :    0.026461
   9 C :   -0.051116
  10 H :    0.032373
  11 H :    0.028492
  12 C :   -0.069493
  13 H :    0.026675
  14 H :    0.029287
  15 H :    0.019162
  16 S :    0.372743
  17 C :   -0.167444
  18 C :   -0.069303
  19 C :   -0.060452
  20 C :   -0.186781
  21 H :    0.035913
  22 C :   -0.026729
  23 H :    0.019825
  24 H :    0.039772
  25 C :   -0.032081
  26 H :    0.019006
  27 H :    0.035263
  28 C :   -0.051747
  29 H :    0.022334
  30 H :    0.012127
  31 H :    0.018666
  32 H :    0.032711
  33 H :    0.029860

  Mayer bond orders larger than 0.100000
B(  0-S ,  1-C ) :   1.1335 B(  0-S ,  4-C ) :   1.1121 B(  1-C ,  2-C ) :   1.6369
B(  1-C , 32-H ) :   0.9644 B(  2-C ,  3-C ) :   1.2140 B(  2-C ,  6-C ) :   1.0247
B(  3-C ,  4-C ) :   1.6250 B(  3-C ,  5-H ) :   0.9787 B(  4-C , 20-C ) :   1.0844
B(  6-C ,  7-H ) :   0.9475 B(  6-C ,  8-H ) :   0.9365 B(  6-C ,  9-C ) :   1.0575
B(  9-C , 10-H ) :   0.9550 B(  9-C , 11-H ) :   0.9591 B(  9-C , 12-C ) :   1.0735
B( 12-C , 13-H ) :   0.9724 B( 12-C , 14-H ) :   0.9756 B( 12-C , 15-H ) :   0.9716
B( 16-S , 17-C ) :   1.1257 B( 16-S , 20-C ) :   1.1326 B( 17-C , 18-C ) :   1.6218
B( 17-C , 20-C ) :   0.1022 B( 17-C , 33-H ) :   0.9704 B( 18-C , 19-C ) :   1.2484
B( 18-C , 21-H ) :   0.9815 B( 19-C , 20-C ) :   1.5890 B( 19-C , 22-C ) :   1.0164
B( 22-C , 23-H ) :   0.9441 B( 22-C , 24-H ) :   0.9330 B( 22-C , 25-C ) :   1.0538
B( 25-C , 26-H ) :   0.9535 B( 25-C , 27-H ) :   0.9577 B( 25-C , 28-C ) :   1.0781
B( 28-C , 29-H ) :   0.9709 B( 28-C , 30-H ) :   0.9674 B( 28-C , 31-H ) :   0.9696

Dispersion correction           -0.013878056
FINAL SINGLE POINT ENERGY     -1339.861927442588

DIPOLE MOMENT
-------------
                                X             Y             Z
Electronic contribution:     21.45271      20.98212      16.41024
Nuclear contribution   :    -21.93828     -21.37618     -17.04791
                        -----------------------------------------
Total Dipole Moment    :     -0.48557      -0.39405      -0.63766
                        -----------------------------------------
Magnitude (a.u.)       :      0.89313
Magnitude (Debye)      :      2.27014

Rotational constants in cm-1:     0.017308     0.009297     0.006229
Rotational constants in MHz :   518.885386   278.704203   186.734397

                             ****ORCA TERMINATED NORMALLY****
TOTAL RUN TIME: 0 days 0 hours 0 minutes 29 seconds 526 msec
