                         Program Version 4.2.1 -  RELEASE  -
|  1> ! wB97X-D3 SP def2-SVP
|  2> %pal
|  3> nprocs 16
|  4> end
|  5>
|  6> * xyz 0 1
|  7> S 	 -1.20159 	 -23.5711 	 62.172
|  8> C 	 0.15618 	 -22.4374 	 62.3716
|  9> C 	 1.35593 	 -22.9062 	 61.9931
| 10> C 	 1.20231 	 -24.2205 	 61.5257
| 11> C 	 -0.0468782 	 -24.7336 	 61.4444
| 12> H 	 2.05688 	 -24.7759 	 61.2571
| 13> C 	 2.70484 	 -22.2179 	 62.1037
| 14> H 	 3.20761 	 -22.8697 	 62.8476
| 15> H 	 2.60139 	 -21.1881 	 62.3964
| 16> C 	 3.59222 	 -22.1783 	 60.9028
| 17> H 	 4.47839 	 -21.5217 	 61.0709
| 18> H 	 4.07616 	 -23.1636 	 60.6164
| 19> C 	 2.86836 	 -21.5478 	 59.7818
| 20> H 	 3.52785 	 -21.3555 	 58.9686
| 21> H 	 2.15108 	 -22.1384 	 59.3099
| 22> H 	 2.41392 	 -20.5717 	 60.0174
| 23> S 	 -1.62838 	 -27.0757 	 62.0614
| 24> C 	 -1.65048 	 -28.4068 	 60.9367
| 25> C 	 -0.944894 	 -28.0651 	 59.8222
| 26> C 	 -0.370982 	 -26.7346 	 59.824
| 27> C 	 -0.588222 	 -26.0298 	 61.0095
| 28> H 	 -0.6928 	 -28.761 	 59.0309
| 29> C 	 0.35388 	 -26.166 	 58.6282
| 30> H 	 0.4254 	 -25.0859 	 58.9061
| 31> H 	 -0.343037 	 -26.2533 	 57.8057
| 32> C 	 1.78408 	 -26.6342 	 58.3701
| 33> H 	 1.85127 	 -27.6853 	 58.0193
| 34> H 	 2.32842 	 -26.5986 	 59.2972
| 35> C 	 2.4128 	 -25.6409 	 57.4324
| 36> H 	 2.49465 	 -24.5744 	 57.7275
| 37> H 	 2.0001 	 -25.572 	 56.4022
| 38> H 	 3.4049 	 -26.0553 	 57.219
| 39> H 	 0.0441951 	 -21.4103 	 62.7587
| 40> H 	 -2.21651 	 -29.295 	 61.0725
| 41> *
| 42>
| 43>                          ****END OF INPUT****

CARTESIAN COORDINATES (ANGSTROEM)
---------------------------------
  S     -1.201590  -23.571100   62.172000
  C      0.156180  -22.437400   62.371600
  C      1.355930  -22.906200   61.993100
  C      1.202310  -24.220500   61.525700
  C     -0.046878  -24.733600   61.444400
  H      2.056880  -24.775900   61.257100
  C      2.704840  -22.217900   62.103700
  H      3.207610  -22.869700   62.847600
  H      2.601390  -21.188100   62.396400
  C      3.592220  -22.178300   60.902800
  H      4.478390  -21.521700   61.070900
  H      4.076160  -23.163600   60.616400
  C      2.868360  -21.547800   59.781800
  H      3.527850  -21.355500   58.968600
  H      2.151080  -22.138400   59.309900
  H      2.413920  -20.571700   60.017400
  S     -1.628380  -27.075700   62.061400
  C     -1.650480  -28.406800   60.936700
  C     -0.944894  -28.065100   59.822200
  C     -0.370982  -26.734600   59.824000
  C     -0.588222  -26.029800   61.009500
  H     -0.692800  -28.761000   59.030900
  C      0.353880  -26.166000   58.628200
  H      0.425400  -25.085900   58.906100
  H     -0.343037  -26.253300   57.805700
  C      1.784080  -26.634200   58.370100
  H      1.851270  -27.685300   58.019300
  H      2.328420  -26.598600   59.297200
  C      2.412800  -25.640900   57.432400
  H      2.494650  -24.574400   57.727500
  H      2.000100  -25.572000   56.402200
  H      3.404900  -26.055300   57.219000
  H      0.044195  -21.410300   62.758700
  H     -2.216510  -29.295000   61.072500

 Total Charge           Charge          ....    0
 Multiplicity           Mult            ....    1
 Number of Electrons    NEL             ....  134
 Basis Dimension        Dim             ....  322

ORBITAL ENERGIES
----------------

  NO   OCC          E(Eh)            E(eV)
   0   2.0000     -88.963247     -2420.8130
   1   2.0000     -88.961432     -2420.7636
   2   2.0000     -10.333751      -281.1957
   3   2.0000     -10.331564      -281.1362
   4   2.0000     -10.317266      -280.7471
   5   2.0000     -10.313652      -280.6488
   6   2.0000     -10.301396      -280.3152
   7   2.0000     -10.295729      -280.1610
   8   2.0000     -10.295572      -280.1568
   9   2.0000     -10.291610      -280.0490
  10   2.0000     -10.291568      -280.0478
  11   2.0000     -10.290211      -280.0109
  12   2.0000     -10.289491      -279.9913
  13   2.0000     -10.287308      -279.9319
  14   2.0000     -10.281066      -279.7620
  15   2.0000     -10.266718      -279.3716
  16   2.0000      -8.077308      -219.7947
  17   2.0000      -8.075523      -219.7462
  18   2.0000      -6.035907      -164.2454
  19   2.0000      -6.034254      -164.2004
  20   2.0000      -6.032117      -164.1423
  21   2.0000      -6.030006      -164.0848
  22   2.0000      -6.027797      -164.0247
  23   2.0000      -6.026181      -163.9807
  24   2.0000      -1.003802       -27.3148
  25   2.0000      -0.982756       -26.7422
  26   2.0000      -0.925553       -25.1856
  27   2.0000      -0.913298       -24.8521
  28   2.0000      -0.873223       -23.7616
  29   2.0000      -0.852284       -23.1918
  30   2.0000      -0.842816       -22.9342
  31   2.0000      -0.818162       -22.2633
  32   2.0000      -0.788742       -21.4628
  33   2.0000      -0.771013       -20.9803
  34   2.0000      -0.710840       -19.3429
  35   2.0000      -0.701927       -19.1004
  36   2.0000      -0.696248       -18.9459
  37   2.0000      -0.657874       -17.9017
  38   2.0000      -0.641435       -17.4543
  39   2.0000      -0.627804       -17.0834
  40   2.0000      -0.596424       -16.2295
  41   2.0000      -0.572471       -15.5777
  42   2.0000      -0.568320       -15.4648
  43   2.0000      -0.562547       -15.3077
  44   2.0000      -0.550390       -14.9769
  45   2.0000      -0.528861       -14.3910
  46   2.0000      -0.516659       -14.0590
  47   2.0000      -0.512721       -13.9519
  48   2.0000      -0.507399       -13.8070
  49   2.0000      -0.498365       -13.5612
  50   2.0000      -0.492273       -13.3954
  51   2.0000      -0.481365       -13.0986
  52   2.0000      -0.473013       -12.8713
  53   2.0000      -0.468223       -12.7410
  54   2.0000      -0.457710       -12.4549
  55   2.0000      -0.446430       -12.1480
  56   2.0000      -0.437261       -11.8985
  57   2.0000      -0.433672       -11.8008
  58   2.0000      -0.432746       -11.7756
  59   2.0000      -0.430401       -11.7118
  60   2.0000      -0.421021       -11.4566
  61   2.0000      -0.414621       -11.2824
  62   2.0000      -0.408034       -11.1032
  63   2.0000      -0.347298        -9.4505
  64   2.0000      -0.333323        -9.0702
  65   2.0000      -0.325360        -8.8535
  66   2.0000      -0.296854        -8.0778
  67   0.0000       0.030896         0.8407
  68   0.0000       0.070232         1.9111
  69   0.0000       0.107969         2.9380
  70   0.0000       0.117162         3.1882
  71   0.0000       0.130471         3.5503

MULLIKEN ATOMIC CHARGES
-----------------------
   0 S :    0.093205
   1 C :   -0.139167
   2 C :   -0.083826
   3 C :    0.042671
   4 C :   -0.152577
   5 H :   -0.020092
   6 C :    0.105084
   7 H :    0.045343
   8 H :    0.017099
   9 C :   -0.098992
  10 H :    0.036220
  11 H :    0.033524
  12 C :   -0.019318
  13 H :    0.012321
  14 H :    0.023841
  15 H :    0.024628
  16 S :    0.086661
  17 C :   -0.072668
  18 C :   -0.017024
  19 C :   -0.058437
  20 C :   -0.127735
  21 H :    0.016790
  22 C :    0.031722
  23 H :    0.029876
  24 H :    0.035289
  25 C :   -0.029434
  26 H :    0.035761
  27 H :    0.024457
  28 C :   -0.072457
  29 H :    0.043725
  30 H :    0.028238
  31 H :    0.024893
  32 H :    0.044971
  33 H :    0.055408
Sum of atomic charges:   -0.0000000

LOEWDIN ATOMIC CHARGES
----------------------
   0 S :    0.368413
   1 C :   -0.178284
   2 C :   -0.071579
   3 C :   -0.052941
   4 C :   -0.169578
   5 H :    0.022270
   6 C :   -0.026073
   7 H :    0.042255
   8 H :    0.030327
   9 C :   -0.051707
  10 H :    0.033116
  11 H :    0.027477
  12 C :   -0.064217
  13 H :    0.022612
  14 H :    0.016651
  15 H :    0.029197
  16 S :    0.375884
  17 C :   -0.174037
  18 C :   -0.077778
  19 C :   -0.053648
  20 C :   -0.191672
  21 H :    0.029371
  22 C :   -0.037328
  23 H :    0.036959
  24 H :    0.031466
  25 C :   -0.037954
  26 H :    0.028961
  27 H :    0.024449
  28 C :   -0.074889
  29 H :    0.029671
  30 H :    0.027741
  31 H :    0.026027
  32 H :    0.029973
  33 H :    0.028866

  Mayer bond orders larger than 0.100000
B(  0-S ,  1-C ) :   1.1255 B(  0-S ,  4-C ) :   1.1207 B(  1-C ,  2-C ) :   1.6706
B(  1-C , 32-H ) :   0.9524 B(  2-C ,  3-C ) :   1.2136 B(  2-C ,  6-C ) :   1.0107
B(  3-C ,  4-C ) :   1.6110 B(  3-C ,  5-H ) :   1.0061 B(  4-C , 20-C ) :   1.0349
B(  6-C ,  7-H ) :   0.9326 B(  6-C ,  8-H ) :   0.9391 B(  6-C ,  9-C ) :   1.0878
B(  9-C , 10-H ) :   0.9533 B(  9-C , 11-H ) :   0.9438 B(  9-C , 12-C ) :   1.0888
B( 12-C , 13-H ) :   0.9666 B( 12-C , 14-H ) :   0.9662 B( 12-C , 15-H ) :   0.9692
B( 16-S , 17-C ) :   1.1514 B( 16-S , 20-C ) :   1.1109 B( 17-C , 18-C ) :   1.6027
B( 17-C , 33-H ) :   0.9726 B( 18-C , 19-C ) :   1.2398 B( 18-C , 21-H ) :   0.9891
B( 19-C , 20-C ) :   1.6037 B( 19-C , 22-C ) :   1.0429 B( 22-C , 23-H ) :   0.9352
B( 22-C , 24-H ) :   0.9345 B( 22-C , 25-C ) :   1.0644 B( 25-C , 26-H ) :   0.9496
B( 25-C , 27-H ) :   0.9488 B( 25-C , 28-C ) :   1.0897 B( 28-C , 29-H ) :   0.9731
B( 28-C , 30-H ) :   0.9709 B( 28-C , 31-H ) :   0.9707

Dispersion correction           -0.015280343
FINAL SINGLE POINT ENERGY     -1339.877308512208

DIPOLE MOMENT
-------------
                                X             Y             Z
Electronic contribution:    -24.50179      -9.34627      18.31266
Nuclear contribution   :     25.25296       9.41558     -18.79789
                        -----------------------------------------
Total Dipole Moment    :      0.75117       0.06932      -0.48523
                        -----------------------------------------
Magnitude (a.u.)       :      0.89694
Magnitude (Debye)      :      2.27984

Rotational constants in cm-1:     0.018046     0.010202     0.007040
Rotational constants in MHz :   540.990981   305.841327   211.059493

                             ****ORCA TERMINATED NORMALLY****
TOTAL RUN TIME: 0 days 0 hours 0 minutes 36 seconds 810 msec
