                         Program Version 4.2.1 -  RELEASE  -
|  1> ! wB97X-D3 SP def2-SVP
|  2> %pal
|  3> nprocs 16
|  4> end
|  5>
|  6> * xyz 0 1
|  7> S 	 42.0116 	 12.798 	 85.1673
|  8> C 	 43.6151 	 13.2894 	 84.6933
|  9> C 	 44.4417 	 12.9102 	 85.7318
| 10> C 	 43.8159 	 12.4509 	 86.915
| 11> C 	 42.4651 	 12.4148 	 86.7452
| 12> H 	 44.2557 	 12.1211 	 87.8402
| 13> C 	 45.951 	 13.0547 	 85.7525
| 14> H 	 46.3095 	 13.1064 	 84.6831
| 15> H 	 46.2347 	 12.0416 	 86.09
| 16> C 	 46.5266 	 14.2076 	 86.5706
| 17> H 	 47.6228 	 14.115 	 86.5366
| 18> H 	 46.2898 	 15.1241 	 86.0331
| 19> C 	 46.0914 	 14.2487 	 88.047
| 20> H 	 44.9855 	 14.2749 	 88.2319
| 21> H 	 46.2992 	 13.3544 	 88.6219
| 22> H 	 46.5054 	 15.0852 	 88.6564
| 23> S 	 39.8525 	 12.8976 	 87.5446
| 24> C 	 39.0588 	 11.7599 	 88.5985
| 25> C 	 40.02 	 11.035 	 89.2545
| 26> C 	 41.3131 	 11.0832 	 88.664
| 27> C 	 41.4109 	 12.0149 	 87.6529
| 28> H 	 39.5237 	 10.5557 	 90.0969
| 29> C 	 42.3982 	 10.1166 	 89.0684
| 30> H 	 43.1596 	 10.1164 	 88.312
| 31> H 	 41.9348 	 9.1497 	 89.2106
| 32> C 	 43.0727 	 10.413 	 90.4464
| 33> H 	 42.3086 	 10.6912 	 91.1305
| 34> H 	 43.6166 	 11.2731 	 90.244
| 35> C 	 44.0315 	 9.33229 	 90.9396
| 36> H 	 44.7635 	 9.67451 	 91.7383
| 37> H 	 44.6347 	 8.88257 	 90.1544
| 38> H 	 43.3407 	 8.60205 	 91.3359
| 39> H 	 44.0535 	 13.4341 	 83.6872
| 40> H 	 38.0798 	 11.9197 	 88.9097
| 41> *
| 42>
| 43>                          ****END OF INPUT****

CARTESIAN COORDINATES (ANGSTROEM)
---------------------------------
  S     42.011600   12.798000   85.167300
  C     43.615100   13.289400   84.693300
  C     44.441700   12.910200   85.731800
  C     43.815900   12.450900   86.915000
  C     42.465100   12.414800   86.745200
  H     44.255700   12.121100   87.840200
  C     45.951000   13.054700   85.752500
  H     46.309500   13.106400   84.683100
  H     46.234700   12.041600   86.090000
  C     46.526600   14.207600   86.570600
  H     47.622800   14.115000   86.536600
  H     46.289800   15.124100   86.033100
  C     46.091400   14.248700   88.047000
  H     44.985500   14.274900   88.231900
  H     46.299200   13.354400   88.621900
  H     46.505400   15.085200   88.656400
  S     39.852500   12.897600   87.544600
  C     39.058800   11.759900   88.598500
  C     40.020000   11.035000   89.254500
  C     41.313100   11.083200   88.664000
  C     41.410900   12.014900   87.652900
  H     39.523700   10.555700   90.096900
  C     42.398200   10.116600   89.068400
  H     43.159600   10.116400   88.312000
  H     41.934800    9.149700   89.210600
  C     43.072700   10.413000   90.446400
  H     42.308600   10.691200   91.130500
  H     43.616600   11.273100   90.244000
  C     44.031500    9.332290   90.939600
  H     44.763500    9.674510   91.738300
  H     44.634700    8.882570   90.154400
  H     43.340700    8.602050   91.335900
  H     44.053500   13.434100   83.687200
  H     38.079800   11.919700   88.909700

 Total Charge           Charge          ....    0
 Multiplicity           Mult            ....    1
 Number of Electrons    NEL             ....  134
 Basis Dimension        Dim             ....  322

ORBITAL ENERGIES
----------------

  NO   OCC          E(Eh)            E(eV)
   0   2.0000     -88.964141     -2420.8373
   1   2.0000     -88.959883     -2420.7215
   2   2.0000     -10.330659      -281.1115
   3   2.0000     -10.325853      -280.9808
   4   2.0000     -10.312305      -280.6121
   5   2.0000     -10.311566      -280.5920
   6   2.0000     -10.307069      -280.4696
   7   2.0000     -10.297921      -280.2207
   8   2.0000     -10.294823      -280.1364
   9   2.0000     -10.294414      -280.1252
  10   2.0000     -10.292559      -280.0748
  11   2.0000     -10.290011      -280.0054
  12   2.0000     -10.289946      -280.0037
  13   2.0000     -10.284177      -279.8467
  14   2.0000     -10.281547      -279.7751
  15   2.0000     -10.279357      -279.7155
  16   2.0000      -8.080081      -219.8702
  17   2.0000      -8.074568      -219.7202
  18   2.0000      -6.038505      -164.3161
  19   2.0000      -6.034279      -164.2011
  20   2.0000      -6.033062      -164.1680
  21   2.0000      -6.030931      -164.1100
  22   2.0000      -6.029193      -164.0627
  23   2.0000      -6.025204      -163.9541
  24   2.0000      -1.018487       -27.7145
  25   2.0000      -0.990682       -26.9578
  26   2.0000      -0.913872       -24.8677
  27   2.0000      -0.912181       -24.8217
  28   2.0000      -0.874020       -23.7833
  29   2.0000      -0.854142       -23.2424
  30   2.0000      -0.843151       -22.9433
  31   2.0000      -0.821306       -22.3489
  32   2.0000      -0.784503       -21.3474
  33   2.0000      -0.775348       -21.0983
  34   2.0000      -0.711162       -19.3517
  35   2.0000      -0.706687       -19.2299
  36   2.0000      -0.701649       -19.0928
  37   2.0000      -0.663047       -18.0424
  38   2.0000      -0.640133       -17.4189
  39   2.0000      -0.620728       -16.8909
  40   2.0000      -0.597592       -16.2613
  41   2.0000      -0.575547       -15.6614
  42   2.0000      -0.569963       -15.5095
  43   2.0000      -0.551145       -14.9974
  44   2.0000      -0.539977       -14.6935
  45   2.0000      -0.527815       -14.3626
  46   2.0000      -0.518802       -14.1173
  47   2.0000      -0.512171       -13.9369
  48   2.0000      -0.509499       -13.8642
  49   2.0000      -0.502482       -13.6732
  50   2.0000      -0.491594       -13.3769
  51   2.0000      -0.483595       -13.1593
  52   2.0000      -0.480008       -13.0617
  53   2.0000      -0.470361       -12.7992
  54   2.0000      -0.458287       -12.4706
  55   2.0000      -0.447923       -12.1886
  56   2.0000      -0.439552       -11.9608
  57   2.0000      -0.435269       -11.8443
  58   2.0000      -0.434870       -11.8334
  59   2.0000      -0.430650       -11.7186
  60   2.0000      -0.419900       -11.4261
  61   2.0000      -0.414544       -11.2803
  62   2.0000      -0.404143       -10.9973
  63   2.0000      -0.356867        -9.7108
  64   2.0000      -0.331764        -9.0278
  65   2.0000      -0.323710        -8.8086
  66   2.0000      -0.292839        -7.9686
  67   0.0000       0.022894         0.6230
  68   0.0000       0.078171         2.1271
  69   0.0000       0.109422         2.9775
  70   0.0000       0.111285         3.0282
  71   0.0000       0.125180         3.4063

MULLIKEN ATOMIC CHARGES
-----------------------
   0 S :    0.116704
   1 C :   -0.105757
   2 C :   -0.134340
   3 C :    0.014011
   4 C :   -0.122705
   5 H :   -0.000823
   6 C :    0.032763
   7 H :    0.020649
   8 H :    0.027554
   9 C :   -0.010315
  10 H :    0.036975
  11 H :    0.032404
  12 C :   -0.093970
  13 H :    0.048271
  14 H :    0.017935
  15 H :    0.042152
  16 S :    0.082438
  17 C :   -0.083344
  18 C :   -0.053484
  19 C :   -0.008271
  20 C :   -0.132846
  21 H :    0.024612
  22 C :    0.067214
  23 H :    0.015783
  24 H :    0.019596
  25 C :   -0.048980
  26 H :    0.021687
  27 H :   -0.000627
  28 C :   -0.046684
  29 H :    0.050185
  30 H :    0.033174
  31 H :    0.032354
  32 H :    0.063365
  33 H :    0.042323
Sum of atomic charges:   -0.0000000

LOEWDIN ATOMIC CHARGES
----------------------
   0 S :    0.443813
   1 C :   -0.221843
   2 C :   -0.062679
   3 C :   -0.072611
   4 C :   -0.202013
   5 H :    0.029046
   6 C :   -0.038824
   7 H :    0.031460
   8 H :    0.030919
   9 C :   -0.036244
  10 H :    0.030076
  11 H :    0.028633
  12 C :   -0.082120
  13 H :    0.032463
  14 H :    0.019705
  15 H :    0.031948
  16 S :    0.379383
  17 C :   -0.171147
  18 C :   -0.074574
  19 C :   -0.057328
  20 C :   -0.179141
  21 H :    0.038071
  22 C :   -0.021394
  23 H :    0.022895
  24 H :    0.028090
  25 C :   -0.034211
  26 H :    0.019865
  27 H :    0.008487
  28 C :   -0.066649
  29 H :    0.036656
  30 H :    0.025396
  31 H :    0.025848
  32 H :    0.041986
  33 H :    0.016033

  Mayer bond orders larger than 0.100000
B(  0-S ,  1-C ) :   1.1207 B(  0-S ,  4-C ) :   1.1959 B(  1-C ,  2-C ) :   1.6071
B(  1-C , 32-H ) :   0.9616 B(  2-C ,  3-C ) :   1.2410 B(  2-C ,  6-C ) :   1.0163
B(  3-C ,  4-C ) :   1.5340 B(  3-C ,  5-H ) :   0.9984 B(  4-C , 20-C ) :   1.0437
B(  6-C ,  7-H ) :   0.9410 B(  6-C ,  8-H ) :   0.9390 B(  6-C ,  9-C ) :   1.0742
B(  9-C , 10-H ) :   0.9526 B(  9-C , 11-H ) :   0.9511 B(  9-C , 12-C ) :   1.0810
B( 12-C , 13-H ) :   0.9649 B( 12-C , 14-H ) :   0.9708 B( 12-C , 15-H ) :   0.9716
B( 16-S , 17-C ) :   1.1451 B( 16-S , 20-C ) :   1.1348 B( 17-C , 18-C ) :   1.6358
B( 17-C , 20-C ) :   0.1011 B( 17-C , 33-H ) :   0.9720 B( 18-C , 19-C ) :   1.1862
B( 18-C , 21-H ) :   0.9939 B( 19-C , 20-C ) :   1.6048 B( 19-C , 22-C ) :   1.0550
B( 22-C , 23-H ) :   0.9304 B( 22-C , 24-H ) :   0.9336 B( 22-C , 25-C ) :   1.0609
B( 25-C , 26-H ) :   0.9586 B( 25-C , 27-H ) :   0.9506 B( 25-C , 28-C ) :   1.0738
B( 28-C , 29-H ) :   0.9745 B( 28-C , 30-H ) :   0.9731 B( 28-C , 31-H ) :   0.9775

Dispersion correction           -0.014525694
FINAL SINGLE POINT ENERGY     -1339.863438078979

DIPOLE MOMENT
-------------
                                X             Y             Z
Electronic contribution:    -24.12452       5.82862     -15.63222
Nuclear contribution   :     24.58275      -6.12690      16.07624
                        -----------------------------------------
Total Dipole Moment    :      0.45823      -0.29828       0.44402
                        -----------------------------------------
Magnitude (a.u.)       :      0.70435
Magnitude (Debye)      :      1.79030

Rotational constants in cm-1:     0.016407     0.010385     0.007130
Rotational constants in MHz :   491.872625   311.321183   213.749167

                             ****ORCA TERMINATED NORMALLY****
TOTAL RUN TIME: 0 days 0 hours 0 minutes 29 seconds 675 msec
