                         Program Version 4.2.1 -  RELEASE  -
|  1> ! wB97X-D3 SP def2-SVP
|  2> %pal
|  3> nprocs 16
|  4> end
|  5>
|  6> * xyz 0 1
|  7> S 	 -38.7067 	 -0.542173 	 101.938
|  8> C 	 -38.0426 	 -1.8628 	 101.018
|  9> C 	 -37.1482 	 -1.49903 	 100.037
| 10> C 	 -36.969 	 -0.0982775 	 100.062
| 11> C 	 -37.8814 	 0.553179 	 100.904
| 12> H 	 -36.3481 	 0.549704 	 99.4868
| 13> C 	 -36.4872 	 -2.44703 	 99.0005
| 14> H 	 -36.6098 	 -3.44871 	 99.3153
| 15> H 	 -35.4642 	 -2.18339 	 98.8216
| 16> C 	 -37.2562 	 -2.32474 	 97.7201
| 17> H 	 -37.0637 	 -1.29483 	 97.2671
| 18> H 	 -36.8969 	 -3.00017 	 96.9435
| 19> C 	 -38.7639 	 -2.41826 	 97.8334
| 20> H 	 -39.2599 	 -1.50885 	 98.1302
| 21> H 	 -39.1743 	 -2.58539 	 96.8551
| 22> H 	 -39.0769 	 -3.24905 	 98.3873
| 23> S 	 -37.338 	 2.87059 	 102.354
| 24> C 	 -38.1034 	 4.38075 	 101.853
| 25> C 	 -38.7285 	 4.21107 	 100.636
| 26> C 	 -38.6942 	 2.89568 	 100.124
| 27> C 	 -38.0964 	 1.9731 	 100.958
| 28> H 	 -39.3197 	 4.95881 	 100.164
| 29> C 	 -39.3961 	 2.36742 	 98.852
| 30> H 	 -40.3782 	 2.77969 	 99.0921
| 31> H 	 -39.5572 	 1.28124 	 98.9438
| 32> C 	 -38.7697 	 2.86559 	 97.4944
| 33> H 	 -37.6588 	 2.74032 	 97.4248
| 34> H 	 -38.8833 	 3.97355 	 97.4338
| 35> C 	 -39.3642 	 2.27416 	 96.1661
| 36> H 	 -40.387 	 2.67942 	 95.9917
| 37> H 	 -39.2581 	 1.15668 	 96.0644
| 38> H 	 -38.7598 	 2.67009 	 95.3453
| 39> H 	 -38.2731 	 -2.87399 	 101.098
| 40> H 	 -38.2022 	 5.25934 	 102.522
| 41> *
| 42>
| 43>                          ****END OF INPUT****

CARTESIAN COORDINATES (ANGSTROEM)
---------------------------------
  S    -38.706700   -0.542173  101.938000
  C    -38.042600   -1.862800  101.018000
  C    -37.148200   -1.499030  100.037000
  C    -36.969000   -0.098278  100.062000
  C    -37.881400    0.553179  100.904000
  H    -36.348100    0.549704   99.486800
  C    -36.487200   -2.447030   99.000500
  H    -36.609800   -3.448710   99.315300
  H    -35.464200   -2.183390   98.821600
  C    -37.256200   -2.324740   97.720100
  H    -37.063700   -1.294830   97.267100
  H    -36.896900   -3.000170   96.943500
  C    -38.763900   -2.418260   97.833400
  H    -39.259900   -1.508850   98.130200
  H    -39.174300   -2.585390   96.855100
  H    -39.076900   -3.249050   98.387300
  S    -37.338000    2.870590  102.354000
  C    -38.103400    4.380750  101.853000
  C    -38.728500    4.211070  100.636000
  C    -38.694200    2.895680  100.124000
  C    -38.096400    1.973100  100.958000
  H    -39.319700    4.958810  100.164000
  C    -39.396100    2.367420   98.852000
  H    -40.378200    2.779690   99.092100
  H    -39.557200    1.281240   98.943800
  C    -38.769700    2.865590   97.494400
  H    -37.658800    2.740320   97.424800
  H    -38.883300    3.973550   97.433800
  C    -39.364200    2.274160   96.166100
  H    -40.387000    2.679420   95.991700
  H    -39.258100    1.156680   96.064400
  H    -38.759800    2.670090   95.345300
  H    -38.273100   -2.873990  101.098000
  H    -38.202200    5.259340  102.522000

 Total Charge           Charge          ....    0
 Multiplicity           Mult            ....    1
 Number of Electrons    NEL             ....  134
 Basis Dimension        Dim             ....  322

ORBITAL ENERGIES
----------------

  NO   OCC          E(Eh)            E(eV)
   0   2.0000     -88.970420     -2421.0082
   1   2.0000     -88.956929     -2420.6411
   2   2.0000     -10.323186      -280.9082
   3   2.0000     -10.322926      -280.9011
   4   2.0000     -10.322373      -280.8861
   5   2.0000     -10.306589      -280.4565
   6   2.0000     -10.302793      -280.3532
   7   2.0000     -10.300664      -280.2953
   8   2.0000     -10.300325      -280.2861
   9   2.0000     -10.297065      -280.1974
  10   2.0000     -10.292279      -280.0672
  11   2.0000     -10.291716      -280.0518
  12   2.0000     -10.291602      -280.0487
  13   2.0000     -10.288480      -279.9638
  14   2.0000     -10.287081      -279.9257
  15   2.0000     -10.266914      -279.3769
  16   2.0000      -8.085553      -220.0191
  17   2.0000      -8.070902      -219.6204
  18   2.0000      -6.043922      -164.4635
  19   2.0000      -6.040040      -164.3578
  20   2.0000      -6.036412      -164.2591
  21   2.0000      -6.029497      -164.0709
  22   2.0000      -6.025485      -163.9618
  23   2.0000      -6.021642      -163.8572
  24   2.0000      -1.007178       -27.4067
  25   2.0000      -0.980821       -26.6895
  26   2.0000      -0.920638       -25.0518
  27   2.0000      -0.894919       -24.3520
  28   2.0000      -0.868110       -23.6225
  29   2.0000      -0.849920       -23.1275
  30   2.0000      -0.844177       -22.9712
  31   2.0000      -0.811159       -22.0728
  32   2.0000      -0.792515       -21.5654
  33   2.0000      -0.771498       -20.9935
  34   2.0000      -0.706661       -19.2292
  35   2.0000      -0.696253       -18.9460
  36   2.0000      -0.691798       -18.8248
  37   2.0000      -0.659668       -17.9505
  38   2.0000      -0.646794       -17.6002
  39   2.0000      -0.616526       -16.7765
  40   2.0000      -0.589099       -16.0302
  41   2.0000      -0.570504       -15.5242
  42   2.0000      -0.560462       -15.2509
  43   2.0000      -0.555668       -15.1205
  44   2.0000      -0.545749       -14.8506
  45   2.0000      -0.523505       -14.2453
  46   2.0000      -0.517388       -14.0788
  47   2.0000      -0.512627       -13.9493
  48   2.0000      -0.509094       -13.8531
  49   2.0000      -0.493386       -13.4257
  50   2.0000      -0.485344       -13.2069
  51   2.0000      -0.481522       -13.1029
  52   2.0000      -0.469816       -12.7844
  53   2.0000      -0.463712       -12.6182
  54   2.0000      -0.457956       -12.4616
  55   2.0000      -0.449201       -12.2234
  56   2.0000      -0.444627       -12.0989
  57   2.0000      -0.440930       -11.9983
  58   2.0000      -0.432668       -11.7735
  59   2.0000      -0.425760       -11.5855
  60   2.0000      -0.425262       -11.5720
  61   2.0000      -0.414879       -11.2894
  62   2.0000      -0.401909       -10.9365
  63   2.0000      -0.337370        -9.1803
  64   2.0000      -0.327631        -8.9153
  65   2.0000      -0.320999        -8.7348
  66   2.0000      -0.304256        -8.2792
  67   0.0000       0.034523         0.9394
  68   0.0000       0.057344         1.5604
  69   0.0000       0.116004         3.1566
  70   0.0000       0.120929         3.2906
  71   0.0000       0.121796         3.3142

MULLIKEN ATOMIC CHARGES
-----------------------
   0 S :    0.146434
   1 C :   -0.081153
   2 C :   -0.114428
   3 C :    0.061206
   4 C :   -0.213029
   5 H :    0.000419
   6 C :    0.167425
   7 H :    0.008233
   8 H :    0.029747
   9 C :   -0.130468
  10 H :    0.026681
  11 H :    0.031600
  12 C :   -0.003984
  13 H :    0.040665
  14 H :    0.014038
  15 H :    0.009927
  16 S :    0.076320
  17 C :   -0.098749
  18 C :   -0.018571
  19 C :   -0.016319
  20 C :   -0.194576
  21 H :    0.004750
  22 C :    0.073534
  23 H :    0.027530
  24 H :    0.040490
  25 C :   -0.101843
  26 H :    0.040179
  27 H :    0.032175
  28 C :   -0.065974
  29 H :    0.042899
  30 H :    0.047956
  31 H :    0.029679
  32 H :    0.009644
  33 H :    0.077563
Sum of atomic charges:   -0.0000000

LOEWDIN ATOMIC CHARGES
----------------------
   0 S :    0.435095
   1 C :   -0.190870
   2 C :   -0.054786
   3 C :   -0.047394
   4 C :   -0.217615
   5 H :    0.026987
   6 C :   -0.016535
   7 H :    0.022986
   8 H :    0.032719
   9 C :   -0.046581
  10 H :    0.027100
  11 H :    0.022320
  12 C :   -0.061037
  13 H :    0.026767
  14 H :    0.026257
  15 H :    0.014318
  16 S :    0.356134
  17 C :   -0.175919
  18 C :   -0.076863
  19 C :   -0.051894
  20 C :   -0.183989
  21 H :    0.026379
  22 C :   -0.031605
  23 H :    0.033866
  24 H :    0.032871
  25 C :   -0.047791
  26 H :    0.028360
  27 H :    0.027839
  28 C :   -0.074762
  29 H :    0.028868
  30 H :    0.030580
  31 H :    0.026981
  32 H :    0.012044
  33 H :    0.039168

  Mayer bond orders larger than 0.100000
B(  0-S ,  1-C ) :   1.1474 B(  0-S ,  4-C ) :   1.1616 B(  1-C ,  2-C ) :   1.6158
B(  1-C , 32-H ) :   0.9654 B(  2-C ,  3-C ) :   1.2326 B(  2-C ,  6-C ) :   1.0249
B(  3-C ,  4-C ) :   1.5642 B(  3-C ,  5-H ) :   1.0011 B(  4-C , 20-C ) :   1.0364
B(  6-C ,  7-H ) :   0.9333 B(  6-C ,  8-H ) :   0.9389 B(  6-C ,  9-C ) :   1.0753
B(  9-C , 10-H ) :   0.9529 B(  9-C , 11-H ) :   0.9599 B(  9-C , 12-C ) :   1.0831
B( 12-C , 13-H ) :   0.9684 B( 12-C , 14-H ) :   0.9647 B( 12-C , 15-H ) :   0.9733
B( 16-S , 17-C ) :   1.1539 B( 16-S , 20-C ) :   1.1161 B( 17-C , 18-C ) :   1.5989
B( 17-C , 20-C ) :   0.1070 B( 17-C , 33-H ) :   0.9631 B( 18-C , 19-C ) :   1.2423
B( 18-C , 21-H ) :   0.9918 B( 19-C , 20-C ) :   1.6252 B( 19-C , 22-C ) :   1.0130
B( 22-C , 23-H ) :   0.9374 B( 22-C , 24-H ) :   0.9441 B( 22-C , 25-C ) :   1.0357
B( 25-C , 26-H ) :   0.9624 B( 25-C , 27-H ) :   0.9556 B( 25-C , 28-C ) :   1.0849
B( 28-C , 29-H ) :   0.9757 B( 28-C , 30-H ) :   0.9754 B( 28-C , 31-H ) :   0.9736

Dispersion correction           -0.015777544
FINAL SINGLE POINT ENERGY     -1339.869684440749

DIPOLE MOMENT
-------------
                                X             Y             Z
Electronic contribution:      4.08636       6.87015      29.43889
Nuclear contribution   :     -4.24915      -6.97874     -30.17951
                        -----------------------------------------
Total Dipole Moment    :     -0.16279      -0.10859      -0.74062
                        -----------------------------------------
Magnitude (a.u.)       :      0.76603
Magnitude (Debye)      :      1.94710

Rotational constants in cm-1:     0.017389     0.010553     0.007378
Rotational constants in MHz :   521.309908   316.382348   221.186464

                             ****ORCA TERMINATED NORMALLY****
TOTAL RUN TIME: 0 days 0 hours 0 minutes 32 seconds 492 msec
