                         Program Version 4.2.1 -  RELEASE  -
|  1> ! wB97X-D3 SP def2-SVP
|  2> %pal
|  3> nprocs 16
|  4> end
|  5>
|  6> * xyz 0 1
|  7> S 	 -50.8104 	 22.9954 	 82.2086
|  8> C 	 -51.284 	 23.3738 	 83.8974
|  9> C 	 -50.391 	 22.9088 	 84.776
| 10> C 	 -49.3821 	 22.1048 	 84.1398
| 11> C 	 -49.4989 	 22.0968 	 82.7384
| 12> H 	 -48.51 	 21.6278 	 84.6135
| 13> C 	 -50.4843 	 22.9866 	 86.3128
| 14> H 	 -50.2741 	 23.9668 	 86.6374
| 15> H 	 -49.6213 	 22.5887 	 86.8199
| 16> C 	 -51.6685 	 22.3319 	 87.0143
| 17> H 	 -52.5588 	 22.8408 	 86.5943
| 18> H 	 -51.7108 	 21.2677 	 86.765
| 19> C 	 -51.611 	 22.5022 	 88.5129
| 20> H 	 -51.6801 	 23.5722 	 88.6951
| 21> H 	 -52.4297 	 21.9653 	 89.077
| 22> H 	 -50.6475 	 22.2304 	 88.9429
| 23> S 	 -49.3571 	 19.9509 	 80.9281
| 24> C 	 -47.8815 	 19.6691 	 80.0328
| 25> C 	 -46.9057 	 20.5495 	 80.4633
| 26> C 	 -47.3077 	 21.5251 	 81.435
| 27> C 	 -48.6777 	 21.3993 	 81.7199
| 28> H 	 -45.9147 	 20.3487 	 79.9855
| 29> C 	 -46.3537 	 22.5691 	 82.0313
| 30> H 	 -46.7593 	 23.5777 	 82.1063
| 31> H 	 -45.5429 	 22.6383 	 81.2613
| 32> C 	 -45.651 	 22.1173 	 83.4145
| 33> H 	 -45.0522 	 21.2433 	 83.1785
| 34> H 	 -46.2935 	 21.7738 	 84.2359
| 35> C 	 -44.8142 	 23.2943 	 83.9021
| 36> H 	 -44.055 	 23.0269 	 84.538
| 37> H 	 -45.4175 	 24.1875 	 84.2856
| 38> H 	 -44.361 	 23.5904 	 82.9707
| 39> H 	 -52.2025 	 23.8781 	 84.1988
| 40> H 	 -47.7289 	 18.8318 	 79.3771
| 41> *
| 42>
| 43>                          ****END OF INPUT****

CARTESIAN COORDINATES (ANGSTROEM)
---------------------------------
  S    -50.810400   22.995400   82.208600
  C    -51.284000   23.373800   83.897400
  C    -50.391000   22.908800   84.776000
  C    -49.382100   22.104800   84.139800
  C    -49.498900   22.096800   82.738400
  H    -48.510000   21.627800   84.613500
  C    -50.484300   22.986600   86.312800
  H    -50.274100   23.966800   86.637400
  H    -49.621300   22.588700   86.819900
  C    -51.668500   22.331900   87.014300
  H    -52.558800   22.840800   86.594300
  H    -51.710800   21.267700   86.765000
  C    -51.611000   22.502200   88.512900
  H    -51.680100   23.572200   88.695100
  H    -52.429700   21.965300   89.077000
  H    -50.647500   22.230400   88.942900
  S    -49.357100   19.950900   80.928100
  C    -47.881500   19.669100   80.032800
  C    -46.905700   20.549500   80.463300
  C    -47.307700   21.525100   81.435000
  C    -48.677700   21.399300   81.719900
  H    -45.914700   20.348700   79.985500
  C    -46.353700   22.569100   82.031300
  H    -46.759300   23.577700   82.106300
  H    -45.542900   22.638300   81.261300
  C    -45.651000   22.117300   83.414500
  H    -45.052200   21.243300   83.178500
  H    -46.293500   21.773800   84.235900
  C    -44.814200   23.294300   83.902100
  H    -44.055000   23.026900   84.538000
  H    -45.417500   24.187500   84.285600
  H    -44.361000   23.590400   82.970700
  H    -52.202500   23.878100   84.198800
  H    -47.728900   18.831800   79.377100

 Total Charge           Charge          ....    0
 Multiplicity           Mult            ....    1
 Number of Electrons    NEL             ....  134
 Basis Dimension        Dim             ....  322

ORBITAL ENERGIES
----------------

  NO   OCC          E(Eh)            E(eV)
   0   2.0000     -88.965211     -2420.8665
   1   2.0000     -88.964115     -2420.8366
   2   2.0000     -10.330573      -281.1092
   3   2.0000     -10.326408      -280.9958
   4   2.0000     -10.317322      -280.7486
   5   2.0000     -10.311585      -280.5925
   6   2.0000     -10.310529      -280.5638
   7   2.0000     -10.303108      -280.3618
   8   2.0000     -10.300411      -280.2884
   9   2.0000     -10.298322      -280.2316
  10   2.0000     -10.295776      -280.1623
  11   2.0000     -10.291942      -280.0580
  12   2.0000     -10.287695      -279.9424
  13   2.0000     -10.286929      -279.9216
  14   2.0000     -10.282268      -279.7947
  15   2.0000     -10.274267      -279.5770
  16   2.0000      -8.080733      -219.8879
  17   2.0000      -8.078385      -219.8240
  18   2.0000      -6.039161      -164.3339
  19   2.0000      -6.036875      -164.2717
  20   2.0000      -6.035065      -164.2225
  21   2.0000      -6.032886      -164.1632
  22   2.0000      -6.031573      -164.1275
  23   2.0000      -6.029244      -164.0641
  24   2.0000      -1.006019       -27.3752
  25   2.0000      -0.981868       -26.7180
  26   2.0000      -0.916453       -24.9380
  27   2.0000      -0.902465       -24.5573
  28   2.0000      -0.871171       -23.7058
  29   2.0000      -0.850878       -23.1536
  30   2.0000      -0.841371       -22.8949
  31   2.0000      -0.808860       -22.0102
  32   2.0000      -0.785393       -21.3716
  33   2.0000      -0.770445       -20.9649
  34   2.0000      -0.705523       -19.1982
  35   2.0000      -0.702747       -19.1227
  36   2.0000      -0.694946       -18.9104
  37   2.0000      -0.654653       -17.8140
  38   2.0000      -0.640351       -17.4248
  39   2.0000      -0.613971       -16.7070
  40   2.0000      -0.596537       -16.2326
  41   2.0000      -0.573517       -15.6062
  42   2.0000      -0.562494       -15.3062
  43   2.0000      -0.557181       -15.1617
  44   2.0000      -0.530582       -14.4379
  45   2.0000      -0.526305       -14.3215
  46   2.0000      -0.516048       -14.0424
  47   2.0000      -0.511877       -13.9289
  48   2.0000      -0.507005       -13.7963
  49   2.0000      -0.499580       -13.5943
  50   2.0000      -0.484315       -13.1789
  51   2.0000      -0.475434       -12.9372
  52   2.0000      -0.471931       -12.8419
  53   2.0000      -0.459782       -12.5113
  54   2.0000      -0.455356       -12.3909
  55   2.0000      -0.449058       -12.2195
  56   2.0000      -0.444360       -12.0917
  57   2.0000      -0.437547       -11.9063
  58   2.0000      -0.435575       -11.8526
  59   2.0000      -0.429239       -11.6802
  60   2.0000      -0.424547       -11.5525
  61   2.0000      -0.413397       -11.2491
  62   2.0000      -0.407775       -11.0961
  63   2.0000      -0.339020        -9.2252
  64   2.0000      -0.333514        -9.0754
  65   2.0000      -0.323786        -8.8107
  66   2.0000      -0.304033        -8.2732
  67   0.0000       0.036324         0.9884
  68   0.0000       0.063688         1.7330
  69   0.0000       0.114543         3.1169
  70   0.0000       0.120769         3.2863
  71   0.0000       0.129684         3.5289

MULLIKEN ATOMIC CHARGES
-----------------------
   0 S :    0.120519
   1 C :   -0.146944
   2 C :   -0.041300
   3 C :    0.037249
   4 C :   -0.180340
   5 H :    0.012856
   6 C :    0.073559
   7 H :    0.007644
   8 H :   -0.012034
   9 C :   -0.055402
  10 H :    0.027631
  11 H :    0.037879
  12 C :   -0.054853
  13 H :    0.022288
  14 H :    0.051849
  15 H :    0.025079
  16 S :    0.105385
  17 C :   -0.096988
  18 C :   -0.065541
  19 C :    0.014873
  20 C :   -0.169009
  21 H :    0.033758
  22 C :    0.030209
  23 H :    0.043480
  24 H :    0.030748
  25 C :   -0.083673
  26 H :    0.027157
  27 H :    0.032768
  28 C :   -0.017496
  29 H :    0.019233
  30 H :    0.052040
  31 H :    0.012333
  32 H :    0.047559
  33 H :    0.057483
Sum of atomic charges:    0.0000000

LOEWDIN ATOMIC CHARGES
----------------------
   0 S :    0.428221
   1 C :   -0.185704
   2 C :   -0.061474
   3 C :   -0.065690
   4 C :   -0.219531
   5 H :    0.031627
   6 C :   -0.036196
   7 H :    0.025235
   8 H :    0.026096
   9 C :   -0.038813
  10 H :    0.023776
  11 H :    0.026894
  12 C :   -0.068511
  13 H :    0.024628
  14 H :    0.035732
  15 H :    0.022194
  16 S :    0.395452
  17 C :   -0.185310
  18 C :   -0.083177
  19 C :   -0.054157
  20 C :   -0.197547
  21 H :    0.038867
  22 C :   -0.028555
  23 H :    0.032541
  24 H :    0.035528
  25 C :   -0.034439
  26 H :    0.023834
  27 H :    0.018980
  28 C :   -0.063143
  29 H :    0.012646
  30 H :    0.037527
  31 H :    0.023271
  32 H :    0.029947
  33 H :    0.029253

  Mayer bond orders larger than 0.100000
B(  0-S ,  1-C ) :   1.1230 B(  0-S ,  4-C ) :   1.1912 B(  1-C ,  2-C ) :   1.6429
B(  1-C , 32-H ) :   0.9704 B(  2-C ,  3-C ) :   1.2324 B(  2-C ,  6-C ) :   1.0076
B(  3-C ,  4-C ) :   1.5720 B(  3-C ,  5-H ) :   0.9923 B(  4-C , 20-C ) :   0.9948
B(  6-C ,  7-H ) :   0.9310 B(  6-C ,  8-H ) :   0.9333 B(  6-C ,  9-C ) :   1.0608
B(  9-C , 10-H ) :   0.9550 B(  9-C , 11-H ) :   0.9562 B(  9-C , 12-C ) :   1.0804
B( 12-C , 13-H ) :   0.9733 B( 12-C , 14-H ) :   0.9728 B( 12-C , 15-H ) :   0.9737
B( 16-S , 17-C ) :   1.1544 B( 16-S , 20-C ) :   1.1534 B( 17-C , 18-C ) :   1.6175
B( 17-C , 20-C ) :   0.1029 B( 17-C , 33-H ) :   0.9688 B( 18-C , 19-C ) :   1.2349
B( 18-C , 21-H ) :   0.9813 B( 19-C , 20-C ) :   1.5878 B( 19-C , 22-C ) :   1.0370
B( 22-C , 23-H ) :   0.9466 B( 22-C , 24-H ) :   0.9339 B( 22-C , 25-C ) :   1.0440
B( 25-C , 26-H ) :   0.9522 B( 25-C , 27-H ) :   0.9603 B( 25-C , 28-C ) :   1.0792
B( 28-C , 29-H ) :   0.9721 B( 28-C , 30-H ) :   0.9743 B( 28-C , 31-H ) :   0.9698

Dispersion correction           -0.013837176
FINAL SINGLE POINT ENERGY     -1339.870021027164

DIPOLE MOMENT
-------------
                                X             Y             Z
Electronic contribution:    -10.72156      -7.35288     -25.34625
Nuclear contribution   :     11.21628       7.37663      25.83851
                        -----------------------------------------
Total Dipole Moment    :      0.49472       0.02375       0.49226
                        -----------------------------------------
Magnitude (a.u.)       :      0.69831
Magnitude (Debye)      :      1.77496

Rotational constants in cm-1:     0.018229     0.008019     0.006439
Rotational constants in MHz :   546.506469   240.414104   193.036399

                             ****ORCA TERMINATED NORMALLY****
TOTAL RUN TIME: 0 days 0 hours 0 minutes 29 seconds 299 msec
