                         Program Version 4.2.1 -  RELEASE  -
|  1> ! wB97X-D3 SP def2-SVP
|  2> %pal
|  3> nprocs 16
|  4> end
|  5>
|  6> * xyz 0 1
|  7> S 	 -4.25713 	 24.7886 	 52.1332
|  8> C 	 -3.13262 	 24.3618 	 50.9214
|  9> C 	 -3.39235 	 23.1496 	 50.3677
| 10> C 	 -4.45042 	 22.5495 	 50.9746
| 11> C 	 -5.17592 	 23.3289 	 51.8785
| 12> H 	 -4.88082 	 21.615 	 50.8624
| 13> C 	 -2.58728 	 22.5928 	 49.2179
| 14> H 	 -1.64009 	 23.0819 	 49.1874
| 15> H 	 -3.2057 	 22.8935 	 48.4003
| 16> C 	 -2.45676 	 21.0619 	 49.2205
| 17> H 	 -2.21375 	 20.6147 	 50.1532
| 18> H 	 -3.44551 	 20.7288 	 49.062
| 19> C 	 -1.66089 	 20.4822 	 48.1202
| 20> H 	 -1.74287 	 19.4132 	 48.0961
| 21> H 	 -2.06027 	 20.8183 	 47.1482
| 22> H 	 -0.634662 	 20.7686 	 48.0963
| 23> S 	 -7.64413 	 22.1759 	 51.8244
| 24> C 	 -8.68943 	 22.3394 	 53.216
| 25> C 	 -8.06863 	 22.9568 	 54.2181
| 26> C 	 -6.68262 	 23.3328 	 53.9679
| 27> C 	 -6.31124 	 22.9802 	 52.6625
| 28> H 	 -8.71041 	 23.1414 	 55.1557
| 29> C 	 -5.82691 	 23.9599 	 55.0176
| 30> H 	 -5.86066 	 25.0665 	 54.8037
| 31> H 	 -4.73362 	 23.6215 	 54.9702
| 32> C 	 -6.20898 	 23.7022 	 56.4509
| 33> H 	 -7.26664 	 24.0015 	 56.6108
| 34> H 	 -5.59294 	 24.2243 	 57.2637
| 35> C 	 -6.08382 	 22.2181 	 56.7915
| 36> H 	 -5.13328 	 21.8549 	 56.3828
| 37> H 	 -6.94427 	 21.7531 	 56.3574
| 38> H 	 -6.0745 	 22.1146 	 57.8904
| 39> H 	 -2.34552 	 25.0132 	 50.4944
| 40> H 	 -9.70191 	 22.0104 	 53.2429
| 41> *
| 42>
| 43>                          ****END OF INPUT****

CARTESIAN COORDINATES (ANGSTROEM)
---------------------------------
  S     -4.257130   24.788600   52.133200
  C     -3.132620   24.361800   50.921400
  C     -3.392350   23.149600   50.367700
  C     -4.450420   22.549500   50.974600
  C     -5.175920   23.328900   51.878500
  H     -4.880820   21.615000   50.862400
  C     -2.587280   22.592800   49.217900
  H     -1.640090   23.081900   49.187400
  H     -3.205700   22.893500   48.400300
  C     -2.456760   21.061900   49.220500
  H     -2.213750   20.614700   50.153200
  H     -3.445510   20.728800   49.062000
  C     -1.660890   20.482200   48.120200
  H     -1.742870   19.413200   48.096100
  H     -2.060270   20.818300   47.148200
  H     -0.634662   20.768600   48.096300
  S     -7.644130   22.175900   51.824400
  C     -8.689430   22.339400   53.216000
  C     -8.068630   22.956800   54.218100
  C     -6.682620   23.332800   53.967900
  C     -6.311240   22.980200   52.662500
  H     -8.710410   23.141400   55.155700
  C     -5.826910   23.959900   55.017600
  H     -5.860660   25.066500   54.803700
  H     -4.733620   23.621500   54.970200
  C     -6.208980   23.702200   56.450900
  H     -7.266640   24.001500   56.610800
  H     -5.592940   24.224300   57.263700
  C     -6.083820   22.218100   56.791500
  H     -5.133280   21.854900   56.382800
  H     -6.944270   21.753100   56.357400
  H     -6.074500   22.114600   57.890400
  H     -2.345520   25.013200   50.494400
  H     -9.701910   22.010400   53.242900

 Total Charge           Charge          ....    0
 Multiplicity           Mult            ....    1
 Number of Electrons    NEL             ....  134
 Basis Dimension        Dim             ....  322

ORBITAL ENERGIES
----------------

  NO   OCC          E(Eh)            E(eV)
   0   2.0000     -88.966051     -2420.8893
   1   2.0000     -88.963156     -2420.8105
   2   2.0000     -10.328775      -281.0603
   3   2.0000     -10.324126      -280.9338
   4   2.0000     -10.312174      -280.6085
   5   2.0000     -10.309303      -280.5304
   6   2.0000     -10.306576      -280.4562
   7   2.0000     -10.298587      -280.2388
   8   2.0000     -10.297849      -280.2187
   9   2.0000     -10.289810      -280.0000
  10   2.0000     -10.288291      -279.9586
  11   2.0000     -10.287257      -279.9305
  12   2.0000     -10.281342      -279.7696
  13   2.0000     -10.275574      -279.6126
  14   2.0000     -10.271345      -279.4975
  15   2.0000     -10.271270      -279.4955
  16   2.0000      -8.081133      -219.8988
  17   2.0000      -8.077978      -219.8130
  18   2.0000      -6.039397      -164.3403
  19   2.0000      -6.036598      -164.2642
  20   2.0000      -6.035534      -164.2352
  21   2.0000      -6.032546      -164.1539
  22   2.0000      -6.032198      -164.1444
  23   2.0000      -6.028545      -164.0450
  24   2.0000      -1.014991       -27.6193
  25   2.0000      -0.991034       -26.9674
  26   2.0000      -0.920466       -25.0472
  27   2.0000      -0.915211       -24.9042
  28   2.0000      -0.881040       -23.9743
  29   2.0000      -0.857838       -23.3430
  30   2.0000      -0.843944       -22.9649
  31   2.0000      -0.820285       -22.3211
  32   2.0000      -0.786884       -21.4122
  33   2.0000      -0.771998       -21.0071
  34   2.0000      -0.718871       -19.5615
  35   2.0000      -0.696200       -18.9446
  36   2.0000      -0.686894       -18.6913
  37   2.0000      -0.661817       -18.0090
  38   2.0000      -0.635936       -17.3047
  39   2.0000      -0.618388       -16.8272
  40   2.0000      -0.604726       -16.4554
  41   2.0000      -0.578143       -15.7321
  42   2.0000      -0.570767       -15.5314
  43   2.0000      -0.556800       -15.1513
  44   2.0000      -0.540800       -14.7159
  45   2.0000      -0.531450       -14.4615
  46   2.0000      -0.524311       -14.2672
  47   2.0000      -0.510659       -13.8957
  48   2.0000      -0.506336       -13.7781
  49   2.0000      -0.499184       -13.5835
  50   2.0000      -0.491200       -13.3662
  51   2.0000      -0.485395       -13.2083
  52   2.0000      -0.478699       -13.0261
  53   2.0000      -0.470051       -12.7907
  54   2.0000      -0.459923       -12.5151
  55   2.0000      -0.447078       -12.1656
  56   2.0000      -0.442017       -12.0279
  57   2.0000      -0.436167       -11.8687
  58   2.0000      -0.431491       -11.7415
  59   2.0000      -0.423170       -11.5151
  60   2.0000      -0.417465       -11.3598
  61   2.0000      -0.415776       -11.3138
  62   2.0000      -0.407667       -11.0932
  63   2.0000      -0.359234        -9.7753
  64   2.0000      -0.334920        -9.1136
  65   2.0000      -0.327678        -8.9166
  66   2.0000      -0.283452        -7.7131
  67   0.0000       0.023734         0.6458
  68   0.0000       0.082384         2.2418
  69   0.0000       0.114714         3.1215
  70   0.0000       0.125037         3.4024
  71   0.0000       0.136406         3.7118

MULLIKEN ATOMIC CHARGES
-----------------------
   0 S :    0.118232
   1 C :   -0.141535
   2 C :   -0.054930
   3 C :    0.002820
   4 C :   -0.148276
   5 H :   -0.024863
   6 C :    0.128265
   7 H :    0.011399
   8 H :    0.035048
   9 C :   -0.074057
  10 H :    0.022621
  11 H :    0.014288
  12 C :   -0.004566
  13 H :    0.028158
  14 H :    0.012237
  15 H :    0.022026
  16 S :    0.090041
  17 C :   -0.076675
  18 C :   -0.066995
  19 C :   -0.054518
  20 C :   -0.138089
  21 H :    0.051374
  22 C :    0.029047
  23 H :    0.057672
  24 H :    0.051490
  25 C :   -0.118887
  26 H :    0.025031
  27 H :    0.042888
  28 C :   -0.034941
  29 H :    0.030136
  30 H :    0.033167
  31 H :    0.034469
  32 H :    0.051366
  33 H :    0.046558
Sum of atomic charges:   -0.0000000

LOEWDIN ATOMIC CHARGES
----------------------
   0 S :    0.439796
   1 C :   -0.215606
   2 C :   -0.069353
   3 C :   -0.063106
   4 C :   -0.195551
   5 H :    0.015126
   6 C :   -0.014919
   7 H :    0.022890
   8 H :    0.036793
   9 C :   -0.041163
  10 H :    0.021053
  11 H :    0.021985
  12 C :   -0.057814
  13 H :    0.026612
  14 H :    0.026078
  15 H :    0.018724
  16 S :    0.392389
  17 C :   -0.180430
  18 C :   -0.084721
  19 C :   -0.059432
  20 C :   -0.188015
  21 H :    0.047722
  22 C :   -0.052542
  23 H :    0.040326
  24 H :    0.039326
  25 C :   -0.053305
  26 H :    0.018861
  27 H :    0.033645
  28 C :   -0.061063
  29 H :    0.025051
  30 H :    0.020541
  31 H :    0.026988
  32 H :    0.035314
  33 H :    0.027798

  Mayer bond orders larger than 0.100000
B(  0-S ,  1-C ) :   1.1638 B(  0-S ,  4-C ) :   1.1622 B(  1-C ,  2-C ) :   1.5803
B(  1-C ,  4-C ) :   0.1046 B(  1-C , 32-H ) :   0.9608 B(  2-C ,  3-C ) :   1.2782
B(  2-C ,  6-C ) :   1.0036 B(  3-C ,  4-C ) :   1.5105 B(  3-C ,  5-H ) :   1.0119
B(  4-C , 20-C ) :   1.0811 B(  6-C ,  7-H ) :   0.9420 B(  6-C ,  8-H ) :   0.9240
B(  6-C ,  9-C ) :   1.0748 B(  9-C , 10-H ) :   0.9624 B(  9-C , 11-H ) :   0.9359
B(  9-C , 12-C ) :   1.1074 B( 12-C , 13-H ) :   0.9695 B( 12-C , 14-H ) :   0.9667
B( 12-C , 15-H ) :   0.9729 B( 16-S , 17-C ) :   1.1309 B( 16-S , 20-C ) :   1.1302
B( 17-C , 18-C ) :   1.6679 B( 17-C , 33-H ) :   0.9648 B( 18-C , 19-C ) :   1.2032
B( 18-C , 21-H ) :   0.9660 B( 19-C , 20-C ) :   1.5939 B( 19-C , 22-C ) :   1.0277
B( 22-C , 23-H ) :   0.9206 B( 22-C , 24-H ) :   0.9419 B( 22-C , 25-C ) :   1.0856
B( 25-C , 26-H ) :   0.9436 B( 25-C , 27-H ) :   0.9581 B( 25-C , 28-C ) :   1.0745
B( 28-C , 29-H ) :   0.9738 B( 28-C , 30-H ) :   0.9738 B( 28-C , 31-H ) :   0.9761

Dispersion correction           -0.013848341
FINAL SINGLE POINT ENERGY     -1339.872777124428

DIPOLE MOMENT
-------------
                                X             Y             Z
Electronic contribution:    -11.44854       9.39053      -3.10347
Nuclear contribution   :     11.53933      -9.50252       3.15450
                        -----------------------------------------
Total Dipole Moment    :      0.09079      -0.11198       0.05103
                        -----------------------------------------
Magnitude (a.u.)       :      0.15293
Magnitude (Debye)      :      0.38871

Rotational constants in cm-1:     0.023068     0.007233     0.006474
Rotational constants in MHz :   691.555550   216.838766   194.084444

                             ****ORCA TERMINATED NORMALLY****
TOTAL RUN TIME: 0 days 0 hours 0 minutes 34 seconds 520 msec
