                         Program Version 4.2.1 -  RELEASE  -
|  1> ! wB97X-D3 SP def2-SVP
|  2> %pal
|  3> nprocs 16
|  4> end
|  5>
|  6> * xyz 0 1
|  7> S 	 -34.2232 	 69.4437 	 110.481
|  8> C 	 -34.5474 	 68.132 	 109.372
|  9> C 	 -33.7189 	 68.0996 	 108.267
| 10> C 	 -32.6782 	 69.0688 	 108.439
| 11> C 	 -32.9021 	 69.9622 	 109.496
| 12> H 	 -31.8596 	 69.0204 	 107.71
| 13> C 	 -33.5379 	 67.0288 	 107.224
| 14> H 	 -34.3384 	 66.2407 	 107.371
| 15> H 	 -32.5889 	 66.4274 	 107.297
| 16> C 	 -33.7872 	 67.3935 	 105.723
| 17> H 	 -34.8 	 67.7291 	 105.706
| 18> H 	 -33.272 	 68.3452 	 105.6
| 19> C 	 -33.3914 	 66.328 	 104.793
| 20> H 	 -33.9104 	 65.359 	 104.865
| 21> H 	 -33.487 	 66.6774 	 103.766
| 22> H 	 -32.3199 	 66.1211 	 104.867
| 23> S 	 -31.5354 	 71.1587 	 111.621
| 24> C 	 -30.3807 	 72.3761 	 111.276
| 25> C 	 -30.1897 	 72.6279 	 109.924
| 26> C 	 -31.1395 	 71.8442 	 109.151
| 27> C 	 -31.918 	 70.9775 	 109.909
| 28> H 	 -29.6011 	 73.5337 	 109.652
| 29> C 	 -31.1867 	 72.0102 	 107.648
| 30> H 	 -30.9944 	 71.0406 	 107.196
| 31> H 	 -30.3832 	 72.7166 	 107.25
| 32> C 	 -32.5246 	 72.4046 	 107.026
| 33> H 	 -32.9916 	 73.3429 	 107.426
| 34> H 	 -33.2028 	 71.653 	 107.27
| 35> C 	 -32.5028 	 72.4276 	 105.484
| 36> H 	 -32.1388 	 71.4052 	 105.154
| 37> H 	 -31.9936 	 73.2124 	 104.953
| 38> H 	 -33.538 	 72.5678 	 105.137
| 39> H 	 -35.4394 	 67.4176 	 109.56
| 40> H 	 -29.9355 	 73.0403 	 112.074
| 41> *
| 42>
| 43>                          ****END OF INPUT****

CARTESIAN COORDINATES (ANGSTROEM)
---------------------------------
  S    -34.223200   69.443700  110.481000
  C    -34.547400   68.132000  109.372000
  C    -33.718900   68.099600  108.267000
  C    -32.678200   69.068800  108.439000
  C    -32.902100   69.962200  109.496000
  H    -31.859600   69.020400  107.710000
  C    -33.537900   67.028800  107.224000
  H    -34.338400   66.240700  107.371000
  H    -32.588900   66.427400  107.297000
  C    -33.787200   67.393500  105.723000
  H    -34.800000   67.729100  105.706000
  H    -33.272000   68.345200  105.600000
  C    -33.391400   66.328000  104.793000
  H    -33.910400   65.359000  104.865000
  H    -33.487000   66.677400  103.766000
  H    -32.319900   66.121100  104.867000
  S    -31.535400   71.158700  111.621000
  C    -30.380700   72.376100  111.276000
  C    -30.189700   72.627900  109.924000
  C    -31.139500   71.844200  109.151000
  C    -31.918000   70.977500  109.909000
  H    -29.601100   73.533700  109.652000
  C    -31.186700   72.010200  107.648000
  H    -30.994400   71.040600  107.196000
  H    -30.383200   72.716600  107.250000
  C    -32.524600   72.404600  107.026000
  H    -32.991600   73.342900  107.426000
  H    -33.202800   71.653000  107.270000
  C    -32.502800   72.427600  105.484000
  H    -32.138800   71.405200  105.154000
  H    -31.993600   73.212400  104.953000
  H    -33.538000   72.567800  105.137000
  H    -35.439400   67.417600  109.560000
  H    -29.935500   73.040300  112.074000

 Total Charge           Charge          ....    0
 Multiplicity           Mult            ....    1
 Number of Electrons    NEL             ....  134
 Basis Dimension        Dim             ....  322

ORBITAL ENERGIES
----------------

  NO   OCC          E(Eh)            E(eV)
   0   2.0000     -88.974588     -2421.1216
   1   2.0000     -88.965787     -2420.8821
   2   2.0000     -10.333947      -281.2010
   3   2.0000     -10.327827      -281.0344
   4   2.0000     -10.325854      -280.9808
   5   2.0000     -10.318924      -280.7922
   6   2.0000     -10.306404      -280.4515
   7   2.0000     -10.303614      -280.3756
   8   2.0000     -10.299895      -280.2744
   9   2.0000     -10.298375      -280.2330
  10   2.0000     -10.298299      -280.2310
  11   2.0000     -10.292470      -280.0724
  12   2.0000     -10.284256      -279.8488
  13   2.0000     -10.281494      -279.7737
  14   2.0000     -10.280019      -279.7335
  15   2.0000     -10.278332      -279.6876
  16   2.0000      -8.089527      -220.1272
  17   2.0000      -8.081081      -219.8974
  18   2.0000      -6.048005      -164.5746
  19   2.0000      -6.044047      -164.4669
  20   2.0000      -6.040273      -164.3642
  21   2.0000      -6.039478      -164.3425
  22   2.0000      -6.035561      -164.2360
  23   2.0000      -6.031883      -164.1359
  24   2.0000      -1.008888       -27.4532
  25   2.0000      -0.986291       -26.8383
  26   2.0000      -0.916482       -24.9387
  27   2.0000      -0.907366       -24.6907
  28   2.0000      -0.870899       -23.6984
  29   2.0000      -0.855448       -23.2779
  30   2.0000      -0.847718       -23.0676
  31   2.0000      -0.808908       -22.0115
  32   2.0000      -0.782799       -21.3011
  33   2.0000      -0.770012       -20.9531
  34   2.0000      -0.706774       -19.2323
  35   2.0000      -0.701027       -19.0759
  36   2.0000      -0.684553       -18.6276
  37   2.0000      -0.659307       -17.9407
  38   2.0000      -0.631799       -17.1921
  39   2.0000      -0.629329       -17.1249
  40   2.0000      -0.594754       -16.1841
  41   2.0000      -0.569523       -15.4975
  42   2.0000      -0.562589       -15.3088
  43   2.0000      -0.558087       -15.1863
  44   2.0000      -0.526133       -14.3168
  45   2.0000      -0.520623       -14.1669
  46   2.0000      -0.513464       -13.9721
  47   2.0000      -0.509965       -13.8769
  48   2.0000      -0.499446       -13.5906
  49   2.0000      -0.493830       -13.4378
  50   2.0000      -0.490195       -13.3389
  51   2.0000      -0.484935       -13.1958
  52   2.0000      -0.475302       -12.9336
  53   2.0000      -0.468404       -12.7459
  54   2.0000      -0.456737       -12.4284
  55   2.0000      -0.453703       -12.3459
  56   2.0000      -0.448116       -12.1939
  57   2.0000      -0.441531       -12.0147
  58   2.0000      -0.430435       -11.7127
  59   2.0000      -0.425809       -11.5868
  60   2.0000      -0.421313       -11.4645
  61   2.0000      -0.410802       -11.1785
  62   2.0000      -0.406378       -11.0581
  63   2.0000      -0.350775        -9.5451
  64   2.0000      -0.336427        -9.1546
  65   2.0000      -0.330286        -8.9875
  66   2.0000      -0.287433        -7.8214
  67   0.0000       0.023402         0.6368
  68   0.0000       0.076840         2.0909
  69   0.0000       0.103081         2.8050
  70   0.0000       0.113123         3.0782
  71   0.0000       0.121349         3.3021

MULLIKEN ATOMIC CHARGES
-----------------------
   0 S :    0.123289
   1 C :   -0.164478
   2 C :   -0.029346
   3 C :   -0.009674
   4 C :   -0.125670
   5 H :    0.026520
   6 C :   -0.043028
   7 H :    0.019301
   8 H :    0.048369
   9 C :   -0.041442
  10 H :    0.017528
  11 H :    0.011703
  12 C :   -0.024744
  13 H :    0.040568
  14 H :    0.033178
  15 H :    0.026708
  16 S :    0.107190
  17 C :   -0.123018
  18 C :   -0.041414
  19 C :   -0.039346
  20 C :   -0.126528
  21 H :    0.043963
  22 C :    0.053847
  23 H :    0.009548
  24 H :    0.030466
  25 C :   -0.066865
  26 H :    0.032063
  27 H :    0.023010
  28 C :   -0.063668
  29 H :    0.029749
  30 H :    0.032431
  31 H :    0.030695
  32 H :    0.080615
  33 H :    0.078480
Sum of atomic charges:    0.0000000

LOEWDIN ATOMIC CHARGES
----------------------
   0 S :    0.422557
   1 C :   -0.201837
   2 C :   -0.074285
   3 C :   -0.054649
   4 C :   -0.205514
   5 H :    0.032078
   6 C :   -0.043415
   7 H :    0.030869
   8 H :    0.035950
   9 C :   -0.044534
  10 H :    0.022052
  11 H :    0.020012
  12 C :   -0.067717
  13 H :    0.030653
  14 H :    0.031769
  15 H :    0.029065
  16 S :    0.408972
  17 C :   -0.202349
  18 C :   -0.081888
  19 C :   -0.053034
  20 C :   -0.198382
  21 H :    0.043632
  22 C :   -0.037186
  23 H :    0.026095
  24 H :    0.035471
  25 C :   -0.041051
  26 H :    0.026535
  27 H :    0.016363
  28 C :   -0.067590
  29 H :    0.027321
  30 H :    0.019081
  31 H :    0.029469
  32 H :    0.044642
  33 H :    0.040847

  Mayer bond orders larger than 0.100000
B(  0-S ,  1-C ) :   1.1500 B(  0-S ,  4-C ) :   1.1555 B(  1-C ,  2-C ) :   1.5996
B(  1-C , 32-H ) :   0.9497 B(  2-C ,  3-C ) :   1.2624 B(  2-C ,  6-C ) :   1.0314
B(  3-C ,  4-C ) :   1.5296 B(  3-C ,  5-H ) :   0.9830 B(  4-C , 20-C ) :   1.0583
B(  6-C ,  7-H ) :   0.9456 B(  6-C ,  8-H ) :   0.9520 B(  6-C ,  9-C ) :   1.0390
B(  9-C , 10-H ) :   0.9496 B(  9-C , 11-H ) :   0.9561 B(  9-C , 12-C ) :   1.0875
B( 12-C , 13-H ) :   0.9728 B( 12-C , 14-H ) :   0.9676 B( 12-C , 15-H ) :   0.9678
B( 16-S , 17-C ) :   1.1748 B( 16-S , 20-C ) :   1.1215 B( 17-C , 18-C ) :   1.6152
B( 17-C , 33-H ) :   0.9540 B( 18-C , 19-C ) :   1.2413 B( 18-C , 21-H ) :   0.9813
B( 19-C , 20-C ) :   1.6044 B( 19-C , 22-C ) :   1.0473 B( 22-C , 23-H ) :   0.9224
B( 22-C , 24-H ) :   0.9433 B( 22-C , 25-C ) :   1.0657 B( 25-C , 26-H ) :   0.9547
B( 25-C , 27-H ) :   0.9467 B( 25-C , 28-C ) :   1.0855 B( 28-C , 29-H ) :   0.9705
B( 28-C , 30-H ) :   0.9776 B( 28-C , 31-H ) :   0.9737

Dispersion correction           -0.014407232
FINAL SINGLE POINT ENERGY     -1339.874324673915

DIPOLE MOMENT
-------------
                                X             Y             Z
Electronic contribution:      0.41543       5.37121      32.56598
Nuclear contribution   :     -0.38585      -5.47701     -33.12818
                        -----------------------------------------
Total Dipole Moment    :      0.02958      -0.10581      -0.56220
                        -----------------------------------------
Magnitude (a.u.)       :      0.57283
Magnitude (Debye)      :      1.45602

Rotational constants in cm-1:     0.018358     0.009092     0.006818
Rotational constants in MHz :   550.367713   272.556452   204.398831

                             ****ORCA TERMINATED NORMALLY****
TOTAL RUN TIME: 0 days 0 hours 0 minutes 31 seconds 150 msec
