                         Program Version 4.2.1 -  RELEASE  -
|  1> ! wB97X-D3 SP def2-SVP
|  2> %pal
|  3> nprocs 16
|  4> end
|  5>
|  6> * xyz 0 1
|  7> S 	 36.8044 	 -0.0291919 	 77.0426
|  8> C 	 36.8144 	 -1.20037 	 75.7493
|  9> C 	 35.6618 	 -2.02225 	 75.813
| 10> C 	 34.9443 	 -1.81992 	 77.0162
| 11> C 	 35.4559 	 -0.859235 	 77.8022
| 12> H 	 33.9995 	 -2.223 	 77.3166
| 13> C 	 35.2726 	 -3.06455 	 74.8468
| 14> H 	 34.5921 	 -3.74543 	 75.4257
| 15> H 	 36.2137 	 -3.52327 	 74.5862
| 16> C 	 34.4094 	 -2.62025 	 73.5833
| 17> H 	 34.8712 	 -1.8 	 73.0583
| 18> H 	 34.398 	 -3.38564 	 72.8808
| 19> C 	 32.9186 	 -2.33044 	 73.892
| 20> H 	 32.7596 	 -1.3544 	 74.3982
| 21> H 	 32.2444 	 -2.34054 	 73.0548
| 22> H 	 32.6329 	 -3.17698 	 74.4529
| 23> S 	 33.8174 	 1.23265 	 78.6091
| 24> C 	 33.2684 	 1.19091 	 80.2863
| 25> C 	 33.6873 	 0.0504168 	 81.001
| 26> C 	 34.4987 	 -0.834823 	 80.1629
| 27> C 	 34.8049 	 -0.246135 	 78.9187
| 28> H 	 33.3008 	 -0.130305 	 81.9935
| 29> C 	 35.0939 	 -2.19032 	 80.5771
| 30> H 	 35.1111 	 -2.71721 	 79.6514
| 31> H 	 34.4496 	 -2.86954 	 81.1672
| 32> C 	 36.4714 	 -1.99105 	 81.1928
| 33> H 	 36.4487 	 -1.21574 	 81.9629
| 34> H 	 37.1624 	 -1.49248 	 80.4723
| 35> C 	 37.2288 	 -3.25298 	 81.6997
| 36> H 	 37.5126 	 -3.86426 	 80.8714
| 37> H 	 36.5463 	 -3.76654 	 82.3189
| 38> H 	 38.1168 	 -3.11047 	 82.2233
| 39> H 	 37.6418 	 -1.19709 	 74.9843
| 40> H 	 32.5872 	 1.99263 	 80.7421
| 41> *
| 42>
| 43>                          ****END OF INPUT****

CARTESIAN COORDINATES (ANGSTROEM)
---------------------------------
  S     36.804400   -0.029192   77.042600
  C     36.814400   -1.200370   75.749300
  C     35.661800   -2.022250   75.813000
  C     34.944300   -1.819920   77.016200
  C     35.455900   -0.859235   77.802200
  H     33.999500   -2.223000   77.316600
  C     35.272600   -3.064550   74.846800
  H     34.592100   -3.745430   75.425700
  H     36.213700   -3.523270   74.586200
  C     34.409400   -2.620250   73.583300
  H     34.871200   -1.800000   73.058300
  H     34.398000   -3.385640   72.880800
  C     32.918600   -2.330440   73.892000
  H     32.759600   -1.354400   74.398200
  H     32.244400   -2.340540   73.054800
  H     32.632900   -3.176980   74.452900
  S     33.817400    1.232650   78.609100
  C     33.268400    1.190910   80.286300
  C     33.687300    0.050417   81.001000
  C     34.498700   -0.834823   80.162900
  C     34.804900   -0.246135   78.918700
  H     33.300800   -0.130305   81.993500
  C     35.093900   -2.190320   80.577100
  H     35.111100   -2.717210   79.651400
  H     34.449600   -2.869540   81.167200
  C     36.471400   -1.991050   81.192800
  H     36.448700   -1.215740   81.962900
  H     37.162400   -1.492480   80.472300
  C     37.228800   -3.252980   81.699700
  H     37.512600   -3.864260   80.871400
  H     36.546300   -3.766540   82.318900
  H     38.116800   -3.110470   82.223300
  H     37.641800   -1.197090   74.984300
  H     32.587200    1.992630   80.742100

 Total Charge           Charge          ....    0
 Multiplicity           Mult            ....    1
 Number of Electrons    NEL             ....  134
 Basis Dimension        Dim             ....  322

ORBITAL ENERGIES
----------------

  NO   OCC          E(Eh)            E(eV)
   0   2.0000     -88.967251     -2420.9220
   1   2.0000     -88.964406     -2420.8446
   2   2.0000     -10.326889      -281.0089
   3   2.0000     -10.325076      -280.9596
   4   2.0000     -10.321933      -280.8741
   5   2.0000     -10.318886      -280.7912
   6   2.0000     -10.311831      -280.5992
   7   2.0000     -10.302058      -280.3333
   8   2.0000     -10.300457      -280.2897
   9   2.0000     -10.295570      -280.1567
  10   2.0000     -10.291549      -280.0473
  11   2.0000     -10.288003      -279.9508
  12   2.0000     -10.284610      -279.8585
  13   2.0000     -10.283786      -279.8361
  14   2.0000     -10.275267      -279.6042
  15   2.0000     -10.264422      -279.3091
  16   2.0000      -8.080787      -219.8894
  17   2.0000      -8.079323      -219.8496
  18   2.0000      -6.039331      -164.3385
  19   2.0000      -6.037658      -164.2930
  20   2.0000      -6.035658      -164.2386
  21   2.0000      -6.033816      -164.1885
  22   2.0000      -6.031391      -164.1225
  23   2.0000      -6.030248      -164.0914
  24   2.0000      -1.006173       -27.3794
  25   2.0000      -0.973866       -26.5003
  26   2.0000      -0.908853       -24.7311
  27   2.0000      -0.903123       -24.5752
  28   2.0000      -0.867249       -23.5990
  29   2.0000      -0.853691       -23.2301
  30   2.0000      -0.843648       -22.9568
  31   2.0000      -0.812899       -22.1201
  32   2.0000      -0.784839       -21.3566
  33   2.0000      -0.764288       -20.7973
  34   2.0000      -0.710670       -19.3383
  35   2.0000      -0.701655       -19.0930
  36   2.0000      -0.690544       -18.7907
  37   2.0000      -0.654614       -17.8130
  38   2.0000      -0.645558       -17.5665
  39   2.0000      -0.613725       -16.7003
  40   2.0000      -0.589503       -16.0412
  41   2.0000      -0.571173       -15.5424
  42   2.0000      -0.558067       -15.1858
  43   2.0000      -0.548782       -14.9331
  44   2.0000      -0.538978       -14.6663
  45   2.0000      -0.524547       -14.2736
  46   2.0000      -0.516752       -14.0615
  47   2.0000      -0.510176       -13.8826
  48   2.0000      -0.504709       -13.7338
  49   2.0000      -0.489249       -13.3131
  50   2.0000      -0.488229       -13.2854
  51   2.0000      -0.476808       -12.9746
  52   2.0000      -0.470047       -12.7906
  53   2.0000      -0.463137       -12.6026
  54   2.0000      -0.453614       -12.3435
  55   2.0000      -0.447635       -12.1808
  56   2.0000      -0.443886       -12.0787
  57   2.0000      -0.440427       -11.9846
  58   2.0000      -0.435150       -11.8410
  59   2.0000      -0.424678       -11.5561
  60   2.0000      -0.422653       -11.5010
  61   2.0000      -0.421430       -11.4677
  62   2.0000      -0.405224       -11.0267
  63   2.0000      -0.342823        -9.3287
  64   2.0000      -0.329018        -8.9530
  65   2.0000      -0.320817        -8.7299
  66   2.0000      -0.296257        -8.0616
  67   0.0000       0.035408         0.9635
  68   0.0000       0.051419         1.3992
  69   0.0000       0.105677         2.8756
  70   0.0000       0.118567         3.2264
  71   0.0000       0.121367         3.3026

MULLIKEN ATOMIC CHARGES
-----------------------
   0 S :    0.109958
   1 C :   -0.143704
   2 C :   -0.079632
   3 C :    0.065834
   4 C :   -0.197245
   5 H :    0.010261
   6 C :    0.038835
   7 H :    0.026811
   8 H :    0.033229
   9 C :   -0.025902
  10 H :    0.021311
  11 H :    0.011678
  12 C :   -0.051689
  13 H :    0.051640
  14 H :    0.028271
  15 H :    0.011773
  16 S :    0.110416
  17 C :   -0.129872
  18 C :   -0.017764
  19 C :   -0.068933
  20 C :   -0.149127
  21 H :    0.022379
  22 C :    0.112864
  23 H :    0.003936
  24 H :    0.023526
  25 C :   -0.095816
  26 H :    0.022234
  27 H :    0.026487
  28 C :    0.014771
  29 H :    0.023595
  30 H :    0.013384
  31 H :    0.020241
  32 H :    0.071160
  33 H :    0.085090
Sum of atomic charges:    0.0000000

LOEWDIN ATOMIC CHARGES
----------------------
   0 S :    0.408287
   1 C :   -0.205307
   2 C :   -0.065505
   3 C :   -0.055377
   4 C :   -0.200927
   5 H :    0.032966
   6 C :   -0.031283
   7 H :    0.033929
   8 H :    0.034154
   9 C :   -0.028266
  10 H :    0.019624
  11 H :    0.015276
  12 C :   -0.064038
  13 H :    0.031938
  14 H :    0.025056
  15 H :    0.017610
  16 S :    0.379435
  17 C :   -0.192257
  18 C :   -0.073522
  19 C :   -0.038543
  20 C :   -0.194460
  21 H :    0.032174
  22 C :   -0.033381
  23 H :    0.025955
  24 H :    0.031385
  25 C :   -0.042133
  26 H :    0.022294
  27 H :    0.028094
  28 C :   -0.055845
  29 H :    0.024285
  30 H :    0.017036
  31 H :    0.020081
  32 H :    0.037186
  33 H :    0.044081

  Mayer bond orders larger than 0.100000
B(  0-S ,  1-C ) :   1.1531 B(  0-S ,  4-C ) :   1.1464 B(  1-C ,  2-C ) :   1.5706
B(  1-C , 32-H ) :   0.9671 B(  2-C ,  3-C ) :   1.2454 B(  2-C ,  6-C ) :   1.0221
B(  3-C ,  4-C ) :   1.5943 B(  3-C ,  5-H ) :   0.9896 B(  4-C , 20-C ) :   1.0274
B(  6-C ,  7-H ) :   0.9476 B(  6-C ,  8-H ) :   0.9380 B(  6-C ,  9-C ) :   1.0621
B(  9-C , 10-H ) :   0.9587 B(  9-C , 11-H ) :   0.9566 B(  9-C , 12-C ) :   1.0703
B( 12-C , 13-H ) :   0.9783 B( 12-C , 14-H ) :   0.9750 B( 12-C , 15-H ) :   0.9744
B( 16-S , 17-C ) :   1.1495 B( 16-S , 20-C ) :   1.1246 B( 17-C , 18-C ) :   1.6263
B( 17-C , 33-H ) :   0.9547 B( 18-C , 19-C ) :   1.2156 B( 18-C , 21-H ) :   0.9913
B( 19-C , 20-C ) :   1.6120 B( 19-C , 22-C ) :   1.0427 B( 22-C , 23-H ) :   0.9157
B( 22-C , 24-H ) :   0.9389 B( 22-C , 25-C ) :   1.0574 B( 25-C , 26-H ) :   0.9596
B( 25-C , 27-H ) :   0.9530 B( 25-C , 28-C ) :   1.0755 B( 28-C , 29-H ) :   0.9751
B( 28-C , 30-H ) :   0.9754 B( 28-C , 31-H ) :   0.9736

Dispersion correction           -0.014546706
FINAL SINGLE POINT ENERGY     -1339.860833463331

DIPOLE MOMENT
-------------
                                X             Y             Z
Electronic contribution:      1.03914      19.74264       1.67117
Nuclear contribution   :     -1.27343     -20.27046      -1.79957
                        -----------------------------------------
Total Dipole Moment    :     -0.23429      -0.52782      -0.12840
                        -----------------------------------------
Magnitude (a.u.)       :      0.59158
Magnitude (Debye)      :      1.50368

Rotational constants in cm-1:     0.017694     0.008775     0.007417
Rotational constants in MHz :   530.438705   263.062087   222.362312

                             ****ORCA TERMINATED NORMALLY****
TOTAL RUN TIME: 0 days 0 hours 0 minutes 29 seconds 746 msec
