                         Program Version 4.2.1 -  RELEASE  -
|  1> ! wB97X-D3 SP def2-SVP
|  2> %pal
|  3> nprocs 16
|  4> end
|  5>
|  6> * xyz 0 1
|  7> S 	 27.248 	 8.94148 	 76.1808
|  8> C 	 28.8351 	 9.35461 	 76.8554
|  9> C 	 29.2211 	 8.40327 	 77.7605
| 10> C 	 28.2673 	 7.36831 	 77.8545
| 11> C 	 27.0981 	 7.55016 	 77.2159
| 12> H 	 28.5278 	 6.37284 	 78.4018
| 13> C 	 30.4997 	 8.43892 	 78.5335
| 14> H 	 30.3441 	 8.63895 	 79.6009
| 15> H 	 31.0144 	 9.30862 	 78.0166
| 16> C 	 31.4251 	 7.24803 	 78.3672
| 17> H 	 31.9774 	 7.09578 	 79.2957
| 18> H 	 30.7725 	 6.3408 	 78.4002
| 19> C 	 32.1583 	 7.18752 	 77.0336
| 20> H 	 32.8459 	 6.38922 	 76.9261
| 21> H 	 31.5336 	 7.09573 	 76.1695
| 22> H 	 32.7312 	 8.12637 	 76.9104
| 23> S 	 25.4642 	 5.93786 	 75.5733
| 24> C 	 24.3928 	 4.77853 	 76.2807
| 25> C 	 24.4069 	 4.83251 	 77.5839
| 26> C 	 25.3492 	 5.84056 	 78.0614
| 27> C 	 25.9996 	 6.53361 	 77.081
| 28> H 	 23.7619 	 4.19997 	 78.1479
| 29> C 	 25.5649 	 6.01513 	 79.4957
| 30> H 	 24.965 	 6.86277 	 79.8963
| 31> H 	 26.6016 	 6.31477 	 79.564
| 32> C 	 25.4588 	 4.76365 	 80.4241
| 33> H 	 26.2238 	 4.08113 	 80.1581
| 34> H 	 24.4677 	 4.43454 	 80.1704
| 35> C 	 25.6888 	 5.07172 	 81.9244
| 36> H 	 25.1563 	 5.92324 	 82.1865
| 37> H 	 26.7217 	 5.2896 	 82.026
| 38> H 	 25.3653 	 4.22383 	 82.5822
| 39> H 	 29.4718 	 10.1785 	 76.5078
| 40> H 	 23.7961 	 4.10216 	 75.5997
| 41> *
| 42>
| 43>                          ****END OF INPUT****

CARTESIAN COORDINATES (ANGSTROEM)
---------------------------------
  S     27.248000    8.941480   76.180800
  C     28.835100    9.354610   76.855400
  C     29.221100    8.403270   77.760500
  C     28.267300    7.368310   77.854500
  C     27.098100    7.550160   77.215900
  H     28.527800    6.372840   78.401800
  C     30.499700    8.438920   78.533500
  H     30.344100    8.638950   79.600900
  H     31.014400    9.308620   78.016600
  C     31.425100    7.248030   78.367200
  H     31.977400    7.095780   79.295700
  H     30.772500    6.340800   78.400200
  C     32.158300    7.187520   77.033600
  H     32.845900    6.389220   76.926100
  H     31.533600    7.095730   76.169500
  H     32.731200    8.126370   76.910400
  S     25.464200    5.937860   75.573300
  C     24.392800    4.778530   76.280700
  C     24.406900    4.832510   77.583900
  C     25.349200    5.840560   78.061400
  C     25.999600    6.533610   77.081000
  H     23.761900    4.199970   78.147900
  C     25.564900    6.015130   79.495700
  H     24.965000    6.862770   79.896300
  H     26.601600    6.314770   79.564000
  C     25.458800    4.763650   80.424100
  H     26.223800    4.081130   80.158100
  H     24.467700    4.434540   80.170400
  C     25.688800    5.071720   81.924400
  H     25.156300    5.923240   82.186500
  H     26.721700    5.289600   82.026000
  H     25.365300    4.223830   82.582200
  H     29.471800   10.178500   76.507800
  H     23.796100    4.102160   75.599700

 Total Charge           Charge          ....    0
 Multiplicity           Mult            ....    1
 Number of Electrons    NEL             ....  134
 Basis Dimension        Dim             ....  322

ORBITAL ENERGIES
----------------

  NO   OCC          E(Eh)            E(eV)
   0   2.0000     -88.966093     -2420.8905
   1   2.0000     -88.957278     -2420.6506
   2   2.0000     -10.331271      -281.1282
   3   2.0000     -10.323965      -280.9294
   4   2.0000     -10.318054      -280.7685
   5   2.0000     -10.313415      -280.6423
   6   2.0000     -10.297239      -280.2021
   7   2.0000     -10.297154      -280.1998
   8   2.0000     -10.295779      -280.1624
   9   2.0000     -10.295746      -280.1615
  10   2.0000     -10.290045      -280.0064
  11   2.0000     -10.286128      -279.8998
  12   2.0000     -10.281966      -279.7865
  13   2.0000     -10.280573      -279.7486
  14   2.0000     -10.275786      -279.6184
  15   2.0000     -10.274374      -279.5799
  16   2.0000      -8.080692      -219.8868
  17   2.0000      -8.073862      -219.7010
  18   2.0000      -6.039269      -164.3369
  19   2.0000      -6.035254      -164.2276
  20   2.0000      -6.032410      -164.1502
  21   2.0000      -6.031339      -164.1211
  22   2.0000      -6.028059      -164.0318
  23   2.0000      -6.024519      -163.9355
  24   2.0000      -1.015910       -27.6443
  25   2.0000      -0.995946       -27.1011
  26   2.0000      -0.918140       -24.9839
  27   2.0000      -0.910426       -24.7740
  28   2.0000      -0.875186       -23.8150
  29   2.0000      -0.851733       -23.1768
  30   2.0000      -0.845022       -22.9942
  31   2.0000      -0.825333       -22.4585
  32   2.0000      -0.785612       -21.3776
  33   2.0000      -0.771616       -20.9968
  34   2.0000      -0.712765       -19.3953
  35   2.0000      -0.703118       -19.1328
  36   2.0000      -0.693094       -18.8600
  37   2.0000      -0.652173       -17.7465
  38   2.0000      -0.637255       -17.3406
  39   2.0000      -0.623624       -16.9697
  40   2.0000      -0.600054       -16.3283
  41   2.0000      -0.576897       -15.6982
  42   2.0000      -0.575486       -15.6598
  43   2.0000      -0.562279       -15.3004
  44   2.0000      -0.533665       -14.5218
  45   2.0000      -0.523386       -14.2421
  46   2.0000      -0.521822       -14.1995
  47   2.0000      -0.518695       -14.1144
  48   2.0000      -0.503682       -13.7059
  49   2.0000      -0.499548       -13.5934
  50   2.0000      -0.486199       -13.2302
  51   2.0000      -0.480465       -13.0741
  52   2.0000      -0.473238       -12.8775
  53   2.0000      -0.466986       -12.7073
  54   2.0000      -0.459839       -12.5128
  55   2.0000      -0.457957       -12.4616
  56   2.0000      -0.449557       -12.2331
  57   2.0000      -0.443112       -12.0577
  58   2.0000      -0.436369       -11.8742
  59   2.0000      -0.425982       -11.5916
  60   2.0000      -0.415175       -11.2975
  61   2.0000      -0.407147       -11.0790
  62   2.0000      -0.402119       -10.9422
  63   2.0000      -0.356324        -9.6961
  64   2.0000      -0.331176        -9.0118
  65   2.0000      -0.325904        -8.8683
  66   2.0000      -0.300004        -8.1635
  67   0.0000       0.036815         1.0018
  68   0.0000       0.080264         2.1841
  69   0.0000       0.116430         3.1682
  70   0.0000       0.124905         3.3988
  71   0.0000       0.131856         3.5880

MULLIKEN ATOMIC CHARGES
-----------------------
   0 S :    0.099119
   1 C :   -0.136404
   2 C :   -0.086985
   3 C :   -0.008913
   4 C :   -0.147926
   5 H :    0.058753
   6 C :    0.056887
   7 H :    0.048920
   8 H :    0.015055
   9 C :   -0.072959
  10 H :    0.027027
  11 H :    0.015958
  12 C :   -0.023670
  13 H :    0.026060
  14 H :    0.035530
  15 H :    0.024680
  16 S :    0.086942
  17 C :   -0.107266
  18 C :   -0.001061
  19 C :   -0.083063
  20 C :   -0.103025
  21 H :    0.010629
  22 C :    0.055742
  23 H :    0.043266
  24 H :   -0.007821
  25 C :   -0.089445
  26 H :    0.027145
  27 H :    0.026895
  28 C :   -0.003029
  29 H :    0.011334
  30 H :    0.021736
  31 H :    0.046605
  32 H :    0.058439
  33 H :    0.074844
Sum of atomic charges:    0.0000000

LOEWDIN ATOMIC CHARGES
----------------------
   0 S :    0.397301
   1 C :   -0.186799
   2 C :   -0.074513
   3 C :   -0.075137
   4 C :   -0.191870
   5 H :    0.044978
   6 C :   -0.032899
   7 H :    0.036952
   8 H :    0.034335
   9 C :   -0.048405
  10 H :    0.026677
  11 H :    0.024193
  12 C :   -0.060822
  13 H :    0.023099
  14 H :    0.027691
  15 H :    0.025899
  16 S :    0.412658
  17 C :   -0.183583
  18 C :   -0.076192
  19 C :   -0.058589
  20 C :   -0.211172
  21 H :    0.030476
  22 C :   -0.042474
  23 H :    0.036931
  24 H :    0.023663
  25 C :   -0.031006
  26 H :    0.020241
  27 H :    0.014414
  28 C :   -0.053740
  29 H :    0.013969
  30 H :    0.021953
  31 H :    0.035591
  32 H :    0.034465
  33 H :    0.041716

  Mayer bond orders larger than 0.100000
B(  0-S ,  1-C ) :   1.1336 B(  0-S ,  4-C ) :   1.1447 B(  1-C ,  2-C ) :   1.6196
B(  1-C , 32-H ) :   0.9613 B(  2-C ,  3-C ) :   1.2550 B(  2-C ,  6-C ) :   1.0178
B(  3-C ,  4-C ) :   1.6111 B(  3-C ,  5-H ) :   0.9539 B(  4-C , 20-C ) :   0.9994
B(  6-C ,  7-H ) :   0.9371 B(  6-C ,  8-H ) :   0.9420 B(  6-C ,  9-C ) :   1.0749
B(  9-C , 10-H ) :   0.9549 B(  9-C , 11-H ) :   0.9520 B(  9-C , 12-C ) :   1.0659
B( 12-C , 13-H ) :   0.9734 B( 12-C , 14-H ) :   0.9744 B( 12-C , 15-H ) :   0.9744
B( 16-S , 17-C ) :   1.1576 B( 16-S , 20-C ) :   1.1268 B( 17-C , 18-C ) :   1.6386
B( 17-C , 33-H ) :   0.9554 B( 18-C , 19-C ) :   1.1995 B( 18-C , 21-H ) :   1.0012
B( 19-C , 20-C ) :   1.6362 B( 19-C , 22-C ) :   1.0648 B( 22-C , 23-H ) :   0.9185
B( 22-C , 24-H ) :   0.9237 B( 22-C , 25-C ) :   1.0640 B( 25-C , 26-H ) :   0.9622
B( 25-C , 27-H ) :   0.9529 B( 25-C , 28-C ) :   1.0820 B( 28-C , 29-H ) :   0.9746
B( 28-C , 30-H ) :   0.9753 B( 28-C , 31-H ) :   0.9738

Dispersion correction           -0.013798381
FINAL SINGLE POINT ENERGY     -1339.867586206338

DIPOLE MOMENT
-------------
                                X             Y             Z
Electronic contribution:    -14.97363       7.43889     -21.19385
Nuclear contribution   :     15.32433      -7.78930      21.69031
                        -----------------------------------------
Total Dipole Moment    :      0.35070      -0.35042       0.49646
                        -----------------------------------------
Magnitude (a.u.)       :      0.70161
Magnitude (Debye)      :      1.78335

Rotational constants in cm-1:     0.016932     0.008879     0.006836
Rotational constants in MHz :   507.622941   266.197333   204.930173

                             ****ORCA TERMINATED NORMALLY****
TOTAL RUN TIME: 0 days 0 hours 0 minutes 34 seconds 776 msec
