                         Program Version 4.2.1 -  RELEASE  -
|  1> ! wB97X-D3 SP def2-SVP
|  2> %pal
|  3> nprocs 16
|  4> end
|  5>
|  6> * xyz 0 1
|  7> S 	 -30.0783 	 65.5281 	 101.81
|  8> C 	 -29.6477 	 67.2889 	 102.003
|  9> C 	 -28.7346 	 67.5773 	 100.95
| 10> C 	 -28.5071 	 66.4891 	 100.053
| 11> C 	 -29.0647 	 65.2876 	 100.455
| 12> H 	 -27.8942 	 66.4313 	 99.1963
| 13> C 	 -28.2525 	 69.0084 	 100.766
| 14> H 	 -29.0528 	 69.6493 	 100.498
| 15> H 	 -27.5432 	 68.8293 	 99.9488
| 16> C 	 -27.5023 	 69.6345 	 101.916
| 17> H 	 -26.8798 	 68.8406 	 102.427
| 18> H 	 -26.8099 	 70.3169 	 101.353
| 19> C 	 -28.3922 	 70.4548 	 102.881
| 20> H 	 -29.0041 	 71.2355 	 102.425
| 21> H 	 -28.9758 	 69.7766 	 103.436
| 22> H 	 -27.7906 	 71.0663 	 103.575
| 23> S 	 -30.2663 	 63.135 	 99.2718
| 24> C 	 -29.3211 	 61.7853 	 98.5993
| 25> C 	 -27.9739 	 62.1408 	 98.7061
| 26> C 	 -27.7035 	 63.3597 	 99.3476
| 27> C 	 -28.8369 	 64.0133 	 99.822
| 28> H 	 -27.2029 	 61.5333 	 98.299
| 29> C 	 -26.2781 	 63.8012 	 99.5777
| 30> H 	 -26.1844 	 64.9446 	 99.5203
| 31> H 	 -25.7271 	 63.2623 	 98.7238
| 32> C 	 -25.7015 	 63.3193 	 100.847
| 33> H 	 -24.6177 	 63.7246 	 100.857
| 34> H 	 -25.6517 	 62.2055 	 100.874
| 35> C 	 -26.442 	 63.7285 	 102.095
| 36> H 	 -27.4248 	 63.1877 	 102.082
| 37> H 	 -26.549 	 64.7932 	 102.043
| 38> H 	 -25.9075 	 63.4469 	 103.055
| 39> H 	 -30.0719 	 67.9913 	 102.777
| 40> H 	 -29.6286 	 60.8946 	 98.0093
| 41> *
| 42>
| 43>                          ****END OF INPUT****

CARTESIAN COORDINATES (ANGSTROEM)
---------------------------------
  S    -30.078300   65.528100  101.810000
  C    -29.647700   67.288900  102.003000
  C    -28.734600   67.577300  100.950000
  C    -28.507100   66.489100  100.053000
  C    -29.064700   65.287600  100.455000
  H    -27.894200   66.431300   99.196300
  C    -28.252500   69.008400  100.766000
  H    -29.052800   69.649300  100.498000
  H    -27.543200   68.829300   99.948800
  C    -27.502300   69.634500  101.916000
  H    -26.879800   68.840600  102.427000
  H    -26.809900   70.316900  101.353000
  C    -28.392200   70.454800  102.881000
  H    -29.004100   71.235500  102.425000
  H    -28.975800   69.776600  103.436000
  H    -27.790600   71.066300  103.575000
  S    -30.266300   63.135000   99.271800
  C    -29.321100   61.785300   98.599300
  C    -27.973900   62.140800   98.706100
  C    -27.703500   63.359700   99.347600
  C    -28.836900   64.013300   99.822000
  H    -27.202900   61.533300   98.299000
  C    -26.278100   63.801200   99.577700
  H    -26.184400   64.944600   99.520300
  H    -25.727100   63.262300   98.723800
  C    -25.701500   63.319300  100.847000
  H    -24.617700   63.724600  100.857000
  H    -25.651700   62.205500  100.874000
  C    -26.442000   63.728500  102.095000
  H    -27.424800   63.187700  102.082000
  H    -26.549000   64.793200  102.043000
  H    -25.907500   63.446900  103.055000
  H    -30.071900   67.991300  102.777000
  H    -29.628600   60.894600   98.009300

 Total Charge           Charge          ....    0
 Multiplicity           Mult            ....    1
 Number of Electrons    NEL             ....  134
 Basis Dimension        Dim             ....  322

ORBITAL ENERGIES
----------------

  NO   OCC          E(Eh)            E(eV)
   0   2.0000     -88.967544     -2420.9300
   1   2.0000     -88.966993     -2420.9150
   2   2.0000     -10.330031      -281.0944
   3   2.0000     -10.329259      -281.0734
   4   2.0000     -10.327519      -281.0261
   5   2.0000     -10.326707      -281.0040
   6   2.0000     -10.307773      -280.4888
   7   2.0000     -10.301914      -280.3293
   8   2.0000     -10.299642      -280.2675
   9   2.0000     -10.294613      -280.1307
  10   2.0000     -10.293195      -280.0921
  11   2.0000     -10.293071      -280.0887
  12   2.0000     -10.286813      -279.9184
  13   2.0000     -10.286072      -279.8982
  14   2.0000     -10.282121      -279.7907
  15   2.0000     -10.272887      -279.5395
  16   2.0000      -8.081345      -219.9046
  17   2.0000      -8.081058      -219.8968
  18   2.0000      -6.039978      -164.3562
  19   2.0000      -6.039538      -164.3442
  20   2.0000      -6.035796      -164.2424
  21   2.0000      -6.035428      -164.2323
  22   2.0000      -6.032185      -164.1441
  23   2.0000      -6.032081      -164.1413
  24   2.0000      -1.007605       -27.4183
  25   2.0000      -0.981471       -26.7072
  26   2.0000      -0.917606       -24.9693
  27   2.0000      -0.915511       -24.9123
  28   2.0000      -0.868633       -23.6367
  29   2.0000      -0.848260       -23.0823
  30   2.0000      -0.843581       -22.9550
  31   2.0000      -0.812529       -22.1100
  32   2.0000      -0.786260       -21.3952
  33   2.0000      -0.774108       -21.0646
  34   2.0000      -0.705751       -19.2045
  35   2.0000      -0.699539       -19.0354
  36   2.0000      -0.680981       -18.5304
  37   2.0000      -0.663560       -18.0564
  38   2.0000      -0.642718       -17.4892
  39   2.0000      -0.616380       -16.7726
  40   2.0000      -0.594276       -16.1711
  41   2.0000      -0.577269       -15.7083
  42   2.0000      -0.553225       -15.0540
  43   2.0000      -0.548973       -14.9383
  44   2.0000      -0.545835       -14.8529
  45   2.0000      -0.534430       -14.5426
  46   2.0000      -0.522562       -14.2196
  47   2.0000      -0.513115       -13.9626
  48   2.0000      -0.506440       -13.7809
  49   2.0000      -0.502241       -13.6667
  50   2.0000      -0.496623       -13.5138
  51   2.0000      -0.480586       -13.0774
  52   2.0000      -0.470176       -12.7941
  53   2.0000      -0.464019       -12.6266
  54   2.0000      -0.461907       -12.5691
  55   2.0000      -0.445856       -12.1324
  56   2.0000      -0.441750       -12.0206
  57   2.0000      -0.436141       -11.8680
  58   2.0000      -0.432318       -11.7640
  59   2.0000      -0.426172       -11.5967
  60   2.0000      -0.413084       -11.2406
  61   2.0000      -0.402201       -10.9445
  62   2.0000      -0.396988       -10.8026
  63   2.0000      -0.344602        -9.3771
  64   2.0000      -0.332497        -9.0477
  65   2.0000      -0.331113        -9.0100
  66   2.0000      -0.293155        -7.9772
  67   0.0000       0.021376         0.5817
  68   0.0000       0.063636         1.7316
  69   0.0000       0.105842         2.8801
  70   0.0000       0.114322         3.1109
  71   0.0000       0.127535         3.4704

MULLIKEN ATOMIC CHARGES
-----------------------
   0 S :    0.110708
   1 C :   -0.159663
   2 C :   -0.103095
   3 C :    0.045920
   4 C :   -0.154184
   5 H :   -0.001176
   6 C :    0.082513
   7 H :    0.036688
   8 H :    0.016949
   9 C :   -0.100923
  10 H :    0.046204
  11 H :    0.034870
  12 C :   -0.031245
  13 H :    0.032385
  14 H :    0.017928
  15 H :    0.032698
  16 S :    0.102953
  17 C :   -0.094007
  18 C :   -0.043287
  19 C :   -0.038974
  20 C :   -0.161413
  21 H :    0.006655
  22 C :    0.039556
  23 H :    0.039244
  24 H :    0.034382
  25 C :   -0.089911
  26 H :    0.039674
  27 H :    0.025202
  28 C :   -0.057671
  29 H :    0.054213
  30 H :    0.030282
  31 H :    0.044474
  32 H :    0.086061
  33 H :    0.075992
Sum of atomic charges:    0.0000000

LOEWDIN ATOMIC CHARGES
----------------------
   0 S :    0.406081
   1 C :   -0.197889
   2 C :   -0.059255
   3 C :   -0.069429
   4 C :   -0.207425
   5 H :    0.024145
   6 C :   -0.033105
   7 H :    0.029393
   8 H :    0.031559
   9 C :   -0.044540
  10 H :    0.033332
  11 H :    0.030303
  12 C :   -0.065135
  13 H :    0.027621
  14 H :    0.014181
  15 H :    0.031312
  16 S :    0.399680
  17 C :   -0.187291
  18 C :   -0.070821
  19 C :   -0.064130
  20 C :   -0.194513
  21 H :    0.025287
  22 C :   -0.041999
  23 H :    0.035664
  24 H :    0.042289
  25 C :   -0.054526
  26 H :    0.030797
  27 H :    0.023643
  28 C :   -0.070339
  29 H :    0.033383
  30 H :    0.019857
  31 H :    0.033181
  32 H :    0.043533
  33 H :    0.045154

  Mayer bond orders larger than 0.100000
B(  0-S ,  1-C ) :   1.1299 B(  0-S ,  4-C ) :   1.1782 B(  1-C ,  2-C ) :   1.5546
B(  1-C ,  4-C ) :   0.1081 B(  1-C , 32-H ) :   0.9653 B(  2-C ,  3-C ) :   1.2608
B(  2-C ,  6-C ) :   1.0185 B(  3-C ,  4-C ) :   1.5395 B(  3-C ,  5-H ) :   0.9980
B(  4-C , 20-C ) :   1.0388 B(  6-C ,  7-H ) :   0.9386 B(  6-C ,  8-H ) :   0.9405
B(  6-C ,  9-C ) :   1.0616 B(  9-C , 10-H ) :   0.9584 B(  9-C , 11-H ) :   0.9591
B(  9-C , 12-C ) :   1.0728 B( 12-C , 13-H ) :   0.9737 B( 12-C , 14-H ) :   0.9760
B( 12-C , 15-H ) :   0.9699 B( 16-S , 17-C ) :   1.1528 B( 16-S , 20-C ) :   1.1481
B( 17-C , 18-C ) :   1.5809 B( 17-C , 20-C ) :   0.1137 B( 17-C , 33-H ) :   0.9631
B( 18-C , 19-C ) :   1.2850 B( 18-C , 21-H ) :   0.9843 B( 19-C , 20-C ) :   1.5592
B( 19-C , 22-C ) :   1.0314 B( 22-C , 23-H ) :   0.9315 B( 22-C , 24-H ) :   0.9240
B( 22-C , 25-C ) :   1.0905 B( 25-C , 26-H ) :   0.9495 B( 25-C , 27-H ) :   0.9490
B( 25-C , 28-C ) :   1.0843 B( 28-C , 29-H ) :   0.9658 B( 28-C , 30-H ) :   0.9722
B( 28-C , 31-H ) :   0.9711

Dispersion correction           -0.015589740
FINAL SINGLE POINT ENERGY     -1339.865284919271

DIPOLE MOMENT
-------------
                                X             Y             Z
Electronic contribution:    -18.87581     -15.48499      -7.96066
Nuclear contribution   :     19.42353      15.81397       7.79004
                        -----------------------------------------
Total Dipole Moment    :      0.54771       0.32898      -0.17062
                        -----------------------------------------
Magnitude (a.u.)       :      0.66131
Magnitude (Debye)      :      1.68091

Rotational constants in cm-1:     0.024648     0.008106     0.007014
Rotational constants in MHz :   738.918121   243.019624   210.262303

                             ****ORCA TERMINATED NORMALLY****
TOTAL RUN TIME: 0 days 0 hours 0 minutes 32 seconds 124 msec
