                         Program Version 4.2.1 -  RELEASE  -
|  1> ! wB97X-D3 SP def2-SVP
|  2> %pal
|  3> nprocs 16
|  4> end
|  5>
|  6> * xyz 0 1
|  7> S 	 -12.0129 	 55.8653 	 29.6035
|  8> C 	 -12.0593 	 54.6523 	 28.3478
|  9> C 	 -11.5647 	 53.4514 	 28.8538
| 10> C 	 -11.1634 	 53.5441 	 30.2143
| 11> C 	 -11.4604 	 54.7383 	 30.7997
| 12> H 	 -10.7778 	 52.741 	 30.8249
| 13> C 	 -11.4797 	 52.1584 	 28.0993
| 14> H 	 -10.7425 	 51.466 	 28.5741
| 15> H 	 -11.156 	 52.3218 	 27.0857
| 16> C 	 -12.8414 	 51.4247 	 27.9331
| 17> H 	 -13.3311 	 51.3775 	 28.949
| 18> H 	 -13.4258 	 52.1133 	 27.3009
| 19> C 	 -12.8211 	 50.0665 	 27.3928
| 20> H 	 -12.3721 	 50.1681 	 26.3459
| 21> H 	 -12.1712 	 49.3947 	 28.0001
| 22> H 	 -13.8388 	 49.6469 	 27.3485
| 23> S 	 -10.5856 	 56.7282 	 32.5885
| 24> C 	 -10.6474 	 56.4543 	 34.2876
| 25> C 	 -11.1612 	 55.1603 	 34.5361
| 26> C 	 -11.5032 	 54.3819 	 33.3168
| 27> C 	 -11.2237 	 55.1422 	 32.1902
| 28> H 	 -11.0705 	 54.8433 	 35.5633
| 29> C 	 -11.8438 	 52.8966 	 33.404
| 30> H 	 -11.8997 	 52.5034 	 34.461
| 31> H 	 -11.0627 	 52.2937 	 32.9783
| 32> C 	 -13.2565 	 52.5515 	 32.8077
| 33> H 	 -13.1783 	 52.6353 	 31.7198
| 34> H 	 -14.0071 	 53.3121 	 33.0862
| 35> C 	 -13.802 	 51.1921 	 33.1422
| 36> H 	 -12.9643 	 50.4807 	 33.053
| 37> H 	 -14.5352 	 50.7716 	 32.4646
| 38> H 	 -14.1843 	 51.0925 	 34.1325
| 39> H 	 -12.3077 	 54.882 	 27.3117
| 40> H 	 -10.426 	 57.1109 	 35.1492
| 41> *
| 42>
| 43>                          ****END OF INPUT****

CARTESIAN COORDINATES (ANGSTROEM)
---------------------------------
  S    -12.012900   55.865300   29.603500
  C    -12.059300   54.652300   28.347800
  C    -11.564700   53.451400   28.853800
  C    -11.163400   53.544100   30.214300
  C    -11.460400   54.738300   30.799700
  H    -10.777800   52.741000   30.824900
  C    -11.479700   52.158400   28.099300
  H    -10.742500   51.466000   28.574100
  H    -11.156000   52.321800   27.085700
  C    -12.841400   51.424700   27.933100
  H    -13.331100   51.377500   28.949000
  H    -13.425800   52.113300   27.300900
  C    -12.821100   50.066500   27.392800
  H    -12.372100   50.168100   26.345900
  H    -12.171200   49.394700   28.000100
  H    -13.838800   49.646900   27.348500
  S    -10.585600   56.728200   32.588500
  C    -10.647400   56.454300   34.287600
  C    -11.161200   55.160300   34.536100
  C    -11.503200   54.381900   33.316800
  C    -11.223700   55.142200   32.190200
  H    -11.070500   54.843300   35.563300
  C    -11.843800   52.896600   33.404000
  H    -11.899700   52.503400   34.461000
  H    -11.062700   52.293700   32.978300
  C    -13.256500   52.551500   32.807700
  H    -13.178300   52.635300   31.719800
  H    -14.007100   53.312100   33.086200
  C    -13.802000   51.192100   33.142200
  H    -12.964300   50.480700   33.053000
  H    -14.535200   50.771600   32.464600
  H    -14.184300   51.092500   34.132500
  H    -12.307700   54.882000   27.311700
  H    -10.426000   57.110900   35.149200

 Total Charge           Charge          ....    0
 Multiplicity           Mult            ....    1
 Number of Electrons    NEL             ....  134
 Basis Dimension        Dim             ....  322

ORBITAL ENERGIES
----------------

  NO   OCC          E(Eh)            E(eV)
   0   2.0000     -88.970842     -2421.0197
   1   2.0000     -88.965703     -2420.8799
   2   2.0000     -10.331304      -281.1291
   3   2.0000     -10.328165      -281.0437
   4   2.0000     -10.321820      -280.8710
   5   2.0000     -10.317072      -280.7418
   6   2.0000     -10.312698      -280.6228
   7   2.0000     -10.303128      -280.3624
   8   2.0000     -10.301455      -280.3168
   9   2.0000     -10.299429      -280.2617
  10   2.0000     -10.292431      -280.0713
  11   2.0000     -10.290955      -280.0311
  12   2.0000     -10.286544      -279.9111
  13   2.0000     -10.285480      -279.8821
  14   2.0000     -10.283310      -279.8231
  15   2.0000     -10.272951      -279.5412
  16   2.0000      -8.085440      -220.0160
  17   2.0000      -8.080816      -219.8902
  18   2.0000      -6.044048      -164.4669
  19   2.0000      -6.039846      -164.3526
  20   2.0000      -6.039334      -164.3386
  21   2.0000      -6.036215      -164.2538
  22   2.0000      -6.035128      -164.2242
  23   2.0000      -6.031699      -164.1309
  24   2.0000      -1.009380       -27.4666
  25   2.0000      -0.984380       -26.7863
  26   2.0000      -0.915773       -24.9195
  27   2.0000      -0.906499       -24.6671
  28   2.0000      -0.870804       -23.6958
  29   2.0000      -0.856191       -23.2981
  30   2.0000      -0.846482       -23.0339
  31   2.0000      -0.816407       -22.2156
  32   2.0000      -0.783797       -21.3282
  33   2.0000      -0.771282       -20.9877
  34   2.0000      -0.704979       -19.1835
  35   2.0000      -0.691049       -18.8044
  36   2.0000      -0.687638       -18.7116
  37   2.0000      -0.661420       -17.9982
  38   2.0000      -0.642608       -17.4862
  39   2.0000      -0.624140       -16.9837
  40   2.0000      -0.593589       -16.1524
  41   2.0000      -0.570217       -15.5164
  42   2.0000      -0.565776       -15.3956
  43   2.0000      -0.561481       -15.2787
  44   2.0000      -0.526271       -14.3206
  45   2.0000      -0.522359       -14.2141
  46   2.0000      -0.520861       -14.1733
  47   2.0000      -0.513352       -13.9690
  48   2.0000      -0.506657       -13.7868
  49   2.0000      -0.503746       -13.7076
  50   2.0000      -0.496079       -13.4990
  51   2.0000      -0.490513       -13.3475
  52   2.0000      -0.475143       -12.9293
  53   2.0000      -0.464124       -12.6295
  54   2.0000      -0.459824       -12.5125
  55   2.0000      -0.452672       -12.3178
  56   2.0000      -0.449172       -12.2226
  57   2.0000      -0.430259       -11.7079
  58   2.0000      -0.424905       -11.5623
  59   2.0000      -0.423318       -11.5191
  60   2.0000      -0.419284       -11.4093
  61   2.0000      -0.413527       -11.2526
  62   2.0000      -0.406513       -11.0618
  63   2.0000      -0.351967        -9.5775
  64   2.0000      -0.330553        -8.9948
  65   2.0000      -0.328956        -8.9514
  66   2.0000      -0.292209        -7.9514
  67   0.0000       0.026125         0.7109
  68   0.0000       0.075121         2.0442
  69   0.0000       0.109263         2.9732
  70   0.0000       0.116844         3.1795
  71   0.0000       0.129079         3.5124

MULLIKEN ATOMIC CHARGES
-----------------------
   0 S :    0.107929
   1 C :   -0.130031
   2 C :   -0.067212
   3 C :    0.023062
   4 C :   -0.143519
   5 H :    0.001899
   6 C :    0.062889
   7 H :    0.022744
   8 H :    0.015032
   9 C :   -0.109412
  10 H :    0.033124
  11 H :    0.025923
  12 C :   -0.040285
  13 H :    0.032526
  14 H :    0.034977
  15 H :    0.048898
  16 S :    0.126974
  17 C :   -0.115623
  18 C :   -0.047236
  19 C :   -0.016556
  20 C :   -0.138015
  21 H :    0.020982
  22 C :    0.023564
  23 H :    0.028540
  24 H :    0.039305
  25 C :   -0.096716
  26 H :    0.040300
  27 H :    0.037628
  28 C :   -0.024022
  29 H :    0.011739
  30 H :    0.031605
  31 H :    0.028565
  32 H :    0.055750
  33 H :    0.074673
Sum of atomic charges:   -0.0000000

LOEWDIN ATOMIC CHARGES
----------------------
   0 S :    0.415600
   1 C :   -0.200234
   2 C :   -0.060600
   3 C :   -0.065463
   4 C :   -0.191204
   5 H :    0.030269
   6 C :   -0.033635
   7 H :    0.029797
   8 H :    0.025310
   9 C :   -0.050518
  10 H :    0.024702
  11 H :    0.022853
  12 C :   -0.071372
  13 H :    0.031208
  14 H :    0.027241
  15 H :    0.033108
  16 S :    0.419530
  17 C :   -0.209797
  18 C :   -0.071582
  19 C :   -0.050346
  20 C :   -0.198490
  21 H :    0.027934
  22 C :   -0.032813
  23 H :    0.036796
  24 H :    0.025851
  25 C :   -0.046629
  26 H :    0.023911
  27 H :    0.029055
  28 C :   -0.068372
  29 H :    0.024517
  30 H :    0.028152
  31 H :    0.019988
  32 H :    0.031394
  33 H :    0.043837

  Mayer bond orders larger than 0.100000
B(  0-S ,  1-C ) :   1.1439 B(  0-S ,  4-C ) :   1.1626 B(  1-C ,  2-C ) :   1.5746
B(  1-C , 32-H ) :   0.9734 B(  2-C ,  3-C ) :   1.2602 B(  2-C ,  6-C ) :   1.0416
B(  3-C ,  4-C ) :   1.5534 B(  3-C ,  5-H ) :   0.9949 B(  4-C , 20-C ) :   1.0472
B(  6-C ,  7-H ) :   0.9438 B(  6-C ,  8-H ) :   0.9314 B(  6-C ,  9-C ) :   1.0545
B(  9-C , 10-H ) :   0.9518 B(  9-C , 11-H ) :   0.9523 B(  9-C , 12-C ) :   1.1000
B( 12-C , 13-H ) :   0.9674 B( 12-C , 14-H ) :   0.9697 B( 12-C , 15-H ) :   0.9688
B( 16-S , 17-C ) :   1.1533 B( 16-S , 20-C ) :   1.1391 B( 17-C , 18-C ) :   1.6269
B( 17-C , 33-H ) :   0.9618 B( 18-C , 19-C ) :   1.2295 B( 18-C , 21-H ) :   0.9855
B( 19-C , 20-C ) :   1.5950 B( 19-C , 22-C ) :   1.0355 B( 22-C , 23-H ) :   0.9437
B( 22-C , 24-H ) :   0.9362 B( 22-C , 25-C ) :   1.0438 B( 25-C , 26-H ) :   0.9513
B( 25-C , 27-H ) :   0.9576 B( 25-C , 28-C ) :   1.0934 B( 28-C , 29-H ) :   0.9676
B( 28-C , 30-H ) :   0.9720 B( 28-C , 31-H ) :   0.9740

Dispersion correction           -0.014634365
FINAL SINGLE POINT ENERGY     -1339.887125137262

DIPOLE MOMENT
-------------
                                X             Y             Z
Electronic contribution:     10.45264      31.35513       4.74852
Nuclear contribution   :    -10.49211     -32.01242      -4.66731
                        -----------------------------------------
Total Dipole Moment    :     -0.03947      -0.65729       0.08120
                        -----------------------------------------
Magnitude (a.u.)       :      0.66346
Magnitude (Debye)      :      1.68639

Rotational constants in cm-1:     0.019812     0.009071     0.006667
Rotational constants in MHz :   593.958295   271.949318   199.868778

                             ****ORCA TERMINATED NORMALLY****
TOTAL RUN TIME: 0 days 0 hours 0 minutes 33 seconds 315 msec
