                         Program Version 4.2.1 -  RELEASE  -
|  1> ! wB97X-D3 SP def2-SVP
|  2> %pal
|  3> nprocs 16
|  4> end
|  5>
|  6> * xyz 0 1
|  7> S 	 -93.666 	 42.6482 	 119.246
|  8> C 	 -92.8714 	 42.128 	 120.76
|  9> C 	 -93.7826 	 41.4152 	 121.533
| 10> C 	 -95.0183 	 41.1195 	 120.865
| 11> C 	 -95.0597 	 41.608 	 119.563
| 12> H 	 -95.8344 	 40.4877 	 121.322
| 13> C 	 -93.5669 	 40.9452 	 122.942
| 14> H 	 -92.5065 	 40.6268 	 123.085
| 15> H 	 -94.1648 	 40.0688 	 123.173
| 16> C 	 -93.9507 	 41.9106 	 124.08
| 17> H 	 -93.235 	 42.7338 	 124.005
| 18> H 	 -94.9964 	 42.1975 	 123.846
| 19> C 	 -93.7441 	 41.2283 	 125.538
| 20> H 	 -94.5465 	 40.5576 	 125.782
| 21> H 	 -92.7972 	 40.7478 	 125.707
| 22> H 	 -93.6825 	 42.0227 	 126.388
| 23> S 	 -96.7219 	 42.8844 	 117.716
| 24> C 	 -97.6495 	 41.9179 	 116.661
| 25> C 	 -97.5637 	 40.5443 	 116.908
| 26> C 	 -96.7294 	 40.3173 	 118.084
| 27> C 	 -96.1781 	 41.4725 	 118.604
| 28> H 	 -97.9831 	 39.7606 	 116.284
| 29> C 	 -96.5137 	 38.9302 	 118.495
| 30> H 	 -97.4872 	 38.3742 	 118.835
| 31> H 	 -95.8602 	 39.0931 	 119.439
| 32> C 	 -95.7673 	 38.0134 	 117.454
| 33> H 	 -94.8389 	 38.4658 	 116.978
| 34> H 	 -96.3659 	 37.9408 	 116.553
| 35> C 	 -95.451 	 36.6634 	 118.134
| 36> H 	 -96.3354 	 36.0069 	 118.183
| 37> H 	 -95.1455 	 36.8046 	 119.163
| 38> H 	 -94.8687 	 35.9382 	 117.583
| 39> H 	 -91.8847 	 42.474 	 121.063
| 40> H 	 -98.2739 	 42.3945 	 115.931
| 41> *
| 42>
| 43>                          ****END OF INPUT****

CARTESIAN COORDINATES (ANGSTROEM)
---------------------------------
  S    -93.666000   42.648200  119.246000
  C    -92.871400   42.128000  120.760000
  C    -93.782600   41.415200  121.533000
  C    -95.018300   41.119500  120.865000
  C    -95.059700   41.608000  119.563000
  H    -95.834400   40.487700  121.322000
  C    -93.566900   40.945200  122.942000
  H    -92.506500   40.626800  123.085000
  H    -94.164800   40.068800  123.173000
  C    -93.950700   41.910600  124.080000
  H    -93.235000   42.733800  124.005000
  H    -94.996400   42.197500  123.846000
  C    -93.744100   41.228300  125.538000
  H    -94.546500   40.557600  125.782000
  H    -92.797200   40.747800  125.707000
  H    -93.682500   42.022700  126.388000
  S    -96.721900   42.884400  117.716000
  C    -97.649500   41.917900  116.661000
  C    -97.563700   40.544300  116.908000
  C    -96.729400   40.317300  118.084000
  C    -96.178100   41.472500  118.604000
  H    -97.983100   39.760600  116.284000
  C    -96.513700   38.930200  118.495000
  H    -97.487200   38.374200  118.835000
  H    -95.860200   39.093100  119.439000
  C    -95.767300   38.013400  117.454000
  H    -94.838900   38.465800  116.978000
  H    -96.365900   37.940800  116.553000
  C    -95.451000   36.663400  118.134000
  H    -96.335400   36.006900  118.183000
  H    -95.145500   36.804600  119.163000
  H    -94.868700   35.938200  117.583000
  H    -91.884700   42.474000  121.063000
  H    -98.273900   42.394500  115.931000

 Total Charge           Charge          ....    0
 Multiplicity           Mult            ....    1
 Number of Electrons    NEL             ....  134
 Basis Dimension        Dim             ....  322

ORBITAL ENERGIES
----------------

  NO   OCC          E(Eh)            E(eV)
   0   2.0000     -88.967985     -2420.9419
   1   2.0000     -88.966543     -2420.9027
   2   2.0000     -10.336203      -281.2624
   3   2.0000     -10.327458      -281.0244
   4   2.0000     -10.320442      -280.8335
   5   2.0000     -10.318212      -280.7728
   6   2.0000     -10.304372      -280.3962
   7   2.0000     -10.302579      -280.3474
   8   2.0000     -10.302171      -280.3363
   9   2.0000     -10.300382      -280.2877
  10   2.0000     -10.297521      -280.2098
  11   2.0000     -10.296652      -280.1861
  12   2.0000     -10.295162      -280.1456
  13   2.0000     -10.290274      -280.0126
  14   2.0000     -10.290120      -280.0084
  15   2.0000     -10.277546      -279.6662
  16   2.0000      -8.082264      -219.9296
  17   2.0000      -8.081765      -219.9160
  18   2.0000      -6.040691      -164.3756
  19   2.0000      -6.040463      -164.3693
  20   2.0000      -6.036587      -164.2639
  21   2.0000      -6.036421      -164.2594
  22   2.0000      -6.033114      -164.1694
  23   2.0000      -6.032358      -164.1488
  24   2.0000      -1.005657       -27.3653
  25   2.0000      -0.982147       -26.7256
  26   2.0000      -0.906660       -24.6715
  27   2.0000      -0.905901       -24.6508
  28   2.0000      -0.863927       -23.5087
  29   2.0000      -0.851753       -23.1774
  30   2.0000      -0.840150       -22.8616
  31   2.0000      -0.810133       -22.0448
  32   2.0000      -0.777919       -21.1682
  33   2.0000      -0.768226       -20.9045
  34   2.0000      -0.708844       -19.2886
  35   2.0000      -0.699904       -19.0453
  36   2.0000      -0.694673       -18.9030
  37   2.0000      -0.662191       -18.0191
  38   2.0000      -0.637729       -17.3535
  39   2.0000      -0.617360       -16.7992
  40   2.0000      -0.597834       -16.2679
  41   2.0000      -0.569787       -15.5047
  42   2.0000      -0.560262       -15.2455
  43   2.0000      -0.550707       -14.9855
  44   2.0000      -0.527855       -14.3637
  45   2.0000      -0.520441       -14.1619
  46   2.0000      -0.514358       -13.9964
  47   2.0000      -0.506691       -13.7878
  48   2.0000      -0.501130       -13.6364
  49   2.0000      -0.495021       -13.4702
  50   2.0000      -0.489779       -13.3276
  51   2.0000      -0.473607       -12.8875
  52   2.0000      -0.468245       -12.7416
  53   2.0000      -0.466364       -12.6904
  54   2.0000      -0.461417       -12.5558
  55   2.0000      -0.450487       -12.2584
  56   2.0000      -0.447533       -12.1780
  57   2.0000      -0.433332       -11.7916
  58   2.0000      -0.428011       -11.6468
  59   2.0000      -0.423976       -11.5370
  60   2.0000      -0.421219       -11.4620
  61   2.0000      -0.417795       -11.3688
  62   2.0000      -0.405236       -11.0270
  63   2.0000      -0.348903        -9.4941
  64   2.0000      -0.330020        -8.9803
  65   2.0000      -0.328823        -8.9477
  66   2.0000      -0.291029        -7.9193
  67   0.0000       0.029529         0.8035
  68   0.0000       0.065109         1.7717
  69   0.0000       0.108523         2.9531
  70   0.0000       0.112021         3.0482
  71   0.0000       0.129893         3.5346

MULLIKEN ATOMIC CHARGES
-----------------------
   0 S :    0.100787
   1 C :   -0.124259
   2 C :   -0.064270
   3 C :    0.010168
   4 C :   -0.145428
   5 H :    0.045328
   6 C :    0.023702
   7 H :    0.027926
   8 H :    0.013731
   9 C :   -0.060189
  10 H :    0.030970
  11 H :    0.042161
  12 C :   -0.083498
  13 H :    0.041190
  14 H :    0.031603
  15 H :    0.042184
  16 S :    0.108236
  17 C :   -0.086645
  18 C :   -0.022482
  19 C :   -0.028148
  20 C :   -0.147382
  21 H :    0.028833
  22 C :   -0.027897
  23 H :    0.059254
  24 H :    0.034149
  25 C :   -0.076776
  26 H :    0.044973
  27 H :    0.021240
  28 C :   -0.027507
  29 H :    0.014330
  30 H :    0.037039
  31 H :    0.027999
  32 H :    0.052865
  33 H :    0.055813
Sum of atomic charges:   -0.0000000

LOEWDIN ATOMIC CHARGES
----------------------
   0 S :    0.384484
   1 C :   -0.186687
   2 C :   -0.063226
   3 C :   -0.074374
   4 C :   -0.180558
   5 H :    0.042779
   6 C :   -0.042779
   7 H :    0.031312
   8 H :    0.024571
   9 C :   -0.031803
  10 H :    0.021819
  11 H :    0.029268
  12 C :   -0.075133
  13 H :    0.021623
  14 H :    0.022425
  15 H :    0.037576
  16 S :    0.419896
  17 C :   -0.186719
  18 C :   -0.068993
  19 C :   -0.057111
  20 C :   -0.206589
  21 H :    0.033504
  22 C :   -0.050538
  23 H :    0.045808
  24 H :    0.038163
  25 C :   -0.042436
  26 H :    0.034656
  27 H :    0.018264
  28 C :   -0.073694
  29 H :    0.027517
  30 H :    0.027023
  31 H :    0.026245
  32 H :    0.030453
  33 H :    0.023253

  Mayer bond orders larger than 0.100000
B(  0-S ,  1-C ) :   1.1183 B(  0-S ,  4-C ) :   1.1514 B(  1-C ,  2-C ) :   1.6046
B(  1-C , 32-H ) :   0.9734 B(  2-C ,  3-C ) :   1.2443 B(  2-C ,  6-C ) :   1.0340
B(  3-C ,  4-C ) :   1.5626 B(  3-C ,  5-H ) :   0.9767 B(  4-C , 20-C ) :   1.0364
B(  6-C ,  7-H ) :   0.9416 B(  6-C ,  8-H ) :   0.9449 B(  6-C ,  9-C ) :   1.0541
B(  9-C , 10-H ) :   0.9607 B(  9-C , 11-H ) :   0.9590 B(  9-C , 12-C ) :   1.0602
B( 12-C , 13-H ) :   0.9792 B( 12-C , 14-H ) :   0.9766 B( 12-C , 15-H ) :   0.9779
B( 16-S , 17-C ) :   1.1784 B( 16-S , 20-C ) :   1.1279 B( 17-C , 18-C ) :   1.5842
B( 17-C , 33-H ) :   0.9693 B( 18-C , 19-C ) :   1.2330 B( 18-C , 21-H ) :   0.9929
B( 19-C , 20-C ) :   1.6004 B( 19-C , 22-C ) :   1.0566 B( 22-C , 23-H ) :   0.9330
B( 22-C , 24-H ) :   0.9294 B( 22-C , 25-C ) :   1.0428 B( 25-C , 26-H ) :   0.9581
B( 25-C , 27-H ) :   0.9550 B( 25-C , 28-C ) :   1.0729 B( 28-C , 29-H ) :   0.9685
B( 28-C , 30-H ) :   0.9767 B( 28-C , 31-H ) :   0.9722

Dispersion correction           -0.013535883
FINAL SINGLE POINT ENERGY     -1339.868446046671

DIPOLE MOMENT
-------------
                                X             Y             Z
Electronic contribution:     -3.32559      21.07062     -18.31727
Nuclear contribution   :      3.24953     -21.58720      18.53368
                        -----------------------------------------
Total Dipole Moment    :     -0.07606      -0.51658       0.21641
                        -----------------------------------------
Magnitude (a.u.)       :      0.56522
Magnitude (Debye)      :      1.43667

Rotational constants in cm-1:     0.018301     0.007753     0.006309
Rotational constants in MHz :   548.642281   232.433050   189.152572

                             ****ORCA TERMINATED NORMALLY****
TOTAL RUN TIME: 0 days 0 hours 0 minutes 33 seconds 23 msec
