                         Program Version 4.2.1 -  RELEASE  -
|  1> ! wB97X-D3 SP def2-SVP
|  2> %pal
|  3> nprocs 16
|  4> end
|  5>
|  6> * xyz 0 1
|  7> S 	 62.9791 	 -6.05028 	 87.1216
|  8> C 	 61.7201 	 -5.09492 	 87.7191
|  9> C 	 60.4994 	 -5.39479 	 87.1471
| 10> C 	 60.6037 	 -6.49886 	 86.3007
| 11> C 	 61.8428 	 -7.0851 	 86.3225
| 12> H 	 59.7924 	 -7.04072 	 85.7808
| 13> C 	 59.2413 	 -4.64735 	 87.4329
| 14> H 	 58.8893 	 -4.4359 	 86.4075
| 15> H 	 59.5518 	 -3.65224 	 87.7676
| 16> C 	 58.1997 	 -5.15031 	 88.4097
| 17> H 	 57.5117 	 -4.41564 	 88.6374
| 18> H 	 57.6619 	 -5.92169 	 87.8486
| 19> C 	 58.6875 	 -5.82188 	 89.6741
| 20> H 	 57.8831 	 -6.36018 	 90.249
| 21> H 	 59.4011 	 -6.64277 	 89.5413
| 22> H 	 59.2391 	 -5.11918 	 90.3468
| 23> S 	 63.3202 	 -9.44587 	 86.4566
| 24> C 	 63.4373 	 -10.5002 	 85.0858
| 25> C 	 62.7237 	 -9.94147 	 84.0315
| 26> C 	 62.057 	 -8.68456 	 84.2594
| 27> C 	 62.2814 	 -8.28569 	 85.6052
| 28> H 	 62.6384 	 -10.5129 	 83.1127
| 29> C 	 61.2114 	 -7.96184 	 83.2035
| 30> H 	 60.3045 	 -7.62366 	 83.6447
| 31> H 	 60.7729 	 -8.70304 	 82.4916
| 32> C 	 61.9125 	 -6.82019 	 82.4367
| 33> H 	 61.5897 	 -6.85424 	 81.4188
| 34> H 	 62.9326 	 -7.25438 	 82.3484
| 35> C 	 61.9636 	 -5.44917 	 83.0468
| 36> H 	 62.6607 	 -4.69876 	 82.6014
| 37> H 	 62.4364 	 -5.52615 	 84.0449
| 38> H 	 60.9454 	 -4.97668 	 83.1368
| 39> H 	 61.9815 	 -4.43625 	 88.4974
| 40> H 	 64.1196 	 -11.3297 	 84.9012
| 41> *
| 42>
| 43>                          ****END OF INPUT****

CARTESIAN COORDINATES (ANGSTROEM)
---------------------------------
  S     62.979100   -6.050280   87.121600
  C     61.720100   -5.094920   87.719100
  C     60.499400   -5.394790   87.147100
  C     60.603700   -6.498860   86.300700
  C     61.842800   -7.085100   86.322500
  H     59.792400   -7.040720   85.780800
  C     59.241300   -4.647350   87.432900
  H     58.889300   -4.435900   86.407500
  H     59.551800   -3.652240   87.767600
  C     58.199700   -5.150310   88.409700
  H     57.511700   -4.415640   88.637400
  H     57.661900   -5.921690   87.848600
  C     58.687500   -5.821880   89.674100
  H     57.883100   -6.360180   90.249000
  H     59.401100   -6.642770   89.541300
  H     59.239100   -5.119180   90.346800
  S     63.320200   -9.445870   86.456600
  C     63.437300  -10.500200   85.085800
  C     62.723700   -9.941470   84.031500
  C     62.057000   -8.684560   84.259400
  C     62.281400   -8.285690   85.605200
  H     62.638400  -10.512900   83.112700
  C     61.211400   -7.961840   83.203500
  H     60.304500   -7.623660   83.644700
  H     60.772900   -8.703040   82.491600
  C     61.912500   -6.820190   82.436700
  H     61.589700   -6.854240   81.418800
  H     62.932600   -7.254380   82.348400
  C     61.963600   -5.449170   83.046800
  H     62.660700   -4.698760   82.601400
  H     62.436400   -5.526150   84.044900
  H     60.945400   -4.976680   83.136800
  H     61.981500   -4.436250   88.497400
  H     64.119600  -11.329700   84.901200

 Total Charge           Charge          ....    0
 Multiplicity           Mult            ....    1
 Number of Electrons    NEL             ....  134
 Basis Dimension        Dim             ....  322

ORBITAL ENERGIES
----------------

  NO   OCC          E(Eh)            E(eV)
   0   2.0000     -88.967632     -2420.9323
   1   2.0000     -88.964286     -2420.8413
   2   2.0000     -10.331788      -281.1422
   3   2.0000     -10.323981      -280.9298
   4   2.0000     -10.317399      -280.7507
   5   2.0000     -10.309770      -280.5431
   6   2.0000     -10.304591      -280.4022
   7   2.0000     -10.297445      -280.2077
   8   2.0000     -10.295199      -280.1466
   9   2.0000     -10.294218      -280.1199
  10   2.0000     -10.291301      -280.0405
  11   2.0000     -10.289320      -279.9866
  12   2.0000     -10.282971      -279.8139
  13   2.0000     -10.281230      -279.7665
  14   2.0000     -10.280632      -279.7502
  15   2.0000     -10.278990      -279.7055
  16   2.0000      -8.081910      -219.9200
  17   2.0000      -8.080522      -219.8822
  18   2.0000      -6.040461      -164.3693
  19   2.0000      -6.038651      -164.3200
  20   2.0000      -6.036264      -164.2551
  21   2.0000      -6.034829      -164.2160
  22   2.0000      -6.032868      -164.1627
  23   2.0000      -6.031578      -164.1276
  24   2.0000      -1.013497       -27.5787
  25   2.0000      -0.985198       -26.8086
  26   2.0000      -0.915864       -24.9219
  27   2.0000      -0.906681       -24.6720
  28   2.0000      -0.867920       -23.6173
  29   2.0000      -0.856162       -23.2974
  30   2.0000      -0.844771       -22.9874
  31   2.0000      -0.814136       -22.1538
  32   2.0000      -0.785400       -21.3718
  33   2.0000      -0.773075       -21.0364
  34   2.0000      -0.710193       -19.3253
  35   2.0000      -0.699110       -19.0237
  36   2.0000      -0.692809       -18.8523
  37   2.0000      -0.656233       -17.8570
  38   2.0000      -0.645028       -17.5521
  39   2.0000      -0.622261       -16.9326
  40   2.0000      -0.596098       -16.2206
  41   2.0000      -0.564462       -15.3598
  42   2.0000      -0.553346       -15.0573
  43   2.0000      -0.549308       -14.9474
  44   2.0000      -0.547691       -14.9034
  45   2.0000      -0.535422       -14.5696
  46   2.0000      -0.518941       -14.1211
  47   2.0000      -0.505366       -13.7517
  48   2.0000      -0.502675       -13.6785
  49   2.0000      -0.496369       -13.5069
  50   2.0000      -0.490966       -13.3599
  51   2.0000      -0.481659       -13.1066
  52   2.0000      -0.471516       -12.8306
  53   2.0000      -0.465155       -12.6575
  54   2.0000      -0.462899       -12.5961
  55   2.0000      -0.450485       -12.2583
  56   2.0000      -0.438331       -11.9276
  57   2.0000      -0.436735       -11.8842
  58   2.0000      -0.429248       -11.6804
  59   2.0000      -0.425172       -11.5695
  60   2.0000      -0.414286       -11.2733
  61   2.0000      -0.410434       -11.1685
  62   2.0000      -0.404179       -10.9983
  63   2.0000      -0.345100        -9.3906
  64   2.0000      -0.334038        -9.0896
  65   2.0000      -0.330561        -8.9950
  66   2.0000      -0.290515        -7.9053
  67   0.0000       0.025047         0.6816
  68   0.0000       0.074282         2.0213
  69   0.0000       0.111958         3.0465
  70   0.0000       0.117963         3.2099
  71   0.0000       0.136363         3.7106

MULLIKEN ATOMIC CHARGES
-----------------------
   0 S :    0.118958
   1 C :   -0.121867
   2 C :   -0.082939
   3 C :    0.010875
   4 C :   -0.165117
   5 H :    0.026786
   6 C :    0.066064
   7 H :    0.031588
   8 H :    0.008042
   9 C :    0.008623
  10 H :    0.019827
  11 H :    0.018002
  12 C :   -0.087665
  13 H :    0.040918
  14 H :    0.038502
  15 H :    0.029270
  16 S :    0.113960
  17 C :   -0.086488
  18 C :   -0.063725
  19 C :   -0.026981
  20 C :   -0.175523
  21 H :    0.017444
  22 C :    0.074056
  23 H :   -0.000500
  24 H :    0.024136
  25 C :   -0.040567
  26 H :    0.017907
  27 H :    0.022623
  28 C :   -0.049955
  29 H :    0.038297
  30 H :    0.034465
  31 H :    0.038861
  32 H :    0.035495
  33 H :    0.066631
Sum of atomic charges:   -0.0000000

LOEWDIN ATOMIC CHARGES
----------------------
   0 S :    0.438331
   1 C :   -0.203188
   2 C :   -0.066563
   3 C :   -0.064692
   4 C :   -0.202949
   5 H :    0.037091
   6 C :   -0.035497
   7 H :    0.038805
   8 H :    0.028117
   9 C :   -0.037001
  10 H :    0.018866
  11 H :    0.026456
  12 C :   -0.074926
  13 H :    0.034163
  14 H :    0.027923
  15 H :    0.024448
  16 S :    0.409978
  17 C :   -0.204308
  18 C :   -0.074339
  19 C :   -0.054629
  20 C :   -0.195173
  21 H :    0.027903
  22 C :   -0.031833
  23 H :    0.019723
  24 H :    0.039600
  25 C :   -0.045442
  26 H :    0.019464
  27 H :    0.031064
  28 C :   -0.077116
  29 H :    0.032732
  30 H :    0.029793
  31 H :    0.028545
  32 H :    0.016022
  33 H :    0.038628

  Mayer bond orders larger than 0.100000
B(  0-S ,  1-C ) :   1.1686 B(  0-S ,  4-C ) :   1.1724 B(  1-C ,  2-C ) :   1.5534
B(  1-C ,  4-C ) :   0.1021 B(  1-C , 32-H ) :   0.9812 B(  2-C ,  3-C ) :   1.2647
B(  2-C ,  6-C ) :   1.0208 B(  3-C ,  4-C ) :   1.5610 B(  3-C ,  5-H ) :   0.9948
B(  4-C , 20-C ) :   1.0367 B(  6-C ,  7-H ) :   0.9386 B(  6-C ,  8-H ) :   0.9332
B(  6-C ,  9-C ) :   1.0653 B(  9-C , 10-H ) :   0.9530 B(  9-C , 11-H ) :   0.9497
B(  9-C , 12-C ) :   1.0889 B( 12-C , 13-H ) :   0.9729 B( 12-C , 14-H ) :   0.9681
B( 12-C , 15-H ) :   0.9750 B( 16-S , 17-C ) :   1.1498 B( 16-S , 20-C ) :   1.1598
B( 17-C , 18-C ) :   1.6046 B( 17-C , 20-C ) :   0.1058 B( 17-C , 33-H ) :   0.9637
B( 18-C , 19-C ) :   1.2659 B( 18-C , 21-H ) :   0.9813 B( 19-C , 20-C ) :   1.5455
B( 19-C , 22-C ) :   1.0407 B( 22-C , 23-H ) :   0.9346 B( 22-C , 24-H ) :   0.9320
B( 22-C , 25-C ) :   1.0541 B( 25-C , 26-H ) :   0.9548 B( 25-C , 27-H ) :   0.9523
B( 25-C , 28-C ) :   1.0851 B( 28-C , 29-H ) :   0.9697 B( 28-C , 30-H ) :   0.9667
B( 28-C , 31-H ) :   0.9724

Dispersion correction           -0.015838913
FINAL SINGLE POINT ENERGY     -1339.877138299375

DIPOLE MOMENT
-------------
                                X             Y             Z
Electronic contribution:     17.59415     -11.73322       5.02125
Nuclear contribution   :    -18.00173      11.86719      -5.30849
                        -----------------------------------------
Total Dipole Moment    :     -0.40758       0.13397      -0.28724
                        -----------------------------------------
Magnitude (a.u.)       :      0.51631
Magnitude (Debye)      :      1.31235

Rotational constants in cm-1:     0.020132     0.008989     0.007698
Rotational constants in MHz :   603.536299   269.470918   230.781202

                             ****ORCA TERMINATED NORMALLY****
TOTAL RUN TIME: 0 days 0 hours 0 minutes 32 seconds 374 msec
