                         Program Version 4.2.1 -  RELEASE  -
|  1> ! wB97X-D3 SP def2-SVP
|  2> %pal
|  3> nprocs 16
|  4> end
|  5>
|  6> * xyz 0 1
|  7> S 	 -104.405 	 56.3903 	 118.055
|  8> C 	 -103.035 	 55.684 	 118.879
|  9> C 	 -103.486 	 54.6694 	 119.713
| 10> C 	 -104.883 	 54.4614 	 119.65
| 11> C 	 -105.601 	 55.4206 	 118.987
| 12> H 	 -105.442 	 53.7368 	 120.171
| 13> C 	 -102.551 	 53.7068 	 120.458
| 14> H 	 -102.961 	 53.6095 	 121.408
| 15> H 	 -101.555 	 54.1141 	 120.636
| 16> C 	 -102.452 	 52.3503 	 119.752
| 17> H 	 -101.943 	 51.6895 	 120.533
| 18> H 	 -103.457 	 51.9367 	 119.622
| 19> C 	 -101.705 	 52.3624 	 118.374
| 20> H 	 -101.272 	 51.343 	 118.051
| 21> H 	 -102.369 	 52.7665 	 117.581
| 22> H 	 -100.848 	 53.0775 	 118.398
| 23> S 	 -107.673 	 55.0328 	 117.269
| 24> C 	 -109.218 	 55.2654 	 117.842
| 25> C 	 -109.341 	 55.5576 	 119.192
| 26> C 	 -108.003 	 55.6987 	 119.781
| 27> C 	 -107.028 	 55.5237 	 118.824
| 28> H 	 -110.206 	 55.6709 	 119.758
| 29> C 	 -107.807 	 56.1041 	 121.272
| 30> H 	 -108.143 	 57.1148 	 121.206
| 31> H 	 -106.76 	 56.0813 	 121.359
| 32> C 	 -108.622 	 55.2594 	 122.287
| 33> H 	 -109.733 	 55.349 	 122.173
| 34> H 	 -108.546 	 55.6675 	 123.295
| 35> C 	 -108.267 	 53.8314 	 122.175
| 36> H 	 -107.203 	 53.6358 	 122.268
| 37> H 	 -108.692 	 53.375 	 121.306
| 38> H 	 -108.728 	 53.4418 	 123.016
| 39> H 	 -102.037 	 55.9169 	 118.693
| 40> H 	 -109.978 	 55.3465 	 117.103
| 41> *
| 42>
| 43>                          ****END OF INPUT****

CARTESIAN COORDINATES (ANGSTROEM)
---------------------------------
  S    -104.405000   56.390300  118.055000
  C    -103.035000   55.684000  118.879000
  C    -103.486000   54.669400  119.713000
  C    -104.883000   54.461400  119.650000
  C    -105.601000   55.420600  118.987000
  H    -105.442000   53.736800  120.171000
  C    -102.551000   53.706800  120.458000
  H    -102.961000   53.609500  121.408000
  H    -101.555000   54.114100  120.636000
  C    -102.452000   52.350300  119.752000
  H    -101.943000   51.689500  120.533000
  H    -103.457000   51.936700  119.622000
  C    -101.705000   52.362400  118.374000
  H    -101.272000   51.343000  118.051000
  H    -102.369000   52.766500  117.581000
  H    -100.848000   53.077500  118.398000
  S    -107.673000   55.032800  117.269000
  C    -109.218000   55.265400  117.842000
  C    -109.341000   55.557600  119.192000
  C    -108.003000   55.698700  119.781000
  C    -107.028000   55.523700  118.824000
  H    -110.206000   55.670900  119.758000
  C    -107.807000   56.104100  121.272000
  H    -108.143000   57.114800  121.206000
  H    -106.760000   56.081300  121.359000
  C    -108.622000   55.259400  122.287000
  H    -109.733000   55.349000  122.173000
  H    -108.546000   55.667500  123.295000
  C    -108.267000   53.831400  122.175000
  H    -107.203000   53.635800  122.268000
  H    -108.692000   53.375000  121.306000
  H    -108.728000   53.441800  123.016000
  H    -102.037000   55.916900  118.693000
  H    -109.978000   55.346500  117.103000

 Total Charge           Charge          ....    0
 Multiplicity           Mult            ....    1
 Number of Electrons    NEL             ....  134
 Basis Dimension        Dim             ....  322

ORBITAL ENERGIES
----------------

  NO   OCC          E(Eh)            E(eV)
   0   2.0000     -88.963009     -2420.8065
   1   2.0000     -88.958828     -2420.6928
   2   2.0000     -10.326264      -280.9919
   3   2.0000     -10.319100      -280.7970
   4   2.0000     -10.311895      -280.6009
   5   2.0000     -10.310501      -280.5630
   6   2.0000     -10.306431      -280.4522
   7   2.0000     -10.297989      -280.2225
   8   2.0000     -10.294298      -280.1221
   9   2.0000     -10.292082      -280.0618
  10   2.0000     -10.291162      -280.0368
  11   2.0000     -10.289312      -279.9864
  12   2.0000     -10.288631      -279.9679
  13   2.0000     -10.287835      -279.9462
  14   2.0000     -10.287009      -279.9237
  15   2.0000     -10.265814      -279.3470
  16   2.0000      -8.079940      -219.8663
  17   2.0000      -8.073149      -219.6815
  18   2.0000      -6.038216      -164.3082
  19   2.0000      -6.034231      -164.1998
  20   2.0000      -6.031720      -164.1314
  21   2.0000      -6.030721      -164.1043
  22   2.0000      -6.027657      -164.0209
  23   2.0000      -6.023920      -163.9192
  24   2.0000      -1.008851       -27.4522
  25   2.0000      -0.984751       -26.7964
  26   2.0000      -0.917069       -24.9547
  27   2.0000      -0.906372       -24.6636
  28   2.0000      -0.870894       -23.6982
  29   2.0000      -0.856406       -23.3040
  30   2.0000      -0.837686       -22.7946
  31   2.0000      -0.811859       -22.0918
  32   2.0000      -0.789057       -21.4713
  33   2.0000      -0.773057       -21.0360
  34   2.0000      -0.709715       -19.3123
  35   2.0000      -0.698360       -19.0033
  36   2.0000      -0.690035       -18.7768
  37   2.0000      -0.663890       -18.0654
  38   2.0000      -0.647443       -17.6178
  39   2.0000      -0.619270       -16.8512
  40   2.0000      -0.599213       -16.3054
  41   2.0000      -0.565759       -15.3951
  42   2.0000      -0.564093       -15.3498
  43   2.0000      -0.550639       -14.9837
  44   2.0000      -0.546010       -14.8577
  45   2.0000      -0.530959       -14.4481
  46   2.0000      -0.524466       -14.2715
  47   2.0000      -0.515522       -14.0281
  48   2.0000      -0.501404       -13.6439
  49   2.0000      -0.500379       -13.6160
  50   2.0000      -0.488289       -13.2870
  51   2.0000      -0.478784       -13.0284
  52   2.0000      -0.467394       -12.7184
  53   2.0000      -0.464127       -12.6295
  54   2.0000      -0.460025       -12.5179
  55   2.0000      -0.458817       -12.4850
  56   2.0000      -0.441629       -12.0173
  57   2.0000      -0.436853       -11.8874
  58   2.0000      -0.433119       -11.7858
  59   2.0000      -0.428278       -11.6540
  60   2.0000      -0.426162       -11.5965
  61   2.0000      -0.411724       -11.2036
  62   2.0000      -0.403044       -10.9674
  63   2.0000      -0.337322        -9.1790
  64   2.0000      -0.329750        -8.9729
  65   2.0000      -0.322541        -8.7768
  66   2.0000      -0.301157        -8.1949
  67   0.0000       0.036284         0.9873
  68   0.0000       0.066041         1.7971
  69   0.0000       0.111777         3.0416
  70   0.0000       0.128789         3.5045
  71   0.0000       0.130267         3.5448

MULLIKEN ATOMIC CHARGES
-----------------------
   0 S :    0.083619
   1 C :   -0.085392
   2 C :   -0.102493
   3 C :    0.058244
   4 C :   -0.183472
   5 H :   -0.008468
   6 C :    0.107199
   7 H :    0.007653
   8 H :    0.017727
   9 C :   -0.093633
  10 H :    0.039373
  11 H :    0.036084
  12 C :   -0.087593
  13 H :    0.054255
  14 H :    0.053258
  15 H :    0.026058
  16 S :    0.126309
  17 C :   -0.066692
  18 C :   -0.003676
  19 C :   -0.096410
  20 C :   -0.178824
  21 H :   -0.009632
  22 C :    0.139922
  23 H :    0.034446
  24 H :    0.017822
  25 C :   -0.106128
  26 H :    0.025751
  27 H :    0.028465
  28 C :    0.008278
  29 H :    0.030678
  30 H :    0.041802
  31 H :    0.009635
  32 H :    0.025553
  33 H :    0.050282
Sum of atomic charges:    0.0000000

LOEWDIN ATOMIC CHARGES
----------------------
   0 S :    0.376120
   1 C :   -0.182527
   2 C :   -0.066444
   3 C :   -0.057431
   4 C :   -0.182470
   5 H :    0.022980
   6 C :   -0.026437
   7 H :    0.021478
   8 H :    0.028267
   9 C :   -0.043951
  10 H :    0.030007
  11 H :    0.023336
  12 C :   -0.078835
  13 H :    0.037063
  14 H :    0.032016
  15 H :    0.023000
  16 S :    0.440806
  17 C :   -0.193883
  18 C :   -0.068125
  19 C :   -0.036524
  20 C :   -0.218945
  21 H :    0.018330
  22 C :   -0.018826
  23 H :    0.033863
  24 H :    0.023916
  25 C :   -0.043093
  26 H :    0.028295
  27 H :    0.025410
  28 C :   -0.056742
  29 H :    0.024801
  30 H :    0.027760
  31 H :    0.020857
  32 H :    0.016894
  33 H :    0.019037

  Mayer bond orders larger than 0.100000
B(  0-S ,  1-C ) :   1.1430 B(  0-S ,  4-C ) :   1.1317 B(  1-C ,  2-C ) :   1.5940
B(  1-C ,  4-C ) :   0.1028 B(  1-C , 32-H ) :   0.9813 B(  2-C ,  3-C ) :   1.2333
B(  2-C ,  6-C ) :   1.0246 B(  3-C ,  4-C ) :   1.5884 B(  3-C ,  5-H ) :   0.9993
B(  4-C , 20-C ) :   1.0266 B(  6-C ,  7-H ) :   0.9300 B(  6-C ,  8-H ) :   0.9432
B(  6-C ,  9-C ) :   1.0782 B(  9-C , 10-H ) :   0.9569 B(  9-C , 11-H ) :   0.9584
B(  9-C , 12-C ) :   1.0536 B( 12-C , 13-H ) :   0.9760 B( 12-C , 14-H ) :   0.9742
B( 12-C , 15-H ) :   0.9773 B( 16-S , 17-C ) :   1.1925 B( 16-S , 20-C ) :   1.1437
B( 17-C , 18-C ) :   1.5764 B( 17-C , 33-H ) :   0.9686 B( 18-C , 19-C ) :   1.2275
B( 18-C , 21-H ) :   1.0067 B( 19-C , 20-C ) :   1.6265 B( 19-C , 22-C ) :   1.0032
B( 22-C , 23-H ) :   0.9338 B( 22-C , 24-H ) :   0.9375 B( 22-C , 25-C ) :   1.0681
B( 25-C , 26-H ) :   0.9493 B( 25-C , 27-H ) :   0.9579 B( 25-C , 28-C ) :   1.0785
B( 28-C , 29-H ) :   0.9737 B( 28-C , 30-H ) :   0.9685 B( 28-C , 31-H ) :   0.9645

Dispersion correction           -0.015395111
FINAL SINGLE POINT ENERGY     -1339.866711830472

DIPOLE MOMENT
-------------
                                X             Y             Z
Electronic contribution:     -5.79497      13.52694     -17.61110
Nuclear contribution   :      5.62913     -13.83141      18.20650
                        -----------------------------------------
Total Dipole Moment    :     -0.16583      -0.30447       0.59540
                        -----------------------------------------
Magnitude (a.u.)       :      0.68898
Magnitude (Debye)      :      1.75126

Rotational constants in cm-1:     0.019860     0.008729     0.007326
Rotational constants in MHz :   595.401440   261.692610   219.639463

                             ****ORCA TERMINATED NORMALLY****
TOTAL RUN TIME: 0 days 0 hours 0 minutes 36 seconds 249 msec
