                         Program Version 4.2.1 -  RELEASE  -
|  1> ! wB97X-D3 SP def2-SVP
|  2> %pal
|  3> nprocs 16
|  4> end
|  5>
|  6> * xyz 0 1
|  7> S 	 28.0365 	 -6.30001 	 81.4328
|  8> C 	 28.6401 	 -5.24838 	 80.244
|  9> C 	 27.5791 	 -4.62163 	 79.5318
| 10> C 	 26.2759 	 -4.99433 	 80.0226
| 11> C 	 26.3647 	 -5.94699 	 81.0215
| 12> H 	 25.3671 	 -4.66259 	 79.5848
| 13> C 	 27.8045 	 -3.54907 	 78.4702
| 14> H 	 27.3176 	 -3.80736 	 77.5867
| 15> H 	 28.7986 	 -3.66571 	 78.2235
| 16> C 	 27.4046 	 -2.10073 	 78.9088
| 17> H 	 27.8822 	 -1.8789 	 79.9051
| 18> H 	 27.8771 	 -1.39112 	 78.205
| 19> C 	 25.9497 	 -1.73041 	 79.0012
| 20> H 	 25.8552 	 -0.715594 	 79.2363
| 21> H 	 25.4897 	 -2.01338 	 78.0147
| 22> H 	 25.5646 	 -2.29194 	 79.8302
| 23> S 	 24.3796 	 -7.82198 	 81.1831
| 24> C 	 23.3639 	 -7.80618 	 82.5751
| 25> C 	 23.5237 	 -6.73644 	 83.3515
| 26> C 	 24.5575 	 -5.88255 	 82.8827
| 27> C 	 25.2343 	 -6.45532 	 81.7546
| 28> H 	 22.9716 	 -6.53824 	 84.2185
| 29> C 	 24.9876 	 -4.61157 	 83.6492
| 30> H 	 24.1193 	 -4.25904 	 84.1604
| 31> H 	 25.4132 	 -3.92409 	 82.8855
| 32> C 	 26.0009 	 -4.82685 	 84.7123
| 33> H 	 26.5993 	 -3.97251 	 84.9237
| 34> H 	 26.6997 	 -5.62 	 84.4057
| 35> C 	 25.3869 	 -5.27829 	 86.0609
| 36> H 	 24.7821 	 -6.16226 	 85.9554
| 37> H 	 24.6852 	 -4.54608 	 86.4406
| 38> H 	 26.0662 	 -5.3037 	 86.867
| 39> H 	 29.6552 	 -5.11652 	 80.0241
| 40> H 	 22.7492 	 -8.63352 	 82.7091
| 41> *
| 42>
| 43>                          ****END OF INPUT****

CARTESIAN COORDINATES (ANGSTROEM)
---------------------------------
  S     28.036500   -6.300010   81.432800
  C     28.640100   -5.248380   80.244000
  C     27.579100   -4.621630   79.531800
  C     26.275900   -4.994330   80.022600
  C     26.364700   -5.946990   81.021500
  H     25.367100   -4.662590   79.584800
  C     27.804500   -3.549070   78.470200
  H     27.317600   -3.807360   77.586700
  H     28.798600   -3.665710   78.223500
  C     27.404600   -2.100730   78.908800
  H     27.882200   -1.878900   79.905100
  H     27.877100   -1.391120   78.205000
  C     25.949700   -1.730410   79.001200
  H     25.855200   -0.715594   79.236300
  H     25.489700   -2.013380   78.014700
  H     25.564600   -2.291940   79.830200
  S     24.379600   -7.821980   81.183100
  C     23.363900   -7.806180   82.575100
  C     23.523700   -6.736440   83.351500
  C     24.557500   -5.882550   82.882700
  C     25.234300   -6.455320   81.754600
  H     22.971600   -6.538240   84.218500
  C     24.987600   -4.611570   83.649200
  H     24.119300   -4.259040   84.160400
  H     25.413200   -3.924090   82.885500
  C     26.000900   -4.826850   84.712300
  H     26.599300   -3.972510   84.923700
  H     26.699700   -5.620000   84.405700
  C     25.386900   -5.278290   86.060900
  H     24.782100   -6.162260   85.955400
  H     24.685200   -4.546080   86.440600
  H     26.066200   -5.303700   86.867000
  H     29.655200   -5.116520   80.024100
  H     22.749200   -8.633520   82.709100

 Total Charge           Charge          ....    0
 Multiplicity           Mult            ....    1
 Number of Electrons    NEL             ....  134
 Basis Dimension        Dim             ....  322

ORBITAL ENERGIES
----------------

  NO   OCC          E(Eh)            E(eV)
   0   2.0000     -88.968588     -2420.9584
   1   2.0000     -88.962349     -2420.7886
   2   2.0000     -10.325419      -280.9689
   3   2.0000     -10.320203      -280.8270
   4   2.0000     -10.311099      -280.5793
   5   2.0000     -10.305295      -280.4213
   6   2.0000     -10.303139      -280.3627
   7   2.0000     -10.302415      -280.3430
   8   2.0000     -10.293043      -280.0879
   9   2.0000     -10.288834      -279.9734
  10   2.0000     -10.286606      -279.9128
  11   2.0000     -10.284646      -279.8594
  12   2.0000     -10.282376      -279.7977
  13   2.0000     -10.276171      -279.6288
  14   2.0000     -10.274450      -279.5820
  15   2.0000     -10.267908      -279.4040
  16   2.0000      -8.083613      -219.9663
  17   2.0000      -8.078647      -219.8312
  18   2.0000      -6.041991      -164.4109
  19   2.0000      -6.037918      -164.3001
  20   2.0000      -6.036869      -164.2716
  21   2.0000      -6.034664      -164.2115
  22   2.0000      -6.032900      -164.1635
  23   2.0000      -6.029667      -164.0756
  24   2.0000      -1.009843       -27.4792
  25   2.0000      -0.987982       -26.8844
  26   2.0000      -0.912499       -24.8304
  27   2.0000      -0.909944       -24.7608
  28   2.0000      -0.875475       -23.8229
  29   2.0000      -0.851192       -23.1621
  30   2.0000      -0.847059       -23.0497
  31   2.0000      -0.819643       -22.3036
  32   2.0000      -0.787881       -21.4393
  33   2.0000      -0.770994       -20.9798
  34   2.0000      -0.707411       -19.2496
  35   2.0000      -0.692808       -18.8523
  36   2.0000      -0.691556       -18.8182
  37   2.0000      -0.664535       -18.0829
  38   2.0000      -0.649207       -17.6658
  39   2.0000      -0.618184       -16.8217
  40   2.0000      -0.601724       -16.3737
  41   2.0000      -0.574512       -15.6333
  42   2.0000      -0.561000       -15.2656
  43   2.0000      -0.551571       -15.0090
  44   2.0000      -0.548105       -14.9147
  45   2.0000      -0.544173       -14.8077
  46   2.0000      -0.516303       -14.0493
  47   2.0000      -0.513808       -13.9814
  48   2.0000      -0.504127       -13.7180
  49   2.0000      -0.495819       -13.4919
  50   2.0000      -0.488849       -13.3023
  51   2.0000      -0.482972       -13.1423
  52   2.0000      -0.474493       -12.9116
  53   2.0000      -0.468039       -12.7360
  54   2.0000      -0.458927       -12.4880
  55   2.0000      -0.451711       -12.2917
  56   2.0000      -0.448909       -12.2154
  57   2.0000      -0.436119       -11.8674
  58   2.0000      -0.434523       -11.8240
  59   2.0000      -0.423381       -11.5208
  60   2.0000      -0.421803       -11.4778
  61   2.0000      -0.412180       -11.2160
  62   2.0000      -0.406714       -11.0673
  63   2.0000      -0.339171        -9.2293
  64   2.0000      -0.336038        -9.1441
  65   2.0000      -0.309635        -8.4256
  66   2.0000      -0.308263        -8.3883
  67   0.0000       0.048262         1.3133
  68   0.0000       0.051738         1.4079
  69   0.0000       0.115234         3.1357
  70   0.0000       0.125806         3.4234
  71   0.0000       0.129077         3.5124

MULLIKEN ATOMIC CHARGES
-----------------------
   0 S :    0.135362
   1 C :   -0.103141
   2 C :   -0.144663
   3 C :    0.057726
   4 C :   -0.176479
   5 H :    0.011280
   6 C :    0.167862
   7 H :    0.005682
   8 H :   -0.014840
   9 C :   -0.120514
  10 H :    0.029592
  11 H :    0.028972
  12 C :   -0.013464
  13 H :    0.028522
  14 H :    0.036530
  15 H :    0.029616
  16 S :    0.121370
  17 C :   -0.067446
  18 C :    0.008914
  19 C :   -0.057183
  20 C :   -0.197931
  21 H :   -0.001746
  22 C :    0.108449
  23 H :    0.006282
  24 H :    0.038737
  25 C :   -0.036773
  26 H :    0.021518
  27 H :    0.025152
  28 C :   -0.047592
  29 H :    0.026708
  30 H :    0.007884
  31 H :    0.022775
  32 H :    0.031367
  33 H :    0.031472
Sum of atomic charges:    0.0000000

LOEWDIN ATOMIC CHARGES
----------------------
   0 S :    0.437112
   1 C :   -0.212137
   2 C :   -0.056655
   3 C :   -0.052212
   4 C :   -0.205092
   5 H :    0.029218
   6 C :   -0.023918
   7 H :    0.021662
   8 H :    0.021100
   9 C :   -0.042452
  10 H :    0.026723
  11 H :    0.022796
  12 C :   -0.059948
  13 H :    0.022388
  14 H :    0.030787
  15 H :    0.022423
  16 S :    0.437478
  17 C :   -0.175237
  18 C :   -0.069540
  19 C :   -0.042282
  20 C :   -0.227603
  21 H :    0.024626
  22 C :   -0.029021
  23 H :    0.025247
  24 H :    0.039119
  25 C :   -0.037586
  26 H :    0.020940
  27 H :    0.023824
  28 C :   -0.064620
  29 H :    0.020884
  30 H :    0.020149
  31 H :    0.020896
  32 H :    0.017793
  33 H :    0.013137

  Mayer bond orders larger than 0.100000
B(  0-S ,  1-C ) :   1.1668 B(  0-S ,  4-C ) :   1.1641 B(  1-C ,  2-C ) :   1.5718
B(  1-C , 32-H ) :   0.9746 B(  2-C ,  3-C ) :   1.2588 B(  2-C ,  6-C ) :   1.0318
B(  3-C ,  4-C ) :   1.5595 B(  3-C ,  5-H ) :   0.9977 B(  4-C , 20-C ) :   1.0202
B(  6-C ,  7-H ) :   0.9312 B(  6-C ,  8-H ) :   0.9247 B(  6-C ,  9-C ) :   1.0587
B(  9-C , 10-H ) :   0.9550 B(  9-C , 11-H ) :   0.9567 B(  9-C , 12-C ) :   1.0853
B( 12-C , 13-H ) :   0.9674 B( 12-C , 14-H ) :   0.9737 B( 12-C , 15-H ) :   0.9699
B( 16-S , 17-C ) :   1.1731 B( 16-S , 20-C ) :   1.1768 B( 17-C , 18-C ) :   1.5738
B( 17-C , 20-C ) :   0.1013 B( 17-C , 33-H ) :   0.9784 B( 18-C , 19-C ) :   1.2645
B( 18-C , 21-H ) :   1.0001 B( 19-C , 20-C ) :   1.5531 B( 19-C , 22-C ) :   1.0577
B( 22-C , 23-H ) :   0.9310 B( 22-C , 24-H ) :   0.9216 B( 22-C , 25-C ) :   1.0733
B( 25-C , 26-H ) :   0.9542 B( 25-C , 27-H ) :   0.9497 B( 25-C , 28-C ) :   1.0830
B( 28-C , 29-H ) :   0.9752 B( 28-C , 30-H ) :   0.9700 B( 28-C , 31-H ) :   0.9720

Dispersion correction           -0.015330186
FINAL SINGLE POINT ENERGY     -1339.872792220178

DIPOLE MOMENT
-------------
                                X             Y             Z
Electronic contribution:      0.21952     -21.82812      -5.22728
Nuclear contribution   :     -0.25367      22.31948       5.25710
                        -----------------------------------------
Total Dipole Moment    :     -0.03415       0.49136       0.02982
                        -----------------------------------------
Magnitude (a.u.)       :      0.49344
Magnitude (Debye)      :      1.25424

Rotational constants in cm-1:     0.018813     0.008651     0.007922
Rotational constants in MHz :   563.991082   259.337381   237.492907

                             ****ORCA TERMINATED NORMALLY****
TOTAL RUN TIME: 0 days 0 hours 0 minutes 31 seconds 532 msec
