                         Program Version 4.2.1 -  RELEASE  -
|  1> ! wB97X-D3 SP def2-SVP
|  2> %pal
|  3> nprocs 16
|  4> end
|  5>
|  6> * xyz 0 1
|  7> S 	 -45.1989 	 -2.3054 	 98.4168
|  8> C 	 -44.8479 	 -3.43152 	 97.1111
|  9> C 	 -44.1313 	 -2.86659 	 96.0458
| 10> C 	 -44.0271 	 -1.46821 	 96.3371
| 11> C 	 -44.6836 	 -0.968535 	 97.4481
| 12> H 	 -43.593 	 -0.686768 	 95.6849
| 13> C 	 -43.3853 	 -3.54829 	 94.9104
| 14> H 	 -42.7085 	 -4.32104 	 95.4026
| 15> H 	 -42.6597 	 -2.81486 	 94.5989
| 16> C 	 -44.3053 	 -4.02427 	 93.7398
| 17> H 	 -43.8205 	 -4.8124 	 93.108
| 18> H 	 -45.1486 	 -4.52842 	 94.0981
| 19> C 	 -44.7063 	 -2.91448 	 92.8219
| 20> H 	 -45.4309 	 -3.18143 	 92.0175
| 21> H 	 -45.1318 	 -2.04489 	 93.3499
| 22> H 	 -43.7886 	 -2.53621 	 92.3719
| 23> S 	 -44.0297 	 0.657039 	 99.7006
| 24> C 	 -44.0239 	 2.41922 	 99.5173
| 25> C 	 -44.502 	 2.77206 	 98.2694
| 26> C 	 -44.831 	 1.67383 	 97.4157
| 27> C 	 -44.5816 	 0.427534 	 98.0569
| 28> H 	 -44.526 	 3.76798 	 98.0723
| 29> C 	 -45.4352 	 1.81548 	 96.0023
| 30> H 	 -46.4796 	 2.32106 	 96.0989
| 31> H 	 -45.7485 	 0.89893 	 95.6473
| 32> C 	 -44.418 	 2.45339 	 94.9722
| 33> H 	 -43.6674 	 1.73574 	 94.7097
| 34> H 	 -43.8961 	 3.23579 	 95.5431
| 35> C 	 -45.1026 	 2.88384 	 93.7133
| 36> H 	 -45.6104 	 3.83111 	 93.7937
| 37> H 	 -45.7975 	 2.14483 	 93.2296
| 38> H 	 -44.4114 	 3.06788 	 92.9275
| 39> H 	 -44.8884 	 -4.47814 	 97.225
| 40> H 	 -43.7282 	 3.14797 	 100.234
| 41> *
| 42>
| 43>                          ****END OF INPUT****

CARTESIAN COORDINATES (ANGSTROEM)
---------------------------------
  S    -45.198900   -2.305400   98.416800
  C    -44.847900   -3.431520   97.111100
  C    -44.131300   -2.866590   96.045800
  C    -44.027100   -1.468210   96.337100
  C    -44.683600   -0.968535   97.448100
  H    -43.593000   -0.686768   95.684900
  C    -43.385300   -3.548290   94.910400
  H    -42.708500   -4.321040   95.402600
  H    -42.659700   -2.814860   94.598900
  C    -44.305300   -4.024270   93.739800
  H    -43.820500   -4.812400   93.108000
  H    -45.148600   -4.528420   94.098100
  C    -44.706300   -2.914480   92.821900
  H    -45.430900   -3.181430   92.017500
  H    -45.131800   -2.044890   93.349900
  H    -43.788600   -2.536210   92.371900
  S    -44.029700    0.657039   99.700600
  C    -44.023900    2.419220   99.517300
  C    -44.502000    2.772060   98.269400
  C    -44.831000    1.673830   97.415700
  C    -44.581600    0.427534   98.056900
  H    -44.526000    3.767980   98.072300
  C    -45.435200    1.815480   96.002300
  H    -46.479600    2.321060   96.098900
  H    -45.748500    0.898930   95.647300
  C    -44.418000    2.453390   94.972200
  H    -43.667400    1.735740   94.709700
  H    -43.896100    3.235790   95.543100
  C    -45.102600    2.883840   93.713300
  H    -45.610400    3.831110   93.793700
  H    -45.797500    2.144830   93.229600
  H    -44.411400    3.067880   92.927500
  H    -44.888400   -4.478140   97.225000
  H    -43.728200    3.147970  100.234000

 Total Charge           Charge          ....    0
 Multiplicity           Mult            ....    1
 Number of Electrons    NEL             ....  134
 Basis Dimension        Dim             ....  322

ORBITAL ENERGIES
----------------

  NO   OCC          E(Eh)            E(eV)
   0   2.0000     -88.969012     -2420.9699
   1   2.0000     -88.967788     -2420.9366
   2   2.0000     -10.335643      -281.2471
   3   2.0000     -10.331333      -281.1299
   4   2.0000     -10.317504      -280.7536
   5   2.0000     -10.313999      -280.6582
   6   2.0000     -10.307739      -280.4879
   7   2.0000     -10.306522      -280.4547
   8   2.0000     -10.304306      -280.3944
   9   2.0000     -10.295625      -280.1582
  10   2.0000     -10.294006      -280.1141
  11   2.0000     -10.289015      -279.9783
  12   2.0000     -10.288926      -279.9759
  13   2.0000     -10.288699      -279.9697
  14   2.0000     -10.279500      -279.7194
  15   2.0000     -10.275462      -279.6095
  16   2.0000      -8.083014      -219.9500
  17   2.0000      -8.082604      -219.9388
  18   2.0000      -6.041553      -164.3990
  19   2.0000      -6.041047      -164.3852
  20   2.0000      -6.037599      -164.2914
  21   2.0000      -6.037181      -164.2800
  22   2.0000      -6.033813      -164.1884
  23   2.0000      -6.033355      -164.1759
  24   2.0000      -1.002350       -27.2753
  25   2.0000      -0.981558       -26.7095
  26   2.0000      -0.913444       -24.8561
  27   2.0000      -0.904293       -24.6071
  28   2.0000      -0.866113       -23.5681
  29   2.0000      -0.850733       -23.1496
  30   2.0000      -0.846478       -23.0338
  31   2.0000      -0.815772       -22.1983
  32   2.0000      -0.783214       -21.3123
  33   2.0000      -0.770831       -20.9754
  34   2.0000      -0.709131       -19.2964
  35   2.0000      -0.704558       -19.1720
  36   2.0000      -0.694590       -18.9007
  37   2.0000      -0.659206       -17.9379
  38   2.0000      -0.641674       -17.4608
  39   2.0000      -0.614195       -16.7131
  40   2.0000      -0.595972       -16.2172
  41   2.0000      -0.576030       -15.6746
  42   2.0000      -0.559391       -15.2218
  43   2.0000      -0.553352       -15.0575
  44   2.0000      -0.540708       -14.7134
  45   2.0000      -0.520995       -14.1770
  46   2.0000      -0.514008       -13.9869
  47   2.0000      -0.511641       -13.9225
  48   2.0000      -0.507450       -13.8084
  49   2.0000      -0.491168       -13.3654
  50   2.0000      -0.489961       -13.3325
  51   2.0000      -0.474494       -12.9116
  52   2.0000      -0.470489       -12.8027
  53   2.0000      -0.469858       -12.7855
  54   2.0000      -0.456623       -12.4253
  55   2.0000      -0.454476       -12.3669
  56   2.0000      -0.443986       -12.0815
  57   2.0000      -0.437448       -11.9036
  58   2.0000      -0.434718       -11.8293
  59   2.0000      -0.429359       -11.6834
  60   2.0000      -0.423964       -11.5367
  61   2.0000      -0.417623       -11.3641
  62   2.0000      -0.409078       -11.1316
  63   2.0000      -0.346512        -9.4291
  64   2.0000      -0.332765        -9.0550
  65   2.0000      -0.330019        -8.9803
  66   2.0000      -0.291353        -7.9281
  67   0.0000       0.028500         0.7755
  68   0.0000       0.066831         1.8186
  69   0.0000       0.103742         2.8230
  70   0.0000       0.121376         3.3028
  71   0.0000       0.129134         3.5139

MULLIKEN ATOMIC CHARGES
-----------------------
   0 S :    0.102891
   1 C :   -0.092764
   2 C :   -0.106181
   3 C :    0.012956
   4 C :   -0.157451
   5 H :    0.013218
   6 C :    0.049617
   7 H :    0.052115
   8 H :    0.018008
   9 C :   -0.022624
  10 H :    0.031953
  11 H :    0.017733
  12 C :   -0.067993
  13 H :    0.046535
  14 H :    0.033052
  15 H :    0.021361
  16 S :    0.108414
  17 C :   -0.095012
  18 C :    0.006016
  19 C :   -0.048178
  20 C :   -0.141846
  21 H :   -0.018862
  22 C :    0.064468
  23 H :    0.048856
  24 H :   -0.004249
  25 C :   -0.058520
  26 H :    0.026623
  27 H :    0.031643
  28 C :   -0.032244
  29 H :    0.028850
  30 H :    0.035999
  31 H :    0.015514
  32 H :    0.030381
  33 H :    0.049722
Sum of atomic charges:    0.0000000

LOEWDIN ATOMIC CHARGES
----------------------
   0 S :    0.413606
   1 C :   -0.184645
   2 C :   -0.063610
   3 C :   -0.069504
   4 C :   -0.204401
   5 H :    0.029947
   6 C :   -0.030163
   7 H :    0.044696
   8 H :    0.029272
   9 C :   -0.038900
  10 H :    0.030153
  11 H :    0.016090
  12 C :   -0.069336
  13 H :    0.032498
  14 H :    0.025685
  15 H :    0.023094
  16 S :    0.398548
  17 C :   -0.176153
  18 C :   -0.058703
  19 C :   -0.057005
  20 C :   -0.199071
  21 H :    0.014823
  22 C :   -0.030351
  23 H :    0.044876
  24 H :    0.012818
  25 C :   -0.035334
  26 H :    0.022087
  27 H :    0.026702
  28 C :   -0.070860
  29 H :    0.024840
  30 H :    0.033515
  31 H :    0.021521
  32 H :    0.015773
  33 H :    0.027491

  Mayer bond orders larger than 0.100000
B(  0-S ,  1-C ) :   1.1641 B(  0-S ,  4-C ) :   1.1512 B(  1-C ,  2-C ) :   1.5906
B(  1-C , 32-H ) :   0.9679 B(  2-C ,  3-C ) :   1.2644 B(  2-C ,  6-C ) :   1.0060
B(  3-C ,  4-C ) :   1.5790 B(  3-C ,  5-H ) :   0.9783 B(  4-C , 20-C ) :   1.0122
B(  6-C ,  7-H ) :   0.9432 B(  6-C ,  8-H ) :   0.9486 B(  6-C ,  9-C ) :   1.0447
B(  9-C , 10-H ) :   0.9550 B(  9-C , 11-H ) :   0.9607 B(  9-C , 12-C ) :   1.0786
B( 12-C , 13-H ) :   0.9720 B( 12-C , 14-H ) :   0.9760 B( 12-C , 15-H ) :   0.9734
B( 16-S , 17-C ) :   1.1441 B( 16-S , 20-C ) :   1.1529 B( 17-C , 18-C ) :   1.6159
B( 17-C , 33-H ) :   0.9707 B( 18-C , 19-C ) :   1.2379 B( 18-C , 21-H ) :   1.0055
B( 19-C , 20-C ) :   1.5807 B( 19-C , 22-C ) :   1.0439 B( 22-C , 23-H ) :   0.9469
B( 22-C , 24-H ) :   0.9241 B( 22-C , 25-C ) :   1.0393 B( 25-C , 26-H ) :   0.9526
B( 25-C , 27-H ) :   0.9634 B( 25-C , 28-C ) :   1.0866 B( 28-C , 29-H ) :   0.9741
B( 28-C , 30-H ) :   0.9704 B( 28-C , 31-H ) :   0.9702

Dispersion correction           -0.014185342
FINAL SINGLE POINT ENERGY     -1339.864734280432

DIPOLE MOMENT
-------------
                                X             Y             Z
Electronic contribution:     -0.20503      -2.74985      31.92274
Nuclear contribution   :      0.45335       2.88258     -32.57399
                        -----------------------------------------
Total Dipole Moment    :      0.24832       0.13274      -0.65125
                        -----------------------------------------
Magnitude (a.u.)       :      0.70951
Magnitude (Debye)      :      1.80343

Rotational constants in cm-1:     0.016602     0.009582     0.006454
Rotational constants in MHz :   497.701628   287.250631   193.494057

                             ****ORCA TERMINATED NORMALLY****
TOTAL RUN TIME: 0 days 0 hours 0 minutes 29 seconds 886 msec
