                         Program Version 4.2.1 -  RELEASE  -
|  1> ! wB97X-D3 SP def2-SVP
|  2> %pal
|  3> nprocs 16
|  4> end
|  5>
|  6> * xyz 0 1
|  7> S 	 -48.3917 	 64.3234 	 144.328
|  8> C 	 -47.2634 	 63.4064 	 143.457
|  9> C 	 -46.648 	 64.136 	 142.446
| 10> C 	 -47.0208 	 65.5264 	 142.561
| 11> C 	 -47.9299 	 65.8059 	 143.588
| 12> H 	 -46.7088 	 66.3082 	 141.9
| 13> C 	 -45.8522 	 63.5971 	 141.235
| 14> H 	 -46.0213 	 64.1176 	 140.339
| 15> H 	 -46.1256 	 62.6086 	 141.013
| 16> C 	 -44.3102 	 63.4545 	 141.353
| 17> H 	 -44.1113 	 62.9396 	 142.315
| 18> H 	 -43.955 	 62.8173 	 140.559
| 19> C 	 -43.5549 	 64.8189 	 141.392
| 20> H 	 -43.7307 	 65.4806 	 140.559
| 21> H 	 -43.9539 	 65.2522 	 142.279
| 22> H 	 -42.4745 	 64.814 	 141.596
| 23> S 	 -50.2642 	 67.081 	 143.767
| 24> C 	 -50.4553 	 68.6985 	 144.312
| 25> C 	 -49.1907 	 69.2279 	 144.284
| 26> C 	 -48.0841 	 68.3503 	 144.051
| 27> C 	 -48.5691 	 67.0866 	 143.826
| 28> H 	 -49.0584 	 70.2303 	 144.566
| 29> C 	 -46.6203 	 68.742 	 144.379
| 30> H 	 -45.9574 	 67.8792 	 144.623
| 31> H 	 -46.6376 	 69.4526 	 145.244
| 32> C 	 -45.992 	 69.4439 	 143.205
| 33> H 	 -46.2597 	 70.467 	 142.95
| 34> H 	 -46.3268 	 68.8751 	 142.389
| 35> C 	 -44.4324 	 69.6067 	 143.34
| 36> H 	 -44.0086 	 70.2857 	 142.593
| 37> H 	 -43.9944 	 68.6475 	 143.096
| 38> H 	 -44.0733 	 70.0363 	 144.299
| 39> H 	 -47.2264 	 62.3461 	 143.439
| 40> H 	 -51.4031 	 69.2088 	 144.45
| 41> *
| 42>
| 43>                          ****END OF INPUT****

CARTESIAN COORDINATES (ANGSTROEM)
---------------------------------
  S    -48.391700   64.323400  144.328000
  C    -47.263400   63.406400  143.457000
  C    -46.648000   64.136000  142.446000
  C    -47.020800   65.526400  142.561000
  C    -47.929900   65.805900  143.588000
  H    -46.708800   66.308200  141.900000
  C    -45.852200   63.597100  141.235000
  H    -46.021300   64.117600  140.339000
  H    -46.125600   62.608600  141.013000
  C    -44.310200   63.454500  141.353000
  H    -44.111300   62.939600  142.315000
  H    -43.955000   62.817300  140.559000
  C    -43.554900   64.818900  141.392000
  H    -43.730700   65.480600  140.559000
  H    -43.953900   65.252200  142.279000
  H    -42.474500   64.814000  141.596000
  S    -50.264200   67.081000  143.767000
  C    -50.455300   68.698500  144.312000
  C    -49.190700   69.227900  144.284000
  C    -48.084100   68.350300  144.051000
  C    -48.569100   67.086600  143.826000
  H    -49.058400   70.230300  144.566000
  C    -46.620300   68.742000  144.379000
  H    -45.957400   67.879200  144.623000
  H    -46.637600   69.452600  145.244000
  C    -45.992000   69.443900  143.205000
  H    -46.259700   70.467000  142.950000
  H    -46.326800   68.875100  142.389000
  C    -44.432400   69.606700  143.340000
  H    -44.008600   70.285700  142.593000
  H    -43.994400   68.647500  143.096000
  H    -44.073300   70.036300  144.299000
  H    -47.226400   62.346100  143.439000
  H    -51.403100   69.208800  144.450000

 Total Charge           Charge          ....    0
 Multiplicity           Mult            ....    1
 Number of Electrons    NEL             ....  134
 Basis Dimension        Dim             ....  322

ORBITAL ENERGIES
----------------

  NO   OCC          E(Eh)            E(eV)
   0   2.0000     -88.970673     -2421.0151
   1   2.0000     -88.959678     -2420.7159
   2   2.0000     -10.328252      -281.0460
   3   2.0000     -10.323204      -280.9087
   4   2.0000     -10.314072      -280.6602
   5   2.0000     -10.312229      -280.6100
   6   2.0000     -10.307466      -280.4804
   7   2.0000     -10.302183      -280.3366
   8   2.0000     -10.298768      -280.2437
   9   2.0000     -10.295819      -280.1635
  10   2.0000     -10.289671      -279.9962
  11   2.0000     -10.289481      -279.9910
  12   2.0000     -10.288461      -279.9632
  13   2.0000     -10.279657      -279.7237
  14   2.0000     -10.279289      -279.7137
  15   2.0000     -10.273127      -279.5460
  16   2.0000      -8.086515      -220.0453
  17   2.0000      -8.076426      -219.7707
  18   2.0000      -6.044889      -164.4898
  19   2.0000      -6.040716      -164.3762
  20   2.0000      -6.037484      -164.2883
  21   2.0000      -6.034777      -164.2146
  22   2.0000      -6.030517      -164.0987
  23   2.0000      -6.027333      -164.0121
  24   2.0000      -1.019221       -27.7344
  25   2.0000      -0.995439       -27.0873
  26   2.0000      -0.910087       -24.7647
  27   2.0000      -0.909290       -24.7430
  28   2.0000      -0.875107       -23.8129
  29   2.0000      -0.849705       -23.1216
  30   2.0000      -0.843901       -22.9637
  31   2.0000      -0.815920       -22.2023
  32   2.0000      -0.786826       -21.4106
  33   2.0000      -0.777204       -21.1488
  34   2.0000      -0.703912       -19.1544
  35   2.0000      -0.700827       -19.0705
  36   2.0000      -0.694958       -18.9108
  37   2.0000      -0.668182       -18.1822
  38   2.0000      -0.646209       -17.5842
  39   2.0000      -0.618826       -16.8391
  40   2.0000      -0.601503       -16.3677
  41   2.0000      -0.578431       -15.7399
  42   2.0000      -0.567897       -15.4533
  43   2.0000      -0.545713       -14.8496
  44   2.0000      -0.544590       -14.8190
  45   2.0000      -0.524692       -14.2776
  46   2.0000      -0.517216       -14.0742
  47   2.0000      -0.512179       -13.9371
  48   2.0000      -0.507817       -13.8184
  49   2.0000      -0.501893       -13.6572
  50   2.0000      -0.494754       -13.4629
  51   2.0000      -0.484174       -13.1750
  52   2.0000      -0.474756       -12.9188
  53   2.0000      -0.467288       -12.7156
  54   2.0000      -0.465294       -12.6613
  55   2.0000      -0.445042       -12.1102
  56   2.0000      -0.442537       -12.0420
  57   2.0000      -0.434925       -11.8349
  58   2.0000      -0.433786       -11.8039
  59   2.0000      -0.425840       -11.5877
  60   2.0000      -0.420899       -11.4532
  61   2.0000      -0.414403       -11.2765
  62   2.0000      -0.406283       -11.0555
  63   2.0000      -0.351064        -9.5530
  64   2.0000      -0.332290        -9.0421
  65   2.0000      -0.327112        -8.9012
  66   2.0000      -0.298653        -8.1268
  67   0.0000       0.031260         0.8506
  68   0.0000       0.074455         2.0260
  69   0.0000       0.113971         3.1013
  70   0.0000       0.120939         3.2909
  71   0.0000       0.134957         3.6724

MULLIKEN ATOMIC CHARGES
-----------------------
   0 S :    0.141086
   1 C :   -0.091866
   2 C :   -0.099279
   3 C :    0.036062
   4 C :   -0.156971
   5 H :    0.004414
   6 C :    0.104226
   7 H :    0.015546
   8 H :    0.004921
   9 C :   -0.084270
  10 H :    0.029195
  11 H :    0.029964
  12 C :   -0.053513
  13 H :    0.028041
  14 H :    0.020769
  15 H :    0.036468
  16 S :    0.101087
  17 C :   -0.091607
  18 C :   -0.023218
  19 C :   -0.020021
  20 C :   -0.172622
  21 H :   -0.004831
  22 C :    0.064618
  23 H :    0.044948
  24 H :    0.034424
  25 C :   -0.077745
  26 H :    0.025739
  27 H :    0.013447
  28 C :   -0.062003
  29 H :    0.027068
  30 H :    0.032082
  31 H :    0.040594
  32 H :    0.037762
  33 H :    0.065485
Sum of atomic charges:    0.0000000

LOEWDIN ATOMIC CHARGES
----------------------
   0 S :    0.454814
   1 C :   -0.209525
   2 C :   -0.061141
   3 C :   -0.055559
   4 C :   -0.216291
   5 H :    0.025177
   6 C :   -0.022165
   7 H :    0.025294
   8 H :    0.026062
   9 C :   -0.032764
  10 H :    0.026532
  11 H :    0.018104
  12 C :   -0.073562
  13 H :    0.019902
  14 H :    0.022561
  15 H :    0.028672
  16 S :    0.435915
  17 C :   -0.199410
  18 C :   -0.064453
  19 C :   -0.064672
  20 C :   -0.208912
  21 H :    0.018313
  22 C :   -0.024808
  23 H :    0.038898
  24 H :    0.033926
  25 C :   -0.044880
  26 H :    0.023269
  27 H :    0.014502
  28 C :   -0.070056
  29 H :    0.025261
  30 H :    0.021953
  31 H :    0.029588
  32 H :    0.023350
  33 H :    0.036107

  Mayer bond orders larger than 0.100000
B(  0-S ,  1-C ) :   1.1739 B(  0-S ,  4-C ) :   1.1709 B(  1-C ,  2-C ) :   1.5860
B(  1-C , 32-H ) :   0.9650 B(  2-C ,  3-C ) :   1.2707 B(  2-C ,  6-C ) :   1.0180
B(  3-C ,  4-C ) :   1.5333 B(  3-C ,  5-H ) :   0.9994 B(  4-C , 20-C ) :   1.0276
B(  6-C ,  7-H ) :   0.9471 B(  6-C ,  8-H ) :   0.9358 B(  6-C ,  9-C ) :   1.0721
B(  9-C , 10-H ) :   0.9583 B(  9-C , 11-H ) :   0.9600 B(  9-C , 12-C ) :   1.0658
B( 12-C , 13-H ) :   0.9786 B( 12-C , 14-H ) :   0.9750 B( 12-C , 15-H ) :   0.9755
B( 16-S , 17-C ) :   1.1481 B( 16-S , 20-C ) :   1.1864 B( 17-C , 18-C ) :   1.5879
B( 17-C , 33-H ) :   0.9755 B( 18-C , 19-C ) :   1.2567 B( 18-C , 21-H ) :   0.9903
B( 19-C , 20-C ) :   1.5711 B( 19-C , 22-C ) :   1.0405 B( 22-C , 23-H ) :   0.9451
B( 22-C , 24-H ) :   0.9391 B( 22-C , 25-C ) :   1.0434 B( 25-C , 26-H ) :   0.9578
B( 25-C , 27-H ) :   0.9603 B( 25-C , 28-C ) :   1.0748 B( 28-C , 29-H ) :   0.9771
B( 28-C , 30-H ) :   0.9770 B( 28-C , 31-H ) :   0.9738

Dispersion correction           -0.014356182
FINAL SINGLE POINT ENERGY     -1339.868461664873

DIPOLE MOMENT
-------------
                                X             Y             Z
Electronic contribution:    -29.02099      -6.74998      10.47216
Nuclear contribution   :     29.35710       6.90578     -10.76867
                        -----------------------------------------
Total Dipole Moment    :      0.33610       0.15580      -0.29651
                        -----------------------------------------
Magnitude (a.u.)       :      0.47451
Magnitude (Debye)      :      1.20611

Rotational constants in cm-1:     0.016918     0.009922     0.006740
Rotational constants in MHz :   507.180963   297.465043   202.061318

                             ****ORCA TERMINATED NORMALLY****
TOTAL RUN TIME: 0 days 0 hours 0 minutes 33 seconds 555 msec
