                         Program Version 4.2.1 -  RELEASE  -
|  1> ! wB97X-D3 SP def2-SVP
|  2> %pal
|  3> nprocs 16
|  4> end
|  5>
|  6> * xyz 0 1
|  7> S 	 -1.45721 	 45.6106 	 34.1629
|  8> C 	 -1.22561 	 44.8792 	 35.6996
|  9> C 	 0.0365821 	 45.1848 	 36.2484
| 10> C 	 0.794363 	 46.0145 	 35.3817
| 11> C 	 0.149472 	 46.3667 	 34.1925
| 12> H 	 1.77834 	 46.3239 	 35.6159
| 13> C 	 0.48886 	 44.8087 	 37.5778
| 14> H 	 -0.376348 	 44.8478 	 38.1798
| 15> H 	 1.05271 	 45.7002 	 37.8664
| 16> C 	 1.28085 	 43.5534 	 37.7045
| 17> H 	 0.69865 	 42.6879 	 37.2323
| 18> H 	 2.19002 	 43.6598 	 37.101
| 19> C 	 1.57154 	 43.2803 	 39.2103
| 20> H 	 1.98318 	 44.1832 	 39.6027
| 21> H 	 0.686631 	 43.0147 	 39.7603
| 22> H 	 2.37417 	 42.5489 	 39.257
| 23> S 	 0.502261 	 46.2495 	 31.3608
| 24> C 	 1.30116 	 47.6482 	 30.6594
| 25> C 	 1.56957 	 48.6366 	 31.5897
| 26> C 	 1.29232 	 48.3106 	 32.9527
| 27> C 	 0.657947 	 47.0672 	 33.0162
| 28> H 	 2.00602 	 49.5406 	 31.0533
| 29> C 	 1.3845 	 49.3421 	 34.0799
| 30> H 	 2.31738 	 49.8048 	 33.8895
| 31> H 	 1.60214 	 48.769 	 34.9844
| 32> C 	 0.256344 	 50.3658 	 34.1599
| 33> H 	 0.226829 	 50.9433 	 35.0937
| 34> H 	 -0.641526 	 49.8286 	 33.9454
| 35> C 	 0.33157 	 51.4892 	 33.0243
| 36> H 	 -0.321557 	 52.285 	 33.3442
| 37> H 	 -0.142078 	 51.1821 	 32.1325
| 38> H 	 1.3051 	 52.0442 	 32.7726
| 39> H 	 -1.95292 	 44.3475 	 36.2604
| 40> H 	 1.62116 	 47.661 	 29.6628
| 41> *
| 42>
| 43>                          ****END OF INPUT****

CARTESIAN COORDINATES (ANGSTROEM)
---------------------------------
  S     -1.457210   45.610600   34.162900
  C     -1.225610   44.879200   35.699600
  C      0.036582   45.184800   36.248400
  C      0.794363   46.014500   35.381700
  C      0.149472   46.366700   34.192500
  H      1.778340   46.323900   35.615900
  C      0.488860   44.808700   37.577800
  H     -0.376348   44.847800   38.179800
  H      1.052710   45.700200   37.866400
  C      1.280850   43.553400   37.704500
  H      0.698650   42.687900   37.232300
  H      2.190020   43.659800   37.101000
  C      1.571540   43.280300   39.210300
  H      1.983180   44.183200   39.602700
  H      0.686631   43.014700   39.760300
  H      2.374170   42.548900   39.257000
  S      0.502261   46.249500   31.360800
  C      1.301160   47.648200   30.659400
  C      1.569570   48.636600   31.589700
  C      1.292320   48.310600   32.952700
  C      0.657947   47.067200   33.016200
  H      2.006020   49.540600   31.053300
  C      1.384500   49.342100   34.079900
  H      2.317380   49.804800   33.889500
  H      1.602140   48.769000   34.984400
  C      0.256344   50.365800   34.159900
  H      0.226829   50.943300   35.093700
  H     -0.641526   49.828600   33.945400
  C      0.331570   51.489200   33.024300
  H     -0.321557   52.285000   33.344200
  H     -0.142078   51.182100   32.132500
  H      1.305100   52.044200   32.772600
  H     -1.952920   44.347500   36.260400
  H      1.621160   47.661000   29.662800

 Total Charge           Charge          ....    0
 Multiplicity           Mult            ....    1
 Number of Electrons    NEL             ....  134
 Basis Dimension        Dim             ....  322

ORBITAL ENERGIES
----------------

  NO   OCC          E(Eh)            E(eV)
   0   2.0000     -88.966514     -2420.9019
   1   2.0000     -88.965705     -2420.8799
   2   2.0000     -10.335625      -281.2467
   3   2.0000     -10.331164      -281.1253
   4   2.0000     -10.313482      -280.6441
   5   2.0000     -10.309111      -280.5252
   6   2.0000     -10.309093      -280.5247
   7   2.0000     -10.298017      -280.2233
   8   2.0000     -10.293898      -280.1112
   9   2.0000     -10.292422      -280.0710
  10   2.0000     -10.291430      -280.0441
  11   2.0000     -10.290743      -280.0253
  12   2.0000     -10.289708      -279.9972
  13   2.0000     -10.279110      -279.7088
  14   2.0000     -10.278779      -279.6998
  15   2.0000     -10.276779      -279.6454
  16   2.0000      -8.081103      -219.8980
  17   2.0000      -8.079003      -219.8408
  18   2.0000      -6.039524      -164.3438
  19   2.0000      -6.037562      -164.2904
  20   2.0000      -6.035542      -164.2354
  21   2.0000      -6.033869      -164.1899
  22   2.0000      -6.032066      -164.1409
  23   2.0000      -6.029635      -164.0747
  24   2.0000      -0.999403       -27.1951
  25   2.0000      -0.977437       -26.5974
  26   2.0000      -0.920869       -25.0581
  27   2.0000      -0.904813       -24.6212
  28   2.0000      -0.865204       -23.5434
  29   2.0000      -0.852764       -23.2049
  30   2.0000      -0.841586       -22.9007
  31   2.0000      -0.811971       -22.0949
  32   2.0000      -0.786885       -21.4122
  33   2.0000      -0.769926       -20.9507
  34   2.0000      -0.712002       -19.3746
  35   2.0000      -0.703605       -19.1461
  36   2.0000      -0.696693       -18.9580
  37   2.0000      -0.655065       -17.8252
  38   2.0000      -0.640160       -17.4196
  39   2.0000      -0.623044       -16.9539
  40   2.0000      -0.592177       -16.1139
  41   2.0000      -0.569316       -15.4919
  42   2.0000      -0.560989       -15.2653
  43   2.0000      -0.552422       -15.0322
  44   2.0000      -0.541580       -14.7372
  45   2.0000      -0.526932       -14.3386
  46   2.0000      -0.513501       -13.9731
  47   2.0000      -0.510835       -13.9005
  48   2.0000      -0.507820       -13.8185
  49   2.0000      -0.496749       -13.5172
  50   2.0000      -0.483550       -13.1581
  51   2.0000      -0.477632       -12.9970
  52   2.0000      -0.466323       -12.6893
  53   2.0000      -0.465482       -12.6664
  54   2.0000      -0.458636       -12.4801
  55   2.0000      -0.446817       -12.1585
  56   2.0000      -0.441641       -12.0177
  57   2.0000      -0.435761       -11.8577
  58   2.0000      -0.433906       -11.8072
  59   2.0000      -0.426663       -11.6101
  60   2.0000      -0.422578       -11.4989
  61   2.0000      -0.416731       -11.3398
  62   2.0000      -0.412246       -11.2178
  63   2.0000      -0.348533        -9.4841
  64   2.0000      -0.334639        -9.1060
  65   2.0000      -0.326623        -8.8879
  66   2.0000      -0.284032        -7.7289
  67   0.0000       0.026239         0.7140
  68   0.0000       0.061292         1.6678
  69   0.0000       0.106872         2.9081
  70   0.0000       0.121823         3.3150
  71   0.0000       0.134704         3.6655

MULLIKEN ATOMIC CHARGES
-----------------------
   0 S :    0.113007
   1 C :   -0.097552
   2 C :   -0.125905
   3 C :    0.056008
   4 C :   -0.167914
   5 H :   -0.003963
   6 C :    0.074718
   7 H :    0.004062
   8 H :    0.015912
   9 C :   -0.084574
  10 H :    0.038159
  11 H :    0.027890
  12 C :    0.000391
  13 H :    0.014996
  14 H :    0.037900
  15 H :    0.032906
  16 S :    0.095266
  17 C :   -0.090131
  18 C :   -0.062138
  19 C :   -0.063021
  20 C :   -0.147993
  21 H :    0.044071
  22 C :    0.137487
  23 H :    0.006281
  24 H :    0.011858
  25 C :   -0.028210
  26 H :    0.045651
  27 H :    0.037148
  28 C :   -0.089838
  29 H :    0.021420
  30 H :    0.029762
  31 H :    0.043088
  32 H :    0.032248
  33 H :    0.041009
Sum of atomic charges:   -0.0000000

LOEWDIN ATOMIC CHARGES
----------------------
   0 S :    0.414674
   1 C :   -0.206882
   2 C :   -0.062036
   3 C :   -0.057203
   4 C :   -0.188833
   5 H :    0.022467
   6 C :   -0.042730
   7 H :    0.025478
   8 H :    0.033821
   9 C :   -0.038626
  10 H :    0.030865
  11 H :    0.025464
  12 C :   -0.055980
  13 H :    0.020605
  14 H :    0.025353
  15 H :    0.026951
  16 S :    0.357345
  17 C :   -0.175374
  18 C :   -0.081183
  19 C :   -0.052533
  20 C :   -0.166374
  21 H :    0.046146
  22 C :   -0.029432
  23 H :    0.024980
  24 H :    0.030652
  25 C :   -0.024610
  26 H :    0.031194
  27 H :    0.029774
  28 C :   -0.077555
  29 H :    0.024455
  30 H :    0.017819
  31 H :    0.032201
  32 H :    0.021025
  33 H :    0.018085

  Mayer bond orders larger than 0.100000
B(  0-S ,  1-C ) :   1.1519 B(  0-S ,  4-C ) :   1.1565 B(  1-C ,  2-C ) :   1.5697
B(  1-C ,  4-C ) :   0.1022 B(  1-C , 32-H ) :   0.9703 B(  2-C ,  3-C ) :   1.2877
B(  2-C ,  6-C ) :   1.0207 B(  3-C ,  4-C ) :   1.5355 B(  3-C ,  5-H ) :   0.9922
B(  4-C , 20-C ) :   1.0596 B(  6-C ,  7-H ) :   0.9325 B(  6-C ,  8-H ) :   0.9299
B(  6-C ,  9-C ) :   1.0672 B(  9-C , 10-H ) :   0.9551 B(  9-C , 11-H ) :   0.9519
B(  9-C , 12-C ) :   1.0727 B( 12-C , 13-H ) :   0.9719 B( 12-C , 14-H ) :   0.9767
B( 12-C , 15-H ) :   0.9752 B( 16-S , 17-C ) :   1.1337 B( 16-S , 20-C ) :   1.1222
B( 17-C , 18-C ) :   1.6524 B( 17-C , 20-C ) :   0.1015 B( 17-C , 33-H ) :   0.9703
B( 18-C , 19-C ) :   1.2017 B( 18-C , 21-H ) :   0.9759 B( 19-C , 20-C ) :   1.6077
B( 19-C , 22-C ) :   1.0426 B( 22-C , 23-H ) :   0.9257 B( 22-C , 24-H ) :   0.9237
B( 22-C , 25-C ) :   1.0561 B( 25-C , 26-H ) :   0.9632 B( 25-C , 27-H ) :   0.9552
B( 25-C , 28-C ) :   1.0706 B( 28-C , 29-H ) :   0.9737 B( 28-C , 30-H ) :   0.9757
B( 28-C , 31-H ) :   0.9767

Dispersion correction           -0.014046677
FINAL SINGLE POINT ENERGY     -1339.864935384396

DIPOLE MOMENT
-------------
                                X             Y             Z
Electronic contribution:     -8.09559      -8.11170     -19.70202
Nuclear contribution   :      8.38442       8.45782      20.15855
                        -----------------------------------------
Total Dipole Moment    :      0.28882       0.34611       0.45653
                        -----------------------------------------
Magnitude (a.u.)       :      0.64159
Magnitude (Debye)      :      1.63079

Rotational constants in cm-1:     0.021533     0.007196     0.006354
Rotational constants in MHz :   645.544065   215.738779   190.476538

                             ****ORCA TERMINATED NORMALLY****
TOTAL RUN TIME: 0 days 0 hours 0 minutes 33 seconds 390 msec
