                         Program Version 4.2.1 -  RELEASE  -
|  1> ! wB97X-D3 SP def2-SVP
|  2> %pal
|  3> nprocs 16
|  4> end
|  5>
|  6> * xyz 0 1
|  7> S 	 -22.3068 	 2.62089 	 75.7578
|  8> C 	 -22.1794 	 0.834164 	 75.91
|  9> C 	 -23.3612 	 0.31755 	 76.4018
| 10> C 	 -24.3184 	 1.35729 	 76.6967
| 11> C 	 -23.8905 	 2.66116 	 76.4689
| 12> H 	 -25.3146 	 1.28309 	 77.2024
| 13> C 	 -23.6313 	 -1.10906 	 76.8684
| 14> H 	 -23.9499 	 -1.03334 	 77.8576
| 15> H 	 -22.6508 	 -1.68589 	 76.866
| 16> C 	 -24.6716 	 -1.98769 	 76.0874
| 17> H 	 -24.566 	 -2.06518 	 75.0804
| 18> H 	 -24.3978 	 -3.02133 	 76.4768
| 19> C 	 -26.1504 	 -1.5246 	 76.3908
| 20> H 	 -26.9291 	 -2.30992 	 76.1031
| 21> H 	 -26.2955 	 -1.28719 	 77.4322
| 22> H 	 -26.254 	 -0.63656 	 75.8015
| 23> S 	 -23.139 	 4.9659 	 77.8003
| 24> C 	 -24.2882 	 6.03232 	 78.4834
| 25> C 	 -25.5953 	 5.61779 	 78.1652
| 26> C 	 -25.6085 	 4.31651 	 77.485
| 27> C 	 -24.3503 	 3.77793 	 77.2536
| 28> H 	 -26.4085 	 6.28363 	 78.2978
| 29> C 	 -26.8898 	 3.8087 	 76.9754
| 30> H 	 -26.6724 	 3.13736 	 76.1372
| 31> H 	 -27.4361 	 4.66203 	 76.5033
| 32> C 	 -27.8701 	 3.14534 	 77.9371
| 33> H 	 -28.1274 	 3.76603 	 78.8173
| 34> H 	 -27.5037 	 2.19703 	 78.3108
| 35> C 	 -29.1347 	 2.62112 	 77.1892
| 36> H 	 -29.7608 	 2.14764 	 77.9253
| 37> H 	 -28.7788 	 1.93953 	 76.4033
| 38> H 	 -29.6702 	 3.45887 	 76.5948
| 39> H 	 -21.3524 	 0.188588 	 75.5896
| 40> H 	 -24.0255 	 7.03991 	 78.9396
| 41> *
| 42>
| 43>                          ****END OF INPUT****

CARTESIAN COORDINATES (ANGSTROEM)
---------------------------------
  S    -22.306800    2.620890   75.757800
  C    -22.179400    0.834164   75.910000
  C    -23.361200    0.317550   76.401800
  C    -24.318400    1.357290   76.696700
  C    -23.890500    2.661160   76.468900
  H    -25.314600    1.283090   77.202400
  C    -23.631300   -1.109060   76.868400
  H    -23.949900   -1.033340   77.857600
  H    -22.650800   -1.685890   76.866000
  C    -24.671600   -1.987690   76.087400
  H    -24.566000   -2.065180   75.080400
  H    -24.397800   -3.021330   76.476800
  C    -26.150400   -1.524600   76.390800
  H    -26.929100   -2.309920   76.103100
  H    -26.295500   -1.287190   77.432200
  H    -26.254000   -0.636560   75.801500
  S    -23.139000    4.965900   77.800300
  C    -24.288200    6.032320   78.483400
  C    -25.595300    5.617790   78.165200
  C    -25.608500    4.316510   77.485000
  C    -24.350300    3.777930   77.253600
  H    -26.408500    6.283630   78.297800
  C    -26.889800    3.808700   76.975400
  H    -26.672400    3.137360   76.137200
  H    -27.436100    4.662030   76.503300
  C    -27.870100    3.145340   77.937100
  H    -28.127400    3.766030   78.817300
  H    -27.503700    2.197030   78.310800
  C    -29.134700    2.621120   77.189200
  H    -29.760800    2.147640   77.925300
  H    -28.778800    1.939530   76.403300
  H    -29.670200    3.458870   76.594800
  H    -21.352400    0.188588   75.589600
  H    -24.025500    7.039910   78.939600

 Total Charge           Charge          ....    0
 Multiplicity           Mult            ....    1
 Number of Electrons    NEL             ....  134
 Basis Dimension        Dim             ....  322

ORBITAL ENERGIES
----------------

  NO   OCC          E(Eh)            E(eV)
   0   2.0000     -88.968856     -2420.9656
   1   2.0000     -88.963268     -2420.8136
   2   2.0000     -10.330799      -281.1153
   3   2.0000     -10.330551      -281.1086
   4   2.0000     -10.323370      -280.9132
   5   2.0000     -10.322184      -280.8809
   6   2.0000     -10.307942      -280.4934
   7   2.0000     -10.303728      -280.3787
   8   2.0000     -10.300985      -280.3040
   9   2.0000     -10.298634      -280.2401
  10   2.0000     -10.295692      -280.1600
  11   2.0000     -10.291363      -280.0422
  12   2.0000     -10.290523      -280.0194
  13   2.0000     -10.289061      -279.9796
  14   2.0000     -10.286382      -279.9067
  15   2.0000     -10.285173      -279.8738
  16   2.0000      -8.082997      -219.9495
  17   2.0000      -8.078221      -219.8196
  18   2.0000      -6.041734      -164.4039
  19   2.0000      -6.037554      -164.2902
  20   2.0000      -6.036827      -164.2704
  21   2.0000      -6.033542      -164.1810
  22   2.0000      -6.032601      -164.1554
  23   2.0000      -6.028922      -164.0553
  24   2.0000      -1.007340       -27.4111
  25   2.0000      -0.980957       -26.6932
  26   2.0000      -0.912331       -24.8258
  27   2.0000      -0.909221       -24.7412
  28   2.0000      -0.871164       -23.7056
  29   2.0000      -0.852656       -23.2020
  30   2.0000      -0.839634       -22.8476
  31   2.0000      -0.812164       -22.1001
  32   2.0000      -0.782030       -21.2801
  33   2.0000      -0.771334       -20.9891
  34   2.0000      -0.709837       -19.3156
  35   2.0000      -0.703834       -19.1523
  36   2.0000      -0.692274       -18.8377
  37   2.0000      -0.663977       -18.0677
  38   2.0000      -0.638166       -17.3654
  39   2.0000      -0.614063       -16.7095
  40   2.0000      -0.595674       -16.2091
  41   2.0000      -0.574688       -15.6381
  42   2.0000      -0.564392       -15.3579
  43   2.0000      -0.540766       -14.7150
  44   2.0000      -0.534384       -14.5413
  45   2.0000      -0.531634       -14.4665
  46   2.0000      -0.522865       -14.2279
  47   2.0000      -0.513644       -13.9770
  48   2.0000      -0.506787       -13.7904
  49   2.0000      -0.502369       -13.6701
  50   2.0000      -0.488092       -13.2817
  51   2.0000      -0.485462       -13.2101
  52   2.0000      -0.468616       -12.7517
  53   2.0000      -0.464555       -12.6412
  54   2.0000      -0.456182       -12.4134
  55   2.0000      -0.451678       -12.2908
  56   2.0000      -0.446347       -12.1457
  57   2.0000      -0.441725       -12.0199
  58   2.0000      -0.428749       -11.6669
  59   2.0000      -0.424734       -11.5576
  60   2.0000      -0.419465       -11.4142
  61   2.0000      -0.414489       -11.2788
  62   2.0000      -0.408156       -11.1065
  63   2.0000      -0.359833        -9.7916
  64   2.0000      -0.331629        -9.0241
  65   2.0000      -0.324117        -8.8197
  66   2.0000      -0.285256        -7.7622
  67   0.0000       0.018812         0.5119
  68   0.0000       0.071081         1.9342
  69   0.0000       0.110869         3.0169
  70   0.0000       0.115015         3.1297
  71   0.0000       0.119497         3.2517

MULLIKEN ATOMIC CHARGES
-----------------------
   0 S :    0.090210
   1 C :   -0.134536
   2 C :   -0.053695
   3 C :   -0.018375
   4 C :   -0.119439
   5 H :    0.028682
   6 C :    0.036910
   7 H :    0.027541
   8 H :    0.030528
   9 C :   -0.047515
  10 H :    0.013921
  11 H :    0.033731
  12 C :   -0.077827
  13 H :    0.052992
  14 H :    0.028934
  15 H :    0.043220
  16 S :    0.095142
  17 C :   -0.121323
  18 C :   -0.016905
  19 C :   -0.039917
  20 C :   -0.112661
  21 H :    0.012643
  22 C :    0.014286
  23 H :    0.019045
  24 H :    0.030574
  25 C :   -0.064264
  26 H :    0.037706
  27 H :    0.020970
  28 C :   -0.072026
  29 H :    0.044791
  30 H :    0.033192
  31 H :    0.036713
  32 H :    0.059063
  33 H :    0.087689
Sum of atomic charges:   -0.0000000

LOEWDIN ATOMIC CHARGES
----------------------
   0 S :    0.391056
   1 C :   -0.183805
   2 C :   -0.065235
   3 C :   -0.064641
   4 C :   -0.202326
   5 H :    0.035988
   6 C :   -0.025928
   7 H :    0.025583
   8 H :    0.036687
   9 C :   -0.028619
  10 H :    0.008820
  11 H :    0.030197
  12 C :   -0.068587
  13 H :    0.036691
  14 H :    0.018516
  15 H :    0.023738
  16 S :    0.407310
  17 C :   -0.209367
  18 C :   -0.069401
  19 C :   -0.059490
  20 C :   -0.184958
  21 H :    0.024756
  22 C :   -0.044348
  23 H :    0.028686
  24 H :    0.038363
  25 C :   -0.040688
  26 H :    0.025767
  27 H :    0.019855
  28 C :   -0.066939
  29 H :    0.024822
  30 H :    0.025419
  31 H :    0.028756
  32 H :    0.036745
  33 H :    0.046576

  Mayer bond orders larger than 0.100000
B(  0-S ,  1-C ) :   1.1200 B(  0-S ,  4-C ) :   1.1394 B(  1-C ,  2-C ) :   1.6223
B(  1-C , 32-H ) :   0.9643 B(  2-C ,  3-C ) :   1.2370 B(  2-C ,  6-C ) :   1.0177
B(  3-C ,  4-C ) :   1.5576 B(  3-C ,  5-H ) :   0.9775 B(  4-C , 20-C ) :   1.0743
B(  6-C ,  7-H ) :   0.9449 B(  6-C ,  8-H ) :   0.9476 B(  6-C ,  9-C ) :   1.0610
B(  9-C , 10-H ) :   0.9627 B(  9-C , 11-H ) :   0.9597 B(  9-C , 12-C ) :   1.0635
B( 12-C , 13-H ) :   0.9732 B( 12-C , 14-H ) :   0.9782 B( 12-C , 15-H ) :   0.9739
B( 16-S , 17-C ) :   1.1728 B( 16-S , 20-C ) :   1.1150 B( 17-C , 18-C ) :   1.5854
B( 17-C , 33-H ) :   0.9581 B( 18-C , 19-C ) :   1.2413 B( 18-C , 21-H ) :   0.9976
B( 19-C , 20-C ) :   1.5784 B( 19-C , 22-C ) :   1.0646 B( 22-C , 23-H ) :   0.9290
B( 22-C , 24-H ) :   0.9318 B( 22-C , 25-C ) :   1.0694 B( 25-C , 26-H ) :   0.9549
B( 25-C , 27-H ) :   0.9511 B( 25-C , 28-C ) :   1.0712 B( 28-C , 29-H ) :   0.9755
B( 28-C , 30-H ) :   0.9750 B( 28-C , 31-H ) :   0.9747

Dispersion correction           -0.014352238
FINAL SINGLE POINT ENERGY     -1339.859754607063

DIPOLE MOMENT
-------------
                                X             Y             Z
Electronic contribution:     25.41547      19.33591      -0.89699
Nuclear contribution   :    -25.86860     -19.72938       1.00741
                        -----------------------------------------
Total Dipole Moment    :     -0.45313      -0.39347       0.11042
                        -----------------------------------------
Magnitude (a.u.)       :      0.61020
Magnitude (Debye)      :      1.55099

Rotational constants in cm-1:     0.015954     0.010517     0.006716
Rotational constants in MHz :   478.280315   315.296335   201.351287

                             ****ORCA TERMINATED NORMALLY****
TOTAL RUN TIME: 0 days 0 hours 0 minutes 32 seconds 463 msec
