                         Program Version 4.2.1 -  RELEASE  -
|  1> ! wB97X-D3 SP def2-SVP
|  2> %pal
|  3> nprocs 16
|  4> end
|  5>
|  6> * xyz 0 1
|  7> S 	 -43.3619 	 26.4349 	 87.5613
|  8> C 	 -44.9056 	 26.2731 	 88.341
|  9> C 	 -45.561 	 25.1121 	 88.0396
| 10> C 	 -44.9167 	 24.2682 	 87.1358
| 11> C 	 -43.6639 	 24.858 	 86.8228
| 12> H 	 -45.2699 	 23.3554 	 86.7369
| 13> C 	 -46.8846 	 24.7269 	 88.653
| 14> H 	 -47.7519 	 24.8551 	 88.0205
| 15> H 	 -47.09 	 25.4062 	 89.4684
| 16> C 	 -47.0438 	 23.1998 	 89.2184
| 17> H 	 -48.1002 	 23.0788 	 89.6194
| 18> H 	 -47.0722 	 22.5517 	 88.3228
| 19> C 	 -45.9348 	 22.6514 	 90.1728
| 20> H 	 -44.9947 	 22.6357 	 89.6778
| 21> H 	 -45.653 	 23.1687 	 91.0812
| 22> H 	 -46.0702 	 21.6185 	 90.473
| 23> S 	 -42.3216 	 25.5966 	 84.4859
| 24> C 	 -41.4169 	 24.4416 	 83.6171
| 25> C 	 -41.5543 	 23.2454 	 84.1657
| 26> C 	 -42.3547 	 23.1873 	 85.3739
| 27> C 	 -42.8379 	 24.3843 	 85.7201
| 28> H 	 -41.1274 	 22.4137 	 83.6566
| 29> C 	 -42.6019 	 21.8573 	 86.1069
| 30> H 	 -43.473 	 21.4548 	 85.6715
| 31> H 	 -42.8785 	 22.0559 	 87.1738
| 32> C 	 -41.4291 	 20.8222 	 86.197
| 33> H 	 -40.5576 	 21.1663 	 86.8027
| 34> H 	 -41.0881 	 20.525 	 85.2126
| 35> C 	 -41.6766 	 19.5372 	 87.018
| 36> H 	 -40.7271 	 19.0626 	 87.1819
| 37> H 	 -42.3336 	 18.7919 	 86.5847
| 38> H 	 -42.0817 	 19.8248 	 88.0221
| 39> H 	 -45.2281 	 26.9899 	 89.0636
| 40> H 	 -40.8844 	 24.4917 	 82.671
| 41> *
| 42>
| 43>                          ****END OF INPUT****

CARTESIAN COORDINATES (ANGSTROEM)
---------------------------------
  S    -43.361900   26.434900   87.561300
  C    -44.905600   26.273100   88.341000
  C    -45.561000   25.112100   88.039600
  C    -44.916700   24.268200   87.135800
  C    -43.663900   24.858000   86.822800
  H    -45.269900   23.355400   86.736900
  C    -46.884600   24.726900   88.653000
  H    -47.751900   24.855100   88.020500
  H    -47.090000   25.406200   89.468400
  C    -47.043800   23.199800   89.218400
  H    -48.100200   23.078800   89.619400
  H    -47.072200   22.551700   88.322800
  C    -45.934800   22.651400   90.172800
  H    -44.994700   22.635700   89.677800
  H    -45.653000   23.168700   91.081200
  H    -46.070200   21.618500   90.473000
  S    -42.321600   25.596600   84.485900
  C    -41.416900   24.441600   83.617100
  C    -41.554300   23.245400   84.165700
  C    -42.354700   23.187300   85.373900
  C    -42.837900   24.384300   85.720100
  H    -41.127400   22.413700   83.656600
  C    -42.601900   21.857300   86.106900
  H    -43.473000   21.454800   85.671500
  H    -42.878500   22.055900   87.173800
  C    -41.429100   20.822200   86.197000
  H    -40.557600   21.166300   86.802700
  H    -41.088100   20.525000   85.212600
  C    -41.676600   19.537200   87.018000
  H    -40.727100   19.062600   87.181900
  H    -42.333600   18.791900   86.584700
  H    -42.081700   19.824800   88.022100
  H    -45.228100   26.989900   89.063600
  H    -40.884400   24.491700   82.671000

 Total Charge           Charge          ....    0
 Multiplicity           Mult            ....    1
 Number of Electrons    NEL             ....  134
 Basis Dimension        Dim             ....  322

ORBITAL ENERGIES
----------------

  NO   OCC          E(Eh)            E(eV)
   0   2.0000     -88.974152     -2421.1098
   1   2.0000     -88.956267     -2420.6231
   2   2.0000     -10.334633      -281.2197
   3   2.0000     -10.321811      -280.8707
   4   2.0000     -10.310702      -280.5685
   5   2.0000     -10.305375      -280.4235
   6   2.0000     -10.304891      -280.4103
   7   2.0000     -10.298365      -280.2328
   8   2.0000     -10.298167      -280.2274
   9   2.0000     -10.296734      -280.1884
  10   2.0000     -10.295787      -280.1626
  11   2.0000     -10.294534      -280.1285
  12   2.0000     -10.291991      -280.0593
  13   2.0000     -10.280592      -279.7491
  14   2.0000     -10.280131      -279.7366
  15   2.0000     -10.274915      -279.5947
  16   2.0000      -8.088601      -220.1020
  17   2.0000      -8.071473      -219.6359
  18   2.0000      -6.046884      -164.5441
  19   2.0000      -6.043328      -164.4473
  20   2.0000      -6.039443      -164.3416
  21   2.0000      -6.030158      -164.0889
  22   2.0000      -6.026012      -163.9761
  23   2.0000      -6.021887      -163.8639
  24   2.0000      -1.009605       -27.4728
  25   2.0000      -0.989086       -26.9144
  26   2.0000      -0.902743       -24.5649
  27   2.0000      -0.900531       -24.5047
  28   2.0000      -0.871967       -23.7274
  29   2.0000      -0.852477       -23.1971
  30   2.0000      -0.845107       -22.9965
  31   2.0000      -0.817656       -22.2496
  32   2.0000      -0.785071       -21.3629
  33   2.0000      -0.775640       -21.1062
  34   2.0000      -0.712927       -19.3997
  35   2.0000      -0.697515       -18.9803
  36   2.0000      -0.696671       -18.9574
  37   2.0000      -0.656060       -17.8523
  38   2.0000      -0.642106       -17.4726
  39   2.0000      -0.624281       -16.9876
  40   2.0000      -0.594345       -16.1729
  41   2.0000      -0.566454       -15.4140
  42   2.0000      -0.565179       -15.3793
  43   2.0000      -0.540770       -14.7151
  44   2.0000      -0.532907       -14.5011
  45   2.0000      -0.528076       -14.3697
  46   2.0000      -0.516840       -14.0639
  47   2.0000      -0.513482       -13.9726
  48   2.0000      -0.504167       -13.7191
  49   2.0000      -0.498692       -13.5701
  50   2.0000      -0.493794       -13.4368
  51   2.0000      -0.479310       -13.0427
  52   2.0000      -0.469464       -12.7748
  53   2.0000      -0.462825       -12.5941
  54   2.0000      -0.459438       -12.5019
  55   2.0000      -0.455788       -12.4026
  56   2.0000      -0.450374       -12.2553
  57   2.0000      -0.441007       -12.0004
  58   2.0000      -0.424938       -11.5631
  59   2.0000      -0.422725       -11.5029
  60   2.0000      -0.420602       -11.4452
  61   2.0000      -0.416159       -11.3243
  62   2.0000      -0.407988       -11.1019
  63   2.0000      -0.354688        -9.6515
  64   2.0000      -0.338044        -9.1986
  65   2.0000      -0.325077        -8.8458
  66   2.0000      -0.290867        -7.9149
  67   0.0000       0.028741         0.7821
  68   0.0000       0.077629         2.1124
  69   0.0000       0.109646         2.9836
  70   0.0000       0.124019         3.3747
  71   0.0000       0.129980         3.5369

MULLIKEN ATOMIC CHARGES
-----------------------
   0 S :    0.129139
   1 C :   -0.122841
   2 C :   -0.044020
   3 C :    0.031092
   4 C :   -0.157761
   5 H :    0.006738
   6 C :    0.075976
   7 H :    0.037130
   8 H :    0.011322
   9 C :   -0.118379
  10 H :    0.041643
  11 H :    0.030081
  12 C :   -0.025271
  13 H :    0.015803
  14 H :    0.027848
  15 H :    0.027979
  16 S :    0.081195
  17 C :   -0.058695
  18 C :   -0.047575
  19 C :   -0.024575
  20 C :   -0.151440
  21 H :    0.000207
  22 C :    0.076274
  23 H :    0.030344
  24 H :    0.027784
  25 C :   -0.094172
  26 H :    0.042689
  27 H :    0.029165
  28 C :   -0.061075
  29 H :    0.031848
  30 H :    0.031049
  31 H :    0.029925
  32 H :    0.038870
  33 H :    0.051705
Sum of atomic charges:   -0.0000000

LOEWDIN ATOMIC CHARGES
----------------------
   0 S :    0.417802
   1 C :   -0.195494
   2 C :   -0.067738
   3 C :   -0.041421
   4 C :   -0.178435
   5 H :    0.028861
   6 C :   -0.029334
   7 H :    0.032373
   8 H :    0.024817
   9 C :   -0.042221
  10 H :    0.031012
  11 H :    0.021916
  12 C :   -0.075277
  13 H :    0.022344
  14 H :    0.025935
  15 H :    0.027824
  16 S :    0.378085
  17 C :   -0.195842
  18 C :   -0.076750
  19 C :   -0.060781
  20 C :   -0.178599
  21 H :    0.023685
  22 C :   -0.030399
  23 H :    0.025477
  24 H :    0.034354
  25 C :   -0.042585
  26 H :    0.035928
  27 H :    0.017253
  28 C :   -0.065142
  29 H :    0.025304
  30 H :    0.017968
  31 H :    0.027327
  32 H :    0.021993
  33 H :    0.039762

  Mayer bond orders larger than 0.100000
B(  0-S ,  1-C ) :   1.1327 B(  0-S ,  4-C ) :   1.1736 B(  1-C ,  2-C ) :   1.6051
B(  1-C , 32-H ) :   0.9663 B(  2-C ,  3-C ) :   1.2528 B(  2-C ,  6-C ) :   1.0246
B(  3-C ,  4-C ) :   1.5210 B(  3-C ,  5-H ) :   1.0034 B(  4-C , 20-C ) :   1.0489
B(  6-C ,  7-H ) :   0.9390 B(  6-C ,  8-H ) :   0.9427 B(  6-C ,  9-C ) :   1.0582
B(  9-C , 10-H ) :   0.9608 B(  9-C , 11-H ) :   0.9550 B(  9-C , 12-C ) :   1.0620
B( 12-C , 13-H ) :   0.9694 B( 12-C , 14-H ) :   0.9778 B( 12-C , 15-H ) :   0.9744
B( 16-S , 17-C ) :   1.1254 B( 16-S , 20-C ) :   1.1005 B( 17-C , 18-C ) :   1.6814
B( 17-C , 33-H ) :   0.9571 B( 18-C , 19-C ) :   1.1915 B( 18-C , 21-H ) :   0.9921
B( 19-C , 20-C ) :   1.6816 B( 19-C , 22-C ) :   1.0309 B( 22-C , 23-H ) :   0.9327
B( 22-C , 24-H ) :   0.9344 B( 22-C , 25-C ) :   1.0609 B( 25-C , 26-H ) :   0.9634
B( 25-C , 27-H ) :   0.9526 B( 25-C , 28-C ) :   1.0811 B( 28-C , 29-H ) :   0.9776
B( 28-C , 30-H ) :   0.9758 B( 28-C , 31-H ) :   0.9735

Dispersion correction           -0.014132603
FINAL SINGLE POINT ENERGY     -1339.868439830088

DIPOLE MOMENT
-------------
                                X             Y             Z
Electronic contribution:      7.73779      27.02005     -13.49016
Nuclear contribution   :     -7.98803     -27.65501      13.62586
                        -----------------------------------------
Total Dipole Moment    :     -0.25024      -0.63497       0.13570
                        -----------------------------------------
Magnitude (a.u.)       :      0.69586
Magnitude (Debye)      :      1.76873

Rotational constants in cm-1:     0.015700     0.010017     0.006690
Rotational constants in MHz :   470.682253   300.312003   200.548270

                             ****ORCA TERMINATED NORMALLY****
TOTAL RUN TIME: 0 days 0 hours 0 minutes 29 seconds 895 msec
