                         Program Version 4.2.1 -  RELEASE  -
|  1> ! wB97X-D3 SP def2-SVP
|  2> %pal
|  3> nprocs 16
|  4> end
|  5>
|  6> * xyz 0 1
|  7> S 	 -7.75991 	 7.63054 	 84.7518
|  8> C 	 -7.643 	 6.49466 	 86.0367
|  9> C 	 -8.77459 	 6.51086 	 86.8536
| 10> C 	 -9.74672 	 7.39144 	 86.3079
| 11> C 	 -9.34039 	 8.03971 	 85.1963
| 12> H 	 -10.727 	 7.52894 	 86.6997
| 13> C 	 -9.12593 	 5.54151 	 87.9639
| 14> H 	 -10.1433 	 5.29156 	 87.82
| 15> H 	 -9.14848 	 6.10335 	 88.9037
| 16> C 	 -8.38306 	 4.17234 	 87.9309
| 17> H 	 -8.27577 	 3.77975 	 86.9555
| 18> H 	 -7.3582 	 4.35424 	 88.2259
| 19> C 	 -9.01665 	 3.03792 	 88.7995
| 20> H 	 -8.88909 	 3.26274 	 89.8618
| 21> H 	 -10.0993 	 2.94992 	 88.6351
| 22> H 	 -8.49185 	 2.12436 	 88.5173
| 23> S 	 -9.31533 	 10.6294 	 84.0546
| 24> C 	 -10.7545 	 11.1781 	 83.3127
| 25> C 	 -11.6928 	 10.1991 	 83.0547
| 26> C 	 -11.3137 	 8.9811 	 83.7401
| 27> C 	 -10.0879 	 9.006 	 84.3594
| 28> H 	 -12.6725 	 10.3622 	 82.5833
| 29> C 	 -12.3509 	 7.85427 	 83.7488
| 30> H 	 -13.2875 	 8.06867 	 84.3198
| 31> H 	 -11.8887 	 7.10386 	 84.3513
| 32> C 	 -12.6829 	 7.19959 	 82.36
| 33> H 	 -13.3747 	 7.78667 	 81.7479
| 34> H 	 -13.3027 	 6.28644 	 82.5982
| 35> C 	 -11.4637 	 6.72775 	 81.5962
| 36> H 	 -10.6814 	 7.48048 	 81.3269
| 37> H 	 -11.8227 	 6.12475 	 80.7566
| 38> H 	 -10.8146 	 6.11774 	 82.3032
| 39> H 	 -6.89374 	 5.66351 	 86.1965
| 40> H 	 -10.8836 	 12.127 	 82.9788
| 41> *
| 42>
| 43>                          ****END OF INPUT****

CARTESIAN COORDINATES (ANGSTROEM)
---------------------------------
  S     -7.759910    7.630540   84.751800
  C     -7.643000    6.494660   86.036700
  C     -8.774590    6.510860   86.853600
  C     -9.746720    7.391440   86.307900
  C     -9.340390    8.039710   85.196300
  H    -10.727000    7.528940   86.699700
  C     -9.125930    5.541510   87.963900
  H    -10.143300    5.291560   87.820000
  H     -9.148480    6.103350   88.903700
  C     -8.383060    4.172340   87.930900
  H     -8.275770    3.779750   86.955500
  H     -7.358200    4.354240   88.225900
  C     -9.016650    3.037920   88.799500
  H     -8.889090    3.262740   89.861800
  H    -10.099300    2.949920   88.635100
  H     -8.491850    2.124360   88.517300
  S     -9.315330   10.629400   84.054600
  C    -10.754500   11.178100   83.312700
  C    -11.692800   10.199100   83.054700
  C    -11.313700    8.981100   83.740100
  C    -10.087900    9.006000   84.359400
  H    -12.672500   10.362200   82.583300
  C    -12.350900    7.854270   83.748800
  H    -13.287500    8.068670   84.319800
  H    -11.888700    7.103860   84.351300
  C    -12.682900    7.199590   82.360000
  H    -13.374700    7.786670   81.747900
  H    -13.302700    6.286440   82.598200
  C    -11.463700    6.727750   81.596200
  H    -10.681400    7.480480   81.326900
  H    -11.822700    6.124750   80.756600
  H    -10.814600    6.117740   82.303200
  H     -6.893740    5.663510   86.196500
  H    -10.883600   12.127000   82.978800

 Total Charge           Charge          ....    0
 Multiplicity           Mult            ....    1
 Number of Electrons    NEL             ....  134
 Basis Dimension        Dim             ....  322

ORBITAL ENERGIES
----------------

  NO   OCC          E(Eh)            E(eV)
   0   2.0000     -88.966625     -2420.9049
   1   2.0000     -88.963553     -2420.8213
   2   2.0000     -10.331241      -281.1273
   3   2.0000     -10.323472      -280.9160
   4   2.0000     -10.313639      -280.6484
   5   2.0000     -10.309841      -280.5450
   6   2.0000     -10.304442      -280.3981
   7   2.0000     -10.299282      -280.2577
   8   2.0000     -10.293600      -280.1031
   9   2.0000     -10.292322      -280.0683
  10   2.0000     -10.292290      -280.0674
  11   2.0000     -10.292025      -280.0602
  12   2.0000     -10.288388      -279.9613
  13   2.0000     -10.286374      -279.9065
  14   2.0000     -10.284805      -279.8638
  15   2.0000     -10.279328      -279.7147
  16   2.0000      -8.082864      -219.9459
  17   2.0000      -8.078356      -219.8232
  18   2.0000      -6.041229      -164.3902
  19   2.0000      -6.037113      -164.2782
  20   2.0000      -6.036882      -164.2719
  21   2.0000      -6.033738      -164.1864
  22   2.0000      -6.032995      -164.1662
  23   2.0000      -6.028962      -164.0564
  24   2.0000      -1.013467       -27.5778
  25   2.0000      -0.986007       -26.8306
  26   2.0000      -0.911532       -24.8040
  27   2.0000      -0.903099       -24.5746
  28   2.0000      -0.865746       -23.5582
  29   2.0000      -0.855613       -23.2824
  30   2.0000      -0.843955       -22.9652
  31   2.0000      -0.813652       -22.1406
  32   2.0000      -0.783486       -21.3197
  33   2.0000      -0.772151       -21.0113
  34   2.0000      -0.715995       -19.4832
  35   2.0000      -0.698016       -18.9940
  36   2.0000      -0.691271       -18.8104
  37   2.0000      -0.660061       -17.9612
  38   2.0000      -0.639198       -17.3935
  39   2.0000      -0.617321       -16.7982
  40   2.0000      -0.595686       -16.2094
  41   2.0000      -0.568618       -15.4729
  42   2.0000      -0.565944       -15.4001
  43   2.0000      -0.549602       -14.9554
  44   2.0000      -0.535813       -14.5802
  45   2.0000      -0.531023       -14.4499
  46   2.0000      -0.513475       -13.9724
  47   2.0000      -0.509497       -13.8641
  48   2.0000      -0.505606       -13.7582
  49   2.0000      -0.497416       -13.5354
  50   2.0000      -0.491223       -13.3668
  51   2.0000      -0.479291       -13.0422
  52   2.0000      -0.471563       -12.8319
  53   2.0000      -0.464668       -12.6443
  54   2.0000      -0.456343       -12.4177
  55   2.0000      -0.450402       -12.2561
  56   2.0000      -0.442062       -12.0291
  57   2.0000      -0.438440       -11.9305
  58   2.0000      -0.434502       -11.8234
  59   2.0000      -0.429393       -11.6844
  60   2.0000      -0.423463       -11.5230
  61   2.0000      -0.417505       -11.3609
  62   2.0000      -0.401218       -10.9177
  63   2.0000      -0.347157        -9.4466
  64   2.0000      -0.332961        -9.0603
  65   2.0000      -0.328868        -8.9490
  66   2.0000      -0.294183        -8.0051
  67   0.0000       0.042464         1.1555
  68   0.0000       0.062925         1.7123
  69   0.0000       0.113021         3.0755
  70   0.0000       0.121072         3.2945
  71   0.0000       0.135507         3.6873

MULLIKEN ATOMIC CHARGES
-----------------------
   0 S :    0.129725
   1 C :   -0.139767
   2 C :   -0.112610
   3 C :    0.033848
   4 C :   -0.149459
   5 H :   -0.003402
   6 C :    0.097888
   7 H :    0.006932
   8 H :    0.042044
   9 C :   -0.104158
  10 H :    0.026013
  11 H :    0.029378
  12 C :   -0.047270
  13 H :    0.037029
  14 H :    0.036146
  15 H :    0.040736
  16 S :    0.095790
  17 C :   -0.036531
  18 C :   -0.029457
  19 C :   -0.056064
  20 C :   -0.152156
  21 H :    0.031956
  22 C :    0.063999
  23 H :    0.044873
  24 H :    0.000481
  25 C :   -0.087452
  26 H :    0.028998
  27 H :    0.034138
  28 C :   -0.071807
  29 H :    0.052524
  30 H :    0.045222
  31 H :    0.029068
  32 H :    0.065515
  33 H :    0.017831
Sum of atomic charges:    0.0000000

LOEWDIN ATOMIC CHARGES
----------------------
   0 S :    0.443497
   1 C :   -0.225885
   2 C :   -0.061041
   3 C :   -0.063231
   4 C :   -0.210751
   5 H :    0.026948
   6 C :   -0.030760
   7 H :    0.024585
   8 H :    0.038019
   9 C :   -0.039341
  10 H :    0.019245
  11 H :    0.020911
  12 C :   -0.060746
  13 H :    0.025756
  14 H :    0.025574
  15 H :    0.030061
  16 S :    0.384430
  17 C :   -0.167758
  18 C :   -0.071471
  19 C :   -0.054378
  20 C :   -0.181573
  21 H :    0.037357
  22 C :   -0.036847
  23 H :    0.036919
  24 H :    0.021439
  25 C :   -0.045645
  26 H :    0.017669
  27 H :    0.032593
  28 C :   -0.077796
  29 H :    0.032842
  30 H :    0.029042
  31 H :    0.032213
  32 H :    0.040934
  33 H :    0.007189

  Mayer bond orders larger than 0.100000
B(  0-S ,  1-C ) :   1.1425 B(  0-S ,  4-C ) :   1.1725 B(  1-C ,  2-C ) :   1.6220
B(  1-C , 32-H ) :   0.9520 B(  2-C ,  3-C ) :   1.2488 B(  2-C ,  6-C ) :   1.0105
B(  3-C ,  4-C ) :   1.5870 B(  3-C ,  5-H ) :   1.0050 B(  4-C , 20-C ) :   0.9933
B(  6-C ,  7-H ) :   0.9463 B(  6-C ,  8-H ) :   0.9261 B(  6-C ,  9-C ) :   1.0627
B(  9-C , 10-H ) :   0.9610 B(  9-C , 11-H ) :   0.9501 B(  9-C , 12-C ) :   1.0844
B( 12-C , 13-H ) :   0.9779 B( 12-C , 14-H ) :   0.9764 B( 12-C , 15-H ) :   0.9756
B( 16-S , 17-C ) :   1.1653 B( 16-S , 20-C ) :   1.1058 B( 17-C , 18-C ) :   1.6229
B( 17-C , 33-H ) :   0.9744 B( 18-C , 19-C ) :   1.2037 B( 18-C , 21-H ) :   0.9884
B( 19-C , 20-C ) :   1.6581 B( 19-C , 22-C ) :   1.0404 B( 22-C , 23-H ) :   0.9425
B( 22-C , 24-H ) :   0.9271 B( 22-C , 25-C ) :   1.0682 B( 25-C , 26-H ) :   0.9564
B( 25-C , 27-H ) :   0.9541 B( 25-C , 28-C ) :   1.0728 B( 28-C , 29-H ) :   0.9698
B( 28-C , 30-H ) :   0.9727 B( 28-C , 31-H ) :   0.9722

Dispersion correction           -0.014271630
FINAL SINGLE POINT ENERGY     -1339.874331503985

DIPOLE MOMENT
-------------
                                X             Y             Z
Electronic contribution:     11.53257      24.04871      -5.55306
Nuclear contribution   :    -12.08858     -24.53717       5.75061
                        -----------------------------------------
Total Dipole Moment    :     -0.55601      -0.48846       0.19755
                        -----------------------------------------
Magnitude (a.u.)       :      0.76601
Magnitude (Debye)      :      1.94704

Rotational constants in cm-1:     0.021700     0.007573     0.006429
Rotational constants in MHz :   650.560919   227.028290   192.730710

                             ****ORCA TERMINATED NORMALLY****
TOTAL RUN TIME: 0 days 0 hours 0 minutes 34 seconds 120 msec
