                         Program Version 4.2.1 -  RELEASE  -
|  1> ! wB97X-D3 SP def2-SVP
|  2> %pal
|  3> nprocs 16
|  4> end
|  5>
|  6> * xyz 0 1
|  7> S 	 1.48613 	 -24.9128 	 85.8996
|  8> C 	 0.479612 	 -25.8786 	 84.776
|  9> C 	 -0.0852561 	 -26.9813 	 85.3724
| 10> C 	 0.236142 	 -27.0645 	 86.739
| 11> C 	 1.19249 	 -26.1204 	 87.132
| 12> H 	 0.00937334 	 -27.8789 	 87.2986
| 13> C 	 -1.11324 	 -27.8426 	 84.6836
| 14> H 	 -1.68672 	 -27.4221 	 83.8663
| 15> H 	 -1.88092 	 -28.0956 	 85.3817
| 16> C 	 -0.523606 	 -29.2591 	 84.3233
| 17> H 	 0.351943 	 -29.2069 	 83.6779
| 18> H 	 -0.219511 	 -29.8176 	 85.1939
| 19> C 	 -1.6858 	 -30.1396 	 83.6331
| 20> H 	 -1.29723 	 -31.0954 	 83.3483
| 21> H 	 -2.42706 	 -30.2794 	 84.4361
| 22> H 	 -2.18259 	 -29.66 	 82.7649
| 23> S 	 3.37293 	 -25.2829 	 88.5467
| 24> C 	 3.2416 	 -25.1798 	 90.2524
| 25> C 	 1.99124 	 -25.546 	 90.6913
| 26> C 	 1.1321 	 -26.0576 	 89.6924
| 27> C 	 1.71686 	 -25.9349 	 88.4593
| 28> H 	 1.73046 	 -25.6378 	 91.7226
| 29> C 	 -0.227852 	 -26.7815 	 90.0337
| 30> H 	 -0.470785 	 -27.0521 	 91.0354
| 31> H 	 -0.173632 	 -27.7233 	 89.5443
| 32> C 	 -1.46886 	 -26.0169 	 89.6148
| 33> H 	 -2.32348 	 -26.657 	 89.737
| 34> H 	 -1.43684 	 -25.8924 	 88.5334
| 35> C 	 -1.46423 	 -24.6614 	 90.4284
| 36> H 	 -0.561645 	 -24.0425 	 90.0212
| 37> H 	 -1.27819 	 -24.798 	 91.4738
| 38> H 	 -2.2918 	 -24.0084 	 90.3707
| 39> H 	 0.309606 	 -25.623 	 83.7588
| 40> H 	 3.91618 	 -24.7307 	 90.9233
| 41> *
| 42>
| 43>                          ****END OF INPUT****

CARTESIAN COORDINATES (ANGSTROEM)
---------------------------------
  S      1.486130  -24.912800   85.899600
  C      0.479612  -25.878600   84.776000
  C     -0.085256  -26.981300   85.372400
  C      0.236142  -27.064500   86.739000
  C      1.192490  -26.120400   87.132000
  H      0.009373  -27.878900   87.298600
  C     -1.113240  -27.842600   84.683600
  H     -1.686720  -27.422100   83.866300
  H     -1.880920  -28.095600   85.381700
  C     -0.523606  -29.259100   84.323300
  H      0.351943  -29.206900   83.677900
  H     -0.219511  -29.817600   85.193900
  C     -1.685800  -30.139600   83.633100
  H     -1.297230  -31.095400   83.348300
  H     -2.427060  -30.279400   84.436100
  H     -2.182590  -29.660000   82.764900
  S      3.372930  -25.282900   88.546700
  C      3.241600  -25.179800   90.252400
  C      1.991240  -25.546000   90.691300
  C      1.132100  -26.057600   89.692400
  C      1.716860  -25.934900   88.459300
  H      1.730460  -25.637800   91.722600
  C     -0.227852  -26.781500   90.033700
  H     -0.470785  -27.052100   91.035400
  H     -0.173632  -27.723300   89.544300
  C     -1.468860  -26.016900   89.614800
  H     -2.323480  -26.657000   89.737000
  H     -1.436840  -25.892400   88.533400
  C     -1.464230  -24.661400   90.428400
  H     -0.561645  -24.042500   90.021200
  H     -1.278190  -24.798000   91.473800
  H     -2.291800  -24.008400   90.370700
  H      0.309606  -25.623000   83.758800
  H      3.916180  -24.730700   90.923300

 Total Charge           Charge          ....    0
 Multiplicity           Mult            ....    1
 Number of Electrons    NEL             ....  134
 Basis Dimension        Dim             ....  322

ORBITAL ENERGIES
----------------

  NO   OCC          E(Eh)            E(eV)
   0   2.0000     -88.969100     -2420.9723
   1   2.0000     -88.968073     -2420.9443
   2   2.0000     -10.330398      -281.1044
   3   2.0000     -10.325530      -280.9720
   4   2.0000     -10.310865      -280.5729
   5   2.0000     -10.309749      -280.5425
   6   2.0000     -10.304779      -280.4073
   7   2.0000     -10.298260      -280.2299
   8   2.0000     -10.292946      -280.0853
   9   2.0000     -10.292202      -280.0651
  10   2.0000     -10.291051      -280.0337
  11   2.0000     -10.287473      -279.9364
  12   2.0000     -10.285965      -279.8953
  13   2.0000     -10.284008      -279.8421
  14   2.0000     -10.283638      -279.8320
  15   2.0000     -10.278079      -279.6807
  16   2.0000      -8.083097      -219.9522
  17   2.0000      -8.082986      -219.9492
  18   2.0000      -6.041632      -164.4012
  19   2.0000      -6.041433      -164.3958
  20   2.0000      -6.037770      -164.2961
  21   2.0000      -6.037531      -164.2896
  22   2.0000      -6.033801      -164.1881
  23   2.0000      -6.033742      -164.1865
  24   2.0000      -1.009589       -27.4723
  25   2.0000      -0.984274       -26.7834
  26   2.0000      -0.909608       -24.7517
  27   2.0000      -0.907801       -24.7025
  28   2.0000      -0.866766       -23.5859
  29   2.0000      -0.850262       -23.1368
  30   2.0000      -0.842346       -22.9214
  31   2.0000      -0.810378       -22.0515
  32   2.0000      -0.784903       -21.3583
  33   2.0000      -0.773225       -21.0405
  34   2.0000      -0.712872       -19.3982
  35   2.0000      -0.702510       -19.1163
  36   2.0000      -0.694322       -18.8934
  37   2.0000      -0.668220       -18.1832
  38   2.0000      -0.642902       -17.4942
  39   2.0000      -0.627736       -17.0816
  40   2.0000      -0.602127       -16.3847
  41   2.0000      -0.568116       -15.4592
  42   2.0000      -0.560475       -15.2513
  43   2.0000      -0.552274       -15.0281
  44   2.0000      -0.542742       -14.7687
  45   2.0000      -0.520827       -14.1724
  46   2.0000      -0.512396       -13.9430
  47   2.0000      -0.507117       -13.7994
  48   2.0000      -0.505101       -13.7445
  49   2.0000      -0.496341       -13.5061
  50   2.0000      -0.484754       -13.1908
  51   2.0000      -0.478385       -13.0175
  52   2.0000      -0.467790       -12.7292
  53   2.0000      -0.464024       -12.6267
  54   2.0000      -0.461052       -12.5459
  55   2.0000      -0.450163       -12.2496
  56   2.0000      -0.445250       -12.1159
  57   2.0000      -0.440276       -11.9805
  58   2.0000      -0.434689       -11.8285
  59   2.0000      -0.428547       -11.6613
  60   2.0000      -0.423183       -11.5154
  61   2.0000      -0.418618       -11.3912
  62   2.0000      -0.415584       -11.3086
  63   2.0000      -0.350163        -9.5284
  64   2.0000      -0.336272        -9.1504
  65   2.0000      -0.333821        -9.0837
  66   2.0000      -0.283673        -7.7191
  67   0.0000       0.022174         0.6034
  68   0.0000       0.072122         1.9625
  69   0.0000       0.103117         2.8060
  70   0.0000       0.114007         3.1023
  71   0.0000       0.140211         3.8153

MULLIKEN ATOMIC CHARGES
-----------------------
   0 S :    0.107482
   1 C :   -0.119733
   2 C :   -0.038447
   3 C :    0.036999
   4 C :   -0.104909
   5 H :   -0.032407
   6 C :    0.070912
   7 H :    0.026087
   8 H :    0.009751
   9 C :   -0.106091
  10 H :    0.036505
  11 H :    0.032036
  12 C :   -0.061041
  13 H :    0.034632
  14 H :    0.029461
  15 H :    0.041134
  16 S :    0.113426
  17 C :   -0.054560
  18 C :   -0.032895
  19 C :   -0.037765
  20 C :   -0.174462
  21 H :    0.004940
  22 C :    0.069752
  23 H :    0.014697
  24 H :    0.019730
  25 C :   -0.051510
  26 H :    0.019185
  27 H :    0.037287
  28 C :   -0.066123
  29 H :    0.057209
  30 H :    0.019880
  31 H :    0.028087
  32 H :    0.029501
  33 H :    0.041252
Sum of atomic charges:    0.0000000

LOEWDIN ATOMIC CHARGES
----------------------
   0 S :    0.391688
   1 C :   -0.182001
   2 C :   -0.056111
   3 C :   -0.057533
   4 C :   -0.179399
   5 H :    0.011306
   6 C :   -0.028038
   7 H :    0.030247
   8 H :    0.028233
   9 C :   -0.030903
  10 H :    0.019781
  11 H :    0.020983
  12 C :   -0.067005
  13 H :    0.020916
  14 H :    0.024561
  15 H :    0.026283
  16 S :    0.409451
  17 C :   -0.190095
  18 C :   -0.068315
  19 C :   -0.047957
  20 C :   -0.188942
  21 H :    0.025754
  22 C :   -0.021674
  23 H :    0.026890
  24 H :    0.023618
  25 C :   -0.036897
  26 H :    0.018977
  27 H :    0.023400
  28 C :   -0.067886
  29 H :    0.044217
  30 H :    0.017745
  31 H :    0.016477
  32 H :    0.019144
  33 H :    0.023087

  Mayer bond orders larger than 0.100000
B(  0-S ,  1-C ) :   1.1167 B(  0-S ,  4-C ) :   1.1578 B(  1-C ,  2-C ) :   1.6139
B(  1-C , 32-H ) :   0.9727 B(  2-C ,  3-C ) :   1.2542 B(  2-C ,  6-C ) :   1.0238
B(  3-C ,  4-C ) :   1.5467 B(  3-C ,  5-H ) :   1.0042 B(  4-C , 20-C ) :   1.0685
B(  6-C ,  7-H ) :   0.9548 B(  6-C ,  8-H ) :   0.9384 B(  6-C ,  9-C ) :   1.0379
B(  9-C , 10-H ) :   0.9643 B(  9-C , 11-H ) :   0.9610 B(  9-C , 12-C ) :   1.0679
B( 12-C , 13-H ) :   0.9772 B( 12-C , 14-H ) :   0.9775 B( 12-C , 15-H ) :   0.9790
B( 16-S , 17-C ) :   1.1494 B( 16-S , 20-C ) :   1.1370 B( 17-C , 18-C ) :   1.6076
B( 17-C , 33-H ) :   0.9693 B( 18-C , 19-C ) :   1.2609 B( 18-C , 21-H ) :   0.9872
B( 19-C , 20-C ) :   1.5985 B( 19-C , 22-C ) :   1.0061 B( 22-C , 23-H ) :   0.9471
B( 22-C , 24-H ) :   0.9383 B( 22-C , 25-C ) :   1.0773 B( 25-C , 26-H ) :   0.9565
B( 25-C , 27-H ) :   0.9557 B( 25-C , 28-C ) :   1.0513 B( 28-C , 29-H ) :   0.9711
B( 28-C , 30-H ) :   0.9782 B( 28-C , 31-H ) :   0.9792

Dispersion correction           -0.014909609
FINAL SINGLE POINT ENERGY     -1339.863987456918

DIPOLE MOMENT
-------------
                                X             Y             Z
Electronic contribution:     23.21024      14.72935       1.30397
Nuclear contribution   :    -23.74084     -15.12002      -1.12642
                        -----------------------------------------
Total Dipole Moment    :     -0.53060      -0.39067       0.17755
                        -----------------------------------------
Magnitude (a.u.)       :      0.68241
Magnitude (Debye)      :      1.73455

Rotational constants in cm-1:     0.020593     0.008265     0.006927
Rotational constants in MHz :   617.368236   247.769217   207.680650

                             ****ORCA TERMINATED NORMALLY****
TOTAL RUN TIME: 0 days 0 hours 0 minutes 33 seconds 146 msec
