                         Program Version 4.2.1 -  RELEASE  -
|  1> ! wB97X-D3 SP def2-SVP
|  2> %pal
|  3> nprocs 16
|  4> end
|  5>
|  6> * xyz 0 1
|  7> S 	 -4.46608 	 30.4563 	 48.6681
|  8> C 	 -4.94886 	 29.4579 	 50.0152
|  9> C 	 -5.81314 	 30.0593 	 50.81
| 10> C 	 -6.14856 	 31.3838 	 50.2464
| 11> C 	 -5.46886 	 31.7533 	 49.1829
| 12> H 	 -6.87591 	 32.034 	 50.7042
| 13> C 	 -6.6548 	 29.4987 	 51.9416
| 14> H 	 -6.11191 	 28.5589 	 52.2835
| 15> H 	 -7.5243 	 29.0545 	 51.5262
| 16> C 	 -7.1582 	 30.4056 	 53.0509
| 17> H 	 -7.76495 	 31.2202 	 52.7738
| 18> H 	 -7.71636 	 29.7815 	 53.7524
| 19> C 	 -5.90465 	 30.995 	 53.7922
| 20> H 	 -5.22767 	 30.3301 	 54.3165
| 21> H 	 -5.35547 	 31.6485 	 53.0965
| 22> H 	 -6.25305 	 31.7369 	 54.553
| 23> S 	 -6.03148 	 32.6748 	 46.6926
| 24> C 	 -5.80127 	 34.3718 	 46.3531
| 25> C 	 -5.3009 	 35.0307 	 47.4955
| 26> C 	 -5.12694 	 34.2071 	 48.5921
| 27> C 	 -5.58808 	 32.8995 	 48.3588
| 28> H 	 -5.06141 	 36.111 	 47.435
| 29> C 	 -4.41716 	 34.6891 	 49.8334
| 30> H 	 -3.84777 	 35.5996 	 49.6508
| 31> H 	 -3.61919 	 34.0403 	 50.1303
| 32> C 	 -5.27105 	 34.8429 	 51.0603
| 33> H 	 -5.98923 	 33.9956 	 51.342
| 34> H 	 -5.90605 	 35.8129 	 50.8354
| 35> C 	 -4.44457 	 35.1732 	 52.3493
| 36> H 	 -3.93124 	 34.2505 	 52.5259
| 37> H 	 -5.13169 	 35.4434 	 53.1627
| 38> H 	 -3.79288 	 35.995 	 52.2219
| 39> H 	 -4.73044 	 28.372 	 50.0602
| 40> H 	 -6.07085 	 34.9746 	 45.4541
| 41> *
| 42>
| 43>                          ****END OF INPUT****

CARTESIAN COORDINATES (ANGSTROEM)
---------------------------------
  S     -4.466080   30.456300   48.668100
  C     -4.948860   29.457900   50.015200
  C     -5.813140   30.059300   50.810000
  C     -6.148560   31.383800   50.246400
  C     -5.468860   31.753300   49.182900
  H     -6.875910   32.034000   50.704200
  C     -6.654800   29.498700   51.941600
  H     -6.111910   28.558900   52.283500
  H     -7.524300   29.054500   51.526200
  C     -7.158200   30.405600   53.050900
  H     -7.764950   31.220200   52.773800
  H     -7.716360   29.781500   53.752400
  C     -5.904650   30.995000   53.792200
  H     -5.227670   30.330100   54.316500
  H     -5.355470   31.648500   53.096500
  H     -6.253050   31.736900   54.553000
  S     -6.031480   32.674800   46.692600
  C     -5.801270   34.371800   46.353100
  C     -5.300900   35.030700   47.495500
  C     -5.126940   34.207100   48.592100
  C     -5.588080   32.899500   48.358800
  H     -5.061410   36.111000   47.435000
  C     -4.417160   34.689100   49.833400
  H     -3.847770   35.599600   49.650800
  H     -3.619190   34.040300   50.130300
  C     -5.271050   34.842900   51.060300
  H     -5.989230   33.995600   51.342000
  H     -5.906050   35.812900   50.835400
  C     -4.444570   35.173200   52.349300
  H     -3.931240   34.250500   52.525900
  H     -5.131690   35.443400   53.162700
  H     -3.792880   35.995000   52.221900
  H     -4.730440   28.372000   50.060200
  H     -6.070850   34.974600   45.454100

 Total Charge           Charge          ....    0
 Multiplicity           Mult            ....    1
 Number of Electrons    NEL             ....  134
 Basis Dimension        Dim             ....  322

ORBITAL ENERGIES
----------------

  NO   OCC          E(Eh)            E(eV)
   0   2.0000     -88.972140     -2421.0550
   1   2.0000     -88.956467     -2420.6285
   2   2.0000     -10.322188      -280.8810
   3   2.0000     -10.321741      -280.8688
   4   2.0000     -10.315805      -280.7073
   5   2.0000     -10.308300      -280.5031
   6   2.0000     -10.301126      -280.3079
   7   2.0000     -10.297411      -280.2068
   8   2.0000     -10.296147      -280.1724
   9   2.0000     -10.294685      -280.1326
  10   2.0000     -10.293451      -280.0991
  11   2.0000     -10.291529      -280.0467
  12   2.0000     -10.287006      -279.9237
  13   2.0000     -10.286417      -279.9076
  14   2.0000     -10.279598      -279.7221
  15   2.0000     -10.274100      -279.5725
  16   2.0000      -8.086535      -220.0458
  17   2.0000      -8.072744      -219.6705
  18   2.0000      -6.044972      -164.4921
  19   2.0000      -6.040935      -164.3822
  20   2.0000      -6.037537      -164.2897
  21   2.0000      -6.031427      -164.1235
  22   2.0000      -6.027134      -164.0066
  23   2.0000      -6.023095      -163.8968
  24   2.0000      -1.017401       -27.6849
  25   2.0000      -0.989766       -26.9329
  26   2.0000      -0.915151       -24.9025
  27   2.0000      -0.910575       -24.7780
  28   2.0000      -0.876945       -23.8629
  29   2.0000      -0.852769       -23.2050
  30   2.0000      -0.839076       -22.8324
  31   2.0000      -0.816837       -22.2273
  32   2.0000      -0.784974       -21.3602
  33   2.0000      -0.775243       -21.0954
  34   2.0000      -0.712392       -19.3852
  35   2.0000      -0.698920       -19.0186
  36   2.0000      -0.684002       -18.6126
  37   2.0000      -0.659942       -17.9579
  38   2.0000      -0.644078       -17.5263
  39   2.0000      -0.626076       -17.0364
  40   2.0000      -0.600467       -16.3395
  41   2.0000      -0.567276       -15.4364
  42   2.0000      -0.564851       -15.3704
  43   2.0000      -0.552638       -15.0380
  44   2.0000      -0.539833       -14.6896
  45   2.0000      -0.522522       -14.2185
  46   2.0000      -0.518239       -14.1020
  47   2.0000      -0.512415       -13.9435
  48   2.0000      -0.507405       -13.8072
  49   2.0000      -0.503786       -13.7087
  50   2.0000      -0.491896       -13.3852
  51   2.0000      -0.477513       -12.9938
  52   2.0000      -0.475135       -12.9291
  53   2.0000      -0.465140       -12.6571
  54   2.0000      -0.462040       -12.5727
  55   2.0000      -0.446533       -12.1508
  56   2.0000      -0.441356       -12.0099
  57   2.0000      -0.438203       -11.9241
  58   2.0000      -0.436161       -11.8685
  59   2.0000      -0.424972       -11.5641
  60   2.0000      -0.419983       -11.4283
  61   2.0000      -0.412649       -11.2287
  62   2.0000      -0.402072       -10.9409
  63   2.0000      -0.343091        -9.3360
  64   2.0000      -0.337341        -9.1795
  65   2.0000      -0.323275        -8.7968
  66   2.0000      -0.299944        -8.1619
  67   0.0000       0.035251         0.9592
  68   0.0000       0.069351         1.8871
  69   0.0000       0.116054         3.1580
  70   0.0000       0.124764         3.3950
  71   0.0000       0.127701         3.4749

MULLIKEN ATOMIC CHARGES
-----------------------
   0 S :    0.094773
   1 C :   -0.150034
   2 C :   -0.058390
   3 C :    0.007568
   4 C :   -0.129838
   5 H :    0.004137
   6 C :    0.060663
   7 H :    0.024967
   8 H :    0.031466
   9 C :   -0.047263
  10 H :    0.031381
  11 H :    0.034808
  12 C :   -0.085559
  13 H :    0.039686
  14 H :    0.037542
  15 H :    0.026089
  16 S :    0.134599
  17 C :   -0.113133
  18 C :   -0.069248
  19 C :    0.023001
  20 C :   -0.181332
  21 H :    0.029285
  22 C :    0.116683
  23 H :    0.012805
  24 H :    0.011772
  25 C :   -0.165079
  26 H :    0.045994
  27 H :    0.030382
  28 C :   -0.022637
  29 H :    0.036004
  30 H :    0.038420
  31 H :    0.022214
  32 H :    0.055933
  33 H :    0.072340
Sum of atomic charges:   -0.0000000

LOEWDIN ATOMIC CHARGES
----------------------
   0 S :    0.399838
   1 C :   -0.196152
   2 C :   -0.066710
   3 C :   -0.059991
   4 C :   -0.204809
   5 H :    0.023365
   6 C :   -0.036517
   7 H :    0.038500
   8 H :    0.030005
   9 C :   -0.032896
  10 H :    0.020524
  11 H :    0.031005
  12 C :   -0.071203
  13 H :    0.024062
  14 H :    0.024998
  15 H :    0.025732
  16 S :    0.433799
  17 C :   -0.203740
  18 C :   -0.076378
  19 C :   -0.048947
  20 C :   -0.208992
  21 H :    0.037063
  22 C :   -0.036071
  23 H :    0.032970
  24 H :    0.027614
  25 C :   -0.049156
  26 H :    0.028622
  27 H :    0.026309
  28 C :   -0.060138
  29 H :    0.022308
  30 H :    0.030210
  31 H :    0.016800
  32 H :    0.035945
  33 H :    0.042032

  Mayer bond orders larger than 0.100000
B(  0-S ,  1-C ) :   1.1136 B(  0-S ,  4-C ) :   1.1210 B(  1-C ,  2-C ) :   1.6929
B(  1-C , 32-H ) :   0.9578 B(  2-C ,  3-C ) :   1.1732 B(  2-C ,  6-C ) :   1.0153
B(  3-C ,  4-C ) :   1.6703 B(  3-C ,  5-H ) :   0.9894 B(  4-C , 20-C ) :   1.0325
B(  6-C ,  7-H ) :   0.9391 B(  6-C ,  8-H ) :   0.9341 B(  6-C ,  9-C ) :   1.0782
B(  9-C , 10-H ) :   0.9501 B(  9-C , 11-H ) :   0.9516 B(  9-C , 12-C ) :   1.0776
B( 12-C , 13-H ) :   0.9782 B( 12-C , 14-H ) :   0.9731 B( 12-C , 15-H ) :   0.9759
B( 16-S , 17-C ) :   1.1728 B( 16-S , 20-C ) :   1.1665 B( 17-C , 18-C ) :   1.5632
B( 17-C , 20-C ) :   0.1196 B( 17-C , 33-H ) :   0.9610 B( 18-C , 19-C ) :   1.3120
B( 18-C , 21-H ) :   0.9816 B( 19-C , 20-C ) :   1.5296 B( 19-C , 22-C ) :   1.0387
B( 22-C , 23-H ) :   0.9310 B( 22-C , 24-H ) :   0.9218 B( 22-C , 25-C ) :   1.0575
B( 25-C , 26-H ) :   0.9544 B( 25-C , 27-H ) :   0.9527 B( 25-C , 28-C ) :   1.0747
B( 28-C , 29-H ) :   0.9758 B( 28-C , 30-H ) :   0.9748 B( 28-C , 31-H ) :   0.9743

Dispersion correction           -0.015344182
FINAL SINGLE POINT ENERGY     -1339.866496379560

DIPOLE MOMENT
-------------
                                X             Y             Z
Electronic contribution:      1.70027      -7.52659     -29.65501
Nuclear contribution   :     -1.91478       7.71464      30.12097
                        -----------------------------------------
Total Dipole Moment    :     -0.21451       0.18804       0.46596
                        -----------------------------------------
Magnitude (a.u.)       :      0.54635
Magnitude (Debye)      :      1.38870

Rotational constants in cm-1:     0.018111     0.010422     0.007479
Rotational constants in MHz :   542.958695   312.454342   224.207010

                             ****ORCA TERMINATED NORMALLY****
TOTAL RUN TIME: 0 days 0 hours 0 minutes 36 seconds 927 msec
