                         Program Version 4.2.1 -  RELEASE  -
|  1> ! wB97X-D3 SP def2-SVP
|  2> %pal
|  3> nprocs 16
|  4> end
|  5>
|  6> * xyz 0 1
|  7> S 	 55.388 	 22.9297 	 94.1916
|  8> C 	 53.6731 	 23.3541 	 94.3927
|  9> C 	 52.82 	 22.4987 	 93.5921
| 10> C 	 53.645 	 21.5125 	 92.942
| 11> C 	 54.993 	 21.5453 	 93.2035
| 12> H 	 53.2882 	 20.6829 	 92.2856
| 13> C 	 51.3656 	 22.7287 	 93.2721
| 14> H 	 51.2522 	 22.9413 	 92.2071
| 15> H 	 51.0177 	 23.6708 	 93.8601
| 16> C 	 50.4424 	 21.4766 	 93.4728
| 17> H 	 49.4466 	 21.7914 	 93.2625
| 18> H 	 50.7 	 20.912 	 92.6164
| 19> C 	 50.4475 	 20.8104 	 94.8138
| 20> H 	 50.1216 	 21.6201 	 95.4776
| 21> H 	 49.7554 	 19.9786 	 94.7311
| 22> H 	 51.3883 	 20.3108 	 95.1575
| 23> S 	 57.405 	 21.2856 	 92.0133
| 24> C 	 57.952 	 19.6942 	 91.4977
| 25> C 	 57.0976 	 18.7257 	 91.9604
| 26> C 	 55.9093 	 19.1505 	 92.5893
| 27> C 	 55.8742 	 20.5403 	 92.5781
| 28> H 	 57.4972 	 17.6996 	 91.7628
| 29> C 	 54.8368 	 18.1693 	 93.0018
| 30> H 	 54.3982 	 17.6131 	 92.1993
| 31> H 	 53.9745 	 18.7661 	 93.2625
| 32> C 	 54.9892 	 17.3008 	 94.2696
| 33> H 	 54.0762 	 16.8675 	 94.6103
| 34> H 	 55.2046 	 17.8543 	 95.1597
| 35> C 	 56.0892 	 16.2482 	 94.1009
| 36> H 	 55.765 	 15.423 	 93.4462
| 37> H 	 56.1812 	 15.6639 	 94.9796
| 38> H 	 57.0863 	 16.5803 	 93.7778
| 39> H 	 53.3928 	 24.1968 	 95.0009
| 40> H 	 58.8635 	 19.4589 	 91.0599
| 41> *
| 42>
| 43>                          ****END OF INPUT****

CARTESIAN COORDINATES (ANGSTROEM)
---------------------------------
  S     55.388000   22.929700   94.191600
  C     53.673100   23.354100   94.392700
  C     52.820000   22.498700   93.592100
  C     53.645000   21.512500   92.942000
  C     54.993000   21.545300   93.203500
  H     53.288200   20.682900   92.285600
  C     51.365600   22.728700   93.272100
  H     51.252200   22.941300   92.207100
  H     51.017700   23.670800   93.860100
  C     50.442400   21.476600   93.472800
  H     49.446600   21.791400   93.262500
  H     50.700000   20.912000   92.616400
  C     50.447500   20.810400   94.813800
  H     50.121600   21.620100   95.477600
  H     49.755400   19.978600   94.731100
  H     51.388300   20.310800   95.157500
  S     57.405000   21.285600   92.013300
  C     57.952000   19.694200   91.497700
  C     57.097600   18.725700   91.960400
  C     55.909300   19.150500   92.589300
  C     55.874200   20.540300   92.578100
  H     57.497200   17.699600   91.762800
  C     54.836800   18.169300   93.001800
  H     54.398200   17.613100   92.199300
  H     53.974500   18.766100   93.262500
  C     54.989200   17.300800   94.269600
  H     54.076200   16.867500   94.610300
  H     55.204600   17.854300   95.159700
  C     56.089200   16.248200   94.100900
  H     55.765000   15.423000   93.446200
  H     56.181200   15.663900   94.979600
  H     57.086300   16.580300   93.777800
  H     53.392800   24.196800   95.000900
  H     58.863500   19.458900   91.059900

 Total Charge           Charge          ....    0
 Multiplicity           Mult            ....    1
 Number of Electrons    NEL             ....  134
 Basis Dimension        Dim             ....  322

ORBITAL ENERGIES
----------------

  NO   OCC          E(Eh)            E(eV)
   0   2.0000     -88.970779     -2421.0180
   1   2.0000     -88.964794     -2420.8551
   2   2.0000     -10.335378      -281.2399
   3   2.0000     -10.327719      -281.0315
   4   2.0000     -10.323061      -280.9048
   5   2.0000     -10.311348      -280.5860
   6   2.0000     -10.310224      -280.5555
   7   2.0000     -10.309598      -280.5384
   8   2.0000     -10.301160      -280.3088
   9   2.0000     -10.293255      -280.0937
  10   2.0000     -10.292625      -280.0766
  11   2.0000     -10.290388      -280.0157
  12   2.0000     -10.284356      -279.8516
  13   2.0000     -10.281692      -279.7791
  14   2.0000     -10.279483      -279.7190
  15   2.0000     -10.272019      -279.5158
  16   2.0000      -8.084579      -219.9926
  17   2.0000      -8.078932      -219.8389
  18   2.0000      -6.043155      -164.4426
  19   2.0000      -6.039213      -164.3353
  20   2.0000      -6.037379      -164.2854
  21   2.0000      -6.035329      -164.2296
  22   2.0000      -6.033709      -164.1856
  23   2.0000      -6.029616      -164.0742
  24   2.0000      -1.002806       -27.2877
  25   2.0000      -0.978446       -26.6249
  26   2.0000      -0.912461       -24.8293
  27   2.0000      -0.908599       -24.7242
  28   2.0000      -0.866949       -23.5909
  29   2.0000      -0.853310       -23.2197
  30   2.0000      -0.844966       -22.9927
  31   2.0000      -0.812392       -22.1063
  32   2.0000      -0.787552       -21.4304
  33   2.0000      -0.775594       -21.1050
  34   2.0000      -0.712251       -19.3813
  35   2.0000      -0.700426       -19.0596
  36   2.0000      -0.696129       -18.9426
  37   2.0000      -0.656786       -17.8721
  38   2.0000      -0.635780       -17.3005
  39   2.0000      -0.617588       -16.8054
  40   2.0000      -0.598979       -16.2991
  41   2.0000      -0.563938       -15.3455
  42   2.0000      -0.557383       -15.1672
  43   2.0000      -0.548282       -14.9195
  44   2.0000      -0.546969       -14.8838
  45   2.0000      -0.536753       -14.6058
  46   2.0000      -0.516347       -14.0505
  47   2.0000      -0.513007       -13.9596
  48   2.0000      -0.499679       -13.5970
  49   2.0000      -0.491614       -13.3775
  50   2.0000      -0.488640       -13.2966
  51   2.0000      -0.486368       -13.2348
  52   2.0000      -0.478506       -13.0208
  53   2.0000      -0.466174       -12.6852
  54   2.0000      -0.453643       -12.3443
  55   2.0000      -0.449970       -12.2443
  56   2.0000      -0.439649       -11.9635
  57   2.0000      -0.435109       -11.8399
  58   2.0000      -0.428840       -11.6693
  59   2.0000      -0.419498       -11.4151
  60   2.0000      -0.417739       -11.3673
  61   2.0000      -0.415544       -11.3075
  62   2.0000      -0.411872       -11.2076
  63   2.0000      -0.348455        -9.4819
  64   2.0000      -0.334750        -9.1090
  65   2.0000      -0.327593        -8.9143
  66   2.0000      -0.287260        -7.8167
  67   0.0000       0.026495         0.7210
  68   0.0000       0.065322         1.7775
  69   0.0000       0.103419         2.8142
  70   0.0000       0.116850         3.1797
  71   0.0000       0.127111         3.4589

MULLIKEN ATOMIC CHARGES
-----------------------
   0 S :    0.117804
   1 C :   -0.141948
   2 C :   -0.048842
   3 C :   -0.030547
   4 C :   -0.110268
   5 H :    0.036155
   6 C :    0.018617
   7 H :    0.044848
   8 H :    0.032016
   9 C :   -0.068071
  10 H :    0.018929
  11 H :    0.013428
  12 C :   -0.035396
  13 H :    0.039841
  14 H :    0.031868
  15 H :    0.047884
  16 S :    0.083974
  17 C :   -0.058623
  18 C :   -0.069917
  19 C :    0.018315
  20 C :   -0.188165
  21 H :    0.034227
  22 C :    0.076442
  23 H :    0.032859
  24 H :   -0.003130
  25 C :   -0.023913
  26 H :    0.013430
  27 H :    0.019482
  28 C :   -0.052778
  29 H :    0.015282
  30 H :    0.012341
  31 H :    0.043092
  32 H :    0.053874
  33 H :    0.026895
Sum of atomic charges:    0.0000000

LOEWDIN ATOMIC CHARGES
----------------------
   0 S :    0.399865
   1 C :   -0.191539
   2 C :   -0.058112
   3 C :   -0.073972
   4 C :   -0.207474
   5 H :    0.035233
   6 C :   -0.037182
   7 H :    0.037527
   8 H :    0.034304
   9 C :   -0.043011
  10 H :    0.023605
  11 H :    0.015084
  12 C :   -0.066652
  13 H :    0.032709
  14 H :    0.027911
  15 H :    0.031424
  16 S :    0.378783
  17 C :   -0.174437
  18 C :   -0.073772
  19 C :   -0.054714
  20 C :   -0.160610
  21 H :    0.038881
  22 C :   -0.033297
  23 H :    0.032539
  24 H :    0.030750
  25 C :   -0.031906
  26 H :    0.024797
  27 H :    0.025445
  28 C :   -0.073704
  29 H :    0.025025
  30 H :    0.020128
  31 H :    0.026307
  32 H :    0.023994
  33 H :    0.016073

  Mayer bond orders larger than 0.100000
B(  0-S ,  1-C ) :   1.1456 B(  0-S ,  4-C ) :   1.1380 B(  1-C ,  2-C ) :   1.5608
B(  1-C , 32-H ) :   0.9716 B(  2-C ,  3-C ) :   1.2402 B(  2-C ,  6-C ) :   1.0355
B(  3-C ,  4-C ) :   1.5782 B(  3-C ,  5-H ) :   0.9806 B(  4-C , 20-C ) :   1.0420
B(  6-C ,  7-H ) :   0.9441 B(  6-C ,  8-H ) :   0.9428 B(  6-C ,  9-C ) :   1.0624
B(  9-C , 10-H ) :   0.9528 B(  9-C , 11-H ) :   0.9538 B(  9-C , 12-C ) :   1.0757
B( 12-C , 13-H ) :   0.9741 B( 12-C , 14-H ) :   0.9711 B( 12-C , 15-H ) :   0.9720
B( 16-S , 17-C ) :   1.1311 B( 16-S , 20-C ) :   1.1387 B( 17-C , 18-C ) :   1.6539
B( 17-C , 20-C ) :   0.1006 B( 17-C , 33-H ) :   0.9724 B( 18-C , 19-C ) :   1.2102
B( 18-C , 21-H ) :   0.9771 B( 19-C , 20-C ) :   1.6016 B( 19-C , 22-C ) :   1.0354
B( 22-C , 23-H ) :   0.9413 B( 22-C , 24-H ) :   0.9132 B( 22-C , 25-C ) :   1.0806
B( 25-C , 26-H ) :   0.9491 B( 25-C , 27-H ) :   0.9503 B( 25-C , 28-C ) :   1.0888
B( 28-C , 29-H ) :   0.9719 B( 28-C , 30-H ) :   0.9687 B( 28-C , 31-H ) :   0.9738

Dispersion correction           -0.014315230
FINAL SINGLE POINT ENERGY     -1339.854064505347

DIPOLE MOMENT
-------------
                                X             Y             Z
Electronic contribution:     20.70058      18.69955      -6.02918
Nuclear contribution   :    -21.28081     -19.17165       6.02684
                        -----------------------------------------
Total Dipole Moment    :     -0.58024      -0.47211      -0.00234
                        -----------------------------------------
Magnitude (a.u.)       :      0.74804
Magnitude (Debye)      :      1.90137

Rotational constants in cm-1:     0.017576     0.009352     0.006849
Rotational constants in MHz :   526.904295   280.358721   205.339027

                             ****ORCA TERMINATED NORMALLY****
TOTAL RUN TIME: 0 days 0 hours 0 minutes 29 seconds 336 msec
