                         Program Version 4.2.1 -  RELEASE  -
|  1> ! wB97X-D3 SP def2-SVP
|  2> %pal
|  3> nprocs 16
|  4> end
|  5>
|  6> * xyz 0 1
|  7> S 	 -77.0786 	 51.9449 	 140.068
|  8> C 	 -76.2821 	 51.1502 	 141.352
|  9> C 	 -75.0665 	 50.5949 	 140.908
| 10> C 	 -74.9623 	 50.7288 	 139.478
| 11> C 	 -76.063 	 51.402 	 138.868
| 12> H 	 -74.2035 	 50.3009 	 138.844
| 13> C 	 -73.9524 	 50.0793 	 141.774
| 14> H 	 -74.0965 	 50.3556 	 142.796
| 15> H 	 -73.0721 	 50.6455 	 141.565
| 16> C 	 -73.7078 	 48.5886 	 141.629
| 17> H 	 -73.3474 	 48.2481 	 140.635
| 18> H 	 -72.9268 	 48.2525 	 142.362
| 19> C 	 -74.9773 	 47.764 	 141.92
| 20> H 	 -74.7104 	 46.7604 	 141.778
| 21> H 	 -75.1126 	 47.7658 	 142.942
| 22> H 	 -75.8965 	 47.9539 	 141.304
| 23> S 	 -77.1604 	 50.5454 	 136.511
| 24> C 	 -76.5633 	 51.1649 	 134.964
| 25> C 	 -75.8873 	 52.2828 	 135.191
| 26> C 	 -75.6856 	 52.6612 	 136.557
| 27> C 	 -76.2008 	 51.6523 	 137.39
| 28> H 	 -75.4802 	 52.7586 	 134.274
| 29> C 	 -74.8578 	 53.9235 	 136.886
| 30> H 	 -74.2332 	 54.2247 	 136.036
| 31> H 	 -74.2664 	 53.7768 	 137.758
| 32> C 	 -75.7419 	 55.1251 	 137.195
| 33> H 	 -76.43 	 54.8905 	 138.053
| 34> H 	 -76.2609 	 55.4019 	 136.268
| 35> C 	 -74.887 	 56.2748 	 137.692
| 36> H 	 -75.433 	 57.182 	 138.02
| 37> H 	 -74.2106 	 56.5431 	 136.874
| 38> H 	 -74.2947 	 55.9144 	 138.552
| 39> H 	 -76.5044 	 51.2547 	 142.377
| 40> H 	 -76.8076 	 50.871 	 134.023
| 41> *
| 42>
| 43>                          ****END OF INPUT****

CARTESIAN COORDINATES (ANGSTROEM)
---------------------------------
  S    -77.078600   51.944900  140.068000
  C    -76.282100   51.150200  141.352000
  C    -75.066500   50.594900  140.908000
  C    -74.962300   50.728800  139.478000
  C    -76.063000   51.402000  138.868000
  H    -74.203500   50.300900  138.844000
  C    -73.952400   50.079300  141.774000
  H    -74.096500   50.355600  142.796000
  H    -73.072100   50.645500  141.565000
  C    -73.707800   48.588600  141.629000
  H    -73.347400   48.248100  140.635000
  H    -72.926800   48.252500  142.362000
  C    -74.977300   47.764000  141.920000
  H    -74.710400   46.760400  141.778000
  H    -75.112600   47.765800  142.942000
  H    -75.896500   47.953900  141.304000
  S    -77.160400   50.545400  136.511000
  C    -76.563300   51.164900  134.964000
  C    -75.887300   52.282800  135.191000
  C    -75.685600   52.661200  136.557000
  C    -76.200800   51.652300  137.390000
  H    -75.480200   52.758600  134.274000
  C    -74.857800   53.923500  136.886000
  H    -74.233200   54.224700  136.036000
  H    -74.266400   53.776800  137.758000
  C    -75.741900   55.125100  137.195000
  H    -76.430000   54.890500  138.053000
  H    -76.260900   55.401900  136.268000
  C    -74.887000   56.274800  137.692000
  H    -75.433000   57.182000  138.020000
  H    -74.210600   56.543100  136.874000
  H    -74.294700   55.914400  138.552000
  H    -76.504400   51.254700  142.377000
  H    -76.807600   50.871000  134.023000

 Total Charge           Charge          ....    0
 Multiplicity           Mult            ....    1
 Number of Electrons    NEL             ....  134
 Basis Dimension        Dim             ....  322

ORBITAL ENERGIES
----------------

  NO   OCC          E(Eh)            E(eV)
   0   2.0000     -88.968425     -2420.9539
   1   2.0000     -88.961636     -2420.7692
   2   2.0000     -10.331613      -281.1375
   3   2.0000     -10.328359      -281.0489
   4   2.0000     -10.309139      -280.5259
   5   2.0000     -10.307734      -280.4877
   6   2.0000     -10.304240      -280.3926
   7   2.0000     -10.302956      -280.3577
   8   2.0000     -10.294390      -280.1246
   9   2.0000     -10.290546      -280.0200
  10   2.0000     -10.289999      -280.0051
  11   2.0000     -10.288536      -279.9653
  12   2.0000     -10.286503      -279.9100
  13   2.0000     -10.283898      -279.8391
  14   2.0000     -10.277452      -279.6637
  15   2.0000     -10.263680      -279.2889
  16   2.0000      -8.084815      -219.9990
  17   2.0000      -8.077072      -219.7883
  18   2.0000      -6.043054      -164.4399
  19   2.0000      -6.038810      -164.3244
  20   2.0000      -6.036043      -164.2491
  21   2.0000      -6.035574      -164.2363
  22   2.0000      -6.031486      -164.1251
  23   2.0000      -6.027768      -164.0239
  24   2.0000      -1.011962       -27.5369
  25   2.0000      -0.992560       -27.0089
  26   2.0000      -0.915777       -24.9196
  27   2.0000      -0.912270       -24.8241
  28   2.0000      -0.869964       -23.6729
  29   2.0000      -0.847156       -23.0523
  30   2.0000      -0.844877       -22.9903
  31   2.0000      -0.816874       -22.2283
  32   2.0000      -0.788406       -21.4536
  33   2.0000      -0.771049       -20.9813
  34   2.0000      -0.705957       -19.2101
  35   2.0000      -0.693150       -18.8616
  36   2.0000      -0.685163       -18.6442
  37   2.0000      -0.656473       -17.8636
  38   2.0000      -0.643659       -17.5149
  39   2.0000      -0.620284       -16.8788
  40   2.0000      -0.600081       -16.3290
  41   2.0000      -0.577718       -15.7205
  42   2.0000      -0.575225       -15.6527
  43   2.0000      -0.553009       -15.0481
  44   2.0000      -0.543787       -14.7972
  45   2.0000      -0.520058       -14.1515
  46   2.0000      -0.514661       -14.0046
  47   2.0000      -0.512837       -13.9550
  48   2.0000      -0.506667       -13.7871
  49   2.0000      -0.501330       -13.6419
  50   2.0000      -0.487754       -13.2725
  51   2.0000      -0.483323       -13.1519
  52   2.0000      -0.467301       -12.7159
  53   2.0000      -0.464622       -12.6430
  54   2.0000      -0.463286       -12.6067
  55   2.0000      -0.442135       -12.0311
  56   2.0000      -0.438515       -11.9326
  57   2.0000      -0.435930       -11.8623
  58   2.0000      -0.429599       -11.6900
  59   2.0000      -0.423794       -11.5320
  60   2.0000      -0.420817       -11.4510
  61   2.0000      -0.416519       -11.3341
  62   2.0000      -0.414433       -11.2773
  63   2.0000      -0.338152        -9.2016
  64   2.0000      -0.327135        -8.9018
  65   2.0000      -0.317010        -8.6263
  66   2.0000      -0.314473        -8.5572
  67   0.0000       0.051363         1.3977
  68   0.0000       0.053305         1.4505
  69   0.0000       0.112943         3.0733
  70   0.0000       0.122577         3.3355
  71   0.0000       0.135103         3.6763

MULLIKEN ATOMIC CHARGES
-----------------------
   0 S :    0.143647
   1 C :   -0.102171
   2 C :   -0.119618
   3 C :    0.042404
   4 C :   -0.177671
   5 H :    0.010044
   6 C :    0.128957
   7 H :    0.002210
   8 H :    0.025114
   9 C :   -0.113350
  10 H :    0.035477
  11 H :    0.032310
  12 C :   -0.019146
  13 H :    0.006405
  14 H :    0.002901
  15 H :    0.064948
  16 S :    0.108589
  17 C :   -0.039603
  18 C :   -0.064592
  19 C :    0.020549
  20 C :   -0.199054
  21 H :    0.028037
  22 C :    0.085156
  23 H :    0.022234
  24 H :    0.014257
  25 C :   -0.099907
  26 H :    0.038095
  27 H :    0.032062
  28 C :   -0.047286
  29 H :    0.044720
  30 H :    0.022758
  31 H :    0.030039
  32 H :    0.033574
  33 H :    0.007912
Sum of atomic charges:   -0.0000000

LOEWDIN ATOMIC CHARGES
----------------------
   0 S :    0.474219
   1 C :   -0.215031
   2 C :   -0.056626
   3 C :   -0.060850
   4 C :   -0.240810
   5 H :    0.027738
   6 C :   -0.033351
   7 H :    0.026747
   8 H :    0.032605
   9 C :   -0.039999
  10 H :    0.023486
  11 H :    0.029575
  12 C :   -0.065048
  13 H :    0.020053
  14 H :    0.013301
  15 H :    0.037575
  16 S :    0.413785
  17 C :   -0.166383
  18 C :   -0.076413
  19 C :   -0.050630
  20 C :   -0.208975
  21 H :    0.037609
  22 C :   -0.024532
  23 H :    0.031096
  24 H :    0.025134
  25 C :   -0.043599
  26 H :    0.027617
  27 H :    0.022918
  28 C :   -0.069917
  29 H :    0.028983
  30 H :    0.021767
  31 H :    0.026091
  32 H :    0.020228
  33 H :    0.011638

  Mayer bond orders larger than 0.100000
B(  0-S ,  1-C ) :   1.1786 B(  0-S ,  4-C ) :   1.2138 B(  1-C ,  2-C ) :   1.5402
B(  1-C ,  4-C ) :   0.1027 B(  1-C , 32-H ) :   0.9740 B(  2-C ,  3-C ) :   1.2901
B(  2-C ,  6-C ) :   1.0271 B(  3-C ,  4-C ) :   1.5210 B(  3-C ,  5-H ) :   0.9972
B(  4-C , 20-C ) :   0.9807 B(  6-C ,  7-H ) :   0.9364 B(  6-C ,  8-H ) :   0.9352
B(  6-C ,  9-C ) :   1.0680 B(  9-C , 10-H ) :   0.9623 B(  9-C , 11-H ) :   0.9551
B(  9-C , 12-C ) :   1.0787 B( 12-C , 13-H ) :   0.9673 B( 12-C , 14-H ) :   0.9725
B( 12-C , 15-H ) :   0.9710 B( 16-S , 17-C ) :   1.1279 B( 16-S , 20-C ) :   1.1736
B( 17-C , 18-C ) :   1.6626 B( 17-C , 33-H ) :   0.9766 B( 18-C , 19-C ) :   1.2211
B( 18-C , 21-H ) :   0.9784 B( 19-C , 20-C ) :   1.5948 B( 19-C , 22-C ) :   1.0400
B( 22-C , 23-H ) :   0.9382 B( 22-C , 24-H ) :   0.9322 B( 22-C , 25-C ) :   1.0697
B( 25-C , 26-H ) :   0.9553 B( 25-C , 27-H ) :   0.9540 B( 25-C , 28-C ) :   1.0851
B( 28-C , 29-H ) :   0.9737 B( 28-C , 30-H ) :   0.9711 B( 28-C , 31-H ) :   0.9723

Dispersion correction           -0.014174334
FINAL SINGLE POINT ENERGY     -1339.866815032089

DIPOLE MOMENT
-------------
                                X             Y             Z
Electronic contribution:    -14.96003      -4.33436      -8.57391
Nuclear contribution   :     15.52053       4.49181       8.63193
                        -----------------------------------------
Total Dipole Moment    :      0.56051       0.15745       0.05802
                        -----------------------------------------
Magnitude (a.u.)       :      0.58509
Magnitude (Debye)      :      1.48717

Rotational constants in cm-1:     0.019555     0.008187     0.006827
Rotational constants in MHz :   586.259077   245.428190   204.682942

                             ****ORCA TERMINATED NORMALLY****
TOTAL RUN TIME: 0 days 0 hours 0 minutes 34 seconds 232 msec
