                         Program Version 4.2.1 -  RELEASE  -
|  1> ! wB97X-D3 SP def2-SVP
|  2> %pal
|  3> nprocs 16
|  4> end
|  5>
|  6> * xyz 0 1
|  7> S 	 -98.3215 	 50.7917 	 122.722
|  8> C 	 -97.0004 	 49.6533 	 122.622
|  9> C 	 -96.9862 	 48.8774 	 123.792
| 10> C 	 -97.9528 	 49.2471 	 124.771
| 11> C 	 -98.8108 	 50.2474 	 124.308
| 12> H 	 -98.0375 	 48.7964 	 125.746
| 13> C 	 -96.0215 	 47.7565 	 124.197
| 14> H 	 -95.5134 	 47.3232 	 123.337
| 15> H 	 -96.6048 	 47.0512 	 124.677
| 16> C 	 -94.8619 	 48.2053 	 125.065
| 17> H 	 -94.2198 	 48.8156 	 124.454
| 18> H 	 -95.2625 	 48.8665 	 125.862
| 19> C 	 -94.0576 	 47.0774 	 125.755
| 20> H 	 -93.3106 	 46.6196 	 125.071
| 21> H 	 -93.3457 	 47.6878 	 126.37
| 22> H 	 -94.4695 	 46.3497 	 126.412
| 23> S 	 -101.631 	 50.5729 	 124.5
| 24> C 	 -102.185 	 51.0264 	 126.074
| 25> C 	 -101.169 	 51.5647 	 126.861
| 26> C 	 -99.9215 	 51.5583 	 126.213
| 27> C 	 -99.9347 	 50.9015 	 125.013
| 28> H 	 -101.344 	 51.8963 	 127.862
| 29> C 	 -98.6377 	 51.8719 	 126.925
| 30> H 	 -98.0962 	 52.4935 	 126.269
| 31> H 	 -98.1042 	 50.8885 	 126.994
| 32> C 	 -98.7265 	 52.3795 	 128.372
| 33> H 	 -99.4123 	 51.8331 	 129.009
| 34> H 	 -99.2862 	 53.347 	 128.565
| 35> C 	 -97.3938 	 52.4672 	 129.1
| 36> H 	 -97.4481 	 52.8469 	 130.064
| 37> H 	 -96.712 	 53.0492 	 128.539
| 38> H 	 -96.8933 	 51.4896 	 129.199
| 39> H 	 -96.2991 	 49.4334 	 121.783
| 40> H 	 -103.168 	 50.8172 	 126.468
| 41> *
| 42>
| 43>                          ****END OF INPUT****

CARTESIAN COORDINATES (ANGSTROEM)
---------------------------------
  S    -98.321500   50.791700  122.722000
  C    -97.000400   49.653300  122.622000
  C    -96.986200   48.877400  123.792000
  C    -97.952800   49.247100  124.771000
  C    -98.810800   50.247400  124.308000
  H    -98.037500   48.796400  125.746000
  C    -96.021500   47.756500  124.197000
  H    -95.513400   47.323200  123.337000
  H    -96.604800   47.051200  124.677000
  C    -94.861900   48.205300  125.065000
  H    -94.219800   48.815600  124.454000
  H    -95.262500   48.866500  125.862000
  C    -94.057600   47.077400  125.755000
  H    -93.310600   46.619600  125.071000
  H    -93.345700   47.687800  126.370000
  H    -94.469500   46.349700  126.412000
  S    -101.631000   50.572900  124.500000
  C    -102.185000   51.026400  126.074000
  C    -101.169000   51.564700  126.861000
  C    -99.921500   51.558300  126.213000
  C    -99.934700   50.901500  125.013000
  H    -101.344000   51.896300  127.862000
  C    -98.637700   51.871900  126.925000
  H    -98.096200   52.493500  126.269000
  H    -98.104200   50.888500  126.994000
  C    -98.726500   52.379500  128.372000
  H    -99.412300   51.833100  129.009000
  H    -99.286200   53.347000  128.565000
  C    -97.393800   52.467200  129.100000
  H    -97.448100   52.846900  130.064000
  H    -96.712000   53.049200  128.539000
  H    -96.893300   51.489600  129.199000
  H    -96.299100   49.433400  121.783000
  H    -103.168000   50.817200  126.468000

 Total Charge           Charge          ....    0
 Multiplicity           Mult            ....    1
 Number of Electrons    NEL             ....  134
 Basis Dimension        Dim             ....  322

ORBITAL ENERGIES
----------------

  NO   OCC          E(Eh)            E(eV)
   0   2.0000     -88.967391     -2420.9258
   1   2.0000     -88.965399     -2420.8716
   2   2.0000     -10.332797      -281.1697
   3   2.0000     -10.323953      -280.9290
   4   2.0000     -10.319017      -280.7947
   5   2.0000     -10.318287      -280.7749
   6   2.0000     -10.301257      -280.3115
   7   2.0000     -10.299463      -280.2626
   8   2.0000     -10.295381      -280.1516
   9   2.0000     -10.292192      -280.0648
  10   2.0000     -10.291349      -280.0418
  11   2.0000     -10.290817      -280.0274
  12   2.0000     -10.288683      -279.9693
  13   2.0000     -10.283352      -279.8242
  14   2.0000     -10.282346      -279.7969
  15   2.0000     -10.270961      -279.4871
  16   2.0000      -8.081830      -219.9178
  17   2.0000      -8.079830      -219.8633
  18   2.0000      -6.040336      -164.3659
  19   2.0000      -6.038293      -164.3103
  20   2.0000      -6.036156      -164.2521
  21   2.0000      -6.034420      -164.2049
  22   2.0000      -6.032839      -164.1619
  23   2.0000      -6.030619      -164.1015
  24   2.0000      -1.004511       -27.3341
  25   2.0000      -0.983976       -26.7754
  26   2.0000      -0.912254       -24.8237
  27   2.0000      -0.911404       -24.8006
  28   2.0000      -0.866464       -23.5777
  29   2.0000      -0.855035       -23.2667
  30   2.0000      -0.847093       -23.0506
  31   2.0000      -0.811631       -22.0856
  32   2.0000      -0.786450       -21.4004
  33   2.0000      -0.773754       -21.0549
  34   2.0000      -0.713253       -19.4086
  35   2.0000      -0.699747       -19.0411
  36   2.0000      -0.698074       -18.9956
  37   2.0000      -0.654257       -17.8033
  38   2.0000      -0.639662       -17.4061
  39   2.0000      -0.621559       -16.9135
  40   2.0000      -0.601663       -16.3721
  41   2.0000      -0.569196       -15.4886
  42   2.0000      -0.564214       -15.3531
  43   2.0000      -0.562687       -15.3115
  44   2.0000      -0.537091       -14.6150
  45   2.0000      -0.527029       -14.3412
  46   2.0000      -0.514362       -13.9965
  47   2.0000      -0.511925       -13.9302
  48   2.0000      -0.501920       -13.6579
  49   2.0000      -0.500265       -13.6129
  50   2.0000      -0.492280       -13.3956
  51   2.0000      -0.478147       -13.0110
  52   2.0000      -0.473669       -12.8892
  53   2.0000      -0.464384       -12.6365
  54   2.0000      -0.463749       -12.6192
  55   2.0000      -0.457667       -12.4538
  56   2.0000      -0.450956       -12.2711
  57   2.0000      -0.439593       -11.9619
  58   2.0000      -0.436187       -11.8693
  59   2.0000      -0.423963       -11.5366
  60   2.0000      -0.415911       -11.3175
  61   2.0000      -0.412206       -11.2167
  62   2.0000      -0.407306       -11.0834
  63   2.0000      -0.336490        -9.1564
  64   2.0000      -0.332877        -9.0580
  65   2.0000      -0.327258        -8.9052
  66   2.0000      -0.295788        -8.0488
  67   0.0000       0.034583         0.9411
  68   0.0000       0.053301         1.4504
  69   0.0000       0.117682         3.2023
  70   0.0000       0.122494         3.3332
  71   0.0000       0.126540         3.4433

MULLIKEN ATOMIC CHARGES
-----------------------
   0 S :    0.117690
   1 C :   -0.128210
   2 C :   -0.115952
   3 C :    0.035068
   4 C :   -0.170518
   5 H :    0.020198
   6 C :    0.117888
   7 H :    0.011710
   8 H :    0.005584
   9 C :   -0.083190
  10 H :    0.021549
  11 H :    0.024472
  12 C :   -0.053595
  13 H :    0.031916
  14 H :    0.027079
  15 H :    0.042123
  16 S :    0.113886
  17 C :   -0.077469
  18 C :   -0.054936
  19 C :   -0.023238
  20 C :   -0.169045
  21 H :    0.011887
  22 C :    0.120808
  23 H :    0.030917
  24 H :    0.034281
  25 C :   -0.115557
  26 H :    0.015326
  27 H :    0.025883
  28 C :    0.008809
  29 H :    0.017285
  30 H :    0.017531
  31 H :    0.021953
  32 H :    0.062853
  33 H :    0.055012
Sum of atomic charges:    0.0000000

LOEWDIN ATOMIC CHARGES
----------------------
   0 S :    0.417033
   1 C :   -0.218220
   2 C :   -0.060333
   3 C :   -0.061084
   4 C :   -0.192815
   5 H :    0.031319
   6 C :   -0.028239
   7 H :    0.027821
   8 H :    0.018252
   9 C :   -0.036810
  10 H :    0.024293
  11 H :    0.022011
  12 C :   -0.074423
  13 H :    0.028597
  14 H :    0.035682
  15 H :    0.021526
  16 S :    0.395326
  17 C :   -0.180749
  18 C :   -0.073864
  19 C :   -0.048847
  20 C :   -0.199326
  21 H :    0.027557
  22 C :   -0.025066
  23 H :    0.031492
  24 H :    0.044178
  25 C :   -0.054809
  26 H :    0.019845
  27 H :    0.029014
  28 C :   -0.055154
  29 H :    0.018998
  30 H :    0.020132
  31 H :    0.026019
  32 H :    0.041729
  33 H :    0.028915

  Mayer bond orders larger than 0.100000
B(  0-S ,  1-C ) :   1.1379 B(  0-S ,  4-C ) :   1.1744 B(  1-C ,  2-C ) :   1.5981
B(  1-C ,  4-C ) :   0.1034 B(  1-C , 32-H ) :   0.9634 B(  2-C ,  3-C ) :   1.2587
B(  2-C ,  6-C ) :   1.0329 B(  3-C ,  4-C ) :   1.5531 B(  3-C ,  5-H ) :   0.9905
B(  4-C , 20-C ) :   1.0134 B(  6-C ,  7-H ) :   0.9380 B(  6-C ,  8-H ) :   0.9373
B(  6-C ,  9-C ) :   1.0667 B(  9-C , 10-H ) :   0.9522 B(  9-C , 11-H ) :   0.9611
B(  9-C , 12-C ) :   1.0756 B( 12-C , 13-H ) :   0.9735 B( 12-C , 14-H ) :   0.9709
B( 12-C , 15-H ) :   0.9792 B( 16-S , 17-C ) :   1.1734 B( 16-S , 20-C ) :   1.1245
B( 17-C , 18-C ) :   1.5898 B( 17-C , 33-H ) :   0.9636 B( 18-C , 19-C ) :   1.2514
B( 18-C , 21-H ) :   0.9915 B( 19-C , 20-C ) :   1.6007 B( 19-C , 22-C ) :   1.0356
B( 22-C , 23-H ) :   0.9180 B( 22-C , 24-H ) :   0.9286 B( 22-C , 25-C ) :   1.0700
B( 25-C , 26-H ) :   0.9429 B( 25-C , 27-H ) :   0.9485 B( 25-C , 28-C ) :   1.0961
B( 28-C , 29-H ) :   0.9688 B( 28-C , 30-H ) :   0.9735 B( 28-C , 31-H ) :   0.9715

Dispersion correction           -0.013852141
FINAL SINGLE POINT ENERGY     -1339.863564816717

DIPOLE MOMENT
-------------
                                X             Y             Z
Electronic contribution:    -23.84903       5.35139     -21.26181
Nuclear contribution   :     24.30836      -5.61125      21.97025
                        -----------------------------------------
Total Dipole Moment    :      0.45933      -0.25986       0.70844
                        -----------------------------------------
Magnitude (a.u.)       :      0.88341
Magnitude (Debye)      :      2.24544

Rotational constants in cm-1:     0.015966     0.008954     0.006555
Rotational constants in MHz :   478.647220   268.443021   196.503496

                             ****ORCA TERMINATED NORMALLY****
TOTAL RUN TIME: 0 days 0 hours 0 minutes 33 seconds 429 msec
