                         Program Version 4.2.1 -  RELEASE  -
|  1> ! wB97X-D3 SP def2-SVP
|  2> %pal
|  3> nprocs 16
|  4> end
|  5>
|  6> * xyz 0 1
|  7> S 	 -15.6074 	 -10.4307 	 85.8593
|  8> C 	 -16.3251 	 -10.3756 	 87.4839
|  9> C 	 -15.3745 	 -10.4384 	 88.4599
| 10> C 	 -14.1368 	 -10.5082 	 87.869
| 11> C 	 -14.0431 	 -10.4579 	 86.5103
| 12> H 	 -13.261 	 -10.6111 	 88.4293
| 13> C 	 -15.5392 	 -10.6002 	 89.9261
| 14> H 	 -14.7125 	 -11.2358 	 90.0937
| 15> H 	 -16.3824 	 -11.2859 	 90.0953
| 16> C 	 -15.611 	 -9.39231 	 90.7867
| 17> H 	 -14.6603 	 -9.04918 	 91.1005
| 18> H 	 -16.1098 	 -8.61735 	 90.2484
| 19> C 	 -16.3375 	 -9.64481 	 92.1083
| 20> H 	 -16.2326 	 -8.86736 	 92.8601
| 21> H 	 -17.4366 	 -9.65318 	 91.9649
| 22> H 	 -16.0294 	 -10.6784 	 92.4236
| 23> S 	 -12.8796 	 -11.7257 	 84.3755
| 24> C 	 -11.182 	 -11.3656 	 83.9493
| 25> C 	 -10.7695 	 -10.2348 	 84.6212
| 26> C 	 -11.5716 	 -9.98917 	 85.8032
| 27> C 	 -12.8037 	 -10.6035 	 85.7062
| 28> H 	 -9.80757 	 -9.68439 	 84.4937
| 29> C 	 -11.1736 	 -8.95588 	 86.7411
| 30> H 	 -12.0374 	 -8.63118 	 87.3036
| 31> H 	 -10.9374 	 -7.9656 	 86.2506
| 32> C 	 -9.93882 	 -9.29282 	 87.632
| 33> H 	 -9.56993 	 -8.44275 	 88.1571
| 34> H 	 -9.20146 	 -9.75754 	 86.9553
| 35> C 	 -10.2903 	 -10.3151 	 88.7206
| 36> H 	 -9.37379 	 -10.594 	 89.225
| 37> H 	 -10.6619 	 -11.1625 	 88.2255
| 38> H 	 -11.0231 	 -10.1694 	 89.4469
| 39> H 	 -17.3743 	 -10.3527 	 87.5141
| 40> H 	 -10.6025 	 -11.705 	 83.1374
| 41> *
| 42>
| 43>                          ****END OF INPUT****

CARTESIAN COORDINATES (ANGSTROEM)
---------------------------------
  S    -15.607400  -10.430700   85.859300
  C    -16.325100  -10.375600   87.483900
  C    -15.374500  -10.438400   88.459900
  C    -14.136800  -10.508200   87.869000
  C    -14.043100  -10.457900   86.510300
  H    -13.261000  -10.611100   88.429300
  C    -15.539200  -10.600200   89.926100
  H    -14.712500  -11.235800   90.093700
  H    -16.382400  -11.285900   90.095300
  C    -15.611000   -9.392310   90.786700
  H    -14.660300   -9.049180   91.100500
  H    -16.109800   -8.617350   90.248400
  C    -16.337500   -9.644810   92.108300
  H    -16.232600   -8.867360   92.860100
  H    -17.436600   -9.653180   91.964900
  H    -16.029400  -10.678400   92.423600
  S    -12.879600  -11.725700   84.375500
  C    -11.182000  -11.365600   83.949300
  C    -10.769500  -10.234800   84.621200
  C    -11.571600   -9.989170   85.803200
  C    -12.803700  -10.603500   85.706200
  H     -9.807570   -9.684390   84.493700
  C    -11.173600   -8.955880   86.741100
  H    -12.037400   -8.631180   87.303600
  H    -10.937400   -7.965600   86.250600
  C     -9.938820   -9.292820   87.632000
  H     -9.569930   -8.442750   88.157100
  H     -9.201460   -9.757540   86.955300
  C    -10.290300  -10.315100   88.720600
  H     -9.373790  -10.594000   89.225000
  H    -10.661900  -11.162500   88.225500
  H    -11.023100  -10.169400   89.446900
  H    -17.374300  -10.352700   87.514100
  H    -10.602500  -11.705000   83.137400

 Total Charge           Charge          ....    0
 Multiplicity           Mult            ....    1
 Number of Electrons    NEL             ....  134
 Basis Dimension        Dim             ....  322

ORBITAL ENERGIES
----------------

  NO   OCC          E(Eh)            E(eV)
   0   2.0000     -88.966921     -2420.9130
   1   2.0000     -88.964746     -2420.8538
   2   2.0000     -10.329762      -281.0871
   3   2.0000     -10.323771      -280.9241
   4   2.0000     -10.317850      -280.7630
   5   2.0000     -10.310771      -280.5704
   6   2.0000     -10.298863      -280.2463
   7   2.0000     -10.298630      -280.2400
   8   2.0000     -10.293164      -280.0912
   9   2.0000     -10.288405      -279.9617
  10   2.0000     -10.286732      -279.9162
  11   2.0000     -10.285752      -279.8895
  12   2.0000     -10.283361      -279.8245
  13   2.0000     -10.279371      -279.7159
  14   2.0000     -10.277581      -279.6672
  15   2.0000     -10.263473      -279.2833
  16   2.0000      -8.081216      -219.9011
  17   2.0000      -8.080405      -219.8790
  18   2.0000      -6.039957      -164.3556
  19   2.0000      -6.038780      -164.3236
  20   2.0000      -6.035852      -164.2439
  21   2.0000      -6.034784      -164.2148
  22   2.0000      -6.031675      -164.1302
  23   2.0000      -6.031254      -164.1188
  24   2.0000      -1.015309       -27.6280
  25   2.0000      -0.990055       -26.9408
  26   2.0000      -0.925487       -25.1838
  27   2.0000      -0.911407       -24.8006
  28   2.0000      -0.873623       -23.7725
  29   2.0000      -0.855226       -23.2719
  30   2.0000      -0.850112       -23.1327
  31   2.0000      -0.817204       -22.2372
  32   2.0000      -0.786106       -21.3910
  33   2.0000      -0.776105       -21.1189
  34   2.0000      -0.709528       -19.3072
  35   2.0000      -0.707668       -19.2566
  36   2.0000      -0.698939       -19.0191
  37   2.0000      -0.662589       -18.0300
  38   2.0000      -0.650895       -17.7118
  39   2.0000      -0.628441       -17.1007
  40   2.0000      -0.602160       -16.3856
  41   2.0000      -0.579524       -15.7696
  42   2.0000      -0.561673       -15.2839
  43   2.0000      -0.557707       -15.1760
  44   2.0000      -0.535523       -14.5723
  45   2.0000      -0.530840       -14.4449
  46   2.0000      -0.524609       -14.2753
  47   2.0000      -0.518406       -14.1065
  48   2.0000      -0.507255       -13.8031
  49   2.0000      -0.499422       -13.5900
  50   2.0000      -0.496148       -13.5009
  51   2.0000      -0.479152       -13.0384
  52   2.0000      -0.472640       -12.8612
  53   2.0000      -0.466769       -12.7014
  54   2.0000      -0.462916       -12.5966
  55   2.0000      -0.448908       -12.2154
  56   2.0000      -0.445634       -12.1263
  57   2.0000      -0.438362       -11.9284
  58   2.0000      -0.428968       -11.6728
  59   2.0000      -0.426395       -11.6028
  60   2.0000      -0.424593       -11.5538
  61   2.0000      -0.414398       -11.2763
  62   2.0000      -0.411180       -11.1888
  63   2.0000      -0.350877        -9.5479
  64   2.0000      -0.336744        -9.1633
  65   2.0000      -0.327393        -8.9088
  66   2.0000      -0.290431        -7.9030
  67   0.0000       0.031096         0.8462
  68   0.0000       0.068762         1.8711
  69   0.0000       0.106341         2.8937
  70   0.0000       0.113547         3.0898
  71   0.0000       0.133451         3.6314

MULLIKEN ATOMIC CHARGES
-----------------------
   0 S :    0.097543
   1 C :   -0.148261
   2 C :   -0.038129
   3 C :    0.028257
   4 C :   -0.121928
   5 H :   -0.051947
   6 C :    0.081769
   7 H :    0.008820
   8 H :    0.022215
   9 C :    0.011304
  10 H :    0.017687
  11 H :    0.023991
  12 C :   -0.086168
  13 H :    0.036609
  14 H :    0.030281
  15 H :    0.039508
  16 S :    0.100527
  17 C :   -0.062652
  18 C :   -0.037895
  19 C :   -0.055891
  20 C :   -0.119015
  21 H :    0.040693
  22 C :    0.004740
  23 H :    0.014279
  24 H :    0.037207
  25 C :   -0.043645
  26 H :    0.028588
  27 H :    0.031171
  28 C :   -0.029286
  29 H :    0.026249
  30 H :    0.018207
  31 H :    0.022541
  32 H :    0.028333
  33 H :    0.044300
Sum of atomic charges:   -0.0000000

LOEWDIN ATOMIC CHARGES
----------------------
   0 S :    0.416853
   1 C :   -0.171131
   2 C :   -0.062935
   3 C :   -0.067207
   4 C :   -0.209192
   5 H :    0.016627
   6 C :   -0.030974
   7 H :    0.030787
   8 H :    0.035646
   9 C :   -0.035160
  10 H :    0.021774
  11 H :    0.023225
  12 C :   -0.066545
  13 H :    0.024898
  14 H :    0.024842
  15 H :    0.029894
  16 S :    0.391162
  17 C :   -0.172691
  18 C :   -0.058998
  19 C :   -0.067601
  20 C :   -0.186648
  21 H :    0.037477
  22 C :   -0.045889
  23 H :    0.026877
  24 H :    0.040450
  25 C :   -0.025889
  26 H :    0.020079
  27 H :    0.028118
  28 C :   -0.064646
  29 H :    0.027096
  30 H :    0.019669
  31 H :    0.014039
  32 H :    0.012772
  33 H :    0.023219

  Mayer bond orders larger than 0.100000
B(  0-S ,  1-C ) :   1.1518 B(  0-S ,  4-C ) :   1.1672 B(  1-C ,  2-C ) :   1.5461
B(  1-C , 32-H ) :   0.9870 B(  2-C ,  3-C ) :   1.2923 B(  2-C ,  6-C ) :   1.0001
B(  3-C ,  4-C ) :   1.5436 B(  3-C ,  5-H ) :   1.0027 B(  4-C , 20-C ) :   1.0162
B(  6-C ,  7-H ) :   0.9231 B(  6-C ,  8-H ) :   0.9431 B(  6-C ,  9-C ) :   1.0602
B(  9-C , 10-H ) :   0.9481 B(  9-C , 11-H ) :   0.9596 B(  9-C , 12-C ) :   1.0793
B( 12-C , 13-H ) :   0.9753 B( 12-C , 14-H ) :   0.9763 B( 12-C , 15-H ) :   0.9748
B( 16-S , 17-C ) :   1.1237 B( 16-S , 20-C ) :   1.1311 B( 17-C , 18-C ) :   1.6431
B( 17-C , 33-H ) :   0.9710 B( 18-C , 19-C ) :   1.2159 B( 18-C , 21-H ) :   0.9693
B( 19-C , 20-C ) :   1.6080 B( 19-C , 22-C ) :   1.0710 B( 22-C , 23-H ) :   0.9340
B( 22-C , 24-H ) :   0.9354 B( 22-C , 25-C ) :   1.0558 B( 25-C , 26-H ) :   0.9581
B( 25-C , 27-H ) :   0.9567 B( 25-C , 28-C ) :   1.0778 B( 28-C , 29-H ) :   0.9688
B( 28-C , 30-H ) :   0.9711 B( 28-C , 31-H ) :   0.9718

Dispersion correction           -0.014437850
FINAL SINGLE POINT ENERGY     -1339.854039628703

DIPOLE MOMENT
-------------
                                X             Y             Z
Electronic contribution:     -6.44105      -7.54869     -28.76867
Nuclear contribution   :      6.69936       7.80122      29.29595
                        -----------------------------------------
Total Dipole Moment    :      0.25831       0.25253       0.52728
                        -----------------------------------------
Magnitude (a.u.)       :      0.63916
Magnitude (Debye)      :      1.62461

Rotational constants in cm-1:     0.020134     0.008714     0.006486
Rotational constants in MHz :   603.605303   261.252984   194.437561

                             ****ORCA TERMINATED NORMALLY****
TOTAL RUN TIME: 0 days 0 hours 0 minutes 35 seconds 523 msec
