                         Program Version 4.2.1 -  RELEASE  -
|  1> ! wB97X-D3 SP def2-SVP
|  2> %pal
|  3> nprocs 16
|  4> end
|  5>
|  6> * xyz 0 1
|  7> S 	 45.0576 	 5.97562 	 86.7749
|  8> C 	 45.5991 	 5.60844 	 88.3028
|  9> C 	 45.0494 	 6.37887 	 89.2741
| 10> C 	 44.1156 	 7.37356 	 88.7512
| 11> C 	 44.0092 	 7.21355 	 87.3567
| 12> H 	 43.5762 	 8.05672 	 89.4123
| 13> C 	 45.2037 	 6.18406 	 90.8162
| 14> H 	 45.3845 	 7.15917 	 91.151
| 15> H 	 46.1223 	 5.61318 	 90.9628
| 16> C 	 44.1176 	 5.49311 	 91.6419
| 17> H 	 44.4039 	 5.61708 	 92.7827
| 18> H 	 43.2032 	 5.98883 	 91.5892
| 19> C 	 43.8928 	 3.94697 	 91.2969
| 20> H 	 43.1835 	 3.48714 	 91.9901
| 21> H 	 43.584 	 3.67712 	 90.2916
| 22> H 	 44.8168 	 3.37151 	 91.3702
| 23> S 	 44.2262 	 8.72136 	 85.0253
| 24> C 	 42.8349 	 9.69377 	 84.4463
| 25> C 	 41.6977 	 9.41448 	 85.1466
| 26> C 	 41.9874 	 8.53249 	 86.2636
| 27> C 	 43.2785 	 8.05717 	 86.3577
| 28> H 	 40.7798 	 9.97299 	 84.9631
| 29> C 	 40.8608 	 8.21441 	 87.2248
| 30> H 	 40.6624 	 9.21063 	 87.5803
| 31> H 	 41.3611 	 7.58835 	 88.0154
| 32> C 	 39.6476 	 7.44738 	 86.7214
| 33> H 	 39.2217 	 8.03893 	 85.8734
| 34> H 	 38.8414 	 7.51375 	 87.416
| 35> C 	 39.9345 	 5.97397 	 86.3085
| 36> H 	 40.63 	 5.49291 	 87.0209
| 37> H 	 40.5782 	 5.92174 	 85.423
| 38> H 	 39.0731 	 5.27289 	 86.2074
| 39> H 	 46.3877 	 4.89894 	 88.5289
| 40> H 	 42.9079 	 10.4901 	 83.7481
| 41> *
| 42>
| 43>                          ****END OF INPUT****

CARTESIAN COORDINATES (ANGSTROEM)
---------------------------------
  S     45.057600    5.975620   86.774900
  C     45.599100    5.608440   88.302800
  C     45.049400    6.378870   89.274100
  C     44.115600    7.373560   88.751200
  C     44.009200    7.213550   87.356700
  H     43.576200    8.056720   89.412300
  C     45.203700    6.184060   90.816200
  H     45.384500    7.159170   91.151000
  H     46.122300    5.613180   90.962800
  C     44.117600    5.493110   91.641900
  H     44.403900    5.617080   92.782700
  H     43.203200    5.988830   91.589200
  C     43.892800    3.946970   91.296900
  H     43.183500    3.487140   91.990100
  H     43.584000    3.677120   90.291600
  H     44.816800    3.371510   91.370200
  S     44.226200    8.721360   85.025300
  C     42.834900    9.693770   84.446300
  C     41.697700    9.414480   85.146600
  C     41.987400    8.532490   86.263600
  C     43.278500    8.057170   86.357700
  H     40.779800    9.972990   84.963100
  C     40.860800    8.214410   87.224800
  H     40.662400    9.210630   87.580300
  H     41.361100    7.588350   88.015400
  C     39.647600    7.447380   86.721400
  H     39.221700    8.038930   85.873400
  H     38.841400    7.513750   87.416000
  C     39.934500    5.973970   86.308500
  H     40.630000    5.492910   87.020900
  H     40.578200    5.921740   85.423000
  H     39.073100    5.272890   86.207400
  H     46.387700    4.898940   88.528900
  H     42.907900   10.490100   83.748100

 Total Charge           Charge          ....    0
 Multiplicity           Mult            ....    1
 Number of Electrons    NEL             ....  134
 Basis Dimension        Dim             ....  322

ORBITAL ENERGIES
----------------

  NO   OCC          E(Eh)            E(eV)
   0   2.0000     -88.968279     -2420.9500
   1   2.0000     -88.961525     -2420.7662
   2   2.0000     -10.336328      -281.2658
   3   2.0000     -10.329568      -281.0818
   4   2.0000     -10.318755      -280.7876
   5   2.0000     -10.305757      -280.4339
   6   2.0000     -10.303115      -280.3620
   7   2.0000     -10.302341      -280.3409
   8   2.0000     -10.299688      -280.2688
   9   2.0000     -10.298999      -280.2500
  10   2.0000     -10.296201      -280.1739
  11   2.0000     -10.290913      -280.0300
  12   2.0000     -10.289301      -279.9861
  13   2.0000     -10.288956      -279.9767
  14   2.0000     -10.280628      -279.7501
  15   2.0000     -10.279697      -279.7248
  16   2.0000      -8.085170      -220.0087
  17   2.0000      -8.075677      -219.7504
  18   2.0000      -6.043467      -164.4511
  19   2.0000      -6.039294      -164.3376
  20   2.0000      -6.036097      -164.2506
  21   2.0000      -6.034376      -164.2037
  22   2.0000      -6.030306      -164.0930
  23   2.0000      -6.026214      -163.9816
  24   2.0000      -1.011965       -27.5370
  25   2.0000      -0.985246       -26.8099
  26   2.0000      -0.905483       -24.6394
  27   2.0000      -0.903118       -24.5751
  28   2.0000      -0.868591       -23.6356
  29   2.0000      -0.847439       -23.0600
  30   2.0000      -0.838759       -22.8238
  31   2.0000      -0.815956       -22.2033
  32   2.0000      -0.783928       -21.3318
  33   2.0000      -0.771268       -20.9873
  34   2.0000      -0.711410       -19.3584
  35   2.0000      -0.701194       -19.0805
  36   2.0000      -0.693636       -18.8748
  37   2.0000      -0.662478       -18.0270
  38   2.0000      -0.641304       -17.4508
  39   2.0000      -0.619641       -16.8613
  40   2.0000      -0.586212       -15.9517
  41   2.0000      -0.568239       -15.4626
  42   2.0000      -0.558149       -15.1880
  43   2.0000      -0.551271       -15.0008
  44   2.0000      -0.537802       -14.6343
  45   2.0000      -0.531075       -14.4513
  46   2.0000      -0.509905       -13.8752
  47   2.0000      -0.506187       -13.7740
  48   2.0000      -0.500494       -13.6191
  49   2.0000      -0.495446       -13.4818
  50   2.0000      -0.491193       -13.3660
  51   2.0000      -0.478006       -13.0072
  52   2.0000      -0.474526       -12.9125
  53   2.0000      -0.456826       -12.4309
  54   2.0000      -0.453200       -12.3322
  55   2.0000      -0.448732       -12.2106
  56   2.0000      -0.446511       -12.1502
  57   2.0000      -0.443241       -12.0612
  58   2.0000      -0.440078       -11.9751
  59   2.0000      -0.429054       -11.6752
  60   2.0000      -0.418501       -11.3880
  61   2.0000      -0.410862       -11.1801
  62   2.0000      -0.401765       -10.9326
  63   2.0000      -0.353077        -9.6077
  64   2.0000      -0.330609        -8.9963
  65   2.0000      -0.327150        -8.9022
  66   2.0000      -0.295986        -8.0542
  67   0.0000       0.037176         1.0116
  68   0.0000       0.070048         1.9061
  69   0.0000       0.113437         3.0868
  70   0.0000       0.118167         3.2155
  71   0.0000       0.128290         3.4909

MULLIKEN ATOMIC CHARGES
-----------------------
   0 S :    0.131997
   1 C :   -0.106593
   2 C :   -0.135684
   3 C :    0.043309
   4 C :   -0.168181
   5 H :    0.024131
   6 C :    0.097723
   7 H :    0.014897
   8 H :    0.012775
   9 C :   -0.060678
  10 H :    0.044575
  11 H :    0.016751
  12 C :   -0.063173
  13 H :    0.036532
  14 H :    0.038308
  15 H :    0.018706
  16 S :    0.079389
  17 C :   -0.079202
  18 C :   -0.024270
  19 C :   -0.081581
  20 C :   -0.118688
  21 H :    0.031629
  22 C :    0.042387
  23 H :    0.031382
  24 H :    0.026699
  25 C :   -0.029504
  26 H :    0.020201
  27 H :    0.020773
  28 C :   -0.069712
  29 H :    0.024466
  30 H :    0.039489
  31 H :    0.048099
  32 H :    0.044709
  33 H :    0.048339
Sum of atomic charges:   -0.0000000

LOEWDIN ATOMIC CHARGES
----------------------
   0 S :    0.457806
   1 C :   -0.229085
   2 C :   -0.067103
   3 C :   -0.060718
   4 C :   -0.201242
   5 H :    0.034556
   6 C :   -0.028784
   7 H :    0.023638
   8 H :    0.028324
   9 C :   -0.035658
  10 H :    0.040398
  11 H :    0.011247
  12 C :   -0.071464
  13 H :    0.027539
  14 H :    0.026376
  15 H :    0.022456
  16 S :    0.369724
  17 C :   -0.156454
  18 C :   -0.072173
  19 C :   -0.059006
  20 C :   -0.200440
  21 H :    0.036551
  22 C :   -0.035674
  23 H :    0.032159
  24 H :    0.032534
  25 C :   -0.041143
  26 H :    0.024476
  27 H :    0.020986
  28 C :   -0.074878
  29 H :    0.028044
  30 H :    0.030263
  31 H :    0.031801
  32 H :    0.031255
  33 H :    0.023690

  Mayer bond orders larger than 0.100000
B(  0-S ,  1-C ) :   1.1509 B(  0-S ,  4-C ) :   1.1872 B(  1-C ,  2-C ) :   1.6246
B(  1-C , 32-H ) :   0.9619 B(  2-C ,  3-C ) :   1.2506 B(  2-C ,  6-C ) :   1.0113
B(  3-C ,  4-C ) :   1.5429 B(  3-C ,  5-H ) :   0.9942 B(  4-C , 20-C ) :   0.9991
B(  6-C ,  7-H ) :   0.9338 B(  6-C ,  8-H ) :   0.9431 B(  6-C ,  9-C ) :   1.0750
B(  9-C , 10-H ) :   0.9534 B(  9-C , 11-H ) :   0.9579 B(  9-C , 12-C ) :   1.0582
B( 12-C , 13-H ) :   0.9776 B( 12-C , 14-H ) :   0.9785 B( 12-C , 15-H ) :   0.9770
B( 16-S , 17-C ) :   1.1408 B( 16-S , 20-C ) :   1.1097 B( 17-C , 18-C ) :   1.6436
B( 17-C , 33-H ) :   0.9693 B( 18-C , 19-C ) :   1.1988 B( 18-C , 21-H ) :   0.9871
B( 19-C , 20-C ) :   1.6514 B( 19-C , 22-C ) :   1.0289 B( 22-C , 23-H ) :   0.9307
B( 22-C , 24-H ) :   0.9371 B( 22-C , 25-C ) :   1.0823 B( 25-C , 26-H ) :   0.9513
B( 25-C , 27-H ) :   0.9544 B( 25-C , 28-C ) :   1.0550 B( 28-C , 29-H ) :   0.9747
B( 28-C , 30-H ) :   0.9746 B( 28-C , 31-H ) :   0.9776

Dispersion correction           -0.014587904
FINAL SINGLE POINT ENERGY     -1339.873857520481

DIPOLE MOMENT
-------------
                                X             Y             Z
Electronic contribution:     15.08267      10.38357     -19.34170
Nuclear contribution   :    -15.43460     -10.26881      19.84694
                        -----------------------------------------
Total Dipole Moment    :     -0.35194       0.11476       0.50524
                        -----------------------------------------
Magnitude (a.u.)       :      0.62634
Magnitude (Debye)      :      1.59203

Rotational constants in cm-1:     0.020037     0.008583     0.006942
Rotational constants in MHz :   600.701755   257.326653   208.104355

                             ****ORCA TERMINATED NORMALLY****
TOTAL RUN TIME: 0 days 0 hours 0 minutes 30 seconds 92 msec
