                         Program Version 4.2.1 -  RELEASE  -
|  1> ! wB97X-D3 SP def2-SVP
|  2> %pal
|  3> nprocs 16
|  4> end
|  5>
|  6> * xyz 0 1
|  7> S 	 -31.614 	 37.5264 	 102.101
|  8> C 	 -32.3038 	 36.0268 	 101.55
|  9> C 	 -32.9384 	 36.1236 	 100.316
| 10> C 	 -32.8741 	 37.4593 	 99.8184
| 11> C 	 -32.0953 	 38.3075 	 100.617
| 12> H 	 -33.3959 	 37.8995 	 99.0141
| 13> C 	 -33.6711 	 35.0905 	 99.5992
| 14> H 	 -32.9236 	 34.3676 	 99.6448
| 15> H 	 -33.7981 	 35.3862 	 98.5408
| 16> C 	 -35.0634 	 34.6677 	 100.137
| 17> H 	 -35.1376 	 34.0957 	 101.064
| 18> H 	 -35.6242 	 35.5777 	 100.368
| 19> C 	 -35.9361 	 33.9326 	 99.1266
| 20> H 	 -36.9495 	 33.7138 	 99.4577
| 21> H 	 -36.1145 	 34.518 	 98.1752
| 22> H 	 -35.6222 	 33.0119 	 98.7253
| 23> S 	 -31.1336 	 40.4018 	 99.1025
| 24> C 	 -31.415 	 42.0124 	 99.5231
| 25> C 	 -32.0774 	 42.0671 	 100.767
| 26> C 	 -32.4792 	 40.838 	 101.317
| 27> C 	 -32.0218 	 39.7765 	 100.481
| 28> H 	 -32.3215 	 43.0322 	 101.215
| 29> C 	 -33.3587 	 40.6257 	 102.543
| 30> H 	 -33.3603 	 41.59 	 103.009
| 31> H 	 -32.8746 	 39.8163 	 103.158
| 32> C 	 -34.7925 	 40.1747 	 102.117
| 33> H 	 -34.8442 	 39.0156 	 101.978
| 34> H 	 -34.9715 	 40.6488 	 101.148
| 35> C 	 -35.9007 	 40.7757 	 103.086
| 36> H 	 -36.8117 	 40.728 	 102.536
| 37> H 	 -35.7939 	 41.7832 	 103.316
| 38> H 	 -35.9716 	 40.2613 	 104.003
| 39> H 	 -32.4112 	 35.1471 	 102.202
| 40> H 	 -31.1743 	 42.889 	 98.8908
| 41> *
| 42>
| 43>                          ****END OF INPUT****

CARTESIAN COORDINATES (ANGSTROEM)
---------------------------------
  S    -31.614000   37.526400  102.101000
  C    -32.303800   36.026800  101.550000
  C    -32.938400   36.123600  100.316000
  C    -32.874100   37.459300   99.818400
  C    -32.095300   38.307500  100.617000
  H    -33.395900   37.899500   99.014100
  C    -33.671100   35.090500   99.599200
  H    -32.923600   34.367600   99.644800
  H    -33.798100   35.386200   98.540800
  C    -35.063400   34.667700  100.137000
  H    -35.137600   34.095700  101.064000
  H    -35.624200   35.577700  100.368000
  C    -35.936100   33.932600   99.126600
  H    -36.949500   33.713800   99.457700
  H    -36.114500   34.518000   98.175200
  H    -35.622200   33.011900   98.725300
  S    -31.133600   40.401800   99.102500
  C    -31.415000   42.012400   99.523100
  C    -32.077400   42.067100  100.767000
  C    -32.479200   40.838000  101.317000
  C    -32.021800   39.776500  100.481000
  H    -32.321500   43.032200  101.215000
  C    -33.358700   40.625700  102.543000
  H    -33.360300   41.590000  103.009000
  H    -32.874600   39.816300  103.158000
  C    -34.792500   40.174700  102.117000
  H    -34.844200   39.015600  101.978000
  H    -34.971500   40.648800  101.148000
  C    -35.900700   40.775700  103.086000
  H    -36.811700   40.728000  102.536000
  H    -35.793900   41.783200  103.316000
  H    -35.971600   40.261300  104.003000
  H    -32.411200   35.147100  102.202000
  H    -31.174300   42.889000   98.890800

 Total Charge           Charge          ....    0
 Multiplicity           Mult            ....    1
 Number of Electrons    NEL             ....  134
 Basis Dimension        Dim             ....  322

ORBITAL ENERGIES
----------------

  NO   OCC          E(Eh)            E(eV)
   0   2.0000     -88.969780     -2420.9908
   1   2.0000     -88.965134     -2420.8644
   2   2.0000     -10.327655      -281.0298
   3   2.0000     -10.323570      -280.9186
   4   2.0000     -10.315602      -280.7018
   5   2.0000     -10.315390      -280.6960
   6   2.0000     -10.301833      -280.3271
   7   2.0000     -10.299763      -280.2708
   8   2.0000     -10.295273      -280.1486
   9   2.0000     -10.293248      -280.0935
  10   2.0000     -10.292286      -280.0673
  11   2.0000     -10.292109      -280.0625
  12   2.0000     -10.291546      -280.0472
  13   2.0000     -10.288372      -279.9608
  14   2.0000     -10.277608      -279.6679
  15   2.0000     -10.267386      -279.3898
  16   2.0000      -8.084206      -219.9824
  17   2.0000      -8.080505      -219.8817
  18   2.0000      -6.042645      -164.4287
  19   2.0000      -6.038702      -164.3214
  20   2.0000      -6.038694      -164.3212
  21   2.0000      -6.035141      -164.2245
  22   2.0000      -6.034655      -164.2113
  23   2.0000      -6.031848      -164.1349
  24   2.0000      -1.005244       -27.3541
  25   2.0000      -0.985929       -26.8285
  26   2.0000      -0.917191       -24.9580
  27   2.0000      -0.901851       -24.5406
  28   2.0000      -0.864882       -23.5346
  29   2.0000      -0.854184       -23.2435
  30   2.0000      -0.846820       -23.0431
  31   2.0000      -0.809967       -22.0403
  32   2.0000      -0.785039       -21.3620
  33   2.0000      -0.769811       -20.9476
  34   2.0000      -0.713992       -19.4287
  35   2.0000      -0.702082       -19.1046
  36   2.0000      -0.686664       -18.6851
  37   2.0000      -0.658846       -17.9281
  38   2.0000      -0.642804       -17.4916
  39   2.0000      -0.613530       -16.6950
  40   2.0000      -0.589324       -16.0363
  41   2.0000      -0.576413       -15.6850
  42   2.0000      -0.557814       -15.1789
  43   2.0000      -0.556190       -15.1347
  44   2.0000      -0.528131       -14.3712
  45   2.0000      -0.522701       -14.2234
  46   2.0000      -0.520292       -14.1579
  47   2.0000      -0.513176       -13.9642
  48   2.0000      -0.505183       -13.7467
  49   2.0000      -0.494341       -13.4517
  50   2.0000      -0.488056       -13.2807
  51   2.0000      -0.476626       -12.9697
  52   2.0000      -0.473412       -12.8822
  53   2.0000      -0.466111       -12.6835
  54   2.0000      -0.460109       -12.5202
  55   2.0000      -0.446798       -12.1580
  56   2.0000      -0.441794       -12.0218
  57   2.0000      -0.440147       -11.9770
  58   2.0000      -0.435613       -11.8536
  59   2.0000      -0.429622       -11.6906
  60   2.0000      -0.422504       -11.4969
  61   2.0000      -0.416136       -11.3236
  62   2.0000      -0.412417       -11.2224
  63   2.0000      -0.336327        -9.1519
  64   2.0000      -0.330902        -9.0043
  65   2.0000      -0.326364        -8.8808
  66   2.0000      -0.291551        -7.9335
  67   0.0000       0.028970         0.7883
  68   0.0000       0.068662         1.8684
  69   0.0000       0.114854         3.1253
  70   0.0000       0.120966         3.2916
  71   0.0000       0.130671         3.5557

MULLIKEN ATOMIC CHARGES
-----------------------
   0 S :    0.119720
   1 C :   -0.140505
   2 C :   -0.088844
   3 C :    0.036733
   4 C :   -0.150281
   5 H :    0.002105
   6 C :    0.110674
   7 H :    0.023317
   8 H :    0.023353
   9 C :   -0.043135
  10 H :    0.031780
  11 H :    0.028594
  12 C :   -0.063300
  13 H :    0.026674
  14 H :    0.022541
  15 H :    0.016152
  16 S :    0.131219
  17 C :   -0.109468
  18 C :   -0.065047
  19 C :   -0.046416
  20 C :   -0.209898
  21 H :    0.014039
  22 C :    0.110195
  23 H :    0.010022
  24 H :    0.044895
  25 C :   -0.117000
  26 H :    0.063058
  27 H :    0.037590
  28 C :   -0.010634
  29 H :    0.023172
  30 H :    0.012274
  31 H :    0.029063
  32 H :    0.053947
  33 H :    0.073410
Sum of atomic charges:    0.0000000

LOEWDIN ATOMIC CHARGES
----------------------
   0 S :    0.426463
   1 C :   -0.208019
   2 C :   -0.062272
   3 C :   -0.051293
   4 C :   -0.204004
   5 H :    0.025752
   6 C :   -0.032343
   7 H :    0.031525
   8 H :    0.038479
   9 C :   -0.038374
  10 H :    0.026866
  11 H :    0.029708
  12 C :   -0.073175
  13 H :    0.027065
  14 H :    0.027729
  15 H :    0.015116
  16 S :    0.445740
  17 C :   -0.221253
  18 C :   -0.082081
  19 C :   -0.058420
  20 C :   -0.212924
  21 H :    0.028076
  22 C :   -0.033364
  23 H :    0.025116
  24 H :    0.030673
  25 C :   -0.038165
  26 H :    0.040157
  27 H :    0.023802
  28 C :   -0.056816
  29 H :    0.024741
  30 H :    0.015867
  31 H :    0.019947
  32 H :    0.030765
  33 H :    0.038915

  Mayer bond orders larger than 0.100000
B(  0-S ,  1-C ) :   1.1505 B(  0-S ,  4-C ) :   1.1615 B(  1-C ,  2-C ) :   1.5873
B(  1-C , 32-H ) :   0.9658 B(  2-C ,  3-C ) :   1.2517 B(  2-C ,  6-C ) :   1.0182
B(  3-C ,  4-C ) :   1.5604 B(  3-C ,  5-H ) :   0.9982 B(  4-C , 20-C ) :   1.0158
B(  6-C ,  7-H ) :   0.9237 B(  6-C ,  8-H ) :   0.9415 B(  6-C ,  9-C ) :   1.0498
B(  9-C , 10-H ) :   0.9552 B(  9-C , 11-H ) :   0.9556 B(  9-C , 12-C ) :   1.0867
B( 12-C , 13-H ) :   0.9735 B( 12-C , 14-H ) :   0.9718 B( 12-C , 15-H ) :   0.9762
B( 16-S , 17-C ) :   1.1946 B( 16-S , 20-C ) :   1.1878 B( 17-C , 18-C ) :   1.5287
B( 17-C , 20-C ) :   0.1166 B( 17-C , 33-H ) :   0.9661 B( 18-C , 19-C ) :   1.3166
B( 18-C , 21-H ) :   0.9863 B( 19-C , 20-C ) :   1.4988 B( 19-C , 22-C ) :   1.0440
B( 22-C , 23-H ) :   0.9307 B( 22-C , 24-H ) :   0.9268 B( 22-C , 25-C ) :   1.0512
B( 25-C , 26-H ) :   0.9516 B( 25-C , 27-H ) :   0.9644 B( 25-C , 28-C ) :   1.0742
B( 28-C , 29-H ) :   0.9772 B( 28-C , 30-H ) :   0.9761 B( 28-C , 31-H ) :   0.9779

Dispersion correction           -0.014647332
FINAL SINGLE POINT ENERGY     -1339.866028473995

DIPOLE MOMENT
-------------
                                X             Y             Z
Electronic contribution:     25.17421       9.31629      -2.78486
Nuclear contribution   :    -25.84294      -9.40604       2.80923
                        -----------------------------------------
Total Dipole Moment    :     -0.66873      -0.08975       0.02437
                        -----------------------------------------
Magnitude (a.u.)       :      0.67516
Magnitude (Debye)      :      1.71613

Rotational constants in cm-1:     0.018444     0.008189     0.007084
Rotational constants in MHz :   552.935048   245.501032   212.358265

                             ****ORCA TERMINATED NORMALLY****
TOTAL RUN TIME: 0 days 0 hours 0 minutes 29 seconds 539 msec
