                         Program Version 4.2.1 -  RELEASE  -
|  1> ! wB97X-D3 SP def2-SVP
|  2> %pal
|  3> nprocs 16
|  4> end
|  5>
|  6> * xyz 0 1
|  7> S 	 38.0424 	 17.5758 	 48.1569
|  8> C 	 38.3382 	 18.6338 	 49.5509
|  9> C 	 37.8264 	 18.1354 	 50.7255
| 10> C 	 37.4549 	 16.7018 	 50.6487
| 11> C 	 37.4444 	 16.335 	 49.2686
| 12> H 	 37.0339 	 16.0947 	 51.4004
| 13> C 	 37.554 	 19.0094 	 52.0208
| 14> H 	 38.4497 	 19.3461 	 52.5473
| 15> H 	 37.0881 	 18.3617 	 52.6802
| 16> C 	 36.5856 	 20.2161 	 51.7082
| 17> H 	 37.0056 	 20.7497 	 50.8633
| 18> H 	 35.6562 	 19.8593 	 51.1731
| 19> C 	 36.2958 	 21.1354 	 52.8647
| 20> H 	 37.2758 	 21.1197 	 53.3613
| 21> H 	 36.0834 	 22.1284 	 52.4897
| 22> H 	 35.4764 	 20.7792 	 53.4237
| 23> S 	 35.9519 	 14.8773 	 47.6086
| 24> C 	 36.0521 	 13.0861 	 47.566
| 25> C 	 37.1324 	 12.6514 	 48.3392
| 26> C 	 37.7637 	 13.7167 	 49.06
| 27> C 	 37.2253 	 14.9666 	 48.7729
| 28> H 	 37.5815 	 11.6257 	 48.1633
| 29> C 	 38.8922 	 13.4249 	 50.062
| 30> H 	 38.7062 	 12.3776 	 50.1672
| 31> H 	 38.7577 	 13.9388 	 51.0268
| 32> C 	 40.3243 	 13.605 	 49.4805
| 33> H 	 40.5257 	 13.0563 	 48.6089
| 34> H 	 40.9568 	 13.1461 	 50.253
| 35> C 	 40.6855 	 15.0171 	 49.2327
| 36> H 	 40.4365 	 15.8527 	 49.8437
| 37> H 	 40.1726 	 15.3019 	 48.3033
| 38> H 	 41.7604 	 15.101 	 49.2263
| 39> H 	 38.5988 	 19.6779 	 49.3243
| 40> H 	 35.5999 	 12.4101 	 46.8605
| 41> *
| 42>
| 43>                          ****END OF INPUT****

CARTESIAN COORDINATES (ANGSTROEM)
---------------------------------
  S     38.042400   17.575800   48.156900
  C     38.338200   18.633800   49.550900
  C     37.826400   18.135400   50.725500
  C     37.454900   16.701800   50.648700
  C     37.444400   16.335000   49.268600
  H     37.033900   16.094700   51.400400
  C     37.554000   19.009400   52.020800
  H     38.449700   19.346100   52.547300
  H     37.088100   18.361700   52.680200
  C     36.585600   20.216100   51.708200
  H     37.005600   20.749700   50.863300
  H     35.656200   19.859300   51.173100
  C     36.295800   21.135400   52.864700
  H     37.275800   21.119700   53.361300
  H     36.083400   22.128400   52.489700
  H     35.476400   20.779200   53.423700
  S     35.951900   14.877300   47.608600
  C     36.052100   13.086100   47.566000
  C     37.132400   12.651400   48.339200
  C     37.763700   13.716700   49.060000
  C     37.225300   14.966600   48.772900
  H     37.581500   11.625700   48.163300
  C     38.892200   13.424900   50.062000
  H     38.706200   12.377600   50.167200
  H     38.757700   13.938800   51.026800
  C     40.324300   13.605000   49.480500
  H     40.525700   13.056300   48.608900
  H     40.956800   13.146100   50.253000
  C     40.685500   15.017100   49.232700
  H     40.436500   15.852700   49.843700
  H     40.172600   15.301900   48.303300
  H     41.760400   15.101000   49.226300
  H     38.598800   19.677900   49.324300
  H     35.599900   12.410100   46.860500

 Total Charge           Charge          ....    0
 Multiplicity           Mult            ....    1
 Number of Electrons    NEL             ....  134
 Basis Dimension        Dim             ....  322

ORBITAL ENERGIES
----------------

  NO   OCC          E(Eh)            E(eV)
   0   2.0000     -88.971181     -2421.0289
   1   2.0000     -88.964726     -2420.8533
   2   2.0000     -10.338801      -281.3331
   3   2.0000     -10.324119      -280.9336
   4   2.0000     -10.319517      -280.8083
   5   2.0000     -10.318408      -280.7782
   6   2.0000     -10.314781      -280.6795
   7   2.0000     -10.306106      -280.4434
   8   2.0000     -10.302699      -280.3507
   9   2.0000     -10.300651      -280.2950
  10   2.0000     -10.296363      -280.1783
  11   2.0000     -10.288064      -279.9525
  12   2.0000     -10.287477      -279.9365
  13   2.0000     -10.277160      -279.6557
  14   2.0000     -10.275609      -279.6135
  15   2.0000     -10.258541      -279.1491
  16   2.0000      -8.085043      -220.0052
  17   2.0000      -8.079106      -219.8437
  18   2.0000      -6.043596      -164.4546
  19   2.0000      -6.039793      -164.3511
  20   2.0000      -6.037717      -164.2946
  21   2.0000      -6.035670      -164.2389
  22   2.0000      -6.033560      -164.1815
  23   2.0000      -6.029895      -164.0818
  24   2.0000      -1.000788       -27.2328
  25   2.0000      -0.975332       -26.5401
  26   2.0000      -0.907233       -24.6871
  27   2.0000      -0.905542       -24.6411
  28   2.0000      -0.867407       -23.6033
  29   2.0000      -0.849166       -23.1070
  30   2.0000      -0.845545       -23.0085
  31   2.0000      -0.811225       -22.0746
  32   2.0000      -0.781980       -21.2788
  33   2.0000      -0.770222       -20.9588
  34   2.0000      -0.704664       -19.1749
  35   2.0000      -0.698577       -19.0093
  36   2.0000      -0.688084       -18.7237
  37   2.0000      -0.662723       -18.0336
  38   2.0000      -0.644797       -17.5458
  39   2.0000      -0.612104       -16.6562
  40   2.0000      -0.590352       -16.0643
  41   2.0000      -0.564963       -15.3734
  42   2.0000      -0.559462       -15.2237
  43   2.0000      -0.548060       -14.9135
  44   2.0000      -0.535868       -14.5817
  45   2.0000      -0.527630       -14.3576
  46   2.0000      -0.518203       -14.1010
  47   2.0000      -0.513433       -13.9712
  48   2.0000      -0.502914       -13.6850
  49   2.0000      -0.497639       -13.5414
  50   2.0000      -0.493680       -13.4337
  51   2.0000      -0.484367       -13.1803
  52   2.0000      -0.471351       -12.8261
  53   2.0000      -0.463825       -12.6213
  54   2.0000      -0.454338       -12.3632
  55   2.0000      -0.447678       -12.1819
  56   2.0000      -0.442567       -12.0429
  57   2.0000      -0.431952       -11.7540
  58   2.0000      -0.430411       -11.7121
  59   2.0000      -0.424767       -11.5585
  60   2.0000      -0.412638       -11.2284
  61   2.0000      -0.411466       -11.1966
  62   2.0000      -0.400392       -10.8952
  63   2.0000      -0.342762        -9.3270
  64   2.0000      -0.333321        -9.0701
  65   2.0000      -0.325590        -8.8598
  66   2.0000      -0.295224        -8.0335
  67   0.0000       0.028704         0.7811
  68   0.0000       0.059637         1.6228
  69   0.0000       0.099357         2.7036
  70   0.0000       0.117372         3.1938
  71   0.0000       0.118602         3.2273

MULLIKEN ATOMIC CHARGES
-----------------------
   0 S :    0.110104
   1 C :   -0.142628
   2 C :   -0.095898
   3 C :    0.049361
   4 C :   -0.144785
   5 H :    0.016659
   6 C :    0.108422
   7 H :    0.038305
   8 H :   -0.002664
   9 C :   -0.136089
  10 H :    0.015544
  11 H :    0.031327
  12 C :    0.005370
  13 H :    0.028588
  14 H :    0.033057
  15 H :    0.038520
  16 S :    0.096362
  17 C :   -0.085553
  18 C :   -0.075189
  19 C :   -0.063716
  20 C :   -0.172204
  21 H :    0.053311
  22 C :    0.083581
  23 H :    0.003774
  24 H :    0.037551
  25 C :   -0.024837
  26 H :    0.013259
  27 H :    0.022910
  28 C :   -0.038387
  29 H :    0.020857
  30 H :    0.030822
  31 H :    0.023807
  32 H :    0.065534
  33 H :    0.054927
Sum of atomic charges:   -0.0000000

LOEWDIN ATOMIC CHARGES
----------------------
   0 S :    0.393933
   1 C :   -0.196603
   2 C :   -0.049316
   3 C :   -0.051084
   4 C :   -0.183737
   5 H :    0.028208
   6 C :   -0.022215
   7 H :    0.030268
   8 H :    0.015384
   9 C :   -0.049088
  10 H :    0.016674
  11 H :    0.028645
  12 C :   -0.059027
  13 H :    0.031003
  14 H :    0.029703
  15 H :    0.022557
  16 S :    0.400573
  17 C :   -0.180594
  18 C :   -0.079015
  19 C :   -0.063376
  20 C :   -0.211550
  21 H :    0.045674
  22 C :   -0.024924
  23 H :    0.024911
  24 H :    0.033503
  25 C :   -0.032361
  26 H :    0.020537
  27 H :    0.023177
  28 C :   -0.073876
  29 H :    0.022909
  30 H :    0.026480
  31 H :    0.026368
  32 H :    0.028221
  33 H :    0.028037

  Mayer bond orders larger than 0.100000
B(  0-S ,  1-C ) :   1.1179 B(  0-S ,  4-C ) :   1.1598 B(  1-C ,  2-C ) :   1.6452
B(  1-C , 32-H ) :   0.9637 B(  2-C ,  3-C ) :   1.2026 B(  2-C ,  6-C ) :   1.0103
B(  3-C ,  4-C ) :   1.5887 B(  3-C ,  5-H ) :   0.9949 B(  4-C , 20-C ) :   0.9996
B(  6-C ,  7-H ) :   0.9401 B(  6-C ,  8-H ) :   0.9428 B(  6-C ,  9-C ) :   1.0530
B(  9-C , 10-H ) :   0.9613 B(  9-C , 11-H ) :   0.9536 B(  9-C , 12-C ) :   1.0710
B( 12-C , 13-H ) :   0.9737 B( 12-C , 14-H ) :   0.9721 B( 12-C , 15-H ) :   0.9781
B( 16-S , 17-C ) :   1.1441 B( 16-S , 20-C ) :   1.1448 B( 17-C , 18-C ) :   1.6314
B( 17-C , 20-C ) :   0.1031 B( 17-C , 33-H ) :   0.9639 B( 18-C , 19-C ) :   1.2604
B( 18-C , 21-H ) :   0.9639 B( 19-C , 20-C ) :   1.6030 B( 19-C , 22-C ) :   1.0170
B( 22-C , 23-H ) :   0.9249 B( 22-C , 24-H ) :   0.9449 B( 22-C , 25-C ) :   1.0810
B( 25-C , 26-H ) :   0.9500 B( 25-C , 27-H ) :   0.9559 B( 25-C , 28-C ) :   1.0768
B( 28-C , 29-H ) :   0.9754 B( 28-C , 30-H ) :   0.9681 B( 28-C , 31-H ) :   0.9697

Dispersion correction           -0.015427980
FINAL SINGLE POINT ENERGY     -1339.847711098879

DIPOLE MOMENT
-------------
                                X             Y             Z
Electronic contribution:     -8.93213      -8.09128     -17.85920
Nuclear contribution   :      9.09222       8.13594      18.26804
                        -----------------------------------------
Total Dipole Moment    :      0.16009       0.04465       0.40884
                        -----------------------------------------
Magnitude (a.u.)       :      0.44134
Magnitude (Debye)      :      1.12179

Rotational constants in cm-1:     0.022910     0.007718     0.006891
Rotational constants in MHz :   686.838810   231.365092   206.586002

                             ****ORCA TERMINATED NORMALLY****
TOTAL RUN TIME: 0 days 0 hours 0 minutes 35 seconds 180 msec
