                         Program Version 4.2.1 -  RELEASE  -
|  1> ! wB97X-D3 SP def2-SVP
|  2> %pal
|  3> nprocs 16
|  4> end
|  5>
|  6> * xyz 0 1
|  7> S 	 43.9856 	 11.1976 	 78.2376
|  8> C 	 44.7792 	 10.2284 	 79.452
|  9> C 	 46.1458 	 10.2001 	 79.2029
| 10> C 	 46.5158 	 10.8693 	 78.0141
| 11> C 	 45.4641 	 11.4436 	 77.2623
| 12> H 	 47.4083 	 10.9217 	 77.5628
| 13> C 	 47.1437 	 9.47031 	 79.9868
| 14> H 	 47.2313 	 10.1634 	 80.7207
| 15> H 	 48.1429 	 9.48887 	 79.5611
| 16> C 	 46.706 	 8.13595 	 80.6133
| 17> H 	 45.7633 	 8.22399 	 81.0945
| 18> H 	 46.5522 	 7.35463 	 79.8856
| 19> C 	 47.6742 	 7.59022 	 81.6716
| 20> H 	 48.0299 	 8.28275 	 82.4925
| 21> H 	 47.2506 	 6.75722 	 82.1912
| 22> H 	 48.5945 	 7.25023 	 81.1547
| 23> S 	 45.9003 	 11.4068 	 74.5354
| 24> C 	 45.7083 	 12.8344 	 73.4716
| 25> C 	 45.3429 	 13.8927 	 74.2964
| 26> C 	 45.2192 	 13.5234 	 75.6974
| 27> C 	 45.5534 	 12.2121 	 76.0242
| 28> H 	 45.1609 	 14.9179 	 73.9207
| 29> C 	 44.6591 	 14.5188 	 76.6828
| 30> H 	 44.2777 	 13.9021 	 77.5149
| 31> H 	 43.804 	 15.0719 	 76.2314
| 32> C 	 45.6404 	 15.61 	 77.1799
| 33> H 	 45.0529 	 16.4629 	 77.5851
| 34> H 	 46.2046 	 16.0332 	 76.3259
| 35> C 	 46.8708 	 15.2363 	 78.1347
| 36> H 	 47.3489 	 16.1777 	 78.3287
| 37> H 	 47.6541 	 14.6219 	 77.7091
| 38> H 	 46.4962 	 14.8359 	 79.0612
| 39> H 	 44.2405 	 9.70553 	 80.2835
| 40> H 	 45.7065 	 12.875 	 72.403
| 41> *
| 42>
| 43>                          ****END OF INPUT****

CARTESIAN COORDINATES (ANGSTROEM)
---------------------------------
  S     43.985600   11.197600   78.237600
  C     44.779200   10.228400   79.452000
  C     46.145800   10.200100   79.202900
  C     46.515800   10.869300   78.014100
  C     45.464100   11.443600   77.262300
  H     47.408300   10.921700   77.562800
  C     47.143700    9.470310   79.986800
  H     47.231300   10.163400   80.720700
  H     48.142900    9.488870   79.561100
  C     46.706000    8.135950   80.613300
  H     45.763300    8.223990   81.094500
  H     46.552200    7.354630   79.885600
  C     47.674200    7.590220   81.671600
  H     48.029900    8.282750   82.492500
  H     47.250600    6.757220   82.191200
  H     48.594500    7.250230   81.154700
  S     45.900300   11.406800   74.535400
  C     45.708300   12.834400   73.471600
  C     45.342900   13.892700   74.296400
  C     45.219200   13.523400   75.697400
  C     45.553400   12.212100   76.024200
  H     45.160900   14.917900   73.920700
  C     44.659100   14.518800   76.682800
  H     44.277700   13.902100   77.514900
  H     43.804000   15.071900   76.231400
  C     45.640400   15.610000   77.179900
  H     45.052900   16.462900   77.585100
  H     46.204600   16.033200   76.325900
  C     46.870800   15.236300   78.134700
  H     47.348900   16.177700   78.328700
  H     47.654100   14.621900   77.709100
  H     46.496200   14.835900   79.061200
  H     44.240500    9.705530   80.283500
  H     45.706500   12.875000   72.403000

 Total Charge           Charge          ....    0
 Multiplicity           Mult            ....    1
 Number of Electrons    NEL             ....  134
 Basis Dimension        Dim             ....  322

ORBITAL ENERGIES
----------------

  NO   OCC          E(Eh)            E(eV)
   0   2.0000     -88.967390     -2420.9257
   1   2.0000     -88.963459     -2420.8188
   2   2.0000     -10.336916      -281.2818
   3   2.0000     -10.329288      -281.0742
   4   2.0000     -10.324225      -280.9364
   5   2.0000     -10.319953      -280.8202
   6   2.0000     -10.303199      -280.3643
   7   2.0000     -10.301637      -280.3218
   8   2.0000     -10.300503      -280.2909
   9   2.0000     -10.290385      -280.0156
  10   2.0000     -10.289552      -279.9930
  11   2.0000     -10.289225      -279.9840
  12   2.0000     -10.287823      -279.9459
  13   2.0000     -10.282756      -279.8080
  14   2.0000     -10.281506      -279.7740
  15   2.0000     -10.272131      -279.5189
  16   2.0000      -8.080898      -219.8924
  17   2.0000      -8.077839      -219.8092
  18   2.0000      -6.039487      -164.3428
  19   2.0000      -6.036530      -164.2623
  20   2.0000      -6.035309      -164.2291
  21   2.0000      -6.032197      -164.1444
  22   2.0000      -6.031896      -164.1362
  23   2.0000      -6.028567      -164.0456
  24   2.0000      -1.003264       -27.3002
  25   2.0000      -0.983639       -26.7662
  26   2.0000      -0.918641       -24.9975
  27   2.0000      -0.895220       -24.3602
  28   2.0000      -0.870925       -23.6991
  29   2.0000      -0.854616       -23.2553
  30   2.0000      -0.836321       -22.7574
  31   2.0000      -0.819459       -22.2986
  32   2.0000      -0.781331       -21.2611
  33   2.0000      -0.769720       -20.9451
  34   2.0000      -0.716880       -19.5073
  35   2.0000      -0.703369       -19.1396
  36   2.0000      -0.691012       -18.8034
  37   2.0000      -0.660019       -17.9600
  38   2.0000      -0.648771       -17.6539
  39   2.0000      -0.612835       -16.6761
  40   2.0000      -0.588768       -16.0212
  41   2.0000      -0.581824       -15.8322
  42   2.0000      -0.562333       -15.3019
  43   2.0000      -0.540926       -14.7194
  44   2.0000      -0.533117       -14.5069
  45   2.0000      -0.531601       -14.4656
  46   2.0000      -0.522252       -14.2112
  47   2.0000      -0.516931       -14.0664
  48   2.0000      -0.512395       -13.9430
  49   2.0000      -0.501358       -13.6426
  50   2.0000      -0.493570       -13.4307
  51   2.0000      -0.484983       -13.1971
  52   2.0000      -0.469730       -12.7820
  53   2.0000      -0.462567       -12.5871
  54   2.0000      -0.457887       -12.4597
  55   2.0000      -0.445557       -12.1242
  56   2.0000      -0.439254       -11.9527
  57   2.0000      -0.435612       -11.8536
  58   2.0000      -0.432189       -11.7605
  59   2.0000      -0.424278       -11.5452
  60   2.0000      -0.420298       -11.4369
  61   2.0000      -0.408871       -11.1259
  62   2.0000      -0.402822       -10.9614
  63   2.0000      -0.343178        -9.3383
  64   2.0000      -0.329761        -8.9732
  65   2.0000      -0.319872        -8.7042
  66   2.0000      -0.299427        -8.1478
  67   0.0000       0.032711         0.8901
  68   0.0000       0.054737         1.4895
  69   0.0000       0.112004         3.0478
  70   0.0000       0.125365         3.4114
  71   0.0000       0.131317         3.5733

MULLIKEN ATOMIC CHARGES
-----------------------
   0 S :    0.113119
   1 C :   -0.164698
   2 C :   -0.065769
   3 C :    0.074873
   4 C :   -0.165786
   5 H :   -0.042834
   6 C :    0.142867
   7 H :    0.006825
   8 H :    0.016057
   9 C :   -0.053349
  10 H :    0.012763
  11 H :    0.034592
  12 C :   -0.077995
  13 H :    0.037391
  14 H :    0.029805
  15 H :    0.033581
  16 S :    0.094390
  17 C :   -0.085946
  18 C :   -0.033700
  19 C :   -0.068414
  20 C :   -0.139195
  21 H :    0.034440
  22 C :    0.075038
  23 H :    0.017827
  24 H :    0.033235
  25 C :   -0.110273
  26 H :    0.035482
  27 H :    0.022753
  28 C :   -0.036273
  29 H :    0.022546
  30 H :    0.039502
  31 H :    0.032863
  32 H :    0.075194
  33 H :    0.059090
Sum of atomic charges:    0.0000000

LOEWDIN ATOMIC CHARGES
----------------------
   0 S :    0.405515
   1 C :   -0.211870
   2 C :   -0.058696
   3 C :   -0.042038
   4 C :   -0.183488
   5 H :    0.009923
   6 C :   -0.030989
   7 H :    0.029823
   8 H :    0.033427
   9 C :   -0.031359
  10 H :    0.017736
  11 H :    0.027494
  12 C :   -0.069812
  13 H :    0.029719
  14 H :    0.022532
  15 H :    0.026632
  16 S :    0.404986
  17 C :   -0.172688
  18 C :   -0.071731
  19 C :   -0.060101
  20 C :   -0.214865
  21 H :    0.036249
  22 C :   -0.041191
  23 H :    0.021559
  24 H :    0.037081
  25 C :   -0.044374
  26 H :    0.026305
  27 H :    0.023275
  28 C :   -0.061764
  29 H :    0.024400
  30 H :    0.025502
  31 H :    0.020267
  32 H :    0.041193
  33 H :    0.031346

  Mayer bond orders larger than 0.100000
B(  0-S ,  1-C ) :   1.1515 B(  0-S ,  4-C ) :   1.1472 B(  1-C ,  2-C ) :   1.5629
B(  1-C ,  4-C ) :   0.1081 B(  1-C , 32-H ) :   0.9632 B(  2-C ,  3-C ) :   1.2575
B(  2-C ,  6-C ) :   1.0071 B(  3-C ,  4-C ) :   1.5498 B(  3-C ,  5-H ) :   1.0154
B(  4-C , 20-C ) :   1.0308 B(  6-C ,  7-H ) :   0.9068 B(  6-C ,  8-H ) :   0.9439
B(  6-C ,  9-C ) :   1.0648 B(  9-C , 10-H ) :   0.9494 B(  9-C , 11-H ) :   0.9568
B(  9-C , 12-C ) :   1.0870 B( 12-C , 13-H ) :   0.9767 B( 12-C , 14-H ) :   0.9750
B( 12-C , 15-H ) :   0.9759 B( 16-S , 17-C ) :   1.1535 B( 16-S , 20-C ) :   1.1386
B( 17-C , 18-C ) :   1.5873 B( 17-C , 33-H ) :   0.9737 B( 18-C , 19-C ) :   1.2563
B( 18-C , 21-H ) :   0.9824 B( 19-C , 20-C ) :   1.5780 B( 19-C , 22-C ) :   1.0501
B( 22-C , 23-H ) :   0.9299 B( 22-C , 24-H ) :   0.9361 B( 22-C , 25-C ) :   1.0638
B( 25-C , 26-H ) :   0.9598 B( 25-C , 27-H ) :   0.9600 B( 25-C , 28-C ) :   1.0659
B( 28-C , 29-H ) :   0.9736 B( 28-C , 30-H ) :   0.9779 B( 28-C , 31-H ) :   0.9793

Dispersion correction           -0.014233114
FINAL SINGLE POINT ENERGY     -1339.859407470112

DIPOLE MOMENT
-------------
                                X             Y             Z
Electronic contribution:    -10.88138      -2.15193     -18.92307
Nuclear contribution   :     11.10483       2.28041      19.25277
                        -----------------------------------------
Total Dipole Moment    :      0.22345       0.12847       0.32970
                        -----------------------------------------
Magnitude (a.u.)       :      0.41850
Magnitude (Debye)      :      1.06374

Rotational constants in cm-1:     0.022704     0.007204     0.006452
Rotational constants in MHz :   680.655035   215.983081   193.432868

                             ****ORCA TERMINATED NORMALLY****
TOTAL RUN TIME: 0 days 0 hours 0 minutes 29 seconds 200 msec
