                         Program Version 4.2.1 -  RELEASE  -
|  1> ! wB97X-D3 SP def2-SVP
|  2> %pal
|  3> nprocs 16
|  4> end
|  5>
|  6> * xyz 0 1
|  7> S 	 -73.9015 	 49.4768 	 139.337
|  8> C 	 -72.57 	 50.5169 	 138.858
|  9> C 	 -73.0437 	 51.7039 	 138.275
| 10> C 	 -74.4996 	 51.6167 	 138.079
| 11> C 	 -75.0734 	 50.4424 	 138.529
| 12> H 	 -74.9897 	 52.3895 	 137.549
| 13> C 	 -72.1372 	 52.8314 	 137.743
| 14> H 	 -72.7482 	 53.704 	 137.49
| 15> H 	 -71.713 	 52.4316 	 136.835
| 16> C 	 -70.9846 	 53.1907 	 138.614
| 17> H 	 -71.3268 	 53.5908 	 139.563
| 18> H 	 -70.3695 	 52.2929 	 138.783
| 19> C 	 -69.9906 	 54.1364 	 137.889
| 20> H 	 -70.3841 	 55.1082 	 137.885
| 21> H 	 -69.0696 	 54.2954 	 138.455
| 22> H 	 -69.7787 	 53.8515 	 136.929
| 23> S 	 -77.2077 	 49.4036 	 137.226
| 24> C 	 -78.8111 	 49.4156 	 137.826
| 25> C 	 -78.8283 	 49.9626 	 139.074
| 26> C 	 -77.5415 	 50.493 	 139.515
| 27> C 	 -76.5197 	 50.2485 	 138.547
| 28> H 	 -79.7397 	 49.9086 	 139.617
| 29> C 	 -77.3491 	 51.0461 	 140.932
| 30> H 	 -78.1115 	 51.7338 	 141.321
| 31> H 	 -76.474 	 51.7218 	 140.77
| 32> C 	 -76.9759 	 49.943 	 141.961
| 33> H 	 -76.4727 	 50.404 	 142.779
| 34> H 	 -76.3061 	 49.2216 	 141.504
| 35> C 	 -78.1208 	 49.1059 	 142.5
| 36> H 	 -77.9072 	 48.2364 	 143.051
| 37> H 	 -78.7664 	 48.8814 	 141.721
| 38> H 	 -78.6765 	 49.8324 	 143.126
| 39> H 	 -71.5648 	 50.4137 	 139.224
| 40> H 	 -79.7256 	 49.0213 	 137.468
| 41> *
| 42>
| 43>                          ****END OF INPUT****

CARTESIAN COORDINATES (ANGSTROEM)
---------------------------------
  S    -73.901500   49.476800  139.337000
  C    -72.570000   50.516900  138.858000
  C    -73.043700   51.703900  138.275000
  C    -74.499600   51.616700  138.079000
  C    -75.073400   50.442400  138.529000
  H    -74.989700   52.389500  137.549000
  C    -72.137200   52.831400  137.743000
  H    -72.748200   53.704000  137.490000
  H    -71.713000   52.431600  136.835000
  C    -70.984600   53.190700  138.614000
  H    -71.326800   53.590800  139.563000
  H    -70.369500   52.292900  138.783000
  C    -69.990600   54.136400  137.889000
  H    -70.384100   55.108200  137.885000
  H    -69.069600   54.295400  138.455000
  H    -69.778700   53.851500  136.929000
  S    -77.207700   49.403600  137.226000
  C    -78.811100   49.415600  137.826000
  C    -78.828300   49.962600  139.074000
  C    -77.541500   50.493000  139.515000
  C    -76.519700   50.248500  138.547000
  H    -79.739700   49.908600  139.617000
  C    -77.349100   51.046100  140.932000
  H    -78.111500   51.733800  141.321000
  H    -76.474000   51.721800  140.770000
  C    -76.975900   49.943000  141.961000
  H    -76.472700   50.404000  142.779000
  H    -76.306100   49.221600  141.504000
  C    -78.120800   49.105900  142.500000
  H    -77.907200   48.236400  143.051000
  H    -78.766400   48.881400  141.721000
  H    -78.676500   49.832400  143.126000
  H    -71.564800   50.413700  139.224000
  H    -79.725600   49.021300  137.468000

 Total Charge           Charge          ....    0
 Multiplicity           Mult            ....    1
 Number of Electrons    NEL             ....  134
 Basis Dimension        Dim             ....  322

ORBITAL ENERGIES
----------------

  NO   OCC          E(Eh)            E(eV)
   0   2.0000     -88.969067     -2420.9714
   1   2.0000     -88.963455     -2420.8187
   2   2.0000     -10.329180      -281.0713
   3   2.0000     -10.327567      -281.0274
   4   2.0000     -10.315910      -280.7102
   5   2.0000     -10.309930      -280.5475
   6   2.0000     -10.307486      -280.4810
   7   2.0000     -10.307336      -280.4769
   8   2.0000     -10.295792      -280.1627
   9   2.0000     -10.294311      -280.1225
  10   2.0000     -10.293608      -280.1033
  11   2.0000     -10.288145      -279.9547
  12   2.0000     -10.287058      -279.9251
  13   2.0000     -10.277363      -279.6613
  14   2.0000     -10.269992      -279.4607
  15   2.0000     -10.263369      -279.2805
  16   2.0000      -8.083670      -219.9679
  17   2.0000      -8.079228      -219.8470
  18   2.0000      -6.042278      -164.4188
  19   2.0000      -6.038051      -164.3037
  20   2.0000      -6.037730      -164.2950
  21   2.0000      -6.034471      -164.2063
  22   2.0000      -6.033310      -164.1747
  23   2.0000      -6.030189      -164.0898
  24   2.0000      -1.007702       -27.4210
  25   2.0000      -0.984868       -26.7996
  26   2.0000      -0.919275       -25.0147
  27   2.0000      -0.904840       -24.6219
  28   2.0000      -0.872249       -23.7351
  29   2.0000      -0.848489       -23.0886
  30   2.0000      -0.844033       -22.9673
  31   2.0000      -0.817840       -22.2546
  32   2.0000      -0.786262       -21.3953
  33   2.0000      -0.771856       -21.0033
  34   2.0000      -0.711142       -19.3512
  35   2.0000      -0.703178       -19.1345
  36   2.0000      -0.688351       -18.7310
  37   2.0000      -0.655340       -17.8327
  38   2.0000      -0.642753       -17.4902
  39   2.0000      -0.618899       -16.8411
  40   2.0000      -0.593733       -16.1563
  41   2.0000      -0.580811       -15.8047
  42   2.0000      -0.574393       -15.6300
  43   2.0000      -0.547600       -14.9010
  44   2.0000      -0.544869       -14.8266
  45   2.0000      -0.526294       -14.3212
  46   2.0000      -0.518304       -14.1038
  47   2.0000      -0.514546       -14.0015
  48   2.0000      -0.508519       -13.8375
  49   2.0000      -0.505754       -13.7623
  50   2.0000      -0.488262       -13.2863
  51   2.0000      -0.476955       -12.9786
  52   2.0000      -0.472073       -12.8458
  53   2.0000      -0.468383       -12.7453
  54   2.0000      -0.466929       -12.7058
  55   2.0000      -0.446663       -12.1543
  56   2.0000      -0.443617       -12.0714
  57   2.0000      -0.442668       -12.0456
  58   2.0000      -0.428309       -11.6549
  59   2.0000      -0.425490       -11.5782
  60   2.0000      -0.417464       -11.3598
  61   2.0000      -0.412511       -11.2250
  62   2.0000      -0.407145       -11.0790
  63   2.0000      -0.332003        -9.0343
  64   2.0000      -0.329603        -8.9690
  65   2.0000      -0.319223        -8.6865
  66   2.0000      -0.313431        -8.5289
  67   0.0000       0.045700         1.2436
  68   0.0000       0.053956         1.4682
  69   0.0000       0.112679         3.0661
  70   0.0000       0.125486         3.4147
  71   0.0000       0.129417         3.5216

MULLIKEN ATOMIC CHARGES
-----------------------
   0 S :    0.127543
   1 C :   -0.126629
   2 C :   -0.105982
   3 C :    0.054325
   4 C :   -0.136653
   5 H :   -0.000036
   6 C :    0.086979
   7 H :    0.024036
   8 H :    0.036302
   9 C :   -0.113988
  10 H :    0.034457
  11 H :    0.031698
  12 C :    0.005012
  13 H :    0.011760
  14 H :    0.028677
  15 H :    0.011804
  16 S :    0.124263
  17 C :   -0.061386
  18 C :   -0.054076
  19 C :   -0.033191
  20 C :   -0.192230
  21 H :    0.012550
  22 C :    0.042744
  23 H :    0.031237
  24 H :    0.032290
  25 C :   -0.044507
  26 H :    0.024465
  27 H :    0.017001
  28 C :   -0.007211
  29 H :    0.034353
  30 H :    0.002664
  31 H :    0.012816
  32 H :    0.052354
  33 H :    0.036559
Sum of atomic charges:   -0.0000000

LOEWDIN ATOMIC CHARGES
----------------------
   0 S :    0.427105
   1 C :   -0.199683
   2 C :   -0.055868
   3 C :   -0.048997
   4 C :   -0.220385
   5 H :    0.024653
   6 C :   -0.031806
   7 H :    0.029802
   8 H :    0.036116
   9 C :   -0.037679
  10 H :    0.024583
  11 H :    0.024226
  12 C :   -0.052589
  13 H :    0.018758
  14 H :    0.030204
  15 H :    0.012511
  16 S :    0.447719
  17 C :   -0.200677
  18 C :   -0.076680
  19 C :   -0.049492
  20 C :   -0.218944
  21 H :    0.024675
  22 C :   -0.037044
  23 H :    0.030409
  24 H :    0.039197
  25 C :   -0.033172
  26 H :    0.019126
  27 H :    0.018264
  28 C :   -0.057452
  29 H :    0.021797
  30 H :    0.013221
  31 H :    0.025643
  32 H :    0.023801
  33 H :    0.028657

  Mayer bond orders larger than 0.100000
B(  0-S ,  1-C ) :   1.1487 B(  0-S ,  4-C ) :   1.1557 B(  1-C ,  2-C ) :   1.5962
B(  1-C , 32-H ) :   0.9657 B(  2-C ,  3-C ) :   1.2597 B(  2-C ,  6-C ) :   1.0119
B(  3-C ,  4-C ) :   1.5596 B(  3-C ,  5-H ) :   1.0003 B(  4-C , 20-C ) :   1.0109
B(  6-C ,  7-H ) :   0.9448 B(  6-C ,  8-H ) :   0.9335 B(  6-C ,  9-C ) :   1.0720
B(  9-C , 10-H ) :   0.9610 B(  9-C , 11-H ) :   0.9510 B(  9-C , 12-C ) :   1.0849
B( 12-C , 13-H ) :   0.9721 B( 12-C , 14-H ) :   0.9729 B( 12-C , 15-H ) :   0.9735
B( 16-S , 17-C ) :   1.1632 B( 16-S , 20-C ) :   1.1774 B( 17-C , 18-C ) :   1.6086
B( 17-C , 33-H ) :   0.9690 B( 18-C , 19-C ) :   1.2501 B( 18-C , 21-H ) :   0.9895
B( 19-C , 20-C ) :   1.5627 B( 19-C , 22-C ) :   1.0463 B( 22-C , 23-H ) :   0.9453
B( 22-C , 24-H ) :   0.9273 B( 22-C , 25-C ) :   1.0637 B( 25-C , 26-H ) :   0.9597
B( 25-C , 27-H ) :   0.9529 B( 25-C , 28-C ) :   1.0745 B( 28-C , 29-H ) :   0.9744
B( 28-C , 30-H ) :   0.9717 B( 28-C , 31-H ) :   0.9749

Dispersion correction           -0.014294854
FINAL SINGLE POINT ENERGY     -1339.867115369777

DIPOLE MOMENT
-------------
                                X             Y             Z
Electronic contribution:     -9.33362     -13.67411     -11.54370
Nuclear contribution   :      9.51056      14.15234      11.75342
                        -----------------------------------------
Total Dipole Moment    :      0.17693       0.47822       0.20972
                        -----------------------------------------
Magnitude (a.u.)       :      0.55135
Magnitude (Debye)      :      1.40141

Rotational constants in cm-1:     0.024391     0.006886     0.006133
Rotational constants in MHz :   731.217215   206.451445   183.860931

                             ****ORCA TERMINATED NORMALLY****
TOTAL RUN TIME: 0 days 0 hours 0 minutes 34 seconds 118 msec
