                         Program Version 4.2.1 -  RELEASE  -
|  1> ! wB97X-D3 SP def2-SVP
|  2> %pal
|  3> nprocs 16
|  4> end
|  5>
|  6> * xyz 0 1
|  7> S 	 -84.8758 	 43.3095 	 131.275
|  8> C 	 -84.7361 	 41.9492 	 132.41
|  9> C 	 -85.6985 	 40.9657 	 132.062
| 10> C 	 -86.5007 	 41.3513 	 130.908
| 11> C 	 -86.2737 	 42.6641 	 130.442
| 12> H 	 -87.1012 	 40.663 	 130.379
| 13> C 	 -85.8389 	 39.6229 	 132.815
| 14> H 	 -86.7767 	 39.288 	 132.634
| 15> H 	 -85.6934 	 39.7762 	 133.883
| 16> C 	 -84.902 	 38.4325 	 132.31
| 17> H 	 -83.8433 	 38.709 	 132.561
| 18> H 	 -85.1605 	 37.5333 	 132.92
| 19> C 	 -85.0573 	 38.0342 	 130.837
| 20> H 	 -85.9837 	 37.5974 	 130.629
| 21> H 	 -84.9876 	 38.8801 	 130.195
| 22> H 	 -84.2435 	 37.459 	 130.429
| 23> S 	 -85.8388 	 42.9612 	 127.739
| 24> C 	 -86.9535 	 43.7545 	 126.758
| 25> C 	 -87.8235 	 44.4735 	 127.469
| 26> C 	 -87.823 	 44.1385 	 128.867
| 27> C 	 -86.7615 	 43.2942 	 129.157
| 28> H 	 -88.4614 	 45.2112 	 126.961
| 29> C 	 -88.7375 	 44.7884 	 129.856
| 30> H 	 -88.7231 	 44.2682 	 130.771
| 31> H 	 -89.8123 	 44.7408 	 129.434
| 32> C 	 -88.3947 	 46.2725 	 130.246
| 33> H 	 -88.3097 	 46.8991 	 129.352
| 34> H 	 -87.36 	 46.3432 	 130.55
| 35> C 	 -89.1818 	 46.8489 	 131.469
| 36> H 	 -88.9803 	 47.9242 	 131.594
| 37> H 	 -88.9462 	 46.27 	 132.336
| 38> H 	 -90.2597 	 46.759 	 131.308
| 39> H 	 -83.9804 	 41.8334 	 133.193
| 40> H 	 -86.7191 	 43.8699 	 125.71
| 41> *
| 42>
| 43>                          ****END OF INPUT****

CARTESIAN COORDINATES (ANGSTROEM)
---------------------------------
  S    -84.875800   43.309500  131.275000
  C    -84.736100   41.949200  132.410000
  C    -85.698500   40.965700  132.062000
  C    -86.500700   41.351300  130.908000
  C    -86.273700   42.664100  130.442000
  H    -87.101200   40.663000  130.379000
  C    -85.838900   39.622900  132.815000
  H    -86.776700   39.288000  132.634000
  H    -85.693400   39.776200  133.883000
  C    -84.902000   38.432500  132.310000
  H    -83.843300   38.709000  132.561000
  H    -85.160500   37.533300  132.920000
  C    -85.057300   38.034200  130.837000
  H    -85.983700   37.597400  130.629000
  H    -84.987600   38.880100  130.195000
  H    -84.243500   37.459000  130.429000
  S    -85.838800   42.961200  127.739000
  C    -86.953500   43.754500  126.758000
  C    -87.823500   44.473500  127.469000
  C    -87.823000   44.138500  128.867000
  C    -86.761500   43.294200  129.157000
  H    -88.461400   45.211200  126.961000
  C    -88.737500   44.788400  129.856000
  H    -88.723100   44.268200  130.771000
  H    -89.812300   44.740800  129.434000
  C    -88.394700   46.272500  130.246000
  H    -88.309700   46.899100  129.352000
  H    -87.360000   46.343200  130.550000
  C    -89.181800   46.848900  131.469000
  H    -88.980300   47.924200  131.594000
  H    -88.946200   46.270000  132.336000
  H    -90.259700   46.759000  131.308000
  H    -83.980400   41.833400  133.193000
  H    -86.719100   43.869900  125.710000

 Total Charge           Charge          ....    0
 Multiplicity           Mult            ....    1
 Number of Electrons    NEL             ....  134
 Basis Dimension        Dim             ....  322

ORBITAL ENERGIES
----------------

  NO   OCC          E(Eh)            E(eV)
   0   2.0000     -88.966831     -2420.9105
   1   2.0000     -88.960527     -2420.7390
   2   2.0000     -10.336440      -281.2688
   3   2.0000     -10.327078      -281.0141
   4   2.0000     -10.322724      -280.8956
   5   2.0000     -10.309449      -280.5344
   6   2.0000     -10.307233      -280.4741
   7   2.0000     -10.304035      -280.3871
   8   2.0000     -10.299149      -280.2541
   9   2.0000     -10.295852      -280.1644
  10   2.0000     -10.293100      -280.0895
  11   2.0000     -10.290411      -280.0163
  12   2.0000     -10.290128      -280.0086
  13   2.0000     -10.285720      -279.8887
  14   2.0000     -10.279284      -279.7135
  15   2.0000     -10.267622      -279.3962
  16   2.0000      -8.080754      -219.8885
  17   2.0000      -8.077564      -219.8017
  18   2.0000      -6.039331      -164.3386
  19   2.0000      -6.035870      -164.2444
  20   2.0000      -6.035142      -164.2246
  21   2.0000      -6.031799      -164.1336
  22   2.0000      -6.031710      -164.1312
  23   2.0000      -6.028336      -164.0394
  24   2.0000      -1.012503       -27.5516
  25   2.0000      -0.980629       -26.6843
  26   2.0000      -0.903638       -24.5892
  27   2.0000      -0.902150       -24.5488
  28   2.0000      -0.864180       -23.5155
  29   2.0000      -0.849522       -23.1167
  30   2.0000      -0.840733       -22.8775
  31   2.0000      -0.815495       -22.1907
  32   2.0000      -0.785187       -21.3660
  33   2.0000      -0.772909       -21.0319
  34   2.0000      -0.703441       -19.1416
  35   2.0000      -0.700333       -19.0570
  36   2.0000      -0.692718       -18.8498
  37   2.0000      -0.657078       -17.8800
  38   2.0000      -0.639680       -17.4066
  39   2.0000      -0.616500       -16.7758
  40   2.0000      -0.601238       -16.3605
  41   2.0000      -0.572580       -15.5807
  42   2.0000      -0.553648       -15.0655
  43   2.0000      -0.548069       -14.9137
  44   2.0000      -0.533403       -14.5146
  45   2.0000      -0.522967       -14.2306
  46   2.0000      -0.517964       -14.0945
  47   2.0000      -0.511609       -13.9216
  48   2.0000      -0.507003       -13.7962
  49   2.0000      -0.497997       -13.5512
  50   2.0000      -0.483258       -13.1501
  51   2.0000      -0.477741       -13.0000
  52   2.0000      -0.473917       -12.8959
  53   2.0000      -0.466018       -12.6810
  54   2.0000      -0.459171       -12.4947
  55   2.0000      -0.452355       -12.3092
  56   2.0000      -0.442148       -12.0315
  57   2.0000      -0.435314       -11.8455
  58   2.0000      -0.434626       -11.8268
  59   2.0000      -0.428514       -11.6605
  60   2.0000      -0.422642       -11.5007
  61   2.0000      -0.413384       -11.2488
  62   2.0000      -0.407887       -11.0992
  63   2.0000      -0.335632        -9.1330
  64   2.0000      -0.323420        -8.8007
  65   2.0000      -0.321591        -8.7509
  66   2.0000      -0.313761        -8.5379
  67   0.0000       0.042472         1.1557
  68   0.0000       0.055339         1.5059
  69   0.0000       0.115977         3.1559
  70   0.0000       0.119249         3.2449
  71   0.0000       0.125692         3.4203

MULLIKEN ATOMIC CHARGES
-----------------------
   0 S :    0.103589
   1 C :   -0.123426
   2 C :   -0.130334
   3 C :    0.061327
   4 C :   -0.153402
   5 H :    0.005202
   6 C :    0.113263
   7 H :   -0.007211
   8 H :    0.035747
   9 C :   -0.100351
  10 H :    0.032384
  11 H :    0.038717
  12 C :   -0.022253
  13 H :    0.019776
  14 H :    0.020443
  15 H :    0.030857
  16 S :    0.120838
  17 C :   -0.085695
  18 C :   -0.038853
  19 C :   -0.026346
  20 C :   -0.184321
  21 H :    0.026496
  22 C :    0.071708
  23 H :    0.013434
  24 H :    0.039608
  25 C :   -0.085807
  26 H :    0.018061
  27 H :    0.019587
  28 C :   -0.038753
  29 H :    0.043797
  30 H :    0.037452
  31 H :    0.027239
  32 H :    0.059907
  33 H :    0.057322
Sum of atomic charges:   -0.0000000

LOEWDIN ATOMIC CHARGES
----------------------
   0 S :    0.402123
   1 C :   -0.195350
   2 C :   -0.060091
   3 C :   -0.055871
   4 C :   -0.204028
   5 H :    0.023854
   6 C :   -0.021368
   7 H :    0.012190
   8 H :    0.034829
   9 C :   -0.036353
  10 H :    0.023794
  11 H :    0.026916
  12 C :   -0.066840
  13 H :    0.017403
  14 H :    0.024090
  15 H :    0.030787
  16 S :    0.441096
  17 C :   -0.199514
  18 C :   -0.075731
  19 C :   -0.053459
  20 C :   -0.214709
  21 H :    0.036105
  22 C :   -0.031888
  23 H :    0.023688
  24 H :    0.039642
  25 C :   -0.044284
  26 H :    0.019782
  27 H :    0.023277
  28 C :   -0.061517
  29 H :    0.032687
  30 H :    0.024590
  31 H :    0.022700
  32 H :    0.033466
  33 H :    0.027985

  Mayer bond orders larger than 0.100000
B(  0-S ,  1-C ) :   1.1482 B(  0-S ,  4-C ) :   1.1685 B(  1-C ,  2-C ) :   1.5781
B(  1-C ,  4-C ) :   0.1045 B(  1-C , 32-H ) :   0.9702 B(  2-C ,  3-C ) :   1.2615
B(  2-C ,  6-C ) :   1.0232 B(  3-C ,  4-C ) :   1.5629 B(  3-C ,  5-H ) :   0.9956
B(  4-C , 20-C ) :   0.9766 B(  6-C ,  7-H ) :   0.9372 B(  6-C ,  8-H ) :   0.9468
B(  6-C ,  9-C ) :   1.0590 B(  9-C , 10-H ) :   0.9612 B(  9-C , 11-H ) :   0.9591
B(  9-C , 12-C ) :   1.0749 B( 12-C , 13-H ) :   0.9759 B( 12-C , 14-H ) :   0.9703
B( 12-C , 15-H ) :   0.9708 B( 16-S , 17-C ) :   1.1741 B( 16-S , 20-C ) :   1.1678
B( 17-C , 18-C ) :   1.6128 B( 17-C , 33-H ) :   0.9648 B( 18-C , 19-C ) :   1.2304
B( 18-C , 21-H ) :   0.9903 B( 19-C , 20-C ) :   1.6063 B( 19-C , 22-C ) :   1.0697
B( 22-C , 23-H ) :   0.9292 B( 22-C , 24-H ) :   0.9301 B( 22-C , 25-C ) :   1.0546
B( 25-C , 26-H ) :   0.9582 B( 25-C , 27-H ) :   0.9524 B( 25-C , 28-C ) :   1.0713
B( 28-C , 29-H ) :   0.9742 B( 28-C , 30-H ) :   0.9762 B( 28-C , 31-H ) :   0.9783

Dispersion correction           -0.014175682
FINAL SINGLE POINT ENERGY     -1339.870111257346

DIPOLE MOMENT
-------------
                                X             Y             Z
Electronic contribution:      9.12597       4.77074     -10.50373
Nuclear contribution   :     -9.27883      -4.90705      10.54419
                        -----------------------------------------
Total Dipole Moment    :     -0.15286      -0.13631       0.04047
                        -----------------------------------------
Magnitude (a.u.)       :      0.20877
Magnitude (Debye)      :      0.53065

Rotational constants in cm-1:     0.020260     0.007909     0.006563
Rotational constants in MHz :   607.380912   237.110362   196.760010

                             ****ORCA TERMINATED NORMALLY****
TOTAL RUN TIME: 0 days 0 hours 0 minutes 33 seconds 222 msec
