                         Program Version 4.2.1 -  RELEASE  -
|  1> ! wB97X-D3 SP def2-SVP
|  2> %pal
|  3> nprocs 16
|  4> end
|  5>
|  6> * xyz 0 1
|  7> S 	 -88.2187 	 51.8184 	 132.287
|  8> C 	 -88.6995 	 53.4554 	 132.312
|  9> C 	 -88.0691 	 54.1024 	 131.26
| 10> C 	 -87.3059 	 53.3095 	 130.422
| 11> C 	 -87.1557 	 52.0449 	 130.943
| 12> H 	 -86.8874 	 53.5383 	 129.539
| 13> C 	 -88.1871 	 55.5593 	 130.998
| 14> H 	 -88.9753 	 55.9558 	 131.644
| 15> H 	 -88.4501 	 55.6114 	 129.913
| 16> C 	 -86.983 	 56.5557 	 131.165
| 17> H 	 -87.404 	 57.539 	 130.975
| 18> H 	 -86.6452 	 56.5814 	 132.166
| 19> C 	 -85.7061 	 56.4136 	 130.217
| 20> H 	 -84.8567 	 56.9565 	 130.663
| 21> H 	 -85.4169 	 55.4479 	 130.327
| 22> H 	 -85.8496 	 56.644 	 129.184
| 23> S 	 -87.7053 	 49.554 	 129.947
| 24> C 	 -86.6862 	 48.8848 	 128.78
| 25> C 	 -85.5179 	 49.6302 	 128.576
| 26> C 	 -85.5735 	 50.8404 	 129.268
| 27> C 	 -86.7018 	 50.9438 	 130.094
| 28> H 	 -84.782 	 49.4011 	 127.876
| 29> C 	 -84.517 	 51.9465 	 129.2
| 30> H 	 -84.7805 	 52.6923 	 129.946
| 31> H 	 -84.6587 	 52.5581 	 128.314
| 32> C 	 -83.0739 	 51.3505 	 129.228
| 33> H 	 -82.3665 	 52.0639 	 128.874
| 34> H 	 -82.9397 	 50.6146 	 128.44
| 35> C 	 -82.6539 	 51.0817 	 130.674
| 36> H 	 -83.3609 	 50.5748 	 131.284
| 37> H 	 -82.6703 	 52.07 	 131.14
| 38> H 	 -81.7338 	 50.5487 	 130.798
| 39> H 	 -89.2706 	 54.0149 	 132.998
| 40> H 	 -86.9585 	 48.0188 	 128.159
| 41> *
| 42>
| 43>                          ****END OF INPUT****

CARTESIAN COORDINATES (ANGSTROEM)
---------------------------------
  S    -88.218700   51.818400  132.287000
  C    -88.699500   53.455400  132.312000
  C    -88.069100   54.102400  131.260000
  C    -87.305900   53.309500  130.422000
  C    -87.155700   52.044900  130.943000
  H    -86.887400   53.538300  129.539000
  C    -88.187100   55.559300  130.998000
  H    -88.975300   55.955800  131.644000
  H    -88.450100   55.611400  129.913000
  C    -86.983000   56.555700  131.165000
  H    -87.404000   57.539000  130.975000
  H    -86.645200   56.581400  132.166000
  C    -85.706100   56.413600  130.217000
  H    -84.856700   56.956500  130.663000
  H    -85.416900   55.447900  130.327000
  H    -85.849600   56.644000  129.184000
  S    -87.705300   49.554000  129.947000
  C    -86.686200   48.884800  128.780000
  C    -85.517900   49.630200  128.576000
  C    -85.573500   50.840400  129.268000
  C    -86.701800   50.943800  130.094000
  H    -84.782000   49.401100  127.876000
  C    -84.517000   51.946500  129.200000
  H    -84.780500   52.692300  129.946000
  H    -84.658700   52.558100  128.314000
  C    -83.073900   51.350500  129.228000
  H    -82.366500   52.063900  128.874000
  H    -82.939700   50.614600  128.440000
  C    -82.653900   51.081700  130.674000
  H    -83.360900   50.574800  131.284000
  H    -82.670300   52.070000  131.140000
  H    -81.733800   50.548700  130.798000
  H    -89.270600   54.014900  132.998000
  H    -86.958500   48.018800  128.159000

 Total Charge           Charge          ....    0
 Multiplicity           Mult            ....    1
 Number of Electrons    NEL             ....  134
 Basis Dimension        Dim             ....  322

ORBITAL ENERGIES
----------------

  NO   OCC          E(Eh)            E(eV)
   0   2.0000     -88.970090     -2420.9992
   1   2.0000     -88.966592     -2420.9041
   2   2.0000     -10.325594      -280.9737
   3   2.0000     -10.320365      -280.8314
   4   2.0000     -10.312583      -280.6197
   5   2.0000     -10.308149      -280.4990
   6   2.0000     -10.297262      -280.2027
   7   2.0000     -10.292495      -280.0730
   8   2.0000     -10.292103      -280.0624
   9   2.0000     -10.291822      -280.0547
  10   2.0000     -10.288707      -279.9699
  11   2.0000     -10.286340      -279.9055
  12   2.0000     -10.285967      -279.8954
  13   2.0000     -10.280397      -279.7438
  14   2.0000     -10.273425      -279.5541
  15   2.0000     -10.269101      -279.4365
  16   2.0000      -8.085432      -220.0158
  17   2.0000      -8.082742      -219.9426
  18   2.0000      -6.043850      -164.4615
  19   2.0000      -6.040939      -164.3823
  20   2.0000      -6.039746      -164.3498
  21   2.0000      -6.036950      -164.2738
  22   2.0000      -6.036361      -164.2577
  23   2.0000      -6.033855      -164.1895
  24   2.0000      -1.019315       -27.7370
  25   2.0000      -0.995643       -27.0928
  26   2.0000      -0.909582       -24.7510
  27   2.0000      -0.906729       -24.6734
  28   2.0000      -0.872866       -23.7519
  29   2.0000      -0.856833       -23.3156
  30   2.0000      -0.849295       -23.1105
  31   2.0000      -0.816738       -22.2246
  32   2.0000      -0.786287       -21.3960
  33   2.0000      -0.772960       -21.0333
  34   2.0000      -0.714577       -19.4446
  35   2.0000      -0.706391       -19.2219
  36   2.0000      -0.701148       -19.0792
  37   2.0000      -0.662735       -18.0339
  38   2.0000      -0.649351       -17.6697
  39   2.0000      -0.619479       -16.8569
  40   2.0000      -0.598382       -16.2828
  41   2.0000      -0.574918       -15.6443
  42   2.0000      -0.554828       -15.0976
  43   2.0000      -0.549760       -14.9597
  44   2.0000      -0.539190       -14.6721
  45   2.0000      -0.533697       -14.5226
  46   2.0000      -0.524978       -14.2854
  47   2.0000      -0.513426       -13.9710
  48   2.0000      -0.510387       -13.8883
  49   2.0000      -0.499488       -13.5918
  50   2.0000      -0.490947       -13.3593
  51   2.0000      -0.485334       -13.2066
  52   2.0000      -0.472835       -12.8665
  53   2.0000      -0.466741       -12.7007
  54   2.0000      -0.461713       -12.5639
  55   2.0000      -0.453062       -12.3285
  56   2.0000      -0.448955       -12.2167
  57   2.0000      -0.435762       -11.8577
  58   2.0000      -0.434677       -11.8282
  59   2.0000      -0.431622       -11.7450
  60   2.0000      -0.422608       -11.4998
  61   2.0000      -0.414357       -11.2752
  62   2.0000      -0.408425       -11.1138
  63   2.0000      -0.356262        -9.6944
  64   2.0000      -0.333753        -9.0819
  65   2.0000      -0.327550        -8.9131
  66   2.0000      -0.282921        -7.6987
  67   0.0000       0.029814         0.8113
  68   0.0000       0.075089         2.0433
  69   0.0000       0.116291         3.1645
  70   0.0000       0.125390         3.4120
  71   0.0000       0.132089         3.5943

MULLIKEN ATOMIC CHARGES
-----------------------
   0 S :    0.110994
   1 C :   -0.078939
   2 C :   -0.082833
   3 C :    0.037318
   4 C :   -0.112074
   5 H :   -0.028535
   6 C :    0.044842
   7 H :    0.015820
   8 H :    0.033519
   9 C :   -0.060407
  10 H :    0.028545
  11 H :    0.018473
  12 C :   -0.024963
  13 H :    0.032939
  14 H :    0.000804
  15 H :    0.035948
  16 S :    0.135053
  17 C :   -0.107486
  18 C :   -0.011875
  19 C :   -0.056388
  20 C :   -0.165090
  21 H :   -0.008742
  22 C :    0.045604
  23 H :    0.019683
  24 H :    0.029473
  25 C :   -0.039451
  26 H :    0.010824
  27 H :    0.021255
  28 C :   -0.010554
  29 H :    0.021653
  30 H :    0.022150
  31 H :    0.034316
  32 H :    0.023495
  33 H :    0.064631
Sum of atomic charges:   -0.0000000

LOEWDIN ATOMIC CHARGES
----------------------
   0 S :    0.436811
   1 C :   -0.210881
   2 C :   -0.067559
   3 C :   -0.047692
   4 C :   -0.195090
   5 H :    0.011845
   6 C :   -0.036136
   7 H :    0.029454
   8 H :    0.037630
   9 C :   -0.029377
  10 H :    0.023866
  11 H :    0.017103
  12 C :   -0.061143
  13 H :    0.034854
  14 H :    0.007705
  15 H :    0.021960
  16 S :    0.450888
  17 C :   -0.209627
  18 C :   -0.066082
  19 C :   -0.058589
  20 C :   -0.212811
  21 H :    0.020257
  22 C :   -0.031082
  23 H :    0.027188
  24 H :    0.029216
  25 C :   -0.037623
  26 H :    0.021300
  27 H :    0.021011
  28 C :   -0.059574
  29 H :    0.020987
  30 H :    0.031244
  31 H :    0.023120
  32 H :    0.023883
  33 H :    0.032944

  Mayer bond orders larger than 0.100000
B(  0-S ,  1-C ) :   1.1397 B(  0-S ,  4-C ) :   1.1737 B(  1-C ,  2-C ) :   1.5700
B(  1-C , 32-H ) :   0.9730 B(  2-C ,  3-C ) :   1.2713 B(  2-C ,  6-C ) :   1.0391
B(  3-C ,  4-C ) :   1.4994 B(  3-C ,  5-H ) :   1.0154 B(  4-C , 20-C ) :   1.0454
B(  6-C ,  7-H ) :   0.9369 B(  6-C ,  8-H ) :   0.9357 B(  6-C ,  9-C ) :   1.0702
B(  9-C , 10-H ) :   0.9579 B(  9-C , 11-H ) :   0.9572 B(  9-C , 12-C ) :   1.0737
B( 12-C , 13-H ) :   0.9695 B( 12-C , 14-H ) :   0.9750 B( 12-C , 15-H ) :   0.9777
B( 16-S , 17-C ) :   1.1954 B( 16-S , 20-C ) :   1.1670 B( 17-C , 18-C ) :   1.5379
B( 17-C , 33-H ) :   0.9645 B( 18-C , 19-C ) :   1.3089 B( 18-C , 21-H ) :   1.0016
B( 19-C , 20-C ) :   1.5466 B( 19-C , 22-C ) :   1.0357 B( 22-C , 23-H ) :   0.9347
B( 22-C , 24-H ) :   0.9269 B( 22-C , 25-C ) :   1.0734 B( 25-C , 26-H ) :   0.9505
B( 25-C , 27-H ) :   0.9555 B( 25-C , 28-C ) :   1.0585 B( 28-C , 29-H ) :   0.9800
B( 28-C , 30-H ) :   0.9701 B( 28-C , 31-H ) :   0.9755

Dispersion correction           -0.014817896
FINAL SINGLE POINT ENERGY     -1339.854440109460

DIPOLE MOMENT
-------------
                                X             Y             Z
Electronic contribution:    -19.30209     -20.29095       5.10608
Nuclear contribution   :     19.55154      20.79825      -5.46042
                        -----------------------------------------
Total Dipole Moment    :      0.24945       0.50730      -0.35433
                        -----------------------------------------
Magnitude (a.u.)       :      0.66718
Magnitude (Debye)      :      1.69584

Rotational constants in cm-1:     0.017631     0.010108     0.007353
Rotational constants in MHz :   528.569347   303.037877   220.433708

                             ****ORCA TERMINATED NORMALLY****
TOTAL RUN TIME: 0 days 0 hours 0 minutes 33 seconds 996 msec
