                         Program Version 4.2.1 -  RELEASE  -
|  1> ! wB97X-D3 SP def2-SVP
|  2> %pal
|  3> nprocs 16
|  4> end
|  5>
|  6> * xyz 0 1
|  7> S 	 -61.6904 	 48.3394 	 124.357
|  8> C 	 -62.4011 	 46.7061 	 124.334
|  9> C 	 -62.7118 	 46.3533 	 123.016
| 10> C 	 -62.2741 	 47.37 	 122.036
| 11> C 	 -61.7294 	 48.5142 	 122.646
| 12> H 	 -62.2847 	 47.3129 	 120.874
| 13> C 	 -63.2553 	 45.012 	 122.505
| 14> H 	 -64.3622 	 44.9606 	 122.447
| 15> H 	 -62.9978 	 44.2309 	 123.262
| 16> C 	 -62.6154 	 44.4811 	 121.185
| 17> H 	 -62.7728 	 45.1977 	 120.396
| 18> H 	 -61.5772 	 44.4604 	 121.344
| 19> C 	 -63.102 	 43.1004 	 120.863
| 20> H 	 -64.1766 	 42.9918 	 120.708
| 21> H 	 -62.6139 	 42.8799 	 119.931
| 22> H 	 -62.7922 	 42.2938 	 121.51
| 23> S 	 -62.0368 	 50.2471 	 120.558
| 24> C 	 -60.7786 	 51.3509 	 120.131
| 25> C 	 -59.6289 	 51.0666 	 120.831
| 26> C 	 -59.727 	 50.1163 	 121.909
| 27> C 	 -61.0101 	 49.517 	 121.878
| 28> H 	 -58.8031 	 51.727 	 120.622
| 29> C 	 -58.5224 	 49.787 	 122.708
| 30> H 	 -58.7839 	 49.6949 	 123.74
| 31> H 	 -57.8667 	 50.628 	 122.608
| 32> C 	 -57.6855 	 48.5471 	 122.271
| 33> H 	 -56.7824 	 48.6186 	 122.867
| 34> H 	 -57.3134 	 48.7421 	 121.306
| 35> C 	 -58.3572 	 47.1833 	 122.165
| 36> H 	 -59.1071 	 47.1287 	 121.429
| 37> H 	 -58.7742 	 46.911 	 123.127
| 38> H 	 -57.6211 	 46.3806 	 121.918
| 39> H 	 -62.4489 	 46.0813 	 125.245
| 40> H 	 -60.7128 	 52.1452 	 119.459
| 41> *
| 42>
| 43>                          ****END OF INPUT****

CARTESIAN COORDINATES (ANGSTROEM)
---------------------------------
  S    -61.690400   48.339400  124.357000
  C    -62.401100   46.706100  124.334000
  C    -62.711800   46.353300  123.016000
  C    -62.274100   47.370000  122.036000
  C    -61.729400   48.514200  122.646000
  H    -62.284700   47.312900  120.874000
  C    -63.255300   45.012000  122.505000
  H    -64.362200   44.960600  122.447000
  H    -62.997800   44.230900  123.262000
  C    -62.615400   44.481100  121.185000
  H    -62.772800   45.197700  120.396000
  H    -61.577200   44.460400  121.344000
  C    -63.102000   43.100400  120.863000
  H    -64.176600   42.991800  120.708000
  H    -62.613900   42.879900  119.931000
  H    -62.792200   42.293800  121.510000
  S    -62.036800   50.247100  120.558000
  C    -60.778600   51.350900  120.131000
  C    -59.628900   51.066600  120.831000
  C    -59.727000   50.116300  121.909000
  C    -61.010100   49.517000  121.878000
  H    -58.803100   51.727000  120.622000
  C    -58.522400   49.787000  122.708000
  H    -58.783900   49.694900  123.740000
  H    -57.866700   50.628000  122.608000
  C    -57.685500   48.547100  122.271000
  H    -56.782400   48.618600  122.867000
  H    -57.313400   48.742100  121.306000
  C    -58.357200   47.183300  122.165000
  H    -59.107100   47.128700  121.429000
  H    -58.774200   46.911000  123.127000
  H    -57.621100   46.380600  121.918000
  H    -62.448900   46.081300  125.245000
  H    -60.712800   52.145200  119.459000

 Total Charge           Charge          ....    0
 Multiplicity           Mult            ....    1
 Number of Electrons    NEL             ....  134
 Basis Dimension        Dim             ....  322

ORBITAL ENERGIES
----------------

  NO   OCC          E(Eh)            E(eV)
   0   2.0000     -88.968834     -2420.9651
   1   2.0000     -88.966246     -2420.8946
   2   2.0000     -10.335908      -281.2543
   3   2.0000     -10.330840      -281.1164
   4   2.0000     -10.323406      -280.9142
   5   2.0000     -10.313128      -280.6345
   6   2.0000     -10.309838      -280.5449
   7   2.0000     -10.308526      -280.5093
   8   2.0000     -10.305681      -280.4318
   9   2.0000     -10.296477      -280.1814
  10   2.0000     -10.289081      -279.9801
  11   2.0000     -10.287201      -279.9290
  12   2.0000     -10.282041      -279.7886
  13   2.0000     -10.280184      -279.7380
  14   2.0000     -10.274514      -279.5837
  15   2.0000     -10.269865      -279.4572
  16   2.0000      -8.083099      -219.9523
  17   2.0000      -8.079959      -219.8669
  18   2.0000      -6.041711      -164.4033
  19   2.0000      -6.038582      -164.3182
  20   2.0000      -6.037540      -164.2898
  21   2.0000      -6.034569      -164.2090
  22   2.0000      -6.033905      -164.1909
  23   2.0000      -6.030685      -164.1033
  24   2.0000      -1.000047       -27.2127
  25   2.0000      -0.977270       -26.5929
  26   2.0000      -0.911442       -24.8016
  27   2.0000      -0.909196       -24.7405
  28   2.0000      -0.870615       -23.6906
  29   2.0000      -0.849809       -23.1245
  30   2.0000      -0.843852       -22.9624
  31   2.0000      -0.806848       -21.9555
  32   2.0000      -0.786120       -21.3914
  33   2.0000      -0.773642       -21.0519
  34   2.0000      -0.714317       -19.4375
  35   2.0000      -0.702318       -19.1110
  36   2.0000      -0.690651       -18.7936
  37   2.0000      -0.662422       -18.0254
  38   2.0000      -0.632077       -17.1997
  39   2.0000      -0.611255       -16.6331
  40   2.0000      -0.593232       -16.1427
  41   2.0000      -0.569706       -15.5025
  42   2.0000      -0.563622       -15.3369
  43   2.0000      -0.546444       -14.8695
  44   2.0000      -0.542118       -14.7518
  45   2.0000      -0.524705       -14.2779
  46   2.0000      -0.515228       -14.0201
  47   2.0000      -0.505854       -13.7650
  48   2.0000      -0.503151       -13.6914
  49   2.0000      -0.496728       -13.5167
  50   2.0000      -0.495268       -13.4769
  51   2.0000      -0.482334       -13.1250
  52   2.0000      -0.476125       -12.9560
  53   2.0000      -0.465359       -12.6631
  54   2.0000      -0.458315       -12.4714
  55   2.0000      -0.448025       -12.1914
  56   2.0000      -0.444604       -12.0983
  57   2.0000      -0.434117       -11.8129
  58   2.0000      -0.430701       -11.7200
  59   2.0000      -0.425243       -11.5715
  60   2.0000      -0.417164       -11.3516
  61   2.0000      -0.414434       -11.2773
  62   2.0000      -0.411200       -11.1893
  63   2.0000      -0.346412        -9.4263
  64   2.0000      -0.329914        -8.9774
  65   2.0000      -0.327725        -8.9178
  66   2.0000      -0.288609        -7.8534
  67   0.0000       0.025132         0.6839
  68   0.0000       0.069764         1.8984
  69   0.0000       0.102733         2.7955
  70   0.0000       0.121647         3.3102
  71   0.0000       0.128412         3.4943

MULLIKEN ATOMIC CHARGES
-----------------------
   0 S :    0.105776
   1 C :   -0.155513
   2 C :   -0.042033
   3 C :   -0.045166
   4 C :   -0.104238
   5 H :    0.060427
   6 C :    0.021971
   7 H :    0.046296
   8 H :    0.020187
   9 C :   -0.074676
  10 H :    0.032342
  11 H :    0.022485
  12 C :   -0.024154
  13 H :    0.032303
  14 H :    0.021586
  15 H :    0.029985
  16 S :    0.098515
  17 C :   -0.041481
  18 C :   -0.076457
  19 C :   -0.027124
  20 C :   -0.187354
  21 H :    0.013409
  22 C :    0.097182
  23 H :    0.021558
  24 H :    0.008517
  25 C :   -0.040668
  26 H :    0.024551
  27 H :    0.000921
  28 C :   -0.024395
  29 H :    0.030879
  30 H :    0.024925
  31 H :    0.032142
  32 H :    0.070068
  33 H :    0.027238
Sum of atomic charges:   -0.0000000

LOEWDIN ATOMIC CHARGES
----------------------
   0 S :    0.410246
   1 C :   -0.199677
   2 C :   -0.058289
   3 C :   -0.081655
   4 C :   -0.215912
   5 H :    0.044676
   6 C :   -0.038883
   7 H :    0.033401
   8 H :    0.031077
   9 C :   -0.035749
  10 H :    0.020286
  11 H :    0.022169
  12 C :   -0.062818
  13 H :    0.026193
  14 H :    0.028580
  15 H :    0.025508
  16 S :    0.393688
  17 C :   -0.187648
  18 C :   -0.074238
  19 C :   -0.051588
  20 C :   -0.169155
  21 H :    0.026949
  22 C :   -0.028226
  23 H :    0.025403
  24 H :    0.031683
  25 C :   -0.032579
  26 H :    0.025387
  27 H :    0.016098
  28 C :   -0.060309
  29 H :    0.019938
  30 H :    0.021878
  31 H :    0.033174
  32 H :    0.037719
  33 H :    0.022673

  Mayer bond orders larger than 0.100000
B(  0-S ,  1-C ) :   1.1254 B(  0-S ,  4-C ) :   1.1531 B(  1-C ,  2-C ) :   1.6067
B(  1-C , 32-H ) :   0.9698 B(  2-C ,  3-C ) :   1.2398 B(  2-C ,  6-C ) :   1.0166
B(  3-C ,  4-C ) :   1.5545 B(  3-C ,  5-H ) :   0.9660 B(  4-C , 20-C ) :   1.0437
B(  6-C ,  7-H ) :   0.9387 B(  6-C ,  8-H ) :   0.9506 B(  6-C ,  9-C ) :   1.0683
B(  9-C , 10-H ) :   0.9473 B(  9-C , 11-H ) :   0.9540 B(  9-C , 12-C ) :   1.0957
B( 12-C , 13-H ) :   0.9737 B( 12-C , 14-H ) :   0.9678 B( 12-C , 15-H ) :   0.9721
B( 16-S , 17-C ) :   1.1385 B( 16-S , 20-C ) :   1.1296 B( 17-C , 18-C ) :   1.6511
B( 17-C , 33-H ) :   0.9680 B( 18-C , 19-C ) :   1.2195 B( 18-C , 21-H ) :   0.9804
B( 19-C , 20-C ) :   1.5711 B( 19-C , 22-C ) :   1.0594 B( 22-C , 23-H ) :   0.9275
B( 22-C , 24-H ) :   0.9197 B( 22-C , 25-C ) :   1.0788 B( 25-C , 26-H ) :   0.9534
B( 25-C , 27-H ) :   0.9478 B( 25-C , 28-C ) :   1.0829 B( 28-C , 29-H ) :   0.9714
B( 28-C , 30-H ) :   0.9757 B( 28-C , 31-H ) :   0.9698

Dispersion correction           -0.015420804
FINAL SINGLE POINT ENERGY     -1339.869448093184

DIPOLE MOMENT
-------------
                                X             Y             Z
Electronic contribution:     -8.56274      21.71717       4.99886
Nuclear contribution   :      9.01352     -22.12520      -5.17525
                        -----------------------------------------
Total Dipole Moment    :      0.45078      -0.40803      -0.17639
                        -----------------------------------------
Magnitude (a.u.)       :      0.63309
Magnitude (Debye)      :      1.60919

Rotational constants in cm-1:     0.018971     0.008483     0.007982
Rotational constants in MHz :   568.733349   254.307531   239.290853

                             ****ORCA TERMINATED NORMALLY****
TOTAL RUN TIME: 0 days 0 hours 0 minutes 32 seconds 741 msec
