                         Program Version 4.2.1 -  RELEASE  -
|  1> ! wB97X-D3 SP def2-SVP
|  2> %pal
|  3> nprocs 16
|  4> end
|  5>
|  6> * xyz 0 1
|  7> S 	 42.3854 	 22.7718 	 45.2233
|  8> C 	 40.7433 	 22.3437 	 45.1111
|  9> C 	 39.9643 	 23.5188 	 45.0502
| 10> C 	 40.664 	 24.6965 	 45.3371
| 11> C 	 41.9871 	 24.4548 	 45.5374
| 12> H 	 40.188 	 25.6568 	 45.4005
| 13> C 	 38.4631 	 23.4973 	 44.7764
| 14> H 	 38.1688 	 22.7369 	 44.0275
| 15> H 	 38.2311 	 24.4136 	 44.1205
| 16> C 	 37.537 	 23.4757 	 46.0233
| 17> H 	 37.7704 	 24.3003 	 46.7101
| 18> H 	 36.4527 	 23.548 	 45.756
| 19> C 	 37.5735 	 22.0894 	 46.7845
| 20> H 	 37.1258 	 22.3098 	 47.7845
| 21> H 	 37.1439 	 21.2171 	 46.1729
| 22> H 	 38.5335 	 21.7846 	 47.1378
| 23> S 	 44.6851 	 24.9001 	 45.7814
| 24> C 	 45.1418 	 26.286 	 46.7183
| 25> C 	 44.1024 	 26.9913 	 47.2486
| 26> C 	 42.89 	 26.5331 	 46.8172
| 27> C 	 42.985 	 25.3529 	 46.0384
| 28> H 	 44.317 	 27.9001 	 47.8762
| 29> C 	 41.5977 	 27.1839 	 47.3233
| 30> H 	 40.9688 	 27.3294 	 46.3995
| 31> H 	 41.6961 	 28.2367 	 47.781
| 32> C 	 40.9036 	 26.341 	 48.3883
| 33> H 	 41.6378 	 26.0459 	 49.1007
| 34> H 	 40.471 	 25.4854 	 47.8435
| 35> C 	 39.7144 	 26.9756 	 49.142
| 36> H 	 40.0098 	 27.977 	 49.3878
| 37> H 	 39.3838 	 26.3901 	 49.9847
| 38> H 	 38.7851 	 26.9905 	 48.5075
| 39> H 	 40.4595 	 21.3333 	 45.0213
| 40> H 	 46.1386 	 26.4684 	 47.0379
| 41> *
| 42>
| 43>                          ****END OF INPUT****

CARTESIAN COORDINATES (ANGSTROEM)
---------------------------------
  S     42.385400   22.771800   45.223300
  C     40.743300   22.343700   45.111100
  C     39.964300   23.518800   45.050200
  C     40.664000   24.696500   45.337100
  C     41.987100   24.454800   45.537400
  H     40.188000   25.656800   45.400500
  C     38.463100   23.497300   44.776400
  H     38.168800   22.736900   44.027500
  H     38.231100   24.413600   44.120500
  C     37.537000   23.475700   46.023300
  H     37.770400   24.300300   46.710100
  H     36.452700   23.548000   45.756000
  C     37.573500   22.089400   46.784500
  H     37.125800   22.309800   47.784500
  H     37.143900   21.217100   46.172900
  H     38.533500   21.784600   47.137800
  S     44.685100   24.900100   45.781400
  C     45.141800   26.286000   46.718300
  C     44.102400   26.991300   47.248600
  C     42.890000   26.533100   46.817200
  C     42.985000   25.352900   46.038400
  H     44.317000   27.900100   47.876200
  C     41.597700   27.183900   47.323300
  H     40.968800   27.329400   46.399500
  H     41.696100   28.236700   47.781000
  C     40.903600   26.341000   48.388300
  H     41.637800   26.045900   49.100700
  H     40.471000   25.485400   47.843500
  C     39.714400   26.975600   49.142000
  H     40.009800   27.977000   49.387800
  H     39.383800   26.390100   49.984700
  H     38.785100   26.990500   48.507500
  H     40.459500   21.333300   45.021300
  H     46.138600   26.468400   47.037900

 Total Charge           Charge          ....    0
 Multiplicity           Mult            ....    1
 Number of Electrons    NEL             ....  134
 Basis Dimension        Dim             ....  322

ORBITAL ENERGIES
----------------

  NO   OCC          E(Eh)            E(eV)
   0   2.0000     -88.970329     -2421.0057
   1   2.0000     -88.965518     -2420.8748
   2   2.0000     -10.330056      -281.0951
   3   2.0000     -10.327176      -281.0167
   4   2.0000     -10.310615      -280.5661
   5   2.0000     -10.310309      -280.5578
   6   2.0000     -10.303671      -280.3771
   7   2.0000     -10.302653      -280.3495
   8   2.0000     -10.301741      -280.3246
   9   2.0000     -10.298817      -280.2451
  10   2.0000     -10.296907      -280.1931
  11   2.0000     -10.290421      -280.0166
  12   2.0000     -10.289465      -279.9906
  13   2.0000     -10.284069      -279.8437
  14   2.0000     -10.280693      -279.7519
  15   2.0000     -10.278943      -279.7043
  16   2.0000      -8.084883      -220.0009
  17   2.0000      -8.081334      -219.9043
  18   2.0000      -6.043252      -164.4452
  19   2.0000      -6.039749      -164.3499
  20   2.0000      -6.039572      -164.3451
  21   2.0000      -6.035755      -164.2412
  22   2.0000      -6.035683      -164.2393
  23   2.0000      -6.032080      -164.1413
  24   2.0000      -1.014534       -27.6069
  25   2.0000      -0.990999       -26.9665
  26   2.0000      -0.909269       -24.7425
  27   2.0000      -0.901943       -24.5431
  28   2.0000      -0.872329       -23.7373
  29   2.0000      -0.858316       -23.3560
  30   2.0000      -0.847594       -23.0642
  31   2.0000      -0.811824       -22.0908
  32   2.0000      -0.782342       -21.2886
  33   2.0000      -0.767551       -20.8861
  34   2.0000      -0.709554       -19.3080
  35   2.0000      -0.696406       -18.9502
  36   2.0000      -0.688394       -18.7322
  37   2.0000      -0.663441       -18.0531
  38   2.0000      -0.643305       -17.5052
  39   2.0000      -0.628942       -17.1144
  40   2.0000      -0.598012       -16.2727
  41   2.0000      -0.570625       -15.5275
  42   2.0000      -0.563629       -15.3371
  43   2.0000      -0.541384       -14.7318
  44   2.0000      -0.535644       -14.5756
  45   2.0000      -0.523912       -14.2564
  46   2.0000      -0.521000       -14.1771
  47   2.0000      -0.512408       -13.9433
  48   2.0000      -0.506731       -13.7889
  49   2.0000      -0.496528       -13.5112
  50   2.0000      -0.489998       -13.3335
  51   2.0000      -0.488732       -13.2991
  52   2.0000      -0.473126       -12.8744
  53   2.0000      -0.460872       -12.5410
  54   2.0000      -0.458808       -12.4848
  55   2.0000      -0.453593       -12.3429
  56   2.0000      -0.439211       -11.9515
  57   2.0000      -0.437863       -11.9149
  58   2.0000      -0.433060       -11.7842
  59   2.0000      -0.420710       -11.4481
  60   2.0000      -0.417972       -11.3736
  61   2.0000      -0.411704       -11.2030
  62   2.0000      -0.405574       -11.0362
  63   2.0000      -0.362318        -9.8592
  64   2.0000      -0.344378        -9.3710
  65   2.0000      -0.331261        -9.0141
  66   2.0000      -0.272711        -7.4209
  67   0.0000       0.014827         0.4035
  68   0.0000       0.074196         2.0190
  69   0.0000       0.098411         2.6779
  70   0.0000       0.120534         3.2799
  71   0.0000       0.125217         3.4073

MULLIKEN ATOMIC CHARGES
-----------------------
   0 S :    0.105160
   1 C :   -0.107913
   2 C :   -0.072627
   3 C :   -0.011780
   4 C :   -0.083390
   5 H :    0.001994
   6 C :    0.018895
   7 H :    0.027607
   8 H :    0.031993
   9 C :   -0.064540
  10 H :    0.032840
  11 H :    0.041925
  12 C :   -0.086824
  13 H :    0.034591
  14 H :    0.052349
  15 H :    0.022541
  16 S :    0.105715
  17 C :   -0.067626
  18 C :   -0.061931
  19 C :   -0.019381
  20 C :   -0.133651
  21 H :    0.038498
  22 C :   -0.006262
  23 H :    0.040662
  24 H :    0.029095
  25 C :   -0.068198
  26 H :    0.029229
  27 H :    0.040350
  28 C :   -0.032828
  29 H :    0.022215
  30 H :    0.036697
  31 H :    0.026917
  32 H :    0.037454
  33 H :    0.040225
Sum of atomic charges:   -0.0000000

LOEWDIN ATOMIC CHARGES
----------------------
   0 S :    0.418634
   1 C :   -0.202934
   2 C :   -0.061856
   3 C :   -0.067568
   4 C :   -0.182579
   5 H :    0.031708
   6 C :   -0.047722
   7 H :    0.030837
   8 H :    0.036953
   9 C :   -0.041871
  10 H :    0.023571
  11 H :    0.031105
  12 C :   -0.080754
  13 H :    0.033397
  14 H :    0.035075
  15 H :    0.014885
  16 S :    0.404072
  17 C :   -0.182456
  18 C :   -0.078363
  19 C :   -0.056250
  20 C :   -0.183888
  21 H :    0.046111
  22 C :   -0.038404
  23 H :    0.030292
  24 H :    0.033881
  25 C :   -0.043792
  26 H :    0.022369
  27 H :    0.027696
  28 C :   -0.064094
  29 H :    0.017319
  30 H :    0.027167
  31 H :    0.027538
  32 H :    0.019252
  33 H :    0.020668

  Mayer bond orders larger than 0.100000
B(  0-S ,  1-C ) :   1.1587 B(  0-S ,  4-C ) :   1.1518 B(  1-C ,  2-C ) :   1.5496
B(  1-C ,  4-C ) :   0.1015 B(  1-C , 32-H ) :   0.9845 B(  2-C ,  3-C ) :   1.2762
B(  2-C ,  6-C ) :   1.0226 B(  3-C ,  4-C ) :   1.5217 B(  3-C ,  5-H ) :   1.0031
B(  4-C , 20-C ) :   1.1104 B(  6-C ,  7-H ) :   0.9471 B(  6-C ,  8-H ) :   0.9421
B(  6-C ,  9-C ) :   1.0626 B(  9-C , 10-H ) :   0.9586 B(  9-C , 11-H ) :   0.9562
B(  9-C , 12-C ) :   1.0680 B( 12-C , 13-H ) :   0.9717 B( 12-C , 14-H ) :   0.9754
B( 12-C , 15-H ) :   0.9749 B( 16-S , 17-C ) :   1.1613 B( 16-S , 20-C ) :   1.1395
B( 17-C , 18-C ) :   1.5990 B( 17-C , 20-C ) :   0.1097 B( 17-C , 33-H ) :   0.9642
B( 18-C , 19-C ) :   1.2929 B( 18-C , 21-H ) :   0.9819 B( 19-C , 20-C ) :   1.5359
B( 19-C , 22-C ) :   1.0309 B( 22-C , 23-H ) :   0.9327 B( 22-C , 24-H ) :   0.9384
B( 22-C , 25-C ) :   1.0630 B( 25-C , 26-H ) :   0.9538 B( 25-C , 27-H ) :   0.9490
B( 25-C , 28-C ) :   1.0871 B( 28-C , 29-H ) :   0.9738 B( 28-C , 30-H ) :   0.9740
B( 28-C , 31-H ) :   0.9747

Dispersion correction           -0.015211032
FINAL SINGLE POINT ENERGY     -1339.869554954027

DIPOLE MOMENT
-------------
                                X             Y             Z
Electronic contribution:     28.71943      -5.17629     -12.47424
Nuclear contribution   :    -29.14711       5.40120      12.80233
                        -----------------------------------------
Total Dipole Moment    :     -0.42769       0.22491       0.32809
                        -----------------------------------------
Magnitude (a.u.)       :      0.58408
Magnitude (Debye)      :      1.48460

Rotational constants in cm-1:     0.019181     0.010011     0.007108
Rotational constants in MHz :   575.039227   300.130467   213.095759

                             ****ORCA TERMINATED NORMALLY****
TOTAL RUN TIME: 0 days 0 hours 0 minutes 34 seconds 845 msec
