                         Program Version 4.2.1 -  RELEASE  -
|  1> ! wB97X-D3 SP def2-SVP
|  2> %pal
|  3> nprocs 16
|  4> end
|  5>
|  6> * xyz 0 1
|  7> S 	 41.2071 	 21.7779 	 86.2386
|  8> C 	 39.8746 	 22.0969 	 87.3549
|  9> C 	 39.1997 	 23.227 	 86.9429
| 10> C 	 39.6683 	 23.793 	 85.7175
| 11> C 	 40.8174 	 23.1619 	 85.2226
| 12> H 	 39.3531 	 24.7267 	 85.2131
| 13> C 	 37.9457 	 23.8794 	 87.6181
| 14> H 	 38.1926 	 24.769 	 88.19
| 15> H 	 37.6381 	 23.0611 	 88.2578
| 16> C 	 36.8673 	 24.226 	 86.5945
| 17> H 	 37.282 	 25.0179 	 85.8598
| 18> H 	 36.5873 	 23.3793 	 85.9863
| 19> C 	 35.5962 	 24.8853 	 87.1583
| 20> H 	 34.9831 	 25.1993 	 86.2686
| 21> H 	 34.8542 	 24.3115 	 87.8327
| 22> H 	 35.7091 	 25.7823 	 87.7235
| 23> S 	 43.4584 	 23.8221 	 84.538
| 24> C 	 43.7775 	 24.1365 	 82.9293
| 25> C 	 42.671 	 24.168 	 82.0958
| 26> C 	 41.453 	 23.8673 	 82.8033
| 27> C 	 41.778 	 23.5627 	 84.1563
| 28> H 	 42.7587 	 24.28 	 81.0156
| 29> C 	 40.0923 	 23.6536 	 82.0754
| 30> H 	 39.6213 	 22.7569 	 82.5579
| 31> H 	 40.4329 	 23.2623 	 81.144
| 32> C 	 39.0661 	 24.8261 	 81.9781
| 33> H 	 38.7532 	 25.1263 	 82.9456
| 34> H 	 38.2262 	 24.6271 	 81.3633
| 35> C 	 39.7279 	 26.0682 	 81.3607
| 36> H 	 39.0273 	 26.9364 	 81.2728
| 37> H 	 40.1307 	 25.7716 	 80.3836
| 38> H 	 40.6902 	 26.3409 	 81.8433
| 39> H 	 39.6913 	 21.5842 	 88.3377
| 40> H 	 44.788 	 24.3605 	 82.6754
| 41> *
| 42>
| 43>                          ****END OF INPUT****

CARTESIAN COORDINATES (ANGSTROEM)
---------------------------------
  S     41.207100   21.777900   86.238600
  C     39.874600   22.096900   87.354900
  C     39.199700   23.227000   86.942900
  C     39.668300   23.793000   85.717500
  C     40.817400   23.161900   85.222600
  H     39.353100   24.726700   85.213100
  C     37.945700   23.879400   87.618100
  H     38.192600   24.769000   88.190000
  H     37.638100   23.061100   88.257800
  C     36.867300   24.226000   86.594500
  H     37.282000   25.017900   85.859800
  H     36.587300   23.379300   85.986300
  C     35.596200   24.885300   87.158300
  H     34.983100   25.199300   86.268600
  H     34.854200   24.311500   87.832700
  H     35.709100   25.782300   87.723500
  S     43.458400   23.822100   84.538000
  C     43.777500   24.136500   82.929300
  C     42.671000   24.168000   82.095800
  C     41.453000   23.867300   82.803300
  C     41.778000   23.562700   84.156300
  H     42.758700   24.280000   81.015600
  C     40.092300   23.653600   82.075400
  H     39.621300   22.756900   82.557900
  H     40.432900   23.262300   81.144000
  C     39.066100   24.826100   81.978100
  H     38.753200   25.126300   82.945600
  H     38.226200   24.627100   81.363300
  C     39.727900   26.068200   81.360700
  H     39.027300   26.936400   81.272800
  H     40.130700   25.771600   80.383600
  H     40.690200   26.340900   81.843300
  H     39.691300   21.584200   88.337700
  H     44.788000   24.360500   82.675400

 Total Charge           Charge          ....    0
 Multiplicity           Mult            ....    1
 Number of Electrons    NEL             ....  134
 Basis Dimension        Dim             ....  322

ORBITAL ENERGIES
----------------

  NO   OCC          E(Eh)            E(eV)
   0   2.0000     -88.970976     -2421.0233
   1   2.0000     -88.963988     -2420.8332
   2   2.0000     -10.332290      -281.1559
   3   2.0000     -10.330064      -281.0953
   4   2.0000     -10.318996      -280.7941
   5   2.0000     -10.312165      -280.6083
   6   2.0000     -10.311663      -280.5946
   7   2.0000     -10.303041      -280.3600
   8   2.0000     -10.298969      -280.2492
   9   2.0000     -10.297102      -280.1984
  10   2.0000     -10.295813      -280.1633
  11   2.0000     -10.295664      -280.1593
  12   2.0000     -10.293710      -280.1061
  13   2.0000     -10.286490      -279.9096
  14   2.0000     -10.285624      -279.8860
  15   2.0000     -10.279284      -279.7135
  16   2.0000      -8.087334      -220.0675
  17   2.0000      -8.078226      -219.8197
  18   2.0000      -6.045450      -164.5051
  19   2.0000      -6.041634      -164.4012
  20   2.0000      -6.038386      -164.3128
  21   2.0000      -6.036751      -164.2683
  22   2.0000      -6.032715      -164.1585
  23   2.0000      -6.029080      -164.0596
  24   2.0000      -1.007301       -27.4100
  25   2.0000      -0.983747       -26.7691
  26   2.0000      -0.907846       -24.7038
  27   2.0000      -0.906556       -24.6686
  28   2.0000      -0.863457       -23.4959
  29   2.0000      -0.854758       -23.2591
  30   2.0000      -0.839197       -22.8357
  31   2.0000      -0.810005       -22.0413
  32   2.0000      -0.783023       -21.3071
  33   2.0000      -0.770494       -20.9662
  34   2.0000      -0.709648       -19.3105
  35   2.0000      -0.699373       -19.0309
  36   2.0000      -0.684802       -18.6344
  37   2.0000      -0.660040       -17.9606
  38   2.0000      -0.636542       -17.3212
  39   2.0000      -0.613580       -16.6964
  40   2.0000      -0.594257       -16.1706
  41   2.0000      -0.571027       -15.5384
  42   2.0000      -0.560209       -15.2441
  43   2.0000      -0.552473       -15.0336
  44   2.0000      -0.546738       -14.8775
  45   2.0000      -0.521162       -14.1815
  46   2.0000      -0.514966       -14.0129
  47   2.0000      -0.503585       -13.7033
  48   2.0000      -0.496535       -13.5114
  49   2.0000      -0.492482       -13.4011
  50   2.0000      -0.489412       -13.3176
  51   2.0000      -0.479487       -13.0475
  52   2.0000      -0.471423       -12.8281
  53   2.0000      -0.462735       -12.5917
  54   2.0000      -0.462013       -12.5720
  55   2.0000      -0.450055       -12.2466
  56   2.0000      -0.443882       -12.0787
  57   2.0000      -0.436886       -11.8883
  58   2.0000      -0.434317       -11.8184
  59   2.0000      -0.426709       -11.6113
  60   2.0000      -0.418841       -11.3972
  61   2.0000      -0.416576       -11.3356
  62   2.0000      -0.409054       -11.1309
  63   2.0000      -0.343163        -9.3379
  64   2.0000      -0.336665        -9.1611
  65   2.0000      -0.328744        -8.9456
  66   2.0000      -0.293335        -7.9820
  67   0.0000       0.029705         0.8083
  68   0.0000       0.070712         1.9242
  69   0.0000       0.119258         3.2452
  70   0.0000       0.120689         3.2841
  71   0.0000       0.127664         3.4739

MULLIKEN ATOMIC CHARGES
-----------------------
   0 S :    0.092552
   1 C :   -0.142204
   2 C :   -0.111872
   3 C :    0.026578
   4 C :   -0.168070
   5 H :    0.027475
   6 C :    0.118586
   7 H :    0.041200
   8 H :    0.017188
   9 C :   -0.118882
  10 H :    0.043332
  11 H :    0.039237
  12 C :   -0.073824
  13 H :    0.035379
  14 H :    0.039620
  15 H :    0.022275
  16 S :    0.146625
  17 C :   -0.090109
  18 C :   -0.034416
  19 C :   -0.049819
  20 C :   -0.174950
  21 H :    0.024432
  22 C :    0.044569
  23 H :    0.046303
  24 H :    0.016513
  25 C :    0.015910
  26 H :    0.012866
  27 H :    0.030317
  28 C :   -0.100603
  29 H :    0.048667
  30 H :    0.013624
  31 H :    0.042175
  32 H :    0.071130
  33 H :    0.048196
Sum of atomic charges:   -0.0000000

LOEWDIN ATOMIC CHARGES
----------------------
   0 S :    0.392253
   1 C :   -0.210652
   2 C :   -0.065844
   3 C :   -0.073182
   4 C :   -0.185793
   5 H :    0.034708
   6 C :   -0.026497
   7 H :    0.032294
   8 H :    0.028361
   9 C :   -0.045561
  10 H :    0.033642
  11 H :    0.026929
  12 C :   -0.081593
  13 H :    0.033051
  14 H :    0.030785
  15 H :    0.017321
  16 S :    0.455569
  17 C :   -0.204879
  18 C :   -0.076999
  19 C :   -0.048784
  20 C :   -0.215806
  21 H :    0.032575
  22 C :   -0.028471
  23 H :    0.041088
  24 H :    0.026102
  25 C :   -0.027572
  26 H :    0.015906
  27 H :    0.024466
  28 C :   -0.074847
  29 H :    0.029622
  30 H :    0.019725
  31 H :    0.027909
  32 H :    0.043556
  33 H :    0.020616

  Mayer bond orders larger than 0.100000
B(  0-S ,  1-C ) :   1.1260 B(  0-S ,  4-C ) :   1.1619 B(  1-C ,  2-C ) :   1.6356
B(  1-C , 32-H ) :   0.9592 B(  2-C ,  3-C ) :   1.2364 B(  2-C ,  6-C ) :   1.0022
B(  3-C ,  4-C ) :   1.5814 B(  3-C ,  5-H ) :   0.9809 B(  4-C , 20-C ) :   1.0188
B(  6-C ,  7-H ) :   0.9368 B(  6-C ,  8-H ) :   0.9441 B(  6-C ,  9-C ) :   1.0761
B(  9-C , 10-H ) :   0.9448 B(  9-C , 11-H ) :   0.9587 B(  9-C , 12-C ) :   1.0766
B( 12-C , 13-H ) :   0.9739 B( 12-C , 14-H ) :   0.9747 B( 12-C , 15-H ) :   0.9741
B( 16-S , 17-C ) :   1.1900 B( 16-S , 20-C ) :   1.1749 B( 17-C , 18-C ) :   1.5677
B( 17-C , 33-H ) :   0.9715 B( 18-C , 19-C ) :   1.2671 B( 18-C , 21-H ) :   0.9895
B( 19-C , 20-C ) :   1.5597 B( 19-C , 22-C ) :   1.0117 B( 22-C , 23-H ) :   0.9391
B( 22-C , 24-H ) :   0.9452 B( 22-C , 25-C ) :   1.0622 B( 25-C , 26-H ) :   0.9542
B( 25-C , 27-H ) :   0.9549 B( 25-C , 28-C ) :   1.0750 B( 28-C , 29-H ) :   0.9743
B( 28-C , 30-H ) :   0.9742 B( 28-C , 31-H ) :   0.9715

Dispersion correction           -0.014536907
FINAL SINGLE POINT ENERGY     -1339.876280655427

DIPOLE MOMENT
-------------
                                X             Y             Z
Electronic contribution:     27.17854     -13.35996       6.35026
Nuclear contribution   :    -27.52818      13.69139      -6.54583
                        -----------------------------------------
Total Dipole Moment    :     -0.34964       0.33143      -0.19557
                        -----------------------------------------
Magnitude (a.u.)       :      0.51994
Magnitude (Debye)      :      1.32159

Rotational constants in cm-1:     0.017535     0.009346     0.006632
Rotational constants in MHz :   525.699201   280.196366   198.815936

                             ****ORCA TERMINATED NORMALLY****
TOTAL RUN TIME: 0 days 0 hours 0 minutes 30 seconds 315 msec
