                         Program Version 4.2.1 -  RELEASE  -
|  1> ! wB97X-D3 SP def2-SVP
|  2> %pal
|  3> nprocs 16
|  4> end
|  5>
|  6> * xyz 0 1
|  7> S 	 -46.5536 	 54.728 	 100.672
|  8> C 	 -46.4199 	 52.9479 	 100.769
|  9> C 	 -46.8743 	 52.3797 	 99.5806
| 10> C 	 -47.3641 	 53.3333 	 98.6991
| 11> C 	 -47.1748 	 54.6844 	 99.0736
| 12> H 	 -47.8124 	 53.2686 	 97.7671
| 13> C 	 -46.6535 	 50.927 	 99.1376
| 14> H 	 -47.2835 	 50.8118 	 98.2174
| 15> H 	 -47.0588 	 50.3269 	 99.9542
| 16> C 	 -45.2439 	 50.4155 	 98.8317
| 17> H 	 -45.3764 	 49.3754 	 98.594
| 18> H 	 -44.678 	 50.9723 	 98.0025
| 19> C 	 -44.2772 	 50.3681 	 99.9991
| 20> H 	 -44.5356 	 49.6157 	 100.769
| 21> H 	 -43.2729 	 50.1995 	 99.5604
| 22> H 	 -44.3042 	 51.3135 	 100.494
| 23> S 	 -48.2648 	 57.219 	 99.0246
| 24> C 	 -48.2198 	 58.2255 	 97.6468
| 25> C 	 -47.5586 	 57.5148 	 96.6319
| 26> C 	 -46.9821 	 56.2618 	 96.9951
| 27> C 	 -47.3135 	 55.909 	 98.2993
| 28> H 	 -47.4407 	 57.9591 	 95.6227
| 29> C 	 -46.1727 	 55.3939 	 95.9656
| 30> H 	 -46.725 	 55.2412 	 95.0305
| 31> H 	 -45.9884 	 54.42 	 96.482
| 32> C 	 -44.8346 	 56.0206 	 95.6108
| 33> H 	 -45.0031 	 57.0063 	 95.0495
| 34> H 	 -44.2299 	 55.3585 	 95.0157
| 35> C 	 -43.8876 	 56.2407 	 96.7376
| 36> H 	 -44.1751 	 57.1376 	 97.3601
| 37> H 	 -42.9043 	 56.5344 	 96.4531
| 38> H 	 -43.812 	 55.2828 	 97.3169
| 39> H 	 -46.003 	 52.4095 	 101.609
| 40> H 	 -48.5952 	 59.2292 	 97.6411
| 41> *
| 42>
| 43>                          ****END OF INPUT****

CARTESIAN COORDINATES (ANGSTROEM)
---------------------------------
  S    -46.553600   54.728000  100.672000
  C    -46.419900   52.947900  100.769000
  C    -46.874300   52.379700   99.580600
  C    -47.364100   53.333300   98.699100
  C    -47.174800   54.684400   99.073600
  H    -47.812400   53.268600   97.767100
  C    -46.653500   50.927000   99.137600
  H    -47.283500   50.811800   98.217400
  H    -47.058800   50.326900   99.954200
  C    -45.243900   50.415500   98.831700
  H    -45.376400   49.375400   98.594000
  H    -44.678000   50.972300   98.002500
  C    -44.277200   50.368100   99.999100
  H    -44.535600   49.615700  100.769000
  H    -43.272900   50.199500   99.560400
  H    -44.304200   51.313500  100.494000
  S    -48.264800   57.219000   99.024600
  C    -48.219800   58.225500   97.646800
  C    -47.558600   57.514800   96.631900
  C    -46.982100   56.261800   96.995100
  C    -47.313500   55.909000   98.299300
  H    -47.440700   57.959100   95.622700
  C    -46.172700   55.393900   95.965600
  H    -46.725000   55.241200   95.030500
  H    -45.988400   54.420000   96.482000
  C    -44.834600   56.020600   95.610800
  H    -45.003100   57.006300   95.049500
  H    -44.229900   55.358500   95.015700
  C    -43.887600   56.240700   96.737600
  H    -44.175100   57.137600   97.360100
  H    -42.904300   56.534400   96.453100
  H    -43.812000   55.282800   97.316900
  H    -46.003000   52.409500  101.609000
  H    -48.595200   59.229200   97.641100

 Total Charge           Charge          ....    0
 Multiplicity           Mult            ....    1
 Number of Electrons    NEL             ....  134
 Basis Dimension        Dim             ....  322

ORBITAL ENERGIES
----------------

  NO   OCC          E(Eh)            E(eV)
   0   2.0000     -88.967208     -2420.9208
   1   2.0000     -88.963810     -2420.8283
   2   2.0000     -10.331349      -281.1303
   3   2.0000     -10.329628      -281.0835
   4   2.0000     -10.320361      -280.8313
   5   2.0000     -10.318564      -280.7824
   6   2.0000     -10.309650      -280.5399
   7   2.0000     -10.302846      -280.3547
   8   2.0000     -10.300538      -280.2919
   9   2.0000     -10.298992      -280.2498
  10   2.0000     -10.298552      -280.2378
  11   2.0000     -10.290986      -280.0320
  12   2.0000     -10.288699      -279.9697
  13   2.0000     -10.285148      -279.8731
  14   2.0000     -10.276648      -279.6418
  15   2.0000     -10.272646      -279.5329
  16   2.0000      -8.081821      -219.9175
  17   2.0000      -8.079148      -219.8448
  18   2.0000      -6.040186      -164.3618
  19   2.0000      -6.037546      -164.2900
  20   2.0000      -6.036166      -164.2524
  21   2.0000      -6.033354      -164.1759
  22   2.0000      -6.032901      -164.1636
  23   2.0000      -6.030182      -164.0896
  24   2.0000      -1.008101       -27.4318
  25   2.0000      -0.985999       -26.8304
  26   2.0000      -0.913782       -24.8653
  27   2.0000      -0.911969       -24.8160
  28   2.0000      -0.870485       -23.6871
  29   2.0000      -0.853789       -23.2328
  30   2.0000      -0.843731       -22.9591
  31   2.0000      -0.809351       -22.0236
  32   2.0000      -0.785750       -21.3814
  33   2.0000      -0.779314       -21.2062
  34   2.0000      -0.704377       -19.1671
  35   2.0000      -0.694180       -18.8896
  36   2.0000      -0.687341       -18.7035
  37   2.0000      -0.656333       -17.8597
  38   2.0000      -0.647790       -17.6273
  39   2.0000      -0.615676       -16.7534
  40   2.0000      -0.597642       -16.2627
  41   2.0000      -0.571253       -15.5446
  42   2.0000      -0.558600       -15.2003
  43   2.0000      -0.550032       -14.9671
  44   2.0000      -0.545564       -14.8456
  45   2.0000      -0.542961       -14.7747
  46   2.0000      -0.527271       -14.3478
  47   2.0000      -0.521157       -14.1814
  48   2.0000      -0.505113       -13.7448
  49   2.0000      -0.496246       -13.5036
  50   2.0000      -0.490037       -13.3346
  51   2.0000      -0.480774       -13.0825
  52   2.0000      -0.468758       -12.7556
  53   2.0000      -0.460793       -12.5388
  54   2.0000      -0.460769       -12.5382
  55   2.0000      -0.446371       -12.1464
  56   2.0000      -0.439460       -11.9583
  57   2.0000      -0.435503       -11.8506
  58   2.0000      -0.429055       -11.6752
  59   2.0000      -0.425216       -11.5707
  60   2.0000      -0.419475       -11.4145
  61   2.0000      -0.409705       -11.1486
  62   2.0000      -0.403067       -10.9680
  63   2.0000      -0.343058        -9.3351
  64   2.0000      -0.334373        -9.0987
  65   2.0000      -0.331408        -9.0181
  66   2.0000      -0.292135        -7.9494
  67   0.0000       0.024338         0.6623
  68   0.0000       0.067466         1.8358
  69   0.0000       0.113890         3.0991
  70   0.0000       0.116177         3.1613
  71   0.0000       0.128746         3.5034

MULLIKEN ATOMIC CHARGES
-----------------------
   0 S :    0.115556
   1 C :   -0.137213
   2 C :   -0.066775
   3 C :    0.056911
   4 C :   -0.181471
   5 H :   -0.018327
   6 C :    0.055742
   7 H :    0.035699
   8 H :    0.029017
   9 C :   -0.061253
  10 H :    0.030361
  11 H :    0.042506
  12 C :   -0.067713
  13 H :    0.031851
  14 H :    0.042503
  15 H :    0.022365
  16 S :    0.102532
  17 C :   -0.087189
  18 C :   -0.065571
  19 C :   -0.031177
  20 C :   -0.161285
  21 H :    0.030006
  22 C :    0.086219
  23 H :    0.042486
  24 H :    0.026412
  25 C :   -0.091803
  26 H :    0.035378
  27 H :    0.025768
  28 C :   -0.061228
  29 H :    0.041004
  30 H :    0.020652
  31 H :    0.037701
  32 H :    0.055734
  33 H :    0.064603
Sum of atomic charges:    0.0000000

LOEWDIN ATOMIC CHARGES
----------------------
   0 S :    0.419399
   1 C :   -0.191312
   2 C :   -0.067575
   3 C :   -0.061525
   4 C :   -0.206105
   5 H :    0.019833
   6 C :   -0.032286
   7 H :    0.037528
   8 H :    0.032843
   9 C :   -0.044024
  10 H :    0.026091
  11 H :    0.033572
  12 C :   -0.069424
  13 H :    0.024585
  14 H :    0.033373
  15 H :    0.016361
  16 S :    0.418365
  17 C :   -0.195546
  18 C :   -0.080294
  19 C :   -0.055085
  20 C :   -0.199515
  21 H :    0.032393
  22 C :   -0.027268
  23 H :    0.035490
  24 H :    0.032353
  25 C :   -0.052799
  26 H :    0.028045
  27 H :    0.023993
  28 C :   -0.071029
  29 H :    0.030665
  30 H :    0.019247
  31 H :    0.031371
  32 H :    0.027049
  33 H :    0.031235

  Mayer bond orders larger than 0.100000
B(  0-S ,  1-C ) :   1.1498 B(  0-S ,  4-C ) :   1.1856 B(  1-C ,  2-C ) :   1.5603
B(  1-C ,  4-C ) :   0.1153 B(  1-C , 32-H ) :   0.9706 B(  2-C ,  3-C ) :   1.2670
B(  2-C ,  6-C ) :   1.0141 B(  3-C ,  4-C ) :   1.5325 B(  3-C ,  5-H ) :   1.0114
B(  4-C , 20-C ) :   1.0251 B(  6-C ,  7-H ) :   0.9445 B(  6-C ,  8-H ) :   0.9325
B(  6-C ,  9-C ) :   1.0761 B(  9-C , 10-H ) :   0.9499 B(  9-C , 11-H ) :   0.9571
B(  9-C , 12-C ) :   1.0794 B( 12-C , 13-H ) :   0.9747 B( 12-C , 14-H ) :   0.9728
B( 12-C , 15-H ) :   0.9721 B( 16-S , 17-C ) :   1.1783 B( 16-S , 20-C ) :   1.1571
B( 17-C , 18-C ) :   1.5532 B( 17-C , 20-C ) :   0.1095 B( 17-C , 33-H ) :   0.9765
B( 18-C , 19-C ) :   1.2700 B( 18-C , 21-H ) :   0.9845 B( 19-C , 20-C ) :   1.5706
B( 19-C , 22-C ) :   1.0223 B( 22-C , 23-H ) :   0.9409 B( 22-C , 24-H ) :   0.9313
B( 22-C , 25-C ) :   1.0812 B( 25-C , 26-H ) :   0.9517 B( 25-C , 27-H ) :   0.9557
B( 25-C , 28-C ) :   1.0827 B( 28-C , 29-H ) :   0.9684 B( 28-C , 30-H ) :   0.9725
B( 28-C , 31-H ) :   0.9716

Dispersion correction           -0.014763235
FINAL SINGLE POINT ENERGY     -1339.874137506214

DIPOLE MOMENT
-------------
                                X             Y             Z
Electronic contribution:    -17.53988      16.84058      11.80203
Nuclear contribution   :     17.83229     -17.16963     -12.33235
                        -----------------------------------------
Total Dipole Moment    :      0.29241      -0.32905      -0.53032
                        -----------------------------------------
Magnitude (a.u.)       :      0.68921
Magnitude (Debye)      :      1.75184

Rotational constants in cm-1:     0.020991     0.008693     0.007080
Rotational constants in MHz :   629.286046   260.616366   212.251599

                             ****ORCA TERMINATED NORMALLY****
TOTAL RUN TIME: 0 days 0 hours 0 minutes 31 seconds 228 msec
