                         Program Version 4.2.1 -  RELEASE  -
|  1> ! wB97X-D3 SP def2-SVP
|  2> %pal
|  3> nprocs 16
|  4> end
|  5>
|  6> * xyz 0 1
|  7> S 	 42.2633 	 13.7904 	 87.1433
|  8> C 	 43.7633 	 14.06 	 86.2748
|  9> C 	 44.7035 	 13.0521 	 86.547
| 10> C 	 43.9648 	 11.9111 	 87.0292
| 11> C 	 42.6252 	 12.1427 	 87.4355
| 12> H 	 44.4305 	 10.9534 	 86.9935
| 13> C 	 46.1145 	 12.948 	 86.0699
| 14> H 	 46.1831 	 11.897 	 85.5715
| 15> H 	 46.7541 	 13.096 	 86.9394
| 16> C 	 46.4897 	 14.0227 	 84.9894
| 17> H 	 47.438 	 13.6276 	 84.4566
| 18> H 	 45.7294 	 14.1897 	 84.2196
| 19> C 	 47.0211 	 15.3692 	 85.5212
| 20> H 	 46.2749 	 15.6088 	 86.1823
| 21> H 	 47.8553 	 15.2335 	 86.2458
| 22> H 	 47.1429 	 16.2545 	 84.8598
| 23> S 	 39.9532 	 11.7816 	 87.7293
| 24> C 	 39.3481 	 10.3815 	 88.6144
| 25> C 	 40.3749 	 9.50899 	 88.8798
| 26> C 	 41.6559 	 9.92427 	 88.4848
| 27> C 	 41.601 	 11.1709 	 87.7876
| 28> H 	 40.1238 	 8.61684 	 89.4371
| 29> C 	 42.8472 	 9.10115 	 88.8102
| 30> H 	 43.1394 	 8.74061 	 87.8367
| 31> H 	 42.4643 	 8.18635 	 89.3499
| 32> C 	 44.0201 	 9.72979 	 89.545
| 33> H 	 43.8626 	 9.69612 	 90.6492
| 34> H 	 44.2032 	 10.7534 	 89.2848
| 35> C 	 45.3649 	 9.02235 	 89.343
| 36> H 	 46.1304 	 9.39559 	 89.9889
| 37> H 	 45.7093 	 9.17259 	 88.3245
| 38> H 	 45.1685 	 7.972 	 89.4935
| 39> H 	 44.2063 	 15.0238 	 85.8863
| 40> H 	 38.3301 	 10.3043 	 88.9131
| 41> *
| 42>
| 43>                          ****END OF INPUT****

CARTESIAN COORDINATES (ANGSTROEM)
---------------------------------
  S     42.263300   13.790400   87.143300
  C     43.763300   14.060000   86.274800
  C     44.703500   13.052100   86.547000
  C     43.964800   11.911100   87.029200
  C     42.625200   12.142700   87.435500
  H     44.430500   10.953400   86.993500
  C     46.114500   12.948000   86.069900
  H     46.183100   11.897000   85.571500
  H     46.754100   13.096000   86.939400
  C     46.489700   14.022700   84.989400
  H     47.438000   13.627600   84.456600
  H     45.729400   14.189700   84.219600
  C     47.021100   15.369200   85.521200
  H     46.274900   15.608800   86.182300
  H     47.855300   15.233500   86.245800
  H     47.142900   16.254500   84.859800
  S     39.953200   11.781600   87.729300
  C     39.348100   10.381500   88.614400
  C     40.374900    9.508990   88.879800
  C     41.655900    9.924270   88.484800
  C     41.601000   11.170900   87.787600
  H     40.123800    8.616840   89.437100
  C     42.847200    9.101150   88.810200
  H     43.139400    8.740610   87.836700
  H     42.464300    8.186350   89.349900
  C     44.020100    9.729790   89.545000
  H     43.862600    9.696120   90.649200
  H     44.203200   10.753400   89.284800
  C     45.364900    9.022350   89.343000
  H     46.130400    9.395590   89.988900
  H     45.709300    9.172590   88.324500
  H     45.168500    7.972000   89.493500
  H     44.206300   15.023800   85.886300
  H     38.330100   10.304300   88.913100

 Total Charge           Charge          ....    0
 Multiplicity           Mult            ....    1
 Number of Electrons    NEL             ....  134
 Basis Dimension        Dim             ....  322

ORBITAL ENERGIES
----------------

  NO   OCC          E(Eh)            E(eV)
   0   2.0000     -88.969051     -2420.9709
   1   2.0000     -88.966142     -2420.8918
   2   2.0000     -10.332439      -281.1600
   3   2.0000     -10.332058      -281.1496
   4   2.0000     -10.317660      -280.7578
   5   2.0000     -10.316592      -280.7287
   6   2.0000     -10.310015      -280.5498
   7   2.0000     -10.306520      -280.4547
   8   2.0000     -10.303501      -280.3725
   9   2.0000     -10.299903      -280.2746
  10   2.0000     -10.294914      -280.1389
  11   2.0000     -10.293725      -280.1065
  12   2.0000     -10.292519      -280.0737
  13   2.0000     -10.282163      -279.7919
  14   2.0000     -10.279238      -279.7123
  15   2.0000     -10.273975      -279.5691
  16   2.0000      -8.083961      -219.9758
  17   2.0000      -8.080640      -219.8854
  18   2.0000      -6.042579      -164.4269
  19   2.0000      -6.039127      -164.3330
  20   2.0000      -6.038448      -164.3145
  21   2.0000      -6.035104      -164.2235
  22   2.0000      -6.034565      -164.2088
  23   2.0000      -6.031518      -164.1259
  24   2.0000      -1.008480       -27.4421
  25   2.0000      -0.984394       -26.7867
  26   2.0000      -0.916922       -24.9507
  27   2.0000      -0.912562       -24.8321
  28   2.0000      -0.869783       -23.6680
  29   2.0000      -0.855762       -23.2865
  30   2.0000      -0.849197       -23.1078
  31   2.0000      -0.811092       -22.0709
  32   2.0000      -0.785491       -21.3743
  33   2.0000      -0.773781       -21.0557
  34   2.0000      -0.710815       -19.3423
  35   2.0000      -0.703944       -19.1553
  36   2.0000      -0.691210       -18.8088
  37   2.0000      -0.666337       -18.1320
  38   2.0000      -0.626900       -17.0588
  39   2.0000      -0.618907       -16.8413
  40   2.0000      -0.598912       -16.2972
  41   2.0000      -0.576778       -15.6949
  42   2.0000      -0.568026       -15.4568
  43   2.0000      -0.551343       -15.0028
  44   2.0000      -0.534253       -14.5378
  45   2.0000      -0.528735       -14.3876
  46   2.0000      -0.524167       -14.2633
  47   2.0000      -0.517441       -14.0803
  48   2.0000      -0.509456       -13.8630
  49   2.0000      -0.499968       -13.6048
  50   2.0000      -0.490382       -13.3440
  51   2.0000      -0.485995       -13.2246
  52   2.0000      -0.477014       -12.9802
  53   2.0000      -0.461563       -12.5598
  54   2.0000      -0.459561       -12.5053
  55   2.0000      -0.447607       -12.1800
  56   2.0000      -0.444841       -12.1047
  57   2.0000      -0.443100       -12.0574
  58   2.0000      -0.432849       -11.7784
  59   2.0000      -0.425013       -11.5652
  60   2.0000      -0.419913       -11.4264
  61   2.0000      -0.414016       -11.2659
  62   2.0000      -0.406041       -11.0489
  63   2.0000      -0.357650        -9.7321
  64   2.0000      -0.333468        -9.0741
  65   2.0000      -0.326868        -8.8945
  66   2.0000      -0.276700        -7.5294
  67   0.0000       0.012318         0.3352
  68   0.0000       0.084351         2.2953
  69   0.0000       0.095115         2.5882
  70   0.0000       0.116419         3.1679
  71   0.0000       0.125472         3.4143

MULLIKEN ATOMIC CHARGES
-----------------------
   0 S :    0.114552
   1 C :   -0.127698
   2 C :   -0.117332
   3 C :   -0.007097
   4 C :   -0.101910
   5 H :   -0.007690
   6 C :    0.039652
   7 H :    0.066186
   8 H :    0.051098
   9 C :   -0.140241
  10 H :    0.042381
  11 H :    0.048175
  12 C :   -0.022535
  13 H :   -0.018358
  14 H :    0.027854
  15 H :    0.057851
  16 S :    0.084396
  17 C :   -0.092049
  18 C :   -0.028137
  19 C :   -0.047459
  20 C :   -0.114804
  21 H :    0.017027
  22 C :    0.066621
  23 H :    0.032867
  24 H :    0.026521
  25 C :   -0.085093
  26 H :    0.033906
  27 H :    0.040122
  28 C :   -0.038553
  29 H :    0.034275
  30 H :    0.019266
  31 H :    0.027018
  32 H :    0.067856
  33 H :    0.051331
Sum of atomic charges:   -0.0000000

LOEWDIN ATOMIC CHARGES
----------------------
   0 S :    0.421573
   1 C :   -0.217460
   2 C :   -0.065571
   3 C :   -0.068464
   4 C :   -0.204966
   5 H :    0.018638
   6 C :   -0.033806
   7 H :    0.052792
   8 H :    0.039163
   9 C :   -0.050146
  10 H :    0.032728
  11 H :    0.026479
  12 C :   -0.076438
  13 H :    0.005608
  14 H :    0.031037
  15 H :    0.036953
  16 S :    0.398241
  17 C :   -0.173970
  18 C :   -0.072317
  19 C :   -0.051718
  20 C :   -0.192874
  21 H :    0.032580
  22 C :   -0.036363
  23 H :    0.033655
  24 H :    0.039414
  25 C :   -0.044292
  26 H :    0.029737
  27 H :    0.020958
  28 C :   -0.056930
  29 H :    0.024803
  30 H :    0.017221
  31 H :    0.022003
  32 H :    0.037181
  33 H :    0.024549

  Mayer bond orders larger than 0.100000
B(  0-S ,  1-C ) :   1.1351 B(  0-S ,  4-C ) :   1.1476 B(  1-C ,  2-C ) :   1.6013
B(  1-C , 32-H ) :   0.9419 B(  2-C ,  3-C ) :   1.2697 B(  2-C ,  6-C ) :   1.0167
B(  3-C ,  4-C ) :   1.5256 B(  3-C ,  5-H ) :   0.9889 B(  4-C , 20-C ) :   1.1057
B(  6-C ,  7-H ) :   0.9494 B(  6-C ,  8-H ) :   0.9288 B(  6-C ,  9-C ) :   1.0690
B(  9-C , 10-H ) :   0.9614 B(  9-C , 11-H ) :   0.9557 B(  9-C , 12-C ) :   1.0589
B( 12-C , 13-H ) :   0.9708 B( 12-C , 14-H ) :   0.9661 B( 12-C , 15-H ) :   0.9744
B( 16-S , 17-C ) :   1.1588 B( 16-S , 20-C ) :   1.1401 B( 17-C , 18-C ) :   1.5775
B( 17-C , 33-H ) :   0.9734 B( 18-C , 19-C ) :   1.2906 B( 18-C , 21-H ) :   0.9893
B( 19-C , 20-C ) :   1.5134 B( 19-C , 22-C ) :   1.0344 B( 22-C , 23-H ) :   0.9348
B( 22-C , 24-H ) :   0.9274 B( 22-C , 25-C ) :   1.0485 B( 25-C , 26-H ) :   0.9512
B( 25-C , 27-H ) :   0.9586 B( 25-C , 28-C ) :   1.0834 B( 28-C , 29-H ) :   0.9726
B( 28-C , 30-H ) :   0.9748 B( 28-C , 31-H ) :   0.9746

Dispersion correction           -0.014392569
FINAL SINGLE POINT ENERGY     -1339.850850481712

DIPOLE MOMENT
-------------
                                X             Y             Z
Electronic contribution:    -28.49144       4.85658       0.48277
Nuclear contribution   :     28.99986      -5.20255      -0.30953
                        -----------------------------------------
Total Dipole Moment    :      0.50841      -0.34598       0.17324
                        -----------------------------------------
Magnitude (a.u.)       :      0.63890
Magnitude (Debye)      :      1.62396

Rotational constants in cm-1:     0.021196     0.008564     0.006339
Rotational constants in MHz :   635.450283   256.730465   190.046486

                             ****ORCA TERMINATED NORMALLY****
TOTAL RUN TIME: 0 days 0 hours 0 minutes 30 seconds 846 msec
