                         Program Version 4.2.1 -  RELEASE  -
|  1> ! wB97X-D3 SP def2-SVP
|  2> %pal
|  3> nprocs 16
|  4> end
|  5>
|  6> * xyz 0 1
|  7> S 	 -91.248 	 41.9613 	 116.605
|  8> C 	 -90.3734 	 42.5366 	 117.941
|  9> C 	 -91.1421 	 43.0841 	 118.937
| 10> C 	 -92.5165 	 42.9178 	 118.669
| 11> C 	 -92.7987 	 42.3221 	 117.463
| 12> H 	 -93.3453 	 43.2933 	 119.322
| 13> C 	 -90.7539 	 43.9199 	 120.126
| 14> H 	 -89.6601 	 43.7523 	 120.431
| 15> H 	 -91.4224 	 43.4275 	 120.857
| 16> C 	 -90.9626 	 45.4833 	 120.043
| 17> H 	 -90.054 	 45.9364 	 119.753
| 18> H 	 -91.7841 	 45.7207 	 119.443
| 19> C 	 -91.2986 	 46.1623 	 121.417
| 20> H 	 -90.9433 	 47.189 	 121.403
| 21> H 	 -92.3834 	 46.1679 	 121.487
| 22> H 	 -90.9131 	 45.5791 	 122.224
| 23> S 	 -94.7073 	 43.2842 	 115.803
| 24> C 	 -96.2714 	 42.549 	 115.797
| 25> C 	 -96.2887 	 41.4311 	 116.632
| 26> C 	 -95.0575 	 41.1653 	 117.318
| 27> C 	 -94.0858 	 42.0498 	 116.907
| 28> H 	 -97.2424 	 40.898 	 116.741
| 29> C 	 -94.923 	 40.1099 	 118.418
| 30> H 	 -93.8609 	 39.7847 	 118.406
| 31> H 	 -95.6862 	 39.2962 	 118.145
| 32> C 	 -95.182 	 40.6965 	 119.845
| 33> H 	 -94.2823 	 41.3605 	 119.944
| 34> H 	 -95.1392 	 39.9468 	 120.628
| 35> C 	 -96.5203 	 41.3032 	 120.165
| 36> H 	 -97.3481 	 40.5545 	 120.016
| 37> H 	 -96.7052 	 42.3005 	 119.648
| 38> H 	 -96.6152 	 41.4749 	 121.221
| 39> H 	 -89.261 	 42.5341 	 117.913
| 40> H 	 -97.088 	 42.8368 	 115.129
| 41> *
| 42>
| 43>                          ****END OF INPUT****

CARTESIAN COORDINATES (ANGSTROEM)
---------------------------------
  S    -91.248000   41.961300  116.605000
  C    -90.373400   42.536600  117.941000
  C    -91.142100   43.084100  118.937000
  C    -92.516500   42.917800  118.669000
  C    -92.798700   42.322100  117.463000
  H    -93.345300   43.293300  119.322000
  C    -90.753900   43.919900  120.126000
  H    -89.660100   43.752300  120.431000
  H    -91.422400   43.427500  120.857000
  C    -90.962600   45.483300  120.043000
  H    -90.054000   45.936400  119.753000
  H    -91.784100   45.720700  119.443000
  C    -91.298600   46.162300  121.417000
  H    -90.943300   47.189000  121.403000
  H    -92.383400   46.167900  121.487000
  H    -90.913100   45.579100  122.224000
  S    -94.707300   43.284200  115.803000
  C    -96.271400   42.549000  115.797000
  C    -96.288700   41.431100  116.632000
  C    -95.057500   41.165300  117.318000
  C    -94.085800   42.049800  116.907000
  H    -97.242400   40.898000  116.741000
  C    -94.923000   40.109900  118.418000
  H    -93.860900   39.784700  118.406000
  H    -95.686200   39.296200  118.145000
  C    -95.182000   40.696500  119.845000
  H    -94.282300   41.360500  119.944000
  H    -95.139200   39.946800  120.628000
  C    -96.520300   41.303200  120.165000
  H    -97.348100   40.554500  120.016000
  H    -96.705200   42.300500  119.648000
  H    -96.615200   41.474900  121.221000
  H    -89.261000   42.534100  117.913000
  H    -97.088000   42.836800  115.129000

 Total Charge           Charge          ....    0
 Multiplicity           Mult            ....    1
 Number of Electrons    NEL             ....  134
 Basis Dimension        Dim             ....  322

ORBITAL ENERGIES
----------------

  NO   OCC          E(Eh)            E(eV)
   0   2.0000     -88.965061     -2420.8624
   1   2.0000     -88.963058     -2420.8079
   2   2.0000     -10.326840      -281.0076
   3   2.0000     -10.320498      -280.8350
   4   2.0000     -10.317473      -280.7527
   5   2.0000     -10.313184      -280.6360
   6   2.0000     -10.304375      -280.3963
   7   2.0000     -10.302398      -280.3425
   8   2.0000     -10.301123      -280.3078
   9   2.0000     -10.296293      -280.1764
  10   2.0000     -10.295945      -280.1669
  11   2.0000     -10.294629      -280.1311
  12   2.0000     -10.288385      -279.9612
  13   2.0000     -10.282863      -279.8109
  14   2.0000     -10.282423      -279.7989
  15   2.0000     -10.276019      -279.6247
  16   2.0000      -8.080110      -219.8710
  17   2.0000      -8.078115      -219.8167
  18   2.0000      -6.038515      -164.3163
  19   2.0000      -6.036613      -164.2646
  20   2.0000      -6.034619      -164.2103
  21   2.0000      -6.032531      -164.1535
  22   2.0000      -6.030919      -164.1097
  23   2.0000      -6.028911      -164.0550
  24   2.0000      -1.007710       -27.4212
  25   2.0000      -0.985374       -26.8134
  26   2.0000      -0.905728       -24.6461
  27   2.0000      -0.905341       -24.6356
  28   2.0000      -0.871677       -23.7195
  29   2.0000      -0.854531       -23.2530
  30   2.0000      -0.849304       -23.1107
  31   2.0000      -0.809534       -22.0285
  32   2.0000      -0.782424       -21.2908
  33   2.0000      -0.767366       -20.8811
  34   2.0000      -0.704712       -19.1762
  35   2.0000      -0.701530       -19.0896
  36   2.0000      -0.684559       -18.6278
  37   2.0000      -0.659814       -17.9545
  38   2.0000      -0.642577       -17.4854
  39   2.0000      -0.619298       -16.8520
  40   2.0000      -0.582023       -15.8377
  41   2.0000      -0.566479       -15.4147
  42   2.0000      -0.561089       -15.2680
  43   2.0000      -0.556667       -15.1477
  44   2.0000      -0.544410       -14.8141
  45   2.0000      -0.524329       -14.2677
  46   2.0000      -0.519233       -14.1291
  47   2.0000      -0.508342       -13.8327
  48   2.0000      -0.501289       -13.6408
  49   2.0000      -0.497617       -13.5408
  50   2.0000      -0.486958       -13.2508
  51   2.0000      -0.476228       -12.9588
  52   2.0000      -0.473287       -12.8788
  53   2.0000      -0.466655       -12.6983
  54   2.0000      -0.456970       -12.4348
  55   2.0000      -0.447463       -12.1761
  56   2.0000      -0.443531       -12.0691
  57   2.0000      -0.435450       -11.8492
  58   2.0000      -0.431961       -11.7543
  59   2.0000      -0.427990       -11.6462
  60   2.0000      -0.417195       -11.3524
  61   2.0000      -0.414545       -11.2803
  62   2.0000      -0.409558       -11.1446
  63   2.0000      -0.341600        -9.2954
  64   2.0000      -0.327121        -8.9014
  65   2.0000      -0.321565        -8.7502
  66   2.0000      -0.304044        -8.2734
  67   0.0000       0.040703         1.1076
  68   0.0000       0.055220         1.5026
  69   0.0000       0.116965         3.1828
  70   0.0000       0.119571         3.2537
  71   0.0000       0.124610         3.3908

MULLIKEN ATOMIC CHARGES
-----------------------
   0 S :    0.116541
   1 C :   -0.136824
   2 C :   -0.063673
   3 C :    0.023526
   4 C :   -0.197397
   5 H :    0.042726
   6 C :    0.012049
   7 H :    0.035143
   8 H :    0.035095
   9 C :   -0.027287
  10 H :    0.027761
  11 H :    0.023933
  12 C :   -0.060829
  13 H :    0.038989
  14 H :    0.027762
  15 H :    0.031696
  16 S :    0.111186
  17 C :   -0.102017
  18 C :   -0.059337
  19 C :   -0.016140
  20 C :   -0.188502
  21 H :    0.024104
  22 C :    0.075454
  23 H :    0.046158
  24 H :    0.037731
  25 C :   -0.078990
  26 H :    0.023657
  27 H :    0.027598
  28 C :   -0.064777
  29 H :    0.031528
  30 H :    0.053629
  31 H :    0.025982
  32 H :    0.057945
  33 H :    0.065583
Sum of atomic charges:   -0.0000000

LOEWDIN ATOMIC CHARGES
----------------------
   0 S :    0.404069
   1 C :   -0.209307
   2 C :   -0.081834
   3 C :   -0.058085
   4 C :   -0.191701
   5 H :    0.040900
   6 C :   -0.037906
   7 H :    0.036566
   8 H :    0.033841
   9 C :   -0.026408
  10 H :    0.020229
  11 H :    0.017110
  12 C :   -0.057930
  13 H :    0.027565
  14 H :    0.023513
  15 H :    0.019562
  16 S :    0.409429
  17 C :   -0.195140
  18 C :   -0.077694
  19 C :   -0.051861
  20 C :   -0.205781
  21 H :    0.032484
  22 C :   -0.029931
  23 H :    0.040646
  24 H :    0.036295
  25 C :   -0.049830
  26 H :    0.027447
  27 H :    0.025195
  28 C :   -0.076383
  29 H :    0.031370
  30 H :    0.032056
  31 H :    0.024124
  32 H :    0.033650
  33 H :    0.033737

  Mayer bond orders larger than 0.100000
B(  0-S ,  1-C ) :   1.1602 B(  0-S ,  4-C ) :   1.1328 B(  1-C ,  2-C ) :   1.6087
B(  1-C , 32-H ) :   0.9602 B(  2-C ,  3-C ) :   1.2457 B(  2-C ,  6-C ) :   1.0116
B(  3-C ,  4-C ) :   1.6001 B(  3-C ,  5-H ) :   0.9727 B(  4-C , 20-C ) :   1.0232
B(  6-C ,  7-H ) :   0.9413 B(  6-C ,  8-H ) :   0.9470 B(  6-C ,  9-C ) :   1.0545
B(  9-C , 10-H ) :   0.9632 B(  9-C , 11-H ) :   0.9670 B(  9-C , 12-C ) :   1.0675
B( 12-C , 13-H ) :   0.9778 B( 12-C , 14-H ) :   0.9826 B( 12-C , 15-H ) :   0.9803
B( 16-S , 17-C ) :   1.1608 B( 16-S , 20-C ) :   1.1514 B( 17-C , 18-C ) :   1.6095
B( 17-C , 20-C ) :   0.1019 B( 17-C , 33-H ) :   0.9654 B( 18-C , 19-C ) :   1.2305
B( 18-C , 21-H ) :   0.9858 B( 19-C , 20-C ) :   1.6012 B( 19-C , 22-C ) :   1.0376
B( 22-C , 23-H ) :   0.9290 B( 22-C , 24-H ) :   0.9364 B( 22-C , 25-C ) :   1.0673
B( 25-C , 26-H ) :   0.9485 B( 25-C , 27-H ) :   0.9548 B( 25-C , 28-C ) :   1.0836
B( 28-C , 29-H ) :   0.9681 B( 28-C , 30-H ) :   0.9701 B( 28-C , 31-H ) :   0.9716

Dispersion correction           -0.015088173
FINAL SINGLE POINT ENERGY     -1339.873349934990

DIPOLE MOMENT
-------------
                                X             Y             Z
Electronic contribution:      3.41520      -4.88828     -26.04382
Nuclear contribution   :     -3.58655       5.01331      26.63663
                        -----------------------------------------
Total Dipole Moment    :     -0.17135       0.12503       0.59281
                        -----------------------------------------
Magnitude (a.u.)       :      0.62962
Magnitude (Debye)      :      1.60037

Rotational constants in cm-1:     0.017495     0.008877     0.007683
Rotational constants in MHz :   524.486514   266.133196   230.339067

                             ****ORCA TERMINATED NORMALLY****
TOTAL RUN TIME: 0 days 0 hours 0 minutes 32 seconds 734 msec
