                         Program Version 4.2.1 -  RELEASE  -
|  1> ! wB97X-D3 SP def2-SVP
|  2> %pal
|  3> nprocs 16
|  4> end
|  5>
|  6> * xyz 0 1
|  7> S 	 2.79517 	 -24.0857 	 62.0636
|  8> C 	 1.05802 	 -24.0267 	 62.2418
|  9> C 	 0.489975 	 -23.6451 	 61.02
| 10> C 	 1.47872 	 -23.6285 	 59.9618
| 11> C 	 2.78319 	 -23.766 	 60.3104
| 12> H 	 1.14739 	 -23.4689 	 58.9523
| 13> C 	 -0.97885 	 -23.4058 	 60.8087
| 14> H 	 -1.48257 	 -23.926 	 61.6621
| 15> H 	 -1.36138 	 -24.0349 	 59.9646
| 16> C 	 -1.41189 	 -21.9463 	 60.5696
| 17> H 	 -0.883197 	 -21.5891 	 59.7377
| 18> H 	 -2.48597 	 -21.7321 	 60.4191
| 19> C 	 -1.00794 	 -21.0799 	 61.7287
| 20> H 	 -1.51274 	 -21.4754 	 62.5914
| 21> H 	 -0.00522561 	 -21.3609 	 62.0486
| 22> H 	 -1.10012 	 -19.9602 	 61.6063
| 23> S 	 5.03706 	 -25.2192 	 59.8218
| 24> C 	 5.71647 	 -25.1155 	 58.2007
| 25> C 	 5.03573 	 -24.1762 	 57.423
| 26> C 	 3.97317 	 -23.4946 	 58.0646
| 27> C 	 3.86946 	 -23.9154 	 59.3733
| 28> H 	 5.28775 	 -24.1152 	 56.3607
| 29> C 	 3.05332 	 -22.4865 	 57.3228
| 30> H 	 2.33771 	 -21.9916 	 57.9536
| 31> H 	 2.46021 	 -22.9885 	 56.5666
| 32> C 	 3.86586 	 -21.4585 	 56.5397
| 33> H 	 3.25318 	 -20.901 	 55.7831
| 34> H 	 4.60277 	 -21.9487 	 55.9133
| 35> C 	 4.64417 	 -20.4971 	 57.5456
| 36> H 	 3.89758 	 -20.1961 	 58.3035
| 37> H 	 4.93652 	 -19.636 	 57.0082
| 38> H 	 5.5519 	 -20.9467 	 57.8651
| 39> H 	 0.539203 	 -23.9225 	 63.248
| 40> H 	 6.51743 	 -25.7485 	 57.8748
| 41> *
| 42>
| 43>                          ****END OF INPUT****

CARTESIAN COORDINATES (ANGSTROEM)
---------------------------------
  S      2.795170  -24.085700   62.063600
  C      1.058020  -24.026700   62.241800
  C      0.489975  -23.645100   61.020000
  C      1.478720  -23.628500   59.961800
  C      2.783190  -23.766000   60.310400
  H      1.147390  -23.468900   58.952300
  C     -0.978850  -23.405800   60.808700
  H     -1.482570  -23.926000   61.662100
  H     -1.361380  -24.034900   59.964600
  C     -1.411890  -21.946300   60.569600
  H     -0.883197  -21.589100   59.737700
  H     -2.485970  -21.732100   60.419100
  C     -1.007940  -21.079900   61.728700
  H     -1.512740  -21.475400   62.591400
  H     -0.005226  -21.360900   62.048600
  H     -1.100120  -19.960200   61.606300
  S      5.037060  -25.219200   59.821800
  C      5.716470  -25.115500   58.200700
  C      5.035730  -24.176200   57.423000
  C      3.973170  -23.494600   58.064600
  C      3.869460  -23.915400   59.373300
  H      5.287750  -24.115200   56.360700
  C      3.053320  -22.486500   57.322800
  H      2.337710  -21.991600   57.953600
  H      2.460210  -22.988500   56.566600
  C      3.865860  -21.458500   56.539700
  H      3.253180  -20.901000   55.783100
  H      4.602770  -21.948700   55.913300
  C      4.644170  -20.497100   57.545600
  H      3.897580  -20.196100   58.303500
  H      4.936520  -19.636000   57.008200
  H      5.551900  -20.946700   57.865100
  H      0.539203  -23.922500   63.248000
  H      6.517430  -25.748500   57.874800

 Total Charge           Charge          ....    0
 Multiplicity           Mult            ....    1
 Number of Electrons    NEL             ....  134
 Basis Dimension        Dim             ....  322

ORBITAL ENERGIES
----------------

  NO   OCC          E(Eh)            E(eV)
   0   2.0000     -88.968083     -2420.9446
   1   2.0000     -88.965171     -2420.8654
   2   2.0000     -10.332949      -281.1738
   3   2.0000     -10.331179      -281.1257
   4   2.0000     -10.323187      -280.9082
   5   2.0000     -10.322336      -280.8851
   6   2.0000     -10.311068      -280.5784
   7   2.0000     -10.305580      -280.4291
   8   2.0000     -10.299423      -280.2616
   9   2.0000     -10.299252      -280.2569
  10   2.0000     -10.298455      -280.2352
  11   2.0000     -10.291642      -280.0498
  12   2.0000     -10.290913      -280.0300
  13   2.0000     -10.283724      -279.8343
  14   2.0000     -10.272791      -279.5368
  15   2.0000     -10.270867      -279.4845
  16   2.0000      -8.082043      -219.9236
  17   2.0000      -8.079423      -219.8523
  18   2.0000      -6.040514      -164.3707
  19   2.0000      -6.038186      -164.3074
  20   2.0000      -6.036851      -164.2711
  21   2.0000      -6.033943      -164.1919
  22   2.0000      -6.032673      -164.1574
  23   2.0000      -6.029972      -164.0839
  24   2.0000      -1.006099       -27.3773
  25   2.0000      -0.981788       -26.7158
  26   2.0000      -0.915758       -24.9190
  27   2.0000      -0.909008       -24.7354
  28   2.0000      -0.872999       -23.7555
  29   2.0000      -0.849654       -23.1203
  30   2.0000      -0.840887       -22.8817
  31   2.0000      -0.811623       -22.0854
  32   2.0000      -0.787677       -21.4338
  33   2.0000      -0.771178       -20.9848
  34   2.0000      -0.711073       -19.3493
  35   2.0000      -0.699532       -19.0352
  36   2.0000      -0.694732       -18.9046
  37   2.0000      -0.658688       -17.9238
  38   2.0000      -0.635782       -17.3005
  39   2.0000      -0.625844       -17.0301
  40   2.0000      -0.605204       -16.4684
  41   2.0000      -0.568867       -15.4797
  42   2.0000      -0.556086       -15.1319
  43   2.0000      -0.550137       -14.9700
  44   2.0000      -0.544376       -14.8132
  45   2.0000      -0.539168       -14.6715
  46   2.0000      -0.524674       -14.2771
  47   2.0000      -0.509864       -13.8741
  48   2.0000      -0.502107       -13.6630
  49   2.0000      -0.491476       -13.3738
  50   2.0000      -0.489014       -13.3067
  51   2.0000      -0.478091       -13.0095
  52   2.0000      -0.472053       -12.8452
  53   2.0000      -0.464850       -12.6492
  54   2.0000      -0.454171       -12.3586
  55   2.0000      -0.447403       -12.1745
  56   2.0000      -0.443923       -12.0798
  57   2.0000      -0.438153       -11.9227
  58   2.0000      -0.428613       -11.6631
  59   2.0000      -0.424830       -11.5602
  60   2.0000      -0.419889       -11.4257
  61   2.0000      -0.415342       -11.3020
  62   2.0000      -0.411770       -11.2048
  63   2.0000      -0.361600        -9.8396
  64   2.0000      -0.337007        -9.1704
  65   2.0000      -0.326314        -8.8794
  66   2.0000      -0.286647        -7.8001
  67   0.0000       0.019560         0.5323
  68   0.0000       0.073250         1.9932
  69   0.0000       0.098653         2.6845
  70   0.0000       0.113736         3.0949
  71   0.0000       0.130019         3.5380

MULLIKEN ATOMIC CHARGES
-----------------------
   0 S :    0.088304
   1 C :   -0.132708
   2 C :   -0.127347
   3 C :    0.003113
   4 C :   -0.092415
   5 H :    0.003166
   6 C :    0.013075
   7 H :    0.027527
   8 H :    0.040471
   9 C :   -0.015601
  10 H :    0.011105
  11 H :    0.039647
  12 C :   -0.061710
  13 H :    0.002932
  14 H :    0.023000
  15 H :    0.054191
  16 S :    0.094574
  17 C :   -0.087684
  18 C :   -0.054995
  19 C :   -0.030635
  20 C :   -0.135126
  21 H :    0.029045
  22 C :    0.088108
  23 H :    0.026757
  24 H :    0.034772
  25 C :   -0.117992
  26 H :    0.033208
  27 H :    0.021105
  28 C :   -0.022808
  29 H :    0.041028
  30 H :    0.018912
  31 H :    0.043151
  32 H :    0.085813
  33 H :    0.056016
Sum of atomic charges:   -0.0000000

LOEWDIN ATOMIC CHARGES
----------------------
   0 S :    0.385090
   1 C :   -0.209483
   2 C :   -0.066836
   3 C :   -0.064310
   4 C :   -0.184093
   5 H :    0.025384
   6 C :   -0.040025
   7 H :    0.033777
   8 H :    0.037924
   9 C :   -0.039405
  10 H :    0.014993
  11 H :    0.030526
  12 C :   -0.075066
  13 H :    0.018756
  14 H :    0.023511
  15 H :    0.033269
  16 S :    0.381463
  17 C :   -0.173387
  18 C :   -0.071821
  19 C :   -0.049412
  20 C :   -0.168833
  21 H :    0.033472
  22 C :   -0.026982
  23 H :    0.024845
  24 H :    0.033654
  25 C :   -0.041717
  26 H :    0.026072
  27 H :    0.017028
  28 C :   -0.056647
  29 H :    0.030697
  30 H :    0.019017
  31 H :    0.025355
  32 H :    0.046968
  33 H :    0.026215

  Mayer bond orders larger than 0.100000
B(  0-S ,  1-C ) :   1.1383 B(  0-S ,  4-C ) :   1.1233 B(  1-C ,  2-C ) :   1.5968
B(  1-C , 32-H ) :   0.9528 B(  2-C ,  3-C ) :   1.2482 B(  2-C ,  6-C ) :   1.0302
B(  3-C ,  4-C ) :   1.5683 B(  3-C ,  5-H ) :   0.9882 B(  4-C , 20-C ) :   1.0721
B(  6-C ,  7-H ) :   0.9480 B(  6-C ,  8-H ) :   0.9422 B(  6-C ,  9-C ) :   1.0540
B(  9-C , 10-H ) :   0.9539 B(  9-C , 11-H ) :   0.9583 B(  9-C , 12-C ) :   1.0747
B( 12-C , 13-H ) :   0.9683 B( 12-C , 14-H ) :   0.9696 B( 12-C , 15-H ) :   0.9729
B( 16-S , 17-C ) :   1.1471 B( 16-S , 20-C ) :   1.1277 B( 17-C , 18-C ) :   1.6168
B( 17-C , 33-H ) :   0.9718 B( 18-C , 19-C ) :   1.2279 B( 18-C , 21-H ) :   0.9848
B( 19-C , 20-C ) :   1.6149 B( 19-C , 22-C ) :   1.0218 B( 22-C , 23-H ) :   0.9402
B( 22-C , 24-H ) :   0.9318 B( 22-C , 25-C ) :   1.0725 B( 25-C , 26-H ) :   0.9593
B( 25-C , 27-H ) :   0.9551 B( 25-C , 28-C ) :   1.0620 B( 28-C , 29-H ) :   0.9796
B( 28-C , 30-H ) :   0.9756 B( 28-C , 31-H ) :   0.9756

Dispersion correction           -0.014642706
FINAL SINGLE POINT ENERGY     -1339.871030499493

DIPOLE MOMENT
-------------
                                X             Y             Z
Electronic contribution:     15.41643     -19.74354      10.31745
Nuclear contribution   :    -15.79869      19.97096     -10.99110
                        -----------------------------------------
Total Dipole Moment    :     -0.38226       0.22742      -0.67366
                        -----------------------------------------
Magnitude (a.u.)       :      0.80725
Magnitude (Debye)      :      2.05187

Rotational constants in cm-1:     0.019071     0.009193     0.006936
Rotational constants in MHz :   571.742727   275.604168   207.928005

                             ****ORCA TERMINATED NORMALLY****
TOTAL RUN TIME: 0 days 0 hours 0 minutes 35 seconds 443 msec
