                         Program Version 4.2.1 -  RELEASE  -
|  1> ! wB97X-D3 SP def2-SVP
|  2> %pal
|  3> nprocs 16
|  4> end
|  5>
|  6> * xyz 0 1
|  7> S 	 24.8159 	 6.38788 	 64.811
|  8> C 	 25.8234 	 7.45996 	 63.9068
|  9> C 	 26.3317 	 8.53142 	 64.6545
| 10> C 	 26.0038 	 8.4288 	 66.0456
| 11> C 	 25.1252 	 7.35783 	 66.2984
| 12> H 	 26.2622 	 9.13218 	 66.8438
| 13> C 	 27.1321 	 9.61009 	 63.8871
| 14> H 	 27.5958 	 9.19314 	 63.0059
| 15> H 	 27.9824 	 9.90545 	 64.5323
| 16> C 	 26.3624 	 10.8321 	 63.5676
| 17> H 	 25.8815 	 11.1344 	 64.4541
| 18> H 	 27.061 	 11.6024 	 63.2976
| 19> C 	 25.2676 	 10.6842 	 62.4825
| 20> H 	 25.6775 	 10.2048 	 61.6437
| 21> H 	 24.4389 	 10.1346 	 62.9072
| 22> H 	 24.8793 	 11.7048 	 62.3086
| 23> S 	 22.7939 	 6.87922 	 67.5066
| 24> C 	 22.6517 	 6.97019 	 69.2436
| 25> C 	 23.89 	 7.18894 	 69.8057
| 26> C 	 24.945 	 7.27333 	 68.8525
| 27> C 	 24.4643 	 7.18015 	 67.5337
| 28> H 	 23.8313 	 7.13858 	 70.878
| 29> C 	 26.3897 	 7.59367 	 69.2068
| 30> H 	 26.4612 	 8.57218 	 69.7899
| 31> H 	 26.9963 	 7.80086 	 68.316
| 32> C 	 27.1266 	 6.48958 	 70.0404
| 33> H 	 26.7189 	 5.50304 	 69.7164
| 34> H 	 26.774 	 6.50683 	 71.0502
| 35> C 	 28.7364 	 6.42935 	 69.8832
| 36> H 	 29.0084 	 5.90124 	 68.9623
| 37> H 	 29.2303 	 5.98845 	 70.8054
| 38> H 	 29.1003 	 7.43331 	 69.7407
| 39> H 	 25.9483 	 7.50037 	 62.8074
| 40> H 	 21.7443 	 7.02985 	 69.7899
| 41> *
| 42>
| 43>                          ****END OF INPUT****

CARTESIAN COORDINATES (ANGSTROEM)
---------------------------------
  S     24.815900    6.387880   64.811000
  C     25.823400    7.459960   63.906800
  C     26.331700    8.531420   64.654500
  C     26.003800    8.428800   66.045600
  C     25.125200    7.357830   66.298400
  H     26.262200    9.132180   66.843800
  C     27.132100    9.610090   63.887100
  H     27.595800    9.193140   63.005900
  H     27.982400    9.905450   64.532300
  C     26.362400   10.832100   63.567600
  H     25.881500   11.134400   64.454100
  H     27.061000   11.602400   63.297600
  C     25.267600   10.684200   62.482500
  H     25.677500   10.204800   61.643700
  H     24.438900   10.134600   62.907200
  H     24.879300   11.704800   62.308600
  S     22.793900    6.879220   67.506600
  C     22.651700    6.970190   69.243600
  C     23.890000    7.188940   69.805700
  C     24.945000    7.273330   68.852500
  C     24.464300    7.180150   67.533700
  H     23.831300    7.138580   70.878000
  C     26.389700    7.593670   69.206800
  H     26.461200    8.572180   69.789900
  H     26.996300    7.800860   68.316000
  C     27.126600    6.489580   70.040400
  H     26.718900    5.503040   69.716400
  H     26.774000    6.506830   71.050200
  C     28.736400    6.429350   69.883200
  H     29.008400    5.901240   68.962300
  H     29.230300    5.988450   70.805400
  H     29.100300    7.433310   69.740700
  H     25.948300    7.500370   62.807400
  H     21.744300    7.029850   69.789900

 Total Charge           Charge          ....    0
 Multiplicity           Mult            ....    1
 Number of Electrons    NEL             ....  134
 Basis Dimension        Dim             ....  322

ORBITAL ENERGIES
----------------

  NO   OCC          E(Eh)            E(eV)
   0   2.0000     -88.972933     -2421.0766
   1   2.0000     -88.964937     -2420.8590
   2   2.0000     -10.333832      -281.1979
   3   2.0000     -10.323360      -280.9129
   4   2.0000     -10.314261      -280.6653
   5   2.0000     -10.312174      -280.6085
   6   2.0000     -10.307127      -280.4712
   7   2.0000     -10.304046      -280.3873
   8   2.0000     -10.302499      -280.3453
   9   2.0000     -10.297509      -280.2095
  10   2.0000     -10.293907      -280.1114
  11   2.0000     -10.290249      -280.0119
  12   2.0000     -10.289130      -279.9815
  13   2.0000     -10.287102      -279.9263
  14   2.0000     -10.274659      -279.5877
  15   2.0000     -10.272007      -279.5155
  16   2.0000      -8.086762      -220.0520
  17   2.0000      -8.080865      -219.8915
  18   2.0000      -6.045280      -164.5004
  19   2.0000      -6.041435      -164.3958
  20   2.0000      -6.039238      -164.3360
  21   2.0000      -6.037537      -164.2897
  22   2.0000      -6.035102      -164.2235
  23   2.0000      -6.031791      -164.1334
  24   2.0000      -1.011901       -27.5352
  25   2.0000      -0.982542       -26.7363
  26   2.0000      -0.916518       -24.9397
  27   2.0000      -0.896424       -24.3929
  28   2.0000      -0.876761       -23.8579
  29   2.0000      -0.849850       -23.1256
  30   2.0000      -0.840407       -22.8686
  31   2.0000      -0.814132       -22.1537
  32   2.0000      -0.783630       -21.3236
  33   2.0000      -0.769518       -20.9397
  34   2.0000      -0.714317       -19.4376
  35   2.0000      -0.699936       -19.0462
  36   2.0000      -0.688997       -18.7486
  37   2.0000      -0.659176       -17.9371
  38   2.0000      -0.636143       -17.3103
  39   2.0000      -0.623019       -16.9532
  40   2.0000      -0.595204       -16.1963
  41   2.0000      -0.574138       -15.6231
  42   2.0000      -0.551839       -15.0163
  43   2.0000      -0.548999       -14.9390
  44   2.0000      -0.545133       -14.8338
  45   2.0000      -0.524733       -14.2787
  46   2.0000      -0.515121       -14.0171
  47   2.0000      -0.512177       -13.9370
  48   2.0000      -0.502386       -13.6706
  49   2.0000      -0.494610       -13.4590
  50   2.0000      -0.484979       -13.1970
  51   2.0000      -0.480791       -13.0830
  52   2.0000      -0.472432       -12.8555
  53   2.0000      -0.467795       -12.7293
  54   2.0000      -0.465250       -12.6601
  55   2.0000      -0.448598       -12.2070
  56   2.0000      -0.441811       -12.0223
  57   2.0000      -0.440696       -11.9919
  58   2.0000      -0.429758       -11.6943
  59   2.0000      -0.425430       -11.5765
  60   2.0000      -0.422850       -11.5063
  61   2.0000      -0.410305       -11.1650
  62   2.0000      -0.408592       -11.1183
  63   2.0000      -0.357522        -9.7287
  64   2.0000      -0.335086        -9.1182
  65   2.0000      -0.329209        -8.9582
  66   2.0000      -0.282299        -7.6817
  67   0.0000       0.022871         0.6224
  68   0.0000       0.071863         1.9555
  69   0.0000       0.112655         3.0655
  70   0.0000       0.115769         3.1502
  71   0.0000       0.131056         3.5662

MULLIKEN ATOMIC CHARGES
-----------------------
   0 S :    0.126797
   1 C :   -0.116715
   2 C :   -0.111848
   3 C :    0.010691
   4 C :   -0.154193
   5 H :    0.034492
   6 C :    0.061957
   7 H :    0.016829
   8 H :    0.024434
   9 C :   -0.046707
  10 H :    0.009305
  11 H :    0.023765
  12 C :   -0.030140
  13 H :    0.019887
  14 H :    0.038244
  15 H :    0.036152
  16 S :    0.111855
  17 C :   -0.102213
  18 C :   -0.034954
  19 C :   -0.015282
  20 C :   -0.153729
  21 H :    0.020179
  22 C :    0.030290
  23 H :    0.044590
  24 H :    0.020694
  25 C :   -0.086788
  26 H :    0.034194
  27 H :    0.022944
  28 C :   -0.072393
  29 H :    0.048784
  30 H :    0.054040
  31 H :    0.027444
  32 H :    0.057934
  33 H :    0.049459
Sum of atomic charges:   -0.0000000

LOEWDIN ATOMIC CHARGES
----------------------
   0 S :    0.398769
   1 C :   -0.214836
   2 C :   -0.061076
   3 C :   -0.059079
   4 C :   -0.179469
   5 H :    0.037273
   6 C :   -0.030626
   7 H :    0.024940
   8 H :    0.033766
   9 C :   -0.039429
  10 H :    0.018541
  11 H :    0.021477
  12 C :   -0.056010
  13 H :    0.013532
  14 H :    0.026872
  15 H :    0.032113
  16 S :    0.432330
  17 C :   -0.188218
  18 C :   -0.067700
  19 C :   -0.059936
  20 C :   -0.213952
  21 H :    0.033860
  22 C :   -0.042233
  23 H :    0.037236
  24 H :    0.027049
  25 C :   -0.043860
  26 H :    0.026885
  27 H :    0.015676
  28 C :   -0.069444
  29 H :    0.030142
  30 H :    0.036830
  31 H :    0.019083
  32 H :    0.034468
  33 H :    0.025027

  Mayer bond orders larger than 0.100000
B(  0-S ,  1-C ) :   1.1335 B(  0-S ,  4-C ) :   1.1363 B(  1-C ,  2-C ) :   1.6136
B(  1-C , 32-H ) :   0.9556 B(  2-C ,  3-C ) :   1.2590 B(  2-C ,  6-C ) :   1.0178
B(  3-C ,  4-C ) :   1.5419 B(  3-C ,  5-H ) :   0.9826 B(  4-C , 20-C ) :   1.0998
B(  6-C ,  7-H ) :   0.9442 B(  6-C ,  8-H ) :   0.9350 B(  6-C ,  9-C ) :   1.0851
B(  9-C , 10-H ) :   0.9504 B(  9-C , 11-H ) :   0.9536 B(  9-C , 12-C ) :   1.0796
B( 12-C , 13-H ) :   0.9777 B( 12-C , 14-H ) :   0.9744 B( 12-C , 15-H ) :   0.9730
B( 16-S , 17-C ) :   1.1557 B( 16-S , 20-C ) :   1.1630 B( 17-C , 18-C ) :   1.6110
B( 17-C , 33-H ) :   0.9712 B( 18-C , 19-C ) :   1.2327 B( 18-C , 21-H ) :   0.9960
B( 19-C , 20-C ) :   1.5416 B( 19-C , 22-C ) :   1.0543 B( 22-C , 23-H ) :   0.9357
B( 22-C , 24-H ) :   0.9346 B( 22-C , 25-C ) :   1.0388 B( 25-C , 26-H ) :   0.9645
B( 25-C , 27-H ) :   0.9623 B( 25-C , 28-C ) :   1.0614 B( 28-C , 29-H ) :   0.9777
B( 28-C , 30-H ) :   0.9777 B( 28-C , 31-H ) :   0.9797

Dispersion correction           -0.014075407
FINAL SINGLE POINT ENERGY     -1339.873301391207

DIPOLE MOMENT
-------------
                                X             Y             Z
Electronic contribution:    -18.93437     -12.74215      -1.09156
Nuclear contribution   :     19.22146      13.24335       1.28225
                        -----------------------------------------
Total Dipole Moment    :      0.28709       0.50121       0.19069
                        -----------------------------------------
Magnitude (a.u.)       :      0.60827
Magnitude (Debye)      :      1.54610

Rotational constants in cm-1:     0.018229     0.008439     0.006867
Rotational constants in MHz :   546.500587   252.990816   205.872063

                             ****ORCA TERMINATED NORMALLY****
TOTAL RUN TIME: 0 days 0 hours 0 minutes 28 seconds 131 msec
