                         Program Version 4.2.1 -  RELEASE  -
|  1> ! wB97X-D3 SP def2-SVP
|  2> %pal
|  3> nprocs 16
|  4> end
|  5>
|  6> * xyz 0 1
|  7> S 	 -64.7059 	 36.2106 	 145.352
|  8> C 	 -65.8468 	 34.965 	 144.784
|  9> C 	 -66.1288 	 35.198 	 143.444
| 10> C 	 -65.577 	 36.3857 	 142.926
| 11> C 	 -64.7207 	 37.0659 	 143.823
| 12> H 	 -65.7491 	 36.8789 	 141.983
| 13> C 	 -66.9626 	 34.2253 	 142.577
| 14> H 	 -67.4716 	 33.5409 	 143.244
| 15> H 	 -66.2873 	 33.6069 	 141.968
| 16> C 	 -67.9797 	 34.8906 	 141.672
| 17> H 	 -68.633 	 35.5139 	 142.35
| 18> H 	 -67.4173 	 35.3662 	 140.921
| 19> C 	 -68.7542 	 33.7999 	 140.961
| 20> H 	 -68.2645 	 33.1255 	 140.345
| 21> H 	 -69.2949 	 33.2603 	 141.659
| 22> H 	 -69.3728 	 34.2518 	 140.235
| 23> S 	 -62.0499 	 37.7031 	 143.437
| 24> C 	 -61.6095 	 39.1694 	 142.506
| 25> C 	 -62.7366 	 39.8982 	 142.197
| 26> C 	 -63.9917 	 39.2672 	 142.723
| 27> C 	 -63.7691 	 38.0908 	 143.402
| 28> H 	 -62.6706 	 40.8916 	 141.816
| 29> C 	 -65.4087 	 39.8876 	 142.506
| 30> H 	 -66.1856 	 39.4368 	 143.113
| 31> H 	 -65.6764 	 39.6823 	 141.417
| 32> C 	 -65.5114 	 41.3904 	 142.679
| 33> H 	 -66.514 	 41.7553 	 142.318
| 34> H 	 -64.8919 	 42.04 	 142.016
| 35> C 	 -65.3269 	 41.9452 	 144.123
| 36> H 	 -65.2224 	 43.0493 	 144.153
| 37> H 	 -64.665 	 41.4303 	 144.778
| 38> H 	 -66.3411 	 41.7287 	 144.631
| 39> H 	 -66.3489 	 34.1807 	 145.421
| 40> H 	 -60.6251 	 39.5504 	 142.249
| 41> *
| 42>
| 43>                          ****END OF INPUT****

CARTESIAN COORDINATES (ANGSTROEM)
---------------------------------
  S    -64.705900   36.210600  145.352000
  C    -65.846800   34.965000  144.784000
  C    -66.128800   35.198000  143.444000
  C    -65.577000   36.385700  142.926000
  C    -64.720700   37.065900  143.823000
  H    -65.749100   36.878900  141.983000
  C    -66.962600   34.225300  142.577000
  H    -67.471600   33.540900  143.244000
  H    -66.287300   33.606900  141.968000
  C    -67.979700   34.890600  141.672000
  H    -68.633000   35.513900  142.350000
  H    -67.417300   35.366200  140.921000
  C    -68.754200   33.799900  140.961000
  H    -68.264500   33.125500  140.345000
  H    -69.294900   33.260300  141.659000
  H    -69.372800   34.251800  140.235000
  S    -62.049900   37.703100  143.437000
  C    -61.609500   39.169400  142.506000
  C    -62.736600   39.898200  142.197000
  C    -63.991700   39.267200  142.723000
  C    -63.769100   38.090800  143.402000
  H    -62.670600   40.891600  141.816000
  C    -65.408700   39.887600  142.506000
  H    -66.185600   39.436800  143.113000
  H    -65.676400   39.682300  141.417000
  C    -65.511400   41.390400  142.679000
  H    -66.514000   41.755300  142.318000
  H    -64.891900   42.040000  142.016000
  C    -65.326900   41.945200  144.123000
  H    -65.222400   43.049300  144.153000
  H    -64.665000   41.430300  144.778000
  H    -66.341100   41.728700  144.631000
  H    -66.348900   34.180700  145.421000
  H    -60.625100   39.550400  142.249000

 Total Charge           Charge          ....    0
 Multiplicity           Mult            ....    1
 Number of Electrons    NEL             ....  134
 Basis Dimension        Dim             ....  322

ORBITAL ENERGIES
----------------

  NO   OCC          E(Eh)            E(eV)
   0   2.0000     -88.968969     -2420.9687
   1   2.0000     -88.963535     -2420.8208
   2   2.0000     -10.333553      -281.1903
   3   2.0000     -10.329253      -281.0733
   4   2.0000     -10.323618      -280.9199
   5   2.0000     -10.323119      -280.9063
   6   2.0000     -10.311097      -280.5792
   7   2.0000     -10.303235      -280.3653
   8   2.0000     -10.301774      -280.3255
   9   2.0000     -10.299428      -280.2617
  10   2.0000     -10.296056      -280.1699
  11   2.0000     -10.293807      -280.1087
  12   2.0000     -10.290192      -280.0104
  13   2.0000     -10.285627      -279.8862
  14   2.0000     -10.280345      -279.7424
  15   2.0000     -10.262793      -279.2648
  16   2.0000      -8.082827      -219.9449
  17   2.0000      -8.077525      -219.8006
  18   2.0000      -6.041317      -164.3926
  19   2.0000      -6.037323      -164.2839
  20   2.0000      -6.036386      -164.2584
  21   2.0000      -6.033771      -164.1873
  22   2.0000      -6.032147      -164.1431
  23   2.0000      -6.027909      -164.0277
  24   2.0000      -1.000733       -27.2313
  25   2.0000      -0.976182       -26.5633
  26   2.0000      -0.918448       -24.9922
  27   2.0000      -0.901447       -24.5296
  28   2.0000      -0.872067       -23.7301
  29   2.0000      -0.849242       -23.1090
  30   2.0000      -0.835109       -22.7245
  31   2.0000      -0.814570       -22.1656
  32   2.0000      -0.783653       -21.3243
  33   2.0000      -0.773465       -21.0471
  34   2.0000      -0.711526       -19.3616
  35   2.0000      -0.693450       -18.8697
  36   2.0000      -0.691114       -18.8062
  37   2.0000      -0.654179       -17.8011
  38   2.0000      -0.640385       -17.4258
  39   2.0000      -0.616632       -16.7794
  40   2.0000      -0.592490       -16.1225
  41   2.0000      -0.585647       -15.9363
  42   2.0000      -0.567379       -15.4392
  43   2.0000      -0.549176       -14.9438
  44   2.0000      -0.536271       -14.5927
  45   2.0000      -0.523006       -14.2317
  46   2.0000      -0.511260       -13.9121
  47   2.0000      -0.510235       -13.8842
  48   2.0000      -0.504855       -13.7378
  49   2.0000      -0.503098       -13.6900
  50   2.0000      -0.492096       -13.3906
  51   2.0000      -0.481756       -13.1093
  52   2.0000      -0.471726       -12.8363
  53   2.0000      -0.462625       -12.5887
  54   2.0000      -0.458602       -12.4792
  55   2.0000      -0.449641       -12.2354
  56   2.0000      -0.442198       -12.0328
  57   2.0000      -0.435359       -11.8467
  58   2.0000      -0.431939       -11.7537
  59   2.0000      -0.428944       -11.6722
  60   2.0000      -0.417773       -11.3682
  61   2.0000      -0.411782       -11.2052
  62   2.0000      -0.397645       -10.8205
  63   2.0000      -0.347141        -9.4462
  64   2.0000      -0.332498        -9.0477
  65   2.0000      -0.324147        -8.8205
  66   2.0000      -0.296001        -8.0546
  67   0.0000       0.029493         0.8025
  68   0.0000       0.066562         1.8113
  69   0.0000       0.114882         3.1261
  70   0.0000       0.122074         3.3218
  71   0.0000       0.126697         3.4476

MULLIKEN ATOMIC CHARGES
-----------------------
   0 S :    0.106646
   1 C :   -0.147423
   2 C :   -0.069517
   3 C :    0.036492
   4 C :   -0.176638
   5 H :    0.016394
   6 C :    0.056460
   7 H :    0.001924
   8 H :    0.038632
   9 C :   -0.084983
  10 H :    0.048718
  11 H :    0.025991
  12 C :    0.028682
  13 H :    0.005633
  14 H :    0.010331
  15 H :    0.012862
  16 S :    0.096167
  17 C :   -0.087308
  18 C :   -0.017404
  19 C :   -0.073765
  20 C :   -0.127376
  21 H :    0.020975
  22 C :    0.072097
  23 H :    0.036789
  24 H :    0.047381
  25 C :   -0.105311
  26 H :    0.026980
  27 H :    0.024261
  28 C :   -0.073448
  29 H :    0.043948
  30 H :    0.042361
  31 H :    0.026289
  32 H :    0.076843
  33 H :    0.060318
Sum of atomic charges:   -0.0000000

LOEWDIN ATOMIC CHARGES
----------------------
   0 S :    0.399587
   1 C :   -0.201199
   2 C :   -0.066793
   3 C :   -0.056143
   4 C :   -0.198702
   5 H :    0.031053
   6 C :   -0.028149
   7 H :    0.020659
   8 H :    0.033380
   9 C :   -0.034736
  10 H :    0.036562
  11 H :    0.018636
  12 C :   -0.051960
  13 H :    0.019044
  14 H :    0.015997
  15 H :    0.023911
  16 S :    0.378766
  17 C :   -0.171100
  18 C :   -0.065705
  19 C :   -0.056524
  20 C :   -0.197255
  21 H :    0.027650
  22 C :   -0.033509
  23 H :    0.031775
  24 H :    0.042214
  25 C :   -0.055745
  26 H :    0.030002
  27 H :    0.020047
  28 C :   -0.075461
  29 H :    0.030182
  30 H :    0.021170
  31 H :    0.031875
  32 H :    0.045530
  33 H :    0.034939

  Mayer bond orders larger than 0.100000
B(  0-S ,  1-C ) :   1.1364 B(  0-S ,  4-C ) :   1.1640 B(  1-C ,  2-C ) :   1.5890
B(  1-C ,  4-C ) :   0.1063 B(  1-C , 32-H ) :   0.9615 B(  2-C ,  3-C ) :   1.2676
B(  2-C ,  6-C ) :   1.0095 B(  3-C ,  4-C ) :   1.5321 B(  3-C ,  5-H ) :   0.9933
B(  4-C , 20-C ) :   1.0348 B(  6-C ,  7-H ) :   0.9463 B(  6-C ,  8-H ) :   0.9379
B(  6-C ,  9-C ) :   1.0731 B(  9-C , 10-H ) :   0.9587 B(  9-C , 11-H ) :   0.9445
B(  9-C , 12-C ) :   1.0977 B( 12-C , 13-H ) :   0.9674 B( 12-C , 14-H ) :   0.9725
B( 12-C , 15-H ) :   0.9669 B( 16-S , 17-C ) :   1.1260 B( 16-S , 20-C ) :   1.1108
B( 17-C , 18-C ) :   1.6673 B( 17-C , 33-H ) :   0.9644 B( 18-C , 19-C ) :   1.1906
B( 18-C , 21-H ) :   0.9858 B( 19-C , 20-C ) :   1.6546 B( 19-C , 22-C ) :   1.0322
B( 22-C , 23-H ) :   0.9434 B( 22-C , 24-H ) :   0.9292 B( 22-C , 25-C ) :   1.0743
B( 25-C , 26-H ) :   0.9536 B( 25-C , 27-H ) :   0.9562 B( 25-C , 28-C ) :   1.0602
B( 28-C , 29-H ) :   0.9760 B( 28-C , 30-H ) :   0.9810 B( 28-C , 31-H ) :   0.9750

Dispersion correction           -0.013848130
FINAL SINGLE POINT ENERGY     -1339.860189057091

DIPOLE MOMENT
-------------
                                X             Y             Z
Electronic contribution:     21.88445      -5.07290      12.35519
Nuclear contribution   :    -22.42254       5.15411     -12.90349
                        -----------------------------------------
Total Dipole Moment    :     -0.53808       0.08122      -0.54830
                        -----------------------------------------
Magnitude (a.u.)       :      0.77251
Magnitude (Debye)      :      1.96355

Rotational constants in cm-1:     0.018257     0.007814     0.006761
Rotational constants in MHz :   547.322088   234.268217   202.679029

                             ****ORCA TERMINATED NORMALLY****
TOTAL RUN TIME: 0 days 0 hours 0 minutes 34 seconds 134 msec
