                         Program Version 4.2.1 -  RELEASE  -
|  1> ! wB97X-D3 SP def2-SVP
|  2> %pal
|  3> nprocs 16
|  4> end
|  5>
|  6> * xyz 0 1
|  7> S 	 -32.3027 	 0.472702 	 98.7661
|  8> C 	 -31.0362 	 0.140937 	 97.4868
|  9> C 	 -31.4392 	 0.454387 	 96.1999
| 10> C 	 -32.8042 	 0.911752 	 96.2031
| 11> C 	 -33.3197 	 1.06107 	 97.4558
| 12> H 	 -33.3625 	 1.24382 	 95.3296
| 13> C 	 -30.6271 	 0.250192 	 95.0405
| 14> H 	 -29.673 	 -0.0150935 	 95.3702
| 15> H 	 -30.5605 	 1.25765 	 94.5514
| 16> C 	 -31.1495 	 -0.64475 	 93.9597
| 17> H 	 -31.4228 	 -1.58879 	 94.5109
| 18> H 	 -32.0145 	 -0.226839 	 93.4466
| 19> C 	 -30.1497 	 -0.942994 	 92.9249
| 20> H 	 -29.2743 	 -1.46764 	 93.2924
| 21> H 	 -30.5991 	 -1.58873 	 92.1637
| 22> H 	 -29.8388 	 -0.0212251 	 92.4893
| 23> S 	 -34.6375 	 2.85001 	 99.1332
| 24> C 	 -36.4219 	 3.02711 	 99.0362
| 25> C 	 -36.92 	 2.07222 	 98.1936
| 26> C 	 -35.919 	 1.33056 	 97.5231
| 27> C 	 -34.6026 	 1.67533 	 97.8352
| 28> H 	 -37.9898 	 1.87318 	 98.2373
| 29> C 	 -36.3232 	 0.0763827 	 96.7704
| 30> H 	 -35.537 	 -0.0912446 	 95.9954
| 31> H 	 -37.1748 	 0.320686 	 96.1618
| 32> C 	 -36.6114 	 -1.2333 	 97.5709
| 33> H 	 -37.0006 	 -1.93488 	 96.8212
| 34> H 	 -37.3687 	 -1.21646 	 98.3701
| 35> C 	 -35.4062 	 -1.81504 	 98.3811
| 36> H 	 -35.6534 	 -2.69587 	 98.9813
| 37> H 	 -35.0485 	 -1.08137 	 99.0601
| 38> H 	 -34.541 	 -2.03759 	 97.7625
| 39> H 	 -30.1262 	 -0.316432 	 97.7609
| 40> H 	 -36.9995 	 3.61885 	 99.6985
| 41> *
| 42>
| 43>                          ****END OF INPUT****

CARTESIAN COORDINATES (ANGSTROEM)
---------------------------------
  S    -32.302700    0.472702   98.766100
  C    -31.036200    0.140937   97.486800
  C    -31.439200    0.454387   96.199900
  C    -32.804200    0.911752   96.203100
  C    -33.319700    1.061070   97.455800
  H    -33.362500    1.243820   95.329600
  C    -30.627100    0.250192   95.040500
  H    -29.673000   -0.015093   95.370200
  H    -30.560500    1.257650   94.551400
  C    -31.149500   -0.644750   93.959700
  H    -31.422800   -1.588790   94.510900
  H    -32.014500   -0.226839   93.446600
  C    -30.149700   -0.942994   92.924900
  H    -29.274300   -1.467640   93.292400
  H    -30.599100   -1.588730   92.163700
  H    -29.838800   -0.021225   92.489300
  S    -34.637500    2.850010   99.133200
  C    -36.421900    3.027110   99.036200
  C    -36.920000    2.072220   98.193600
  C    -35.919000    1.330560   97.523100
  C    -34.602600    1.675330   97.835200
  H    -37.989800    1.873180   98.237300
  C    -36.323200    0.076383   96.770400
  H    -35.537000   -0.091245   95.995400
  H    -37.174800    0.320686   96.161800
  C    -36.611400   -1.233300   97.570900
  H    -37.000600   -1.934880   96.821200
  H    -37.368700   -1.216460   98.370100
  C    -35.406200   -1.815040   98.381100
  H    -35.653400   -2.695870   98.981300
  H    -35.048500   -1.081370   99.060100
  H    -34.541000   -2.037590   97.762500
  H    -30.126200   -0.316432   97.760900
  H    -36.999500    3.618850   99.698500

 Total Charge           Charge          ....    0
 Multiplicity           Mult            ....    1
 Number of Electrons    NEL             ....  134
 Basis Dimension        Dim             ....  322

ORBITAL ENERGIES
----------------

  NO   OCC          E(Eh)            E(eV)
   0   2.0000     -88.967582     -2420.9310
   1   2.0000     -88.963475     -2420.8192
   2   2.0000     -10.332532      -281.1625
   3   2.0000     -10.327976      -281.0385
   4   2.0000     -10.317139      -280.7436
   5   2.0000     -10.315547      -280.7003
   6   2.0000     -10.301209      -280.3101
   7   2.0000     -10.300139      -280.2810
   8   2.0000     -10.295408      -280.1523
   9   2.0000     -10.292126      -280.0630
  10   2.0000     -10.291176      -280.0371
  11   2.0000     -10.289944      -280.0036
  12   2.0000     -10.285724      -279.8888
  13   2.0000     -10.284415      -279.8532
  14   2.0000     -10.274031      -279.5706
  15   2.0000     -10.266421      -279.3635
  16   2.0000      -8.080995      -219.8950
  17   2.0000      -8.077534      -219.8009
  18   2.0000      -6.039542      -164.3443
  19   2.0000      -6.036118      -164.2511
  20   2.0000      -6.035998      -164.2479
  21   2.0000      -6.032135      -164.1427
  22   2.0000      -6.031462      -164.1244
  23   2.0000      -6.028248      -164.0370
  24   2.0000      -1.003639       -27.3104
  25   2.0000      -0.981356       -26.7041
  26   2.0000      -0.930715       -25.3260
  27   2.0000      -0.896349       -24.3909
  28   2.0000      -0.876382       -23.8476
  29   2.0000      -0.849958       -23.1285
  30   2.0000      -0.841442       -22.8968
  31   2.0000      -0.821074       -22.3426
  32   2.0000      -0.784687       -21.3524
  33   2.0000      -0.770472       -20.9656
  34   2.0000      -0.711020       -19.3478
  35   2.0000      -0.696128       -18.9426
  36   2.0000      -0.692838       -18.8531
  37   2.0000      -0.657711       -17.8972
  38   2.0000      -0.646630       -17.5957
  39   2.0000      -0.624228       -16.9861
  40   2.0000      -0.592073       -16.1111
  41   2.0000      -0.585974       -15.9452
  42   2.0000      -0.567900       -15.4533
  43   2.0000      -0.545221       -14.8362
  44   2.0000      -0.536933       -14.6107
  45   2.0000      -0.528988       -14.3945
  46   2.0000      -0.521573       -14.1927
  47   2.0000      -0.519218       -14.1286
  48   2.0000      -0.504791       -13.7360
  49   2.0000      -0.496692       -13.5157
  50   2.0000      -0.488329       -13.2881
  51   2.0000      -0.473159       -12.8753
  52   2.0000      -0.469889       -12.7863
  53   2.0000      -0.468070       -12.7368
  54   2.0000      -0.451991       -12.2993
  55   2.0000      -0.449358       -12.2277
  56   2.0000      -0.441564       -12.0156
  57   2.0000      -0.439571       -11.9613
  58   2.0000      -0.435961       -11.8631
  59   2.0000      -0.430764       -11.7217
  60   2.0000      -0.417154       -11.3513
  61   2.0000      -0.414111       -11.2685
  62   2.0000      -0.406681       -11.0663
  63   2.0000      -0.346355        -9.4248
  64   2.0000      -0.330817        -9.0020
  65   2.0000      -0.327919        -8.9231
  66   2.0000      -0.291867        -7.9421
  67   0.0000       0.029126         0.7926
  68   0.0000       0.064501         1.7552
  69   0.0000       0.098510         2.6806
  70   0.0000       0.120470         3.2782
  71   0.0000       0.123965         3.3733

MULLIKEN ATOMIC CHARGES
-----------------------
   0 S :    0.094842
   1 C :   -0.125829
   2 C :   -0.059301
   3 C :    0.026161
   4 C :   -0.139447
   5 H :    0.018790
   6 C :    0.105940
   7 H :   -0.008068
   8 H :    0.030088
   9 C :   -0.099988
  10 H :    0.032602
  11 H :    0.030650
  12 C :   -0.005446
  13 H :    0.025425
  14 H :    0.035686
  15 H :    0.014783
  16 S :    0.085260
  17 C :   -0.086922
  18 C :   -0.025575
  19 C :   -0.056251
  20 C :   -0.145036
  21 H :    0.029117
  22 C :    0.079057
  23 H :    0.017558
  24 H :    0.015916
  25 C :   -0.063345
  26 H :    0.033124
  27 H :    0.027577
  28 C :   -0.048631
  29 H :    0.033472
  30 H :    0.023103
  31 H :    0.028079
  32 H :    0.029461
  33 H :    0.047151
Sum of atomic charges:   -0.0000000

LOEWDIN ATOMIC CHARGES
----------------------
   0 S :    0.366837
   1 C :   -0.166490
   2 C :   -0.051984
   3 C :   -0.061582
   4 C :   -0.173130
   5 H :    0.034209
   6 C :   -0.035063
   7 H :    0.023109
   8 H :    0.041440
   9 C :   -0.042806
  10 H :    0.028752
  11 H :    0.025443
  12 C :   -0.058059
  13 H :    0.023751
  14 H :    0.030603
  15 H :    0.020301
  16 S :    0.384647
  17 C :   -0.163403
  18 C :   -0.069485
  19 C :   -0.067040
  20 C :   -0.200536
  21 H :    0.037231
  22 C :   -0.035048
  23 H :    0.033373
  24 H :    0.027022
  25 C :   -0.037726
  26 H :    0.025736
  27 H :    0.025170
  28 C :   -0.066917
  29 H :    0.026830
  30 H :    0.016555
  31 H :    0.021615
  32 H :    0.013786
  33 H :    0.022862

  Mayer bond orders larger than 0.100000
B(  0-S ,  1-C ) :   1.0961 B(  0-S ,  4-C ) :   1.1376 B(  1-C ,  2-C ) :   1.6383
B(  1-C , 32-H ) :   0.9737 B(  2-C ,  3-C ) :   1.1760 B(  2-C ,  6-C ) :   1.0654
B(  3-C ,  4-C ) :   1.6369 B(  3-C ,  5-H ) :   0.9881 B(  4-C , 20-C ) :   1.0266
B(  6-C ,  7-H ) :   0.9315 B(  6-C ,  8-H ) :   0.9064 B(  6-C ,  9-C ) :   1.0691
B(  9-C , 10-H ) :   0.9535 B(  9-C , 11-H ) :   0.9432 B(  9-C , 12-C ) :   1.1083
B( 12-C , 13-H ) :   0.9714 B( 12-C , 14-H ) :   0.9707 B( 12-C , 15-H ) :   0.9661
B( 16-S , 17-C ) :   1.1459 B( 16-S , 20-C ) :   1.1352 B( 17-C , 18-C ) :   1.6067
B( 17-C , 20-C ) :   0.1000 B( 17-C , 33-H ) :   0.9718 B( 18-C , 19-C ) :   1.2520
B( 18-C , 21-H ) :   0.9892 B( 19-C , 20-C ) :   1.5757 B( 19-C , 22-C ) :   1.0506
B( 22-C , 23-H ) :   0.9299 B( 22-C , 24-H ) :   0.9298 B( 22-C , 25-C ) :   1.0621
B( 25-C , 26-H ) :   0.9555 B( 25-C , 27-H ) :   0.9611 B( 25-C , 28-C ) :   1.0676
B( 28-C , 29-H ) :   0.9757 B( 28-C , 30-H ) :   0.9739 B( 28-C , 31-H ) :   0.9761

Dispersion correction           -0.015263266
FINAL SINGLE POINT ENERGY     -1339.876107690055

DIPOLE MOMENT
-------------
                                X             Y             Z
Electronic contribution:     -1.93810      17.22764      19.18023
Nuclear contribution   :      1.84872     -17.58686     -19.67877
                        -----------------------------------------
Total Dipole Moment    :     -0.08938      -0.35922      -0.49854
                        -----------------------------------------
Magnitude (a.u.)       :      0.62094
Magnitude (Debye)      :      1.57831

Rotational constants in cm-1:     0.021808     0.008106     0.007259
Rotational constants in MHz :   653.791142   243.001952   217.607378

                             ****ORCA TERMINATED NORMALLY****
TOTAL RUN TIME: 0 days 0 hours 0 minutes 31 seconds 144 msec
