                         Program Version 4.2.1 -  RELEASE  -
|  1> ! wB97X-D3 SP def2-SVP
|  2> %pal
|  3> nprocs 16
|  4> end
|  5>
|  6> * xyz 0 1
|  7> S 	 -52.7002 	 43.7899 	 106.491
|  8> C 	 -51.9897 	 45.229 	 107.124
|  9> C 	 -52.8551 	 46.0204 	 107.853
| 10> C 	 -54.1358 	 45.2992 	 108.005
| 11> C 	 -54.1534 	 44.0722 	 107.413
| 12> H 	 -55.0426 	 45.6321 	 108.516
| 13> C 	 -52.5294 	 47.4298 	 108.417
| 14> H 	 -51.4694 	 47.3988 	 108.612
| 15> H 	 -52.7341 	 47.4774 	 109.461
| 16> C 	 -52.8059 	 48.6584 	 107.394
| 17> H 	 -52.2951 	 48.473 	 106.389
| 18> H 	 -53.7931 	 48.7336 	 107.097
| 19> C 	 -52.4409 	 49.9719 	 108.013
| 20> H 	 -52.6793 	 50.0939 	 109.072
| 21> H 	 -51.3233 	 50.1037 	 108.148
| 22> H 	 -52.8008 	 50.7659 	 107.36
| 23> S 	 -55.8774 	 42.3138 	 105.995
| 24> C 	 -56.8656 	 41.2336 	 106.952
| 25> C 	 -56.6214 	 41.3713 	 108.305
| 26> C 	 -55.678 	 42.4035 	 108.604
| 27> C 	 -55.1839 	 43.0458 	 107.489
| 28> H 	 -57.2367 	 40.8853 	 109.044
| 29> C 	 -55.3499 	 42.8157 	 110.087
| 30> H 	 -56.237 	 42.3121 	 110.641
| 31> H 	 -55.5765 	 43.8793 	 110.27
| 32> C 	 -53.9459 	 42.6283 	 110.672
| 33> H 	 -53.2724 	 42.629 	 109.865
| 34> H 	 -53.9792 	 41.6011 	 111.178
| 35> C 	 -53.554 	 43.7197 	 111.683
| 36> H 	 -54.1207 	 43.5909 	 112.568
| 37> H 	 -53.9629 	 44.6858 	 111.362
| 38> H 	 -52.4834 	 43.8704 	 112.028
| 39> H 	 -50.9843 	 45.5172 	 106.967
| 40> H 	 -57.5627 	 40.5531 	 106.515
| 41> *
| 42>
| 43>                          ****END OF INPUT****

CARTESIAN COORDINATES (ANGSTROEM)
---------------------------------
  S    -52.700200   43.789900  106.491000
  C    -51.989700   45.229000  107.124000
  C    -52.855100   46.020400  107.853000
  C    -54.135800   45.299200  108.005000
  C    -54.153400   44.072200  107.413000
  H    -55.042600   45.632100  108.516000
  C    -52.529400   47.429800  108.417000
  H    -51.469400   47.398800  108.612000
  H    -52.734100   47.477400  109.461000
  C    -52.805900   48.658400  107.394000
  H    -52.295100   48.473000  106.389000
  H    -53.793100   48.733600  107.097000
  C    -52.440900   49.971900  108.013000
  H    -52.679300   50.093900  109.072000
  H    -51.323300   50.103700  108.148000
  H    -52.800800   50.765900  107.360000
  S    -55.877400   42.313800  105.995000
  C    -56.865600   41.233600  106.952000
  C    -56.621400   41.371300  108.305000
  C    -55.678000   42.403500  108.604000
  C    -55.183900   43.045800  107.489000
  H    -57.236700   40.885300  109.044000
  C    -55.349900   42.815700  110.087000
  H    -56.237000   42.312100  110.641000
  H    -55.576500   43.879300  110.270000
  C    -53.945900   42.628300  110.672000
  H    -53.272400   42.629000  109.865000
  H    -53.979200   41.601100  111.178000
  C    -53.554000   43.719700  111.683000
  H    -54.120700   43.590900  112.568000
  H    -53.962900   44.685800  111.362000
  H    -52.483400   43.870400  112.028000
  H    -50.984300   45.517200  106.967000
  H    -57.562700   40.553100  106.515000

 Total Charge           Charge          ....    0
 Multiplicity           Mult            ....    1
 Number of Electrons    NEL             ....  134
 Basis Dimension        Dim             ....  322

ORBITAL ENERGIES
----------------

  NO   OCC          E(Eh)            E(eV)
   0   2.0000     -88.965846     -2420.8837
   1   2.0000     -88.964346     -2420.8429
   2   2.0000     -10.327759      -281.0326
   3   2.0000     -10.325237      -280.9640
   4   2.0000     -10.319041      -280.7954
   5   2.0000     -10.310391      -280.5600
   6   2.0000     -10.307851      -280.4909
   7   2.0000     -10.305993      -280.4403
   8   2.0000     -10.300613      -280.2939
   9   2.0000     -10.299161      -280.2544
  10   2.0000     -10.296305      -280.1767
  11   2.0000     -10.295070      -280.1431
  12   2.0000     -10.294441      -280.1260
  13   2.0000     -10.286934      -279.9217
  14   2.0000     -10.282332      -279.7965
  15   2.0000     -10.278229      -279.6848
  16   2.0000      -8.079976      -219.8673
  17   2.0000      -8.079842      -219.8637
  18   2.0000      -6.038524      -164.3166
  19   2.0000      -6.038356      -164.3120
  20   2.0000      -6.034542      -164.2082
  21   2.0000      -6.034305      -164.2018
  22   2.0000      -6.030760      -164.1053
  23   2.0000      -6.030486      -164.0979
  24   2.0000      -1.004592       -27.3363
  25   2.0000      -0.981146       -26.6983
  26   2.0000      -0.904425       -24.6107
  27   2.0000      -0.901856       -24.5407
  28   2.0000      -0.870411       -23.6851
  29   2.0000      -0.850542       -23.1444
  30   2.0000      -0.845148       -22.9976
  31   2.0000      -0.815012       -22.1776
  32   2.0000      -0.780935       -21.2503
  33   2.0000      -0.769685       -20.9442
  34   2.0000      -0.710997       -19.3472
  35   2.0000      -0.705257       -19.1910
  36   2.0000      -0.689840       -18.7715
  37   2.0000      -0.662306       -18.0223
  38   2.0000      -0.647315       -17.6143
  39   2.0000      -0.613787       -16.7020
  40   2.0000      -0.594241       -16.1701
  41   2.0000      -0.565154       -15.3786
  42   2.0000      -0.556322       -15.1383
  43   2.0000      -0.549660       -14.9570
  44   2.0000      -0.537824       -14.6349
  45   2.0000      -0.519948       -14.1485
  46   2.0000      -0.516339       -14.0503
  47   2.0000      -0.507768       -13.8171
  48   2.0000      -0.501471       -13.6457
  49   2.0000      -0.496410       -13.5080
  50   2.0000      -0.493399       -13.4261
  51   2.0000      -0.476769       -12.9736
  52   2.0000      -0.467773       -12.7288
  53   2.0000      -0.466560       -12.6958
  54   2.0000      -0.456834       -12.4311
  55   2.0000      -0.448676       -12.2091
  56   2.0000      -0.442594       -12.0436
  57   2.0000      -0.439371       -11.9559
  58   2.0000      -0.433902       -11.8071
  59   2.0000      -0.423846       -11.5334
  60   2.0000      -0.421319       -11.4647
  61   2.0000      -0.408822       -11.1246
  62   2.0000      -0.404558       -11.0086
  63   2.0000      -0.345480        -9.4010
  64   2.0000      -0.333645        -9.0789
  65   2.0000      -0.329088        -8.9549
  66   2.0000      -0.295144        -8.0313
  67   0.0000       0.034927         0.9504
  68   0.0000       0.063340         1.7236
  69   0.0000       0.111515         3.0345
  70   0.0000       0.120770         3.2863
  71   0.0000       0.129232         3.5166

MULLIKEN ATOMIC CHARGES
-----------------------
   0 S :    0.117900
   1 C :   -0.093308
   2 C :   -0.110199
   3 C :    0.024381
   4 C :   -0.165047
   5 H :    0.018608
   6 C :    0.079985
   7 H :    0.000957
   8 H :    0.016122
   9 C :   -0.032215
  10 H :    0.041736
  11 H :    0.019791
  12 C :   -0.059211
  13 H :    0.031067
  14 H :    0.024511
  15 H :    0.044003
  16 S :    0.097451
  17 C :   -0.087014
  18 C :   -0.020170
  19 C :   -0.028690
  20 C :   -0.163902
  21 H :    0.019573
  22 C :    0.013248
  23 H :    0.026775
  24 H :    0.018147
  25 C :   -0.017681
  26 H :    0.036708
  27 H :    0.044015
  28 C :   -0.064598
  29 H :    0.014020
  30 H :    0.016574
  31 H :    0.052505
  32 H :    0.029828
  33 H :    0.054131
Sum of atomic charges:    0.0000000

LOEWDIN ATOMIC CHARGES
----------------------
   0 S :    0.410957
   1 C :   -0.193465
   2 C :   -0.060034
   3 C :   -0.060587
   4 C :   -0.199138
   5 H :    0.033754
   6 C :   -0.038346
   7 H :    0.031320
   8 H :    0.029580
   9 C :   -0.031201
  10 H :    0.038079
  11 H :    0.014159
  12 C :   -0.075283
  13 H :    0.027374
  14 H :    0.028383
  15 H :    0.029852
  16 S :    0.381342
  17 C :   -0.173885
  18 C :   -0.073548
  19 C :   -0.054667
  20 C :   -0.187471
  21 H :    0.031048
  22 C :   -0.037238
  23 H :    0.035350
  24 H :    0.025775
  25 C :   -0.038550
  26 H :    0.020743
  27 H :    0.035918
  28 C :   -0.073252
  29 H :    0.018790
  30 H :    0.021793
  31 H :    0.036958
  32 H :    0.019637
  33 H :    0.025854

  Mayer bond orders larger than 0.100000
B(  0-S ,  1-C ) :   1.1398 B(  0-S ,  4-C ) :   1.1302 B(  1-C ,  2-C ) :   1.6448
B(  1-C , 32-H ) :   0.9684 B(  2-C ,  3-C ) :   1.1941 B(  2-C ,  6-C ) :   1.0207
B(  3-C ,  4-C ) :   1.6211 B(  3-C ,  5-H ) :   0.9970 B(  4-C , 20-C ) :   1.0331
B(  6-C ,  7-H ) :   0.9321 B(  6-C ,  8-H ) :   0.9433 B(  6-C ,  9-C ) :   1.0269
B(  9-C , 10-H ) :   0.9535 B(  9-C , 11-H ) :   0.9637 B(  9-C , 12-C ) :   1.0815
B( 12-C , 13-H ) :   0.9726 B( 12-C , 14-H ) :   0.9728 B( 12-C , 15-H ) :   0.9730
B( 16-S , 17-C ) :   1.1563 B( 16-S , 20-C ) :   1.1225 B( 17-C , 18-C ) :   1.6094
B( 17-C , 33-H ) :   0.9694 B( 18-C , 19-C ) :   1.2536 B( 18-C , 21-H ) :   0.9844
B( 19-C , 20-C ) :   1.6208 B( 19-C , 22-C ) :   1.0199 B( 22-C , 23-H ) :   0.9348
B( 22-C , 24-H ) :   0.9492 B( 22-C , 25-C ) :   1.0333 B( 25-C , 26-H ) :   0.9635
B( 25-C , 27-H ) :   0.9547 B( 25-C , 28-C ) :   1.0705 B( 28-C , 29-H ) :   0.9737
B( 28-C , 30-H ) :   0.9722 B( 28-C , 31-H ) :   0.9758

Dispersion correction           -0.014677390
FINAL SINGLE POINT ENERGY     -1339.856527009518

DIPOLE MOMENT
-------------
                                X             Y             Z
Electronic contribution:     -6.86174     -20.14413     -20.64253
Nuclear contribution   :      6.83389      20.57239      21.18095
                        -----------------------------------------
Total Dipole Moment    :     -0.02785       0.42826       0.53841
                        -----------------------------------------
Magnitude (a.u.)       :      0.68853
Magnitude (Debye)      :      1.75011

Rotational constants in cm-1:     0.020058     0.008040     0.006691
Rotational constants in MHz :   601.323405   241.046478   200.582392

                             ****ORCA TERMINATED NORMALLY****
TOTAL RUN TIME: 0 days 0 hours 0 minutes 30 seconds 357 msec
