                         Program Version 4.2.1 -  RELEASE  -
|  1> ! wB97X-D3 SP def2-SVP
|  2> %pal
|  3> nprocs 16
|  4> end
|  5>
|  6> * xyz 0 1
|  7> S 	 38.0006 	 17.6073 	 84.4051
|  8> C 	 36.2673 	 17.8317 	 84.0185
|  9> C 	 36.1024 	 17.7216 	 82.674
| 10> C 	 37.2575 	 17.1974 	 82.0333
| 11> C 	 38.3062 	 16.9225 	 82.8588
| 12> H 	 37.4833 	 17.0943 	 80.9043
| 13> C 	 34.9206 	 18.1404 	 81.8804
| 14> H 	 34.1835 	 18.5819 	 82.5703
| 15> H 	 34.5852 	 17.2821 	 81.4106
| 16> C 	 35.1437 	 19.2093 	 80.7697
| 17> H 	 35.7726 	 19.959 	 81.1624
| 18> H 	 35.643 	 18.7107 	 79.9298
| 19> C 	 33.8598 	 19.8331 	 80.111
| 20> H 	 33.2799 	 20.2563 	 80.9099
| 21> H 	 34.1748 	 20.4897 	 79.3246
| 22> H 	 33.2117 	 19.1215 	 79.658
| 23> S 	 40.744 	 17.0012 	 81.6296
| 24> C 	 41.7844 	 15.5845 	 81.7473
| 25> C 	 40.999 	 14.4439 	 81.8575
| 26> C 	 39.6489 	 14.8373 	 82.3047
| 27> C 	 39.4873 	 16.1803 	 82.551
| 28> H 	 41.4359 	 13.4775 	 81.808
| 29> C 	 38.5578 	 13.8435 	 82.4919
| 30> H 	 38.8461 	 12.8833 	 82.0425
| 31> H 	 37.7376 	 14.2807 	 81.8485
| 32> C 	 38.0228 	 13.6796 	 83.8831
| 33> H 	 37.4779 	 14.5896 	 84.1053
| 34> H 	 38.7816 	 13.4898 	 84.6173
| 35> C 	 36.8783 	 12.6289 	 83.9924
| 36> H 	 36.2821 	 12.7163 	 84.9767
| 37> H 	 37.3586 	 11.6307 	 83.9708
| 38> H 	 36.2175 	 12.823 	 83.1771
| 39> H 	 35.4666 	 18.0644 	 84.7507
| 40> H 	 42.7741 	 15.5026 	 81.2712
| 41> *
| 42>
| 43>                          ****END OF INPUT****

CARTESIAN COORDINATES (ANGSTROEM)
---------------------------------
  S     38.000600   17.607300   84.405100
  C     36.267300   17.831700   84.018500
  C     36.102400   17.721600   82.674000
  C     37.257500   17.197400   82.033300
  C     38.306200   16.922500   82.858800
  H     37.483300   17.094300   80.904300
  C     34.920600   18.140400   81.880400
  H     34.183500   18.581900   82.570300
  H     34.585200   17.282100   81.410600
  C     35.143700   19.209300   80.769700
  H     35.772600   19.959000   81.162400
  H     35.643000   18.710700   79.929800
  C     33.859800   19.833100   80.111000
  H     33.279900   20.256300   80.909900
  H     34.174800   20.489700   79.324600
  H     33.211700   19.121500   79.658000
  S     40.744000   17.001200   81.629600
  C     41.784400   15.584500   81.747300
  C     40.999000   14.443900   81.857500
  C     39.648900   14.837300   82.304700
  C     39.487300   16.180300   82.551000
  H     41.435900   13.477500   81.808000
  C     38.557800   13.843500   82.491900
  H     38.846100   12.883300   82.042500
  H     37.737600   14.280700   81.848500
  C     38.022800   13.679600   83.883100
  H     37.477900   14.589600   84.105300
  H     38.781600   13.489800   84.617300
  C     36.878300   12.628900   83.992400
  H     36.282100   12.716300   84.976700
  H     37.358600   11.630700   83.970800
  H     36.217500   12.823000   83.177100
  H     35.466600   18.064400   84.750700
  H     42.774100   15.502600   81.271200

 Total Charge           Charge          ....    0
 Multiplicity           Mult            ....    1
 Number of Electrons    NEL             ....  134
 Basis Dimension        Dim             ....  322

ORBITAL ENERGIES
----------------

  NO   OCC          E(Eh)            E(eV)
   0   2.0000     -88.963329     -2420.8153
   1   2.0000     -88.958452     -2420.6826
   2   2.0000     -10.323345      -280.9125
   3   2.0000     -10.319854      -280.8175
   4   2.0000     -10.319606      -280.8108
   5   2.0000     -10.319019      -280.7948
   6   2.0000     -10.306942      -280.4661
   7   2.0000     -10.299587      -280.2660
   8   2.0000     -10.298767      -280.2437
   9   2.0000     -10.297098      -280.1983
  10   2.0000     -10.288421      -279.9622
  11   2.0000     -10.287754      -279.9440
  12   2.0000     -10.287469      -279.9363
  13   2.0000     -10.279940      -279.7314
  14   2.0000     -10.277759      -279.6721
  15   2.0000     -10.275587      -279.6129
  16   2.0000      -8.078103      -219.8164
  17   2.0000      -8.073336      -219.6866
  18   2.0000      -6.036622      -164.2648
  19   2.0000      -6.032787      -164.1605
  20   2.0000      -6.031965      -164.1381
  21   2.0000      -6.028614      -164.0469
  22   2.0000      -6.028304      -164.0385
  23   2.0000      -6.023458      -163.9066
  24   2.0000      -1.012950       -27.5638
  25   2.0000      -0.987104       -26.8605
  26   2.0000      -0.914548       -24.8861
  27   2.0000      -0.909766       -24.7560
  28   2.0000      -0.873888       -23.7797
  29   2.0000      -0.847709       -23.0673
  30   2.0000      -0.842995       -22.9390
  31   2.0000      -0.815175       -22.1820
  32   2.0000      -0.786628       -21.4052
  33   2.0000      -0.766720       -20.8635
  34   2.0000      -0.712418       -19.3859
  35   2.0000      -0.699560       -19.0360
  36   2.0000      -0.686475       -18.6799
  37   2.0000      -0.661599       -18.0030
  38   2.0000      -0.640948       -17.4411
  39   2.0000      -0.616005       -16.7624
  40   2.0000      -0.588511       -16.0142
  41   2.0000      -0.578689       -15.7469
  42   2.0000      -0.574004       -15.6194
  43   2.0000      -0.565027       -15.3752
  44   2.0000      -0.531557       -14.4644
  45   2.0000      -0.523328       -14.2405
  46   2.0000      -0.517587       -14.0843
  47   2.0000      -0.509479       -13.8636
  48   2.0000      -0.503790       -13.7088
  49   2.0000      -0.497814       -13.5462
  50   2.0000      -0.494840       -13.4653
  51   2.0000      -0.485193       -13.2028
  52   2.0000      -0.472144       -12.8477
  53   2.0000      -0.468673       -12.7532
  54   2.0000      -0.459174       -12.4948
  55   2.0000      -0.451537       -12.2870
  56   2.0000      -0.440285       -11.9808
  57   2.0000      -0.434216       -11.8156
  58   2.0000      -0.432346       -11.7647
  59   2.0000      -0.424408       -11.5487
  60   2.0000      -0.417409       -11.3583
  61   2.0000      -0.414376       -11.2758
  62   2.0000      -0.404193       -10.9987
  63   2.0000      -0.327734        -8.9181
  64   2.0000      -0.325600        -8.8600
  65   2.0000      -0.317010        -8.6263
  66   2.0000      -0.310910        -8.4603
  67   0.0000       0.033532         0.9125
  68   0.0000       0.042496         1.1564
  69   0.0000       0.093092         2.5332
  70   0.0000       0.106065         2.8862
  71   0.0000       0.133351         3.6287

MULLIKEN ATOMIC CHARGES
-----------------------
   0 S :    0.116388
   1 C :   -0.160056
   2 C :   -0.069803
   3 C :    0.013245
   4 C :   -0.209973
   5 H :    0.047169
   6 C :    0.117666
   7 H :    0.012083
   8 H :    0.014354
   9 C :   -0.103037
  10 H :    0.031156
  11 H :    0.027636
  12 C :   -0.022283
  13 H :    0.027412
  14 H :    0.041430
  15 H :    0.019000
  16 S :    0.081591
  17 C :   -0.081295
  18 C :   -0.021838
  19 C :   -0.051534
  20 C :   -0.133191
  21 H :    0.019074
  22 C :    0.069589
  23 H :    0.013446
  24 H :    0.029574
  25 C :   -0.066392
  26 H :    0.035560
  27 H :    0.030737
  28 C :   -0.067257
  29 H :    0.047870
  30 H :    0.035364
  31 H :    0.026109
  32 H :    0.061834
  33 H :    0.068372
Sum of atomic charges:    0.0000000

LOEWDIN ATOMIC CHARGES
----------------------
   0 S :    0.406174
   1 C :   -0.188770
   2 C :   -0.069336
   3 C :   -0.075061
   4 C :   -0.211344
   5 H :    0.046612
   6 C :   -0.026007
   7 H :    0.028798
   8 H :    0.022894
   9 C :   -0.030387
  10 H :    0.018561
  11 H :    0.022130
  12 C :   -0.056067
  13 H :    0.022169
  14 H :    0.029363
  15 H :    0.020659
  16 S :    0.383453
  17 C :   -0.176950
  18 C :   -0.065245
  19 C :   -0.038618
  20 C :   -0.205210
  21 H :    0.028215
  22 C :   -0.040885
  23 H :    0.025360
  24 H :    0.040205
  25 C :   -0.039891
  26 H :    0.025287
  27 H :    0.020561
  28 C :   -0.065859
  29 H :    0.035448
  30 H :    0.023262
  31 H :    0.018611
  32 H :    0.038225
  33 H :    0.033644

  Mayer bond orders larger than 0.100000
B(  0-S ,  1-C ) :   1.1260 B(  0-S ,  4-C ) :   1.1461 B(  1-C ,  2-C ) :   1.6190
B(  1-C , 32-H ) :   0.9672 B(  2-C ,  3-C ) :   1.2042 B(  2-C ,  6-C ) :   1.0381
B(  3-C ,  4-C ) :   1.6095 B(  3-C ,  5-H ) :   0.9782 B(  4-C , 20-C ) :   1.0234
B(  6-C ,  7-H ) :   0.9397 B(  6-C ,  8-H ) :   0.9248 B(  6-C ,  9-C ) :   1.0681
B(  9-C , 10-H ) :   0.9623 B(  9-C , 11-H ) :   0.9514 B(  9-C , 12-C ) :   1.0861
B( 12-C , 13-H ) :   0.9765 B( 12-C , 14-H ) :   0.9749 B( 12-C , 15-H ) :   0.9750
B( 16-S , 17-C ) :   1.1530 B( 16-S , 20-C ) :   1.1117 B( 17-C , 18-C ) :   1.6252
B( 17-C , 33-H ) :   0.9594 B( 18-C , 19-C ) :   1.2034 B( 18-C , 21-H ) :   0.9971
B( 19-C , 20-C ) :   1.6131 B( 19-C , 22-C ) :   1.0596 B( 22-C , 23-H ) :   0.9377
B( 22-C , 24-H ) :   0.9096 B( 22-C , 25-C ) :   1.0780 B( 25-C , 26-H ) :   0.9478
B( 25-C , 27-H ) :   0.9604 B( 25-C , 28-C ) :   1.0800 B( 28-C , 29-H ) :   0.9766
B( 28-C , 30-H ) :   0.9781 B( 28-C , 31-H ) :   0.9736

Dispersion correction           -0.014791687
FINAL SINGLE POINT ENERGY     -1339.836171919813

DIPOLE MOMENT
-------------
                                X             Y             Z
Electronic contribution:     21.92240       6.11442       6.05648
Nuclear contribution   :    -22.41811      -6.39738      -6.49683
                        -----------------------------------------
Total Dipole Moment    :     -0.49571      -0.28296      -0.44034
                        -----------------------------------------
Magnitude (a.u.)       :      0.72090
Magnitude (Debye)      :      1.83238

Rotational constants in cm-1:     0.018146     0.008573     0.007247
Rotational constants in MHz :   543.995236   256.998308   217.258056

                             ****ORCA TERMINATED NORMALLY****
TOTAL RUN TIME: 0 days 0 hours 0 minutes 32 seconds 186 msec
