                         Program Version 4.2.1 -  RELEASE  -
|  1> ! wB97X-D3 SP def2-SVP
|  2> %pal
|  3> nprocs 16
|  4> end
|  5>
|  6> * xyz 0 1
|  7> S 	 -38.8576 	 20.6618 	 77.8486
|  8> C 	 -39.9763 	 20.9476 	 76.4988
|  9> C 	 -39.7995 	 19.9957 	 75.4771
| 10> C 	 -38.8092 	 18.9967 	 75.8649
| 11> C 	 -38.3017 	 19.1815 	 77.1325
| 12> H 	 -38.5887 	 18.1049 	 75.2858
| 13> C 	 -40.5111 	 19.9984 	 74.1756
| 14> H 	 -39.6277 	 19.8041 	 73.5741
| 15> H 	 -40.7344 	 21.0172 	 73.75
| 16> C 	 -41.7773 	 19.0999 	 74.0375
| 17> H 	 -42.1646 	 19.2244 	 73.0207
| 18> H 	 -41.4955 	 18.0035 	 74.139
| 19> C 	 -42.8556 	 19.4954 	 74.9898
| 20> H 	 -43.0826 	 20.5563 	 74.9387
| 21> H 	 -43.718 	 18.8662 	 74.7911
| 22> H 	 -42.58 	 19.199 	 76.0528
| 23> S 	 -35.6559 	 18.9911 	 77.8465
| 24> C 	 -35.0732 	 17.4972 	 78.4364
| 25> C 	 -36.0332 	 16.56 	 78.4998
| 26> C 	 -37.3333 	 16.9928 	 78.0985
| 27> C 	 -37.279 	 18.3733 	 77.8054
| 28> H 	 -35.6957 	 15.5534 	 78.8063
| 29> C 	 -38.6149 	 16.1357 	 77.9375
| 30> H 	 -38.1474 	 15.1811 	 78.0125
| 31> H 	 -39.0855 	 16.134 	 77.0179
| 32> C 	 -39.7235 	 16.215 	 79.0518
| 33> H 	 -39.8691 	 17.2526 	 79.5701
| 34> H 	 -39.5889 	 15.4218 	 79.8405
| 35> C 	 -41.1623 	 15.9937 	 78.4372
| 36> H 	 -41.8773 	 15.5049 	 79.1688
| 37> H 	 -41.2756 	 15.3556 	 77.518
| 38> H 	 -41.5958 	 17.0002 	 78.2933
| 39> H 	 -40.765 	 21.6899 	 76.3812
| 40> H 	 -33.9785 	 17.3819 	 78.6568
| 41> *
| 42>
| 43>                          ****END OF INPUT****

CARTESIAN COORDINATES (ANGSTROEM)
---------------------------------
  S    -38.857600   20.661800   77.848600
  C    -39.976300   20.947600   76.498800
  C    -39.799500   19.995700   75.477100
  C    -38.809200   18.996700   75.864900
  C    -38.301700   19.181500   77.132500
  H    -38.588700   18.104900   75.285800
  C    -40.511100   19.998400   74.175600
  H    -39.627700   19.804100   73.574100
  H    -40.734400   21.017200   73.750000
  C    -41.777300   19.099900   74.037500
  H    -42.164600   19.224400   73.020700
  H    -41.495500   18.003500   74.139000
  C    -42.855600   19.495400   74.989800
  H    -43.082600   20.556300   74.938700
  H    -43.718000   18.866200   74.791100
  H    -42.580000   19.199000   76.052800
  S    -35.655900   18.991100   77.846500
  C    -35.073200   17.497200   78.436400
  C    -36.033200   16.560000   78.499800
  C    -37.333300   16.992800   78.098500
  C    -37.279000   18.373300   77.805400
  H    -35.695700   15.553400   78.806300
  C    -38.614900   16.135700   77.937500
  H    -38.147400   15.181100   78.012500
  H    -39.085500   16.134000   77.017900
  C    -39.723500   16.215000   79.051800
  H    -39.869100   17.252600   79.570100
  H    -39.588900   15.421800   79.840500
  C    -41.162300   15.993700   78.437200
  H    -41.877300   15.504900   79.168800
  H    -41.275600   15.355600   77.518000
  H    -41.595800   17.000200   78.293300
  H    -40.765000   21.689900   76.381200
  H    -33.978500   17.381900   78.656800

 Total Charge           Charge          ....    0
 Multiplicity           Mult            ....    1
 Number of Electrons    NEL             ....  134
 Basis Dimension        Dim             ....  322

ORBITAL ENERGIES
----------------

  NO   OCC          E(Eh)            E(eV)
   0   2.0000     -88.965899     -2420.8852
   1   2.0000     -88.963507     -2420.8201
   2   2.0000     -10.326561      -281.0000
   3   2.0000     -10.323200      -280.9086
   4   2.0000     -10.314909      -280.6829
   5   2.0000     -10.313763      -280.6518
   6   2.0000     -10.309156      -280.5264
   7   2.0000     -10.302569      -280.3472
   8   2.0000     -10.301326      -280.3133
   9   2.0000     -10.295124      -280.1446
  10   2.0000     -10.294245      -280.1207
  11   2.0000     -10.293731      -280.1067
  12   2.0000     -10.293483      -280.0999
  13   2.0000     -10.291086      -280.0347
  14   2.0000     -10.285559      -279.8843
  15   2.0000     -10.279631      -279.7230
  16   2.0000      -8.080245      -219.8747
  17   2.0000      -8.079579      -219.8565
  18   2.0000      -6.038754      -164.3229
  19   2.0000      -6.037859      -164.2985
  20   2.0000      -6.034791      -164.2150
  21   2.0000      -6.033889      -164.1905
  22   2.0000      -6.031039      -164.1129
  23   2.0000      -6.030509      -164.0985
  24   2.0000      -1.008105       -27.4319
  25   2.0000      -0.982668       -26.7397
  26   2.0000      -0.913871       -24.8677
  27   2.0000      -0.898620       -24.4527
  28   2.0000      -0.867379       -23.6026
  29   2.0000      -0.847979       -23.0747
  30   2.0000      -0.845966       -23.0199
  31   2.0000      -0.811828       -22.0910
  32   2.0000      -0.783547       -21.3214
  33   2.0000      -0.770957       -20.9788
  34   2.0000      -0.702736       -19.1224
  35   2.0000      -0.694259       -18.8917
  36   2.0000      -0.686192       -18.6722
  37   2.0000      -0.654057       -17.7978
  38   2.0000      -0.633390       -17.2354
  39   2.0000      -0.619450       -16.8561
  40   2.0000      -0.599627       -16.3167
  41   2.0000      -0.567600       -15.4452
  42   2.0000      -0.556946       -15.1553
  43   2.0000      -0.552310       -15.0291
  44   2.0000      -0.540807       -14.7161
  45   2.0000      -0.519246       -14.1294
  46   2.0000      -0.514788       -14.0081
  47   2.0000      -0.504679       -13.7330
  48   2.0000      -0.502288       -13.6680
  49   2.0000      -0.491982       -13.3875
  50   2.0000      -0.489592       -13.3225
  51   2.0000      -0.477519       -12.9940
  52   2.0000      -0.468509       -12.7488
  53   2.0000      -0.466244       -12.6871
  54   2.0000      -0.456037       -12.4094
  55   2.0000      -0.445392       -12.1197
  56   2.0000      -0.439369       -11.9558
  57   2.0000      -0.435563       -11.8523
  58   2.0000      -0.432154       -11.7595
  59   2.0000      -0.426675       -11.6104
  60   2.0000      -0.419330       -11.4106
  61   2.0000      -0.407700       -11.0941
  62   2.0000      -0.406110       -11.0508
  63   2.0000      -0.341620        -9.2959
  64   2.0000      -0.328341        -8.9346
  65   2.0000      -0.326870        -8.8946
  66   2.0000      -0.299504        -8.1499
  67   0.0000       0.039678         1.0797
  68   0.0000       0.062931         1.7125
  69   0.0000       0.115112         3.1324
  70   0.0000       0.119770         3.2591
  71   0.0000       0.126245         3.4353

MULLIKEN ATOMIC CHARGES
-----------------------
   0 S :    0.112064
   1 C :   -0.104563
   2 C :   -0.119830
   3 C :    0.051693
   4 C :   -0.177939
   5 H :    0.016563
   6 C :    0.017805
   7 H :    0.029864
   8 H :    0.027988
   9 C :   -0.057073
  10 H :    0.032100
  11 H :    0.037153
  12 C :   -0.058457
  13 H :    0.033698
  14 H :    0.033787
  15 H :    0.049130
  16 S :    0.120417
  17 C :   -0.116640
  18 C :   -0.044250
  19 C :   -0.043139
  20 C :   -0.156882
  21 H :    0.024066
  22 C :    0.153329
  23 H :    0.007106
  24 H :    0.010268
  25 C :   -0.107877
  26 H :    0.062406
  27 H :    0.046126
  28 C :   -0.126440
  29 H :    0.035761
  30 H :    0.043423
  31 H :    0.049761
  32 H :    0.043290
  33 H :    0.075290
Sum of atomic charges:    0.0000000

LOEWDIN ATOMIC CHARGES
----------------------
   0 S :    0.401779
   1 C :   -0.197779
   2 C :   -0.061579
   3 C :   -0.061114
   4 C :   -0.202458
   5 H :    0.031631
   6 C :   -0.051630
   7 H :    0.037623
   8 H :    0.035445
   9 C :   -0.041886
  10 H :    0.025034
  11 H :    0.029842
  12 C :   -0.069282
  13 H :    0.023662
  14 H :    0.028090
  15 H :    0.034170
  16 S :    0.430550
  17 C :   -0.204518
  18 C :   -0.083019
  19 C :   -0.049584
  20 C :   -0.209373
  21 H :    0.036947
  22 C :   -0.023658
  23 H :    0.032884
  24 H :    0.019379
  25 C :   -0.045487
  26 H :    0.041084
  27 H :    0.027472
  28 C :   -0.087381
  29 H :    0.029702
  30 H :    0.025124
  31 H :    0.028660
  32 H :    0.029480
  33 H :    0.040190

  Mayer bond orders larger than 0.100000
B(  0-S ,  1-C ) :   1.1271 B(  0-S ,  4-C ) :   1.1514 B(  1-C ,  2-C ) :   1.6182
B(  1-C , 32-H ) :   0.9671 B(  2-C ,  3-C ) :   1.2274 B(  2-C ,  6-C ) :   1.0098
B(  3-C ,  4-C ) :   1.5965 B(  3-C ,  5-H ) :   0.9890 B(  4-C , 20-C ) :   1.0008
B(  6-C ,  7-H ) :   0.9381 B(  6-C ,  8-H ) :   0.9465 B(  6-C ,  9-C ) :   1.0581
B(  9-C , 10-H ) :   0.9544 B(  9-C , 11-H ) :   0.9556 B(  9-C , 12-C ) :   1.0837
B( 12-C , 13-H ) :   0.9724 B( 12-C , 14-H ) :   0.9694 B( 12-C , 15-H ) :   0.9694
B( 16-S , 17-C ) :   1.1662 B( 16-S , 20-C ) :   1.1793 B( 17-C , 18-C ) :   1.6125
B( 17-C , 33-H ) :   0.9590 B( 18-C , 19-C ) :   1.2562 B( 18-C , 21-H ) :   0.9869
B( 19-C , 20-C ) :   1.5687 B( 19-C , 22-C ) :   1.0247 B( 22-C , 23-H ) :   0.9206
B( 22-C , 24-H ) :   0.9452 B( 22-C , 25-C ) :   1.0378 B( 25-C , 26-H ) :   0.9703
B( 25-C , 27-H ) :   0.9663 B( 25-C , 28-C ) :   1.0481 B( 28-C , 29-H ) :   0.9763
B( 28-C , 30-H ) :   0.9759 B( 28-C , 31-H ) :   0.9844

Dispersion correction           -0.015096584
FINAL SINGLE POINT ENERGY     -1339.862976422112

DIPOLE MOMENT
-------------
                                X             Y             Z
Electronic contribution:     25.35140      12.67670       8.28312
Nuclear contribution   :    -25.64047     -13.18044      -8.69615
                        -----------------------------------------
Total Dipole Moment    :     -0.28906      -0.50374      -0.41302
                        -----------------------------------------
Magnitude (a.u.)       :      0.71267
Magnitude (Debye)      :      1.81146

Rotational constants in cm-1:     0.019246     0.009313     0.007384
Rotational constants in MHz :   576.988740   279.192427   221.369166

                             ****ORCA TERMINATED NORMALLY****
TOTAL RUN TIME: 0 days 0 hours 0 minutes 31 seconds 53 msec
