                         Program Version 4.2.1 -  RELEASE  -
|  1> ! wB97X-D3 SP def2-SVP
|  2> %pal
|  3> nprocs 16
|  4> end
|  5>
|  6> * xyz 0 1
|  7> S 	 8.75711 	 23.4612 	 54.774
|  8> C 	 9.88558 	 22.8149 	 53.6793
|  9> C 	 9.88241 	 21.4397 	 53.6367
| 10> C 	 8.9603 	 20.8961 	 54.5726
| 11> C 	 8.3176 	 21.8822 	 55.2865
| 12> H 	 8.76837 	 19.8177 	 54.8163
| 13> C 	 10.9324 	 20.6831 	 52.9063
| 14> H 	 11.4566 	 21.4701 	 52.251
| 15> H 	 10.367 	 20.0685 	 52.2922
| 16> C 	 12.048 	 20.0239 	 53.7601
| 17> H 	 12.7864 	 19.7554 	 53.0469
| 18> H 	 12.5022 	 20.6691 	 54.497
| 19> C 	 11.5187 	 18.7214 	 54.4659
| 20> H 	 12.3645 	 18.1997 	 54.8708
| 21> H 	 10.7379 	 18.9339 	 55.2676
| 22> H 	 10.9683 	 18.159 	 53.6723
| 23> S 	 7.16456 	 23.3111 	 57.362
| 24> C 	 6.01952 	 22.5905 	 58.4674
| 25> C 	 5.91539 	 21.2362 	 58.2622
| 26> C 	 6.68694 	 20.8023 	 57.1777
| 27> C 	 7.38677 	 21.7973 	 56.4815
| 28> H 	 5.42514 	 20.6024 	 58.9499
| 29> C 	 6.6619 	 19.3334 	 56.7652
| 30> H 	 6.7043 	 19.235 	 55.7557
| 31> H 	 5.74848 	 18.8678 	 57.0281
| 32> C 	 7.78157 	 18.4729 	 57.2631
| 33> H 	 7.94236 	 18.5661 	 58.2939
| 34> H 	 8.68572 	 18.7947 	 56.7185
| 35> C 	 7.71707 	 16.9531 	 57.0272
| 36> H 	 7.92268 	 16.8057 	 55.9798
| 37> H 	 6.87265 	 16.328 	 57.2988
| 38> H 	 8.59442 	 16.5343 	 57.5641
| 39> H 	 10.3926 	 23.4548 	 52.9981
| 40> H 	 5.55104 	 23.1558 	 59.2986
| 41> *
| 42>
| 43>                          ****END OF INPUT****

CARTESIAN COORDINATES (ANGSTROEM)
---------------------------------
  S      8.757110   23.461200   54.774000
  C      9.885580   22.814900   53.679300
  C      9.882410   21.439700   53.636700
  C      8.960300   20.896100   54.572600
  C      8.317600   21.882200   55.286500
  H      8.768370   19.817700   54.816300
  C     10.932400   20.683100   52.906300
  H     11.456600   21.470100   52.251000
  H     10.367000   20.068500   52.292200
  C     12.048000   20.023900   53.760100
  H     12.786400   19.755400   53.046900
  H     12.502200   20.669100   54.497000
  C     11.518700   18.721400   54.465900
  H     12.364500   18.199700   54.870800
  H     10.737900   18.933900   55.267600
  H     10.968300   18.159000   53.672300
  S      7.164560   23.311100   57.362000
  C      6.019520   22.590500   58.467400
  C      5.915390   21.236200   58.262200
  C      6.686940   20.802300   57.177700
  C      7.386770   21.797300   56.481500
  H      5.425140   20.602400   58.949900
  C      6.661900   19.333400   56.765200
  H      6.704300   19.235000   55.755700
  H      5.748480   18.867800   57.028100
  C      7.781570   18.472900   57.263100
  H      7.942360   18.566100   58.293900
  H      8.685720   18.794700   56.718500
  C      7.717070   16.953100   57.027200
  H      7.922680   16.805700   55.979800
  H      6.872650   16.328000   57.298800
  H      8.594420   16.534300   57.564100
  H     10.392600   23.454800   52.998100
  H      5.551040   23.155800   59.298600

 Total Charge           Charge          ....    0
 Multiplicity           Mult            ....    1
 Number of Electrons    NEL             ....  134
 Basis Dimension        Dim             ....  322

ORBITAL ENERGIES
----------------

  NO   OCC          E(Eh)            E(eV)
   0   2.0000     -88.965384     -2420.8712
   1   2.0000     -88.964303     -2420.8418
   2   2.0000     -10.333963      -281.2014
   3   2.0000     -10.333793      -281.1968
   4   2.0000     -10.319428      -280.8059
   5   2.0000     -10.304932      -280.4115
   6   2.0000     -10.302656      -280.3495
   7   2.0000     -10.298375      -280.2330
   8   2.0000     -10.296784      -280.1897
   9   2.0000     -10.291428      -280.0440
  10   2.0000     -10.289338      -279.9871
  11   2.0000     -10.288719      -279.9703
  12   2.0000     -10.286780      -279.9175
  13   2.0000     -10.280471      -279.7458
  14   2.0000     -10.278408      -279.6897
  15   2.0000     -10.276414      -279.6354
  16   2.0000      -8.081912      -219.9200
  17   2.0000      -8.079023      -219.8414
  18   2.0000      -6.040185      -164.3618
  19   2.0000      -6.037562      -164.2904
  20   2.0000      -6.036207      -164.2535
  21   2.0000      -6.033454      -164.1786
  22   2.0000      -6.032784      -164.1604
  23   2.0000      -6.029837      -164.0802
  24   2.0000      -1.014013       -27.5927
  25   2.0000      -0.990404       -26.9503
  26   2.0000      -0.916789       -24.9471
  27   2.0000      -0.913145       -24.8479
  28   2.0000      -0.867105       -23.5951
  29   2.0000      -0.854035       -23.2395
  30   2.0000      -0.846727       -23.0406
  31   2.0000      -0.820805       -22.3352
  32   2.0000      -0.786237       -21.3946
  33   2.0000      -0.772199       -21.0126
  34   2.0000      -0.709074       -19.2949
  35   2.0000      -0.701440       -19.0871
  36   2.0000      -0.690983       -18.8026
  37   2.0000      -0.668228       -18.1834
  38   2.0000      -0.643420       -17.5083
  39   2.0000      -0.621925       -16.9234
  40   2.0000      -0.601593       -16.3702
  41   2.0000      -0.574860       -15.6427
  42   2.0000      -0.573074       -15.5941
  43   2.0000      -0.544637       -14.8203
  44   2.0000      -0.540514       -14.7081
  45   2.0000      -0.525200       -14.2914
  46   2.0000      -0.524602       -14.2752
  47   2.0000      -0.516783       -14.0624
  48   2.0000      -0.503513       -13.7013
  49   2.0000      -0.497767       -13.5449
  50   2.0000      -0.495766       -13.4905
  51   2.0000      -0.482888       -13.1401
  52   2.0000      -0.475748       -12.9458
  53   2.0000      -0.470854       -12.8126
  54   2.0000      -0.459773       -12.5110
  55   2.0000      -0.454740       -12.3741
  56   2.0000      -0.448982       -12.2174
  57   2.0000      -0.439688       -11.9645
  58   2.0000      -0.430588       -11.7169
  59   2.0000      -0.422460       -11.4957
  60   2.0000      -0.419206       -11.4072
  61   2.0000      -0.416658       -11.3378
  62   2.0000      -0.408500       -11.1159
  63   2.0000      -0.360581        -9.8119
  64   2.0000      -0.338538        -9.2121
  65   2.0000      -0.328519        -8.9394
  66   2.0000      -0.283025        -7.7015
  67   0.0000       0.022385         0.6091
  68   0.0000       0.086456         2.3526
  69   0.0000       0.100069         2.7230
  70   0.0000       0.121084         3.2949
  71   0.0000       0.122127         3.3232

MULLIKEN ATOMIC CHARGES
-----------------------
   0 S :    0.107415
   1 C :   -0.112322
   2 C :   -0.085486
   3 C :   -0.033413
   4 C :   -0.089867
   5 H :    0.017078
   6 C :    0.055686
   7 H :    0.025120
   8 H :    0.017109
   9 C :   -0.028888
  10 H :    0.028654
  11 H :    0.036796
  12 C :   -0.089443
  13 H :    0.042209
  14 H :    0.051335
  15 H :    0.031609
  16 S :    0.075738
  17 C :   -0.095862
  18 C :   -0.006554
  19 C :   -0.070473
  20 C :   -0.107805
  21 H :    0.005705
  22 C :    0.132384
  23 H :   -0.012193
  24 H :   -0.003211
  25 C :   -0.066989
  26 H :    0.012810
  27 H :    0.013990
  28 C :   -0.051525
  29 H :    0.017685
  30 H :    0.038480
  31 H :    0.034630
  32 H :    0.037750
  33 H :    0.071847
Sum of atomic charges:   -0.0000000

LOEWDIN ATOMIC CHARGES
----------------------
   0 S :    0.435181
   1 C :   -0.208190
   2 C :   -0.064983
   3 C :   -0.078275
   4 C :   -0.189655
   5 H :    0.036484
   6 C :   -0.029176
   7 H :    0.038631
   8 H :    0.020825
   9 C :   -0.027410
  10 H :    0.022122
  11 H :    0.026652
  12 C :   -0.070781
  13 H :    0.023473
  14 H :    0.028705
  15 H :    0.026355
  16 S :    0.394774
  17 C :   -0.184584
  18 C :   -0.069172
  19 C :   -0.056655
  20 C :   -0.185798
  21 H :    0.028541
  22 C :   -0.025112
  23 H :    0.014482
  24 H :    0.024113
  25 C :   -0.034379
  26 H :    0.014324
  27 H :    0.023003
  28 C :   -0.067118
  29 H :    0.019623
  30 H :    0.022757
  31 H :    0.034137
  32 H :    0.019783
  33 H :    0.037325

  Mayer bond orders larger than 0.100000
B(  0-S ,  1-C ) :   1.1497 B(  0-S ,  4-C ) :   1.1760 B(  1-C ,  2-C ) :   1.6039
B(  1-C , 32-H ) :   0.9691 B(  2-C ,  3-C ) :   1.2443 B(  2-C ,  6-C ) :   1.0264
B(  3-C ,  4-C ) :   1.5693 B(  3-C ,  5-H ) :   0.9795 B(  4-C , 20-C ) :   1.0255
B(  6-C ,  7-H ) :   0.9414 B(  6-C ,  8-H ) :   0.9319 B(  6-C ,  9-C ) :   1.0639
B(  9-C , 10-H ) :   0.9552 B(  9-C , 11-H ) :   0.9563 B(  9-C , 12-C ) :   1.0733
B( 12-C , 13-H ) :   0.9715 B( 12-C , 14-H ) :   0.9708 B( 12-C , 15-H ) :   0.9755
B( 16-S , 17-C ) :   1.1654 B( 16-S , 20-C ) :   1.1404 B( 17-C , 18-C ) :   1.5746
B( 17-C , 20-C ) :   0.1036 B( 17-C , 33-H ) :   0.9634 B( 18-C , 19-C ) :   1.2800
B( 18-C , 21-H ) :   0.9988 B( 19-C , 20-C ) :   1.5803 B( 19-C , 22-C ) :   1.0441
B( 22-C , 23-H ) :   0.9252 B( 22-C , 24-H ) :   0.9285 B( 22-C , 25-C ) :   1.0705
B( 25-C , 26-H ) :   0.9543 B( 25-C , 27-H ) :   0.9479 B( 25-C , 28-C ) :   1.0817
B( 28-C , 29-H ) :   0.9752 B( 28-C , 30-H ) :   0.9771 B( 28-C , 31-H ) :   0.9733

Dispersion correction           -0.014875348
FINAL SINGLE POINT ENERGY     -1339.867414798765

DIPOLE MOMENT
-------------
                                X             Y             Z
Electronic contribution:    -10.92025      29.58988       3.30836
Nuclear contribution   :     11.17067     -30.17110      -3.30931
                        -----------------------------------------
Total Dipole Moment    :      0.25041      -0.58123      -0.00095
                        -----------------------------------------
Magnitude (a.u.)       :      0.63288
Magnitude (Debye)      :      1.60865

Rotational constants in cm-1:     0.016636     0.010867     0.006945
Rotational constants in MHz :   498.721380   325.771859   208.193521

                             ****ORCA TERMINATED NORMALLY****
TOTAL RUN TIME: 0 days 0 hours 0 minutes 36 seconds 844 msec
