                         Program Version 4.2.1 -  RELEASE  -
|  1> ! wB97X-D3 SP def2-SVP
|  2> %pal
|  3> nprocs 16
|  4> end
|  5>
|  6> * xyz 0 1
|  7> S 	 10.8895 	 -11.843 	 100.277
|  8> C 	 10.4842 	 -12.5104 	 101.868
|  9> C 	 9.14421 	 -12.7874 	 101.935
| 10> C 	 8.40265 	 -12.5176 	 100.744
| 11> C 	 9.23342 	 -12.0073 	 99.7582
| 12> H 	 7.35492 	 -12.7111 	 100.623
| 13> C 	 8.55319 	 -13.4447 	 103.149
| 14> H 	 7.47353 	 -13.2557 	 103.08
| 15> H 	 8.87806 	 -12.7713 	 103.908
| 16> C 	 8.89726 	 -14.9448 	 103.397
| 17> H 	 8.52884 	 -15.2799 	 104.38
| 18> H 	 8.5096 	 -15.5611 	 102.559
| 19> C 	 10.3876 	 -15.1913 	 103.465
| 20> H 	 10.7602 	 -15.3513 	 102.439
| 21> H 	 10.9054 	 -14.4107 	 104.043
| 22> H 	 10.6125 	 -16.1768 	 103.945
| 23> S 	 9.25577 	 -10.1023 	 97.7937
| 24> C 	 8.48459 	 -10.3864 	 96.2128
| 25> C 	 7.72367 	 -11.5782 	 96.3192
| 26> C 	 7.84149 	 -12.3094 	 97.5546
| 27> C 	 8.74945 	 -11.6635 	 98.3918
| 28> H 	 7.29837 	 -11.9847 	 95.3873
| 29> C 	 7.15043 	 -13.6737 	 97.7833
| 30> H 	 6.339 	 -13.4964 	 98.4825
| 31> H 	 7.84128 	 -14.4522 	 98.0941
| 32> C 	 6.56471 	 -14.3156 	 96.5286
| 33> H 	 7.2778 	 -14.2391 	 95.6819
| 34> H 	 5.80833 	 -13.5722 	 96.2691
| 35> C 	 6.01519 	 -15.6931 	 96.762
| 36> H 	 6.86622 	 -16.4062 	 96.9113
| 37> H 	 5.36017 	 -16.123 	 95.9461
| 38> H 	 5.39829 	 -15.7293 	 97.7263
| 39> H 	 11.2223 	 -12.8103 	 102.579
| 40> H 	 8.699 	 -9.93524 	 95.2534
| 41> *
| 42>
| 43>                          ****END OF INPUT****

CARTESIAN COORDINATES (ANGSTROEM)
---------------------------------
  S     10.889500  -11.843000  100.277000
  C     10.484200  -12.510400  101.868000
  C      9.144210  -12.787400  101.935000
  C      8.402650  -12.517600  100.744000
  C      9.233420  -12.007300   99.758200
  H      7.354920  -12.711100  100.623000
  C      8.553190  -13.444700  103.149000
  H      7.473530  -13.255700  103.080000
  H      8.878060  -12.771300  103.908000
  C      8.897260  -14.944800  103.397000
  H      8.528840  -15.279900  104.380000
  H      8.509600  -15.561100  102.559000
  C     10.387600  -15.191300  103.465000
  H     10.760200  -15.351300  102.439000
  H     10.905400  -14.410700  104.043000
  H     10.612500  -16.176800  103.945000
  S      9.255770  -10.102300   97.793700
  C      8.484590  -10.386400   96.212800
  C      7.723670  -11.578200   96.319200
  C      7.841490  -12.309400   97.554600
  C      8.749450  -11.663500   98.391800
  H      7.298370  -11.984700   95.387300
  C      7.150430  -13.673700   97.783300
  H      6.339000  -13.496400   98.482500
  H      7.841280  -14.452200   98.094100
  C      6.564710  -14.315600   96.528600
  H      7.277800  -14.239100   95.681900
  H      5.808330  -13.572200   96.269100
  C      6.015190  -15.693100   96.762000
  H      6.866220  -16.406200   96.911300
  H      5.360170  -16.123000   95.946100
  H      5.398290  -15.729300   97.726300
  H     11.222300  -12.810300  102.579000
  H      8.699000   -9.935240   95.253400

 Total Charge           Charge          ....    0
 Multiplicity           Mult            ....    1
 Number of Electrons    NEL             ....  134
 Basis Dimension        Dim             ....  322

ORBITAL ENERGIES
----------------

  NO   OCC          E(Eh)            E(eV)
   0   2.0000     -88.968130     -2420.9459
   1   2.0000     -88.965668     -2420.8789
   2   2.0000     -10.331398      -281.1316
   3   2.0000     -10.330343      -281.1029
   4   2.0000     -10.319877      -280.8181
   5   2.0000     -10.310469      -280.5621
   6   2.0000     -10.308394      -280.5057
   7   2.0000     -10.299453      -280.2624
   8   2.0000     -10.296749      -280.1888
   9   2.0000     -10.295546      -280.1560
  10   2.0000     -10.293964      -280.1130
  11   2.0000     -10.293627      -280.1038
  12   2.0000     -10.293613      -280.1035
  13   2.0000     -10.288449      -279.9629
  14   2.0000     -10.287020      -279.9240
  15   2.0000     -10.281931      -279.7856
  16   2.0000      -8.082470      -219.9352
  17   2.0000      -8.079720      -219.8604
  18   2.0000      -6.041040      -164.3851
  19   2.0000      -6.038353      -164.3119
  20   2.0000      -6.036982      -164.2746
  21   2.0000      -6.034191      -164.1987
  22   2.0000      -6.033250      -164.1731
  23   2.0000      -6.030528      -164.0990
  24   2.0000      -1.003193       -27.2983
  25   2.0000      -0.979791       -26.6615
  26   2.0000      -0.915832       -24.9211
  27   2.0000      -0.912103       -24.8196
  28   2.0000      -0.862757       -23.4768
  29   2.0000      -0.853269       -23.2186
  30   2.0000      -0.844247       -22.9731
  31   2.0000      -0.811349       -22.0779
  32   2.0000      -0.781033       -21.2530
  33   2.0000      -0.773448       -21.0466
  34   2.0000      -0.704346       -19.1662
  35   2.0000      -0.698743       -19.0138
  36   2.0000      -0.692920       -18.8553
  37   2.0000      -0.650134       -17.6910
  38   2.0000      -0.639408       -17.3992
  39   2.0000      -0.617065       -16.7912
  40   2.0000      -0.595520       -16.2049
  41   2.0000      -0.579090       -15.7578
  42   2.0000      -0.570074       -15.5125
  43   2.0000      -0.553639       -15.0653
  44   2.0000      -0.537768       -14.6334
  45   2.0000      -0.529571       -14.4104
  46   2.0000      -0.520289       -14.1578
  47   2.0000      -0.509538       -13.8652
  48   2.0000      -0.500246       -13.6124
  49   2.0000      -0.496831       -13.5194
  50   2.0000      -0.490223       -13.3396
  51   2.0000      -0.480890       -13.0857
  52   2.0000      -0.470428       -12.8010
  53   2.0000      -0.467773       -12.7288
  54   2.0000      -0.458381       -12.4732
  55   2.0000      -0.449116       -12.2211
  56   2.0000      -0.445298       -12.1172
  57   2.0000      -0.436818       -11.8864
  58   2.0000      -0.429747       -11.6940
  59   2.0000      -0.426873       -11.6158
  60   2.0000      -0.419831       -11.4242
  61   2.0000      -0.410179       -11.1616
  62   2.0000      -0.407934       -11.1004
  63   2.0000      -0.343928        -9.3588
  64   2.0000      -0.332260        -9.0413
  65   2.0000      -0.330849        -9.0029
  66   2.0000      -0.290526        -7.9056
  67   0.0000       0.023624         0.6428
  68   0.0000       0.072966         1.9855
  69   0.0000       0.110628         3.0103
  70   0.0000       0.123408         3.3581
  71   0.0000       0.132082         3.5941

MULLIKEN ATOMIC CHARGES
-----------------------
   0 S :    0.115903
   1 C :   -0.124892
   2 C :   -0.111561
   3 C :    0.033328
   4 C :   -0.134010
   5 H :    0.006483
   6 C :    0.065985
   7 H :    0.016236
   8 H :    0.028095
   9 C :   -0.035023
  10 H :    0.036943
  11 H :    0.038099
  12 C :   -0.098268
  13 H :    0.048069
  14 H :    0.040229
  15 H :    0.034575
  16 S :    0.102536
  17 C :   -0.094778
  18 C :   -0.076096
  19 C :   -0.032734
  20 C :   -0.161829
  21 H :    0.032891
  22 C :    0.065289
  23 H :    0.042162
  24 H :    0.037655
  25 C :   -0.116769
  26 H :    0.039287
  27 H :    0.026513
  28 C :   -0.059563
  29 H :    0.040113
  30 H :    0.052087
  31 H :    0.037906
  32 H :    0.042231
  33 H :    0.062911
Sum of atomic charges:    0.0000000

LOEWDIN ATOMIC CHARGES
----------------------
   0 S :    0.403033
   1 C :   -0.188002
   2 C :   -0.063421
   3 C :   -0.059191
   4 C :   -0.194271
   5 H :    0.030613
   6 C :   -0.036960
   7 H :    0.029735
   8 H :    0.030147
   9 C :   -0.037351
  10 H :    0.027489
  11 H :    0.031320
  12 C :   -0.074844
  13 H :    0.029614
  14 H :    0.022415
  15 H :    0.030003
  16 S :    0.397035
  17 C :   -0.192341
  18 C :   -0.072758
  19 C :   -0.063280
  20 C :   -0.188889
  21 H :    0.032804
  22 C :   -0.027108
  23 H :    0.031124
  24 H :    0.032606
  25 C :   -0.055981
  26 H :    0.025586
  27 H :    0.021003
  28 C :   -0.075266
  29 H :    0.030017
  30 H :    0.035480
  31 H :    0.033238
  32 H :    0.023489
  33 H :    0.032913

  Mayer bond orders larger than 0.100000
B(  0-S ,  1-C ) :   1.1203 B(  0-S ,  4-C ) :   1.1680 B(  1-C ,  2-C ) :   1.6173
B(  1-C , 32-H ) :   0.9695 B(  2-C ,  3-C ) :   1.2516 B(  2-C ,  6-C ) :   1.0022
B(  3-C ,  4-C ) :   1.5477 B(  3-C ,  5-H ) :   0.9986 B(  4-C , 20-C ) :   1.0218
B(  6-C ,  7-H ) :   0.9400 B(  6-C ,  8-H ) :   0.9415 B(  6-C ,  9-C ) :   1.0648
B(  9-C , 10-H ) :   0.9578 B(  9-C , 11-H ) :   0.9559 B(  9-C , 12-C ) :   1.0875
B( 12-C , 13-H ) :   0.9695 B( 12-C , 14-H ) :   0.9704 B( 12-C , 15-H ) :   0.9692
B( 16-S , 17-C ) :   1.1348 B( 16-S , 20-C ) :   1.1622 B( 17-C , 18-C ) :   1.6094
B( 17-C , 20-C ) :   0.1064 B( 17-C , 33-H ) :   0.9653 B( 18-C , 19-C ) :   1.2499
B( 18-C , 21-H ) :   0.9708 B( 19-C , 20-C ) :   1.6037 B( 19-C , 22-C ) :   1.0175
B( 22-C , 23-H ) :   0.9237 B( 22-C , 24-H ) :   0.9451 B( 22-C , 25-C ) :   1.0810
B( 25-C , 26-H ) :   0.9550 B( 25-C , 27-H ) :   0.9432 B( 25-C , 28-C ) :   1.0787
B( 28-C , 29-H ) :   0.9701 B( 28-C , 30-H ) :   0.9717 B( 28-C , 31-H ) :   0.9698

Dispersion correction           -0.013858669
FINAL SINGLE POINT ENERGY     -1339.875080395243

DIPOLE MOMENT
-------------
                                X             Y             Z
Electronic contribution:     12.28176      24.92795      -6.69127
Nuclear contribution   :    -12.61061     -25.66817       6.81881
                        -----------------------------------------
Total Dipole Moment    :     -0.32884      -0.74023       0.12754
                        -----------------------------------------
Magnitude (a.u.)       :      0.81997
Magnitude (Debye)      :      2.08419

Rotational constants in cm-1:     0.017876     0.008737     0.006301
Rotational constants in MHz :   535.896600   261.923898   188.910509

                             ****ORCA TERMINATED NORMALLY****
TOTAL RUN TIME: 0 days 0 hours 0 minutes 33 seconds 640 msec
