                         Program Version 4.2.1 -  RELEASE  -
|  1> ! wB97X-D3 SP def2-SVP
|  2> %pal
|  3> nprocs 16
|  4> end
|  5>
|  6> * xyz 0 1
|  7> S 	 -49.748 	 36.2 	 109.102
|  8> C 	 -48.9304 	 37.6666 	 108.617
|  9> C 	 -49.5439 	 38.25 	 107.488
| 10> C 	 -50.7627 	 37.5553 	 107.186
| 11> C 	 -50.9941 	 36.3836 	 107.941
| 12> H 	 -51.458 	 37.849 	 106.359
| 13> C 	 -48.9963 	 39.405 	 106.554
| 14> H 	 -49.6033 	 40.2455 	 106.721
| 15> H 	 -49.0921 	 39.0858 	 105.48
| 16> C 	 -47.5368 	 39.8879 	 106.727
| 17> H 	 -47.339 	 40.2804 	 107.791
| 18> H 	 -46.8973 	 39.0526 	 106.569
| 19> C 	 -47.0567 	 40.9469 	 105.72
| 20> H 	 -47.1123 	 40.5423 	 104.71
| 21> H 	 -47.7173 	 41.8879 	 105.708
| 22> H 	 -46.0096 	 41.2291 	 105.834
| 23> S 	 -52.4327 	 34.5261 	 106.556
| 24> C 	 -53.9102 	 33.8149 	 107.224
| 25> C 	 -54.21 	 34.4181 	 108.413
| 26> C 	 -53.2282 	 35.3647 	 108.838
| 27> C 	 -52.2149 	 35.5873 	 107.933
| 28> H 	 -55.1457 	 34.198 	 108.905
| 29> C 	 -53.4153 	 36.2301 	 110.109
| 30> H 	 -52.4591 	 36.7285 	 110.367
| 31> H 	 -53.5037 	 35.38 	 110.791
| 32> C 	 -54.6754 	 37.1394 	 110.263
| 33> H 	 -54.4934 	 37.6195 	 111.22
| 34> H 	 -55.6824 	 36.5669 	 110.283
| 35> C 	 -54.7794 	 38.3583 	 109.339
| 36> H 	 -53.9954 	 39.0348 	 109.482
| 37> H 	 -55.6502 	 38.897 	 109.636
| 38> H 	 -54.8029 	 38.1502 	 108.329
| 39> H 	 -47.9452 	 37.9989 	 108.956
| 40> H 	 -54.5831 	 33.1067 	 106.751
| 41> *
| 42>
| 43>                          ****END OF INPUT****

CARTESIAN COORDINATES (ANGSTROEM)
---------------------------------
  S    -49.748000   36.200000  109.102000
  C    -48.930400   37.666600  108.617000
  C    -49.543900   38.250000  107.488000
  C    -50.762700   37.555300  107.186000
  C    -50.994100   36.383600  107.941000
  H    -51.458000   37.849000  106.359000
  C    -48.996300   39.405000  106.554000
  H    -49.603300   40.245500  106.721000
  H    -49.092100   39.085800  105.480000
  C    -47.536800   39.887900  106.727000
  H    -47.339000   40.280400  107.791000
  H    -46.897300   39.052600  106.569000
  C    -47.056700   40.946900  105.720000
  H    -47.112300   40.542300  104.710000
  H    -47.717300   41.887900  105.708000
  H    -46.009600   41.229100  105.834000
  S    -52.432700   34.526100  106.556000
  C    -53.910200   33.814900  107.224000
  C    -54.210000   34.418100  108.413000
  C    -53.228200   35.364700  108.838000
  C    -52.214900   35.587300  107.933000
  H    -55.145700   34.198000  108.905000
  C    -53.415300   36.230100  110.109000
  H    -52.459100   36.728500  110.367000
  H    -53.503700   35.380000  110.791000
  C    -54.675400   37.139400  110.263000
  H    -54.493400   37.619500  111.220000
  H    -55.682400   36.566900  110.283000
  C    -54.779400   38.358300  109.339000
  H    -53.995400   39.034800  109.482000
  H    -55.650200   38.897000  109.636000
  H    -54.802900   38.150200  108.329000
  H    -47.945200   37.998900  108.956000
  H    -54.583100   33.106700  106.751000

 Total Charge           Charge          ....    0
 Multiplicity           Mult            ....    1
 Number of Electrons    NEL             ....  134
 Basis Dimension        Dim             ....  322

ORBITAL ENERGIES
----------------

  NO   OCC          E(Eh)            E(eV)
   0   2.0000     -88.971680     -2421.0425
   1   2.0000     -88.960129     -2420.7282
   2   2.0000     -10.330527      -281.1079
   3   2.0000     -10.323674      -280.9215
   4   2.0000     -10.319682      -280.8128
   5   2.0000     -10.317765      -280.7607
   6   2.0000     -10.311696      -280.5955
   7   2.0000     -10.302391      -280.3423
   8   2.0000     -10.301538      -280.3191
   9   2.0000     -10.300908      -280.3019
  10   2.0000     -10.294826      -280.1365
  11   2.0000     -10.294507      -280.1278
  12   2.0000     -10.292299      -280.0677
  13   2.0000     -10.291492      -280.0457
  14   2.0000     -10.288118      -279.9539
  15   2.0000     -10.259248      -279.1683
  16   2.0000      -8.086275      -220.0387
  17   2.0000      -8.074752      -219.7252
  18   2.0000      -6.044754      -164.4861
  19   2.0000      -6.040559      -164.3720
  20   2.0000      -6.037304      -164.2834
  21   2.0000      -6.033359      -164.1760
  22   2.0000      -6.029156      -164.0617
  23   2.0000      -6.025510      -163.9625
  24   2.0000      -1.005778       -27.3686
  25   2.0000      -0.982928       -26.7468
  26   2.0000      -0.907018       -24.6812
  27   2.0000      -0.898641       -24.4533
  28   2.0000      -0.869542       -23.6614
  29   2.0000      -0.849687       -23.1211
  30   2.0000      -0.845443       -23.0057
  31   2.0000      -0.810641       -22.0587
  32   2.0000      -0.784371       -21.3438
  33   2.0000      -0.773942       -21.0600
  34   2.0000      -0.707123       -19.2418
  35   2.0000      -0.697017       -18.9668
  36   2.0000      -0.689679       -18.7671
  37   2.0000      -0.658532       -17.9196
  38   2.0000      -0.636847       -17.3295
  39   2.0000      -0.609138       -16.5755
  40   2.0000      -0.587266       -15.9803
  41   2.0000      -0.571419       -15.5491
  42   2.0000      -0.570961       -15.5366
  43   2.0000      -0.545392       -14.8409
  44   2.0000      -0.542353       -14.7582
  45   2.0000      -0.521747       -14.1975
  46   2.0000      -0.518602       -14.1119
  47   2.0000      -0.508948       -13.8492
  48   2.0000      -0.506540       -13.7836
  49   2.0000      -0.497433       -13.5358
  50   2.0000      -0.485544       -13.2123
  51   2.0000      -0.477519       -12.9940
  52   2.0000      -0.471976       -12.8431
  53   2.0000      -0.467474       -12.7206
  54   2.0000      -0.456949       -12.4342
  55   2.0000      -0.448194       -12.1960
  56   2.0000      -0.437668       -11.9096
  57   2.0000      -0.435377       -11.8472
  58   2.0000      -0.433394       -11.7932
  59   2.0000      -0.426462       -11.6046
  60   2.0000      -0.425446       -11.5770
  61   2.0000      -0.419716       -11.4211
  62   2.0000      -0.400803       -10.9064
  63   2.0000      -0.338926        -9.2226
  64   2.0000      -0.333224        -9.0675
  65   2.0000      -0.323494        -8.8027
  66   2.0000      -0.301739        -8.2107
  67   0.0000       0.038386         1.0445
  68   0.0000       0.064107         1.7444
  69   0.0000       0.113362         3.0847
  70   0.0000       0.121572         3.3081
  71   0.0000       0.131250         3.5715

MULLIKEN ATOMIC CHARGES
-----------------------
   0 S :    0.136778
   1 C :   -0.133241
   2 C :   -0.083468
   3 C :    0.011149
   4 C :   -0.160022
   5 H :    0.031450
   6 C :    0.061456
   7 H :    0.031000
   8 H :    0.046194
   9 C :   -0.108375
  10 H :    0.042438
  11 H :    0.029339
  12 C :   -0.067518
  13 H :    0.026237
  14 H :    0.041238
  15 H :    0.042233
  16 S :    0.092754
  17 C :   -0.086664
  18 C :   -0.041230
  19 C :   -0.038283
  20 C :   -0.171211
  21 H :    0.017451
  22 C :    0.061080
  23 H :    0.028465
  24 H :    0.028320
  25 C :   -0.090402
  26 H :    0.031215
  27 H :    0.044168
  28 C :    0.011497
  29 H :    0.009847
  30 H :    0.020231
  31 H :    0.022021
  32 H :    0.055519
  33 H :    0.058334
Sum of atomic charges:   -0.0000000

LOEWDIN ATOMIC CHARGES
----------------------
   0 S :    0.439652
   1 C :   -0.208873
   2 C :   -0.060683
   3 C :   -0.064509
   4 C :   -0.220124
   5 H :    0.038010
   6 C :   -0.026527
   7 H :    0.025428
   8 H :    0.040036
   9 C :   -0.049969
  10 H :    0.029318
  11 H :    0.019526
  12 C :   -0.070447
  13 H :    0.023018
  14 H :    0.031307
  15 H :    0.029369
  16 S :    0.393640
  17 C :   -0.176067
  18 C :   -0.074173
  19 C :   -0.060642
  20 C :   -0.205464
  21 H :    0.031745
  22 C :   -0.037166
  23 H :    0.029028
  24 H :    0.035151
  25 C :   -0.041088
  26 H :    0.029683
  27 H :    0.032368
  28 C :   -0.054983
  29 H :    0.019620
  30 H :    0.026026
  31 H :    0.014299
  32 H :    0.030218
  33 H :    0.033272

  Mayer bond orders larger than 0.100000
B(  0-S ,  1-C ) :   1.1566 B(  0-S ,  4-C ) :   1.1632 B(  1-C ,  2-C ) :   1.5908
B(  1-C ,  4-C ) :   0.1029 B(  1-C , 32-H ) :   0.9599 B(  2-C ,  3-C ) :   1.2835
B(  2-C ,  6-C ) :   0.9915 B(  3-C ,  4-C ) :   1.5517 B(  3-C ,  5-H ) :   0.9831
B(  4-C , 20-C ) :   1.0040 B(  6-C ,  7-H ) :   0.9385 B(  6-C ,  8-H ) :   0.9522
B(  6-C ,  9-C ) :   1.0700 B(  9-C , 10-H ) :   0.9516 B(  9-C , 11-H ) :   0.9557
B(  9-C , 12-C ) :   1.0855 B( 12-C , 13-H ) :   0.9730 B( 12-C , 14-H ) :   0.9756
B( 12-C , 15-H ) :   0.9732 B( 16-S , 17-C ) :   1.1492 B( 16-S , 20-C ) :   1.1345
B( 17-C , 18-C ) :   1.6222 B( 17-C , 33-H ) :   0.9664 B( 18-C , 19-C ) :   1.2270
B( 18-C , 21-H ) :   0.9918 B( 19-C , 20-C ) :   1.6185 B( 19-C , 22-C ) :   1.0200
B( 22-C , 23-H ) :   0.9377 B( 22-C , 24-H ) :   0.9281 B( 22-C , 25-C ) :   1.0759
B( 25-C , 26-H ) :   0.9518 B( 25-C , 27-H ) :   0.9556 B( 25-C , 28-C ) :   1.0768
B( 28-C , 29-H ) :   0.9712 B( 28-C , 30-H ) :   0.9703 B( 28-C , 31-H ) :   0.9775

Dispersion correction           -0.014075926
FINAL SINGLE POINT ENERGY     -1339.873085593270

DIPOLE MOMENT
-------------
                                X             Y             Z
Electronic contribution:     -0.77348     -23.25568      -0.37850
Nuclear contribution   :      0.66433      23.74222       0.36863
                        -----------------------------------------
Total Dipole Moment    :     -0.10915       0.48655      -0.00987
                        -----------------------------------------
Magnitude (a.u.)       :      0.49874
Magnitude (Debye)      :      1.26769

Rotational constants in cm-1:     0.022067     0.006958     0.006325
Rotational constants in MHz :   661.557958   208.608842   189.627250

                             ****ORCA TERMINATED NORMALLY****
TOTAL RUN TIME: 0 days 0 hours 0 minutes 29 seconds 354 msec
