                         Program Version 4.2.1 -  RELEASE  -
|  1> ! wB97X-D3 SP def2-SVP
|  2> %pal
|  3> nprocs 16
|  4> end
|  5>
|  6> * xyz 0 1
|  7> S 	 -1.39937 	 78.866 	 49.178
|  8> C 	 -1.00033 	 80.2422 	 50.0889
|  9> C 	 -0.0160362 	 79.9937 	 51.022
| 10> C 	 0.464302 	 78.6402 	 51.0071
| 11> C 	 -0.196591 	 77.8453 	 50.0447
| 12> H 	 1.09397 	 78.1052 	 51.6719
| 13> C 	 0.552863 	 81.0418 	 51.9095
| 14> H 	 -0.144549 	 81.0695 	 52.8213
| 15> H 	 0.530061 	 82.033 	 51.4178
| 16> C 	 2.13343 	 80.8749 	 52.2843
| 17> H 	 2.19129 	 79.8051 	 52.6789
| 18> H 	 2.73838 	 80.9718 	 51.3777
| 19> C 	 2.64568 	 81.8135 	 53.4392
| 20> H 	 1.96845 	 81.9179 	 54.2244
| 21> H 	 3.65711 	 81.6236 	 53.7297
| 22> H 	 2.61296 	 82.7592 	 52.9056
| 23> S 	 1.51512 	 75.6452 	 49.9838
| 24> C 	 0.853679 	 74.0803 	 49.611
| 25> C 	 -0.453914 	 74.1522 	 49.3427
| 26> C 	 -1.03814 	 75.4311 	 49.623
| 27> C 	 -0.11935 	 76.3971 	 50.0204
| 28> H 	 -0.970776 	 73.3037 	 48.9772
| 29> C 	 -2.52527 	 75.6922 	 49.2637
| 30> H 	 -2.71698 	 75.9822 	 48.2189
| 31> H 	 -2.74086 	 76.5807 	 49.8394
| 32> C 	 -3.59223 	 74.6433 	 49.745
| 33> H 	 -3.58718 	 74.5951 	 50.8425
| 34> H 	 -3.24849 	 73.6919 	 49.3567
| 35> C 	 -4.94115 	 75.0422 	 49.0526
| 36> H 	 -5.36494 	 76.0905 	 49.1794
| 37> H 	 -5.76942 	 74.4752 	 49.4668
| 38> H 	 -4.94346 	 74.7891 	 47.9711
| 39> H 	 -1.31889 	 81.2551 	 49.902
| 40> H 	 1.4965 	 73.201 	 49.3045
| 41> *
| 42>
| 43>                          ****END OF INPUT****

CARTESIAN COORDINATES (ANGSTROEM)
---------------------------------
  S     -1.399370   78.866000   49.178000
  C     -1.000330   80.242200   50.088900
  C     -0.016036   79.993700   51.022000
  C      0.464302   78.640200   51.007100
  C     -0.196591   77.845300   50.044700
  H      1.093970   78.105200   51.671900
  C      0.552863   81.041800   51.909500
  H     -0.144549   81.069500   52.821300
  H      0.530061   82.033000   51.417800
  C      2.133430   80.874900   52.284300
  H      2.191290   79.805100   52.678900
  H      2.738380   80.971800   51.377700
  C      2.645680   81.813500   53.439200
  H      1.968450   81.917900   54.224400
  H      3.657110   81.623600   53.729700
  H      2.612960   82.759200   52.905600
  S      1.515120   75.645200   49.983800
  C      0.853679   74.080300   49.611000
  C     -0.453914   74.152200   49.342700
  C     -1.038140   75.431100   49.623000
  C     -0.119350   76.397100   50.020400
  H     -0.970776   73.303700   48.977200
  C     -2.525270   75.692200   49.263700
  H     -2.716980   75.982200   48.218900
  H     -2.740860   76.580700   49.839400
  C     -3.592230   74.643300   49.745000
  H     -3.587180   74.595100   50.842500
  H     -3.248490   73.691900   49.356700
  C     -4.941150   75.042200   49.052600
  H     -5.364940   76.090500   49.179400
  H     -5.769420   74.475200   49.466800
  H     -4.943460   74.789100   47.971100
  H     -1.318890   81.255100   49.902000
  H      1.496500   73.201000   49.304500

 Total Charge           Charge          ....    0
 Multiplicity           Mult            ....    1
 Number of Electrons    NEL             ....  134
 Basis Dimension        Dim             ....  322

ORBITAL ENERGIES
----------------

  NO   OCC          E(Eh)            E(eV)
   0   2.0000     -88.971027     -2421.0247
   1   2.0000     -88.962859     -2420.8025
   2   2.0000     -10.334542      -281.2172
   3   2.0000     -10.330885      -281.1177
   4   2.0000     -10.316826      -280.7351
   5   2.0000     -10.310396      -280.5601
   6   2.0000     -10.304207      -280.3917
   7   2.0000     -10.302033      -280.3326
   8   2.0000     -10.300817      -280.2995
   9   2.0000     -10.299970      -280.2764
  10   2.0000     -10.295437      -280.1531
  11   2.0000     -10.293681      -280.1053
  12   2.0000     -10.288872      -279.9744
  13   2.0000     -10.286620      -279.9132
  14   2.0000     -10.286409      -279.9074
  15   2.0000     -10.274885      -279.5938
  16   2.0000      -8.084979      -220.0035
  17   2.0000      -8.077272      -219.7937
  18   2.0000      -6.043551      -164.4534
  19   2.0000      -6.039414      -164.3408
  20   2.0000      -6.035932      -164.2460
  21   2.0000      -6.035885      -164.2448
  22   2.0000      -6.031975      -164.1384
  23   2.0000      -6.027724      -164.0227
  24   2.0000      -1.004066       -27.3220
  25   2.0000      -0.984837       -26.7988
  26   2.0000      -0.900997       -24.5174
  27   2.0000      -0.897510       -24.4225
  28   2.0000      -0.874679       -23.8012
  29   2.0000      -0.849912       -23.1273
  30   2.0000      -0.840974       -22.8841
  31   2.0000      -0.817104       -22.2345
  32   2.0000      -0.775363       -21.0987
  33   2.0000      -0.765652       -20.8344
  34   2.0000      -0.711624       -19.3643
  35   2.0000      -0.701427       -19.0868
  36   2.0000      -0.687201       -18.6997
  37   2.0000      -0.660224       -17.9656
  38   2.0000      -0.636859       -17.3298
  39   2.0000      -0.613386       -16.6911
  40   2.0000      -0.595206       -16.1964
  41   2.0000      -0.567037       -15.4298
  42   2.0000      -0.562320       -15.3015
  43   2.0000      -0.557734       -15.1767
  44   2.0000      -0.527650       -14.3581
  45   2.0000      -0.515746       -14.0342
  46   2.0000      -0.514404       -13.9976
  47   2.0000      -0.507338       -13.8054
  48   2.0000      -0.505636       -13.7591
  49   2.0000      -0.505045       -13.7430
  50   2.0000      -0.488338       -13.2884
  51   2.0000      -0.479310       -13.0427
  52   2.0000      -0.468410       -12.7461
  53   2.0000      -0.463983       -12.6256
  54   2.0000      -0.458231       -12.4691
  55   2.0000      -0.450707       -12.2644
  56   2.0000      -0.444080       -12.0840
  57   2.0000      -0.440770       -11.9940
  58   2.0000      -0.437452       -11.9037
  59   2.0000      -0.421726       -11.4757
  60   2.0000      -0.413706       -11.2575
  61   2.0000      -0.407058       -11.0766
  62   2.0000      -0.402636       -10.9563
  63   2.0000      -0.362129        -9.8540
  64   2.0000      -0.331029        -9.0078
  65   2.0000      -0.325692        -8.8625
  66   2.0000      -0.285663        -7.7733
  67   0.0000       0.021614         0.5881
  68   0.0000       0.073927         2.0117
  69   0.0000       0.107037         2.9126
  70   0.0000       0.120756         3.2859
  71   0.0000       0.131418         3.5761

MULLIKEN ATOMIC CHARGES
-----------------------
   0 S :    0.115008
   1 C :   -0.100152
   2 C :   -0.067938
   3 C :    0.018182
   4 C :   -0.132926
   5 H :    0.011920
   6 C :    0.003829
   7 H :    0.060389
   8 H :    0.030847
   9 C :   -0.146766
  10 H :    0.044243
  11 H :    0.050623
  12 C :    0.002218
  13 H :    0.021849
  14 H :    0.041623
  15 H :    0.017732
  16 S :    0.078056
  17 C :   -0.097775
  18 C :   -0.019183
  19 C :   -0.064728
  20 C :   -0.125089
  21 H :    0.007279
  22 C :    0.012293
  23 H :    0.048133
  24 H :    0.025099
  25 C :   -0.055602
  26 H :    0.044551
  27 H :    0.026042
  28 C :   -0.087743
  29 H :    0.045946
  30 H :    0.026220
  31 H :    0.043037
  32 H :    0.042241
  33 H :    0.080543
Sum of atomic charges:   -0.0000000

LOEWDIN ATOMIC CHARGES
----------------------
   0 S :    0.426265
   1 C :   -0.213466
   2 C :   -0.071728
   3 C :   -0.053855
   4 C :   -0.179683
   5 H :    0.023877
   6 C :   -0.042496
   7 H :    0.043832
   8 H :    0.028503
   9 C :   -0.039008
  10 H :    0.022871
  11 H :    0.026942
  12 C :   -0.057710
  13 H :    0.017151
  14 H :    0.026552
  15 H :    0.026669
  16 S :    0.384676
  17 C :   -0.191225
  18 C :   -0.072861
  19 C :   -0.059797
  20 C :   -0.180590
  21 H :    0.026105
  22 C :   -0.043245
  23 H :    0.031994
  24 H :    0.018689
  25 C :   -0.031581
  26 H :    0.029110
  27 H :    0.018590
  28 C :   -0.079013
  29 H :    0.034409
  30 H :    0.023018
  31 H :    0.030741
  32 H :    0.030371
  33 H :    0.045893

  Mayer bond orders larger than 0.100000
B(  0-S ,  1-C ) :   1.1488 B(  0-S ,  4-C ) :   1.1437 B(  1-C ,  2-C ) :   1.5971
B(  1-C , 32-H ) :   0.9669 B(  2-C ,  3-C ) :   1.2482 B(  2-C ,  6-C ) :   1.0241
B(  3-C ,  4-C ) :   1.5287 B(  3-C ,  5-H ) :   0.9968 B(  4-C , 20-C ) :   1.0726
B(  6-C ,  7-H ) :   0.9353 B(  6-C ,  8-H ) :   0.9506 B(  6-C ,  9-C ) :   1.0484
B(  9-C , 10-H ) :   0.9552 B(  9-C , 11-H ) :   0.9641 B(  9-C , 12-C ) :   1.0663
B( 12-C , 13-H ) :   0.9777 B( 12-C , 14-H ) :   0.9755 B( 12-C , 15-H ) :   0.9756
B( 16-S , 17-C ) :   1.1424 B( 16-S , 20-C ) :   1.1161 B( 17-C , 18-C ) :   1.6412
B( 17-C , 33-H ) :   0.9525 B( 18-C , 19-C ) :   1.2247 B( 18-C , 21-H ) :   0.9961
B( 19-C , 20-C ) :   1.6066 B( 19-C , 22-C ) :   1.0176 B( 22-C , 23-H ) :   0.9482
B( 22-C , 24-H ) :   0.9321 B( 22-C , 25-C ) :   1.0525 B( 25-C , 26-H ) :   0.9611
B( 25-C , 27-H ) :   0.9584 B( 25-C , 28-C ) :   1.0703 B( 28-C , 29-H ) :   0.9764
B( 28-C , 30-H ) :   0.9739 B( 28-C , 31-H ) :   0.9749

Dispersion correction           -0.013392329
FINAL SINGLE POINT ENERGY     -1339.860545353979

DIPOLE MOMENT
-------------
                                X             Y             Z
Electronic contribution:      6.86056      -6.56046      -8.66706
Nuclear contribution   :     -7.05019       6.65938       8.70719
                        -----------------------------------------
Total Dipole Moment    :     -0.18962       0.09892       0.04012
                        -----------------------------------------
Magnitude (a.u.)       :      0.21760
Magnitude (Debye)      :      0.55311

Rotational constants in cm-1:     0.021061     0.007385     0.005867
Rotational constants in MHz :   631.398622   221.410855   175.878562

                             ****ORCA TERMINATED NORMALLY****
TOTAL RUN TIME: 0 days 0 hours 0 minutes 32 seconds 644 msec
