                         Program Version 4.2.1 -  RELEASE  -
|  1> ! wB97X-D3 SP def2-SVP
|  2> %pal
|  3> nprocs 16
|  4> end
|  5>
|  6> * xyz 0 1
|  7> S 	 -1.14884 	 -11.693 	 84.7389
|  8> C 	 -0.828824 	 -12.0411 	 86.4367
|  9> C 	 -1.92477 	 -12.6674 	 86.9189
| 10> C 	 -2.96323 	 -13.0103 	 85.9722
| 11> C 	 -2.6464 	 -12.5344 	 84.7223
| 12> H 	 -3.86348 	 -13.6296 	 86.226
| 13> C 	 -1.93267 	 -13.1425 	 88.3037
| 14> H 	 -1.38625 	 -14.1109 	 88.4207
| 15> H 	 -3.02987 	 -13.3058 	 88.5595
| 16> C 	 -1.52068 	 -12.2358 	 89.5124
| 17> H 	 -0.498771 	 -12.1764 	 89.6602
| 18> H 	 -2.01523 	 -11.2522 	 89.4744
| 19> C 	 -2.12851 	 -12.7338 	 90.7894
| 20> H 	 -1.73204 	 -13.663 	 91.1106
| 21> H 	 -1.79409 	 -12.0999 	 91.601
| 22> H 	 -3.23774 	 -12.9221 	 90.6988
| 23> S 	 -4.05328 	 -11.0358 	 82.9884
| 24> C 	 -5.10348 	 -11.7606 	 81.8983
| 25> C 	 -5.00689 	 -13.1274 	 81.9596
| 26> C 	 -4.02352 	 -13.6044 	 82.8567
| 27> C 	 -3.4361 	 -12.5832 	 83.4914
| 28> H 	 -5.70011 	 -13.7164 	 81.3465
| 29> C 	 -3.85009 	 -15.136 	 83.0498
| 30> H 	 -2.88639 	 -15.1577 	 83.6477
| 31> H 	 -3.70477 	 -15.6051 	 82.0836
| 32> C 	 -4.93277 	 -15.8255 	 83.8769
| 33> H 	 -5.89946 	 -15.5631 	 83.4656
| 34> H 	 -4.834 	 -15.4186 	 84.8691
| 35> C 	 -4.87285 	 -17.3729 	 83.9339
| 36> H 	 -4.01092 	 -17.6551 	 84.5519
| 37> H 	 -4.61363 	 -17.8512 	 82.9373
| 38> H 	 -5.72364 	 -17.8404 	 84.4134
| 39> H 	 0.00259009 	 -11.7505 	 87.0597
| 40> H 	 -5.75649 	 -11.1698 	 81.3373
| 41> *
| 42>
| 43>                          ****END OF INPUT****

CARTESIAN COORDINATES (ANGSTROEM)
---------------------------------
  S     -1.148840  -11.693000   84.738900
  C     -0.828824  -12.041100   86.436700
  C     -1.924770  -12.667400   86.918900
  C     -2.963230  -13.010300   85.972200
  C     -2.646400  -12.534400   84.722300
  H     -3.863480  -13.629600   86.226000
  C     -1.932670  -13.142500   88.303700
  H     -1.386250  -14.110900   88.420700
  H     -3.029870  -13.305800   88.559500
  C     -1.520680  -12.235800   89.512400
  H     -0.498771  -12.176400   89.660200
  H     -2.015230  -11.252200   89.474400
  C     -2.128510  -12.733800   90.789400
  H     -1.732040  -13.663000   91.110600
  H     -1.794090  -12.099900   91.601000
  H     -3.237740  -12.922100   90.698800
  S     -4.053280  -11.035800   82.988400
  C     -5.103480  -11.760600   81.898300
  C     -5.006890  -13.127400   81.959600
  C     -4.023520  -13.604400   82.856700
  C     -3.436100  -12.583200   83.491400
  H     -5.700110  -13.716400   81.346500
  C     -3.850090  -15.136000   83.049800
  H     -2.886390  -15.157700   83.647700
  H     -3.704770  -15.605100   82.083600
  C     -4.932770  -15.825500   83.876900
  H     -5.899460  -15.563100   83.465600
  H     -4.834000  -15.418600   84.869100
  C     -4.872850  -17.372900   83.933900
  H     -4.010920  -17.655100   84.551900
  H     -4.613630  -17.851200   82.937300
  H     -5.723640  -17.840400   84.413400
  H      0.002590  -11.750500   87.059700
  H     -5.756490  -11.169800   81.337300

 Total Charge           Charge          ....    0
 Multiplicity           Mult            ....    1
 Number of Electrons    NEL             ....  134
 Basis Dimension        Dim             ....  322

ORBITAL ENERGIES
----------------

  NO   OCC          E(Eh)            E(eV)
   0   2.0000     -88.961261     -2420.7590
   1   2.0000     -88.961213     -2420.7577
   2   2.0000     -10.328168      -281.0437
   3   2.0000     -10.319901      -280.8188
   4   2.0000     -10.308131      -280.4985
   5   2.0000     -10.307513      -280.4817
   6   2.0000     -10.300022      -280.2779
   7   2.0000     -10.298478      -280.2358
   8   2.0000     -10.297599      -280.2119
   9   2.0000     -10.292978      -280.0862
  10   2.0000     -10.292743      -280.0798
  11   2.0000     -10.289665      -279.9960
  12   2.0000     -10.287751      -279.9439
  13   2.0000     -10.284822      -279.8642
  14   2.0000     -10.281740      -279.7804
  15   2.0000     -10.274815      -279.5919
  16   2.0000      -8.078163      -219.8180
  17   2.0000      -8.076590      -219.7752
  18   2.0000      -6.036455      -164.2603
  19   2.0000      -6.035174      -164.2254
  20   2.0000      -6.032305      -164.1474
  21   2.0000      -6.030874      -164.1084
  22   2.0000      -6.029058      -164.0590
  23   2.0000      -6.027348      -164.0125
  24   2.0000      -1.018802       -27.7230
  25   2.0000      -0.993743       -27.0411
  26   2.0000      -0.916127       -24.9291
  27   2.0000      -0.909237       -24.7416
  28   2.0000      -0.876105       -23.8400
  29   2.0000      -0.856288       -23.3008
  30   2.0000      -0.847115       -23.0512
  31   2.0000      -0.816840       -22.2274
  32   2.0000      -0.783884       -21.3306
  33   2.0000      -0.769291       -20.9335
  34   2.0000      -0.706789       -19.2327
  35   2.0000      -0.701910       -19.0999
  36   2.0000      -0.695705       -18.9311
  37   2.0000      -0.667651       -18.1677
  38   2.0000      -0.636773       -17.3275
  39   2.0000      -0.614754       -16.7283
  40   2.0000      -0.599523       -16.3139
  41   2.0000      -0.582324       -15.8458
  42   2.0000      -0.570303       -15.5187
  43   2.0000      -0.566885       -15.4257
  44   2.0000      -0.527868       -14.3640
  45   2.0000      -0.523749       -14.2519
  46   2.0000      -0.520692       -14.1687
  47   2.0000      -0.514065       -13.9884
  48   2.0000      -0.508012       -13.8237
  49   2.0000      -0.505696       -13.7607
  50   2.0000      -0.494373       -13.4526
  51   2.0000      -0.480013       -13.0618
  52   2.0000      -0.469313       -12.7707
  53   2.0000      -0.462747       -12.5920
  54   2.0000      -0.456810       -12.4304
  55   2.0000      -0.450528       -12.2595
  56   2.0000      -0.447918       -12.1885
  57   2.0000      -0.437292       -11.8993
  58   2.0000      -0.432153       -11.7595
  59   2.0000      -0.426875       -11.6159
  60   2.0000      -0.420004       -11.4289
  61   2.0000      -0.411131       -11.1874
  62   2.0000      -0.405406       -11.0317
  63   2.0000      -0.342776        -9.3274
  64   2.0000      -0.336270        -9.1504
  65   2.0000      -0.325348        -8.8532
  66   2.0000      -0.303718        -8.2646
  67   0.0000       0.043265         1.1773
  68   0.0000       0.069148         1.8816
  69   0.0000       0.120645         3.2829
  70   0.0000       0.123266         3.3542
  71   0.0000       0.132256         3.5989

MULLIKEN ATOMIC CHARGES
-----------------------
   0 S :    0.101315
   1 C :   -0.104184
   2 C :   -0.072305
   3 C :    0.030661
   4 C :   -0.158229
   5 H :    0.034689
   6 C :   -0.019583
   7 H :    0.055029
   8 H :    0.017994
   9 C :   -0.043668
  10 H :    0.016653
  11 H :    0.036795
  12 C :   -0.056324
  13 H :    0.003558
  14 H :    0.030230
  15 H :    0.040626
  16 S :    0.117577
  17 C :   -0.067210
  18 C :   -0.055113
  19 C :   -0.017053
  20 C :   -0.163673
  21 H :    0.020544
  22 C :    0.061195
  23 H :    0.037371
  24 H :    0.029154
  25 C :   -0.052316
  26 H :    0.024633
  27 H :    0.019723
  28 C :   -0.055131
  29 H :    0.024191
  30 H :    0.037029
  31 H :    0.043288
  32 H :    0.047715
  33 H :    0.034816
Sum of atomic charges:    0.0000000

LOEWDIN ATOMIC CHARGES
----------------------
   0 S :    0.410580
   1 C :   -0.192509
   2 C :   -0.075758
   3 C :   -0.071557
   4 C :   -0.199666
   5 H :    0.040514
   6 C :   -0.043576
   7 H :    0.039347
   8 H :    0.032950
   9 C :   -0.039090
  10 H :    0.011188
  11 H :    0.032934
  12 C :   -0.065501
  13 H :    0.012887
  14 H :    0.028038
  15 H :    0.030462
  16 S :    0.441310
  17 C :   -0.191368
  18 C :   -0.075763
  19 C :   -0.056944
  20 C :   -0.206439
  21 H :    0.031706
  22 C :   -0.025585
  23 H :    0.037769
  24 H :    0.028469
  25 C :   -0.038840
  26 H :    0.019921
  27 H :    0.021891
  28 C :   -0.071181
  29 H :    0.025283
  30 H :    0.031404
  31 H :    0.027177
  32 H :    0.033386
  33 H :    0.016562

  Mayer bond orders larger than 0.100000
B(  0-S ,  1-C ) :   1.1097 B(  0-S ,  4-C ) :   1.1756 B(  1-C ,  2-C ) :   1.6241
B(  1-C , 32-H ) :   0.9769 B(  2-C ,  3-C ) :   1.2290 B(  2-C ,  6-C ) :   1.0319
B(  3-C ,  4-C ) :   1.5724 B(  3-C ,  5-H ) :   0.9876 B(  4-C , 20-C ) :   0.9704
B(  6-C ,  7-H ) :   0.9341 B(  6-C ,  8-H ) :   0.9453 B(  6-C ,  9-C ) :   1.0680
B(  9-C , 10-H ) :   0.9472 B(  9-C , 11-H ) :   0.9592 B(  9-C , 12-C ) :   1.0965
B( 12-C , 13-H ) :   0.9694 B( 12-C , 14-H ) :   0.9707 B( 12-C , 15-H ) :   0.9714
B( 16-S , 17-C ) :   1.1791 B( 16-S , 20-C ) :   1.1613 B( 17-C , 18-C ) :   1.5912
B( 17-C , 33-H ) :   0.9794 B( 18-C , 19-C ) :   1.2270 B( 18-C , 21-H ) :   0.9933
B( 19-C , 20-C ) :   1.6470 B( 19-C , 22-C ) :   1.0298 B( 22-C , 23-H ) :   0.9336
B( 22-C , 24-H ) :   0.9367 B( 22-C , 25-C ) :   1.0680 B( 25-C , 26-H ) :   0.9594
B( 25-C , 27-H ) :   0.9502 B( 25-C , 28-C ) :   1.0796 B( 28-C , 29-H ) :   0.9742
B( 28-C , 30-H ) :   0.9747 B( 28-C , 31-H ) :   0.9750

Dispersion correction           -0.013650571
FINAL SINGLE POINT ENERGY     -1339.870775439876

DIPOLE MOMENT
-------------
                                X             Y             Z
Electronic contribution:      4.71648      20.19853     -20.24522
Nuclear contribution   :     -5.00099     -20.66243      20.64036
                        -----------------------------------------
Total Dipole Moment    :     -0.28451      -0.46390       0.39514
                        -----------------------------------------
Magnitude (a.u.)       :      0.67252
Magnitude (Debye)      :      1.70941

Rotational constants in cm-1:     0.018103     0.008044     0.006276
Rotational constants in MHz :   542.728733   241.153951   188.155930

                             ****ORCA TERMINATED NORMALLY****
TOTAL RUN TIME: 0 days 0 hours 0 minutes 33 seconds 193 msec
