                         Program Version 4.2.1 -  RELEASE  -
|  1> ! wB97X-D3 SP def2-SVP
|  2> %pal
|  3> nprocs 16
|  4> end
|  5>
|  6> * xyz 0 1
|  7> S 	 -32.5126 	 62.6309 	 107.287
|  8> C 	 -31.5967 	 62.9683 	 108.763
|  9> C 	 -30.209 	 63.0478 	 108.531
| 10> C 	 -29.9047 	 62.76 	 107.15
| 11> C 	 -31.007 	 62.3513 	 106.443
| 12> H 	 -28.8812 	 62.8712 	 106.818
| 13> C 	 -29.1338 	 63.4111 	 109.611
| 14> H 	 -29.6939 	 63.7359 	 110.562
| 15> H 	 -28.5879 	 64.2803 	 109.306
| 16> C 	 -28.2519 	 62.3032 	 110.133
| 17> H 	 -27.5301 	 61.9468 	 109.346
| 18> H 	 -27.6842 	 62.7695 	 110.994
| 19> C 	 -28.9641 	 61.0755 	 110.612
| 20> H 	 -29.3033 	 60.4166 	 109.8
| 21> H 	 -28.4232 	 60.4186 	 111.264
| 22> H 	 -29.8544 	 61.463 	 111.127
| 23> S 	 -32.4895 	 62.0061 	 104.219
| 24> C 	 -31.9352 	 60.9918 	 102.998
| 25> C 	 -30.6051 	 60.6901 	 103.108
| 26> C 	 -30.0474 	 61.1798 	 104.353
| 27> C 	 -31.0133 	 61.8177 	 105.1
| 28> H 	 -30.0278 	 60.1908 	 102.341
| 29> C 	 -28.5758 	 60.9212 	 104.652
| 30> H 	 -28.3144 	 59.8657 	 104.477
| 31> H 	 -28.4506 	 61.0148 	 105.747
| 32> C 	 -27.5292 	 61.9156 	 104.117
| 33> H 	 -27.6247 	 62.7883 	 104.753
| 34> H 	 -27.7616 	 62.3063 	 103.073
| 35> C 	 -26.0818 	 61.3435 	 104.172
| 36> H 	 -26.1636 	 60.5062 	 103.499
| 37> H 	 -25.8206 	 60.8737 	 105.047
| 38> H 	 -25.4461 	 62.2075 	 103.888
| 39> H 	 -32.0541 	 63.1736 	 109.744
| 40> H 	 -32.4208 	 60.8437 	 102.063
| 41> *
| 42>
| 43>                          ****END OF INPUT****

CARTESIAN COORDINATES (ANGSTROEM)
---------------------------------
  S    -32.512600   62.630900  107.287000
  C    -31.596700   62.968300  108.763000
  C    -30.209000   63.047800  108.531000
  C    -29.904700   62.760000  107.150000
  C    -31.007000   62.351300  106.443000
  H    -28.881200   62.871200  106.818000
  C    -29.133800   63.411100  109.611000
  H    -29.693900   63.735900  110.562000
  H    -28.587900   64.280300  109.306000
  C    -28.251900   62.303200  110.133000
  H    -27.530100   61.946800  109.346000
  H    -27.684200   62.769500  110.994000
  C    -28.964100   61.075500  110.612000
  H    -29.303300   60.416600  109.800000
  H    -28.423200   60.418600  111.264000
  H    -29.854400   61.463000  111.127000
  S    -32.489500   62.006100  104.219000
  C    -31.935200   60.991800  102.998000
  C    -30.605100   60.690100  103.108000
  C    -30.047400   61.179800  104.353000
  C    -31.013300   61.817700  105.100000
  H    -30.027800   60.190800  102.341000
  C    -28.575800   60.921200  104.652000
  H    -28.314400   59.865700  104.477000
  H    -28.450600   61.014800  105.747000
  C    -27.529200   61.915600  104.117000
  H    -27.624700   62.788300  104.753000
  H    -27.761600   62.306300  103.073000
  C    -26.081800   61.343500  104.172000
  H    -26.163600   60.506200  103.499000
  H    -25.820600   60.873700  105.047000
  H    -25.446100   62.207500  103.888000
  H    -32.054100   63.173600  109.744000
  H    -32.420800   60.843700  102.063000

 Total Charge           Charge          ....    0
 Multiplicity           Mult            ....    1
 Number of Electrons    NEL             ....  134
 Basis Dimension        Dim             ....  322

ORBITAL ENERGIES
----------------

  NO   OCC          E(Eh)            E(eV)
   0   2.0000     -88.969691     -2420.9884
   1   2.0000     -88.964985     -2420.8603
   2   2.0000     -10.329911      -281.0912
   3   2.0000     -10.323297      -280.9112
   4   2.0000     -10.318331      -280.7761
   5   2.0000     -10.307298      -280.4758
   6   2.0000     -10.307218      -280.4737
   7   2.0000     -10.303613      -280.3756
   8   2.0000     -10.301067      -280.3063
   9   2.0000     -10.294726      -280.1337
  10   2.0000     -10.294429      -280.1257
  11   2.0000     -10.293704      -280.1059
  12   2.0000     -10.291588      -280.0483
  13   2.0000     -10.290811      -280.0272
  14   2.0000     -10.278299      -279.6867
  15   2.0000     -10.272374      -279.5255
  16   2.0000      -8.084056      -219.9783
  17   2.0000      -8.081730      -219.9151
  18   2.0000      -6.042680      -164.4297
  19   2.0000      -6.040099      -164.3594
  20   2.0000      -6.038837      -164.3251
  21   2.0000      -6.036143      -164.2518
  22   2.0000      -6.034499      -164.2071
  23   2.0000      -6.032341      -164.1484
  24   2.0000      -1.014973       -27.6188
  25   2.0000      -0.984758       -26.7966
  26   2.0000      -0.913828       -24.8665
  27   2.0000      -0.910103       -24.7652
  28   2.0000      -0.869804       -23.6686
  29   2.0000      -0.858076       -23.3494
  30   2.0000      -0.844432       -22.9782
  31   2.0000      -0.812042       -22.0968
  32   2.0000      -0.786575       -21.4038
  33   2.0000      -0.775904       -21.1134
  34   2.0000      -0.706603       -19.2276
  35   2.0000      -0.694863       -18.9082
  36   2.0000      -0.689462       -18.7612
  37   2.0000      -0.664158       -18.0726
  38   2.0000      -0.631303       -17.1786
  39   2.0000      -0.627763       -17.0823
  40   2.0000      -0.600019       -16.3274
  41   2.0000      -0.565280       -15.3821
  42   2.0000      -0.563651       -15.3377
  43   2.0000      -0.559024       -15.2118
  44   2.0000      -0.543416       -14.7871
  45   2.0000      -0.536123       -14.5886
  46   2.0000      -0.515464       -14.0265
  47   2.0000      -0.510873       -13.9016
  48   2.0000      -0.502686       -13.6788
  49   2.0000      -0.493395       -13.4260
  50   2.0000      -0.489082       -13.3086
  51   2.0000      -0.478700       -13.0261
  52   2.0000      -0.474641       -12.9156
  53   2.0000      -0.464018       -12.6266
  54   2.0000      -0.458090       -12.4653
  55   2.0000      -0.453430       -12.3385
  56   2.0000      -0.451746       -12.2926
  57   2.0000      -0.447140       -12.1673
  58   2.0000      -0.436685       -11.8828
  59   2.0000      -0.421759       -11.4767
  60   2.0000      -0.414088       -11.2679
  61   2.0000      -0.409545       -11.1443
  62   2.0000      -0.408146       -11.1062
  63   2.0000      -0.360143        -9.8000
  64   2.0000      -0.335889        -9.1400
  65   2.0000      -0.328821        -8.9477
  66   2.0000      -0.282348        -7.6831
  67   0.0000       0.021565         0.5868
  68   0.0000       0.080341         2.1862
  69   0.0000       0.096642         2.6298
  70   0.0000       0.121427         3.3042
  71   0.0000       0.126884         3.4527

MULLIKEN ATOMIC CHARGES
-----------------------
   0 S :    0.109536
   1 C :   -0.127698
   2 C :   -0.098198
   3 C :   -0.006289
   4 C :   -0.088251
   5 H :    0.003815
   6 C :    0.044018
   7 H :    0.024939
   8 H :    0.037618
   9 C :   -0.095788
  10 H :    0.031678
  11 H :    0.042628
  12 C :   -0.036497
  13 H :    0.042642
  14 H :    0.032269
  15 H :    0.013244
  16 S :    0.108097
  17 C :   -0.057151
  18 C :   -0.041757
  19 C :   -0.055675
  20 C :   -0.120643
  21 H :    0.015906
  22 C :    0.025487
  23 H :    0.026435
  24 H :    0.014962
  25 C :   -0.091034
  26 H :    0.021875
  27 H :    0.038366
  28 C :   -0.006142
  29 H :    0.023587
  30 H :    0.011019
  31 H :    0.056390
  32 H :    0.054154
  33 H :    0.046458
Sum of atomic charges:   -0.0000000

LOEWDIN ATOMIC CHARGES
----------------------
   0 S :    0.394638
   1 C :   -0.198719
   2 C :   -0.057437
   3 C :   -0.068524
   4 C :   -0.183070
   5 H :    0.029543
   6 C :   -0.034554
   7 H :    0.036327
   8 H :    0.030038
   9 C :   -0.052596
  10 H :    0.022795
  11 H :    0.033312
  12 C :   -0.068028
  13 H :    0.031295
  14 H :    0.023795
  15 H :    0.022976
  16 S :    0.433322
  17 C :   -0.203309
  18 C :   -0.066133
  19 C :   -0.054685
  20 C :   -0.198526
  21 H :    0.030593
  22 C :   -0.041553
  23 H :    0.028561
  24 H :    0.030253
  25 C :   -0.039722
  26 H :    0.015168
  27 H :    0.027805
  28 C :   -0.055852
  29 H :    0.026754
  30 H :    0.012059
  31 H :    0.038352
  32 H :    0.030031
  33 H :    0.025093

  Mayer bond orders larger than 0.100000
B(  0-S ,  1-C ) :   1.1213 B(  0-S ,  4-C ) :   1.1411 B(  1-C ,  2-C ) :   1.6266
B(  1-C , 32-H ) :   0.9615 B(  2-C ,  3-C ) :   1.2377 B(  2-C ,  6-C ) :   1.0143
B(  3-C ,  4-C ) :   1.5513 B(  3-C ,  5-H ) :   0.9952 B(  4-C , 20-C ) :   1.0810
B(  6-C ,  7-H ) :   0.9407 B(  6-C ,  8-H ) :   0.9438 B(  6-C ,  9-C ) :   1.0753
B(  9-C , 10-H ) :   0.9528 B(  9-C , 11-H ) :   0.9546 B(  9-C , 12-C ) :   1.0802
B( 12-C , 13-H ) :   0.9675 B( 12-C , 14-H ) :   0.9734 B( 12-C , 15-H ) :   0.9737
B( 16-S , 17-C ) :   1.1629 B( 16-S , 20-C ) :   1.1389 B( 17-C , 18-C ) :   1.6078
B( 17-C , 33-H ) :   0.9664 B( 18-C , 19-C ) :   1.2429 B( 18-C , 21-H ) :   0.9926
B( 19-C , 20-C ) :   1.5995 B( 19-C , 22-C ) :   1.0434 B( 22-C , 23-H ) :   0.9442
B( 22-C , 24-H ) :   0.9260 B( 22-C , 25-C ) :   1.0500 B( 25-C , 26-H ) :   0.9538
B( 25-C , 27-H ) :   0.9593 B( 25-C , 28-C ) :   1.0650 B( 28-C , 29-H ) :   0.9765
B( 28-C , 30-H ) :   0.9753 B( 28-C , 31-H ) :   0.9734

Dispersion correction           -0.014308530
FINAL SINGLE POINT ENERGY     -1339.872416271344

DIPOLE MOMENT
-------------
                                X             Y             Z
Electronic contribution:    -28.67537       4.15245     -10.19011
Nuclear contribution   :     29.36352      -4.17043      10.23845
                        -----------------------------------------
Total Dipole Moment    :      0.68815      -0.01798       0.04834
                        -----------------------------------------
Magnitude (a.u.)       :      0.69008
Magnitude (Debye)      :      1.75403

Rotational constants in cm-1:     0.016493     0.010077     0.006746
Rotational constants in MHz :   494.434107   302.109891   202.248921

                             ****ORCA TERMINATED NORMALLY****
TOTAL RUN TIME: 0 days 0 hours 0 minutes 28 seconds 878 msec
