                         Program Version 4.2.1 -  RELEASE  -
|  1> ! wB97X-D3 SP def2-SVP
|  2> %pal
|  3> nprocs 16
|  4> end
|  5>
|  6> * xyz 0 1
|  7> S 	 17.6904 	 -8.34837 	 81.7269
|  8> C 	 16.1561 	 -7.50801 	 81.9523
|  9> C 	 15.4762 	 -7.24993 	 80.7889
| 10> C 	 16.2228 	 -7.61087 	 79.6416
| 11> C 	 17.4591 	 -8.14692 	 79.923
| 12> H 	 15.7732 	 -7.48412 	 78.6849
| 13> C 	 14.2298 	 -6.42784 	 80.6187
| 14> H 	 13.9558 	 -6.11672 	 79.6601
| 15> H 	 14.3984 	 -5.46999 	 81.1301
| 16> C 	 12.9711 	 -6.92219 	 81.3263
| 17> H 	 12.6856 	 -7.73591 	 80.6289
| 18> H 	 13.1325 	 -7.37999 	 82.2505
| 19> C 	 11.8966 	 -5.81845 	 81.3197
| 20> H 	 10.905 	 -6.29604 	 81.4045
| 21> H 	 12.1326 	 -5.13811 	 82.1817
| 22> H 	 11.9501 	 -5.20684 	 80.4013
| 23> S 	 18.5442 	 -10.5149 	 79.1148
| 24> C 	 19.6364 	 -10.5523 	 77.7223
| 25> C 	 19.8329 	 -9.26763 	 77.2327
| 26> C 	 18.9543 	 -8.27423 	 77.776
| 27> C 	 18.3723 	 -8.77104 	 78.9684
| 28> H 	 20.3083 	 -9.18267 	 76.3095
| 29> C 	 18.7392 	 -6.88199 	 77.1259
| 30> H 	 17.6989 	 -6.86786 	 76.8351
| 31> H 	 19.2755 	 -6.73575 	 76.1839
| 32> C 	 18.9135 	 -5.65999 	 78.0951
| 33> H 	 19.8798 	 -5.45106 	 78.3838
| 34> H 	 18.402 	 -5.68898 	 79.0363
| 35> C 	 18.489 	 -4.3852 	 77.278
| 36> H 	 17.4573 	 -4.58845 	 77.1018
| 37> H 	 18.917 	 -4.52234 	 76.3192
| 38> H 	 18.7359 	 -3.39316 	 77.77
| 39> H 	 15.7198 	 -7.33662 	 82.9645
| 40> H 	 19.8989 	 -11.5433 	 77.1553
| 41> *
| 42>
| 43>                          ****END OF INPUT****

CARTESIAN COORDINATES (ANGSTROEM)
---------------------------------
  S     17.690400   -8.348370   81.726900
  C     16.156100   -7.508010   81.952300
  C     15.476200   -7.249930   80.788900
  C     16.222800   -7.610870   79.641600
  C     17.459100   -8.146920   79.923000
  H     15.773200   -7.484120   78.684900
  C     14.229800   -6.427840   80.618700
  H     13.955800   -6.116720   79.660100
  H     14.398400   -5.469990   81.130100
  C     12.971100   -6.922190   81.326300
  H     12.685600   -7.735910   80.628900
  H     13.132500   -7.379990   82.250500
  C     11.896600   -5.818450   81.319700
  H     10.905000   -6.296040   81.404500
  H     12.132600   -5.138110   82.181700
  H     11.950100   -5.206840   80.401300
  S     18.544200  -10.514900   79.114800
  C     19.636400  -10.552300   77.722300
  C     19.832900   -9.267630   77.232700
  C     18.954300   -8.274230   77.776000
  C     18.372300   -8.771040   78.968400
  H     20.308300   -9.182670   76.309500
  C     18.739200   -6.881990   77.125900
  H     17.698900   -6.867860   76.835100
  H     19.275500   -6.735750   76.183900
  C     18.913500   -5.659990   78.095100
  H     19.879800   -5.451060   78.383800
  H     18.402000   -5.688980   79.036300
  C     18.489000   -4.385200   77.278000
  H     17.457300   -4.588450   77.101800
  H     18.917000   -4.522340   76.319200
  H     18.735900   -3.393160   77.770000
  H     15.719800   -7.336620   82.964500
  H     19.898900  -11.543300   77.155300

 Total Charge           Charge          ....    0
 Multiplicity           Mult            ....    1
 Number of Electrons    NEL             ....  134
 Basis Dimension        Dim             ....  322

ORBITAL ENERGIES
----------------

  NO   OCC          E(Eh)            E(eV)
   0   2.0000     -88.969502     -2420.9832
   1   2.0000     -88.965807     -2420.8827
   2   2.0000     -10.334035      -281.2034
   3   2.0000     -10.327917      -281.0369
   4   2.0000     -10.325841      -280.9804
   5   2.0000     -10.316808      -280.7346
   6   2.0000     -10.311573      -280.5922
   7   2.0000     -10.302154      -280.3359
   8   2.0000     -10.297381      -280.2060
   9   2.0000     -10.291523      -280.0466
  10   2.0000     -10.290692      -280.0240
  11   2.0000     -10.287513      -279.9374
  12   2.0000     -10.285866      -279.8926
  13   2.0000     -10.281259      -279.7673
  14   2.0000     -10.276086      -279.6265
  15   2.0000     -10.274670      -279.5880
  16   2.0000      -8.082722      -219.9420
  17   2.0000      -8.079979      -219.8674
  18   2.0000      -6.041346      -164.3934
  19   2.0000      -6.038487      -164.3156
  20   2.0000      -6.037616      -164.2919
  21   2.0000      -6.034535      -164.2081
  22   2.0000      -6.033276      -164.1738
  23   2.0000      -6.030793      -164.1062
  24   2.0000      -0.999635       -27.2015
  25   2.0000      -0.978154       -26.6169
  26   2.0000      -0.915661       -24.9164
  27   2.0000      -0.904057       -24.6006
  28   2.0000      -0.866028       -23.5658
  29   2.0000      -0.851461       -23.1694
  30   2.0000      -0.846331       -23.0298
  31   2.0000      -0.809186       -22.0191
  32   2.0000      -0.778445       -21.1826
  33   2.0000      -0.764722       -20.8091
  34   2.0000      -0.710575       -19.3357
  35   2.0000      -0.704926       -19.1820
  36   2.0000      -0.692242       -18.8369
  37   2.0000      -0.658196       -17.9104
  38   2.0000      -0.636340       -17.3157
  39   2.0000      -0.626121       -17.0376
  40   2.0000      -0.594097       -16.1662
  41   2.0000      -0.577450       -15.7132
  42   2.0000      -0.565431       -15.3862
  43   2.0000      -0.552438       -15.0326
  44   2.0000      -0.527598       -14.3567
  45   2.0000      -0.521731       -14.1970
  46   2.0000      -0.516217       -14.0470
  47   2.0000      -0.507727       -13.8160
  48   2.0000      -0.500892       -13.6300
  49   2.0000      -0.489840       -13.3292
  50   2.0000      -0.484710       -13.1896
  51   2.0000      -0.482440       -13.1279
  52   2.0000      -0.471450       -12.8288
  53   2.0000      -0.462515       -12.5857
  54   2.0000      -0.457397       -12.4464
  55   2.0000      -0.451021       -12.2729
  56   2.0000      -0.447610       -12.1801
  57   2.0000      -0.442104       -12.0303
  58   2.0000      -0.437679       -11.9098
  59   2.0000      -0.428851       -11.6696
  60   2.0000      -0.421964       -11.4822
  61   2.0000      -0.411616       -11.2006
  62   2.0000      -0.408792       -11.1238
  63   2.0000      -0.347180        -9.4472
  64   2.0000      -0.329386        -8.9630
  65   2.0000      -0.325706        -8.8629
  66   2.0000      -0.287821        -7.8320
  67   0.0000       0.028313         0.7704
  68   0.0000       0.055525         1.5109
  69   0.0000       0.104032         2.8308
  70   0.0000       0.111620         3.0373
  71   0.0000       0.130558         3.5527

MULLIKEN ATOMIC CHARGES
-----------------------
   0 S :    0.103413
   1 C :   -0.137107
   2 C :   -0.041399
   3 C :    0.045442
   4 C :   -0.156804
   5 H :    0.001513
   6 C :    0.051229
   7 H :    0.000016
   8 H :    0.025124
   9 C :   -0.080523
  10 H :    0.025469
  11 H :    0.020622
  12 C :   -0.065279
  13 H :    0.047374
  14 H :    0.044875
  15 H :    0.033965
  16 S :    0.109723
  17 C :   -0.149450
  18 C :    0.008278
  19 C :   -0.036271
  20 C :   -0.154071
  21 H :   -0.001041
  22 C :    0.051502
  23 H :    0.025775
  24 H :    0.024876
  25 C :   -0.050102
  26 H :    0.011203
  27 H :    0.045225
  28 C :   -0.045438
  29 H :    0.011750
  30 H :    0.011854
  31 H :    0.057528
  32 H :    0.059402
  33 H :    0.101327
Sum of atomic charges:    0.0000000

LOEWDIN ATOMIC CHARGES
----------------------
   0 S :    0.370817
   1 C :   -0.193207
   2 C :   -0.066112
   3 C :   -0.050762
   4 C :   -0.171862
   5 H :    0.028237
   6 C :   -0.031652
   7 H :    0.018527
   8 H :    0.033503
   9 C :   -0.038673
  10 H :    0.024955
  11 H :    0.012896
  12 C :   -0.066928
  13 H :    0.031080
  14 H :    0.031679
  15 H :    0.026396
  16 S :    0.400985
  17 C :   -0.200335
  18 C :   -0.072005
  19 C :   -0.045719
  20 C :   -0.202021
  21 H :    0.019971
  22 C :   -0.024533
  23 H :    0.031457
  24 H :    0.032927
  25 C :   -0.029113
  26 H :    0.011071
  27 H :    0.024662
  28 C :   -0.063539
  29 H :    0.017359
  30 H :    0.015960
  31 H :    0.035676
  32 H :    0.033430
  33 H :    0.054873

  Mayer bond orders larger than 0.100000
B(  0-S ,  1-C ) :   1.1288 B(  0-S ,  4-C ) :   1.1250 B(  1-C ,  2-C ) :   1.6308
B(  1-C , 32-H ) :   0.9564 B(  2-C ,  3-C ) :   1.2477 B(  2-C ,  6-C ) :   1.0081
B(  3-C ,  4-C ) :   1.5701 B(  3-C ,  5-H ) :   0.9995 B(  4-C , 20-C ) :   1.0434
B(  6-C ,  7-H ) :   0.9497 B(  6-C ,  8-H ) :   0.9439 B(  6-C ,  9-C ) :   1.0418
B(  9-C , 10-H ) :   0.9580 B(  9-C , 11-H ) :   0.9653 B(  9-C , 12-C ) :   1.0711
B( 12-C , 13-H ) :   0.9747 B( 12-C , 14-H ) :   0.9745 B( 12-C , 15-H ) :   0.9739
B( 16-S , 17-C ) :   1.1531 B( 16-S , 20-C ) :   1.1581 B( 17-C , 18-C ) :   1.6018
B( 17-C , 20-C ) :   0.1057 B( 17-C , 33-H ) :   0.9515 B( 18-C , 19-C ) :   1.2681
B( 18-C , 21-H ) :   0.9824 B( 19-C , 20-C ) :   1.5691 B( 19-C , 22-C ) :   1.0293
B( 22-C , 23-H ) :   0.9360 B( 22-C , 24-H ) :   0.9408 B( 22-C , 25-C ) :   1.0520
B( 25-C , 26-H ) :   0.9589 B( 25-C , 27-H ) :   0.9579 B( 25-C , 28-C ) :   1.0665
B( 28-C , 29-H ) :   0.9790 B( 28-C , 30-H ) :   0.9719 B( 28-C , 31-H ) :   0.9729

Dispersion correction           -0.014035056
FINAL SINGLE POINT ENERGY     -1339.844804818558

DIPOLE MOMENT
-------------
                                X             Y             Z
Electronic contribution:     16.71614     -23.24939       6.67709
Nuclear contribution   :    -17.21335      23.62409      -7.15693
                        -----------------------------------------
Total Dipole Moment    :     -0.49721       0.37471      -0.47984
                        -----------------------------------------
Magnitude (a.u.)       :      0.78604
Magnitude (Debye)      :      1.99796

Rotational constants in cm-1:     0.018601     0.008211     0.006583
Rotational constants in MHz :   557.631315   246.162843   197.365687

                             ****ORCA TERMINATED NORMALLY****
TOTAL RUN TIME: 0 days 0 hours 0 minutes 28 seconds 170 msec
