                         Program Version 4.2.1 -  RELEASE  -
|  1> ! wB97X-D3 SP def2-SVP
|  2> %pal
|  3> nprocs 16
|  4> end
|  5>
|  6> * xyz 0 1
|  7> S 	 54.6154 	 13.6203 	 78.13
|  8> C 	 56.1399 	 13.9524 	 77.4842
|  9> C 	 57.198 	 13.6604 	 78.3353
| 10> C 	 56.7476 	 12.8805 	 79.3984
| 11> C 	 55.4454 	 12.5047 	 79.2742
| 12> H 	 57.3856 	 12.5124 	 80.1648
| 13> C 	 58.6033 	 14.1217 	 78.0645
| 14> H 	 58.7158 	 14.1926 	 76.9743
| 15> H 	 59.2519 	 13.3383 	 78.5249
| 16> C 	 58.977 	 15.4886 	 78.7223
| 17> H 	 58.7791 	 15.5342 	 79.7489
| 18> H 	 60.0815 	 15.5688 	 78.5803
| 19> C 	 58.462 	 16.6543 	 77.9422
| 20> H 	 58.6526 	 16.4921 	 76.8706
| 21> H 	 57.3832 	 16.7943 	 78.0568
| 22> H 	 59.0535 	 17.5557 	 78.123
| 23> S 	 53.8034 	 12.2158 	 81.4448
| 24> C 	 53.1094 	 10.6855 	 81.8048
| 25> C 	 53.9742 	 9.69796 	 81.3633
| 26> C 	 54.8896 	 10.1985 	 80.3791
| 27> C 	 54.7357 	 11.5669 	 80.1539
| 28> H 	 53.7846 	 8.64728 	 81.6269
| 29> C 	 55.7571 	 9.23348 	 79.6458
| 30> H 	 56.2597 	 8.56851 	 80.3766
| 31> H 	 56.6409 	 9.75575 	 79.1935
| 32> C 	 54.9802 	 8.25277 	 78.7201
| 33> H 	 54.2822 	 7.60995 	 79.2117
| 34> H 	 55.697 	 7.49654 	 78.3029
| 35> C 	 54.3305 	 9.14994 	 77.6208
| 36> H 	 55.0096 	 9.55373 	 76.9084
| 37> H 	 53.7322 	 9.9547 	 78.0183
| 38> H 	 53.707 	 8.46457 	 76.929
| 39> H 	 56.4449 	 14.6258 	 76.6639
| 40> H 	 52.3803 	 10.5793 	 82.626
| 41> *
| 42>
| 43>                          ****END OF INPUT****

CARTESIAN COORDINATES (ANGSTROEM)
---------------------------------
  S     54.615400   13.620300   78.130000
  C     56.139900   13.952400   77.484200
  C     57.198000   13.660400   78.335300
  C     56.747600   12.880500   79.398400
  C     55.445400   12.504700   79.274200
  H     57.385600   12.512400   80.164800
  C     58.603300   14.121700   78.064500
  H     58.715800   14.192600   76.974300
  H     59.251900   13.338300   78.524900
  C     58.977000   15.488600   78.722300
  H     58.779100   15.534200   79.748900
  H     60.081500   15.568800   78.580300
  C     58.462000   16.654300   77.942200
  H     58.652600   16.492100   76.870600
  H     57.383200   16.794300   78.056800
  H     59.053500   17.555700   78.123000
  S     53.803400   12.215800   81.444800
  C     53.109400   10.685500   81.804800
  C     53.974200    9.697960   81.363300
  C     54.889600   10.198500   80.379100
  C     54.735700   11.566900   80.153900
  H     53.784600    8.647280   81.626900
  C     55.757100    9.233480   79.645800
  H     56.259700    8.568510   80.376600
  H     56.640900    9.755750   79.193500
  C     54.980200    8.252770   78.720100
  H     54.282200    7.609950   79.211700
  H     55.697000    7.496540   78.302900
  C     54.330500    9.149940   77.620800
  H     55.009600    9.553730   76.908400
  H     53.732200    9.954700   78.018300
  H     53.707000    8.464570   76.929000
  H     56.444900   14.625800   76.663900
  H     52.380300   10.579300   82.626000

 Total Charge           Charge          ....    0
 Multiplicity           Mult            ....    1
 Number of Electrons    NEL             ....  134
 Basis Dimension        Dim             ....  322

ORBITAL ENERGIES
----------------

  NO   OCC          E(Eh)            E(eV)
   0   2.0000     -88.968995     -2420.9694
   1   2.0000     -88.957472     -2420.6559
   2   2.0000     -10.328292      -281.0471
   3   2.0000     -10.321718      -280.8682
   4   2.0000     -10.314303      -280.6665
   5   2.0000     -10.308378      -280.5052
   6   2.0000     -10.302019      -280.3322
   7   2.0000     -10.297612      -280.2123
   8   2.0000     -10.294171      -280.1186
   9   2.0000     -10.291749      -280.0527
  10   2.0000     -10.291281      -280.0400
  11   2.0000     -10.289836      -280.0007
  12   2.0000     -10.289040      -279.9790
  13   2.0000     -10.285848      -279.8922
  14   2.0000     -10.277155      -279.6556
  15   2.0000     -10.271226      -279.4943
  16   2.0000      -8.083893      -219.9739
  17   2.0000      -8.073860      -219.7009
  18   2.0000      -6.042233      -164.4175
  19   2.0000      -6.038816      -164.3245
  20   2.0000      -6.034372      -164.2036
  21   2.0000      -6.032211      -164.1448
  22   2.0000      -6.028370      -164.0403
  23   2.0000      -6.024453      -163.9337
  24   2.0000      -1.012963       -27.5641
  25   2.0000      -0.993737       -27.0410
  26   2.0000      -0.914752       -24.8917
  27   2.0000      -0.904878       -24.6230
  28   2.0000      -0.869359       -23.6565
  29   2.0000      -0.858012       -23.3477
  30   2.0000      -0.838429       -22.8148
  31   2.0000      -0.814375       -22.1603
  32   2.0000      -0.777731       -21.1631
  33   2.0000      -0.767179       -20.8760
  34   2.0000      -0.709281       -19.3005
  35   2.0000      -0.698358       -19.0033
  36   2.0000      -0.691437       -18.8150
  37   2.0000      -0.655039       -17.8245
  38   2.0000      -0.638071       -17.3628
  39   2.0000      -0.624129       -16.9834
  40   2.0000      -0.595531       -16.2052
  41   2.0000      -0.571588       -15.5537
  42   2.0000      -0.550730       -14.9861
  43   2.0000      -0.548822       -14.9342
  44   2.0000      -0.544692       -14.8218
  45   2.0000      -0.528544       -14.3824
  46   2.0000      -0.515097       -14.0165
  47   2.0000      -0.509294       -13.8586
  48   2.0000      -0.502925       -13.6853
  49   2.0000      -0.492438       -13.3999
  50   2.0000      -0.486546       -13.2396
  51   2.0000      -0.476997       -12.9798
  52   2.0000      -0.472311       -12.8522
  53   2.0000      -0.462643       -12.5892
  54   2.0000      -0.458553       -12.4779
  55   2.0000      -0.451460       -12.2849
  56   2.0000      -0.445967       -12.1354
  57   2.0000      -0.444178       -12.0867
  58   2.0000      -0.430325       -11.7097
  59   2.0000      -0.427913       -11.6441
  60   2.0000      -0.416439       -11.3319
  61   2.0000      -0.413415       -11.2496
  62   2.0000      -0.403484       -10.9794
  63   2.0000      -0.341415        -9.2904
  64   2.0000      -0.323308        -8.7977
  65   2.0000      -0.319900        -8.7049
  66   2.0000      -0.297172        -8.0865
  67   0.0000       0.028514         0.7759
  68   0.0000       0.052767         1.4359
  69   0.0000       0.101784         2.7697
  70   0.0000       0.114123         3.1054
  71   0.0000       0.129049         3.5116

MULLIKEN ATOMIC CHARGES
-----------------------
   0 S :    0.131033
   1 C :   -0.080714
   2 C :   -0.132226
   3 C :    0.070808
   4 C :   -0.180192
   5 H :    0.001223
   6 C :    0.045552
   7 H :    0.030645
   8 H :    0.029458
   9 C :   -0.040073
  10 H :    0.025391
  11 H :    0.030639
  12 C :   -0.058938
  13 H :    0.013639
  14 H :    0.045081
  15 H :    0.035581
  16 S :    0.102023
  17 C :   -0.094992
  18 C :   -0.050479
  19 C :   -0.033105
  20 C :   -0.172091
  21 H :    0.031583
  22 C :    0.039697
  23 H :    0.023435
  24 H :    0.033609
  25 C :   -0.054476
  26 H :    0.025148
  27 H :    0.030460
  28 C :   -0.061578
  29 H :    0.026219
  30 H :    0.052948
  31 H :    0.027326
  32 H :    0.040315
  33 H :    0.067053
Sum of atomic charges:   -0.0000000

LOEWDIN ATOMIC CHARGES
----------------------
   0 S :    0.413707
   1 C :   -0.216245
   2 C :   -0.076039
   3 C :   -0.045765
   4 C :   -0.183051
   5 H :    0.028628
   6 C :   -0.029082
   7 H :    0.032993
   8 H :    0.033639
   9 C :   -0.035982
  10 H :    0.017227
  11 H :    0.030690
  12 C :   -0.070248
  13 H :    0.023346
  14 H :    0.024871
  15 H :    0.029174
  16 S :    0.421075
  17 C :   -0.194739
  18 C :   -0.071326
  19 C :   -0.058747
  20 C :   -0.214720
  21 H :    0.034551
  22 C :   -0.042503
  23 H :    0.033193
  24 H :    0.034392
  25 C :   -0.036342
  26 H :    0.018108
  27 H :    0.028944
  28 C :   -0.067892
  29 H :    0.021295
  30 H :    0.025361
  31 H :    0.029372
  32 H :    0.030743
  33 H :    0.031374

  Mayer bond orders larger than 0.100000
B(  0-S ,  1-C ) :   1.1536 B(  0-S ,  4-C ) :   1.1314 B(  1-C ,  2-C ) :   1.6060
B(  1-C ,  4-C ) :   0.1016 B(  1-C , 32-H ) :   0.9524 B(  2-C ,  3-C ) :   1.2575
B(  2-C ,  6-C ) :   1.0227 B(  3-C ,  4-C ) :   1.5695 B(  3-C ,  5-H ) :   1.0041
B(  4-C , 20-C ) :   1.0379 B(  6-C ,  7-H ) :   0.9426 B(  6-C ,  8-H ) :   0.9371
B(  6-C ,  9-C ) :   1.0725 B(  9-C , 10-H ) :   0.9569 B(  9-C , 11-H ) :   0.9541
B(  9-C , 12-C ) :   1.0814 B( 12-C , 13-H ) :   0.9701 B( 12-C , 14-H ) :   0.9740
B( 12-C , 15-H ) :   0.9717 B( 16-S , 17-C ) :   1.1636 B( 16-S , 20-C ) :   1.1704
B( 17-C , 18-C ) :   1.5910 B( 17-C , 20-C ) :   0.1034 B( 17-C , 33-H ) :   0.9659
B( 18-C , 19-C ) :   1.2333 B( 18-C , 21-H ) :   0.9895 B( 19-C , 20-C ) :   1.5683
B( 19-C , 22-C ) :   1.0664 B( 22-C , 23-H ) :   0.9271 B( 22-C , 24-H ) :   0.9390
B( 22-C , 25-C ) :   1.0678 B( 25-C , 26-H ) :   0.9586 B( 25-C , 27-H ) :   0.9546
B( 25-C , 28-C ) :   1.0604 B( 28-C , 29-H ) :   0.9766 B( 28-C , 30-H ) :   0.9767
B( 28-C , 31-H ) :   0.9741

Dispersion correction           -0.015220072
FINAL SINGLE POINT ENERGY     -1339.849338100368

DIPOLE MOMENT
-------------
                                X             Y             Z
Electronic contribution:    -15.74774       2.81116      10.30651
Nuclear contribution   :     16.38863      -2.96437     -10.22520
                        -----------------------------------------
Total Dipole Moment    :      0.64089      -0.15321       0.08131
                        -----------------------------------------
Magnitude (a.u.)       :      0.66395
Magnitude (Debye)      :      1.68763

Rotational constants in cm-1:     0.023706     0.007835     0.007066
Rotational constants in MHz :   710.685020   234.894599   211.847368

                             ****ORCA TERMINATED NORMALLY****
TOTAL RUN TIME: 0 days 0 hours 0 minutes 31 seconds 533 msec
