                         Program Version 4.2.1 -  RELEASE  -
|  1> ! wB97X-D3 SP def2-SVP
|  2> %pal
|  3> nprocs 16
|  4> end
|  5>
|  6> * xyz 0 1
|  7> S 	 36.7314 	 0.562195 	 72.223
|  8> C 	 37.2867 	 2.09197 	 71.561
|  9> C 	 36.2787 	 3.02567 	 71.4731
| 10> C 	 35.0097 	 2.46925 	 71.9396
| 11> C 	 35.1028 	 1.17927 	 72.3498
| 12> H 	 34.0056 	 2.95585 	 71.8741
| 13> C 	 36.3574 	 4.45734 	 70.9161
| 14> H 	 35.8555 	 4.59447 	 69.9976
| 15> H 	 37.3753 	 4.61679 	 70.585
| 16> C 	 35.9581 	 5.60914 	 71.8786
| 17> H 	 36.8366 	 5.70542 	 72.569
| 18> H 	 35.9949 	 6.51408 	 71.1881
| 19> C 	 34.5812 	 5.64241 	 72.6373
| 20> H 	 34.4423 	 4.84519 	 73.3615
| 21> H 	 34.4108 	 6.58918 	 73.1674
| 22> H 	 33.7329 	 5.59771 	 71.9548
| 23> S 	 32.8854 	 -0.391921 	 71.7076
| 24> C 	 31.8443 	 -0.954128 	 73.0114
| 25> C 	 32.4221 	 -0.639794 	 74.202
| 26> C 	 33.6624 	 -0.0289672 	 74.1388
| 27> C 	 34.0141 	 0.367739 	 72.8513
| 28> H 	 31.8793 	 -0.990744 	 75.0254
| 29> C 	 34.3165 	 0.472104 	 75.4636
| 30> H 	 35.3589 	 0.716177 	 75.2531
| 31> H 	 34.2956 	 -0.352766 	 76.185
| 32> C 	 33.6472 	 1.62935 	 76.2564
| 33> H 	 33.9071 	 1.66862 	 77.3249
| 34> H 	 32.708 	 1.31391 	 76.3489
| 35> C 	 33.8347 	 3.04453 	 75.6375
| 36> H 	 33.294 	 3.80927 	 76.1968
| 37> H 	 33.4586 	 3.0207 	 74.6266
| 38> H 	 34.8283 	 3.32411 	 75.5614
| 39> H 	 38.32 	 2.26325 	 71.3416
| 40> H 	 30.9398 	 -1.50201 	 72.8988
| 41> *
| 42>
| 43>                          ****END OF INPUT****

CARTESIAN COORDINATES (ANGSTROEM)
---------------------------------
  S     36.731400    0.562195   72.223000
  C     37.286700    2.091970   71.561000
  C     36.278700    3.025670   71.473100
  C     35.009700    2.469250   71.939600
  C     35.102800    1.179270   72.349800
  H     34.005600    2.955850   71.874100
  C     36.357400    4.457340   70.916100
  H     35.855500    4.594470   69.997600
  H     37.375300    4.616790   70.585000
  C     35.958100    5.609140   71.878600
  H     36.836600    5.705420   72.569000
  H     35.994900    6.514080   71.188100
  C     34.581200    5.642410   72.637300
  H     34.442300    4.845190   73.361500
  H     34.410800    6.589180   73.167400
  H     33.732900    5.597710   71.954800
  S     32.885400   -0.391921   71.707600
  C     31.844300   -0.954128   73.011400
  C     32.422100   -0.639794   74.202000
  C     33.662400   -0.028967   74.138800
  C     34.014100    0.367739   72.851300
  H     31.879300   -0.990744   75.025400
  C     34.316500    0.472104   75.463600
  H     35.358900    0.716177   75.253100
  H     34.295600   -0.352766   76.185000
  C     33.647200    1.629350   76.256400
  H     33.907100    1.668620   77.324900
  H     32.708000    1.313910   76.348900
  C     33.834700    3.044530   75.637500
  H     33.294000    3.809270   76.196800
  H     33.458600    3.020700   74.626600
  H     34.828300    3.324110   75.561400
  H     38.320000    2.263250   71.341600
  H     30.939800   -1.502010   72.898800

 Total Charge           Charge          ....    0
 Multiplicity           Mult            ....    1
 Number of Electrons    NEL             ....  134
 Basis Dimension        Dim             ....  322

ORBITAL ENERGIES
----------------

  NO   OCC          E(Eh)            E(eV)
   0   2.0000     -88.965647     -2420.8783
   1   2.0000     -88.963636     -2420.8236
   2   2.0000     -10.328325      -281.0480
   3   2.0000     -10.325490      -280.9709
   4   2.0000     -10.315882      -280.7094
   5   2.0000     -10.313373      -280.6411
   6   2.0000     -10.306589      -280.4565
   7   2.0000     -10.303004      -280.3590
   8   2.0000     -10.300454      -280.2896
   9   2.0000     -10.297238      -280.2021
  10   2.0000     -10.292660      -280.0775
  11   2.0000     -10.291548      -280.0473
  12   2.0000     -10.283124      -279.8180
  13   2.0000     -10.282815      -279.8096
  14   2.0000     -10.277017      -279.6518
  15   2.0000     -10.267349      -279.3888
  16   2.0000      -8.080400      -219.8789
  17   2.0000      -8.077849      -219.8095
  18   2.0000      -6.038937      -164.3278
  19   2.0000      -6.036291      -164.2558
  20   2.0000      -6.034957      -164.2195
  21   2.0000      -6.032345      -164.1485
  22   2.0000      -6.031068      -164.1137
  23   2.0000      -6.028786      -164.0516
  24   2.0000      -1.006725       -27.3944
  25   2.0000      -0.985015       -26.8036
  26   2.0000      -0.904226       -24.6052
  27   2.0000      -0.900923       -24.5154
  28   2.0000      -0.871489       -23.7144
  29   2.0000      -0.845247       -23.0003
  30   2.0000      -0.840001       -22.8576
  31   2.0000      -0.818574       -22.2745
  32   2.0000      -0.788723       -21.4622
  33   2.0000      -0.777973       -21.1697
  34   2.0000      -0.710957       -19.3461
  35   2.0000      -0.701848       -19.0982
  36   2.0000      -0.695290       -18.9198
  37   2.0000      -0.660087       -17.9619
  38   2.0000      -0.644162       -17.5285
  39   2.0000      -0.617038       -16.7905
  40   2.0000      -0.594732       -16.1835
  41   2.0000      -0.573847       -15.6152
  42   2.0000      -0.549913       -14.9639
  43   2.0000      -0.543286       -14.7836
  44   2.0000      -0.537419       -14.6239
  45   2.0000      -0.527744       -14.3607
  46   2.0000      -0.520304       -14.1582
  47   2.0000      -0.508242       -13.8300
  48   2.0000      -0.502800       -13.6819
  49   2.0000      -0.497004       -13.5242
  50   2.0000      -0.496418       -13.5082
  51   2.0000      -0.485030       -13.1983
  52   2.0000      -0.472758       -12.8644
  53   2.0000      -0.467753       -12.7282
  54   2.0000      -0.456641       -12.4258
  55   2.0000      -0.444008       -12.0821
  56   2.0000      -0.439691       -11.9646
  57   2.0000      -0.437530       -11.9058
  58   2.0000      -0.433351       -11.7921
  59   2.0000      -0.427952       -11.6452
  60   2.0000      -0.420940       -11.4544
  61   2.0000      -0.415059       -11.2943
  62   2.0000      -0.403523       -10.9804
  63   2.0000      -0.337024        -9.1709
  64   2.0000      -0.332383        -9.0446
  65   2.0000      -0.325287        -8.8515
  66   2.0000      -0.310032        -8.4364
  67   0.0000       0.041788         1.1371
  68   0.0000       0.057321         1.5598
  69   0.0000       0.114374         3.1123
  70   0.0000       0.119880         3.2621
  71   0.0000       0.127928         3.4811

MULLIKEN ATOMIC CHARGES
-----------------------
   0 S :    0.118387
   1 C :   -0.124953
   2 C :   -0.076057
   3 C :    0.016860
   4 C :   -0.164996
   5 H :    0.039152
   6 C :    0.101173
   7 H :    0.025430
   8 H :    0.004205
   9 C :   -0.114191
  10 H :    0.040217
  11 H :    0.036253
  12 C :   -0.046369
  13 H :    0.035668
  14 H :    0.037068
  15 H :    0.026433
  16 S :    0.105065
  17 C :   -0.088771
  18 C :   -0.029598
  19 C :    0.020924
  20 C :   -0.188628
  21 H :   -0.001535
  22 C :    0.047996
  23 H :    0.021435
  24 H :    0.023182
  25 C :    0.001956
  26 H :    0.020372
  27 H :   -0.021854
  28 C :   -0.044241
  29 H :    0.030781
  30 H :    0.033269
  31 H :    0.025454
  32 H :    0.042223
  33 H :    0.047690
Sum of atomic charges:   -0.0000000

LOEWDIN ATOMIC CHARGES
----------------------
   0 S :    0.402803
   1 C :   -0.186954
   2 C :   -0.060030
   3 C :   -0.058865
   4 C :   -0.203399
   5 H :    0.042395
   6 C :   -0.033065
   7 H :    0.025949
   8 H :    0.030863
   9 C :   -0.042814
  10 H :    0.028076
  11 H :    0.031581
  12 C :   -0.072797
  13 H :    0.024155
  14 H :    0.032558
  15 H :    0.023947
  16 S :    0.393288
  17 C :   -0.172603
  18 C :   -0.072487
  19 C :   -0.056925
  20 C :   -0.191898
  21 H :    0.024770
  22 C :   -0.024026
  23 H :    0.022817
  24 H :    0.032951
  25 C :   -0.030353
  26 H :    0.028451
  27 H :    0.002372
  28 C :   -0.057360
  29 H :    0.027112
  30 H :    0.023260
  31 H :    0.015921
  32 H :    0.023862
  33 H :    0.026446

  Mayer bond orders larger than 0.100000
B(  0-S ,  1-C ) :   1.1334 B(  0-S ,  4-C ) :   1.1335 B(  1-C ,  2-C ) :   1.6457
B(  1-C , 32-H ) :   0.9686 B(  2-C ,  3-C ) :   1.2005 B(  2-C ,  6-C ) :   1.0181
B(  3-C ,  4-C ) :   1.6325 B(  3-C ,  5-H ) :   0.9791 B(  4-C , 20-C ) :   1.0235
B(  6-C ,  7-H ) :   0.9413 B(  6-C ,  8-H ) :   0.9332 B(  6-C ,  9-C ) :   1.0683
B(  9-C , 10-H ) :   0.9592 B(  9-C , 11-H ) :   0.9555 B(  9-C , 12-C ) :   1.0740
B( 12-C , 13-H ) :   0.9699 B( 12-C , 14-H ) :   0.9694 B( 12-C , 15-H ) :   0.9715
B( 16-S , 17-C ) :   1.1511 B( 16-S , 20-C ) :   1.1529 B( 17-C , 18-C ) :   1.6111
B( 17-C , 20-C ) :   0.1086 B( 17-C , 33-H ) :   0.9711 B( 18-C , 19-C ) :   1.2335
B( 18-C , 21-H ) :   0.9998 B( 19-C , 20-C ) :   1.5671 B( 19-C , 22-C ) :   1.0552
B( 22-C , 23-H ) :   0.9388 B( 22-C , 24-H ) :   0.9314 B( 22-C , 25-C ) :   1.0675
B( 25-C , 26-H ) :   0.9500 B( 25-C , 27-H ) :   0.9451 B( 25-C , 28-C ) :   1.0769
B( 28-C , 29-H ) :   0.9724 B( 28-C , 30-H ) :   0.9719 B( 28-C , 31-H ) :   0.9769

Dispersion correction           -0.016214706
FINAL SINGLE POINT ENERGY     -1339.872100946556

DIPOLE MOMENT
-------------
                                X             Y             Z
Electronic contribution:      1.69044     -23.87524     -12.37762
Nuclear contribution   :     -1.84887      24.33472      12.62391
                        -----------------------------------------
Total Dipole Moment    :     -0.15843       0.45948       0.24629
                        -----------------------------------------
Magnitude (a.u.)       :      0.54487
Magnitude (Debye)      :      1.38494

Rotational constants in cm-1:     0.018107     0.009794     0.008247
Rotational constants in MHz :   542.828979   293.619891   247.241565

                             ****ORCA TERMINATED NORMALLY****
TOTAL RUN TIME: 0 days 0 hours 0 minutes 30 seconds 826 msec
