                         Program Version 4.2.1 -  RELEASE  -
|  1> ! wB97X-D3 SP def2-SVP
|  2> %pal
|  3> nprocs 16
|  4> end
|  5>
|  6> * xyz 0 1
|  7> S 	 27.9603 	 -8.05377 	 76.8992
|  8> C 	 29.4886 	 -7.20536 	 76.6274
|  9> C 	 30.4139 	 -7.42298 	 77.6449
| 10> C 	 29.7798 	 -8.11902 	 78.6833
| 11> C 	 28.439 	 -8.4258 	 78.5216
| 12> H 	 30.2779 	 -8.45976 	 79.5843
| 13> C 	 31.8906 	 -6.94299 	 77.6704
| 14> H 	 32.1683 	 -7.26572 	 76.667
| 15> H 	 32.4335 	 -7.57117 	 78.3977
| 16> C 	 32.1519 	 -5.49904 	 78.0684
| 17> H 	 31.494 	 -4.86012 	 77.4174
| 18> H 	 31.8949 	 -5.32278 	 79.0707
| 19> C 	 33.6484 	 -5.11331 	 77.7306
| 20> H 	 33.8379 	 -4.2603 	 78.4471
| 21> H 	 34.326 	 -5.86046 	 77.9993
| 22> H 	 33.7649 	 -4.75039 	 76.7086
| 23> S 	 27.096 	 -10.845 	 79.0999
| 24> C 	 26.2108 	 -10.9197 	 80.6182
| 25> C 	 26.1572 	 -9.70994 	 81.2373
| 26> C 	 26.9788 	 -8.6835 	 80.686
| 27> C 	 27.5351 	 -9.13539 	 79.4413
| 28> H 	 25.5953 	 -9.59118 	 82.1327
| 29> C 	 27.1625 	 -7.32884 	 81.2812
| 30> H 	 26.3954 	 -7.31881 	 82.0443
| 31> H 	 26.8212 	 -6.58825 	 80.526
| 32> C 	 28.5938 	 -7.08109 	 81.9133
| 33> H 	 28.592 	 -6.23403 	 82.5779
| 34> H 	 29.4366 	 -6.86319 	 81.2398
| 35> C 	 29.0231 	 -8.29509 	 82.7264
| 36> H 	 28.4358 	 -8.42903 	 83.6583
| 37> H 	 30.019 	 -8.17702 	 83.0457
| 38> H 	 29.0282 	 -9.21368 	 82.0968
| 39> H 	 29.5481 	 -6.6431 	 75.6967
| 40> H 	 25.9339 	 -11.8779 	 81.0922
| 41> *
| 42>
| 43>                          ****END OF INPUT****

CARTESIAN COORDINATES (ANGSTROEM)
---------------------------------
  S     27.960300   -8.053770   76.899200
  C     29.488600   -7.205360   76.627400
  C     30.413900   -7.422980   77.644900
  C     29.779800   -8.119020   78.683300
  C     28.439000   -8.425800   78.521600
  H     30.277900   -8.459760   79.584300
  C     31.890600   -6.942990   77.670400
  H     32.168300   -7.265720   76.667000
  H     32.433500   -7.571170   78.397700
  C     32.151900   -5.499040   78.068400
  H     31.494000   -4.860120   77.417400
  H     31.894900   -5.322780   79.070700
  C     33.648400   -5.113310   77.730600
  H     33.837900   -4.260300   78.447100
  H     34.326000   -5.860460   77.999300
  H     33.764900   -4.750390   76.708600
  S     27.096000  -10.845000   79.099900
  C     26.210800  -10.919700   80.618200
  C     26.157200   -9.709940   81.237300
  C     26.978800   -8.683500   80.686000
  C     27.535100   -9.135390   79.441300
  H     25.595300   -9.591180   82.132700
  C     27.162500   -7.328840   81.281200
  H     26.395400   -7.318810   82.044300
  H     26.821200   -6.588250   80.526000
  C     28.593800   -7.081090   81.913300
  H     28.592000   -6.234030   82.577900
  H     29.436600   -6.863190   81.239800
  C     29.023100   -8.295090   82.726400
  H     28.435800   -8.429030   83.658300
  H     30.019000   -8.177020   83.045700
  H     29.028200   -9.213680   82.096800
  H     29.548100   -6.643100   75.696700
  H     25.933900  -11.877900   81.092200

 Total Charge           Charge          ....    0
 Multiplicity           Mult            ....    1
 Number of Electrons    NEL             ....  134
 Basis Dimension        Dim             ....  322

ORBITAL ENERGIES
----------------

  NO   OCC          E(Eh)            E(eV)
   0   2.0000     -88.965058     -2420.8623
   1   2.0000     -88.962734     -2420.7991
   2   2.0000     -10.330286      -281.1014
   3   2.0000     -10.324616      -280.9471
   4   2.0000     -10.317165      -280.7443
   5   2.0000     -10.315612      -280.7021
   6   2.0000     -10.305739      -280.4334
   7   2.0000     -10.301978      -280.3311
   8   2.0000     -10.296631      -280.1856
   9   2.0000     -10.295440      -280.1532
  10   2.0000     -10.291319      -280.0410
  11   2.0000     -10.289487      -279.9912
  12   2.0000     -10.289269      -279.9852
  13   2.0000     -10.288357      -279.9604
  14   2.0000     -10.282531      -279.8019
  15   2.0000     -10.271919      -279.5131
  16   2.0000      -8.078972      -219.8400
  17   2.0000      -8.077789      -219.8078
  18   2.0000      -6.037454      -164.2875
  19   2.0000      -6.036062      -164.2496
  20   2.0000      -6.033603      -164.1827
  21   2.0000      -6.032297      -164.1472
  22   2.0000      -6.029798      -164.0791
  23   2.0000      -6.028741      -164.0504
  24   2.0000      -1.001008       -27.2388
  25   2.0000      -0.979429       -26.6516
  26   2.0000      -0.909260       -24.7422
  27   2.0000      -0.906155       -24.6577
  28   2.0000      -0.864099       -23.5133
  29   2.0000      -0.847820       -23.0704
  30   2.0000      -0.845327       -23.0025
  31   2.0000      -0.810365       -22.0511
  32   2.0000      -0.783511       -21.3204
  33   2.0000      -0.767823       -20.8935
  34   2.0000      -0.707528       -19.2528
  35   2.0000      -0.704314       -19.1654
  36   2.0000      -0.686106       -18.6699
  37   2.0000      -0.656138       -17.8544
  38   2.0000      -0.644575       -17.5398
  39   2.0000      -0.614846       -16.7308
  40   2.0000      -0.585816       -15.9409
  41   2.0000      -0.574294       -15.6273
  42   2.0000      -0.556924       -15.1547
  43   2.0000      -0.554655       -15.0929
  44   2.0000      -0.548572       -14.9274
  45   2.0000      -0.524973       -14.2852
  46   2.0000      -0.516138       -14.0448
  47   2.0000      -0.510729       -13.8976
  48   2.0000      -0.499298       -13.5866
  49   2.0000      -0.489713       -13.3258
  50   2.0000      -0.483392       -13.1538
  51   2.0000      -0.479550       -13.0492
  52   2.0000      -0.470305       -12.7977
  53   2.0000      -0.463454       -12.6112
  54   2.0000      -0.453667       -12.3449
  55   2.0000      -0.446729       -12.1561
  56   2.0000      -0.439678       -11.9642
  57   2.0000      -0.438305       -11.9269
  58   2.0000      -0.434784       -11.8311
  59   2.0000      -0.430612       -11.7175
  60   2.0000      -0.422397       -11.4940
  61   2.0000      -0.415157       -11.2970
  62   2.0000      -0.412701       -11.2302
  63   2.0000      -0.337452        -9.1825
  64   2.0000      -0.331723        -9.0266
  65   2.0000      -0.324859        -8.8399
  66   2.0000      -0.291859        -7.9419
  67   0.0000       0.036916         1.0045
  68   0.0000       0.050316         1.3692
  69   0.0000       0.111408         3.0316
  70   0.0000       0.118196         3.2163
  71   0.0000       0.131984         3.5915

MULLIKEN ATOMIC CHARGES
-----------------------
   0 S :    0.106831
   1 C :   -0.164556
   2 C :   -0.059934
   3 C :    0.036492
   4 C :   -0.176549
   5 H :    0.004667
   6 C :    0.059440
   7 H :    0.035486
   8 H :    0.022551
   9 C :   -0.057152
  10 H :    0.032916
  11 H :    0.025453
  12 C :   -0.044669
  13 H :    0.034448
  14 H :    0.026202
  15 H :    0.047804
  16 S :    0.104424
  17 C :   -0.105030
  18 C :   -0.010049
  19 C :   -0.091811
  20 C :   -0.174333
  21 H :    0.005972
  22 C :    0.126901
  23 H :    0.006287
  24 H :    0.052671
  25 C :   -0.060131
  26 H :    0.022548
  27 H :    0.034719
  28 C :   -0.068772
  29 H :    0.032604
  30 H :    0.013420
  31 H :    0.055672
  32 H :    0.053197
  33 H :    0.072280
Sum of atomic charges:   -0.0000000

LOEWDIN ATOMIC CHARGES
----------------------
   0 S :    0.407813
   1 C :   -0.189403
   2 C :   -0.066132
   3 C :   -0.064120
   4 C :   -0.207932
   5 H :    0.028171
   6 C :   -0.030929
   7 H :    0.034103
   8 H :    0.030217
   9 C :   -0.032995
  10 H :    0.029413
  11 H :    0.017374
  12 C :   -0.060009
  13 H :    0.034328
  14 H :    0.014456
  15 H :    0.029131
  16 S :    0.383336
  17 C :   -0.186010
  18 C :   -0.072714
  19 C :   -0.049955
  20 C :   -0.193593
  21 H :    0.026124
  22 C :   -0.030422
  23 H :    0.029481
  24 H :    0.042889
  25 C :   -0.036494
  26 H :    0.021584
  27 H :    0.025822
  28 C :   -0.068534
  29 H :    0.025911
  30 H :    0.016642
  31 H :    0.031332
  32 H :    0.023425
  33 H :    0.037693

  Mayer bond orders larger than 0.100000
B(  0-S ,  1-C ) :   1.1622 B(  0-S ,  4-C ) :   1.1638 B(  1-C ,  2-C ) :   1.5630
B(  1-C ,  4-C ) :   0.1097 B(  1-C , 32-H ) :   0.9761 B(  2-C ,  3-C ) :   1.2752
B(  2-C ,  6-C ) :   0.9925 B(  3-C ,  4-C ) :   1.5707 B(  3-C ,  5-H ) :   0.9884
B(  4-C , 20-C ) :   1.0251 B(  6-C ,  7-H ) :   0.9456 B(  6-C ,  8-H ) :   0.9392
B(  6-C ,  9-C ) :   1.0674 B(  9-C , 10-H ) :   0.9597 B(  9-C , 11-H ) :   0.9597
B(  9-C , 12-C ) :   1.0656 B( 12-C , 13-H ) :   0.9779 B( 12-C , 14-H ) :   0.9775
B( 12-C , 15-H ) :   0.9797 B( 16-S , 17-C ) :   1.1481 B( 16-S , 20-C ) :   1.1487
B( 17-C , 18-C ) :   1.6138 B( 17-C , 20-C ) :   0.1028 B( 17-C , 33-H ) :   0.9604
B( 18-C , 19-C ) :   1.2543 B( 18-C , 21-H ) :   0.9851 B( 19-C , 20-C ) :   1.5639
B( 19-C , 22-C ) :   1.0358 B( 22-C , 23-H ) :   0.9287 B( 22-C , 24-H ) :   0.9315
B( 22-C , 25-C ) :   1.0465 B( 25-C , 26-H ) :   0.9570 B( 25-C , 27-H ) :   0.9557
B( 25-C , 28-C ) :   1.0889 B( 28-C , 29-H ) :   0.9760 B( 28-C , 30-H ) :   0.9711
B( 28-C , 31-H ) :   0.9639

Dispersion correction           -0.015234904
FINAL SINGLE POINT ENERGY     -1339.871790180926

DIPOLE MOMENT
-------------
                                X             Y             Z
Electronic contribution:    -20.44171     -17.05961     -12.65168
Nuclear contribution   :     20.90860      17.42675      13.11679
                        -----------------------------------------
Total Dipole Moment    :      0.46689       0.36714       0.46511
                        -----------------------------------------
Magnitude (a.u.)       :      0.75439
Magnitude (Debye)      :      1.91750

Rotational constants in cm-1:     0.021269     0.008321     0.006676
Rotational constants in MHz :   637.628870   249.471830   200.148016

                             ****ORCA TERMINATED NORMALLY****
TOTAL RUN TIME: 0 days 0 hours 0 minutes 30 seconds 631 msec
