                         Program Version 4.2.1 -  RELEASE  -
|  1> ! wB97X-D3 SP def2-SVP
|  2> %pal
|  3> nprocs 16
|  4> end
|  5>
|  6> * xyz 0 1
|  7> S 	 26.5898 	 34.0082 	 56.0795
|  8> C 	 26.3795 	 32.384 	 55.4828
|  9> C 	 27.3879 	 31.9214 	 54.6736
| 10> C 	 28.3733 	 32.9065 	 54.5553
| 11> C 	 28.2229 	 34.0506 	 55.3198
| 12> H 	 29.2417 	 32.8089 	 53.8463
| 13> C 	 27.4597 	 30.5261 	 54.0887
| 14> H 	 27.1712 	 29.9829 	 54.9694
| 15> H 	 28.5059 	 30.2309 	 53.9611
| 16> C 	 26.6075 	 30.2509 	 52.8609
| 17> H 	 25.5929 	 30.2659 	 53.1881
| 18> H 	 26.6122 	 31.1268 	 52.2102
| 19> C 	 26.8649 	 28.9974 	 52.1265
| 20> H 	 26.0682 	 28.7174 	 51.4454
| 21> H 	 27.8103 	 29.2065 	 51.4979
| 22> H 	 26.9295 	 28.1947 	 52.9091
| 23> S 	 28.589 	 36.9194 	 55.2933
| 24> C 	 30.1353 	 37.5634 	 55.655
| 25> C 	 31.0601 	 36.5632 	 55.6056
| 26> C 	 30.4622 	 35.267 	 55.5256
| 27> C 	 29.0704 	 35.2197 	 55.47
| 28> H 	 32.1584 	 36.7793 	 55.6225
| 29> C 	 31.4047 	 34.0355 	 55.7413
| 30> H 	 30.6968 	 33.148 	 55.7684
| 31> H 	 31.7568 	 34.1101 	 56.7462
| 32> C 	 32.5978 	 33.7807 	 54.7562
| 33> H 	 33.086 	 32.8178 	 54.992
| 34> H 	 33.381 	 34.5324 	 54.888
| 35> C 	 32.2072 	 33.8573 	 53.2957
| 36> H 	 31.9333 	 34.8836 	 53.1298
| 37> H 	 31.3155 	 33.2494 	 53.1185
| 38> H 	 33.0173 	 33.5847 	 52.5606
| 39> H 	 25.4594 	 31.8731 	 55.6382
| 40> H 	 30.4729 	 38.6134 	 55.4819
| 41> *
| 42>
| 43>                          ****END OF INPUT****

CARTESIAN COORDINATES (ANGSTROEM)
---------------------------------
  S     26.589800   34.008200   56.079500
  C     26.379500   32.384000   55.482800
  C     27.387900   31.921400   54.673600
  C     28.373300   32.906500   54.555300
  C     28.222900   34.050600   55.319800
  H     29.241700   32.808900   53.846300
  C     27.459700   30.526100   54.088700
  H     27.171200   29.982900   54.969400
  H     28.505900   30.230900   53.961100
  C     26.607500   30.250900   52.860900
  H     25.592900   30.265900   53.188100
  H     26.612200   31.126800   52.210200
  C     26.864900   28.997400   52.126500
  H     26.068200   28.717400   51.445400
  H     27.810300   29.206500   51.497900
  H     26.929500   28.194700   52.909100
  S     28.589000   36.919400   55.293300
  C     30.135300   37.563400   55.655000
  C     31.060100   36.563200   55.605600
  C     30.462200   35.267000   55.525600
  C     29.070400   35.219700   55.470000
  H     32.158400   36.779300   55.622500
  C     31.404700   34.035500   55.741300
  H     30.696800   33.148000   55.768400
  H     31.756800   34.110100   56.746200
  C     32.597800   33.780700   54.756200
  H     33.086000   32.817800   54.992000
  H     33.381000   34.532400   54.888000
  C     32.207200   33.857300   53.295700
  H     31.933300   34.883600   53.129800
  H     31.315500   33.249400   53.118500
  H     33.017300   33.584700   52.560600
  H     25.459400   31.873100   55.638200
  H     30.472900   38.613400   55.481900

 Total Charge           Charge          ....    0
 Multiplicity           Mult            ....    1
 Number of Electrons    NEL             ....  134
 Basis Dimension        Dim             ....  322

ORBITAL ENERGIES
----------------

  NO   OCC          E(Eh)            E(eV)
   0   2.0000     -88.967683     -2420.9337
   1   2.0000     -88.964756     -2420.8541
   2   2.0000     -10.335938      -281.2552
   3   2.0000     -10.332215      -281.1539
   4   2.0000     -10.317766      -280.7607
   5   2.0000     -10.312869      -280.6274
   6   2.0000     -10.304754      -280.4066
   7   2.0000     -10.299855      -280.2733
   8   2.0000     -10.299474      -280.2629
   9   2.0000     -10.294311      -280.1224
  10   2.0000     -10.292868      -280.0832
  11   2.0000     -10.292628      -280.0766
  12   2.0000     -10.289792      -279.9995
  13   2.0000     -10.287652      -279.9412
  14   2.0000     -10.280759      -279.7537
  15   2.0000     -10.277147      -279.6554
  16   2.0000      -8.081931      -219.9205
  17   2.0000      -8.079674      -219.8591
  18   2.0000      -6.040352      -164.3663
  19   2.0000      -6.038334      -164.3114
  20   2.0000      -6.036646      -164.2655
  21   2.0000      -6.034125      -164.1969
  22   2.0000      -6.032673      -164.1574
  23   2.0000      -6.030251      -164.0915
  24   2.0000      -1.007543       -27.4166
  25   2.0000      -0.989278       -26.9196
  26   2.0000      -0.919704       -25.0264
  27   2.0000      -0.901931       -24.5428
  28   2.0000      -0.875827       -23.8325
  29   2.0000      -0.855525       -23.2800
  30   2.0000      -0.842848       -22.9351
  31   2.0000      -0.818396       -22.2697
  32   2.0000      -0.783471       -21.3193
  33   2.0000      -0.770681       -20.9713
  34   2.0000      -0.707832       -19.2611
  35   2.0000      -0.702465       -19.1150
  36   2.0000      -0.691877       -18.8269
  37   2.0000      -0.652902       -17.7664
  38   2.0000      -0.641060       -17.4441
  39   2.0000      -0.621554       -16.9133
  40   2.0000      -0.588381       -16.0107
  41   2.0000      -0.575945       -15.6723
  42   2.0000      -0.566315       -15.4102
  43   2.0000      -0.550028       -14.9670
  44   2.0000      -0.542186       -14.7536
  45   2.0000      -0.535905       -14.5827
  46   2.0000      -0.521750       -14.1975
  47   2.0000      -0.512316       -13.9408
  48   2.0000      -0.503689       -13.7061
  49   2.0000      -0.498177       -13.5561
  50   2.0000      -0.488135       -13.2828
  51   2.0000      -0.482419       -13.1273
  52   2.0000      -0.467673       -12.7260
  53   2.0000      -0.462306       -12.5800
  54   2.0000      -0.456622       -12.4253
  55   2.0000      -0.449359       -12.2277
  56   2.0000      -0.440877       -11.9969
  57   2.0000      -0.439758       -11.9664
  58   2.0000      -0.435569       -11.8524
  59   2.0000      -0.431027       -11.7288
  60   2.0000      -0.413982       -11.2650
  61   2.0000      -0.410834       -11.1794
  62   2.0000      -0.405777       -11.0418
  63   2.0000      -0.355396        -9.6708
  64   2.0000      -0.335981        -9.1425
  65   2.0000      -0.327000        -8.8981
  66   2.0000      -0.290287        -7.8991
  67   0.0000       0.021071         0.5734
  68   0.0000       0.069811         1.8997
  69   0.0000       0.106127         2.8879
  70   0.0000       0.119161         3.2425
  71   0.0000       0.133733         3.6391

MULLIKEN ATOMIC CHARGES
-----------------------
   0 S :    0.106445
   1 C :   -0.111821
   2 C :   -0.099631
   3 C :    0.016024
   4 C :   -0.183299
   5 H :    0.020465
   6 C :    0.082970
   7 H :    0.026416
   8 H :    0.015980
   9 C :   -0.051922
  10 H :    0.007063
  11 H :    0.026292
  12 C :   -0.053486
  13 H :    0.039513
  14 H :    0.049313
  15 H :    0.039059
  16 S :    0.100205
  17 C :   -0.090434
  18 C :   -0.058244
  19 C :   -0.076428
  20 C :   -0.097767
  21 H :    0.039942
  22 C :    0.031674
  23 H :    0.031010
  24 H :    0.036298
  25 C :   -0.067452
  26 H :    0.034798
  27 H :    0.023430
  28 C :   -0.057871
  29 H :    0.033352
  30 H :    0.025576
  31 H :    0.046021
  32 H :    0.036564
  33 H :    0.079943
Sum of atomic charges:   -0.0000000

LOEWDIN ATOMIC CHARGES
----------------------
   0 S :    0.392088
   1 C :   -0.182625
   2 C :   -0.068373
   3 C :   -0.060421
   4 C :   -0.177881
   5 H :    0.037328
   6 C :   -0.029126
   7 H :    0.034276
   8 H :    0.028885
   9 C :   -0.051278
  10 H :    0.019317
  11 H :    0.025146
  12 C :   -0.068663
  13 H :    0.027288
  14 H :    0.037907
  15 H :    0.032329
  16 S :    0.407948
  17 C :   -0.203719
  18 C :   -0.083887
  19 C :   -0.060273
  20 C :   -0.200816
  21 H :    0.039748
  22 C :   -0.034227
  23 H :    0.033218
  24 H :    0.028978
  25 C :   -0.043233
  26 H :    0.026883
  27 H :    0.019515
  28 C :   -0.068717
  29 H :    0.024479
  30 H :    0.019476
  31 H :    0.033334
  32 H :    0.019119
  33 H :    0.045978

  Mayer bond orders larger than 0.100000
B(  0-S ,  1-C ) :   1.1553 B(  0-S ,  4-C ) :   1.1341 B(  1-C ,  2-C ) :   1.6053
B(  1-C ,  4-C ) :   0.1048 B(  1-C , 32-H ) :   0.9663 B(  2-C ,  3-C ) :   1.2780
B(  2-C ,  6-C ) :   0.9956 B(  3-C ,  4-C ) :   1.5579 B(  3-C ,  5-H ) :   0.9790
B(  4-C , 20-C ) :   1.0771 B(  6-C ,  7-H ) :   0.9327 B(  6-C ,  8-H ) :   0.9456
B(  6-C ,  9-C ) :   1.0521 B(  9-C , 10-H ) :   0.9438 B(  9-C , 11-H ) :   0.9579
B(  9-C , 12-C ) :   1.0929 B( 12-C , 13-H ) :   0.9717 B( 12-C , 14-H ) :   0.9738
B( 12-C , 15-H ) :   0.9703 B( 16-S , 17-C ) :   1.1662 B( 16-S , 20-C ) :   1.1234
B( 17-C , 18-C ) :   1.5986 B( 17-C , 33-H ) :   0.9553 B( 18-C , 19-C ) :   1.2632
B( 18-C , 21-H ) :   0.9841 B( 19-C , 20-C ) :   1.5744 B( 19-C , 22-C ) :   1.0205
B( 22-C , 23-H ) :   0.9398 B( 22-C , 24-H ) :   0.9468 B( 22-C , 25-C ) :   1.0615
B( 25-C , 26-H ) :   0.9573 B( 25-C , 27-H ) :   0.9556 B( 25-C , 28-C ) :   1.0756
B( 28-C , 29-H ) :   0.9685 B( 28-C , 30-H ) :   0.9756 B( 28-C , 31-H ) :   0.9707

Dispersion correction           -0.014450840
FINAL SINGLE POINT ENERGY     -1339.871462186921

DIPOLE MOMENT
-------------
                                X             Y             Z
Electronic contribution:    -12.00885      23.16800      14.41944
Nuclear contribution   :     12.37348     -23.65169     -14.77910
                        -----------------------------------------
Total Dipole Moment    :      0.36463      -0.48369      -0.35966
                        -----------------------------------------
Magnitude (a.u.)       :      0.70446
Magnitude (Debye)      :      1.79060

Rotational constants in cm-1:     0.019577     0.008229     0.006321
Rotational constants in MHz :   586.898323   246.706658   189.500366

                             ****ORCA TERMINATED NORMALLY****
TOTAL RUN TIME: 0 days 0 hours 0 minutes 34 seconds 716 msec
