                         Program Version 4.2.1 -  RELEASE  -
|  1> ! wB97X-D3 SP def2-SVP
|  2> %pal
|  3> nprocs 16
|  4> end
|  5>
|  6> * xyz 0 1
|  7> S 	 18.7512 	 -7.54439 	 83.7849
|  8> C 	 18.8394 	 -7.13181 	 82.1016
|  9> C 	 19.4235 	 -8.15253 	 81.3689
| 10> C 	 19.8963 	 -9.19392 	 82.2126
| 11> C 	 19.696 	 -9.05003 	 83.551
| 12> H 	 20.4531 	 -10.0556 	 81.9643
| 13> C 	 19.6266 	 -8.21522 	 79.8796
| 14> H 	 20.1972 	 -9.11721 	 79.7543
| 15> H 	 20.2806 	 -7.43865 	 79.4989
| 16> C 	 18.3802 	 -7.98546 	 79.0756
| 17> H 	 17.739 	 -8.82 	 79.3666
| 18> H 	 18.0161 	 -7.01535 	 79.415
| 19> C 	 18.5266 	 -7.96235 	 77.5075
| 20> H 	 17.5709 	 -7.80165 	 77.0833
| 21> H 	 19.3267 	 -7.24984 	 77.2364
| 22> H 	 18.8634 	 -8.93137 	 77.1241
| 23> S 	 21.2562 	 -9.13996 	 85.8441
| 24> C 	 21.5244 	 -10.7063 	 86.6105
| 25> C 	 20.7266 	 -11.6437 	 86.0288
| 26> C 	 20.0546 	 -11.2921 	 84.7959
| 27> C 	 20.2407 	 -9.92641 	 84.5754
| 28> H 	 20.7673 	 -12.6149 	 86.4161
| 29> C 	 19.2736 	 -12.2898 	 83.9325
| 30> H 	 18.6772 	 -11.7534 	 83.1744
| 31> H 	 18.6781 	 -12.9079 	 84.6043
| 32> C 	 20.1451 	 -13.1639 	 83.0732
| 33> H 	 20.7265 	 -13.8658 	 83.6581
| 34> H 	 20.8152 	 -12.5214 	 82.566
| 35> C 	 19.4722 	 -13.9043 	 81.8102
| 36> H 	 19.0465 	 -13.0466 	 81.246
| 37> H 	 18.6994 	 -14.6449 	 82.044
| 38> H 	 20.1884 	 -14.415 	 81.1424
| 39> H 	 18.5357 	 -6.23626 	 81.6609
| 40> H 	 22.1272 	 -10.9065 	 87.5326
| 41> *
| 42>
| 43>                          ****END OF INPUT****

CARTESIAN COORDINATES (ANGSTROEM)
---------------------------------
  S     18.751200   -7.544390   83.784900
  C     18.839400   -7.131810   82.101600
  C     19.423500   -8.152530   81.368900
  C     19.896300   -9.193920   82.212600
  C     19.696000   -9.050030   83.551000
  H     20.453100  -10.055600   81.964300
  C     19.626600   -8.215220   79.879600
  H     20.197200   -9.117210   79.754300
  H     20.280600   -7.438650   79.498900
  C     18.380200   -7.985460   79.075600
  H     17.739000   -8.820000   79.366600
  H     18.016100   -7.015350   79.415000
  C     18.526600   -7.962350   77.507500
  H     17.570900   -7.801650   77.083300
  H     19.326700   -7.249840   77.236400
  H     18.863400   -8.931370   77.124100
  S     21.256200   -9.139960   85.844100
  C     21.524400  -10.706300   86.610500
  C     20.726600  -11.643700   86.028800
  C     20.054600  -11.292100   84.795900
  C     20.240700   -9.926410   84.575400
  H     20.767300  -12.614900   86.416100
  C     19.273600  -12.289800   83.932500
  H     18.677200  -11.753400   83.174400
  H     18.678100  -12.907900   84.604300
  C     20.145100  -13.163900   83.073200
  H     20.726500  -13.865800   83.658100
  H     20.815200  -12.521400   82.566000
  C     19.472200  -13.904300   81.810200
  H     19.046500  -13.046600   81.246000
  H     18.699400  -14.644900   82.044000
  H     20.188400  -14.415000   81.142400
  H     18.535700   -6.236260   81.660900
  H     22.127200  -10.906500   87.532600

 Total Charge           Charge          ....    0
 Multiplicity           Mult            ....    1
 Number of Electrons    NEL             ....  134
 Basis Dimension        Dim             ....  322

ORBITAL ENERGIES
----------------

  NO   OCC          E(Eh)            E(eV)
   0   2.0000     -88.966060     -2420.8896
   1   2.0000     -88.965680     -2420.8792
   2   2.0000     -10.334217      -281.2083
   3   2.0000     -10.327475      -281.0249
   4   2.0000     -10.322466      -280.8886
   5   2.0000     -10.312711      -280.6231
   6   2.0000     -10.311293      -280.5846
   7   2.0000     -10.298961      -280.2490
   8   2.0000     -10.298927      -280.2480
   9   2.0000     -10.291175      -280.0371
  10   2.0000     -10.289736      -279.9980
  11   2.0000     -10.287848      -279.9466
  12   2.0000     -10.287511      -279.9374
  13   2.0000     -10.287322      -279.9323
  14   2.0000     -10.284827      -279.8644
  15   2.0000     -10.282239      -279.7939
  16   2.0000      -8.080210      -219.8737
  17   2.0000      -8.079510      -219.8547
  18   2.0000      -6.038827      -164.3248
  19   2.0000      -6.038175      -164.3071
  20   2.0000      -6.034738      -164.2136
  21   2.0000      -6.034213      -164.1993
  22   2.0000      -6.030934      -164.1101
  23   2.0000      -6.030077      -164.0867
  24   2.0000      -1.003638       -27.3104
  25   2.0000      -0.982270       -26.7289
  26   2.0000      -0.915062       -24.9001
  27   2.0000      -0.911161       -24.7939
  28   2.0000      -0.871796       -23.7228
  29   2.0000      -0.849232       -23.1088
  30   2.0000      -0.843978       -22.9658
  31   2.0000      -0.816246       -22.2112
  32   2.0000      -0.785110       -21.3639
  33   2.0000      -0.774880       -21.0856
  34   2.0000      -0.712431       -19.3862
  35   2.0000      -0.701232       -19.0815
  36   2.0000      -0.692332       -18.8393
  37   2.0000      -0.661751       -18.0072
  38   2.0000      -0.648318       -17.6416
  39   2.0000      -0.617722       -16.8091
  40   2.0000      -0.596838       -16.2408
  41   2.0000      -0.577349       -15.7105
  42   2.0000      -0.569295       -15.4913
  43   2.0000      -0.566544       -15.4164
  44   2.0000      -0.527169       -14.3450
  45   2.0000      -0.522587       -14.2203
  46   2.0000      -0.518668       -14.1137
  47   2.0000      -0.515756       -14.0344
  48   2.0000      -0.508849       -13.8465
  49   2.0000      -0.499234       -13.5849
  50   2.0000      -0.496420       -13.5083
  51   2.0000      -0.475314       -12.9340
  52   2.0000      -0.471324       -12.8254
  53   2.0000      -0.468629       -12.7520
  54   2.0000      -0.462693       -12.5905
  55   2.0000      -0.451306       -12.2807
  56   2.0000      -0.440667       -11.9912
  57   2.0000      -0.437306       -11.8997
  58   2.0000      -0.435456       -11.8494
  59   2.0000      -0.427040       -11.6203
  60   2.0000      -0.419686       -11.4202
  61   2.0000      -0.416443       -11.3320
  62   2.0000      -0.413721       -11.2579
  63   2.0000      -0.347582        -9.4582
  64   2.0000      -0.332385        -9.0446
  65   2.0000      -0.327692        -8.9169
  66   2.0000      -0.296674        -8.0729
  67   0.0000       0.028520         0.7761
  68   0.0000       0.064290         1.7494
  69   0.0000       0.114541         3.1168
  70   0.0000       0.116615         3.1733
  71   0.0000       0.131006         3.5649

MULLIKEN ATOMIC CHARGES
-----------------------
   0 S :    0.114169
   1 C :   -0.104593
   2 C :   -0.072471
   3 C :    0.024915
   4 C :   -0.146010
   5 H :   -0.013915
   6 C :    0.110530
   7 H :    0.006337
   8 H :    0.017370
   9 C :   -0.111744
  10 H :    0.034243
  11 H :    0.029355
  12 C :   -0.020375
  13 H :    0.037257
  14 H :    0.033380
  15 H :    0.024614
  16 S :    0.100409
  17 C :   -0.101477
  18 C :   -0.014615
  19 C :   -0.028343
  20 C :   -0.192229
  21 H :   -0.003851
  22 C :    0.114850
  23 H :    0.022479
  24 H :    0.032538
  25 C :   -0.078264
  26 H :    0.025355
  27 H :    0.018757
  28 C :   -0.081816
  29 H :    0.032933
  30 H :    0.041630
  31 H :    0.044662
  32 H :    0.026195
  33 H :    0.077725
Sum of atomic charges:    0.0000000

LOEWDIN ATOMIC CHARGES
----------------------
   0 S :    0.395211
   1 C :   -0.186435
   2 C :   -0.061837
   3 C :   -0.062109
   4 C :   -0.186631
   5 H :    0.022895
   6 C :   -0.037220
   7 H :    0.024701
   8 H :    0.029446
   9 C :   -0.036786
  10 H :    0.025135
  11 H :    0.022842
  12 C :   -0.060761
  13 H :    0.023697
  14 H :    0.027296
  15 H :    0.025048
  16 S :    0.375733
  17 C :   -0.183446
  18 C :   -0.068824
  19 C :   -0.043746
  20 C :   -0.176609
  21 H :    0.019919
  22 C :   -0.026167
  23 H :    0.034639
  24 H :    0.033448
  25 C :   -0.037398
  26 H :    0.017384
  27 H :    0.017767
  28 C :   -0.068988
  29 H :    0.026659
  30 H :    0.022694
  31 H :    0.030267
  32 H :    0.017351
  33 H :    0.044823

  Mayer bond orders larger than 0.100000
B(  0-S ,  1-C ) :   1.1456 B(  0-S ,  4-C ) :   1.1268 B(  1-C ,  2-C ) :   1.5928
B(  1-C , 32-H ) :   0.9754 B(  2-C ,  3-C ) :   1.2373 B(  2-C ,  6-C ) :   1.0259
B(  3-C ,  4-C ) :   1.5917 B(  3-C ,  5-H ) :   0.9992 B(  4-C , 20-C ) :   1.0552
B(  6-C ,  7-H ) :   0.9411 B(  6-C ,  8-H ) :   0.9265 B(  6-C ,  9-C ) :   1.0491
B(  9-C , 10-H ) :   0.9603 B(  9-C , 11-H ) :   0.9564 B(  9-C , 12-C ) :   1.0830
B( 12-C , 13-H ) :   0.9753 B( 12-C , 14-H ) :   0.9730 B( 12-C , 15-H ) :   0.9752
B( 16-S , 17-C ) :   1.1277 B( 16-S , 20-C ) :   1.1275 B( 17-C , 18-C ) :   1.6579
B( 17-C , 33-H ) :   0.9593 B( 18-C , 19-C ) :   1.2036 B( 18-C , 21-H ) :   0.9887
B( 19-C , 20-C ) :   1.6113 B( 19-C , 22-C ) :   1.0532 B( 22-C , 23-H ) :   0.9250
B( 22-C , 24-H ) :   0.9304 B( 22-C , 25-C ) :   1.0654 B( 25-C , 26-H ) :   0.9560
B( 25-C , 27-H ) :   0.9553 B( 25-C , 28-C ) :   1.0692 B( 28-C , 29-H ) :   0.9751
B( 28-C , 30-H ) :   0.9795 B( 28-C , 31-H ) :   0.9779

Dispersion correction           -0.013836508
FINAL SINGLE POINT ENERGY     -1339.870216043334

DIPOLE MOMENT
-------------
                                X             Y             Z
Electronic contribution:      4.80198      14.35520      27.85401
Nuclear contribution   :     -4.73440     -14.87300     -28.32135
                        -----------------------------------------
Total Dipole Moment    :      0.06758      -0.51781      -0.46734
                        -----------------------------------------
Magnitude (a.u.)       :      0.70078
Magnitude (Debye)      :      1.78125

Rotational constants in cm-1:     0.018046     0.008395     0.006146
Rotational constants in MHz :   540.991608   251.669676   184.264476

                             ****ORCA TERMINATED NORMALLY****
TOTAL RUN TIME: 0 days 0 hours 0 minutes 29 seconds 173 msec
