                         Program Version 4.2.1 -  RELEASE  -
|  1> ! wB97X-D3 SP def2-SVP
|  2> %pal
|  3> nprocs 16
|  4> end
|  5>
|  6> * xyz 0 1
|  7> S 	 -42.4107 	 55.5142 	 111.337
|  8> C 	 -43.5563 	 56.2931 	 110.238
|  9> C 	 -42.9835 	 57.1044 	 109.332
| 10> C 	 -41.5281 	 57.0839 	 109.523
| 11> C 	 -41.1289 	 56.2387 	 110.546
| 12> H 	 -40.7854 	 57.6084 	 108.935
| 13> C 	 -43.719 	 57.764 	 108.131
| 14> H 	 -44.7818 	 57.6302 	 108.279
| 15> H 	 -43.5282 	 57.0278 	 107.317
| 16> C 	 -43.3595 	 59.1655 	 107.611
| 17> H 	 -42.2878 	 59.0723 	 107.514
| 18> H 	 -43.8003 	 59.1757 	 106.603
| 19> C 	 -43.6201 	 60.3743 	 108.486
| 20> H 	 -44.7036 	 60.575 	 108.51
| 21> H 	 -43.2356 	 60.2376 	 109.517
| 22> H 	 -43.1222 	 61.1794 	 108.029
| 23> S 	 -38.6341 	 57.4643 	 110.641
| 24> C 	 -37.222 	 56.7775 	 111.382
| 25> C 	 -37.5134 	 55.4347 	 111.579
| 26> C 	 -38.8669 	 55.0317 	 111.269
| 27> C 	 -39.6542 	 56.0823 	 110.891
| 28> H 	 -36.847 	 54.751 	 112.124
| 29> C 	 -39.3479 	 53.6302 	 111.59
| 30> H 	 -40.43 	 53.6555 	 111.603
| 31> H 	 -38.9806 	 53.4096 	 112.647
| 32> C 	 -39.0263 	 52.5228 	 110.575
| 33> H 	 -37.9982 	 52.3262 	 110.581
| 34> H 	 -39.3161 	 52.7734 	 109.582
| 35> C 	 -39.5321 	 51.1451 	 111.115
| 36> H 	 -39.542 	 51.287 	 112.151
| 37> H 	 -38.9648 	 50.3375 	 110.653
| 38> H 	 -40.5268 	 51.0055 	 110.679
| 39> H 	 -44.5622 	 56.0258 	 110.16
| 40> H 	 -36.4684 	 57.3951 	 111.827
| 41> *
| 42>
| 43>                          ****END OF INPUT****

CARTESIAN COORDINATES (ANGSTROEM)
---------------------------------
  S    -42.410700   55.514200  111.337000
  C    -43.556300   56.293100  110.238000
  C    -42.983500   57.104400  109.332000
  C    -41.528100   57.083900  109.523000
  C    -41.128900   56.238700  110.546000
  H    -40.785400   57.608400  108.935000
  C    -43.719000   57.764000  108.131000
  H    -44.781800   57.630200  108.279000
  H    -43.528200   57.027800  107.317000
  C    -43.359500   59.165500  107.611000
  H    -42.287800   59.072300  107.514000
  H    -43.800300   59.175700  106.603000
  C    -43.620100   60.374300  108.486000
  H    -44.703600   60.575000  108.510000
  H    -43.235600   60.237600  109.517000
  H    -43.122200   61.179400  108.029000
  S    -38.634100   57.464300  110.641000
  C    -37.222000   56.777500  111.382000
  C    -37.513400   55.434700  111.579000
  C    -38.866900   55.031700  111.269000
  C    -39.654200   56.082300  110.891000
  H    -36.847000   54.751000  112.124000
  C    -39.347900   53.630200  111.590000
  H    -40.430000   53.655500  111.603000
  H    -38.980600   53.409600  112.647000
  C    -39.026300   52.522800  110.575000
  H    -37.998200   52.326200  110.581000
  H    -39.316100   52.773400  109.582000
  C    -39.532100   51.145100  111.115000
  H    -39.542000   51.287000  112.151000
  H    -38.964800   50.337500  110.653000
  H    -40.526800   51.005500  110.679000
  H    -44.562200   56.025800  110.160000
  H    -36.468400   57.395100  111.827000

 Total Charge           Charge          ....    0
 Multiplicity           Mult            ....    1
 Number of Electrons    NEL             ....  134
 Basis Dimension        Dim             ....  322

ORBITAL ENERGIES
----------------

  NO   OCC          E(Eh)            E(eV)
   0   2.0000     -88.969979     -2420.9962
   1   2.0000     -88.958738     -2420.6903
   2   2.0000     -10.331666      -281.1389
   3   2.0000     -10.329931      -281.0917
   4   2.0000     -10.318540      -280.7817
   5   2.0000     -10.305508      -280.4271
   6   2.0000     -10.304706      -280.4053
   7   2.0000     -10.300633      -280.2945
   8   2.0000     -10.298381      -280.2332
   9   2.0000     -10.297336      -280.2048
  10   2.0000     -10.294611      -280.1306
  11   2.0000     -10.293663      -280.1048
  12   2.0000     -10.288357      -279.9604
  13   2.0000     -10.276440      -279.6361
  14   2.0000     -10.275990      -279.6239
  15   2.0000     -10.273078      -279.5447
  16   2.0000      -8.085476      -220.0170
  17   2.0000      -8.074317      -219.7133
  18   2.0000      -6.044041      -164.4667
  19   2.0000      -6.039939      -164.3551
  20   2.0000      -6.036075      -164.2499
  21   2.0000      -6.032872      -164.1628
  22   2.0000      -6.028621      -164.0471
  23   2.0000      -6.025042      -163.9497
  24   2.0000      -1.011805       -27.5326
  25   2.0000      -0.990708       -26.9585
  26   2.0000      -0.911709       -24.8089
  27   2.0000      -0.909200       -24.7406
  28   2.0000      -0.870457       -23.6863
  29   2.0000      -0.852141       -23.1879
  30   2.0000      -0.847713       -23.0674
  31   2.0000      -0.811575       -22.0841
  32   2.0000      -0.789311       -21.4782
  33   2.0000      -0.772879       -21.0311
  34   2.0000      -0.704508       -19.1706
  35   2.0000      -0.700126       -19.0514
  36   2.0000      -0.687522       -18.7084
  37   2.0000      -0.668811       -18.1993
  38   2.0000      -0.635672       -17.2975
  39   2.0000      -0.616189       -16.7674
  40   2.0000      -0.599863       -16.3231
  41   2.0000      -0.571717       -15.5572
  42   2.0000      -0.570644       -15.5280
  43   2.0000      -0.548921       -14.9369
  44   2.0000      -0.545820       -14.8525
  45   2.0000      -0.532909       -14.5012
  46   2.0000      -0.519729       -14.1425
  47   2.0000      -0.514190       -13.9918
  48   2.0000      -0.508364       -13.8333
  49   2.0000      -0.495238       -13.4761
  50   2.0000      -0.488052       -13.2806
  51   2.0000      -0.482508       -13.1297
  52   2.0000      -0.469510       -12.7760
  53   2.0000      -0.467888       -12.7319
  54   2.0000      -0.460889       -12.5414
  55   2.0000      -0.452895       -12.3239
  56   2.0000      -0.445702       -12.1282
  57   2.0000      -0.440998       -12.0002
  58   2.0000      -0.438957       -11.9446
  59   2.0000      -0.423844       -11.5334
  60   2.0000      -0.415028       -11.2935
  61   2.0000      -0.408206       -11.1079
  62   2.0000      -0.403054       -10.9677
  63   2.0000      -0.354784        -9.6542
  64   2.0000      -0.331855        -9.0302
  65   2.0000      -0.324811        -8.8386
  66   2.0000      -0.294461        -8.0127
  67   0.0000       0.031022         0.8441
  68   0.0000       0.076558         2.0833
  69   0.0000       0.111922         3.0455
  70   0.0000       0.121921         3.3176
  71   0.0000       0.131215         3.5705

MULLIKEN ATOMIC CHARGES
-----------------------
   0 S :    0.116661
   1 C :   -0.119271
   2 C :   -0.050732
   3 C :   -0.040228
   4 C :   -0.099587
   5 H :    0.019644
   6 C :    0.034775
   7 H :    0.007802
   8 H :    0.046448
   9 C :   -0.074808
  10 H :    0.022135
  11 H :    0.035784
  12 C :   -0.016652
  13 H :    0.032670
  14 H :    0.048433
  15 H :    0.028978
  16 S :    0.068038
  17 C :   -0.085185
  18 C :   -0.026876
  19 C :   -0.060976
  20 C :   -0.126490
  21 H :    0.025266
  22 C :    0.013588
  23 H :    0.008026
  24 H :    0.043316
  25 C :   -0.048945
  26 H :    0.010146
  27 H :    0.028925
  28 C :   -0.027462
  29 H :    0.028253
  30 H :    0.036205
  31 H :    0.030239
  32 H :    0.020682
  33 H :    0.071198
Sum of atomic charges:   -0.0000000

LOEWDIN ATOMIC CHARGES
----------------------
   0 S :    0.433219
   1 C :   -0.190263
   2 C :   -0.053221
   3 C :   -0.080192
   4 C :   -0.208271
   5 H :    0.021262
   6 C :   -0.034561
   7 H :    0.021885
   8 H :    0.042931
   9 C :   -0.044590
  10 H :    0.022872
  11 H :    0.031832
  12 C :   -0.059893
  13 H :    0.027254
  14 H :    0.035449
  15 H :    0.022603
  16 S :    0.410334
  17 C :   -0.188094
  18 C :   -0.067949
  19 C :   -0.072278
  20 C :   -0.187039
  21 H :    0.030333
  22 C :   -0.037306
  23 H :    0.015431
  24 H :    0.038020
  25 C :   -0.031376
  26 H :    0.013598
  27 H :    0.021244
  28 C :   -0.054671
  29 H :    0.018547
  30 H :    0.028119
  31 H :    0.026525
  32 H :    0.015704
  33 H :    0.032541

  Mayer bond orders larger than 0.100000
B(  0-S ,  1-C ) :   1.1126 B(  0-S ,  4-C ) :   1.1704 B(  1-C ,  2-C ) :   1.6631
B(  1-C , 32-H ) :   0.9669 B(  2-C ,  3-C ) :   1.2038 B(  2-C ,  6-C ) :   1.0092
B(  3-C ,  4-C ) :   1.5887 B(  3-C ,  5-H ) :   0.9879 B(  4-C , 20-C ) :   0.9963
B(  6-C ,  7-H ) :   0.9394 B(  6-C ,  8-H ) :   0.9384 B(  6-C ,  9-C ) :   1.0679
B(  9-C , 10-H ) :   0.9543 B(  9-C , 11-H ) :   0.9498 B(  9-C , 12-C ) :   1.0819
B( 12-C , 13-H ) :   0.9747 B( 12-C , 14-H ) :   0.9721 B( 12-C , 15-H ) :   0.9719
B( 16-S , 17-C ) :   1.1552 B( 16-S , 20-C ) :   1.1487 B( 17-C , 18-C ) :   1.5847
B( 17-C , 33-H ) :   0.9753 B( 18-C , 19-C ) :   1.2420 B( 18-C , 21-H ) :   0.9839
B( 19-C , 20-C ) :   1.6022 B( 19-C , 22-C ) :   1.0451 B( 22-C , 23-H ) :   0.9361
B( 22-C , 24-H ) :   0.9336 B( 22-C , 25-C ) :   1.0707 B( 25-C , 26-H ) :   0.9593
B( 25-C , 27-H ) :   0.9574 B( 25-C , 28-C ) :   1.0658 B( 28-C , 29-H ) :   0.9741
B( 28-C , 30-H ) :   0.9783 B( 28-C , 31-H ) :   0.9777

Dispersion correction           -0.013440960
FINAL SINGLE POINT ENERGY     -1339.861038079060

DIPOLE MOMENT
-------------
                                X             Y             Z
Electronic contribution:      6.01288       4.73028       8.76654
Nuclear contribution   :     -6.09761      -4.85940      -9.01261
                        -----------------------------------------
Total Dipole Moment    :     -0.08473      -0.12912      -0.24606
                        -----------------------------------------
Magnitude (a.u.)       :      0.29051
Magnitude (Debye)      :      0.73842

Rotational constants in cm-1:     0.020667     0.007900     0.006260
Rotational constants in MHz :   619.577785   236.831094   187.666556

                             ****ORCA TERMINATED NORMALLY****
TOTAL RUN TIME: 0 days 0 hours 0 minutes 29 seconds 116 msec
