                         Program Version 4.2.1 -  RELEASE  -
|  1> ! wB97X-D3 SP def2-SVP
|  2> %pal
|  3> nprocs 16
|  4> end
|  5>
|  6> * xyz 0 1
|  7> S 	 8.40992 	 21.9311 	 68.8912
|  8> C 	 7.55562 	 21.1649 	 67.4672
|  9> C 	 6.48991 	 21.965 	 67.0627
| 10> C 	 6.48828 	 23.2182 	 67.7506
| 11> C 	 7.41155 	 23.3966 	 68.79
| 12> H 	 5.72305 	 23.9982 	 67.5971
| 13> C 	 5.3171 	 21.5395 	 66.0754
| 14> H 	 4.56297 	 21.003 	 66.6812
| 15> H 	 5.6966 	 20.8217 	 65.3315
| 16> C 	 4.69736 	 22.6251 	 65.2259
| 17> H 	 3.78621 	 22.2154 	 64.843
| 18> H 	 4.49857 	 23.5685 	 65.7975
| 19> C 	 5.50271 	 23.1635 	 64.0192
| 20> H 	 4.92318 	 23.7903 	 63.5186
| 21> H 	 6.3702 	 23.6305 	 64.4189
| 22> H 	 5.79933 	 22.3576 	 63.3365
| 23> S 	 7.77086 	 23.8052 	 71.4412
| 24> C 	 7.74488 	 25.4344 	 72.0194
| 25> C 	 7.56658 	 26.3725 	 70.9982
| 26> C 	 7.46624 	 25.756 	 69.7061
| 27> C 	 7.41528 	 24.3807 	 69.8088
| 28> H 	 7.61171 	 27.4507 	 71.1906
| 29> C 	 7.49926 	 26.5206 	 68.3837
| 30> H 	 6.59108 	 26.3738 	 67.89
| 31> H 	 8.22237 	 26.0402 	 67.6643
| 32> C 	 7.74022 	 28.0226 	 68.374
| 33> H 	 7.89027 	 28.3446 	 67.3376
| 34> H 	 8.56478 	 28.2542 	 69.0177
| 35> C 	 6.49705 	 28.7443 	 68.9487
| 36> H 	 5.64545 	 28.7948 	 68.2943
| 37> H 	 6.78852 	 29.7536 	 69.2029
| 38> H 	 6.15207 	 28.3953 	 69.849
| 39> H 	 7.73854 	 20.0851 	 67.0648
| 40> H 	 8.06152 	 25.7316 	 72.9754
| 41> *
| 42>
| 43>                          ****END OF INPUT****

CARTESIAN COORDINATES (ANGSTROEM)
---------------------------------
  S      8.409920   21.931100   68.891200
  C      7.555620   21.164900   67.467200
  C      6.489910   21.965000   67.062700
  C      6.488280   23.218200   67.750600
  C      7.411550   23.396600   68.790000
  H      5.723050   23.998200   67.597100
  C      5.317100   21.539500   66.075400
  H      4.562970   21.003000   66.681200
  H      5.696600   20.821700   65.331500
  C      4.697360   22.625100   65.225900
  H      3.786210   22.215400   64.843000
  H      4.498570   23.568500   65.797500
  C      5.502710   23.163500   64.019200
  H      4.923180   23.790300   63.518600
  H      6.370200   23.630500   64.418900
  H      5.799330   22.357600   63.336500
  S      7.770860   23.805200   71.441200
  C      7.744880   25.434400   72.019400
  C      7.566580   26.372500   70.998200
  C      7.466240   25.756000   69.706100
  C      7.415280   24.380700   69.808800
  H      7.611710   27.450700   71.190600
  C      7.499260   26.520600   68.383700
  H      6.591080   26.373800   67.890000
  H      8.222370   26.040200   67.664300
  C      7.740220   28.022600   68.374000
  H      7.890270   28.344600   67.337600
  H      8.564780   28.254200   69.017700
  C      6.497050   28.744300   68.948700
  H      5.645450   28.794800   68.294300
  H      6.788520   29.753600   69.202900
  H      6.152070   28.395300   69.849000
  H      7.738540   20.085100   67.064800
  H      8.061520   25.731600   72.975400

 Total Charge           Charge          ....    0
 Multiplicity           Mult            ....    1
 Number of Electrons    NEL             ....  134
 Basis Dimension        Dim             ....  322

ORBITAL ENERGIES
----------------

  NO   OCC          E(Eh)            E(eV)
   0   2.0000     -88.969193     -2420.9748
   1   2.0000     -88.966845     -2420.9109
   2   2.0000     -10.331214      -281.1266
   3   2.0000     -10.328059      -281.0408
   4   2.0000     -10.323610      -280.9197
   5   2.0000     -10.315097      -280.6881
   6   2.0000     -10.309637      -280.5395
   7   2.0000     -10.306964      -280.4667
   8   2.0000     -10.302291      -280.3396
   9   2.0000     -10.298807      -280.2448
  10   2.0000     -10.297414      -280.2069
  11   2.0000     -10.289106      -279.9808
  12   2.0000     -10.288483      -279.9638
  13   2.0000     -10.287225      -279.9296
  14   2.0000     -10.267922      -279.4044
  15   2.0000     -10.265481      -279.3379
  16   2.0000      -8.083937      -219.9751
  17   2.0000      -8.079802      -219.8626
  18   2.0000      -6.042407      -164.4222
  19   2.0000      -6.038554      -164.3174
  20   2.0000      -6.038545      -164.3172
  21   2.0000      -6.034622      -164.2104
  22   2.0000      -6.034569      -164.2090
  23   2.0000      -6.030376      -164.0949
  24   2.0000      -1.006075       -27.3767
  25   2.0000      -0.974422       -26.5154
  26   2.0000      -0.914344       -24.8806
  27   2.0000      -0.909918       -24.7601
  28   2.0000      -0.872444       -23.7404
  29   2.0000      -0.852409       -23.1952
  30   2.0000      -0.836153       -22.7529
  31   2.0000      -0.810758       -22.0619
  32   2.0000      -0.791912       -21.5490
  33   2.0000      -0.779418       -21.2090
  34   2.0000      -0.712090       -19.3770
  35   2.0000      -0.702090       -19.1048
  36   2.0000      -0.689091       -18.7511
  37   2.0000      -0.658684       -17.9237
  38   2.0000      -0.634329       -17.2610
  39   2.0000      -0.616264       -16.7694
  40   2.0000      -0.606991       -16.5171
  41   2.0000      -0.565174       -15.3792
  42   2.0000      -0.559569       -15.2267
  43   2.0000      -0.550063       -14.9680
  44   2.0000      -0.540598       -14.7104
  45   2.0000      -0.536406       -14.5964
  46   2.0000      -0.519847       -14.1457
  47   2.0000      -0.509575       -13.8662
  48   2.0000      -0.502230       -13.6664
  49   2.0000      -0.498110       -13.5543
  50   2.0000      -0.491569       -13.3763
  51   2.0000      -0.485263       -13.2047
  52   2.0000      -0.477535       -12.9944
  53   2.0000      -0.463650       -12.6166
  54   2.0000      -0.461317       -12.5531
  55   2.0000      -0.449869       -12.2416
  56   2.0000      -0.445409       -12.1202
  57   2.0000      -0.439714       -11.9652
  58   2.0000      -0.435045       -11.8382
  59   2.0000      -0.427562       -11.6346
  60   2.0000      -0.418972       -11.4008
  61   2.0000      -0.415197       -11.2981
  62   2.0000      -0.410552       -11.1717
  63   2.0000      -0.349433        -9.5086
  64   2.0000      -0.333407        -9.0725
  65   2.0000      -0.331167        -9.0115
  66   2.0000      -0.283684        -7.7194
  67   0.0000       0.018422         0.5013
  68   0.0000       0.065730         1.7886
  69   0.0000       0.104996         2.8571
  70   0.0000       0.125574         3.4170
  71   0.0000       0.132077         3.5940

MULLIKEN ATOMIC CHARGES
-----------------------
   0 S :    0.086421
   1 C :   -0.172051
   2 C :   -0.072776
   3 C :   -0.004079
   4 C :   -0.138613
   5 H :    0.019670
   6 C :    0.067870
   7 H :    0.057939
   8 H :    0.022644
   9 C :   -0.115539
  10 H :    0.023798
  11 H :    0.033008
  12 C :    0.012170
  13 H :    0.006507
  14 H :    0.030183
  15 H :    0.022805
  16 S :    0.113481
  17 C :   -0.063818
  18 C :   -0.058769
  19 C :   -0.037170
  20 C :   -0.150535
  21 H :    0.028905
  22 C :    0.065798
  23 H :    0.008878
  24 H :    0.045358
  25 C :   -0.040774
  26 H :    0.038098
  27 H :    0.028117
  28 C :   -0.035444
  29 H :    0.026418
  30 H :    0.018675
  31 H :    0.008019
  32 H :    0.086287
  33 H :    0.038519
Sum of atomic charges:   -0.0000000

LOEWDIN ATOMIC CHARGES
----------------------
   0 S :    0.361899
   1 C :   -0.197700
   2 C :   -0.065789
   3 C :   -0.071350
   4 C :   -0.183757
   5 H :    0.029889
   6 C :   -0.028800
   7 H :    0.040378
   8 H :    0.032009
   9 C :   -0.043809
  10 H :    0.022284
  11 H :    0.025678
  12 C :   -0.044842
  13 H :    0.006772
  14 H :    0.024050
  15 H :    0.024787
  16 S :    0.414003
  17 C :   -0.184028
  18 C :   -0.073206
  19 C :   -0.045597
  20 C :   -0.197269
  21 H :    0.033678
  22 C :   -0.035500
  23 H :    0.021735
  24 H :    0.041167
  25 C :   -0.030633
  26 H :    0.033573
  27 H :    0.020873
  28 C :   -0.061193
  29 H :    0.023761
  30 H :    0.025907
  31 H :    0.010147
  32 H :    0.051881
  33 H :    0.019005

  Mayer bond orders larger than 0.100000
B(  0-S ,  1-C ) :   1.1174 B(  0-S ,  4-C ) :   1.1251 B(  1-C ,  2-C ) :   1.6258
B(  1-C , 32-H ) :   0.9545 B(  2-C ,  3-C ) :   1.2534 B(  2-C ,  6-C ) :   0.9963
B(  3-C ,  4-C ) :   1.5608 B(  3-C ,  5-H ) :   0.9808 B(  4-C , 20-C ) :   1.1110
B(  6-C ,  7-H ) :   0.9437 B(  6-C ,  8-H ) :   0.9433 B(  6-C ,  9-C ) :   1.0758
B(  9-C , 10-H ) :   0.9516 B(  9-C , 11-H ) :   0.9540 B(  9-C , 12-C ) :   1.0820
B( 12-C , 13-H ) :   0.9731 B( 12-C , 14-H ) :   0.9770 B( 12-C , 15-H ) :   0.9717
B( 16-S , 17-C ) :   1.1637 B( 16-S , 20-C ) :   1.1246 B( 17-C , 18-C ) :   1.5997
B( 17-C , 33-H ) :   0.9684 B( 18-C , 19-C ) :   1.2565 B( 18-C , 21-H ) :   0.9777
B( 19-C , 20-C ) :   1.5884 B( 19-C , 22-C ) :   1.0288 B( 22-C , 23-H ) :   0.9224
B( 22-C , 24-H ) :   0.9258 B( 22-C , 25-C ) :   1.0891 B( 25-C , 26-H ) :   0.9500
B( 25-C , 27-H ) :   0.9564 B( 25-C , 28-C ) :   1.0747 B( 28-C , 29-H ) :   0.9720
B( 28-C , 30-H ) :   0.9719 B( 28-C , 31-H ) :   0.9764

Dispersion correction           -0.013994037
FINAL SINGLE POINT ENERGY     -1339.857862127105

DIPOLE MOMENT
-------------
                                X             Y             Z
Electronic contribution:     12.19317     -15.67997      21.59093
Nuclear contribution   :    -12.55662      16.05237     -22.01851
                        -----------------------------------------
Total Dipole Moment    :     -0.36345       0.37241      -0.42758
                        -----------------------------------------
Magnitude (a.u.)       :      0.67350
Magnitude (Debye)      :      1.71190

Rotational constants in cm-1:     0.017429     0.009144     0.006498
Rotational constants in MHz :   522.502047   274.142218   194.797717

                             ****ORCA TERMINATED NORMALLY****
TOTAL RUN TIME: 0 days 0 hours 0 minutes 32 seconds 603 msec
