                         Program Version 4.2.1 -  RELEASE  -
|  1> ! wB97X-D3 SP def2-SVP
|  2> %pal
|  3> nprocs 16
|  4> end
|  5>
|  6> * xyz 0 1
|  7> S 	 1.05159 	 -14.1568 	 77.1828
|  8> C 	 2.61494 	 -13.7205 	 76.3759
|  9> C 	 2.92704 	 -12.4051 	 76.6311
| 10> C 	 1.88885 	 -11.675 	 77.3633
| 11> C 	 0.845369 	 -12.482 	 77.8153
| 12> H 	 1.87861 	 -10.593 	 77.5423
| 13> C 	 4.26833 	 -11.7527 	 76.2592
| 14> H 	 4.73248 	 -11.3499 	 77.0594
| 15> H 	 4.05347 	 -11.013 	 75.5407
| 16> C 	 5.2634 	 -12.601 	 75.5257
| 17> H 	 5.52454 	 -13.4596 	 76.2211
| 18> H 	 4.81416 	 -13.0769 	 74.7114
| 19> C 	 6.52787 	 -11.8738 	 75.082
| 20> H 	 6.34041 	 -11.4682 	 74.1257
| 21> H 	 6.76109 	 -11.0243 	 75.7282
| 22> H 	 7.4011 	 -12.5357 	 74.8359
| 23> S 	 -2.0054 	 -12.563 	 77.7301
| 24> C 	 -2.88241 	 -11.6183 	 78.9653
| 25> C 	 -2.05297 	 -10.7416 	 79.5655
| 26> C 	 -0.703008 	 -10.9662 	 79.1891
| 27> C 	 -0.415446 	 -12.0353 	 78.3239
| 28> H 	 -2.40857 	 -10.049 	 80.3148
| 29> C 	 0.316487 	 -10.0255 	 79.7873
| 30> H 	 -0.153839 	 -9.20021 	 80.2806
| 31> H 	 0.865101 	 -9.49181 	 79.0499
| 32> C 	 1.2636 	 -10.5946 	 80.8679
| 33> H 	 1.63926 	 -11.5685 	 80.4953
| 34> H 	 0.64766 	 -10.913 	 81.7216
| 35> C 	 2.39968 	 -9.64987 	 81.3954
| 36> H 	 2.06099 	 -8.66669 	 81.755
| 37> H 	 3.13039 	 -9.37074 	 80.6006
| 38> H 	 3.03488 	 -10.1538 	 82.1746
| 39> H 	 3.3877 	 -14.416 	 75.9546
| 40> H 	 -3.93669 	 -11.6685 	 79.0947
| 41> *
| 42>
| 43>                          ****END OF INPUT****

CARTESIAN COORDINATES (ANGSTROEM)
---------------------------------
  S      1.051590  -14.156800   77.182800
  C      2.614940  -13.720500   76.375900
  C      2.927040  -12.405100   76.631100
  C      1.888850  -11.675000   77.363300
  C      0.845369  -12.482000   77.815300
  H      1.878610  -10.593000   77.542300
  C      4.268330  -11.752700   76.259200
  H      4.732480  -11.349900   77.059400
  H      4.053470  -11.013000   75.540700
  C      5.263400  -12.601000   75.525700
  H      5.524540  -13.459600   76.221100
  H      4.814160  -13.076900   74.711400
  C      6.527870  -11.873800   75.082000
  H      6.340410  -11.468200   74.125700
  H      6.761090  -11.024300   75.728200
  H      7.401100  -12.535700   74.835900
  S     -2.005400  -12.563000   77.730100
  C     -2.882410  -11.618300   78.965300
  C     -2.052970  -10.741600   79.565500
  C     -0.703008  -10.966200   79.189100
  C     -0.415446  -12.035300   78.323900
  H     -2.408570  -10.049000   80.314800
  C      0.316487  -10.025500   79.787300
  H     -0.153839   -9.200210   80.280600
  H      0.865101   -9.491810   79.049900
  C      1.263600  -10.594600   80.867900
  H      1.639260  -11.568500   80.495300
  H      0.647660  -10.913000   81.721600
  C      2.399680   -9.649870   81.395400
  H      2.060990   -8.666690   81.755000
  H      3.130390   -9.370740   80.600600
  H      3.034880  -10.153800   82.174600
  H      3.387700  -14.416000   75.954600
  H     -3.936690  -11.668500   79.094700

 Total Charge           Charge          ....    0
 Multiplicity           Mult            ....    1
 Number of Electrons    NEL             ....  134
 Basis Dimension        Dim             ....  322

ORBITAL ENERGIES
----------------

  NO   OCC          E(Eh)            E(eV)
   0   2.0000     -88.967942     -2420.9408
   1   2.0000     -88.964546     -2420.8484
   2   2.0000     -10.339362      -281.3484
   3   2.0000     -10.332237      -281.1545
   4   2.0000     -10.324747      -280.9507
   5   2.0000     -10.317184      -280.7449
   6   2.0000     -10.309870      -280.5458
   7   2.0000     -10.305183      -280.4183
   8   2.0000     -10.303553      -280.3739
   9   2.0000     -10.292303      -280.0678
  10   2.0000     -10.288488      -279.9640
  11   2.0000     -10.288237      -279.9572
  12   2.0000     -10.284989      -279.8688
  13   2.0000     -10.283581      -279.8305
  14   2.0000     -10.282878      -279.8113
  15   2.0000     -10.281917      -279.7852
  16   2.0000      -8.080807      -219.8899
  17   2.0000      -8.078369      -219.8236
  18   2.0000      -6.039676      -164.3479
  19   2.0000      -6.037110      -164.2781
  20   2.0000      -6.035630      -164.2378
  21   2.0000      -6.033055      -164.1678
  22   2.0000      -6.031212      -164.1176
  23   2.0000      -6.028847      -164.0533
  24   2.0000      -1.002395       -27.2766
  25   2.0000      -0.977600       -26.6019
  26   2.0000      -0.922254       -25.0958
  27   2.0000      -0.901815       -24.5396
  28   2.0000      -0.875608       -23.8265
  29   2.0000      -0.845243       -23.0002
  30   2.0000      -0.841048       -22.8861
  31   2.0000      -0.816805       -22.2264
  32   2.0000      -0.786748       -21.4085
  33   2.0000      -0.771779       -21.0012
  34   2.0000      -0.719163       -19.5694
  35   2.0000      -0.705446       -19.1962
  36   2.0000      -0.691926       -18.8283
  37   2.0000      -0.664797       -18.0901
  38   2.0000      -0.632935       -17.2230
  39   2.0000      -0.616421       -16.7737
  40   2.0000      -0.599613       -16.3163
  41   2.0000      -0.585005       -15.9188
  42   2.0000      -0.574610       -15.6359
  43   2.0000      -0.552845       -15.0437
  44   2.0000      -0.531076       -14.4513
  45   2.0000      -0.520533       -14.1644
  46   2.0000      -0.519303       -14.1309
  47   2.0000      -0.509878       -13.8745
  48   2.0000      -0.502736       -13.6801
  49   2.0000      -0.500520       -13.6198
  50   2.0000      -0.492613       -13.4047
  51   2.0000      -0.486496       -13.2382
  52   2.0000      -0.481914       -13.1135
  53   2.0000      -0.462569       -12.5872
  54   2.0000      -0.456043       -12.4096
  55   2.0000      -0.450223       -12.2512
  56   2.0000      -0.444971       -12.1083
  57   2.0000      -0.440957       -11.9991
  58   2.0000      -0.430021       -11.7015
  59   2.0000      -0.424581       -11.5534
  60   2.0000      -0.417345       -11.3565
  61   2.0000      -0.410542       -11.1714
  62   2.0000      -0.405766       -11.0414
  63   2.0000      -0.359639        -9.7863
  64   2.0000      -0.330101        -8.9825
  65   2.0000      -0.329313        -8.9611
  66   2.0000      -0.289023        -7.8647
  67   0.0000       0.014201         0.3864
  68   0.0000       0.075741         2.0610
  69   0.0000       0.101148         2.7524
  70   0.0000       0.113672         3.0932
  71   0.0000       0.133081         3.6213

MULLIKEN ATOMIC CHARGES
-----------------------
   0 S :    0.087793
   1 C :   -0.130400
   2 C :   -0.113148
   3 C :    0.015100
   4 C :   -0.146205
   5 H :    0.022575
   6 C :    0.142556
   7 H :    0.013367
   8 H :    0.019184
   9 C :   -0.136417
  10 H :    0.030405
  11 H :    0.018839
  12 C :   -0.018269
  13 H :    0.014592
  14 H :    0.034251
  15 H :    0.042760
  16 S :    0.089895
  17 C :   -0.085228
  18 C :   -0.001978
  19 C :   -0.060057
  20 C :   -0.089306
  21 H :    0.025117
  22 C :    0.066582
  23 H :   -0.004651
  24 H :    0.010116
  25 C :   -0.071292
  26 H :    0.036740
  27 H :    0.025319
  28 C :   -0.070388
  29 H :    0.032799
  30 H :    0.026926
  31 H :    0.048082
  32 H :    0.075259
  33 H :    0.049084
Sum of atomic charges:    0.0000000

LOEWDIN ATOMIC CHARGES
----------------------
   0 S :    0.358672
   1 C :   -0.189005
   2 C :   -0.055402
   3 C :   -0.052042
   4 C :   -0.173129
   5 H :    0.034732
   6 C :   -0.018798
   7 H :    0.017404
   8 H :    0.030903
   9 C :   -0.044968
  10 H :    0.023393
  11 H :    0.013462
  12 C :   -0.063807
  13 H :    0.020630
  14 H :    0.027320
  15 H :    0.037830
  16 S :    0.378862
  17 C :   -0.158850
  18 C :   -0.069641
  19 C :   -0.053780
  20 C :   -0.192191
  21 H :    0.036965
  22 C :   -0.036755
  23 H :    0.024528
  24 H :    0.018527
  25 C :   -0.042109
  26 H :    0.025563
  27 H :    0.024753
  28 C :   -0.075837
  29 H :    0.023724
  30 H :    0.025001
  31 H :    0.035163
  32 H :    0.044022
  33 H :    0.024860

  Mayer bond orders larger than 0.100000
B(  0-S ,  1-C ) :   1.0982 B(  0-S ,  4-C ) :   1.1165 B(  1-C ,  2-C ) :   1.6766
B(  1-C , 32-H ) :   0.9434 B(  2-C ,  3-C ) :   1.2135 B(  2-C ,  6-C ) :   1.0010
B(  3-C ,  4-C ) :   1.5799 B(  3-C ,  5-H ) :   0.9842 B(  4-C , 20-C ) :   1.1032
B(  6-C ,  7-H ) :   0.9366 B(  6-C ,  8-H ) :   0.9294 B(  6-C ,  9-C ) :   1.0898
B(  9-C , 10-H ) :   0.9516 B(  9-C , 11-H ) :   0.9509 B(  9-C , 12-C ) :   1.0792
B( 12-C , 13-H ) :   0.9704 B( 12-C , 14-H ) :   0.9762 B( 12-C , 15-H ) :   0.9704
B( 16-S , 17-C ) :   1.1489 B( 16-S , 20-C ) :   1.1088 B( 17-C , 18-C ) :   1.5982
B( 17-C , 33-H ) :   0.9705 B( 18-C , 19-C ) :   1.2600 B( 18-C , 21-H ) :   0.9934
B( 19-C , 20-C ) :   1.5692 B( 19-C , 22-C ) :   1.0485 B( 22-C , 23-H ) :   0.9278
B( 22-C , 24-H ) :   0.9333 B( 22-C , 25-C ) :   1.0513 B( 25-C , 26-H ) :   0.9595
B( 25-C , 27-H ) :   0.9540 B( 25-C , 28-C ) :   1.0684 B( 28-C , 29-H ) :   0.9762
B( 28-C , 30-H ) :   0.9750 B( 28-C , 31-H ) :   0.9751

Dispersion correction           -0.013803429
FINAL SINGLE POINT ENERGY     -1339.859268796792

DIPOLE MOMENT
-------------
                                X             Y             Z
Electronic contribution:    -26.95117     -14.44693      -4.17285
Nuclear contribution   :     27.43698      15.12033       4.23891
                        -----------------------------------------
Total Dipole Moment    :      0.48581       0.67339       0.06606
                        -----------------------------------------
Magnitude (a.u.)       :      0.83297
Magnitude (Debye)      :      2.11724

Rotational constants in cm-1:     0.019635     0.007947     0.006104
Rotational constants in MHz :   588.652172   238.244072   183.001113

                             ****ORCA TERMINATED NORMALLY****
TOTAL RUN TIME: 0 days 0 hours 0 minutes 34 seconds 488 msec
