                         Program Version 4.2.1 -  RELEASE  -
|  1> ! wB97X-D3 SP def2-SVP
|  2> %pal
|  3> nprocs 16
|  4> end
|  5>
|  6> * xyz 0 1
|  7> S 	 6.93302 	 20.2941 	 53.6512
|  8> C 	 5.69697 	 19.8589 	 54.8979
|  9> C 	 4.77899 	 18.9146 	 54.4762
| 10> C 	 5.01693 	 18.5184 	 53.0709
| 11> C 	 6.04721 	 19.1888 	 52.5123
| 12> H 	 4.32689 	 17.8445 	 52.5469
| 13> C 	 3.66304 	 18.3319 	 55.3388
| 14> H 	 2.85302 	 17.9452 	 54.7105
| 15> H 	 3.25043 	 19.1743 	 55.9769
| 16> C 	 4.26817 	 17.197 	 56.1835
| 17> H 	 4.36108 	 16.3407 	 55.516
| 18> H 	 5.33328 	 17.332 	 56.4721
| 19> C 	 3.41364 	 16.8391 	 57.4544
| 20> H 	 3.78683 	 16.0302 	 58.0858
| 21> H 	 3.37271 	 17.6483 	 58.1415
| 22> H 	 2.41666 	 16.5248 	 57.2033
| 23> S 	 8.16158 	 18.5425 	 50.8992
| 24> C 	 7.93521 	 18.5041 	 49.0971
| 25> C 	 6.66492 	 18.9536 	 48.7504
| 26> C 	 5.86668 	 19.2582 	 49.9036
| 27> C 	 6.50889 	 18.9938 	 51.1261
| 28> H 	 6.30829 	 19.0074 	 47.751
| 29> C 	 4.38558 	 19.7477 	 49.6788
| 30> H 	 4.06262 	 19.9968 	 50.6751
| 31> H 	 3.74925 	 18.907 	 49.286
| 32> C 	 4.13145 	 20.7751 	 48.6554
| 33> H 	 3.09517 	 21.0674 	 48.5515
| 34> H 	 4.54855 	 20.4325 	 47.7023
| 35> C 	 4.83231 	 22.0687 	 48.9625
| 36> H 	 4.36441 	 22.514 	 49.8575
| 37> H 	 4.70852 	 22.7618 	 48.1532
| 38> H 	 5.89906 	 21.8683 	 49.2006
| 39> H 	 5.60922 	 20.4117 	 55.8375
| 40> H 	 8.57735 	 18.1554 	 48.3035
| 41> *
| 42>
| 43>                          ****END OF INPUT****

CARTESIAN COORDINATES (ANGSTROEM)
---------------------------------
  S      6.933020   20.294100   53.651200
  C      5.696970   19.858900   54.897900
  C      4.778990   18.914600   54.476200
  C      5.016930   18.518400   53.070900
  C      6.047210   19.188800   52.512300
  H      4.326890   17.844500   52.546900
  C      3.663040   18.331900   55.338800
  H      2.853020   17.945200   54.710500
  H      3.250430   19.174300   55.976900
  C      4.268170   17.197000   56.183500
  H      4.361080   16.340700   55.516000
  H      5.333280   17.332000   56.472100
  C      3.413640   16.839100   57.454400
  H      3.786830   16.030200   58.085800
  H      3.372710   17.648300   58.141500
  H      2.416660   16.524800   57.203300
  S      8.161580   18.542500   50.899200
  C      7.935210   18.504100   49.097100
  C      6.664920   18.953600   48.750400
  C      5.866680   19.258200   49.903600
  C      6.508890   18.993800   51.126100
  H      6.308290   19.007400   47.751000
  C      4.385580   19.747700   49.678800
  H      4.062620   19.996800   50.675100
  H      3.749250   18.907000   49.286000
  C      4.131450   20.775100   48.655400
  H      3.095170   21.067400   48.551500
  H      4.548550   20.432500   47.702300
  C      4.832310   22.068700   48.962500
  H      4.364410   22.514000   49.857500
  H      4.708520   22.761800   48.153200
  H      5.899060   21.868300   49.200600
  H      5.609220   20.411700   55.837500
  H      8.577350   18.155400   48.303500

 Total Charge           Charge          ....    0
 Multiplicity           Mult            ....    1
 Number of Electrons    NEL             ....  134
 Basis Dimension        Dim             ....  322

ORBITAL ENERGIES
----------------

  NO   OCC          E(Eh)            E(eV)
   0   2.0000     -88.969644     -2420.9871
   1   2.0000     -88.968537     -2420.9570
   2   2.0000     -10.334967      -281.2287
   3   2.0000     -10.329283      -281.0741
   4   2.0000     -10.322842      -280.8988
   5   2.0000     -10.319732      -280.8142
   6   2.0000     -10.307948      -280.4935
   7   2.0000     -10.307703      -280.4868
   8   2.0000     -10.303015      -280.3593
   9   2.0000     -10.300816      -280.2994
  10   2.0000     -10.294397      -280.1248
  11   2.0000     -10.292094      -280.0621
  12   2.0000     -10.290514      -280.0191
  13   2.0000     -10.278232      -279.6849
  14   2.0000     -10.276676      -279.6426
  15   2.0000     -10.266707      -279.3713
  16   2.0000      -8.083439      -219.9616
  17   2.0000      -8.081471      -219.9080
  18   2.0000      -6.042113      -164.4143
  19   2.0000      -6.040295      -164.3648
  20   2.0000      -6.038109      -164.3053
  21   2.0000      -6.036499      -164.2615
  22   2.0000      -6.034025      -164.1942
  23   2.0000      -6.031730      -164.1317
  24   2.0000      -0.998195       -27.1623
  25   2.0000      -0.973146       -26.4806
  26   2.0000      -0.916291       -24.9335
  27   2.0000      -0.906670       -24.6717
  28   2.0000      -0.865451       -23.5501
  29   2.0000      -0.845773       -23.0146
  30   2.0000      -0.839976       -22.8569
  31   2.0000      -0.815043       -22.1784
  32   2.0000      -0.780557       -21.2400
  33   2.0000      -0.770149       -20.9568
  34   2.0000      -0.704332       -19.1658
  35   2.0000      -0.701254       -19.0821
  36   2.0000      -0.688563       -18.7367
  37   2.0000      -0.658898       -17.9295
  38   2.0000      -0.638619       -17.3777
  39   2.0000      -0.618138       -16.8204
  40   2.0000      -0.591831       -16.1045
  41   2.0000      -0.568981       -15.4828
  42   2.0000      -0.556067       -15.1314
  43   2.0000      -0.549789       -14.9605
  44   2.0000      -0.548147       -14.9158
  45   2.0000      -0.520040       -14.1510
  46   2.0000      -0.518665       -14.1136
  47   2.0000      -0.512865       -13.9558
  48   2.0000      -0.505411       -13.7529
  49   2.0000      -0.497192       -13.5293
  50   2.0000      -0.493989       -13.4421
  51   2.0000      -0.473206       -12.8766
  52   2.0000      -0.464858       -12.6494
  53   2.0000      -0.454304       -12.3622
  54   2.0000      -0.452213       -12.3054
  55   2.0000      -0.450254       -12.2520
  56   2.0000      -0.445499       -12.1226
  57   2.0000      -0.439277       -11.9533
  58   2.0000      -0.431199       -11.7335
  59   2.0000      -0.425176       -11.5696
  60   2.0000      -0.419002       -11.4016
  61   2.0000      -0.417281       -11.3548
  62   2.0000      -0.408625       -11.1192
  63   2.0000      -0.347767        -9.4632
  64   2.0000      -0.331759        -9.0276
  65   2.0000      -0.327701        -8.9172
  66   2.0000      -0.294900        -8.0246
  67   0.0000       0.034171         0.9298
  68   0.0000       0.057625         1.5680
  69   0.0000       0.096894         2.6366
  70   0.0000       0.114660         3.1201
  71   0.0000       0.122644         3.3373

MULLIKEN ATOMIC CHARGES
-----------------------
   0 S :    0.095613
   1 C :   -0.132110
   2 C :   -0.107232
   3 C :    0.036395
   4 C :   -0.135755
   5 H :    0.029537
   6 C :    0.055440
   7 H :    0.032638
   8 H :    0.042315
   9 C :   -0.083935
  10 H :    0.023365
  11 H :    0.044336
  12 C :   -0.027879
  13 H :    0.028427
  14 H :    0.023046
  15 H :    0.023644
  16 S :    0.110205
  17 C :   -0.085105
  18 C :   -0.029017
  19 C :   -0.060184
  20 C :   -0.171288
  21 H :    0.014574
  22 C :    0.092091
  23 H :    0.015721
  24 H :    0.041244
  25 C :   -0.070458
  26 H :    0.031979
  27 H :    0.018301
  28 C :   -0.063175
  29 H :    0.024127
  30 H :    0.027933
  31 H :    0.045873
  32 H :    0.055927
  33 H :    0.053406
Sum of atomic charges:    0.0000000

LOEWDIN ATOMIC CHARGES
----------------------
   0 S :    0.345873
   1 C :   -0.180189
   2 C :   -0.054684
   3 C :   -0.057326
   4 C :   -0.170011
   5 H :    0.038544
   6 C :   -0.032300
   7 H :    0.031543
   8 H :    0.037103
   9 C :   -0.041928
  10 H :    0.024461
  11 H :    0.030110
  12 C :   -0.066627
  13 H :    0.028221
  14 H :    0.019192
  15 H :    0.021350
  16 S :    0.397223
  17 C :   -0.170078
  18 C :   -0.064337
  19 C :   -0.056404
  20 C :   -0.207610
  21 H :    0.026967
  22 C :   -0.031570
  23 H :    0.023504
  24 H :    0.039329
  25 C :   -0.048574
  26 H :    0.029141
  27 H :    0.020498
  28 C :   -0.065386
  29 H :    0.024549
  30 H :    0.019446
  31 H :    0.028985
  32 H :    0.029609
  33 H :    0.031379

  Mayer bond orders larger than 0.100000
B(  0-S ,  1-C ) :   1.1010 B(  0-S ,  4-C ) :   1.1099 B(  1-C ,  2-C ) :   1.6800
B(  1-C , 32-H ) :   0.9624 B(  2-C ,  3-C ) :   1.1808 B(  2-C ,  6-C ) :   1.0242
B(  3-C ,  4-C ) :   1.6474 B(  3-C ,  5-H ) :   0.9879 B(  4-C , 20-C ) :   1.0197
B(  6-C ,  7-H ) :   0.9406 B(  6-C ,  8-H ) :   0.9494 B(  6-C ,  9-C ) :   1.0378
B(  9-C , 10-H ) :   0.9541 B(  9-C , 11-H ) :   0.9666 B(  9-C , 12-C ) :   1.0694
B( 12-C , 13-H ) :   0.9753 B( 12-C , 14-H ) :   0.9786 B( 12-C , 15-H ) :   0.9751
B( 16-S , 17-C ) :   1.1328 B( 16-S , 20-C ) :   1.1425 B( 17-C , 18-C ) :   1.6296
B( 17-C , 33-H ) :   0.9656 B( 18-C , 19-C ) :   1.2325 B( 18-C , 21-H ) :   0.9886
B( 19-C , 20-C ) :   1.6041 B( 19-C , 22-C ) :   1.0225 B( 22-C , 23-H ) :   0.9337
B( 22-C , 24-H ) :   0.9378 B( 22-C , 25-C ) :   1.0840 B( 25-C , 26-H ) :   0.9505
B( 25-C , 27-H ) :   0.9463 B( 25-C , 28-C ) :   1.0869 B( 28-C , 29-H ) :   0.9738
B( 28-C , 30-H ) :   0.9742 B( 28-C , 31-H ) :   0.9729

Dispersion correction           -0.014042546
FINAL SINGLE POINT ENERGY     -1339.873053154345

DIPOLE MOMENT
-------------
                                X             Y             Z
Electronic contribution:     21.16940       0.86382      -4.10064
Nuclear contribution   :    -21.87708      -1.04689       4.03510
                        -----------------------------------------
Total Dipole Moment    :     -0.70769      -0.18306      -0.06554
                        -----------------------------------------
Magnitude (a.u.)       :      0.73391
Magnitude (Debye)      :      1.86546

Rotational constants in cm-1:     0.022017     0.007104     0.006417
Rotational constants in MHz :   660.051507   212.985200   192.381662

                             ****ORCA TERMINATED NORMALLY****
TOTAL RUN TIME: 0 days 0 hours 0 minutes 35 seconds 102 msec
