                         Program Version 4.2.1 -  RELEASE  -
|  1> ! wB97X-D3 SP def2-SVP
|  2> %pal
|  3> nprocs 16
|  4> end
|  5>
|  6> * xyz 0 1
|  7> S 	 -27.3418 	 51.9855 	 109.636
|  8> C 	 -25.9481 	 53.0651 	 109.653
|  9> C 	 -26.3122 	 54.384 	 109.416
| 10> C 	 -27.691 	 54.5535 	 109.26
| 11> C 	 -28.3634 	 53.3582 	 109.184
| 12> H 	 -28.1796 	 55.4658 	 109.027
| 13> C 	 -25.4048 	 55.5833 	 109.248
| 14> H 	 -25.6427 	 56.2438 	 108.418
| 15> H 	 -24.3631 	 55.3966 	 109.005
| 16> C 	 -25.5261 	 56.5859 	 110.486
| 17> H 	 -25.9531 	 57.601 	 110.207
| 18> H 	 -26.1414 	 56.2399 	 111.317
| 19> C 	 -24.1491 	 56.9041 	 111.033
| 20> H 	 -24.2142 	 57.5131 	 111.923
| 21> H 	 -23.6512 	 55.9924 	 111.195
| 22> H 	 -23.4575 	 57.3936 	 110.313
| 23> S 	 -30.6643 	 53.1995 	 110.573
| 24> C 	 -32.1576 	 52.7424 	 109.72
| 25> C 	 -31.937 	 52.8047 	 108.396
| 26> C 	 -30.5899 	 52.8256 	 107.995
| 27> C 	 -29.7954 	 53.1844 	 109.08
| 28> H 	 -32.7837 	 52.6693 	 107.669
| 29> C 	 -30.1714 	 52.7107 	 106.525
| 30> H 	 -30.8959 	 51.9355 	 106.125
| 31> H 	 -29.2098 	 52.2646 	 106.564
| 32> C 	 -30.1367 	 53.9498 	 105.697
| 33> H 	 -29.8149 	 53.714 	 104.717
| 34> H 	 -29.341 	 54.7203 	 105.952
| 35> C 	 -31.4791 	 54.6927 	 105.567
| 36> H 	 -32.3475 	 53.9416 	 105.49
| 37> H 	 -31.458 	 55.351 	 104.681
| 38> H 	 -31.7071 	 55.2649 	 106.409
| 39> H 	 -24.9271 	 52.7813 	 109.937
| 40> H 	 -33.1742 	 52.6126 	 110.1
| 41> *
| 42>
| 43>                          ****END OF INPUT****

CARTESIAN COORDINATES (ANGSTROEM)
---------------------------------
  S    -27.341800   51.985500  109.636000
  C    -25.948100   53.065100  109.653000
  C    -26.312200   54.384000  109.416000
  C    -27.691000   54.553500  109.260000
  C    -28.363400   53.358200  109.184000
  H    -28.179600   55.465800  109.027000
  C    -25.404800   55.583300  109.248000
  H    -25.642700   56.243800  108.418000
  H    -24.363100   55.396600  109.005000
  C    -25.526100   56.585900  110.486000
  H    -25.953100   57.601000  110.207000
  H    -26.141400   56.239900  111.317000
  C    -24.149100   56.904100  111.033000
  H    -24.214200   57.513100  111.923000
  H    -23.651200   55.992400  111.195000
  H    -23.457500   57.393600  110.313000
  S    -30.664300   53.199500  110.573000
  C    -32.157600   52.742400  109.720000
  C    -31.937000   52.804700  108.396000
  C    -30.589900   52.825600  107.995000
  C    -29.795400   53.184400  109.080000
  H    -32.783700   52.669300  107.669000
  C    -30.171400   52.710700  106.525000
  H    -30.895900   51.935500  106.125000
  H    -29.209800   52.264600  106.564000
  C    -30.136700   53.949800  105.697000
  H    -29.814900   53.714000  104.717000
  H    -29.341000   54.720300  105.952000
  C    -31.479100   54.692700  105.567000
  H    -32.347500   53.941600  105.490000
  H    -31.458000   55.351000  104.681000
  H    -31.707100   55.264900  106.409000
  H    -24.927100   52.781300  109.937000
  H    -33.174200   52.612600  110.100000

 Total Charge           Charge          ....    0
 Multiplicity           Mult            ....    1
 Number of Electrons    NEL             ....  134
 Basis Dimension        Dim             ....  322

ORBITAL ENERGIES
----------------

  NO   OCC          E(Eh)            E(eV)
   0   2.0000     -88.967914     -2420.9400
   1   2.0000     -88.964187     -2420.8386
   2   2.0000     -10.325760      -280.9782
   3   2.0000     -10.320146      -280.8255
   4   2.0000     -10.316378      -280.7229
   5   2.0000     -10.312766      -280.6246
   6   2.0000     -10.300471      -280.2901
   7   2.0000     -10.298113      -280.2259
   8   2.0000     -10.295137      -280.1449
   9   2.0000     -10.291876      -280.0562
  10   2.0000     -10.290476      -280.0181
  11   2.0000     -10.288665      -279.9688
  12   2.0000     -10.288163      -279.9551
  13   2.0000     -10.284924      -279.8670
  14   2.0000     -10.278330      -279.6876
  15   2.0000     -10.271420      -279.4995
  16   2.0000      -8.081969      -219.9215
  17   2.0000      -8.078887      -219.8377
  18   2.0000      -6.040456      -164.3692
  19   2.0000      -6.037480      -164.2882
  20   2.0000      -6.036659      -164.2658
  21   2.0000      -6.033446      -164.1784
  22   2.0000      -6.032708      -164.1583
  23   2.0000      -6.029492      -164.0708
  24   2.0000      -1.009290       -27.4642
  25   2.0000      -0.985513       -26.8172
  26   2.0000      -0.910505       -24.7761
  27   2.0000      -0.907193       -24.6860
  28   2.0000      -0.870751       -23.6943
  29   2.0000      -0.852332       -23.1931
  30   2.0000      -0.845211       -22.9994
  31   2.0000      -0.814264       -22.1573
  32   2.0000      -0.783555       -21.3216
  33   2.0000      -0.771067       -20.9818
  34   2.0000      -0.710085       -19.3224
  35   2.0000      -0.696451       -18.9514
  36   2.0000      -0.690438       -18.7878
  37   2.0000      -0.657622       -17.8948
  38   2.0000      -0.645036       -17.5523
  39   2.0000      -0.623062       -16.9544
  40   2.0000      -0.586181       -15.9508
  41   2.0000      -0.568427       -15.4677
  42   2.0000      -0.553904       -15.0725
  43   2.0000      -0.552941       -15.0463
  44   2.0000      -0.548187       -14.9169
  45   2.0000      -0.525552       -14.3010
  46   2.0000      -0.514216       -13.9925
  47   2.0000      -0.512078       -13.9344
  48   2.0000      -0.498636       -13.5686
  49   2.0000      -0.497607       -13.5406
  50   2.0000      -0.483583       -13.1590
  51   2.0000      -0.479092       -13.0368
  52   2.0000      -0.470653       -12.8071
  53   2.0000      -0.468837       -12.7577
  54   2.0000      -0.459883       -12.5140
  55   2.0000      -0.447401       -12.1744
  56   2.0000      -0.444401       -12.0928
  57   2.0000      -0.441609       -12.0168
  58   2.0000      -0.436350       -11.8737
  59   2.0000      -0.424556       -11.5528
  60   2.0000      -0.421940       -11.4816
  61   2.0000      -0.406991       -11.0748
  62   2.0000      -0.406759       -11.0685
  63   2.0000      -0.340161        -9.2563
  64   2.0000      -0.331107        -9.0099
  65   2.0000      -0.314967        -8.5707
  66   2.0000      -0.308856        -8.4044
  67   0.0000       0.046337         1.2609
  68   0.0000       0.049532         1.3478
  69   0.0000       0.113800         3.0966
  70   0.0000       0.120138         3.2691
  71   0.0000       0.123523         3.3612

MULLIKEN ATOMIC CHARGES
-----------------------
   0 S :    0.120087
   1 C :   -0.130269
   2 C :   -0.047213
   3 C :    0.050699
   4 C :   -0.165759
   5 H :    0.005628
   6 C :    0.056306
   7 H :    0.028892
   8 H :    0.020402
   9 C :   -0.101665
  10 H :    0.033958
  11 H :    0.046253
  12 C :   -0.056859
  13 H :    0.035151
  14 H :    0.017120
  15 H :    0.027225
  16 S :    0.120180
  17 C :   -0.091829
  18 C :   -0.051923
  19 C :   -0.052847
  20 C :   -0.187971
  21 H :    0.029386
  22 C :    0.095164
  23 H :    0.034513
  24 H :    0.019720
  25 C :   -0.037416
  26 H :    0.014796
  27 H :    0.032104
  28 C :   -0.070608
  29 H :    0.027554
  30 H :    0.038482
  31 H :    0.033801
  32 H :    0.050335
  33 H :    0.056605
Sum of atomic charges:   -0.0000000

LOEWDIN ATOMIC CHARGES
----------------------
   0 S :    0.397402
   1 C :   -0.197641
   2 C :   -0.063757
   3 C :   -0.048672
   4 C :   -0.190248
   5 H :    0.030562
   6 C :   -0.031613
   7 H :    0.035964
   8 H :    0.027599
   9 C :   -0.042160
  10 H :    0.026229
  11 H :    0.025758
  12 C :   -0.066399
  13 H :    0.024000
  14 H :    0.014447
  15 H :    0.024852
  16 S :    0.408098
  17 C :   -0.184644
  18 C :   -0.079856
  19 C :   -0.058095
  20 C :   -0.211832
  21 H :    0.035925
  22 C :   -0.028836
  23 H :    0.039761
  24 H :    0.029498
  25 C :   -0.044098
  26 H :    0.020006
  27 H :    0.033773
  28 C :   -0.065659
  29 H :    0.027650
  30 H :    0.029809
  31 H :    0.015620
  32 H :    0.031041
  33 H :    0.035518

  Mayer bond orders larger than 0.100000
B(  0-S ,  1-C ) :   1.1348 B(  0-S ,  4-C ) :   1.1455 B(  1-C ,  2-C ) :   1.6161
B(  1-C , 32-H ) :   0.9637 B(  2-C ,  3-C ) :   1.2310 B(  2-C ,  6-C ) :   1.0366
B(  3-C ,  4-C ) :   1.5935 B(  3-C ,  5-H ) :   1.0000 B(  4-C , 20-C ) :   1.0193
B(  6-C ,  7-H ) :   0.9430 B(  6-C ,  8-H ) :   0.9585 B(  6-C ,  9-C ) :   1.0113
B(  9-C , 10-H ) :   0.9608 B(  9-C , 11-H ) :   0.9668 B(  9-C , 12-C ) :   1.0854
B( 12-C , 13-H ) :   0.9739 B( 12-C , 14-H ) :   0.9763 B( 12-C , 15-H ) :   0.9747
B( 16-S , 17-C ) :   1.1315 B( 16-S , 20-C ) :   1.1608 B( 17-C , 18-C ) :   1.6477
B( 17-C , 33-H ) :   0.9622 B( 18-C , 19-C ) :   1.2415 B( 18-C , 21-H ) :   0.9696
B( 19-C , 20-C ) :   1.5912 B( 19-C , 22-C ) :   1.0391 B( 22-C , 23-H ) :   0.9311
B( 22-C , 24-H ) :   0.9176 B( 22-C , 25-C ) :   1.0968 B( 25-C , 26-H ) :   0.9499
B( 25-C , 27-H ) :   0.9474 B( 25-C , 28-C ) :   1.0717 B( 28-C , 29-H ) :   0.9733
B( 28-C , 30-H ) :   0.9739 B( 28-C , 31-H ) :   0.9754

Dispersion correction           -0.014460520
FINAL SINGLE POINT ENERGY     -1339.864283470699

DIPOLE MOMENT
-------------
                                X             Y             Z
Electronic contribution:     -7.63818     -17.79834      11.87391
Nuclear contribution   :      7.72561      18.20614     -12.27031
                        -----------------------------------------
Total Dipole Moment    :      0.08743       0.40780      -0.39640
                        -----------------------------------------
Magnitude (a.u.)       :      0.57539
Magnitude (Debye)      :      1.46252

Rotational constants in cm-1:     0.020765     0.007703     0.006960
Rotational constants in MHz :   622.532714   230.934189   208.643804

                             ****ORCA TERMINATED NORMALLY****
TOTAL RUN TIME: 0 days 0 hours 0 minutes 28 seconds 341 msec
