                         Program Version 4.2.1 -  RELEASE  -
|  1> ! wB97X-D3 SP def2-SVP
|  2> %pal
|  3> nprocs 16
|  4> end
|  5>
|  6> * xyz 0 1
|  7> S 	 -51.3513 	 58.9874 	 128.568
|  8> C 	 -51.3482 	 57.6271 	 129.695
|  9> C 	 -51.1141 	 57.9518 	 130.991
| 10> C 	 -51.0489 	 59.3701 	 131.144
| 11> C 	 -51.2075 	 60.0938 	 129.969
| 12> H 	 -50.9352 	 59.9587 	 132.069
| 13> C 	 -51.1557 	 57.069 	 132.143
| 14> H 	 -51.6453 	 56.104 	 131.82
| 15> H 	 -51.8785 	 57.5183 	 132.784
| 16> C 	 -49.8709 	 56.8225 	 132.927
| 17> H 	 -50.0602 	 56.2781 	 133.853
| 18> H 	 -49.2256 	 56.0697 	 132.458
| 19> C 	 -49.04 	 58.0411 	 133.352
| 20> H 	 -48.1716 	 57.6952 	 133.922
| 21> H 	 -48.8077 	 58.6806 	 132.483
| 22> H 	 -49.5541 	 58.6253 	 134.143
| 23> S 	 -50.2341 	 62.2964 	 128.434
| 24> C 	 -50.559 	 63.9032 	 128.997
| 25> C 	 -51.4042 	 63.8147 	 130.05
| 26> C 	 -51.7771 	 62.5163 	 130.503
| 27> C 	 -51.1002 	 61.5495 	 129.796
| 28> H 	 -51.8944 	 64.7666 	 130.315
| 29> C 	 -52.724 	 62.3595 	 131.576
| 30> H 	 -53.1915 	 61.3725 	 131.438
| 31> H 	 -53.6316 	 63.0758 	 131.304
| 32> C 	 -52.2275 	 62.646 	 132.991
| 33> H 	 -51.4255 	 63.3912 	 133.002
| 34> H 	 -51.7764 	 61.7072 	 133.409
| 35> C 	 -53.501 	 63.1122 	 133.883
| 36> H 	 -53.3653 	 63.1097 	 134.907
| 37> H 	 -54.3171 	 62.3786 	 133.556
| 38> H 	 -53.729 	 64.1131 	 133.51
| 39> H 	 -51.3605 	 56.615 	 129.348
| 40> H 	 -50.2367 	 64.7585 	 128.42
| 41> *
| 42>
| 43>                          ****END OF INPUT****

CARTESIAN COORDINATES (ANGSTROEM)
---------------------------------
  S    -51.351300   58.987400  128.568000
  C    -51.348200   57.627100  129.695000
  C    -51.114100   57.951800  130.991000
  C    -51.048900   59.370100  131.144000
  C    -51.207500   60.093800  129.969000
  H    -50.935200   59.958700  132.069000
  C    -51.155700   57.069000  132.143000
  H    -51.645300   56.104000  131.820000
  H    -51.878500   57.518300  132.784000
  C    -49.870900   56.822500  132.927000
  H    -50.060200   56.278100  133.853000
  H    -49.225600   56.069700  132.458000
  C    -49.040000   58.041100  133.352000
  H    -48.171600   57.695200  133.922000
  H    -48.807700   58.680600  132.483000
  H    -49.554100   58.625300  134.143000
  S    -50.234100   62.296400  128.434000
  C    -50.559000   63.903200  128.997000
  C    -51.404200   63.814700  130.050000
  C    -51.777100   62.516300  130.503000
  C    -51.100200   61.549500  129.796000
  H    -51.894400   64.766600  130.315000
  C    -52.724000   62.359500  131.576000
  H    -53.191500   61.372500  131.438000
  H    -53.631600   63.075800  131.304000
  C    -52.227500   62.646000  132.991000
  H    -51.425500   63.391200  133.002000
  H    -51.776400   61.707200  133.409000
  C    -53.501000   63.112200  133.883000
  H    -53.365300   63.109700  134.907000
  H    -54.317100   62.378600  133.556000
  H    -53.729000   64.113100  133.510000
  H    -51.360500   56.615000  129.348000
  H    -50.236700   64.758500  128.420000

 Total Charge           Charge          ....    0
 Multiplicity           Mult            ....    1
 Number of Electrons    NEL             ....  134
 Basis Dimension        Dim             ....  322

ORBITAL ENERGIES
----------------

  NO   OCC          E(Eh)            E(eV)
   0   2.0000     -88.965760     -2420.8814
   1   2.0000     -88.960627     -2420.7417
   2   2.0000     -10.333261      -281.1823
   3   2.0000     -10.327702      -281.0311
   4   2.0000     -10.315072      -280.6874
   5   2.0000     -10.311570      -280.5921
   6   2.0000     -10.298329      -280.2318
   7   2.0000     -10.296658      -280.1863
   8   2.0000     -10.296626      -280.1855
   9   2.0000     -10.296345      -280.1778
  10   2.0000     -10.295731      -280.1611
  11   2.0000     -10.291334      -280.0414
  12   2.0000     -10.289670      -279.9962
  13   2.0000     -10.287578      -279.9392
  14   2.0000     -10.286523      -279.9105
  15   2.0000     -10.281592      -279.7763
  16   2.0000      -8.079776      -219.8619
  17   2.0000      -8.075651      -219.7496
  18   2.0000      -6.038369      -164.3124
  19   2.0000      -6.034569      -164.2090
  20   2.0000      -6.034269      -164.2008
  21   2.0000      -6.030325      -164.0935
  22   2.0000      -6.030144      -164.0886
  23   2.0000      -6.026253      -163.9827
  24   2.0000      -1.006949       -27.4005
  25   2.0000      -0.987096       -26.8603
  26   2.0000      -0.916251       -24.9324
  27   2.0000      -0.912383       -24.8272
  28   2.0000      -0.870126       -23.6773
  29   2.0000      -0.850307       -23.1380
  30   2.0000      -0.842993       -22.9390
  31   2.0000      -0.817190       -22.2369
  32   2.0000      -0.783917       -21.3315
  33   2.0000      -0.772387       -21.0177
  34   2.0000      -0.708951       -19.2915
  35   2.0000      -0.705501       -19.1977
  36   2.0000      -0.699379       -19.0311
  37   2.0000      -0.659369       -17.9424
  38   2.0000      -0.639465       -17.4007
  39   2.0000      -0.616574       -16.7778
  40   2.0000      -0.600653       -16.3446
  41   2.0000      -0.571934       -15.5631
  42   2.0000      -0.559527       -15.2255
  43   2.0000      -0.551610       -15.0101
  44   2.0000      -0.540129       -14.6977
  45   2.0000      -0.530565       -14.4374
  46   2.0000      -0.518651       -14.1132
  47   2.0000      -0.512496       -13.9457
  48   2.0000      -0.507040       -13.7973
  49   2.0000      -0.496398       -13.5077
  50   2.0000      -0.488124       -13.2825
  51   2.0000      -0.483728       -13.1629
  52   2.0000      -0.467527       -12.7221
  53   2.0000      -0.463063       -12.6006
  54   2.0000      -0.458780       -12.4840
  55   2.0000      -0.453393       -12.3374
  56   2.0000      -0.442340       -12.0367
  57   2.0000      -0.436160       -11.8685
  58   2.0000      -0.432151       -11.7594
  59   2.0000      -0.428121       -11.6498
  60   2.0000      -0.421146       -11.4600
  61   2.0000      -0.411863       -11.2074
  62   2.0000      -0.409658       -11.1474
  63   2.0000      -0.352318        -9.5871
  64   2.0000      -0.331299        -9.0151
  65   2.0000      -0.326368        -8.8809
  66   2.0000      -0.291834        -7.9412
  67   0.0000       0.028678         0.7804
  68   0.0000       0.073081         1.9886
  69   0.0000       0.105580         2.8730
  70   0.0000       0.118760         3.2316
  71   0.0000       0.122378         3.3301

MULLIKEN ATOMIC CHARGES
-----------------------
   0 S :    0.098574
   1 C :   -0.116327
   2 C :   -0.057462
   3 C :   -0.003366
   4 C :   -0.161966
   5 H :    0.013079
   6 C :    0.084250
   7 H :    0.025432
   8 H :    0.024049
   9 C :   -0.067408
  10 H :    0.018779
  11 H :    0.025524
  12 C :   -0.077248
  13 H :    0.035171
  14 H :    0.064557
  15 H :    0.026791
  16 S :    0.086357
  17 C :   -0.097597
  18 C :   -0.029067
  19 C :   -0.031212
  20 C :   -0.133049
  21 H :    0.024146
  22 C :   -0.006260
  23 H :    0.036914
  24 H :    0.043426
  25 C :   -0.071583
  26 H :    0.040025
  27 H :    0.040891
  28 C :   -0.054609
  29 H :    0.030290
  30 H :    0.047708
  31 H :    0.039945
  32 H :    0.037038
  33 H :    0.064208
Sum of atomic charges:    0.0000000

LOEWDIN ATOMIC CHARGES
----------------------
   0 S :    0.374104
   1 C :   -0.178436
   2 C :   -0.069983
   3 C :   -0.061634
   4 C :   -0.173329
   5 H :    0.033575
   6 C :   -0.034830
   7 H :    0.039882
   8 H :    0.032313
   9 C :   -0.045708
  10 H :    0.025857
  11 H :    0.024656
  12 C :   -0.072055
  13 H :    0.031027
  14 H :    0.030604
  15 H :    0.024695
  16 S :    0.387353
  17 C :   -0.182678
  18 C :   -0.077832
  19 C :   -0.065741
  20 C :   -0.189203
  21 H :    0.034089
  22 C :   -0.049555
  23 H :    0.034247
  24 H :    0.044912
  25 C :   -0.036162
  26 H :    0.022888
  27 H :    0.024526
  28 C :   -0.056628
  29 H :    0.011331
  30 H :    0.036298
  31 H :    0.026198
  32 H :    0.022513
  33 H :    0.032708

  Mayer bond orders larger than 0.100000
B(  0-S ,  1-C ) :   1.1244 B(  0-S ,  4-C ) :   1.1256 B(  1-C ,  2-C ) :   1.6488
B(  1-C , 32-H ) :   0.9628 B(  2-C ,  3-C ) :   1.1975 B(  2-C ,  6-C ) :   1.0231
B(  3-C ,  4-C ) :   1.5991 B(  3-C ,  5-H ) :   0.9851 B(  4-C , 20-C ) :   1.0623
B(  6-C ,  7-H ) :   0.9372 B(  6-C ,  8-H ) :   0.9360 B(  6-C ,  9-C ) :   1.0690
B(  9-C , 10-H ) :   0.9504 B(  9-C , 11-H ) :   0.9540 B(  9-C , 12-C ) :   1.0907
B( 12-C , 13-H ) :   0.9684 B( 12-C , 14-H ) :   0.9673 B( 12-C , 15-H ) :   0.9727
B( 16-S , 17-C ) :   1.1469 B( 16-S , 20-C ) :   1.1269 B( 17-C , 18-C ) :   1.6167
B( 17-C , 33-H ) :   0.9713 B( 18-C , 19-C ) :   1.2263 B( 18-C , 21-H ) :   0.9852
B( 19-C , 20-C ) :   1.5801 B( 19-C , 22-C ) :   1.0739 B( 22-C , 23-H ) :   0.9107
B( 22-C , 24-H ) :   0.9393 B( 22-C , 25-C ) :   1.0367 B( 25-C , 26-H ) :   0.9668
B( 25-C , 27-H ) :   0.9488 B( 25-C , 28-C ) :   1.0544 B( 28-C , 29-H ) :   0.9787
B( 28-C , 30-H ) :   0.9773 B( 28-C , 31-H ) :   0.9798

Dispersion correction           -0.014520628
FINAL SINGLE POINT ENERGY     -1339.874193294451

DIPOLE MOMENT
-------------
                                X             Y             Z
Electronic contribution:      3.67470       2.95313     -28.53126
Nuclear contribution   :     -3.88583      -2.94170      29.20620
                        -----------------------------------------
Total Dipole Moment    :     -0.21113       0.01142       0.67494
                        -----------------------------------------
Magnitude (a.u.)       :      0.70729
Magnitude (Debye)      :      1.79778

Rotational constants in cm-1:     0.016318     0.009775     0.007146
Rotational constants in MHz :   489.205175   293.054448   214.238657

                             ****ORCA TERMINATED NORMALLY****
TOTAL RUN TIME: 0 days 0 hours 0 minutes 35 seconds 677 msec
