                         Program Version 4.2.1 -  RELEASE  -
|  1> ! wB97X-D3 SP def2-SVP
|  2> %pal
|  3> nprocs 16
|  4> end
|  5>
|  6> * xyz 0 1
|  7> S 	 -4.99105 	 27.6567 	 46.591
|  8> C 	 -3.81274 	 27.0685 	 45.4935
|  9> C 	 -3.84281 	 27.7832 	 44.2593
| 10> C 	 -4.754 	 28.8426 	 44.3104
| 11> C 	 -5.43383 	 28.9526 	 45.4831
| 12> H 	 -4.83485 	 29.7184 	 43.6253
| 13> C 	 -2.80636 	 27.7573 	 43.2323
| 14> H 	 -3.20625 	 28.3369 	 42.4641
| 15> H 	 -2.72332 	 26.7856 	 42.922
| 16> C 	 -1.3728 	 28.1196 	 43.71
| 17> H 	 -1.26312 	 29.2173 	 44.0051
| 18> H 	 -1.18916 	 27.3902 	 44.5218
| 19> C 	 -0.261438 	 27.9635 	 42.6121
| 20> H 	 -0.536862 	 26.9775 	 42.1405
| 21> H 	 -0.354613 	 28.8007 	 41.899
| 22> H 	 0.736666 	 27.99 	 42.9841
| 23> S 	 -7.99341 	 29.3339 	 46.264
| 24> C 	 -8.67456 	 31.0101 	 46.2411
| 25> C 	 -7.69131 	 31.9329 	 45.9617
| 26> C 	 -6.44889 	 31.3317 	 45.7523
| 27> C 	 -6.4322 	 29.9243 	 45.8223
| 28> H 	 -7.90953 	 33.0387 	 45.9555
| 29> C 	 -5.26528 	 32.2453 	 45.3485
| 30> H 	 -5.7209 	 33.1737 	 45.1194
| 31> H 	 -4.66004 	 31.8926 	 44.5111
| 32> C 	 -4.27201 	 32.5654 	 46.4596
| 33> H 	 -3.88731 	 31.6462 	 46.9038
| 34> H 	 -4.81687 	 33.0557 	 47.2982
| 35> C 	 -3.23481 	 33.4767 	 46.0548
| 36> H 	 -2.67099 	 34.0545 	 46.8264
| 37> H 	 -3.57893 	 34.2349 	 45.3566
| 38> H 	 -2.53034 	 32.9608 	 45.3383
| 39> H 	 -3.10138 	 26.342 	 45.6595
| 40> H 	 -9.67736 	 31.3881 	 46.3872
| 41> *
| 42>
| 43>                          ****END OF INPUT****

CARTESIAN COORDINATES (ANGSTROEM)
---------------------------------
  S     -4.991050   27.656700   46.591000
  C     -3.812740   27.068500   45.493500
  C     -3.842810   27.783200   44.259300
  C     -4.754000   28.842600   44.310400
  C     -5.433830   28.952600   45.483100
  H     -4.834850   29.718400   43.625300
  C     -2.806360   27.757300   43.232300
  H     -3.206250   28.336900   42.464100
  H     -2.723320   26.785600   42.922000
  C     -1.372800   28.119600   43.710000
  H     -1.263120   29.217300   44.005100
  H     -1.189160   27.390200   44.521800
  C     -0.261438   27.963500   42.612100
  H     -0.536862   26.977500   42.140500
  H     -0.354613   28.800700   41.899000
  H      0.736666   27.990000   42.984100
  S     -7.993410   29.333900   46.264000
  C     -8.674560   31.010100   46.241100
  C     -7.691310   31.932900   45.961700
  C     -6.448890   31.331700   45.752300
  C     -6.432200   29.924300   45.822300
  H     -7.909530   33.038700   45.955500
  C     -5.265280   32.245300   45.348500
  H     -5.720900   33.173700   45.119400
  H     -4.660040   31.892600   44.511100
  C     -4.272010   32.565400   46.459600
  H     -3.887310   31.646200   46.903800
  H     -4.816870   33.055700   47.298200
  C     -3.234810   33.476700   46.054800
  H     -2.670990   34.054500   46.826400
  H     -3.578930   34.234900   45.356600
  H     -2.530340   32.960800   45.338300
  H     -3.101380   26.342000   45.659500
  H     -9.677360   31.388100   46.387200

 Total Charge           Charge          ....    0
 Multiplicity           Mult            ....    1
 Number of Electrons    NEL             ....  134
 Basis Dimension        Dim             ....  322

ORBITAL ENERGIES
----------------

  NO   OCC          E(Eh)            E(eV)
   0   2.0000     -88.971018     -2421.0245
   1   2.0000     -88.969769     -2420.9905
   2   2.0000     -10.326351      -280.9943
   3   2.0000     -10.324937      -280.9558
   4   2.0000     -10.319543      -280.8091
   5   2.0000     -10.311189      -280.5817
   6   2.0000     -10.302871      -280.3554
   7   2.0000     -10.298168      -280.2274
   8   2.0000     -10.296736      -280.1884
   9   2.0000     -10.296204      -280.1739
  10   2.0000     -10.291454      -280.0447
  11   2.0000     -10.288728      -279.9705
  12   2.0000     -10.284638      -279.8592
  13   2.0000     -10.278180      -279.6835
  14   2.0000     -10.276895      -279.6485
  15   2.0000     -10.276204      -279.6297
  16   2.0000      -8.085850      -220.0272
  17   2.0000      -8.083685      -219.9683
  18   2.0000      -6.044226      -164.4717
  19   2.0000      -6.042290      -164.4191
  20   2.0000      -6.040225      -164.3629
  21   2.0000      -6.038243      -164.3089
  22   2.0000      -6.036868      -164.2715
  23   2.0000      -6.034436      -164.2053
  24   2.0000      -1.011305       -27.5190
  25   2.0000      -0.986364       -26.8403
  26   2.0000      -0.919154       -25.0114
  27   2.0000      -0.915762       -24.9192
  28   2.0000      -0.873834       -23.7782
  29   2.0000      -0.857528       -23.3345
  30   2.0000      -0.850480       -23.1428
  31   2.0000      -0.818327       -22.2678
  32   2.0000      -0.782012       -21.2796
  33   2.0000      -0.767309       -20.8795
  34   2.0000      -0.711689       -19.3660
  35   2.0000      -0.699674       -19.0391
  36   2.0000      -0.690092       -18.7784
  37   2.0000      -0.664068       -18.0702
  38   2.0000      -0.646303       -17.5868
  39   2.0000      -0.622256       -16.9324
  40   2.0000      -0.595328       -16.1997
  41   2.0000      -0.571952       -15.5636
  42   2.0000      -0.568467       -15.4688
  43   2.0000      -0.565301       -15.3826
  44   2.0000      -0.528108       -14.3706
  45   2.0000      -0.522429       -14.2160
  46   2.0000      -0.520790       -14.1714
  47   2.0000      -0.514994       -14.0137
  48   2.0000      -0.509180       -13.8555
  49   2.0000      -0.505554       -13.7568
  50   2.0000      -0.495501       -13.4833
  51   2.0000      -0.484794       -13.1919
  52   2.0000      -0.474226       -12.9043
  53   2.0000      -0.464131       -12.6296
  54   2.0000      -0.460174       -12.5220
  55   2.0000      -0.451491       -12.2857
  56   2.0000      -0.448539       -12.2054
  57   2.0000      -0.438123       -11.9219
  58   2.0000      -0.428344       -11.6558
  59   2.0000      -0.426674       -11.6104
  60   2.0000      -0.420050       -11.4301
  61   2.0000      -0.412388       -11.2217
  62   2.0000      -0.403597       -10.9824
  63   2.0000      -0.352234        -9.5848
  64   2.0000      -0.336701        -9.1621
  65   2.0000      -0.326048        -8.8722
  66   2.0000      -0.287470        -7.8225
  67   0.0000       0.029121         0.7924
  68   0.0000       0.058722         1.5979
  69   0.0000       0.106598         2.9007
  70   0.0000       0.116430         3.1682
  71   0.0000       0.131706         3.5839

MULLIKEN ATOMIC CHARGES
-----------------------
   0 S :    0.133908
   1 C :   -0.092011
   2 C :   -0.101424
   3 C :    0.020932
   4 C :   -0.177005
   5 H :    0.029577
   6 C :    0.146364
   7 H :    0.002317
   8 H :   -0.003718
   9 C :   -0.111348
  10 H :    0.042772
  11 H :    0.030424
  12 C :   -0.050820
  13 H :    0.032615
  14 H :    0.036851
  15 H :    0.040531
  16 S :    0.113871
  17 C :   -0.086803
  18 C :   -0.065792
  19 C :   -0.022846
  20 C :   -0.151212
  21 H :    0.045977
  22 C :    0.072401
  23 H :   -0.001622
  24 H :    0.019170
  25 C :   -0.055260
  26 H :    0.033333
  27 H :    0.017679
  28 C :   -0.040991
  29 H :    0.048233
  30 H :    0.008036
  31 H :    0.018532
  32 H :    0.018459
  33 H :    0.048872
Sum of atomic charges:    0.0000000

LOEWDIN ATOMIC CHARGES
----------------------
   0 S :    0.427657
   1 C :   -0.195581
   2 C :   -0.060114
   3 C :   -0.063566
   4 C :   -0.198572
   5 H :    0.040802
   6 C :   -0.027874
   7 H :    0.022742
   8 H :    0.021417
   9 C :   -0.035763
  10 H :    0.029764
  11 H :    0.023534
  12 C :   -0.067833
  13 H :    0.028112
  14 H :    0.026550
  15 H :    0.022538
  16 S :    0.405747
  17 C :   -0.176181
  18 C :   -0.076135
  19 C :   -0.059017
  20 C :   -0.207467
  21 H :    0.045511
  22 C :   -0.021822
  23 H :    0.021923
  24 H :    0.024886
  25 C :   -0.050114
  26 H :    0.025127
  27 H :    0.025600
  28 C :   -0.076691
  29 H :    0.033639
  30 H :    0.021822
  31 H :    0.027585
  32 H :    0.010088
  33 H :    0.031687

  Mayer bond orders larger than 0.100000
B(  0-S ,  1-C ) :   1.1646 B(  0-S ,  4-C ) :   1.1510 B(  1-C ,  2-C ) :   1.5492
B(  1-C ,  4-C ) :   0.1129 B(  1-C , 32-H ) :   0.9800 B(  2-C ,  3-C ) :   1.2694
B(  2-C ,  6-C ) :   1.0551 B(  3-C ,  4-C ) :   1.5858 B(  3-C ,  5-H ) :   0.9801
B(  4-C , 20-C ) :   1.0385 B(  6-C ,  7-H ) :   0.9362 B(  6-C ,  8-H ) :   0.9062
B(  6-C ,  9-C ) :   1.0610 B(  9-C , 10-H ) :   0.9607 B(  9-C , 11-H ) :   0.9537
B(  9-C , 12-C ) :   1.0707 B( 12-C , 13-H ) :   0.9752 B( 12-C , 14-H ) :   0.9787
B( 12-C , 15-H ) :   0.9765 B( 16-S , 17-C ) :   1.1426 B( 16-S , 20-C ) :   1.1488
B( 17-C , 18-C ) :   1.6167 B( 17-C , 20-C ) :   0.1095 B( 17-C , 33-H ) :   0.9636
B( 18-C , 19-C ) :   1.2810 B( 18-C , 21-H ) :   0.9725 B( 19-C , 20-C ) :   1.5674
B( 19-C , 22-C ) :   1.0349 B( 22-C , 23-H ) :   0.9255 B( 22-C , 24-H ) :   0.9421
B( 22-C , 25-C ) :   1.0703 B( 25-C , 26-H ) :   0.9534 B( 25-C , 27-H ) :   0.9464
B( 25-C , 28-C ) :   1.0968 B( 28-C , 29-H ) :   0.9712 B( 28-C , 30-H ) :   0.9625
B( 28-C , 31-H ) :   0.9633

Dispersion correction           -0.013917322
FINAL SINGLE POINT ENERGY     -1339.852987200607

DIPOLE MOMENT
-------------
                                X             Y             Z
Electronic contribution:    -25.91881     -13.03896      11.79868
Nuclear contribution   :     26.35540      13.49590     -12.12619
                        -----------------------------------------
Total Dipole Moment    :      0.43659       0.45694      -0.32750
                        -----------------------------------------
Magnitude (a.u.)       :      0.71180
Magnitude (Debye)      :      1.80925

Rotational constants in cm-1:     0.018362     0.008809     0.006676
Rotational constants in MHz :   550.484404   264.088928   200.133550

                             ****ORCA TERMINATED NORMALLY****
TOTAL RUN TIME: 0 days 0 hours 0 minutes 34 seconds 947 msec
