                         Program Version 4.2.1 -  RELEASE  -
|  1> ! wB97X-D3 SP def2-SVP
|  2> %pal
|  3> nprocs 16
|  4> end
|  5>
|  6> * xyz 0 1
|  7> S 	 -4.3621 	 8.70203 	 84.787
|  8> C 	 -3.56179 	 7.26705 	 84.3324
|  9> C 	 -4.05353 	 6.73577 	 83.206
| 10> C 	 -5.09674 	 7.52275 	 82.6275
| 11> C 	 -5.34738 	 8.63053 	 83.365
| 12> H 	 -5.6178 	 7.3204 	 81.6723
| 13> C 	 -3.42804 	 5.58699 	 82.4204
| 14> H 	 -4.30887 	 5.07129 	 82.0308
| 15> H 	 -2.94615 	 4.85287 	 82.9875
| 16> C 	 -2.48214 	 6.03785 	 81.3514
| 17> H 	 -3.01917 	 6.70075 	 80.6893
| 18> H 	 -1.64296 	 6.56031 	 81.7185
| 19> C 	 -1.75468 	 4.94019 	 80.5739
| 20> H 	 -2.49673 	 4.29105 	 80.0636
| 21> H 	 -1.13445 	 5.23949 	 79.6882
| 22> H 	 -1.22293 	 4.23216 	 81.2321
| 23> S 	 -6.9682 	 10.5623 	 84.3166
| 24> C 	 -7.64979 	 11.7511 	 83.3135
| 25> C 	 -7.32126 	 11.5603 	 81.9449
| 26> C 	 -6.42802 	 10.3899 	 81.8126
| 27> C 	 -6.18788 	 9.76965 	 83.0255
| 28> H 	 -7.57354 	 12.2446 	 81.1008
| 29> C 	 -5.75985 	 10.1596 	 80.4323
| 30> H 	 -6.53313 	 9.96937 	 79.6907
| 31> H 	 -5.23467 	 9.19881 	 80.4849
| 32> C 	 -4.71032 	 11.2527 	 80.0158
| 33> H 	 -5.27755 	 12.2312 	 79.9739
| 34> H 	 -4.45942 	 10.9939 	 79.0372
| 35> C 	 -3.45925 	 11.2535 	 80.8451
| 36> H 	 -2.66907 	 11.9613 	 80.5134
| 37> H 	 -2.93551 	 10.3447 	 80.7688
| 38> H 	 -3.71641 	 11.4236 	 81.885
| 39> H 	 -2.80491 	 6.80555 	 84.8509
| 40> H 	 -8.2449 	 12.63 	 83.6964
| 41> *
| 42>
| 43>                          ****END OF INPUT****

CARTESIAN COORDINATES (ANGSTROEM)
---------------------------------
  S     -4.362100    8.702030   84.787000
  C     -3.561790    7.267050   84.332400
  C     -4.053530    6.735770   83.206000
  C     -5.096740    7.522750   82.627500
  C     -5.347380    8.630530   83.365000
  H     -5.617800    7.320400   81.672300
  C     -3.428040    5.586990   82.420400
  H     -4.308870    5.071290   82.030800
  H     -2.946150    4.852870   82.987500
  C     -2.482140    6.037850   81.351400
  H     -3.019170    6.700750   80.689300
  H     -1.642960    6.560310   81.718500
  C     -1.754680    4.940190   80.573900
  H     -2.496730    4.291050   80.063600
  H     -1.134450    5.239490   79.688200
  H     -1.222930    4.232160   81.232100
  S     -6.968200   10.562300   84.316600
  C     -7.649790   11.751100   83.313500
  C     -7.321260   11.560300   81.944900
  C     -6.428020   10.389900   81.812600
  C     -6.187880    9.769650   83.025500
  H     -7.573540   12.244600   81.100800
  C     -5.759850   10.159600   80.432300
  H     -6.533130    9.969370   79.690700
  H     -5.234670    9.198810   80.484900
  C     -4.710320   11.252700   80.015800
  H     -5.277550   12.231200   79.973900
  H     -4.459420   10.993900   79.037200
  C     -3.459250   11.253500   80.845100
  H     -2.669070   11.961300   80.513400
  H     -2.935510   10.344700   80.768800
  H     -3.716410   11.423600   81.885000
  H     -2.804910    6.805550   84.850900
  H     -8.244900   12.630000   83.696400

 Total Charge           Charge          ....    0
 Multiplicity           Mult            ....    1
 Number of Electrons    NEL             ....  134
 Basis Dimension        Dim             ....  322

ORBITAL ENERGIES
----------------

  NO   OCC          E(Eh)            E(eV)
   0   2.0000     -88.966583     -2420.9038
   1   2.0000     -88.964518     -2420.8476
   2   2.0000     -10.324650      -280.9480
   3   2.0000     -10.322517      -280.8900
   4   2.0000     -10.322491      -280.8893
   5   2.0000     -10.306529      -280.4549
   6   2.0000     -10.303712      -280.3783
   7   2.0000     -10.299567      -280.2655
   8   2.0000     -10.294555      -280.1291
   9   2.0000     -10.294237      -280.1204
  10   2.0000     -10.292126      -280.0630
  11   2.0000     -10.286354      -279.9059
  12   2.0000     -10.286035      -279.8972
  13   2.0000     -10.284195      -279.8472
  14   2.0000     -10.280312      -279.7415
  15   2.0000     -10.269000      -279.4337
  16   2.0000      -8.083089      -219.9520
  17   2.0000      -8.080714      -219.8874
  18   2.0000      -6.041477      -164.3969
  19   2.0000      -6.039160      -164.3339
  20   2.0000      -6.037230      -164.2814
  21   2.0000      -6.035070      -164.2226
  22   2.0000      -6.033995      -164.1933
  23   2.0000      -6.031396      -164.1226
  24   2.0000      -1.018402       -27.7121
  25   2.0000      -0.992582       -27.0095
  26   2.0000      -0.918369       -24.9901
  27   2.0000      -0.906263       -24.6607
  28   2.0000      -0.872541       -23.7430
  29   2.0000      -0.855192       -23.2709
  30   2.0000      -0.845171       -22.9983
  31   2.0000      -0.814513       -22.1640
  32   2.0000      -0.783403       -21.3175
  33   2.0000      -0.775788       -21.1103
  34   2.0000      -0.707091       -19.2409
  35   2.0000      -0.702016       -19.1028
  36   2.0000      -0.692564       -18.8456
  37   2.0000      -0.663901       -18.0657
  38   2.0000      -0.643435       -17.5087
  39   2.0000      -0.626249       -17.0411
  40   2.0000      -0.595440       -16.2027
  41   2.0000      -0.567311       -15.4373
  42   2.0000      -0.563311       -15.3285
  43   2.0000      -0.552154       -15.0249
  44   2.0000      -0.541230       -14.7276
  45   2.0000      -0.527257       -14.3474
  46   2.0000      -0.518151       -14.0996
  47   2.0000      -0.510303       -13.8860
  48   2.0000      -0.501991       -13.6599
  49   2.0000      -0.500508       -13.6195
  50   2.0000      -0.497161       -13.5284
  51   2.0000      -0.483840       -13.1659
  52   2.0000      -0.471571       -12.8321
  53   2.0000      -0.466899       -12.7050
  54   2.0000      -0.458191       -12.4680
  55   2.0000      -0.454282       -12.3616
  56   2.0000      -0.445795       -12.1307
  57   2.0000      -0.438854       -11.9418
  58   2.0000      -0.433311       -11.7910
  59   2.0000      -0.428617       -11.6633
  60   2.0000      -0.415927       -11.3179
  61   2.0000      -0.414996       -11.2926
  62   2.0000      -0.408276       -11.1098
  63   2.0000      -0.356829        -9.7098
  64   2.0000      -0.334121        -9.0919
  65   2.0000      -0.328588        -8.9413
  66   2.0000      -0.291102        -7.9213
  67   0.0000       0.034154         0.9294
  68   0.0000       0.081660         2.2221
  69   0.0000       0.111991         3.0474
  70   0.0000       0.116155         3.1607
  71   0.0000       0.133499         3.6327

MULLIKEN ATOMIC CHARGES
-----------------------
   0 S :    0.112437
   1 C :   -0.072462
   2 C :   -0.089566
   3 C :   -0.012414
   4 C :   -0.116211
   5 H :    0.030106
   6 C :    0.095821
   7 H :    0.019802
   8 H :   -0.004621
   9 C :   -0.022690
  10 H :    0.016377
  11 H :    0.019859
  12 C :   -0.080212
  13 H :    0.014393
  14 H :    0.047252
  15 H :    0.034054
  16 S :    0.121123
  17 C :   -0.115849
  18 C :   -0.051889
  19 C :   -0.084201
  20 C :   -0.142730
  21 H :    0.041959
  22 C :    0.051172
  23 H :    0.033213
  24 H :   -0.002681
  25 C :   -0.038567
  26 H :    0.033332
  27 H :    0.011823
  28 C :   -0.028487
  29 H :    0.034412
  30 H :    0.014472
  31 H :    0.044027
  32 H :    0.004809
  33 H :    0.082135
Sum of atomic charges:   -0.0000000

LOEWDIN ATOMIC CHARGES
----------------------
   0 S :    0.422205
   1 C :   -0.193329
   2 C :   -0.061092
   3 C :   -0.068459
   4 C :   -0.191180
   5 H :    0.038090
   6 C :   -0.024747
   7 H :    0.032492
   8 H :    0.018456
   9 C :   -0.038354
  10 H :    0.021137
  11 H :    0.022172
  12 C :   -0.075843
  13 H :    0.021053
  14 H :    0.034645
  15 H :    0.025287
  16 S :    0.445867
  17 C :   -0.215012
  18 C :   -0.075835
  19 C :   -0.059218
  20 C :   -0.221076
  21 H :    0.038317
  22 C :   -0.032464
  23 H :    0.031272
  24 H :    0.022838
  25 C :   -0.032919
  26 H :    0.026851
  27 H :    0.015271
  28 C :   -0.063390
  29 H :    0.032474
  30 H :    0.020477
  31 H :    0.028934
  32 H :    0.013376
  33 H :    0.041703

  Mayer bond orders larger than 0.100000
B(  0-S ,  1-C ) :   1.1258 B(  0-S ,  4-C ) :   1.1554 B(  1-C ,  2-C ) :   1.6494
B(  1-C , 32-H ) :   0.9773 B(  2-C ,  3-C ) :   1.2132 B(  2-C ,  6-C ) :   1.0297
B(  3-C ,  4-C ) :   1.6010 B(  3-C ,  5-H ) :   0.9916 B(  4-C , 20-C ) :   1.0251
B(  6-C ,  7-H ) :   0.9314 B(  6-C ,  8-H ) :   0.9380 B(  6-C ,  9-C ) :   1.0695
B(  9-C , 10-H ) :   0.9515 B(  9-C , 11-H ) :   0.9546 B(  9-C , 12-C ) :   1.0790
B( 12-C , 13-H ) :   0.9726 B( 12-C , 14-H ) :   0.9741 B( 12-C , 15-H ) :   0.9736
B( 16-S , 17-C ) :   1.1794 B( 16-S , 20-C ) :   1.1515 B( 17-C , 18-C ) :   1.5788
B( 17-C , 33-H ) :   0.9617 B( 18-C , 19-C ) :   1.2457 B( 18-C , 21-H ) :   0.9821
B( 19-C , 20-C ) :   1.5974 B( 19-C , 22-C ) :   1.0387 B( 22-C , 23-H ) :   0.9348
B( 22-C , 24-H ) :   0.9322 B( 22-C , 25-C ) :   1.0686 B( 25-C , 26-H ) :   0.9567
B( 25-C , 27-H ) :   0.9504 B( 25-C , 28-C ) :   1.0796 B( 28-C , 29-H ) :   0.9705
B( 28-C , 30-H ) :   0.9686 B( 28-C , 31-H ) :   0.9770

Dispersion correction           -0.015117789
FINAL SINGLE POINT ENERGY     -1339.881412468997

DIPOLE MOMENT
-------------
                                X             Y             Z
Electronic contribution:    -16.18692       8.76556      23.67632
Nuclear contribution   :     16.48611      -8.86663     -24.27873
                        -----------------------------------------
Total Dipole Moment    :      0.29919      -0.10108      -0.60241
                        -----------------------------------------
Magnitude (a.u.)       :      0.68017
Magnitude (Debye)      :      1.72885

Rotational constants in cm-1:     0.020610     0.009135     0.007148
Rotational constants in MHz :   617.860778   273.857182   214.288728

                             ****ORCA TERMINATED NORMALLY****
TOTAL RUN TIME: 0 days 0 hours 0 minutes 35 seconds 971 msec
