                         Program Version 4.2.1 -  RELEASE  -
|  1> ! wB97X-D3 SP def2-SVP
|  2> %pal
|  3> nprocs 16
|  4> end
|  5>
|  6> * xyz 0 1
|  7> S 	 -9.17269 	 44.4884 	 39.147
|  8> C 	 -7.89463 	 44.2868 	 37.9738
|  9> C 	 -6.92441 	 43.415 	 38.3723
| 10> C 	 -7.18604 	 42.8488 	 39.6618
| 11> C 	 -8.40972 	 43.2603 	 40.1568
| 12> H 	 -6.46404 	 42.2084 	 40.2099
| 13> C 	 -5.75309 	 42.9431 	 37.5804
| 14> H 	 -5.62755 	 43.467 	 36.6454
| 15> H 	 -5.86579 	 41.9449 	 37.2629
| 16> C 	 -4.40685 	 43.0631 	 38.3199
| 17> H 	 -4.29821 	 44.0779 	 38.5853
| 18> H 	 -4.37785 	 42.5417 	 39.2666
| 19> C 	 -3.30369 	 42.4598 	 37.4858
| 20> H 	 -3.13616 	 43.0973 	 36.6019
| 21> H 	 -2.39074 	 42.4757 	 37.923
| 22> H 	 -3.60389 	 41.3871 	 37.1966
| 23> S 	 -10.7087 	 43.075 	 41.6836
| 24> C 	 -10.644 	 42.7925 	 43.4723
| 25> C 	 -9.32238 	 42.4363 	 43.7796
| 26> C 	 -8.37685 	 42.6508 	 42.7107
| 27> C 	 -8.94104 	 42.9599 	 41.4964
| 28> H 	 -9.08346 	 42.2066 	 44.7924
| 29> C 	 -6.92442 	 42.5248 	 43.0191
| 30> H 	 -6.67183 	 42.7904 	 44.0403
| 31> H 	 -6.3184 	 43.1125 	 42.3569
| 32> C 	 -6.42143 	 41.0573 	 42.9747
| 33> H 	 -6.53951 	 40.6941 	 41.9435
| 34> H 	 -6.92216 	 40.4134 	 43.6969
| 35> C 	 -4.94904 	 41.069 	 43.2305
| 36> H 	 -4.82131 	 41.1855 	 44.318
| 37> H 	 -4.27231 	 41.8024 	 42.7072
| 38> H 	 -4.53587 	 40.036 	 42.8533
| 39> H 	 -7.97704 	 44.7213 	 36.9881
| 40> H 	 -11.4663 	 42.8668 	 44.1613
| 41> *
| 42>
| 43>                          ****END OF INPUT****

CARTESIAN COORDINATES (ANGSTROEM)
---------------------------------
  S     -9.172690   44.488400   39.147000
  C     -7.894630   44.286800   37.973800
  C     -6.924410   43.415000   38.372300
  C     -7.186040   42.848800   39.661800
  C     -8.409720   43.260300   40.156800
  H     -6.464040   42.208400   40.209900
  C     -5.753090   42.943100   37.580400
  H     -5.627550   43.467000   36.645400
  H     -5.865790   41.944900   37.262900
  C     -4.406850   43.063100   38.319900
  H     -4.298210   44.077900   38.585300
  H     -4.377850   42.541700   39.266600
  C     -3.303690   42.459800   37.485800
  H     -3.136160   43.097300   36.601900
  H     -2.390740   42.475700   37.923000
  H     -3.603890   41.387100   37.196600
  S    -10.708700   43.075000   41.683600
  C    -10.644000   42.792500   43.472300
  C     -9.322380   42.436300   43.779600
  C     -8.376850   42.650800   42.710700
  C     -8.941040   42.959900   41.496400
  H     -9.083460   42.206600   44.792400
  C     -6.924420   42.524800   43.019100
  H     -6.671830   42.790400   44.040300
  H     -6.318400   43.112500   42.356900
  C     -6.421430   41.057300   42.974700
  H     -6.539510   40.694100   41.943500
  H     -6.922160   40.413400   43.696900
  C     -4.949040   41.069000   43.230500
  H     -4.821310   41.185500   44.318000
  H     -4.272310   41.802400   42.707200
  H     -4.535870   40.036000   42.853300
  H     -7.977040   44.721300   36.988100
  H    -11.466300   42.866800   44.161300

 Total Charge           Charge          ....    0
 Multiplicity           Mult            ....    1
 Number of Electrons    NEL             ....  134
 Basis Dimension        Dim             ....  322

ORBITAL ENERGIES
----------------

  NO   OCC          E(Eh)            E(eV)
   0   2.0000     -88.968317     -2420.9510
   1   2.0000     -88.961182     -2420.7568
   2   2.0000     -10.334541      -281.2172
   3   2.0000     -10.329856      -281.0897
   4   2.0000     -10.325629      -280.9746
   5   2.0000     -10.311987      -280.6034
   6   2.0000     -10.302879      -280.3556
   7   2.0000     -10.298949      -280.2486
   8   2.0000     -10.298492      -280.2362
   9   2.0000     -10.297489      -280.2089
  10   2.0000     -10.289986      -280.0048
  11   2.0000     -10.287957      -279.9495
  12   2.0000     -10.287561      -279.9388
  13   2.0000     -10.285383      -279.8795
  14   2.0000     -10.281405      -279.7713
  15   2.0000     -10.278645      -279.6962
  16   2.0000      -8.082891      -219.9466
  17   2.0000      -8.074672      -219.7230
  18   2.0000      -6.041477      -164.3970
  19   2.0000      -6.037502      -164.2888
  20   2.0000      -6.033488      -164.1796
  21   2.0000      -6.033450      -164.1785
  22   2.0000      -6.029354      -164.0671
  23   2.0000      -6.025221      -163.9546
  24   2.0000      -1.004686       -27.3389
  25   2.0000      -0.979657       -26.6578
  26   2.0000      -0.919987       -25.0341
  27   2.0000      -0.915180       -24.9033
  28   2.0000      -0.870138       -23.6777
  29   2.0000      -0.855030       -23.2665
  30   2.0000      -0.845965       -23.0199
  31   2.0000      -0.816067       -22.2063
  32   2.0000      -0.780338       -21.2341
  33   2.0000      -0.768610       -20.9149
  34   2.0000      -0.711560       -19.3625
  35   2.0000      -0.697994       -18.9934
  36   2.0000      -0.692287       -18.8381
  37   2.0000      -0.668871       -18.2009
  38   2.0000      -0.642426       -17.4813
  39   2.0000      -0.627875       -17.0853
  40   2.0000      -0.597934       -16.2706
  41   2.0000      -0.580888       -15.8068
  42   2.0000      -0.576970       -15.7002
  43   2.0000      -0.563316       -15.3286
  44   2.0000      -0.530600       -14.4384
  45   2.0000      -0.524335       -14.2679
  46   2.0000      -0.514869       -14.0103
  47   2.0000      -0.512117       -13.9354
  48   2.0000      -0.508975       -13.8499
  49   2.0000      -0.499011       -13.5788
  50   2.0000      -0.489269       -13.3137
  51   2.0000      -0.485948       -13.2233
  52   2.0000      -0.475561       -12.9407
  53   2.0000      -0.463803       -12.6207
  54   2.0000      -0.458149       -12.4669
  55   2.0000      -0.450902       -12.2697
  56   2.0000      -0.447062       -12.1652
  57   2.0000      -0.440246       -11.9797
  58   2.0000      -0.433873       -11.8063
  59   2.0000      -0.427122       -11.6226
  60   2.0000      -0.420872       -11.4525
  61   2.0000      -0.418305       -11.3827
  62   2.0000      -0.408064       -11.1040
  63   2.0000      -0.354875        -9.6566
  64   2.0000      -0.333182        -9.0663
  65   2.0000      -0.324664        -8.8346
  66   2.0000      -0.288259        -7.8439
  67   0.0000       0.021746         0.5917
  68   0.0000       0.078712         2.1418
  69   0.0000       0.099712         2.7133
  70   0.0000       0.115260         3.1364
  71   0.0000       0.118546         3.2258

MULLIKEN ATOMIC CHARGES
-----------------------
   0 S :    0.113233
   1 C :   -0.129442
   2 C :   -0.045458
   3 C :   -0.023091
   4 C :   -0.087591
   5 H :    0.015254
   6 C :    0.097424
   7 H :    0.004227
   8 H :    0.017625
   9 C :   -0.098315
  10 H :    0.022000
  11 H :    0.023000
  12 C :   -0.015595
  13 H :    0.026058
  14 H :    0.009720
  15 H :    0.041512
  16 S :    0.064293
  17 C :   -0.092258
  18 C :   -0.013392
  19 C :   -0.033759
  20 C :   -0.118589
  21 H :    0.011432
  22 C :    0.049853
  23 H :    0.009139
  24 H :    0.017350
  25 C :   -0.070096
  26 H :    0.029963
  27 H :    0.037778
  28 C :   -0.094121
  29 H :    0.036927
  30 H :    0.043096
  31 H :    0.044205
  32 H :    0.045167
  33 H :    0.062449
Sum of atomic charges:    0.0000000

LOEWDIN ATOMIC CHARGES
----------------------
   0 S :    0.401987
   1 C :   -0.193657
   2 C :   -0.062506
   3 C :   -0.062637
   4 C :   -0.180231
   5 H :    0.034829
   6 C :   -0.025175
   7 H :    0.027938
   8 H :    0.025068
   9 C :   -0.036883
  10 H :    0.019612
  11 H :    0.018145
  12 C :   -0.058140
  13 H :    0.027807
  14 H :    0.009859
  15 H :    0.036985
  16 S :    0.356316
  17 C :   -0.160102
  18 C :   -0.062059
  19 C :   -0.059596
  20 C :   -0.181637
  21 H :    0.025387
  22 C :   -0.029024
  23 H :    0.027804
  24 H :    0.024322
  25 C :   -0.039224
  26 H :    0.019729
  27 H :    0.027969
  28 C :   -0.078916
  29 H :    0.024849
  30 H :    0.027966
  31 H :    0.036135
  32 H :    0.026710
  33 H :    0.030368

  Mayer bond orders larger than 0.100000
B(  0-S ,  1-C ) :   1.1208 B(  0-S ,  4-C ) :   1.1501 B(  1-C ,  2-C ) :   1.6304
B(  1-C , 32-H ) :   0.9662 B(  2-C ,  3-C ) :   1.2202 B(  2-C ,  6-C ) :   1.0324
B(  3-C ,  4-C ) :   1.5746 B(  3-C ,  5-H ) :   0.9872 B(  4-C , 20-C ) :   1.0478
B(  6-C ,  7-H ) :   0.9385 B(  6-C ,  8-H ) :   0.9358 B(  6-C ,  9-C ) :   1.0512
B(  9-C , 10-H ) :   0.9560 B(  9-C , 11-H ) :   0.9529 B(  9-C , 12-C ) :   1.0928
B( 12-C , 13-H ) :   0.9711 B( 12-C , 14-H ) :   0.9705 B( 12-C , 15-H ) :   0.9706
B( 16-S , 17-C ) :   1.1329 B( 16-S , 20-C ) :   1.1094 B( 17-C , 18-C ) :   1.6180
B( 17-C , 33-H ) :   0.9729 B( 18-C , 19-C ) :   1.2199 B( 18-C , 21-H ) :   0.9891
B( 19-C , 20-C ) :   1.6156 B( 19-C , 22-C ) :   1.0618 B( 22-C , 23-H ) :   0.9308
B( 22-C , 24-H ) :   0.9353 B( 22-C , 25-C ) :   1.0620 B( 25-C , 26-H ) :   0.9549
B( 25-C , 27-H ) :   0.9513 B( 25-C , 28-C ) :   1.0793 B( 28-C , 29-H ) :   0.9734
B( 28-C , 30-H ) :   0.9719 B( 28-C , 31-H ) :   0.9737

Dispersion correction           -0.014102537
FINAL SINGLE POINT ENERGY     -1339.874103692111

DIPOLE MOMENT
-------------
                                X             Y             Z
Electronic contribution:    -32.08855      11.09056       0.19135
Nuclear contribution   :     32.84415     -11.28768      -0.02149
                        -----------------------------------------
Total Dipole Moment    :      0.75561      -0.19712       0.16986
                        -----------------------------------------
Magnitude (a.u.)       :      0.79916
Magnitude (Debye)      :      2.03129

Rotational constants in cm-1:     0.017548     0.009699     0.006439
Rotational constants in MHz :   526.070056   290.778274   193.047065

                             ****ORCA TERMINATED NORMALLY****
TOTAL RUN TIME: 0 days 0 hours 0 minutes 32 seconds 713 msec
