                         Program Version 4.2.1 -  RELEASE  -
|  1> ! wB97X-D3 SP def2-SVP
|  2> %pal
|  3> nprocs 16
|  4> end
|  5>
|  6> * xyz 0 1
|  7> S 	 -11.7124 	 54.9664 	 28.9801
|  8> C 	 -11.1479 	 53.3677 	 28.762
|  9> C 	 -9.96686 	 53.0311 	 29.3953
| 10> C 	 -9.49613 	 54.1068 	 30.1956
| 11> C 	 -10.4337 	 55.1056 	 30.3096
| 12> H 	 -8.55566 	 54.1311 	 30.7452
| 13> C 	 -9.29659 	 51.711 	 29.4312
| 14> H 	 -9.7258 	 51.1061 	 30.2039
| 15> H 	 -8.2268 	 51.8254 	 29.7923
| 16> C 	 -9.43222 	 50.8519 	 28.1628
| 17> H 	 -10.4899 	 50.6845 	 27.9055
| 18> H 	 -9.14599 	 51.4557 	 27.3137
| 19> C 	 -8.65492 	 49.4984 	 28.1898
| 20> H 	 -7.58549 	 49.7569 	 28.2537
| 21> H 	 -8.99534 	 48.8872 	 29.0369
| 22> H 	 -8.54718 	 48.9035 	 27.2747
| 23> S 	 -10.736 	 57.838 	 30.531
| 24> C 	 -10.2336 	 58.6339 	 31.9294
| 25> C 	 -9.78665 	 57.8301 	 32.9226
| 26> C 	 -10.0427 	 56.4521 	 32.5438
| 27> C 	 -10.3741 	 56.2862 	 31.1616
| 28> H 	 -9.26881 	 58.2214 	 33.8154
| 29> C 	 -9.70713 	 55.3646 	 33.4565
| 30> H 	 -8.66582 	 55.4958 	 33.7169
| 31> H 	 -9.75206 	 54.5147 	 32.7993
| 32> C 	 -10.673 	 55.161 	 34.5958
| 33> H 	 -11.659 	 55.0209 	 34.0929
| 34> H 	 -10.6196 	 56.0969 	 35.1407
| 35> C 	 -10.3377 	 53.923 	 35.5307
| 36> H 	 -9.32093 	 53.8747 	 35.8772
| 37> H 	 -10.4591 	 52.9735 	 34.9493
| 38> H 	 -11.0583 	 53.8753 	 36.3755
| 39> H 	 -11.7708 	 52.6021 	 28.3777
| 40> H 	 -10.3134 	 59.746 	 32.0407
| 41> *
| 42>
| 43>                          ****END OF INPUT****

CARTESIAN COORDINATES (ANGSTROEM)
---------------------------------
  S    -11.712400   54.966400   28.980100
  C    -11.147900   53.367700   28.762000
  C     -9.966860   53.031100   29.395300
  C     -9.496130   54.106800   30.195600
  C    -10.433700   55.105600   30.309600
  H     -8.555660   54.131100   30.745200
  C     -9.296590   51.711000   29.431200
  H     -9.725800   51.106100   30.203900
  H     -8.226800   51.825400   29.792300
  C     -9.432220   50.851900   28.162800
  H    -10.489900   50.684500   27.905500
  H     -9.145990   51.455700   27.313700
  C     -8.654920   49.498400   28.189800
  H     -7.585490   49.756900   28.253700
  H     -8.995340   48.887200   29.036900
  H     -8.547180   48.903500   27.274700
  S    -10.736000   57.838000   30.531000
  C    -10.233600   58.633900   31.929400
  C     -9.786650   57.830100   32.922600
  C    -10.042700   56.452100   32.543800
  C    -10.374100   56.286200   31.161600
  H     -9.268810   58.221400   33.815400
  C     -9.707130   55.364600   33.456500
  H     -8.665820   55.495800   33.716900
  H     -9.752060   54.514700   32.799300
  C    -10.673000   55.161000   34.595800
  H    -11.659000   55.020900   34.092900
  H    -10.619600   56.096900   35.140700
  C    -10.337700   53.923000   35.530700
  H     -9.320930   53.874700   35.877200
  H    -10.459100   52.973500   34.949300
  H    -11.058300   53.875300   36.375500
  H    -11.770800   52.602100   28.377700
  H    -10.313400   59.746000   32.040700

 Total Charge           Charge          ....    0
 Multiplicity           Mult            ....    1
 Number of Electrons    NEL             ....  134
 Basis Dimension        Dim             ....  322

ORBITAL ENERGIES
----------------

  NO   OCC          E(Eh)            E(eV)
   0   2.0000     -88.967419     -2420.9266
   1   2.0000     -88.962421     -2420.7906
   2   2.0000     -10.337474      -281.2970
   3   2.0000     -10.324708      -280.9496
   4   2.0000     -10.312445      -280.6159
   5   2.0000     -10.307274      -280.4752
   6   2.0000     -10.302355      -280.3413
   7   2.0000     -10.299596      -280.2663
   8   2.0000     -10.297967      -280.2219
   9   2.0000     -10.295809      -280.1632
  10   2.0000     -10.292900      -280.0840
  11   2.0000     -10.289937      -280.0034
  12   2.0000     -10.288052      -279.9521
  13   2.0000     -10.285508      -279.8829
  14   2.0000     -10.284266      -279.8491
  15   2.0000     -10.274490      -279.5831
  16   2.0000      -8.081768      -219.9161
  17   2.0000      -8.079263      -219.8479
  18   2.0000      -6.040215      -164.3626
  19   2.0000      -6.037651      -164.2928
  20   2.0000      -6.036784      -164.2693
  21   2.0000      -6.033395      -164.1770
  22   2.0000      -6.032166      -164.1436
  23   2.0000      -6.030125      -164.0881
  24   2.0000      -1.010990       -27.5104
  25   2.0000      -0.989219       -26.9180
  26   2.0000      -0.914190       -24.8764
  27   2.0000      -0.911058       -24.7911
  28   2.0000      -0.870578       -23.6896
  29   2.0000      -0.855915       -23.2906
  30   2.0000      -0.844416       -22.9777
  31   2.0000      -0.816809       -22.2265
  32   2.0000      -0.781683       -21.2707
  33   2.0000      -0.765369       -20.8268
  34   2.0000      -0.714641       -19.4464
  35   2.0000      -0.704771       -19.1778
  36   2.0000      -0.690436       -18.7877
  37   2.0000      -0.658244       -17.9117
  38   2.0000      -0.638734       -17.3808
  39   2.0000      -0.622610       -16.9421
  40   2.0000      -0.593388       -16.1469
  41   2.0000      -0.572226       -15.5711
  42   2.0000      -0.563336       -15.3292
  43   2.0000      -0.560772       -15.2594
  44   2.0000      -0.528412       -14.3788
  45   2.0000      -0.525841       -14.3089
  46   2.0000      -0.517484       -14.0815
  47   2.0000      -0.506858       -13.7923
  48   2.0000      -0.503327       -13.6962
  49   2.0000      -0.498948       -13.5771
  50   2.0000      -0.496696       -13.5158
  51   2.0000      -0.479863       -13.0577
  52   2.0000      -0.475031       -12.9263
  53   2.0000      -0.459316       -12.4986
  54   2.0000      -0.456554       -12.4235
  55   2.0000      -0.452763       -12.3203
  56   2.0000      -0.447711       -12.1828
  57   2.0000      -0.437020       -11.8919
  58   2.0000      -0.434806       -11.8317
  59   2.0000      -0.429875       -11.6975
  60   2.0000      -0.418849       -11.3975
  61   2.0000      -0.413121       -11.2416
  62   2.0000      -0.412269       -11.2184
  63   2.0000      -0.355352        -9.6696
  64   2.0000      -0.332762        -9.0549
  65   2.0000      -0.324132        -8.8201
  66   2.0000      -0.280165        -7.6237
  67   0.0000       0.023222         0.6319
  68   0.0000       0.066729         1.8158
  69   0.0000       0.096771         2.6333
  70   0.0000       0.115454         3.1417
  71   0.0000       0.140782         3.8309

MULLIKEN ATOMIC CHARGES
-----------------------
   0 S :    0.102158
   1 C :   -0.095912
   2 C :   -0.079011
   3 C :    0.025149
   4 C :   -0.151312
   5 H :    0.031870
   6 C :    0.060543
   7 H :    0.032082
   8 H :    0.029660
   9 C :   -0.093739
  10 H :    0.027118
  11 H :    0.023380
  12 C :   -0.052828
  13 H :    0.025387
  14 H :    0.043136
  15 H :    0.037590
  16 S :    0.111873
  17 C :   -0.097738
  18 C :   -0.037897
  19 C :   -0.097737
  20 C :   -0.136777
  21 H :    0.038193
  22 C :    0.077941
  23 H :    0.023428
  24 H :   -0.007218
  25 C :   -0.072404
  26 H :    0.043022
  27 H :    0.024641
  28 C :   -0.048850
  29 H :    0.028583
  30 H :    0.031257
  31 H :    0.045628
  32 H :    0.038961
  33 H :    0.069824
Sum of atomic charges:   -0.0000000

LOEWDIN ATOMIC CHARGES
----------------------
   0 S :    0.372034
   1 C :   -0.201891
   2 C :   -0.062806
   3 C :   -0.051116
   4 C :   -0.152852
   5 H :    0.038147
   6 C :   -0.036240
   7 H :    0.032829
   8 H :    0.037593
   9 C :   -0.044898
  10 H :    0.022454
  11 H :    0.021840
  12 C :   -0.074844
  13 H :    0.028797
  14 H :    0.027490
  15 H :    0.031403
  16 S :    0.440065
  17 C :   -0.206952
  18 C :   -0.081229
  19 C :   -0.049532
  20 C :   -0.222348
  21 H :    0.040985
  22 C :   -0.047329
  23 H :    0.027989
  24 H :    0.022933
  25 C :   -0.034583
  26 H :    0.035093
  27 H :    0.019443
  28 C :   -0.069653
  29 H :    0.020854
  30 H :    0.029274
  31 H :    0.030328
  32 H :    0.019078
  33 H :    0.037643

  Mayer bond orders larger than 0.100000
B(  0-S ,  1-C ) :   1.1287 B(  0-S ,  4-C ) :   1.1157 B(  1-C ,  2-C ) :   1.6456
B(  1-C , 32-H ) :   0.9592 B(  2-C ,  3-C ) :   1.2107 B(  2-C ,  6-C ) :   1.0324
B(  3-C ,  4-C ) :   1.5981 B(  3-C ,  5-H ) :   0.9865 B(  4-C , 20-C ) :   1.0733
B(  6-C ,  7-H ) :   0.9234 B(  6-C ,  8-H ) :   0.9424 B(  6-C ,  9-C ) :   1.0546
B(  9-C , 10-H ) :   0.9496 B(  9-C , 11-H ) :   0.9621 B(  9-C , 12-C ) :   1.0746
B( 12-C , 13-H ) :   0.9730 B( 12-C , 14-H ) :   0.9763 B( 12-C , 15-H ) :   0.9741
B( 16-S , 17-C ) :   1.1834 B( 16-S , 20-C ) :   1.1410 B( 17-C , 18-C ) :   1.6005
B( 17-C , 33-H ) :   0.9567 B( 18-C , 19-C ) :   1.2372 B( 18-C , 21-H ) :   0.9886
B( 19-C , 20-C ) :   1.5529 B( 19-C , 22-C ) :   1.0661 B( 22-C , 23-H ) :   0.9275
B( 22-C , 24-H ) :   0.9226 B( 22-C , 25-C ) :   1.0546 B( 25-C , 26-H ) :   0.9534
B( 25-C , 27-H ) :   0.9617 B( 25-C , 28-C ) :   1.0751 B( 28-C , 29-H ) :   0.9760
B( 28-C , 30-H ) :   0.9748 B( 28-C , 31-H ) :   0.9772

Dispersion correction           -0.013502412
FINAL SINGLE POINT ENERGY     -1339.859297005466

DIPOLE MOMENT
-------------
                                X             Y             Z
Electronic contribution:     -9.67721      25.51927     -11.41070
Nuclear contribution   :     10.09308     -25.95378      11.79984
                        -----------------------------------------
Total Dipole Moment    :      0.41587      -0.43452       0.38914
                        -----------------------------------------
Magnitude (a.u.)       :      0.71637
Magnitude (Debye)      :      1.82086

Rotational constants in cm-1:     0.018822     0.007786     0.006006
Rotational constants in MHz :   564.255847   233.427278   180.066255

                             ****ORCA TERMINATED NORMALLY****
TOTAL RUN TIME: 0 days 0 hours 0 minutes 32 seconds 894 msec
