                         Program Version 4.2.1 -  RELEASE  -
|  1> ! wB97X-D3 SP def2-SVP
|  2> %pal
|  3> nprocs 16
|  4> end
|  5>
|  6> * xyz 0 1
|  7> S 	 68.8869 	 24.162 	 70.9885
|  8> C 	 68.3068 	 22.9199 	 72.0504
|  9> C 	 68.5474 	 23.0884 	 73.3974
| 10> C 	 69.2619 	 24.3334 	 73.5532
| 11> C 	 69.4063 	 25.1073 	 72.3741
| 12> H 	 69.5906 	 24.7148 	 74.5277
| 13> C 	 68.1445 	 22.1429 	 74.5243
| 14> H 	 67.019 	 22.1731 	 74.6338
| 15> H 	 68.5489 	 22.505 	 75.4312
| 16> C 	 68.1765 	 20.6093 	 74.304
| 17> H 	 67.5605 	 20.2807 	 73.4323
| 18> H 	 69.2212 	 20.3446 	 74.0328
| 19> C 	 67.822 	 19.7111 	 75.492
| 20> H 	 68.4207 	 19.9602 	 76.3768
| 21> H 	 66.7939 	 19.8257 	 75.8163
| 22> H 	 67.9976 	 18.7032 	 75.2556
| 23> S 	 69.5723 	 27.8049 	 72.8356
| 24> C 	 70.9143 	 28.7261 	 72.2637
| 25> C 	 71.8316 	 27.8992 	 71.6748
| 26> C 	 71.4579 	 26.55 	 71.5898
| 27> C 	 70.2183 	 26.3062 	 72.1932
| 28> H 	 72.7522 	 28.342 	 71.2864
| 29> C 	 72.3645 	 25.5178 	 70.9632
| 30> H 	 72.9985 	 26.0018 	 70.2647
| 31> H 	 71.736 	 24.8848 	 70.3753
| 32> C 	 73.1051 	 24.6426 	 71.9496
| 33> H 	 72.4339 	 24.0927 	 72.6269
| 34> H 	 73.648 	 25.2372 	 72.7288
| 35> C 	 73.8634 	 23.5467 	 71.2445
| 36> H 	 74.2134 	 22.923 	 72.0834
| 37> H 	 74.6991 	 23.7234 	 70.605
| 38> H 	 73.1911 	 22.9403 	 70.6745
| 39> H 	 67.6119 	 22.1274 	 71.7391
| 40> H 	 70.9195 	 29.8301 	 72.2097
| 41> *
| 42>
| 43>                          ****END OF INPUT****

CARTESIAN COORDINATES (ANGSTROEM)
---------------------------------
  S     68.886900   24.162000   70.988500
  C     68.306800   22.919900   72.050400
  C     68.547400   23.088400   73.397400
  C     69.261900   24.333400   73.553200
  C     69.406300   25.107300   72.374100
  H     69.590600   24.714800   74.527700
  C     68.144500   22.142900   74.524300
  H     67.019000   22.173100   74.633800
  H     68.548900   22.505000   75.431200
  C     68.176500   20.609300   74.304000
  H     67.560500   20.280700   73.432300
  H     69.221200   20.344600   74.032800
  C     67.822000   19.711100   75.492000
  H     68.420700   19.960200   76.376800
  H     66.793900   19.825700   75.816300
  H     67.997600   18.703200   75.255600
  S     69.572300   27.804900   72.835600
  C     70.914300   28.726100   72.263700
  C     71.831600   27.899200   71.674800
  C     71.457900   26.550000   71.589800
  C     70.218300   26.306200   72.193200
  H     72.752200   28.342000   71.286400
  C     72.364500   25.517800   70.963200
  H     72.998500   26.001800   70.264700
  H     71.736000   24.884800   70.375300
  C     73.105100   24.642600   71.949600
  H     72.433900   24.092700   72.626900
  H     73.648000   25.237200   72.728800
  C     73.863400   23.546700   71.244500
  H     74.213400   22.923000   72.083400
  H     74.699100   23.723400   70.605000
  H     73.191100   22.940300   70.674500
  H     67.611900   22.127400   71.739100
  H     70.919500   29.830100   72.209700

 Total Charge           Charge          ....    0
 Multiplicity           Mult            ....    1
 Number of Electrons    NEL             ....  134
 Basis Dimension        Dim             ....  322

ORBITAL ENERGIES
----------------

  NO   OCC          E(Eh)            E(eV)
   0   2.0000     -88.971276     -2421.0315
   1   2.0000     -88.961591     -2420.7680
   2   2.0000     -10.332305      -281.1563
   3   2.0000     -10.324436      -280.9422
   4   2.0000     -10.313207      -280.6366
   5   2.0000     -10.313193      -280.6362
   6   2.0000     -10.306144      -280.4444
   7   2.0000     -10.302759      -280.3523
   8   2.0000     -10.300671      -280.2955
   9   2.0000     -10.298363      -280.2327
  10   2.0000     -10.296904      -280.1930
  11   2.0000     -10.287318      -279.9321
  12   2.0000     -10.283083      -279.8169
  13   2.0000     -10.279588      -279.7218
  14   2.0000     -10.279132      -279.7094
  15   2.0000     -10.268890      -279.4307
  16   2.0000      -8.085587      -220.0200
  17   2.0000      -8.076808      -219.7811
  18   2.0000      -6.044055      -164.4671
  19   2.0000      -6.040137      -164.3605
  20   2.0000      -6.036439      -164.2599
  21   2.0000      -6.035214      -164.2265
  22   2.0000      -6.031072      -164.1138
  23   2.0000      -6.027824      -164.0254
  24   2.0000      -1.005648       -27.3651
  25   2.0000      -0.985154       -26.8074
  26   2.0000      -0.912387       -24.8273
  27   2.0000      -0.911148       -24.7936
  28   2.0000      -0.868992       -23.6465
  29   2.0000      -0.853514       -23.2253
  30   2.0000      -0.849427       -23.1141
  31   2.0000      -0.810435       -22.0531
  32   2.0000      -0.787756       -21.4359
  33   2.0000      -0.772130       -21.0107
  34   2.0000      -0.707150       -19.2425
  35   2.0000      -0.701678       -19.0936
  36   2.0000      -0.691572       -18.8186
  37   2.0000      -0.658824       -17.9275
  38   2.0000      -0.636573       -17.3220
  39   2.0000      -0.615744       -16.7553
  40   2.0000      -0.596836       -16.2407
  41   2.0000      -0.571751       -15.5581
  42   2.0000      -0.564600       -15.3636
  43   2.0000      -0.557485       -15.1699
  44   2.0000      -0.530972       -14.4485
  45   2.0000      -0.528119       -14.3709
  46   2.0000      -0.516802       -14.0629
  47   2.0000      -0.514117       -13.9898
  48   2.0000      -0.504279       -13.7221
  49   2.0000      -0.501850       -13.6560
  50   2.0000      -0.490187       -13.3387
  51   2.0000      -0.478365       -13.0170
  52   2.0000      -0.469797       -12.7838
  53   2.0000      -0.466831       -12.7031
  54   2.0000      -0.459014       -12.4904
  55   2.0000      -0.451192       -12.2776
  56   2.0000      -0.445175       -12.1138
  57   2.0000      -0.440795       -11.9946
  58   2.0000      -0.433466       -11.7952
  59   2.0000      -0.432909       -11.7801
  60   2.0000      -0.416277       -11.3275
  61   2.0000      -0.409487       -11.1427
  62   2.0000      -0.407605       -11.0915
  63   2.0000      -0.338253        -9.2043
  64   2.0000      -0.332354        -9.0438
  65   2.0000      -0.327251        -8.9049
  66   2.0000      -0.294495        -8.0136
  67   0.0000       0.036988         1.0065
  68   0.0000       0.057804         1.5729
  69   0.0000       0.111531         3.0349
  70   0.0000       0.119150         3.2422
  71   0.0000       0.132138         3.5957

MULLIKEN ATOMIC CHARGES
-----------------------
   0 S :    0.129192
   1 C :   -0.136131
   2 C :   -0.071267
   3 C :    0.028741
   4 C :   -0.160749
   5 H :    0.015981
   6 C :    0.090073
   7 H :    0.041937
   8 H :    0.009791
   9 C :   -0.119819
  10 H :    0.038328
  11 H :    0.029977
  12 C :   -0.025645
  13 H :    0.028672
  14 H :    0.026092
  15 H :    0.031789
  16 S :    0.108169
  17 C :   -0.103776
  18 C :   -0.054912
  19 C :   -0.028715
  20 C :   -0.193726
  21 H :    0.018319
  22 C :    0.150689
  23 H :    0.004205
  24 H :   -0.004730
  25 C :   -0.085923
  26 H :    0.028058
  27 H :    0.027003
  28 C :   -0.018760
  29 H :    0.027009
  30 H :    0.027300
  31 H :    0.021352
  32 H :    0.050997
  33 H :    0.070482
Sum of atomic charges:   -0.0000000

LOEWDIN ATOMIC CHARGES
----------------------
   0 S :    0.423518
   1 C :   -0.204386
   2 C :   -0.065080
   3 C :   -0.053387
   4 C :   -0.205146
   5 H :    0.030440
   6 C :   -0.034935
   7 H :    0.046672
   8 H :    0.023720
   9 C :   -0.044984
  10 H :    0.027031
  11 H :    0.022076
  12 C :   -0.059489
  13 H :    0.027569
  14 H :    0.022204
  15 H :    0.024111
  16 S :    0.420554
  17 C :   -0.200485
  18 C :   -0.079583
  19 C :   -0.055010
  20 C :   -0.207693
  21 H :    0.033082
  22 C :   -0.027083
  23 H :    0.024460
  24 H :    0.020763
  25 C :   -0.042937
  26 H :    0.031111
  27 H :    0.026217
  28 C :   -0.063333
  29 H :    0.032141
  30 H :    0.017903
  31 H :    0.023591
  32 H :    0.028737
  33 H :    0.037630

  Mayer bond orders larger than 0.100000
B(  0-S ,  1-C ) :   1.1568 B(  0-S ,  4-C ) :   1.1515 B(  1-C ,  2-C ) :   1.6110
B(  1-C , 32-H ) :   0.9557 B(  2-C ,  3-C ) :   1.2575 B(  2-C ,  6-C ) :   1.0279
B(  3-C ,  4-C ) :   1.5685 B(  3-C ,  5-H ) :   0.9850 B(  4-C , 20-C ) :   1.0180
B(  6-C ,  7-H ) :   0.9314 B(  6-C ,  8-H ) :   0.9446 B(  6-C ,  9-C ) :   1.0443
B(  9-C , 10-H ) :   0.9523 B(  9-C , 11-H ) :   0.9579 B(  9-C , 12-C ) :   1.0903
B( 12-C , 13-H ) :   0.9736 B( 12-C , 14-H ) :   0.9743 B( 12-C , 15-H ) :   0.9728
B( 16-S , 17-C ) :   1.1722 B( 16-S , 20-C ) :   1.1629 B( 17-C , 18-C ) :   1.5789
B( 17-C , 20-C ) :   0.1054 B( 17-C , 33-H ) :   0.9632 B( 18-C , 19-C ) :   1.2769
B( 18-C , 21-H ) :   0.9906 B( 19-C , 20-C ) :   1.5555 B( 19-C , 22-C ) :   1.0430
B( 22-C , 23-H ) :   0.9280 B( 22-C , 24-H ) :   0.9158 B( 22-C , 25-C ) :   1.0714
B( 25-C , 26-H ) :   0.9503 B( 25-C , 27-H ) :   0.9540 B( 25-C , 28-C ) :   1.0763
B( 28-C , 29-H ) :   0.9729 B( 28-C , 30-H ) :   0.9778 B( 28-C , 31-H ) :   0.9705

Dispersion correction           -0.014198665
FINAL SINGLE POINT ENERGY     -1339.878666303109

DIPOLE MOMENT
-------------
                                X             Y             Z
Electronic contribution:     -8.60550      23.97777      -8.19829
Nuclear contribution   :      8.74715     -24.43440       8.41094
                        -----------------------------------------
Total Dipole Moment    :      0.14166      -0.45663       0.21265
                        -----------------------------------------
Magnitude (a.u.)       :      0.52326
Magnitude (Debye)      :      1.33002

Rotational constants in cm-1:     0.020424     0.007553     0.006431
Rotational constants in MHz :   612.307785   226.444905   192.793050

                             ****ORCA TERMINATED NORMALLY****
TOTAL RUN TIME: 0 days 0 hours 0 minutes 29 seconds 733 msec
