                         Program Version 4.2.1 -  RELEASE  -
|  1> ! wB97X-D3 SP def2-SVP
|  2> %pal
|  3> nprocs 16
|  4> end
|  5>
|  6> * xyz 0 1
|  7> S 	 -3.93252 	 8.7921 	 84.0768
|  8> C 	 -3.24146 	 7.28988 	 84.6477
|  9> C 	 -3.28214 	 6.32423 	 83.6421
| 10> C 	 -4.11391 	 6.63547 	 82.5717
| 11> C 	 -4.56706 	 7.98715 	 82.6548
| 12> H 	 -4.33467 	 6.20574 	 81.5826
| 13> C 	 -2.61749 	 5.01349 	 83.7955
| 14> H 	 -2.39312 	 4.85652 	 84.8623
| 15> H 	 -1.65284 	 5.13506 	 83.3535
| 16> C 	 -3.34243 	 3.75517 	 83.1697
| 17> H 	 -4.08684 	 3.30327 	 83.896
| 18> H 	 -3.86575 	 3.95961 	 82.2563
| 19> C 	 -2.41478 	 2.61981 	 82.8976
| 20> H 	 -1.82411 	 2.47626 	 83.8451
| 21> H 	 -2.98795 	 1.66328 	 82.8099
| 22> H 	 -1.74381 	 2.80161 	 82.035
| 23> S 	 -6.90354 	 9.09535 	 81.9754
| 24> C 	 -7.05328 	 9.8985 	 80.4553
| 25> C 	 -5.89834 	 9.84211 	 79.7557
| 26> C 	 -4.77331 	 9.25545 	 80.437
| 27> C 	 -5.22854 	 8.72554 	 81.6304
| 28> H 	 -5.92046 	 10.2327 	 78.7914
| 29> C 	 -3.33798 	 9.10681 	 79.9163
| 30> H 	 -3.27292 	 8.20604 	 79.3096
| 31> H 	 -2.75686 	 8.76023 	 80.8054
| 32> C 	 -2.7737 	 10.2753 	 79.0765
| 33> H 	 -2.77949 	 11.1061 	 79.7149
| 34> H 	 -3.41328 	 10.582 	 78.275
| 35> C 	 -1.4316 	 9.89717 	 78.4329
| 36> H 	 -1.12742 	 10.8289 	 77.916
| 37> H 	 -1.43837 	 9.08976 	 77.6568
| 38> H 	 -0.706995 	 9.69336 	 79.1962
| 39> H 	 -2.43193 	 7.2218 	 85.3716
| 40> H 	 -8.01579 	 10.2434 	 80.0491
| 41> *
| 42>
| 43>                          ****END OF INPUT****

CARTESIAN COORDINATES (ANGSTROEM)
---------------------------------
  S     -3.932520    8.792100   84.076800
  C     -3.241460    7.289880   84.647700
  C     -3.282140    6.324230   83.642100
  C     -4.113910    6.635470   82.571700
  C     -4.567060    7.987150   82.654800
  H     -4.334670    6.205740   81.582600
  C     -2.617490    5.013490   83.795500
  H     -2.393120    4.856520   84.862300
  H     -1.652840    5.135060   83.353500
  C     -3.342430    3.755170   83.169700
  H     -4.086840    3.303270   83.896000
  H     -3.865750    3.959610   82.256300
  C     -2.414780    2.619810   82.897600
  H     -1.824110    2.476260   83.845100
  H     -2.987950    1.663280   82.809900
  H     -1.743810    2.801610   82.035000
  S     -6.903540    9.095350   81.975400
  C     -7.053280    9.898500   80.455300
  C     -5.898340    9.842110   79.755700
  C     -4.773310    9.255450   80.437000
  C     -5.228540    8.725540   81.630400
  H     -5.920460   10.232700   78.791400
  C     -3.337980    9.106810   79.916300
  H     -3.272920    8.206040   79.309600
  H     -2.756860    8.760230   80.805400
  C     -2.773700   10.275300   79.076500
  H     -2.779490   11.106100   79.714900
  H     -3.413280   10.582000   78.275000
  C     -1.431600    9.897170   78.432900
  H     -1.127420   10.828900   77.916000
  H     -1.438370    9.089760   77.656800
  H     -0.706995    9.693360   79.196200
  H     -2.431930    7.221800   85.371600
  H     -8.015790   10.243400   80.049100

 Total Charge           Charge          ....    0
 Multiplicity           Mult            ....    1
 Number of Electrons    NEL             ....  134
 Basis Dimension        Dim             ....  322

ORBITAL ENERGIES
----------------

  NO   OCC          E(Eh)            E(eV)
   0   2.0000     -88.967148     -2420.9192
   1   2.0000     -88.959251     -2420.7043
   2   2.0000     -10.325969      -280.9839
   3   2.0000     -10.318006      -280.7672
   4   2.0000     -10.311486      -280.5898
   5   2.0000     -10.309065      -280.5239
   6   2.0000     -10.305539      -280.4280
   7   2.0000     -10.298465      -280.2355
   8   2.0000     -10.295691      -280.1600
   9   2.0000     -10.294907      -280.1387
  10   2.0000     -10.290141      -280.0090
  11   2.0000     -10.288546      -279.9656
  12   2.0000     -10.285390      -279.8797
  13   2.0000     -10.284458      -279.8543
  14   2.0000     -10.283733      -279.8346
  15   2.0000     -10.282738      -279.8075
  16   2.0000      -8.081520      -219.9093
  17   2.0000      -8.074987      -219.7316
  18   2.0000      -6.039734      -164.3495
  19   2.0000      -6.036086      -164.2503
  20   2.0000      -6.033385      -164.1768
  21   2.0000      -6.032595      -164.1553
  22   2.0000      -6.029369      -164.0675
  23   2.0000      -6.025772      -163.9696
  24   2.0000      -1.008516       -27.4431
  25   2.0000      -0.984877       -26.7999
  26   2.0000      -0.912684       -24.8354
  27   2.0000      -0.908191       -24.7131
  28   2.0000      -0.874270       -23.7901
  29   2.0000      -0.853733       -23.2313
  30   2.0000      -0.849518       -23.1166
  31   2.0000      -0.815815       -22.1995
  32   2.0000      -0.782182       -21.2843
  33   2.0000      -0.766111       -20.8469
  34   2.0000      -0.712014       -19.3749
  35   2.0000      -0.705402       -19.1950
  36   2.0000      -0.686639       -18.6844
  37   2.0000      -0.654582       -17.8121
  38   2.0000      -0.642686       -17.4884
  39   2.0000      -0.614968       -16.7341
  40   2.0000      -0.597486       -16.2584
  41   2.0000      -0.566110       -15.4046
  42   2.0000      -0.565075       -15.3765
  43   2.0000      -0.564305       -15.3555
  44   2.0000      -0.532503       -14.4901
  45   2.0000      -0.524207       -14.2644
  46   2.0000      -0.520312       -14.1584
  47   2.0000      -0.508539       -13.8380
  48   2.0000      -0.505472       -13.7546
  49   2.0000      -0.495152       -13.4738
  50   2.0000      -0.493608       -13.4317
  51   2.0000      -0.475439       -12.9373
  52   2.0000      -0.469759       -12.7828
  53   2.0000      -0.462429       -12.5833
  54   2.0000      -0.458070       -12.4647
  55   2.0000      -0.451284       -12.2801
  56   2.0000      -0.446972       -12.1627
  57   2.0000      -0.438474       -11.9315
  58   2.0000      -0.430004       -11.7010
  59   2.0000      -0.426835       -11.6148
  60   2.0000      -0.423750       -11.5308
  61   2.0000      -0.418301       -11.3826
  62   2.0000      -0.412022       -11.2117
  63   2.0000      -0.336357        -9.1527
  64   2.0000      -0.328097        -8.9280
  65   2.0000      -0.321511        -8.7488
  66   2.0000      -0.301514        -8.2046
  67   0.0000       0.036538         0.9942
  68   0.0000       0.056394         1.5346
  69   0.0000       0.118499         3.2245
  70   0.0000       0.127789         3.4773
  71   0.0000       0.130826         3.5600

MULLIKEN ATOMIC CHARGES
-----------------------
   0 S :    0.125221
   1 C :   -0.100071
   2 C :   -0.105769
   3 C :    0.028627
   4 C :   -0.194655
   5 H :    0.029377
   6 C :    0.082607
   7 H :    0.024263
   8 H :    0.026747
   9 C :   -0.080970
  10 H :    0.043268
  11 H :    0.031389
  12 C :   -0.086337
  13 H :    0.029390
  14 H :    0.040240
  15 H :    0.044398
  16 S :    0.111631
  17 C :   -0.089873
  18 C :   -0.030054
  19 C :    0.016999
  20 C :   -0.227688
  21 H :   -0.009878
  22 C :    0.068631
  23 H :    0.022875
  24 H :    0.035027
  25 C :   -0.059089
  26 H :    0.023729
  27 H :    0.025341
  28 C :   -0.055302
  29 H :    0.034176
  30 H :    0.046744
  31 H :    0.033178
  32 H :    0.054114
  33 H :    0.061713
Sum of atomic charges:    0.0000000

LOEWDIN ATOMIC CHARGES
----------------------
   0 S :    0.419494
   1 C :   -0.217892
   2 C :   -0.062215
   3 C :   -0.066935
   4 C :   -0.198954
   5 H :    0.040192
   6 C :   -0.033001
   7 H :    0.034504
   8 H :    0.031037
   9 C :   -0.044145
  10 H :    0.035358
  11 H :    0.018434
  12 C :   -0.073355
  13 H :    0.027465
  14 H :    0.031209
  15 H :    0.024602
  16 S :    0.413071
  17 C :   -0.191684
  18 C :   -0.071355
  19 C :   -0.047615
  20 C :   -0.212347
  21 H :    0.019175
  22 C :   -0.036221
  23 H :    0.029865
  24 H :    0.037856
  25 C :   -0.034809
  26 H :    0.020948
  27 H :    0.023021
  28 C :   -0.064059
  29 H :    0.031482
  30 H :    0.031514
  31 H :    0.022095
  32 H :    0.029144
  33 H :    0.034126

  Mayer bond orders larger than 0.100000
B(  0-S ,  1-C ) :   1.1405 B(  0-S ,  4-C ) :   1.1913 B(  1-C ,  2-C ) :   1.5918
B(  1-C ,  4-C ) :   0.1107 B(  1-C , 32-H ) :   0.9577 B(  2-C ,  3-C ) :   1.2634
B(  2-C ,  6-C ) :   1.0243 B(  3-C ,  4-C ) :   1.5296 B(  3-C ,  5-H ) :   0.9902
B(  4-C , 20-C ) :   1.0303 B(  6-C ,  7-H ) :   0.9370 B(  6-C ,  8-H ) :   0.9273
B(  6-C ,  9-C ) :   1.0530 B(  9-C , 10-H ) :   0.9573 B(  9-C , 11-H ) :   0.9561
B(  9-C , 12-C ) :   1.0877 B( 12-C , 13-H ) :   0.9722 B( 12-C , 14-H ) :   0.9729
B( 12-C , 15-H ) :   0.9752 B( 16-S , 17-C ) :   1.1446 B( 16-S , 20-C ) :   1.1566
B( 17-C , 18-C ) :   1.6412 B( 17-C , 33-H ) :   0.9626 B( 18-C , 19-C ) :   1.1982
B( 18-C , 21-H ) :   0.9979 B( 19-C , 20-C ) :   1.6030 B( 19-C , 22-C ) :   1.0421
B( 22-C , 23-H ) :   0.9339 B( 22-C , 24-H ) :   0.9260 B( 22-C , 25-C ) :   1.0487
B( 25-C , 26-H ) :   0.9589 B( 25-C , 27-H ) :   0.9533 B( 25-C , 28-C ) :   1.0840
B( 28-C , 29-H ) :   0.9735 B( 28-C , 30-H ) :   0.9745 B( 28-C , 31-H ) :   0.9762

Dispersion correction           -0.013664106
FINAL SINGLE POINT ENERGY     -1339.866717330365

DIPOLE MOMENT
-------------
                                X             Y             Z
Electronic contribution:    -19.14544      14.89943      12.34453
Nuclear contribution   :     19.65232     -15.13305     -12.93619
                        -----------------------------------------
Total Dipole Moment    :      0.50688      -0.23362      -0.59166
                        -----------------------------------------
Magnitude (a.u.)       :      0.81337
Magnitude (Debye)      :      2.06741

Rotational constants in cm-1:     0.016534     0.008136     0.006828
Rotational constants in MHz :   495.684522   243.897322   204.710313

                             ****ORCA TERMINATED NORMALLY****
TOTAL RUN TIME: 0 days 0 hours 0 minutes 33 seconds 622 msec
