                         Program Version 4.2.1 -  RELEASE  -
|  1> ! wB97X-D3 SP def2-SVP
|  2> %pal
|  3> nprocs 16
|  4> end
|  5>
|  6> * xyz 0 1
|  7> S 	 -88.2509 	 50.8904 	 132.025
|  8> C 	 -89.5247 	 52.1194 	 132.089
|  9> C 	 -89.2024 	 53.1079 	 131.193
| 10> C 	 -88.0651 	 52.8113 	 130.368
| 11> C 	 -87.4647 	 51.6334 	 130.682
| 12> H 	 -87.754 	 53.5059 	 129.582
| 13> C 	 -90.1079 	 54.2862 	 130.868
| 14> H 	 -90.9601 	 53.8331 	 130.491
| 15> H 	 -89.8392 	 54.9128 	 129.995
| 16> C 	 -90.6074 	 55.165 	 132.045
| 17> H 	 -91.6587 	 55.4429 	 131.894
| 18> H 	 -90.6825 	 54.567 	 133.003
| 19> C 	 -89.6545 	 56.3859 	 132.4
| 20> H 	 -90.0315 	 56.8828 	 133.321
| 21> H 	 -88.5554 	 56.2093 	 132.452
| 22> H 	 -89.6721 	 57.1395 	 131.583
| 23> S 	 -86.5735 	 49.2727 	 129.41
| 24> C 	 -84.9826 	 49.228 	 128.825
| 25> C 	 -84.3763 	 50.4308 	 128.795
| 26> C 	 -85.1291 	 51.45 	 129.491
| 27> C 	 -86.4102 	 50.9848 	 129.922
| 28> H 	 -83.4683 	 50.5923 	 128.302
| 29> C 	 -84.4655 	 52.7353 	 129.844
| 30> H 	 -85.2576 	 53.4289 	 130.014
| 31> H 	 -84.0448 	 53.1513 	 128.974
| 32> C 	 -83.5593 	 52.7595 	 131.059
| 33> H 	 -83.0769 	 53.705 	 131.148
| 34> H 	 -82.7312 	 52.0625 	 130.901
| 35> C 	 -84.3347 	 52.4635 	 132.393
| 36> H 	 -85.0568 	 51.6733 	 132.342
| 37> H 	 -84.8648 	 53.3479 	 132.586
| 38> H 	 -83.7991 	 52.2168 	 133.377
| 39> H 	 -90.5667 	 51.8704 	 132.395
| 40> H 	 -84.6705 	 48.3642 	 128.222
| 41> *
| 42>
| 43>                          ****END OF INPUT****

CARTESIAN COORDINATES (ANGSTROEM)
---------------------------------
  S    -88.250900   50.890400  132.025000
  C    -89.524700   52.119400  132.089000
  C    -89.202400   53.107900  131.193000
  C    -88.065100   52.811300  130.368000
  C    -87.464700   51.633400  130.682000
  H    -87.754000   53.505900  129.582000
  C    -90.107900   54.286200  130.868000
  H    -90.960100   53.833100  130.491000
  H    -89.839200   54.912800  129.995000
  C    -90.607400   55.165000  132.045000
  H    -91.658700   55.442900  131.894000
  H    -90.682500   54.567000  133.003000
  C    -89.654500   56.385900  132.400000
  H    -90.031500   56.882800  133.321000
  H    -88.555400   56.209300  132.452000
  H    -89.672100   57.139500  131.583000
  S    -86.573500   49.272700  129.410000
  C    -84.982600   49.228000  128.825000
  C    -84.376300   50.430800  128.795000
  C    -85.129100   51.450000  129.491000
  C    -86.410200   50.984800  129.922000
  H    -83.468300   50.592300  128.302000
  C    -84.465500   52.735300  129.844000
  H    -85.257600   53.428900  130.014000
  H    -84.044800   53.151300  128.974000
  C    -83.559300   52.759500  131.059000
  H    -83.076900   53.705000  131.148000
  H    -82.731200   52.062500  130.901000
  C    -84.334700   52.463500  132.393000
  H    -85.056800   51.673300  132.342000
  H    -84.864800   53.347900  132.586000
  H    -83.799100   52.216800  133.377000
  H    -90.566700   51.870400  132.395000
  H    -84.670500   48.364200  128.222000

 Total Charge           Charge          ....    0
 Multiplicity           Mult            ....    1
 Number of Electrons    NEL             ....  134
 Basis Dimension        Dim             ....  322

ORBITAL ENERGIES
----------------

  NO   OCC          E(Eh)            E(eV)
   0   2.0000     -88.964798     -2420.8552
   1   2.0000     -88.963357     -2420.8160
   2   2.0000     -10.333241      -281.1818
   3   2.0000     -10.328823      -281.0616
   4   2.0000     -10.314003      -280.6583
   5   2.0000     -10.313310      -280.6394
   6   2.0000     -10.307854      -280.4910
   7   2.0000     -10.303629      -280.3760
   8   2.0000     -10.297109      -280.1986
   9   2.0000     -10.292501      -280.0732
  10   2.0000     -10.289581      -279.9937
  11   2.0000     -10.287621      -279.9404
  12   2.0000     -10.286316      -279.9049
  13   2.0000     -10.285833      -279.8917
  14   2.0000     -10.281779      -279.7814
  15   2.0000     -10.270418      -279.4723
  16   2.0000      -8.080057      -219.8695
  17   2.0000      -8.078294      -219.8215
  18   2.0000      -6.038510      -164.3162
  19   2.0000      -6.036908      -164.2726
  20   2.0000      -6.034465      -164.2061
  21   2.0000      -6.032626      -164.1561
  22   2.0000      -6.030859      -164.1080
  23   2.0000      -6.029052      -164.0588
  24   2.0000      -1.008472       -27.4419
  25   2.0000      -0.987633       -26.8748
  26   2.0000      -0.912646       -24.8344
  27   2.0000      -0.906765       -24.6743
  28   2.0000      -0.866883       -23.5891
  29   2.0000      -0.846517       -23.0349
  30   2.0000      -0.840682       -22.8761
  31   2.0000      -0.814127       -22.1535
  32   2.0000      -0.785933       -21.3863
  33   2.0000      -0.773338       -21.0436
  34   2.0000      -0.711491       -19.3607
  35   2.0000      -0.703846       -19.1526
  36   2.0000      -0.693921       -18.8825
  37   2.0000      -0.658348       -17.9146
  38   2.0000      -0.636995       -17.3335
  39   2.0000      -0.620014       -16.8714
  40   2.0000      -0.600039       -16.3279
  41   2.0000      -0.571752       -15.5582
  42   2.0000      -0.553239       -15.0544
  43   2.0000      -0.549829       -14.9616
  44   2.0000      -0.546217       -14.8633
  45   2.0000      -0.526546       -14.3280
  46   2.0000      -0.515395       -14.0246
  47   2.0000      -0.505029       -13.7425
  48   2.0000      -0.500759       -13.6263
  49   2.0000      -0.498471       -13.5641
  50   2.0000      -0.485949       -13.2233
  51   2.0000      -0.479146       -13.0382
  52   2.0000      -0.472540       -12.8585
  53   2.0000      -0.465454       -12.6657
  54   2.0000      -0.452869       -12.3232
  55   2.0000      -0.449407       -12.2290
  56   2.0000      -0.440666       -11.9911
  57   2.0000      -0.436240       -11.8707
  58   2.0000      -0.429430       -11.6854
  59   2.0000      -0.426915       -11.6169
  60   2.0000      -0.419744       -11.4218
  61   2.0000      -0.412204       -11.2166
  62   2.0000      -0.410041       -11.1578
  63   2.0000      -0.344861        -9.3841
  64   2.0000      -0.331825        -9.0294
  65   2.0000      -0.326862        -8.8944
  66   2.0000      -0.295685        -8.0460
  67   0.0000       0.021022         0.5720
  68   0.0000       0.072341         1.9685
  69   0.0000       0.112337         3.0568
  70   0.0000       0.118205         3.2165
  71   0.0000       0.127786         3.4772

MULLIKEN ATOMIC CHARGES
-----------------------
   0 S :    0.103411
   1 C :   -0.150962
   2 C :   -0.075594
   3 C :    0.026366
   4 C :   -0.146795
   5 H :    0.021389
   6 C :    0.068369
   7 H :    0.014835
   8 H :    0.022912
   9 C :   -0.091640
  10 H :    0.030215
  11 H :    0.037093
  12 C :   -0.080267
  13 H :    0.044355
  14 H :    0.045828
  15 H :    0.024010
  16 S :    0.109138
  17 C :   -0.086395
  18 C :   -0.006001
  19 C :   -0.073706
  20 C :   -0.155811
  21 H :   -0.000670
  22 C :    0.119333
  23 H :   -0.013323
  24 H :    0.008621
  25 C :   -0.017308
  26 H :    0.023229
  27 H :    0.022438
  28 C :   -0.062029
  29 H :    0.029836
  30 H :    0.017731
  31 H :    0.041247
  32 H :    0.081233
  33 H :    0.068913
Sum of atomic charges:   -0.0000000

LOEWDIN ATOMIC CHARGES
----------------------
   0 S :    0.405185
   1 C :   -0.212421
   2 C :   -0.053369
   3 C :   -0.068477
   4 C :   -0.198583
   5 H :    0.034396
   6 C :   -0.038662
   7 H :    0.028510
   8 H :    0.033410
   9 C :   -0.042974
  10 H :    0.025264
  11 H :    0.029862
  12 C :   -0.078076
  13 H :    0.029472
  14 H :    0.031408
  15 H :    0.021571
  16 S :    0.410900
  17 C :   -0.195641
  18 C :   -0.068304
  19 C :   -0.040371
  20 C :   -0.192753
  21 H :    0.023754
  22 C :   -0.034843
  23 H :    0.024910
  24 H :    0.027938
  25 C :   -0.027046
  26 H :    0.022648
  27 H :    0.020378
  28 C :   -0.069022
  29 H :    0.019272
  30 H :    0.018462
  31 H :    0.036425
  32 H :    0.042754
  33 H :    0.034024

  Mayer bond orders larger than 0.100000
B(  0-S ,  1-C ) :   1.1196 B(  0-S ,  4-C ) :   1.1581 B(  1-C ,  2-C ) :   1.6139
B(  1-C , 32-H ) :   0.9570 B(  2-C ,  3-C ) :   1.2530 B(  2-C ,  6-C ) :   1.0151
B(  3-C ,  4-C ) :   1.5536 B(  3-C ,  5-H ) :   0.9941 B(  4-C , 20-C ) :   1.0556
B(  6-C ,  7-H ) :   0.9294 B(  6-C ,  8-H ) :   0.9506 B(  6-C ,  9-C ) :   1.0637
B(  9-C , 10-H ) :   0.9586 B(  9-C , 11-H ) :   0.9609 B(  9-C , 12-C ) :   1.0582
B( 12-C , 13-H ) :   0.9773 B( 12-C , 14-H ) :   0.9791 B( 12-C , 15-H ) :   0.9772
B( 16-S , 17-C ) :   1.1731 B( 16-S , 20-C ) :   1.1357 B( 17-C , 18-C ) :   1.6008
B( 17-C , 33-H ) :   0.9566 B( 18-C , 19-C ) :   1.2433 B( 18-C , 21-H ) :   1.0005
B( 19-C , 20-C ) :   1.5640 B( 19-C , 22-C ) :   1.0591 B( 22-C , 23-H ) :   0.9150
B( 22-C , 24-H ) :   0.9175 B( 22-C , 25-C ) :   1.0732 B( 25-C , 26-H ) :   0.9556
B( 25-C , 27-H ) :   0.9580 B( 25-C , 28-C ) :   1.0516 B( 28-C , 29-H ) :   0.9796
B( 28-C , 30-H ) :   0.9766 B( 28-C , 31-H ) :   0.9763

Dispersion correction           -0.015036997
FINAL SINGLE POINT ENERGY     -1339.862846072286

DIPOLE MOMENT
-------------
                                X             Y             Z
Electronic contribution:     -1.13729     -25.19176      -7.15613
Nuclear contribution   :      1.10602      25.69460       6.73093
                        -----------------------------------------
Total Dipole Moment    :     -0.03127       0.50284      -0.42520
                        -----------------------------------------
Magnitude (a.u.)       :      0.65926
Magnitude (Debye)      :      1.67570

Rotational constants in cm-1:     0.022019     0.008231     0.006984
Rotational constants in MHz :   660.102032   246.772856   209.377786

                             ****ORCA TERMINATED NORMALLY****
TOTAL RUN TIME: 0 days 0 hours 0 minutes 34 seconds 181 msec
