                         Program Version 4.2.1 -  RELEASE  -
|  1> ! wB97X-D3 SP def2-SVP
|  2> %pal
|  3> nprocs 16
|  4> end
|  5>
|  6> * xyz 0 1
|  7> S 	 40.0615 	 9.87802 	 80.7482
|  8> C 	 40.8918 	 10.5734 	 82.1588
|  9> C 	 41.776 	 11.5702 	 81.7622
| 10> C 	 41.8052 	 11.7035 	 80.3412
| 11> C 	 40.9234 	 10.8759 	 79.6935
| 12> H 	 42.4393 	 12.3485 	 79.7863
| 13> C 	 42.4995 	 12.5132 	 82.6926
| 14> H 	 43.2757 	 13.1012 	 82.1258
| 15> H 	 43.0066 	 11.8418 	 83.3455
| 16> C 	 41.4453 	 13.432 	 83.3033
| 17> H 	 40.6562 	 12.8905 	 83.8102
| 18> H 	 41.9814 	 13.8464 	 84.1397
| 19> C 	 40.9487 	 14.5367 	 82.3121
| 20> H 	 40.4576 	 14.1208 	 81.4786
| 21> H 	 40.2834 	 15.2651 	 82.9039
| 22> H 	 41.7554 	 15.1647 	 81.8115
| 23> S 	 41.9512 	 11.0775 	 77.0786
| 24> C 	 40.8511 	 11.1078 	 75.791
| 25> C 	 39.5208 	 11.2562 	 76.2137
| 26> C 	 39.3656 	 11.3573 	 77.6358
| 27> C 	 40.5747 	 11.1033 	 78.2673
| 28> H 	 38.6885 	 11.3413 	 75.5149
| 29> C 	 37.9761 	 11.408 	 78.2535
| 30> H 	 37.6465 	 10.4704 	 78.7227
| 31> H 	 37.206 	 11.4976 	 77.4057
| 32> C 	 37.6212 	 12.5511 	 79.2785
| 33> H 	 38.0836 	 12.4212 	 80.2978
| 34> H 	 36.5245 	 12.4811 	 79.3625
| 35> C 	 38.1737 	 13.9462 	 78.8647
| 36> H 	 39.2304 	 13.8501 	 78.651
| 37> H 	 37.9402 	 14.6721 	 79.6214
| 38> H 	 37.7756 	 14.3034 	 77.9128
| 39> H 	 40.4923 	 10.5411 	 83.1869
| 40> H 	 41.0265 	 11.0036 	 74.7945
| 41> *
| 42>
| 43>                          ****END OF INPUT****

CARTESIAN COORDINATES (ANGSTROEM)
---------------------------------
  S     40.061500    9.878020   80.748200
  C     40.891800   10.573400   82.158800
  C     41.776000   11.570200   81.762200
  C     41.805200   11.703500   80.341200
  C     40.923400   10.875900   79.693500
  H     42.439300   12.348500   79.786300
  C     42.499500   12.513200   82.692600
  H     43.275700   13.101200   82.125800
  H     43.006600   11.841800   83.345500
  C     41.445300   13.432000   83.303300
  H     40.656200   12.890500   83.810200
  H     41.981400   13.846400   84.139700
  C     40.948700   14.536700   82.312100
  H     40.457600   14.120800   81.478600
  H     40.283400   15.265100   82.903900
  H     41.755400   15.164700   81.811500
  S     41.951200   11.077500   77.078600
  C     40.851100   11.107800   75.791000
  C     39.520800   11.256200   76.213700
  C     39.365600   11.357300   77.635800
  C     40.574700   11.103300   78.267300
  H     38.688500   11.341300   75.514900
  C     37.976100   11.408000   78.253500
  H     37.646500   10.470400   78.722700
  H     37.206000   11.497600   77.405700
  C     37.621200   12.551100   79.278500
  H     38.083600   12.421200   80.297800
  H     36.524500   12.481100   79.362500
  C     38.173700   13.946200   78.864700
  H     39.230400   13.850100   78.651000
  H     37.940200   14.672100   79.621400
  H     37.775600   14.303400   77.912800
  H     40.492300   10.541100   83.186900
  H     41.026500   11.003600   74.794500

 Total Charge           Charge          ....    0
 Multiplicity           Mult            ....    1
 Number of Electrons    NEL             ....  134
 Basis Dimension        Dim             ....  322

ORBITAL ENERGIES
----------------

  NO   OCC          E(Eh)            E(eV)
   0   2.0000     -88.969547     -2420.9845
   1   2.0000     -88.969059     -2420.9712
   2   2.0000     -10.333444      -281.1873
   3   2.0000     -10.325190      -280.9627
   4   2.0000     -10.312831      -280.6264
   5   2.0000     -10.309558      -280.5373
   6   2.0000     -10.306707      -280.4597
   7   2.0000     -10.301199      -280.3099
   8   2.0000     -10.299564      -280.2654
   9   2.0000     -10.294347      -280.1234
  10   2.0000     -10.293185      -280.0918
  11   2.0000     -10.291302      -280.0406
  12   2.0000     -10.289628      -279.9950
  13   2.0000     -10.288464      -279.9634
  14   2.0000     -10.286741      -279.9164
  15   2.0000     -10.269918      -279.4587
  16   2.0000      -8.084287      -219.9846
  17   2.0000      -8.083536      -219.9642
  18   2.0000      -6.042811      -164.4332
  19   2.0000      -6.042015      -164.4116
  20   2.0000      -6.038668      -164.3205
  21   2.0000      -6.038078      -164.3044
  22   2.0000      -6.035164      -164.2252
  23   2.0000      -6.034375      -164.2037
  24   2.0000      -1.007887       -27.4260
  25   2.0000      -0.984886       -26.8001
  26   2.0000      -0.917276       -24.9604
  27   2.0000      -0.900063       -24.4920
  28   2.0000      -0.861233       -23.4353
  29   2.0000      -0.849246       -23.1091
  30   2.0000      -0.844418       -22.9778
  31   2.0000      -0.807503       -21.9733
  32   2.0000      -0.783755       -21.3270
  33   2.0000      -0.775118       -21.0920
  34   2.0000      -0.710884       -19.3441
  35   2.0000      -0.704111       -19.1598
  36   2.0000      -0.683957       -18.6114
  37   2.0000      -0.664361       -18.0782
  38   2.0000      -0.638454       -17.3732
  39   2.0000      -0.608510       -16.5584
  40   2.0000      -0.591373       -16.0921
  41   2.0000      -0.573619       -15.6090
  42   2.0000      -0.557267       -15.1640
  43   2.0000      -0.545163       -14.8346
  44   2.0000      -0.544676       -14.8214
  45   2.0000      -0.535178       -14.5629
  46   2.0000      -0.512819       -13.9545
  47   2.0000      -0.508864       -13.8469
  48   2.0000      -0.497068       -13.5259
  49   2.0000      -0.491595       -13.3770
  50   2.0000      -0.485200       -13.2030
  51   2.0000      -0.481207       -13.0943
  52   2.0000      -0.475583       -12.9413
  53   2.0000      -0.464748       -12.6464
  54   2.0000      -0.463831       -12.6215
  55   2.0000      -0.444970       -12.1082
  56   2.0000      -0.438079       -11.9207
  57   2.0000      -0.437792       -11.9129
  58   2.0000      -0.430964       -11.7271
  59   2.0000      -0.430688       -11.7196
  60   2.0000      -0.425328       -11.5738
  61   2.0000      -0.412235       -11.2175
  62   2.0000      -0.405342       -11.0299
  63   2.0000      -0.342088        -9.3087
  64   2.0000      -0.333608        -9.0779
  65   2.0000      -0.330379        -8.9901
  66   2.0000      -0.289872        -7.8878
  67   0.0000       0.026331         0.7165
  68   0.0000       0.067682         1.8417
  69   0.0000       0.102830         2.7982
  70   0.0000       0.119262         3.2453
  71   0.0000       0.127263         3.4630

MULLIKEN ATOMIC CHARGES
-----------------------
   0 S :    0.114176
   1 C :   -0.148512
   2 C :   -0.107732
   3 C :    0.022389
   4 C :   -0.112850
   5 H :   -0.004090
   6 C :    0.068054
   7 H :    0.032745
   8 H :    0.032036
   9 C :   -0.040794
  10 H :    0.024524
  11 H :    0.018900
  12 C :   -0.076065
  13 H :    0.040739
  14 H :    0.051232
  15 H :    0.036840
  16 S :    0.112484
  17 C :   -0.030861
  18 C :   -0.062128
  19 C :   -0.010075
  20 C :   -0.178143
  21 H :    0.020621
  22 C :    0.009199
  23 H :    0.046397
  24 H :    0.026144
  25 C :   -0.093742
  26 H :    0.042331
  27 H :    0.035878
  28 C :   -0.047404
  29 H :    0.045262
  30 H :    0.037975
  31 H :    0.016445
  32 H :    0.060743
  33 H :    0.017281
Sum of atomic charges:   -0.0000000

LOEWDIN ATOMIC CHARGES
----------------------
   0 S :    0.432743
   1 C :   -0.214414
   2 C :   -0.053189
   3 C :   -0.070030
   4 C :   -0.213043
   5 H :    0.020729
   6 C :   -0.029620
   7 H :    0.036055
   8 H :    0.030058
   9 C :   -0.035801
  10 H :    0.023321
  11 H :    0.021223
  12 C :   -0.068167
  13 H :    0.018591
  14 H :    0.037482
  15 H :    0.033333
  16 S :    0.407520
  17 C :   -0.189827
  18 C :   -0.068675
  19 C :   -0.062994
  20 C :   -0.168273
  21 H :    0.029758
  22 C :   -0.042192
  23 H :    0.033096
  24 H :    0.036883
  25 C :   -0.042470
  26 H :    0.026134
  27 H :    0.025428
  28 C :   -0.068342
  29 H :    0.027310
  30 H :    0.023778
  31 H :    0.020341
  32 H :    0.031715
  33 H :    0.011538

  Mayer bond orders larger than 0.100000
B(  0-S ,  1-C ) :   1.1293 B(  0-S ,  4-C ) :   1.1789 B(  1-C ,  2-C ) :   1.6035
B(  1-C , 32-H ) :   0.9600 B(  2-C ,  3-C ) :   1.2695 B(  2-C ,  6-C ) :   1.0042
B(  3-C ,  4-C ) :   1.5415 B(  3-C ,  5-H ) :   0.9981 B(  4-C , 20-C ) :   1.0081
B(  6-C ,  7-H ) :   0.9475 B(  6-C ,  8-H ) :   0.9350 B(  6-C ,  9-C ) :   1.0717
B(  9-C , 10-H ) :   0.9585 B(  9-C , 11-H ) :   0.9538 B(  9-C , 12-C ) :   1.0555
B( 12-C , 13-H ) :   0.9775 B( 12-C , 14-H ) :   0.9746 B( 12-C , 15-H ) :   0.9732
B( 16-S , 17-C ) :   1.1595 B( 16-S , 20-C ) :   1.1337 B( 17-C , 18-C ) :   1.6093
B( 17-C , 33-H ) :   0.9759 B( 18-C , 19-C ) :   1.2397 B( 18-C , 21-H ) :   0.9818
B( 19-C , 20-C ) :   1.5868 B( 19-C , 22-C ) :   1.0332 B( 22-C , 23-H ) :   0.9433
B( 22-C , 24-H ) :   0.9395 B( 22-C , 25-C ) :   1.0584 B( 25-C , 26-H ) :   0.9559
B( 25-C , 27-H ) :   0.9582 B( 25-C , 28-C ) :   1.0785 B( 28-C , 29-H ) :   0.9659
B( 28-C , 30-H ) :   0.9762 B( 28-C , 31-H ) :   0.9750

Dispersion correction           -0.016671589
FINAL SINGLE POINT ENERGY     -1339.867672094235

DIPOLE MOMENT
-------------
                                X             Y             Z
Electronic contribution:      9.02970     -19.46958     -11.57035
Nuclear contribution   :     -9.25677      19.89692      11.75588
                        -----------------------------------------
Total Dipole Moment    :     -0.22707       0.42734       0.18553
                        -----------------------------------------
Magnitude (a.u.)       :      0.51827
Magnitude (Debye)      :      1.31733

Rotational constants in cm-1:     0.019701     0.009733     0.008668
Rotational constants in MHz :   590.622278   291.789486   259.865172

                             ****ORCA TERMINATED NORMALLY****
TOTAL RUN TIME: 0 days 0 hours 0 minutes 31 seconds 47 msec
