                         Program Version 4.2.1 -  RELEASE  -
|  1> ! wB97X-D3 SP def2-SVP
|  2> %pal
|  3> nprocs 16
|  4> end
|  5>
|  6> * xyz 0 1
|  7> S 	 0.806756 	 76.6687 	 46.0597
|  8> C 	 -0.360985 	 75.4544 	 46.4352
|  9> C 	 -0.0604994 	 74.1616 	 46.2427
| 10> C 	 1.27502 	 74.1578 	 45.7381
| 11> C 	 1.84946 	 75.3727 	 45.4582
| 12> H 	 1.88746 	 73.2444 	 45.554
| 13> C 	 -0.815426 	 72.9487 	 46.6541
| 14> H 	 -0.992286 	 73.0461 	 47.7668
| 15> H 	 -0.10918 	 72.0934 	 46.7175
| 16> C 	 -2.06007 	 72.5454 	 45.8206
| 17> H 	 -1.93098 	 71.7611 	 45.1047
| 18> H 	 -2.83346 	 72.2468 	 46.4488
| 19> C 	 -2.61605 	 73.6506 	 45.0585
| 20> H 	 -3.44487 	 73.2967 	 44.3503
| 21> H 	 -3.089 	 74.347 	 45.7114
| 22> H 	 -1.89704 	 74.1321 	 44.4511
| 23> S 	 3.07408 	 75.5165 	 43.076
| 24> C 	 4.69217 	 76.1913 	 42.9521
| 25> C 	 5.17445 	 76.5295 	 44.1995
| 26> C 	 4.30957 	 76.2239 	 45.2962
| 27> C 	 3.147 	 75.599 	 44.8121
| 28> H 	 6.09259 	 77.0467 	 44.2572
| 29> C 	 4.63149 	 76.4695 	 46.7601
| 30> H 	 5.65078 	 76.1861 	 47.0376
| 31> H 	 4.00225 	 75.8422 	 47.4053
| 32> C 	 4.3891 	 77.9037 	 47.2428
| 33> H 	 4.76974 	 77.9907 	 48.2576
| 34> H 	 3.31517 	 78.2045 	 47.229
| 35> C 	 5.19792 	 78.9946 	 46.4059
| 36> H 	 4.85258 	 79.9686 	 46.6858
| 37> H 	 4.97877 	 78.9827 	 45.3395
| 38> H 	 6.31149 	 78.952 	 46.6502
| 39> H 	 -1.20454 	 75.6635 	 46.9741
| 40> H 	 5.17828 	 76.317 	 42.0214
| 41> *
| 42>
| 43>                          ****END OF INPUT****

CARTESIAN COORDINATES (ANGSTROEM)
---------------------------------
  S      0.806756   76.668700   46.059700
  C     -0.360985   75.454400   46.435200
  C     -0.060499   74.161600   46.242700
  C      1.275020   74.157800   45.738100
  C      1.849460   75.372700   45.458200
  H      1.887460   73.244400   45.554000
  C     -0.815426   72.948700   46.654100
  H     -0.992286   73.046100   47.766800
  H     -0.109180   72.093400   46.717500
  C     -2.060070   72.545400   45.820600
  H     -1.930980   71.761100   45.104700
  H     -2.833460   72.246800   46.448800
  C     -2.616050   73.650600   45.058500
  H     -3.444870   73.296700   44.350300
  H     -3.089000   74.347000   45.711400
  H     -1.897040   74.132100   44.451100
  S      3.074080   75.516500   43.076000
  C      4.692170   76.191300   42.952100
  C      5.174450   76.529500   44.199500
  C      4.309570   76.223900   45.296200
  C      3.147000   75.599000   44.812100
  H      6.092590   77.046700   44.257200
  C      4.631490   76.469500   46.760100
  H      5.650780   76.186100   47.037600
  H      4.002250   75.842200   47.405300
  C      4.389100   77.903700   47.242800
  H      4.769740   77.990700   48.257600
  H      3.315170   78.204500   47.229000
  C      5.197920   78.994600   46.405900
  H      4.852580   79.968600   46.685800
  H      4.978770   78.982700   45.339500
  H      6.311490   78.952000   46.650200
  H     -1.204540   75.663500   46.974100
  H      5.178280   76.317000   42.021400

 Total Charge           Charge          ....    0
 Multiplicity           Mult            ....    1
 Number of Electrons    NEL             ....  134
 Basis Dimension        Dim             ....  322

ORBITAL ENERGIES
----------------

  NO   OCC          E(Eh)            E(eV)
   0   2.0000     -88.966693     -2420.9068
   1   2.0000     -88.963057     -2420.8079
   2   2.0000     -10.323513      -280.9171
   3   2.0000     -10.322695      -280.8948
   4   2.0000     -10.314002      -280.6583
   5   2.0000     -10.305842      -280.4362
   6   2.0000     -10.300473      -280.2901
   7   2.0000     -10.299324      -280.2589
   8   2.0000     -10.293122      -280.0901
   9   2.0000     -10.292453      -280.0719
  10   2.0000     -10.291823      -280.0547
  11   2.0000     -10.290558      -280.0203
  12   2.0000     -10.289639      -279.9953
  13   2.0000     -10.278353      -279.6882
  14   2.0000     -10.274722      -279.5894
  15   2.0000     -10.265408      -279.3359
  16   2.0000      -8.081431      -219.9069
  17   2.0000      -8.078025      -219.8142
  18   2.0000      -6.039839      -164.3524
  19   2.0000      -6.036379      -164.2582
  20   2.0000      -6.036190      -164.2531
  21   2.0000      -6.032476      -164.1520
  22   2.0000      -6.032056      -164.1406
  23   2.0000      -6.028947      -164.0560
  24   2.0000      -1.007301       -27.4101
  25   2.0000      -0.985806       -26.8251
  26   2.0000      -0.920254       -25.0414
  27   2.0000      -0.902706       -24.5639
  28   2.0000      -0.871525       -23.7154
  29   2.0000      -0.853595       -23.2275
  30   2.0000      -0.839582       -22.8462
  31   2.0000      -0.812330       -22.1046
  32   2.0000      -0.786812       -21.4102
  33   2.0000      -0.776064       -21.1178
  34   2.0000      -0.705795       -19.2057
  35   2.0000      -0.699183       -19.0257
  36   2.0000      -0.687095       -18.6968
  37   2.0000      -0.663211       -18.0469
  38   2.0000      -0.639893       -17.4124
  39   2.0000      -0.611931       -16.6515
  40   2.0000      -0.596304       -16.2263
  41   2.0000      -0.572891       -15.5892
  42   2.0000      -0.565467       -15.3871
  43   2.0000      -0.555232       -15.1086
  44   2.0000      -0.551170       -14.9981
  45   2.0000      -0.535222       -14.5641
  46   2.0000      -0.513076       -13.9615
  47   2.0000      -0.507776       -13.8173
  48   2.0000      -0.494825       -13.4649
  49   2.0000      -0.491780       -13.3820
  50   2.0000      -0.483962       -13.1693
  51   2.0000      -0.476127       -12.9561
  52   2.0000      -0.473397       -12.8818
  53   2.0000      -0.463744       -12.6191
  54   2.0000      -0.453494       -12.3402
  55   2.0000      -0.447103       -12.1663
  56   2.0000      -0.439435       -11.9576
  57   2.0000      -0.436021       -11.8647
  58   2.0000      -0.432406       -11.7664
  59   2.0000      -0.427128       -11.6228
  60   2.0000      -0.423494       -11.5239
  61   2.0000      -0.412680       -11.2296
  62   2.0000      -0.410455       -11.1690
  63   2.0000      -0.336852        -9.1662
  64   2.0000      -0.332137        -9.0379
  65   2.0000      -0.320764        -8.7284
  66   2.0000      -0.305651        -8.3172
  67   0.0000       0.040221         1.0945
  68   0.0000       0.060835         1.6554
  69   0.0000       0.104191         2.8352
  70   0.0000       0.121769         3.3135
  71   0.0000       0.130323         3.5463

MULLIKEN ATOMIC CHARGES
-----------------------
   0 S :    0.129348
   1 C :   -0.079587
   2 C :   -0.095194
   3 C :    0.007565
   4 C :   -0.169104
   5 H :    0.020752
   6 C :    0.048109
   7 H :    0.045300
   8 H :    0.023882
   9 C :    0.007647
  10 H :    0.025438
  11 H :    0.007075
  12 C :   -0.067281
  13 H :    0.031967
  14 H :    0.014008
  15 H :    0.045469
  16 S :    0.113359
  17 C :   -0.088174
  18 C :   -0.020711
  19 C :   -0.020923
  20 C :   -0.183281
  21 H :    0.007534
  22 C :    0.089776
  23 H :    0.027006
  24 H :    0.029623
  25 C :   -0.086012
  26 H :    0.031819
  27 H :    0.036747
  28 C :   -0.087731
  29 H :    0.021099
  30 H :    0.045887
  31 H :    0.041327
  32 H :    0.002183
  33 H :    0.045078
Sum of atomic charges:   -0.0000000

LOEWDIN ATOMIC CHARGES
----------------------
   0 S :    0.407552
   1 C :   -0.175002
   2 C :   -0.073619
   3 C :   -0.056935
   4 C :   -0.207902
   5 H :    0.035042
   6 C :   -0.038064
   7 H :    0.044144
   8 H :    0.037207
   9 C :   -0.037532
  10 H :    0.025160
  11 H :    0.020831
  12 C :   -0.061009
  13 H :    0.033434
  14 H :    0.016041
  15 H :    0.019676
  16 S :    0.416015
  17 C :   -0.177362
  18 C :   -0.064280
  19 C :   -0.051737
  20 C :   -0.203589
  21 H :    0.024626
  22 C :   -0.034290
  23 H :    0.032541
  24 H :    0.035270
  25 C :   -0.036686
  26 H :    0.024482
  27 H :    0.022015
  28 C :   -0.076910
  29 H :    0.020425
  30 H :    0.024684
  31 H :    0.030284
  32 H :    0.004467
  33 H :    0.021022

  Mayer bond orders larger than 0.100000
B(  0-S ,  1-C ) :   1.1540 B(  0-S ,  4-C ) :   1.1127 B(  1-C ,  2-C ) :   1.6325
B(  1-C , 32-H ) :   0.9598 B(  2-C ,  3-C ) :   1.2205 B(  2-C ,  6-C ) :   1.0292
B(  3-C ,  4-C ) :   1.6230 B(  3-C ,  5-H ) :   0.9847 B(  4-C , 20-C ) :   1.0155
B(  6-C ,  7-H ) :   0.9364 B(  6-C ,  8-H ) :   0.9414 B(  6-C ,  9-C ) :   1.0381
B(  9-C , 10-H ) :   0.9524 B(  9-C , 11-H ) :   0.9456 B(  9-C , 12-C ) :   1.1400
B( 12-C , 13-H ) :   0.9683 B( 12-C , 14-H ) :   0.9711 B( 12-C , 15-H ) :   0.9564
B( 16-S , 17-C ) :   1.1562 B( 16-S , 20-C ) :   1.1719 B( 17-C , 18-C ) :   1.5933
B( 17-C , 20-C ) :   0.1004 B( 17-C , 33-H ) :   0.9762 B( 18-C , 19-C ) :   1.2380
B( 18-C , 21-H ) :   0.9953 B( 19-C , 20-C ) :   1.5785 B( 19-C , 22-C ) :   1.0392
B( 22-C , 23-H ) :   0.9410 B( 22-C , 24-H ) :   0.9294 B( 22-C , 25-C ) :   1.0745
B( 25-C , 26-H ) :   0.9561 B( 25-C , 27-H ) :   0.9544 B( 25-C , 28-C ) :   1.0741
B( 28-C , 29-H ) :   0.9735 B( 28-C , 30-H ) :   0.9704 B( 28-C , 31-H ) :   0.9767

Dispersion correction           -0.015120870
FINAL SINGLE POINT ENERGY     -1339.866638287059

DIPOLE MOMENT
-------------
                                X             Y             Z
Electronic contribution:      4.24906       1.50567      -9.84563
Nuclear contribution   :     -4.23183      -1.66441      10.19603
                        -----------------------------------------
Total Dipole Moment    :      0.01723      -0.15875       0.35040
                        -----------------------------------------
Magnitude (a.u.)       :      0.38507
Magnitude (Debye)      :      0.97877

Rotational constants in cm-1:     0.025889     0.007775     0.006691
Rotational constants in MHz :   776.134215   233.078434   200.591960

                             ****ORCA TERMINATED NORMALLY****
TOTAL RUN TIME: 0 days 0 hours 0 minutes 35 seconds 15 msec
