                         Program Version 4.2.1 -  RELEASE  -
|  1> ! wB97X-D3 SP def2-SVP
|  2> %pal
|  3> nprocs 16
|  4> end
|  5>
|  6> * xyz 0 1
|  7> S 	 -62.9049 	 51.2938 	 126.002
|  8> C 	 -64.6246 	 51.5082 	 125.835
|  9> C 	 -65.3037 	 51.3945 	 127.041
| 10> C 	 -64.4192 	 51.1864 	 128.162
| 11> C 	 -63.1473 	 50.9156 	 127.716
| 12> H 	 -64.7525 	 50.9405 	 129.157
| 13> C 	 -66.7774 	 51.5206 	 127.182
| 14> H 	 -67.055 	 52.1636 	 128.114
| 15> H 	 -67.1012 	 50.5022 	 127.454
| 16> C 	 -67.5767 	 52.1137 	 125.929
| 17> H 	 -67.298 	 53.1967 	 125.894
| 18> H 	 -67.2997 	 51.737 	 124.979
| 19> C 	 -69.1028 	 51.9207 	 126.072
| 20> H 	 -69.6246 	 52.2238 	 125.208
| 21> H 	 -69.3346 	 50.8762 	 126.408
| 22> H 	 -69.5336 	 52.5609 	 126.76
| 23> S 	 -61.2875 	 48.9328 	 127.729
| 24> C 	 -60.1509 	 48.9259 	 129.047
| 25> C 	 -60.3994 	 49.9061 	 129.961
| 26> C 	 -61.4985 	 50.7777 	 129.654
| 27> C 	 -62.0109 	 50.3916 	 128.488
| 28> H 	 -59.6487 	 49.8793 	 130.731
| 29> C 	 -61.9117 	 52.0033 	 130.48
| 30> H 	 -61.5045 	 51.8677 	 131.513
| 31> H 	 -62.9854 	 51.9609 	 130.688
| 32> C 	 -61.3792 	 53.3786 	 129.913
| 33> H 	 -61.5664 	 54.2441 	 130.449
| 34> H 	 -61.8206 	 53.5585 	 128.926
| 35> C 	 -59.8873 	 53.3312 	 129.713
| 36> H 	 -59.5493 	 54.3074 	 129.343
| 37> H 	 -59.5126 	 52.5251 	 129.052
| 38> H 	 -59.4247 	 53.1982 	 130.699
| 39> H 	 -65.1295 	 51.7093 	 124.859
| 40> H 	 -59.2609 	 48.2111 	 129.148
| 41> *
| 42>
| 43>                          ****END OF INPUT****

CARTESIAN COORDINATES (ANGSTROEM)
---------------------------------
  S    -62.904900   51.293800  126.002000
  C    -64.624600   51.508200  125.835000
  C    -65.303700   51.394500  127.041000
  C    -64.419200   51.186400  128.162000
  C    -63.147300   50.915600  127.716000
  H    -64.752500   50.940500  129.157000
  C    -66.777400   51.520600  127.182000
  H    -67.055000   52.163600  128.114000
  H    -67.101200   50.502200  127.454000
  C    -67.576700   52.113700  125.929000
  H    -67.298000   53.196700  125.894000
  H    -67.299700   51.737000  124.979000
  C    -69.102800   51.920700  126.072000
  H    -69.624600   52.223800  125.208000
  H    -69.334600   50.876200  126.408000
  H    -69.533600   52.560900  126.760000
  S    -61.287500   48.932800  127.729000
  C    -60.150900   48.925900  129.047000
  C    -60.399400   49.906100  129.961000
  C    -61.498500   50.777700  129.654000
  C    -62.010900   50.391600  128.488000
  H    -59.648700   49.879300  130.731000
  C    -61.911700   52.003300  130.480000
  H    -61.504500   51.867700  131.513000
  H    -62.985400   51.960900  130.688000
  C    -61.379200   53.378600  129.913000
  H    -61.566400   54.244100  130.449000
  H    -61.820600   53.558500  128.926000
  C    -59.887300   53.331200  129.713000
  H    -59.549300   54.307400  129.343000
  H    -59.512600   52.525100  129.052000
  H    -59.424700   53.198200  130.699000
  H    -65.129500   51.709300  124.859000
  H    -59.260900   48.211100  129.148000

 Total Charge           Charge          ....    0
 Multiplicity           Mult            ....    1
 Number of Electrons    NEL             ....  134
 Basis Dimension        Dim             ....  322

ORBITAL ENERGIES
----------------

  NO   OCC          E(Eh)            E(eV)
   0   2.0000     -88.964462     -2420.8461
   1   2.0000     -88.963233     -2420.8126
   2   2.0000     -10.328468      -281.0519
   3   2.0000     -10.322559      -280.8911
   4   2.0000     -10.316612      -280.7293
   5   2.0000     -10.311069      -280.5785
   6   2.0000     -10.303391      -280.3695
   7   2.0000     -10.303108      -280.3618
   8   2.0000     -10.301746      -280.3248
   9   2.0000     -10.299976      -280.2766
  10   2.0000     -10.293896      -280.1111
  11   2.0000     -10.293619      -280.1036
  12   2.0000     -10.290172      -280.0098
  13   2.0000     -10.280650      -279.7507
  14   2.0000     -10.273634      -279.5598
  15   2.0000     -10.272061      -279.5170
  16   2.0000      -8.079046      -219.8420
  17   2.0000      -8.077806      -219.8083
  18   2.0000      -6.037546      -164.2900
  19   2.0000      -6.036266      -164.2552
  20   2.0000      -6.033733      -164.1862
  21   2.0000      -6.032539      -164.1537
  22   2.0000      -6.029673      -164.0758
  23   2.0000      -6.028398      -164.0410
  24   2.0000      -1.006776       -27.3958
  25   2.0000      -0.982554       -26.7367
  26   2.0000      -0.905872       -24.6500
  27   2.0000      -0.904221       -24.6051
  28   2.0000      -0.864524       -23.5249
  29   2.0000      -0.855530       -23.2802
  30   2.0000      -0.847345       -23.0574
  31   2.0000      -0.813783       -22.1441
  32   2.0000      -0.782059       -21.2809
  33   2.0000      -0.766039       -20.8450
  34   2.0000      -0.714934       -19.4543
  35   2.0000      -0.702779       -19.1236
  36   2.0000      -0.686244       -18.6736
  37   2.0000      -0.656827       -17.8732
  38   2.0000      -0.633536       -17.2394
  39   2.0000      -0.611141       -16.6300
  40   2.0000      -0.589014       -16.0279
  41   2.0000      -0.565861       -15.3979
  42   2.0000      -0.560234       -15.2447
  43   2.0000      -0.555091       -15.1048
  44   2.0000      -0.546461       -14.8700
  45   2.0000      -0.525228       -14.2922
  46   2.0000      -0.516204       -14.0466
  47   2.0000      -0.506844       -13.7919
  48   2.0000      -0.493853       -13.4384
  49   2.0000      -0.489596       -13.3226
  50   2.0000      -0.485448       -13.2097
  51   2.0000      -0.473857       -12.8943
  52   2.0000      -0.472104       -12.8466
  53   2.0000      -0.462278       -12.5792
  54   2.0000      -0.452889       -12.3237
  55   2.0000      -0.449823       -12.2403
  56   2.0000      -0.438941       -11.9442
  57   2.0000      -0.434631       -11.8269
  58   2.0000      -0.432394       -11.7660
  59   2.0000      -0.428896       -11.6708
  60   2.0000      -0.425551       -11.5798
  61   2.0000      -0.422217       -11.4891
  62   2.0000      -0.412472       -11.2239
  63   2.0000      -0.346419        -9.4265
  64   2.0000      -0.336847        -9.1661
  65   2.0000      -0.323388        -8.7998
  66   2.0000      -0.292750        -7.9661
  67   0.0000       0.034798         0.9469
  68   0.0000       0.073030         1.9872
  69   0.0000       0.108767         2.9597
  70   0.0000       0.115056         3.1308
  71   0.0000       0.135511         3.6875

MULLIKEN ATOMIC CHARGES
-----------------------
   0 S :    0.112398
   1 C :   -0.143826
   2 C :   -0.084589
   3 C :    0.046751
   4 C :   -0.158063
   5 H :    0.016314
   6 C :    0.007352
   7 H :    0.047908
   8 H :    0.039246
   9 C :   -0.093891
  10 H :    0.040069
  11 H :    0.028616
  12 C :   -0.002640
  13 H :    0.019332
  14 H :    0.038120
  15 H :    0.007085
  16 S :    0.106631
  17 C :   -0.122258
  18 C :   -0.048152
  19 C :   -0.010616
  20 C :   -0.174410
  21 H :    0.007260
  22 C :    0.076817
  23 H :    0.021874
  24 H :    0.029429
  25 C :   -0.019874
  26 H :    0.015933
  27 H :    0.035035
  28 C :   -0.081232
  29 H :    0.030342
  30 H :    0.057501
  31 H :    0.018386
  32 H :    0.061160
  33 H :    0.075992
Sum of atomic charges:   -0.0000000

LOEWDIN ATOMIC CHARGES
----------------------
   0 S :    0.393371
   1 C :   -0.217170
   2 C :   -0.065154
   3 C :   -0.060778
   4 C :   -0.176551
   5 H :    0.031454
   6 C :   -0.040114
   7 H :    0.042894
   8 H :    0.033306
   9 C :   -0.037325
  10 H :    0.031498
  11 H :    0.014240
  12 C :   -0.060257
  13 H :    0.022843
  14 H :    0.032786
  15 H :    0.015193
  16 S :    0.380890
  17 C :   -0.198625
  18 C :   -0.074896
  19 C :   -0.058784
  20 C :   -0.174798
  21 H :    0.029782
  22 C :   -0.027414
  23 H :    0.033323
  24 H :    0.030067
  25 C :   -0.032464
  26 H :    0.016432
  27 H :    0.027597
  28 C :   -0.066606
  29 H :    0.026186
  30 H :    0.030191
  31 H :    0.020368
  32 H :    0.033929
  33 H :    0.044585

  Mayer bond orders larger than 0.100000
B(  0-S ,  1-C ) :   1.1090 B(  0-S ,  4-C ) :   1.1511 B(  1-C ,  2-C ) :   1.6501
B(  1-C , 32-H ) :   0.9537 B(  2-C ,  3-C ) :   1.2187 B(  2-C ,  6-C ) :   1.0187
B(  3-C ,  4-C ) :   1.6070 B(  3-C ,  5-H ) :   0.9888 B(  4-C , 20-C ) :   1.0168
B(  6-C ,  7-H ) :   0.9457 B(  6-C ,  8-H ) :   0.9307 B(  6-C ,  9-C ) :   1.0606
B(  9-C , 10-H ) :   0.9569 B(  9-C , 11-H ) :   0.9561 B(  9-C , 12-C ) :   1.0831
B( 12-C , 13-H ) :   0.9708 B( 12-C , 14-H ) :   0.9762 B( 12-C , 15-H ) :   0.9721
B( 16-S , 17-C ) :   1.1205 B( 16-S , 20-C ) :   1.1314 B( 17-C , 18-C ) :   1.6893
B( 17-C , 33-H ) :   0.9534 B( 18-C , 19-C ) :   1.1525 B( 18-C , 21-H ) :   0.9906
B( 19-C , 20-C ) :   1.6736 B( 19-C , 22-C ) :   1.0354 B( 22-C , 23-H ) :   0.9364
B( 22-C , 24-H ) :   0.9355 B( 22-C , 25-C ) :   1.0567 B( 25-C , 26-H ) :   0.9591
B( 25-C , 27-H ) :   0.9562 B( 25-C , 28-C ) :   1.0801 B( 28-C , 29-H ) :   0.9716
B( 28-C , 30-H ) :   0.9719 B( 28-C , 31-H ) :   0.9754

Dispersion correction           -0.014586035
FINAL SINGLE POINT ENERGY     -1339.870888662409

DIPOLE MOMENT
-------------
                                X             Y             Z
Electronic contribution:     14.62521     -14.72263      -6.68507
Nuclear contribution   :    -14.96829      14.98909       7.06174
                        -----------------------------------------
Total Dipole Moment    :     -0.34307       0.26646       0.37667
                        -----------------------------------------
Magnitude (a.u.)       :      0.57496
Magnitude (Debye)      :      1.46143

Rotational constants in cm-1:     0.024198     0.007267     0.006474
Rotational constants in MHz :   725.433586   217.865848   194.081716

                             ****ORCA TERMINATED NORMALLY****
TOTAL RUN TIME: 0 days 0 hours 0 minutes 34 seconds 56 msec
