                         Program Version 4.2.1 -  RELEASE  -
|  1> ! wB97X-D3 SP def2-SVP
|  2> %pal
|  3> nprocs 16
|  4> end
|  5>
|  6> * xyz 0 1
|  7> S 	 38.8301 	 11.5571 	 77.8096
|  8> C 	 38.5304 	 10.5603 	 79.261
|  9> C 	 38.3512 	 11.3487 	 80.3703
| 10> C 	 38.1199 	 12.7285 	 80.059
| 11> C 	 38.3529 	 12.9741 	 78.6855
| 12> H 	 37.773 	 13.3859 	 80.7982
| 13> C 	 38.302 	 10.8202 	 81.8191
| 14> H 	 37.2886 	 10.586 	 82.1557
| 15> H 	 38.5758 	 11.6396 	 82.4907
| 16> C 	 39.2613 	 9.53951 	 82.1037
| 17> H 	 39.1589 	 9.26788 	 83.0949
| 18> H 	 38.9168 	 8.6464 	 81.5766
| 19> C 	 40.7455 	 9.80258 	 81.8225
| 20> H 	 41.2175 	 10.2104 	 82.7128
| 21> H 	 41.3464 	 8.95873 	 81.6118
| 22> H 	 40.9997 	 10.5192 	 81.0001
| 23> S 	 37.7651 	 14.2892 	 76.3656
| 24> C 	 37.8589 	 16.0923 	 76.3022
| 25> C 	 38.4795 	 16.5489 	 77.4687
| 26> C 	 38.6672 	 15.5776 	 78.429
| 27> C 	 38.2413 	 14.2987 	 78.0466
| 28> H 	 38.5819 	 17.5869 	 77.6228
| 29> C 	 39.1806 	 16.0009 	 79.7863
| 30> H 	 38.8362 	 15.3846 	 80.6905
| 31> H 	 38.774 	 17.01 	 80.0413
| 32> C 	 40.6465 	 15.9621 	 79.8
| 33> H 	 40.8062 	 16.5802 	 80.6347
| 34> H 	 41.0515 	 16.4539 	 78.8859
| 35> C 	 41.2911 	 14.5861 	 79.9617
| 36> H 	 40.9449 	 13.9451 	 80.8322
| 37> H 	 42.4061 	 14.7789 	 80.095
| 38> H 	 41.1717 	 14.0464 	 79.02
| 39> H 	 38.7776 	 9.48679 	 79.3619
| 40> H 	 37.5711 	 16.741 	 75.5427
| 41> *
| 42>
| 43>                          ****END OF INPUT****

CARTESIAN COORDINATES (ANGSTROEM)
---------------------------------
  S     38.830100   11.557100   77.809600
  C     38.530400   10.560300   79.261000
  C     38.351200   11.348700   80.370300
  C     38.119900   12.728500   80.059000
  C     38.352900   12.974100   78.685500
  H     37.773000   13.385900   80.798200
  C     38.302000   10.820200   81.819100
  H     37.288600   10.586000   82.155700
  H     38.575800   11.639600   82.490700
  C     39.261300    9.539510   82.103700
  H     39.158900    9.267880   83.094900
  H     38.916800    8.646400   81.576600
  C     40.745500    9.802580   81.822500
  H     41.217500   10.210400   82.712800
  H     41.346400    8.958730   81.611800
  H     40.999700   10.519200   81.000100
  S     37.765100   14.289200   76.365600
  C     37.858900   16.092300   76.302200
  C     38.479500   16.548900   77.468700
  C     38.667200   15.577600   78.429000
  C     38.241300   14.298700   78.046600
  H     38.581900   17.586900   77.622800
  C     39.180600   16.000900   79.786300
  H     38.836200   15.384600   80.690500
  H     38.774000   17.010000   80.041300
  C     40.646500   15.962100   79.800000
  H     40.806200   16.580200   80.634700
  H     41.051500   16.453900   78.885900
  C     41.291100   14.586100   79.961700
  H     40.944900   13.945100   80.832200
  H     42.406100   14.778900   80.095000
  H     41.171700   14.046400   79.020000
  H     38.777600    9.486790   79.361900
  H     37.571100   16.741000   75.542700

 Total Charge           Charge          ....    0
 Multiplicity           Mult            ....    1
 Number of Electrons    NEL             ....  134
 Basis Dimension        Dim             ....  322

ORBITAL ENERGIES
----------------

  NO   OCC          E(Eh)            E(eV)
   0   2.0000     -88.971503     -2421.0377
   1   2.0000     -88.967320     -2420.9238
   2   2.0000     -10.335686      -281.2483
   3   2.0000     -10.328813      -281.0613
   4   2.0000     -10.319192      -280.7995
   5   2.0000     -10.313028      -280.6318
   6   2.0000     -10.302342      -280.3410
   7   2.0000     -10.301382      -280.3149
   8   2.0000     -10.298913      -280.2477
   9   2.0000     -10.292627      -280.0766
  10   2.0000     -10.292340      -280.0688
  11   2.0000     -10.290656      -280.0230
  12   2.0000     -10.289600      -279.9943
  13   2.0000     -10.280644      -279.7506
  14   2.0000     -10.276279      -279.6318
  15   2.0000     -10.273883      -279.5666
  16   2.0000      -8.085508      -220.0179
  17   2.0000      -8.081063      -219.8969
  18   2.0000      -6.044113      -164.4687
  19   2.0000      -6.040242      -164.3633
  20   2.0000      -6.039618      -164.3464
  21   2.0000      -6.036086      -164.2502
  22   2.0000      -6.035704      -164.2399
  23   2.0000      -6.031843      -164.1348
  24   2.0000      -1.004700       -27.3393
  25   2.0000      -0.981351       -26.7039
  26   2.0000      -0.918242       -24.9866
  27   2.0000      -0.902049       -24.5460
  28   2.0000      -0.866326       -23.5739
  29   2.0000      -0.848374       -23.0854
  30   2.0000      -0.843622       -22.9561
  31   2.0000      -0.808733       -22.0067
  32   2.0000      -0.781719       -21.2717
  33   2.0000      -0.773823       -21.0568
  34   2.0000      -0.712520       -19.3886
  35   2.0000      -0.704111       -19.1598
  36   2.0000      -0.685695       -18.6587
  37   2.0000      -0.666529       -18.1372
  38   2.0000      -0.633580       -17.2406
  39   2.0000      -0.617133       -16.7930
  40   2.0000      -0.604257       -16.4427
  41   2.0000      -0.572818       -15.5872
  42   2.0000      -0.552928       -15.0459
  43   2.0000      -0.547806       -14.9066
  44   2.0000      -0.541098       -14.7240
  45   2.0000      -0.528718       -14.3872
  46   2.0000      -0.515276       -14.0214
  47   2.0000      -0.507953       -13.8221
  48   2.0000      -0.499857       -13.6018
  49   2.0000      -0.494742       -13.4626
  50   2.0000      -0.486371       -13.2348
  51   2.0000      -0.477555       -12.9949
  52   2.0000      -0.471890       -12.8408
  53   2.0000      -0.465967       -12.6796
  54   2.0000      -0.461142       -12.5483
  55   2.0000      -0.449189       -12.2231
  56   2.0000      -0.444304       -12.0901
  57   2.0000      -0.434504       -11.8235
  58   2.0000      -0.432488       -11.7686
  59   2.0000      -0.423341       -11.5197
  60   2.0000      -0.421187       -11.4611
  61   2.0000      -0.416465       -11.3326
  62   2.0000      -0.402205       -10.9445
  63   2.0000      -0.350664        -9.5420
  64   2.0000      -0.333645        -9.0789
  65   2.0000      -0.331407        -9.0180
  66   2.0000      -0.282322        -7.6824
  67   0.0000       0.020009         0.5445
  68   0.0000       0.071492         1.9454
  69   0.0000       0.093719         2.5502
  70   0.0000       0.115401         3.1402
  71   0.0000       0.135057         3.6751

MULLIKEN ATOMIC CHARGES
-----------------------
   0 S :    0.111996
   1 C :   -0.130642
   2 C :   -0.095994
   3 C :    0.027034
   4 C :   -0.112040
   5 H :   -0.000961
   6 C :    0.049848
   7 H :    0.044716
   8 H :    0.021548
   9 C :   -0.048347
  10 H :    0.010751
  11 H :    0.028473
  12 C :   -0.064693
  13 H :    0.022619
  14 H :    0.021092
  15 H :    0.051299
  16 S :    0.090165
  17 C :   -0.066574
  18 C :   -0.024570
  19 C :   -0.017669
  20 C :   -0.146288
  21 H :    0.006982
  22 C :    0.014419
  23 H :    0.025118
  24 H :    0.028549
  25 C :   -0.039868
  26 H :    0.009167
  27 H :    0.029109
  28 C :   -0.069409
  29 H :    0.045287
  30 H :    0.041168
  31 H :    0.045336
  32 H :    0.059237
  33 H :    0.033144
Sum of atomic charges:   -0.0000000

LOEWDIN ATOMIC CHARGES
----------------------
   0 S :    0.400573
   1 C :   -0.200239
   2 C :   -0.058677
   3 C :   -0.061274
   4 C :   -0.186913
   5 H :    0.021307
   6 C :   -0.026422
   7 H :    0.034090
   8 H :    0.028441
   9 C :   -0.033082
  10 H :    0.016488
  11 H :    0.022210
  12 C :   -0.075078
  13 H :    0.025180
  14 H :    0.020745
  15 H :    0.033668
  16 S :    0.388592
  17 C :   -0.157134
  18 C :   -0.061256
  19 C :   -0.061342
  20 C :   -0.196516
  21 H :    0.026513
  22 C :   -0.037100
  23 H :    0.034265
  24 H :    0.031523
  25 C :   -0.045275
  26 H :    0.016795
  27 H :    0.029033
  28 C :   -0.070926
  29 H :    0.030295
  30 H :    0.033508
  31 H :    0.027126
  32 H :    0.033373
  33 H :    0.017509

  Mayer bond orders larger than 0.100000
B(  0-S ,  1-C ) :   1.1045 B(  0-S ,  4-C ) :   1.1634 B(  1-C ,  2-C ) :   1.6375
B(  1-C , 32-H ) :   0.9588 B(  2-C ,  3-C ) :   1.2455 B(  2-C ,  6-C ) :   1.0085
B(  3-C ,  4-C ) :   1.5406 B(  3-C ,  5-H ) :   1.0026 B(  4-C , 20-C ) :   1.0595
B(  6-C ,  7-H ) :   0.9420 B(  6-C ,  8-H ) :   0.9471 B(  6-C ,  9-C ) :   1.0667
B(  9-C , 10-H ) :   0.9566 B(  9-C , 11-H ) :   0.9608 B(  9-C , 12-C ) :   1.0618
B( 12-C , 13-H ) :   0.9773 B( 12-C , 14-H ) :   0.9755 B( 12-C , 15-H ) :   0.9783
B( 16-S , 17-C ) :   1.1493 B( 16-S , 20-C ) :   1.1391 B( 17-C , 18-C ) :   1.5842
B( 17-C , 20-C ) :   0.1142 B( 17-C , 33-H ) :   0.9773 B( 18-C , 19-C ) :   1.2850
B( 18-C , 21-H ) :   0.9887 B( 19-C , 20-C ) :   1.5520 B( 19-C , 22-C ) :   1.0216
B( 22-C , 23-H ) :   0.9384 B( 22-C , 24-H ) :   0.9419 B( 22-C , 25-C ) :   1.0728
B( 25-C , 26-H ) :   0.9480 B( 25-C , 27-H ) :   0.9500 B( 25-C , 28-C ) :   1.0842
B( 28-C , 29-H ) :   0.9702 B( 28-C , 30-H ) :   0.9720 B( 28-C , 31-H ) :   0.9703

Dispersion correction           -0.015962122
FINAL SINGLE POINT ENERGY     -1339.860483307330

DIPOLE MOMENT
-------------
                                X             Y             Z
Electronic contribution:    -13.48168       2.75129     -24.02524
Nuclear contribution   :     13.66205      -2.50281      24.73948
                        -----------------------------------------
Total Dipole Moment    :      0.18037       0.24848       0.71424
                        -----------------------------------------
Magnitude (a.u.)       :      0.77744
Magnitude (Debye)      :      1.97609

Rotational constants in cm-1:     0.023464     0.008879     0.007254
Rotational constants in MHz :   703.440165   266.177413   217.455475

                             ****ORCA TERMINATED NORMALLY****
TOTAL RUN TIME: 0 days 0 hours 0 minutes 32 seconds 738 msec
