                         Program Version 4.2.1 -  RELEASE  -
|  1> ! wB97X-D3 SP def2-SVP
|  2> %pal
|  3> nprocs 16
|  4> end
|  5>
|  6> * xyz 0 1
|  7> S 	 10.2985 	 24.1316 	 46.1004
|  8> C 	 10.9318 	 23.1575 	 47.4328
|  9> C 	 12.1697 	 22.5266 	 47.1172
| 10> C 	 12.4899 	 22.838 	 45.7603
| 11> C 	 11.585 	 23.6033 	 45.0664
| 12> H 	 13.2822 	 22.3776 	 45.2513
| 13> C 	 13.055 	 21.7455 	 48.1588
| 14> H 	 13.7705 	 21.2618 	 47.5409
| 15> H 	 12.4813 	 20.9678 	 48.6556
| 16> C 	 13.9648 	 22.6431 	 49.0621
| 17> H 	 13.4051 	 23.307 	 49.6559
| 18> H 	 14.4308 	 21.8738 	 49.7288
| 19> C 	 15.1081 	 23.4122 	 48.2804
| 20> H 	 14.7149 	 24.2806 	 47.6954
| 21> H 	 15.8622 	 23.6878 	 48.9944
| 22> H 	 15.6565 	 22.7836 	 47.5155
| 23> S 	 12.7258 	 24.9735 	 43.0458
| 24> C 	 12.1331 	 24.71 	 41.4338
| 25> C 	 10.9393 	 24.0111 	 41.3668
| 26> C 	 10.6702 	 23.3918 	 42.6482
| 27> C 	 11.5179 	 23.8149 	 43.6209
| 28> H 	 10.2966 	 23.9387 	 40.4537
| 29> C 	 9.50525 	 22.5293 	 42.8767
| 30> H 	 9.72453 	 21.7723 	 43.556
| 31> H 	 9.47783 	 21.9113 	 42.0209
| 32> C 	 8.17618 	 23.2466 	 43.0858
| 33> H 	 8.06754 	 24.1234 	 42.4657
| 34> H 	 7.98662 	 23.5264 	 44.1171
| 35> C 	 7.16833 	 22.2417 	 42.5144
| 36> H 	 7.29409 	 21.233 	 42.8485
| 37> H 	 7.20824 	 22.1882 	 41.441
| 38> H 	 6.16464 	 22.5074 	 42.7121
| 39> H 	 10.5682 	 23.1825 	 48.4179
| 40> H 	 12.5024 	 25.1956 	 40.5584
| 41> *
| 42>
| 43>                          ****END OF INPUT****

CARTESIAN COORDINATES (ANGSTROEM)
---------------------------------
  S     10.298500   24.131600   46.100400
  C     10.931800   23.157500   47.432800
  C     12.169700   22.526600   47.117200
  C     12.489900   22.838000   45.760300
  C     11.585000   23.603300   45.066400
  H     13.282200   22.377600   45.251300
  C     13.055000   21.745500   48.158800
  H     13.770500   21.261800   47.540900
  H     12.481300   20.967800   48.655600
  C     13.964800   22.643100   49.062100
  H     13.405100   23.307000   49.655900
  H     14.430800   21.873800   49.728800
  C     15.108100   23.412200   48.280400
  H     14.714900   24.280600   47.695400
  H     15.862200   23.687800   48.994400
  H     15.656500   22.783600   47.515500
  S     12.725800   24.973500   43.045800
  C     12.133100   24.710000   41.433800
  C     10.939300   24.011100   41.366800
  C     10.670200   23.391800   42.648200
  C     11.517900   23.814900   43.620900
  H     10.296600   23.938700   40.453700
  C      9.505250   22.529300   42.876700
  H      9.724530   21.772300   43.556000
  H      9.477830   21.911300   42.020900
  C      8.176180   23.246600   43.085800
  H      8.067540   24.123400   42.465700
  H      7.986620   23.526400   44.117100
  C      7.168330   22.241700   42.514400
  H      7.294090   21.233000   42.848500
  H      7.208240   22.188200   41.441000
  H      6.164640   22.507400   42.712100
  H     10.568200   23.182500   48.417900
  H     12.502400   25.195600   40.558400

 Total Charge           Charge          ....    0
 Multiplicity           Mult            ....    1
 Number of Electrons    NEL             ....  134
 Basis Dimension        Dim             ....  322

ORBITAL ENERGIES
----------------

  NO   OCC          E(Eh)            E(eV)
   0   2.0000     -88.967858     -2420.9385
   1   2.0000     -88.961712     -2420.7713
   2   2.0000     -10.323213      -280.9089
   3   2.0000     -10.318022      -280.7676
   4   2.0000     -10.313261      -280.6381
   5   2.0000     -10.312315      -280.6124
   6   2.0000     -10.306441      -280.4525
   7   2.0000     -10.297355      -280.2053
   8   2.0000     -10.296490      -280.1817
   9   2.0000     -10.294652      -280.1317
  10   2.0000     -10.294478      -280.1270
  11   2.0000     -10.288637      -279.9681
  12   2.0000     -10.286599      -279.9126
  13   2.0000     -10.282015      -279.7879
  14   2.0000     -10.273093      -279.5451
  15   2.0000     -10.266346      -279.3615
  16   2.0000      -8.082013      -219.9227
  17   2.0000      -8.076599      -219.7754
  18   2.0000      -6.040422      -164.3682
  19   2.0000      -6.036527      -164.2622
  20   2.0000      -6.035107      -164.2236
  21   2.0000      -6.033003      -164.1664
  22   2.0000      -6.031270      -164.1192
  23   2.0000      -6.027181      -164.0079
  24   2.0000      -1.004449       -27.3325
  25   2.0000      -0.979777       -26.6611
  26   2.0000      -0.916895       -24.9500
  27   2.0000      -0.902368       -24.5547
  28   2.0000      -0.861861       -23.4524
  29   2.0000      -0.852047       -23.1854
  30   2.0000      -0.842625       -22.9290
  31   2.0000      -0.809192       -22.0192
  32   2.0000      -0.783244       -21.3131
  33   2.0000      -0.769766       -20.9464
  34   2.0000      -0.712110       -19.3775
  35   2.0000      -0.703190       -19.1348
  36   2.0000      -0.693038       -18.8585
  37   2.0000      -0.663876       -18.0650
  38   2.0000      -0.641385       -17.4530
  39   2.0000      -0.613440       -16.6925
  40   2.0000      -0.600313       -16.3353
  41   2.0000      -0.567923       -15.4540
  42   2.0000      -0.561264       -15.2728
  43   2.0000      -0.547942       -14.9103
  44   2.0000      -0.538466       -14.6524
  45   2.0000      -0.529590       -14.4109
  46   2.0000      -0.511842       -13.9279
  47   2.0000      -0.508405       -13.8344
  48   2.0000      -0.500451       -13.6180
  49   2.0000      -0.498372       -13.5614
  50   2.0000      -0.488779       -13.3004
  51   2.0000      -0.468164       -12.7394
  52   2.0000      -0.464273       -12.6335
  53   2.0000      -0.456902       -12.4329
  54   2.0000      -0.456193       -12.4136
  55   2.0000      -0.451212       -12.2781
  56   2.0000      -0.448500       -12.2043
  57   2.0000      -0.442355       -12.0371
  58   2.0000      -0.436031       -11.8650
  59   2.0000      -0.429016       -11.6741
  60   2.0000      -0.423559       -11.5256
  61   2.0000      -0.416229       -11.3262
  62   2.0000      -0.410525       -11.1710
  63   2.0000      -0.337523        -9.1845
  64   2.0000      -0.327673        -8.9164
  65   2.0000      -0.322917        -8.7870
  66   2.0000      -0.300629        -8.1805
  67   0.0000       0.039211         1.0670
  68   0.0000       0.063675         1.7327
  69   0.0000       0.109902         2.9906
  70   0.0000       0.119977         3.2647
  71   0.0000       0.123726         3.3668

MULLIKEN ATOMIC CHARGES
-----------------------
   0 S :    0.125724
   1 C :   -0.110380
   2 C :   -0.119877
   3 C :    0.066292
   4 C :   -0.171046
   5 H :   -0.012057
   6 C :    0.087246
   7 H :    0.004018
   8 H :    0.041795
   9 C :   -0.058718
  10 H :    0.026909
  11 H :    0.037056
  12 C :   -0.090569
  13 H :    0.061456
  14 H :    0.040400
  15 H :    0.032523
  16 S :    0.107747
  17 C :   -0.070847
  18 C :   -0.063597
  19 C :   -0.051083
  20 C :   -0.171823
  21 H :    0.040019
  22 C :    0.107072
  23 H :    0.009686
  24 H :   -0.004663
  25 C :   -0.010604
  26 H :    0.024894
  27 H :    0.036556
  28 C :   -0.041317
  29 H :    0.022470
  30 H :    0.021460
  31 H :    0.010647
  32 H :    0.029352
  33 H :    0.043260
Sum of atomic charges:   -0.0000000

LOEWDIN ATOMIC CHARGES
----------------------
   0 S :    0.419006
   1 C :   -0.188220
   2 C :   -0.058757
   3 C :   -0.058572
   4 C :   -0.211546
   5 H :    0.021497
   6 C :   -0.026814
   7 H :    0.024207
   8 H :    0.032690
   9 C :   -0.030183
  10 H :    0.014439
  11 H :    0.030492
  12 C :   -0.072363
  13 H :    0.034592
  14 H :    0.025496
  15 H :    0.028670
  16 S :    0.398547
  17 C :   -0.181563
  18 C :   -0.073178
  19 C :   -0.054541
  20 C :   -0.195259
  21 H :    0.040708
  22 C :   -0.032518
  23 H :    0.028912
  24 H :    0.028287
  25 C :   -0.024385
  26 H :    0.025267
  27 H :    0.020547
  28 C :   -0.057910
  29 H :    0.020174
  30 H :    0.022345
  31 H :    0.015065
  32 H :    0.013798
  33 H :    0.021071

  Mayer bond orders larger than 0.100000
B(  0-S ,  1-C ) :   1.1602 B(  0-S ,  4-C ) :   1.1516 B(  1-C ,  2-C ) :   1.5832
B(  1-C ,  4-C ) :   0.1037 B(  1-C , 32-H ) :   0.9737 B(  2-C ,  3-C ) :   1.2704
B(  2-C ,  6-C ) :   1.0070 B(  3-C ,  4-C ) :   1.5806 B(  3-C ,  5-H ) :   0.9951
B(  4-C , 20-C ) :   0.9887 B(  6-C ,  7-H ) :   0.9379 B(  6-C ,  8-H ) :   0.9489
B(  6-C ,  9-C ) :   1.0576 B(  9-C , 10-H ) :   0.9624 B(  9-C , 11-H ) :   0.9579
B(  9-C , 12-C ) :   1.0647 B( 12-C , 13-H ) :   0.9754 B( 12-C , 14-H ) :   0.9764
B( 12-C , 15-H ) :   0.9760 B( 16-S , 17-C ) :   1.1535 B( 16-S , 20-C ) :   1.1240
B( 17-C , 18-C ) :   1.6383 B( 17-C , 33-H ) :   0.9671 B( 18-C , 19-C ) :   1.1985
B( 18-C , 21-H ) :   0.9825 B( 19-C , 20-C ) :   1.6584 B( 19-C , 22-C ) :   1.0585
B( 22-C , 23-H ) :   0.9072 B( 22-C , 24-H ) :   0.9245 B( 22-C , 25-C ) :   1.0480
B( 25-C , 26-H ) :   0.9601 B( 25-C , 27-H ) :   0.9516 B( 25-C , 28-C ) :   1.0725
B( 28-C , 29-H ) :   0.9745 B( 28-C , 30-H ) :   0.9767 B( 28-C , 31-H ) :   0.9704

Dispersion correction           -0.014776910
FINAL SINGLE POINT ENERGY     -1339.863396720606

DIPOLE MOMENT
-------------
                                X             Y             Z
Electronic contribution:      2.30387      11.30322      -6.20791
Nuclear contribution   :     -2.34714     -11.66917       6.29485
                        -----------------------------------------
Total Dipole Moment    :     -0.04327      -0.36594       0.08694
                        -----------------------------------------
Magnitude (a.u.)       :      0.37861
Magnitude (Debye)      :      0.96235

Rotational constants in cm-1:     0.021613     0.008274     0.006576
Rotational constants in MHz :   647.951669   248.052631   197.144329

                             ****ORCA TERMINATED NORMALLY****
TOTAL RUN TIME: 0 days 0 hours 0 minutes 35 seconds 114 msec
