                         Program Version 4.2.1 -  RELEASE  -
|  1> ! wB97X-D3 SP def2-SVP
|  2> %pal
|  3> nprocs 16
|  4> end
|  5>
|  6> * xyz 0 1
|  7> S 	 14.2173 	 -12.7064 	 95.0323
|  8> C 	 13.969 	 -11.0894 	 95.4652
|  9> C 	 12.7287 	 -10.6153 	 95.1023
| 10> C 	 11.9873 	 -11.5902 	 94.4101
| 11> C 	 12.6162 	 -12.7742 	 94.1522
| 12> H 	 11.0197 	 -11.4412 	 93.9514
| 13> C 	 12.0908 	 -9.26047 	 95.5112
| 14> H 	 11.659 	 -8.78732 	 94.6695
| 15> H 	 12.9309 	 -8.64747 	 95.7896
| 16> C 	 11.0408 	 -9.19065 	 96.5944
| 17> H 	 10.6907 	 -8.208 	 96.8433
| 18> H 	 10.1369 	 -9.71426 	 96.1666
| 19> C 	 11.3186 	 -9.92009 	 97.9357
| 20> H 	 11.7133 	 -10.9025 	 97.7374
| 21> H 	 12.0622 	 -9.38814 	 98.5194
| 22> H 	 10.4262 	 -10.028 	 98.562
| 23> S 	 12.1555 	 -15.4478 	 94.5457
| 24> C 	 11.1908 	 -16.4018 	 93.489
| 25> C 	 10.5598 	 -15.5527 	 92.5981
| 26> C 	 11.0336 	 -14.1806 	 92.6623
| 27> C 	 12.0508 	 -14.002 	 93.5724
| 28> H 	 9.69218 	 -15.9611 	 92.0542
| 29> C 	 10.4659 	 -13.112 	 91.7763
| 30> H 	 10.5453 	 -13.505 	 90.7454
| 31> H 	 11.0796 	 -12.1948 	 91.8442
| 32> C 	 8.99741 	 -12.7906 	 92.0367
| 33> H 	 8.77003 	 -12.5466 	 93.0686
| 34> H 	 8.50483 	 -13.743 	 91.8751
| 35> C 	 8.38763 	 -11.6602 	 91.227
| 36> H 	 8.82758 	 -11.7202 	 90.2229
| 37> H 	 8.68108 	 -10.7061 	 91.6234
| 38> H 	 7.30468 	 -11.5893 	 91.2924
| 39> H 	 14.499 	 -10.5754 	 96.2751
| 40> H 	 11.0089 	 -17.4951 	 93.585
| 41> *
| 42>
| 43>                          ****END OF INPUT****

CARTESIAN COORDINATES (ANGSTROEM)
---------------------------------
  S     14.217300  -12.706400   95.032300
  C     13.969000  -11.089400   95.465200
  C     12.728700  -10.615300   95.102300
  C     11.987300  -11.590200   94.410100
  C     12.616200  -12.774200   94.152200
  H     11.019700  -11.441200   93.951400
  C     12.090800   -9.260470   95.511200
  H     11.659000   -8.787320   94.669500
  H     12.930900   -8.647470   95.789600
  C     11.040800   -9.190650   96.594400
  H     10.690700   -8.208000   96.843300
  H     10.136900   -9.714260   96.166600
  C     11.318600   -9.920090   97.935700
  H     11.713300  -10.902500   97.737400
  H     12.062200   -9.388140   98.519400
  H     10.426200  -10.028000   98.562000
  S     12.155500  -15.447800   94.545700
  C     11.190800  -16.401800   93.489000
  C     10.559800  -15.552700   92.598100
  C     11.033600  -14.180600   92.662300
  C     12.050800  -14.002000   93.572400
  H      9.692180  -15.961100   92.054200
  C     10.465900  -13.112000   91.776300
  H     10.545300  -13.505000   90.745400
  H     11.079600  -12.194800   91.844200
  C      8.997410  -12.790600   92.036700
  H      8.770030  -12.546600   93.068600
  H      8.504830  -13.743000   91.875100
  C      8.387630  -11.660200   91.227000
  H      8.827580  -11.720200   90.222900
  H      8.681080  -10.706100   91.623400
  H      7.304680  -11.589300   91.292400
  H     14.499000  -10.575400   96.275100
  H     11.008900  -17.495100   93.585000

 Total Charge           Charge          ....    0
 Multiplicity           Mult            ....    1
 Number of Electrons    NEL             ....  134
 Basis Dimension        Dim             ....  322

ORBITAL ENERGIES
----------------

  NO   OCC          E(Eh)            E(eV)
   0   2.0000     -88.967631     -2420.9323
   1   2.0000     -88.961348     -2420.7613
   2   2.0000     -10.335839      -281.2525
   3   2.0000     -10.328654      -281.0570
   4   2.0000     -10.322076      -280.8780
   5   2.0000     -10.314296      -280.6663
   6   2.0000     -10.306721      -280.4601
   7   2.0000     -10.301422      -280.3159
   8   2.0000     -10.298901      -280.2473
   9   2.0000     -10.294498      -280.1275
  10   2.0000     -10.292731      -280.0794
  11   2.0000     -10.290678      -280.0236
  12   2.0000     -10.288737      -279.9708
  13   2.0000     -10.285160      -279.8734
  14   2.0000     -10.279205      -279.7114
  15   2.0000     -10.273574      -279.5582
  16   2.0000      -8.082230      -219.9286
  17   2.0000      -8.077091      -219.7888
  18   2.0000      -6.040779      -164.3779
  19   2.0000      -6.036705      -164.2671
  20   2.0000      -6.035631      -164.2379
  21   2.0000      -6.032981      -164.1657
  22   2.0000      -6.031499      -164.1254
  23   2.0000      -6.027676      -164.0214
  24   2.0000      -1.011065       -27.5125
  25   2.0000      -0.990966       -26.9656
  26   2.0000      -0.915761       -24.9191
  27   2.0000      -0.909182       -24.7401
  28   2.0000      -0.875335       -23.8191
  29   2.0000      -0.853199       -23.2167
  30   2.0000      -0.847465       -23.0607
  31   2.0000      -0.817573       -22.2473
  32   2.0000      -0.785792       -21.3825
  33   2.0000      -0.777528       -21.1576
  34   2.0000      -0.708345       -19.2750
  35   2.0000      -0.699212       -19.0265
  36   2.0000      -0.693589       -18.8735
  37   2.0000      -0.661441       -17.9987
  38   2.0000      -0.639672       -17.4064
  39   2.0000      -0.624404       -16.9909
  40   2.0000      -0.597825       -16.2677
  41   2.0000      -0.570105       -15.5134
  42   2.0000      -0.566080       -15.4038
  43   2.0000      -0.551507       -15.0073
  44   2.0000      -0.548037       -14.9128
  45   2.0000      -0.530959       -14.4481
  46   2.0000      -0.520541       -14.1646
  47   2.0000      -0.515011       -14.0142
  48   2.0000      -0.509798       -13.8723
  49   2.0000      -0.500001       -13.6057
  50   2.0000      -0.487395       -13.2627
  51   2.0000      -0.483008       -13.1433
  52   2.0000      -0.473835       -12.8937
  53   2.0000      -0.467207       -12.7134
  54   2.0000      -0.461875       -12.5682
  55   2.0000      -0.456387       -12.4189
  56   2.0000      -0.446472       -12.1491
  57   2.0000      -0.438045       -11.9198
  58   2.0000      -0.431629       -11.7452
  59   2.0000      -0.423619       -11.5272
  60   2.0000      -0.420241       -11.4353
  61   2.0000      -0.410174       -11.1614
  62   2.0000      -0.409069       -11.1313
  63   2.0000      -0.358516        -9.7557
  64   2.0000      -0.332911        -9.0590
  65   2.0000      -0.324606        -8.8330
  66   2.0000      -0.294924        -8.0253
  67   0.0000       0.022593         0.6148
  68   0.0000       0.074221         2.0197
  69   0.0000       0.103205         2.8084
  70   0.0000       0.119295         3.2462
  71   0.0000       0.128715         3.5025

MULLIKEN ATOMIC CHARGES
-----------------------
   0 S :    0.104472
   1 C :   -0.094253
   2 C :   -0.134845
   3 C :    0.037165
   4 C :   -0.165286
   5 H :    0.001802
   6 C :    0.119364
   7 H :    0.020346
   8 H :    0.009152
   9 C :   -0.080288
  10 H :    0.028792
  11 H :    0.022358
  12 C :   -0.058834
  13 H :    0.037999
  14 H :    0.022560
  15 H :    0.037630
  16 S :    0.088702
  17 C :   -0.104601
  18 C :   -0.049737
  19 C :   -0.059788
  20 C :   -0.087385
  21 H :    0.035113
  22 C :    0.038593
  23 H :    0.037491
  24 H :    0.029412
  25 C :   -0.090040
  26 H :    0.023408
  27 H :    0.018317
  28 C :   -0.010709
  29 H :    0.029605
  30 H :    0.014428
  31 H :    0.039339
  32 H :    0.060936
  33 H :    0.078782
Sum of atomic charges:    0.0000000

LOEWDIN ATOMIC CHARGES
----------------------
   0 S :    0.399915
   1 C :   -0.211188
   2 C :   -0.070891
   3 C :   -0.057046
   4 C :   -0.171684
   5 H :    0.030251
   6 C :   -0.026573
   7 H :    0.029321
   8 H :    0.025551
   9 C :   -0.042059
  10 H :    0.023003
  11 H :    0.025626
  12 C :   -0.066820
  13 H :    0.023717
  14 H :    0.019348
  15 H :    0.028909
  16 S :    0.414794
  17 C :   -0.194860
  18 C :   -0.081566
  19 C :   -0.055791
  20 C :   -0.199168
  21 H :    0.035753
  22 C :   -0.036052
  23 H :    0.037149
  24 H :    0.028415
  25 C :   -0.045071
  26 H :    0.020791
  27 H :    0.020718
  28 C :   -0.062733
  29 H :    0.027223
  30 H :    0.021197
  31 H :    0.030519
  32 H :    0.036581
  33 H :    0.042723

  Mayer bond orders larger than 0.100000
B(  0-S ,  1-C ) :   1.1631 B(  0-S ,  4-C ) :   1.1294 B(  1-C ,  2-C ) :   1.6109
B(  1-C , 32-H ) :   0.9514 B(  2-C ,  3-C ) :   1.2595 B(  2-C ,  6-C ) :   1.0201
B(  3-C ,  4-C ) :   1.5790 B(  3-C ,  5-H ) :   0.9876 B(  4-C , 20-C ) :   1.0431
B(  6-C ,  7-H ) :   0.9359 B(  6-C ,  8-H ) :   0.9371 B(  6-C ,  9-C ) :   1.0748
B(  9-C , 10-H ) :   0.9559 B(  9-C , 11-H ) :   0.9537 B(  9-C , 12-C ) :   1.0773
B( 12-C , 13-H ) :   0.9748 B( 12-C , 14-H ) :   0.9767 B( 12-C , 15-H ) :   0.9756
B( 16-S , 17-C ) :   1.1684 B( 16-S , 20-C ) :   1.1389 B( 17-C , 18-C ) :   1.5970
B( 17-C , 33-H ) :   0.9642 B( 18-C , 19-C ) :   1.2329 B( 18-C , 21-H ) :   0.9875
B( 19-C , 20-C ) :   1.5946 B( 19-C , 22-C ) :   1.0521 B( 22-C , 23-H ) :   0.9272
B( 22-C , 24-H ) :   0.9415 B( 22-C , 25-C ) :   1.0581 B( 25-C , 26-H ) :   0.9546
B( 25-C , 27-H ) :   0.9521 B( 25-C , 28-C ) :   1.0877 B( 28-C , 29-H ) :   0.9714
B( 28-C , 30-H ) :   0.9717 B( 28-C , 31-H ) :   0.9718

Dispersion correction           -0.014456542
FINAL SINGLE POINT ENERGY     -1339.877597673691

DIPOLE MOMENT
-------------
                                X             Y             Z
Electronic contribution:     19.72863     -19.78223       1.40977
Nuclear contribution   :    -20.48332      20.11310      -1.41636
                        -----------------------------------------
Total Dipole Moment    :     -0.75468       0.33087      -0.00659
                        -----------------------------------------
Magnitude (a.u.)       :      0.82405
Magnitude (Debye)      :      2.09457

Rotational constants in cm-1:     0.016575     0.009636     0.007117
Rotational constants in MHz :   496.908844   288.883208   213.375034

                             ****ORCA TERMINATED NORMALLY****
TOTAL RUN TIME: 0 days 0 hours 0 minutes 34 seconds 796 msec
