                         Program Version 4.2.1 -  RELEASE  -
|  1> ! wB97X-D3 SP def2-SVP
|  2> %pal
|  3> nprocs 16
|  4> end
|  5>
|  6> * xyz 0 1
|  7> S 	 -48.3715 	 66.4762 	 126.468
|  8> C 	 -46.7426 	 66.5321 	 125.994
|  9> C 	 -45.8838 	 65.9695 	 126.964
| 10> C 	 -46.6267 	 65.4176 	 128.07
| 11> C 	 -47.9867 	 65.6679 	 127.946
| 12> H 	 -46.2391 	 64.9396 	 128.963
| 13> C 	 -44.4083 	 65.786 	 126.777
| 14> H 	 -44.0374 	 65.8732 	 127.849
| 15> H 	 -44.0578 	 66.6977 	 126.327
| 16> C 	 -43.9303 	 64.569 	 125.954
| 17> H 	 -44.3142 	 63.6741 	 126.491
| 18> H 	 -44.3766 	 64.5995 	 124.984
| 19> C 	 -42.4367 	 64.5021 	 125.699
| 20> H 	 -41.982 	 64.8276 	 126.614
| 21> H 	 -42.1887 	 63.4731 	 125.414
| 22> H 	 -42.1344 	 65.0986 	 124.868
| 23> S 	 -49.8874 	 66.514 	 129.778
| 24> C 	 -50.8256 	 65.3119 	 130.658
| 25> C 	 -50.2898 	 64.0554 	 130.451
| 26> C 	 -49.2983 	 64.0333 	 129.508
| 27> C 	 -48.9455 	 65.2917 	 128.943
| 28> H 	 -50.7395 	 63.1435 	 130.997
| 29> C 	 -48.7581 	 62.6913 	 129.077
| 30> H 	 -48.5338 	 62.1536 	 129.983
| 31> H 	 -47.7868 	 62.892 	 128.664
| 32> C 	 -49.6583 	 61.8899 	 128.098
| 33> H 	 -49.6967 	 62.5463 	 127.23
| 34> H 	 -50.7183 	 61.8063 	 128.531
| 35> C 	 -49.0379 	 60.5556 	 127.727
| 36> H 	 -48.4034 	 60.194 	 128.589
| 37> H 	 -48.2311 	 60.7416 	 126.992
| 38> H 	 -49.7056 	 59.7229 	 127.485
| 39> H 	 -46.3115 	 66.7473 	 125.023
| 40> H 	 -51.4972 	 65.5557 	 131.47
| 41> *
| 42>
| 43>                          ****END OF INPUT****

CARTESIAN COORDINATES (ANGSTROEM)
---------------------------------
  S    -48.371500   66.476200  126.468000
  C    -46.742600   66.532100  125.994000
  C    -45.883800   65.969500  126.964000
  C    -46.626700   65.417600  128.070000
  C    -47.986700   65.667900  127.946000
  H    -46.239100   64.939600  128.963000
  C    -44.408300   65.786000  126.777000
  H    -44.037400   65.873200  127.849000
  H    -44.057800   66.697700  126.327000
  C    -43.930300   64.569000  125.954000
  H    -44.314200   63.674100  126.491000
  H    -44.376600   64.599500  124.984000
  C    -42.436700   64.502100  125.699000
  H    -41.982000   64.827600  126.614000
  H    -42.188700   63.473100  125.414000
  H    -42.134400   65.098600  124.868000
  S    -49.887400   66.514000  129.778000
  C    -50.825600   65.311900  130.658000
  C    -50.289800   64.055400  130.451000
  C    -49.298300   64.033300  129.508000
  C    -48.945500   65.291700  128.943000
  H    -50.739500   63.143500  130.997000
  C    -48.758100   62.691300  129.077000
  H    -48.533800   62.153600  129.983000
  H    -47.786800   62.892000  128.664000
  C    -49.658300   61.889900  128.098000
  H    -49.696700   62.546300  127.230000
  H    -50.718300   61.806300  128.531000
  C    -49.037900   60.555600  127.727000
  H    -48.403400   60.194000  128.589000
  H    -48.231100   60.741600  126.992000
  H    -49.705600   59.722900  127.485000
  H    -46.311500   66.747300  125.023000
  H    -51.497200   65.555700  131.470000

 Total Charge           Charge          ....    0
 Multiplicity           Mult            ....    1
 Number of Electrons    NEL             ....  134
 Basis Dimension        Dim             ....  322

ORBITAL ENERGIES
----------------

  NO   OCC          E(Eh)            E(eV)
   0   2.0000     -88.972745     -2421.0715
   1   2.0000     -88.964756     -2420.8541
   2   2.0000     -10.327105      -281.0148
   3   2.0000     -10.326532      -280.9992
   4   2.0000     -10.315744      -280.7057
   5   2.0000     -10.312445      -280.6159
   6   2.0000     -10.302055      -280.3332
   7   2.0000     -10.297112      -280.1987
   8   2.0000     -10.296478      -280.1814
   9   2.0000     -10.293408      -280.0979
  10   2.0000     -10.293174      -280.0915
  11   2.0000     -10.289763      -279.9987
  12   2.0000     -10.287619      -279.9403
  13   2.0000     -10.282808      -279.8094
  14   2.0000     -10.281457      -279.7727
  15   2.0000     -10.275673      -279.6153
  16   2.0000      -8.088162      -220.0901
  17   2.0000      -8.079178      -219.8456
  18   2.0000      -6.046530      -164.5344
  19   2.0000      -6.042433      -164.4230
  20   2.0000      -6.039168      -164.3341
  21   2.0000      -6.037480      -164.2882
  22   2.0000      -6.033632      -164.1835
  23   2.0000      -6.030270      -164.0920
  24   2.0000      -1.010383       -27.4939
  25   2.0000      -0.987520       -26.8718
  26   2.0000      -0.914079       -24.8733
  27   2.0000      -0.906115       -24.6566
  28   2.0000      -0.873612       -23.7722
  29   2.0000      -0.857556       -23.3353
  30   2.0000      -0.849306       -23.1108
  31   2.0000      -0.813787       -22.1443
  32   2.0000      -0.780088       -21.2273
  33   2.0000      -0.765091       -20.8192
  34   2.0000      -0.705578       -19.1998
  35   2.0000      -0.702475       -19.1153
  36   2.0000      -0.693869       -18.8811
  37   2.0000      -0.657873       -17.9016
  38   2.0000      -0.641843       -17.4654
  39   2.0000      -0.616821       -16.7846
  40   2.0000      -0.592898       -16.1336
  41   2.0000      -0.573826       -15.6146
  42   2.0000      -0.561628       -15.2827
  43   2.0000      -0.557657       -15.1746
  44   2.0000      -0.532612       -14.4931
  45   2.0000      -0.524631       -14.2759
  46   2.0000      -0.515692       -14.0327
  47   2.0000      -0.513635       -13.9767
  48   2.0000      -0.506558       -13.7842
  49   2.0000      -0.503491       -13.7007
  50   2.0000      -0.492290       -13.3959
  51   2.0000      -0.477390       -12.9904
  52   2.0000      -0.471992       -12.8435
  53   2.0000      -0.461987       -12.5713
  54   2.0000      -0.461001       -12.5445
  55   2.0000      -0.447250       -12.1703
  56   2.0000      -0.442200       -12.0329
  57   2.0000      -0.441454       -12.0126
  58   2.0000      -0.429500       -11.6873
  59   2.0000      -0.428165       -11.6510
  60   2.0000      -0.417631       -11.3643
  61   2.0000      -0.413267       -11.2456
  62   2.0000      -0.411471       -11.1967
  63   2.0000      -0.346443        -9.4272
  64   2.0000      -0.332212        -9.0400
  65   2.0000      -0.328945        -8.9511
  66   2.0000      -0.290500        -7.9049
  67   0.0000       0.031183         0.8485
  68   0.0000       0.061097         1.6625
  69   0.0000       0.117585         3.1997
  70   0.0000       0.123926         3.3722
  71   0.0000       0.127565         3.4712

MULLIKEN ATOMIC CHARGES
-----------------------
   0 S :    0.152566
   1 C :   -0.104179
   2 C :   -0.126753
   3 C :    0.040475
   4 C :   -0.184025
   5 H :    0.021167
   6 C :    0.041100
   7 H :    0.032123
   8 H :    0.012553
   9 C :   -0.056344
  10 H :    0.031387
  11 H :    0.016799
  12 C :   -0.012074
  13 H :    0.028863
  14 H :    0.035322
  15 H :    0.028040
  16 S :    0.105802
  17 C :   -0.099629
  18 C :   -0.067387
  19 C :   -0.044801
  20 C :   -0.164955
  21 H :    0.051599
  22 C :    0.079861
  23 H :    0.014455
  24 H :   -0.003703
  25 C :   -0.069920
  26 H :    0.034876
  27 H :    0.040093
  28 C :   -0.043101
  29 H :    0.020538
  30 H :    0.034004
  31 H :    0.048612
  32 H :    0.046035
  33 H :    0.060602
Sum of atomic charges:   -0.0000000

LOEWDIN ATOMIC CHARGES
----------------------
   0 S :    0.452477
   1 C :   -0.221584
   2 C :   -0.063747
   3 C :   -0.056400
   4 C :   -0.214206
   5 H :    0.033803
   6 C :   -0.044507
   7 H :    0.038132
   8 H :    0.025368
   9 C :   -0.038114
  10 H :    0.027227
  11 H :    0.020525
  12 C :   -0.057818
  13 H :    0.023087
  14 H :    0.031653
  15 H :    0.022219
  16 S :    0.408215
  17 C :   -0.186671
  18 C :   -0.082604
  19 C :   -0.062957
  20 C :   -0.204598
  21 H :    0.049206
  22 C :   -0.031981
  23 H :    0.024633
  24 H :    0.021736
  25 C :   -0.042670
  26 H :    0.027308
  27 H :    0.030360
  28 C :   -0.076844
  29 H :    0.028147
  30 H :    0.031715
  31 H :    0.029098
  32 H :    0.030697
  33 H :    0.029095

  Mayer bond orders larger than 0.100000
B(  0-S ,  1-C ) :   1.1590 B(  0-S ,  4-C ) :   1.1674 B(  1-C ,  2-C ) :   1.5796
B(  1-C , 32-H ) :   0.9652 B(  2-C ,  3-C ) :   1.2638 B(  2-C ,  6-C ) :   1.0328
B(  3-C ,  4-C ) :   1.5446 B(  3-C ,  5-H ) :   0.9909 B(  4-C , 20-C ) :   1.0539
B(  6-C ,  7-H ) :   0.9343 B(  6-C ,  8-H ) :   0.9334 B(  6-C ,  9-C ) :   1.0617
B(  9-C , 10-H ) :   0.9569 B(  9-C , 11-H ) :   0.9534 B(  9-C , 12-C ) :   1.0808
B( 12-C , 13-H ) :   0.9767 B( 12-C , 14-H ) :   0.9725 B( 12-C , 15-H ) :   0.9754
B( 16-S , 17-C ) :   1.1725 B( 16-S , 20-C ) :   1.1598 B( 17-C , 18-C ) :   1.5617
B( 17-C , 20-C ) :   0.1199 B( 17-C , 33-H ) :   0.9651 B( 18-C , 19-C ) :   1.3125
B( 18-C , 21-H ) :   0.9739 B( 19-C , 20-C ) :   1.5282 B( 19-C , 22-C ) :   1.0453
B( 22-C , 23-H ) :   0.9258 B( 22-C , 24-H ) :   0.9243 B( 22-C , 25-C ) :   1.0605
B( 25-C , 26-H ) :   0.9562 B( 25-C , 27-H ) :   0.9582 B( 25-C , 28-C ) :   1.0706
B( 28-C , 29-H ) :   0.9730 B( 28-C , 30-H ) :   0.9717 B( 28-C , 31-H ) :   0.9749

Dispersion correction           -0.013906990
FINAL SINGLE POINT ENERGY     -1339.877419467096

DIPOLE MOMENT
-------------
                                X             Y             Z
Electronic contribution:    -18.73916      21.82278       6.94601
Nuclear contribution   :     19.20359     -22.32588      -6.97987
                        -----------------------------------------
Total Dipole Moment    :      0.46443      -0.50310      -0.03386
                        -----------------------------------------
Magnitude (a.u.)       :      0.68553
Magnitude (Debye)      :      1.74248

Rotational constants in cm-1:     0.018203     0.008224     0.006489
Rotational constants in MHz :   545.725255   246.536146   194.544915

                             ****ORCA TERMINATED NORMALLY****
TOTAL RUN TIME: 0 days 0 hours 0 minutes 34 seconds 201 msec
