                         Program Version 4.2.1 -  RELEASE  -
|  1> ! wB97X-D3 SP def2-SVP
|  2> %pal
|  3> nprocs 16
|  4> end
|  5>
|  6> * xyz 0 1
|  7> S 	 60.9369 	 24.2841 	 74.5465
|  8> C 	 61.0901 	 24.6391 	 72.8741
|  9> C 	 62.4051 	 24.304 	 72.4611
| 10> C 	 63.0864 	 23.5019 	 73.4299
| 11> C 	 62.3505 	 23.3537 	 74.5704
| 12> H 	 64.1754 	 23.1638 	 73.433
| 13> C 	 63.0086 	 24.6258 	 71.1015
| 14> H 	 62.2597 	 25.0172 	 70.4052
| 15> H 	 63.427 	 23.6917 	 70.5658
| 16> C 	 64.1621 	 25.6613 	 71.2017
| 17> H 	 63.86 	 26.6663 	 71.596
| 18> H 	 65.0171 	 25.3054 	 71.8384
| 19> C 	 64.8815 	 25.7014 	 69.8378
| 20> H 	 65.6467 	 26.4482 	 69.7855
| 21> H 	 65.3023 	 24.8032 	 69.4673
| 22> H 	 64.2618 	 26.0203 	 69.0383
| 23> S 	 62.5735 	 23.5335 	 77.3855
| 24> C 	 63.6436 	 22.3747 	 78.1633
| 25> C 	 64.0153 	 21.3404 	 77.259
| 26> C 	 63.3533 	 21.4463 	 75.9575
| 27> C 	 62.7516 	 22.6865 	 75.7967
| 28> H 	 64.6545 	 20.6454 	 77.6426
| 29> C 	 63.6271 	 20.4126 	 74.9061
| 30> H 	 64.5606 	 20.7269 	 74.3791
| 31> H 	 62.7821 	 20.4259 	 74.2108
| 32> C 	 63.7475 	 18.9674 	 75.4189
| 33> H 	 64.6566 	 18.7092 	 75.9195
| 34> H 	 63.7915 	 18.309 	 74.5051
| 35> C 	 62.5694 	 18.2895 	 76.1666
| 36> H 	 62.6631 	 17.3022 	 76.5641
| 37> H 	 61.7133 	 18.1527 	 75.4517
| 38> H 	 62.2926 	 18.8683 	 77.0372
| 39> H 	 60.3701 	 25.1993 	 72.2609
| 40> H 	 64.0225 	 22.4172 	 79.1685
| 41> *
| 42>
| 43>                          ****END OF INPUT****

CARTESIAN COORDINATES (ANGSTROEM)
---------------------------------
  S     60.936900   24.284100   74.546500
  C     61.090100   24.639100   72.874100
  C     62.405100   24.304000   72.461100
  C     63.086400   23.501900   73.429900
  C     62.350500   23.353700   74.570400
  H     64.175400   23.163800   73.433000
  C     63.008600   24.625800   71.101500
  H     62.259700   25.017200   70.405200
  H     63.427000   23.691700   70.565800
  C     64.162100   25.661300   71.201700
  H     63.860000   26.666300   71.596000
  H     65.017100   25.305400   71.838400
  C     64.881500   25.701400   69.837800
  H     65.646700   26.448200   69.785500
  H     65.302300   24.803200   69.467300
  H     64.261800   26.020300   69.038300
  S     62.573500   23.533500   77.385500
  C     63.643600   22.374700   78.163300
  C     64.015300   21.340400   77.259000
  C     63.353300   21.446300   75.957500
  C     62.751600   22.686500   75.796700
  H     64.654500   20.645400   77.642600
  C     63.627100   20.412600   74.906100
  H     64.560600   20.726900   74.379100
  H     62.782100   20.425900   74.210800
  C     63.747500   18.967400   75.418900
  H     64.656600   18.709200   75.919500
  H     63.791500   18.309000   74.505100
  C     62.569400   18.289500   76.166600
  H     62.663100   17.302200   76.564100
  H     61.713300   18.152700   75.451700
  H     62.292600   18.868300   77.037200
  H     60.370100   25.199300   72.260900
  H     64.022500   22.417200   79.168500

 Total Charge           Charge          ....    0
 Multiplicity           Mult            ....    1
 Number of Electrons    NEL             ....  134
 Basis Dimension        Dim             ....  322

ORBITAL ENERGIES
----------------

  NO   OCC          E(Eh)            E(eV)
   0   2.0000     -88.965288     -2420.8686
   1   2.0000     -88.965249     -2420.8675
   2   2.0000     -10.329293      -281.0743
   3   2.0000     -10.323640      -280.9205
   4   2.0000     -10.320590      -280.8375
   5   2.0000     -10.317066      -280.7416
   6   2.0000     -10.306608      -280.4571
   7   2.0000     -10.306459      -280.4530
   8   2.0000     -10.301358      -280.3142
   9   2.0000     -10.298359      -280.2326
  10   2.0000     -10.297900      -280.2201
  11   2.0000     -10.296209      -280.1741
  12   2.0000     -10.293067      -280.0886
  13   2.0000     -10.289709      -279.9972
  14   2.0000     -10.275704      -279.6161
  15   2.0000     -10.268815      -279.4287
  16   2.0000      -8.081783      -219.9165
  17   2.0000      -8.078913      -219.8384
  18   2.0000      -6.040131      -164.3603
  19   2.0000      -6.037595      -164.2913
  20   2.0000      -6.036052      -164.2493
  21   2.0000      -6.033668      -164.1845
  22   2.0000      -6.032593      -164.1552
  23   2.0000      -6.029474      -164.0703
  24   2.0000      -1.012443       -27.5500
  25   2.0000      -0.977620       -26.6024
  26   2.0000      -0.908788       -24.7294
  27   2.0000      -0.905373       -24.6365
  28   2.0000      -0.868252       -23.6263
  29   2.0000      -0.852485       -23.1973
  30   2.0000      -0.841195       -22.8901
  31   2.0000      -0.813029       -22.1236
  32   2.0000      -0.784484       -21.3469
  33   2.0000      -0.771542       -20.9947
  34   2.0000      -0.707938       -19.2640
  35   2.0000      -0.698097       -18.9962
  36   2.0000      -0.692950       -18.8561
  37   2.0000      -0.656779       -17.8719
  38   2.0000      -0.643275       -17.5044
  39   2.0000      -0.618534       -16.8312
  40   2.0000      -0.591872       -16.1057
  41   2.0000      -0.568615       -15.4728
  42   2.0000      -0.558960       -15.2101
  43   2.0000      -0.557550       -15.1717
  44   2.0000      -0.535508       -14.5719
  45   2.0000      -0.524707       -14.2780
  46   2.0000      -0.515194       -14.0191
  47   2.0000      -0.512261       -13.9393
  48   2.0000      -0.503748       -13.7077
  49   2.0000      -0.500459       -13.6182
  50   2.0000      -0.487705       -13.2711
  51   2.0000      -0.475988       -12.9523
  52   2.0000      -0.469096       -12.7648
  53   2.0000      -0.460473       -12.5301
  54   2.0000      -0.459068       -12.4919
  55   2.0000      -0.454839       -12.3768
  56   2.0000      -0.447039       -12.1646
  57   2.0000      -0.443963       -12.0809
  58   2.0000      -0.430958       -11.7270
  59   2.0000      -0.418786       -11.3957
  60   2.0000      -0.417459       -11.3596
  61   2.0000      -0.414914       -11.2904
  62   2.0000      -0.405488       -11.0339
  63   2.0000      -0.349260        -9.5039
  64   2.0000      -0.329248        -8.9593
  65   2.0000      -0.326356        -8.8806
  66   2.0000      -0.285322        -7.7640
  67   0.0000       0.026334         0.7166
  68   0.0000       0.067121         1.8265
  69   0.0000       0.105407         2.8683
  70   0.0000       0.113506         3.0887
  71   0.0000       0.131604         3.5811

MULLIKEN ATOMIC CHARGES
-----------------------
   0 S :    0.118731
   1 C :   -0.117147
   2 C :   -0.076166
   3 C :   -0.005093
   4 C :   -0.153459
   5 H :    0.046343
   6 C :    0.021053
   7 H :    0.023270
   8 H :    0.045182
   9 C :   -0.096953
  10 H :    0.047467
  11 H :    0.041199
  12 C :   -0.019934
  13 H :    0.018823
  14 H :    0.020449
  15 H :    0.005357
  16 S :    0.096963
  17 C :   -0.094062
  18 C :   -0.017502
  19 C :   -0.052810
  20 C :   -0.127782
  21 H :   -0.011177
  22 C :    0.090889
  23 H :    0.054996
  24 H :    0.035031
  25 C :   -0.100159
  26 H :    0.025372
  27 H :    0.030896
  28 C :   -0.058579
  29 H :    0.025829
  30 H :    0.031923
  31 H :    0.035452
  32 H :    0.058115
  33 H :    0.057481
Sum of atomic charges:   -0.0000000

LOEWDIN ATOMIC CHARGES
----------------------
   0 S :    0.444123
   1 C :   -0.215756
   2 C :   -0.061720
   3 C :   -0.072927
   4 C :   -0.210797
   5 H :    0.047620
   6 C :   -0.038493
   7 H :    0.028527
   8 H :    0.040208
   9 C :   -0.041296
  10 H :    0.031593
  11 H :    0.030219
  12 C :   -0.067626
  13 H :    0.023048
  14 H :    0.020281
  15 H :    0.017013
  16 S :    0.369100
  17 C :   -0.179276
  18 C :   -0.058058
  19 C :   -0.055324
  20 C :   -0.181423
  21 H :    0.013356
  22 C :   -0.032379
  23 H :    0.043697
  24 H :    0.036395
  25 C :   -0.049173
  26 H :    0.016651
  27 H :    0.033889
  28 C :   -0.071070
  29 H :    0.024722
  30 H :    0.029957
  31 H :    0.022277
  32 H :    0.033877
  33 H :    0.028764

  Mayer bond orders larger than 0.100000
B(  0-S ,  1-C ) :   1.1533 B(  0-S ,  4-C ) :   1.1742 B(  1-C ,  2-C ) :   1.5732
B(  1-C , 32-H ) :   0.9705 B(  2-C ,  3-C ) :   1.2523 B(  2-C ,  6-C ) :   1.0316
B(  3-C ,  4-C ) :   1.5559 B(  3-C ,  5-H ) :   0.9808 B(  4-C , 20-C ) :   1.0528
B(  6-C ,  7-H ) :   0.9446 B(  6-C ,  8-H ) :   0.9501 B(  6-C ,  9-C ) :   1.0469
B(  9-C , 10-H ) :   0.9567 B(  9-C , 11-H ) :   0.9603 B(  9-C , 12-C ) :   1.0718
B( 12-C , 13-H ) :   0.9717 B( 12-C , 14-H ) :   0.9748 B( 12-C , 15-H ) :   0.9698
B( 16-S , 17-C ) :   1.1395 B( 16-S , 20-C ) :   1.1099 B( 17-C , 18-C ) :   1.6374
B( 17-C , 33-H ) :   0.9680 B( 18-C , 19-C ) :   1.1816 B( 18-C , 21-H ) :   1.0021
B( 19-C , 20-C ) :   1.6178 B( 19-C , 22-C ) :   1.0514 B( 22-C , 23-H ) :   0.9297
B( 22-C , 24-H ) :   0.9300 B( 22-C , 25-C ) :   1.0705 B( 25-C , 26-H ) :   0.9544
B( 25-C , 27-H ) :   0.9572 B( 25-C , 28-C ) :   1.0711 B( 28-C , 29-H ) :   0.9741
B( 28-C , 30-H ) :   0.9768 B( 28-C , 31-H ) :   0.9746

Dispersion correction           -0.013862953
FINAL SINGLE POINT ENERGY     -1339.858146547257

DIPOLE MOMENT
-------------
                                X             Y             Z
Electronic contribution:    -12.71968      10.50958      18.28739
Nuclear contribution   :     13.23555     -10.73513     -18.72372
                        -----------------------------------------
Total Dipole Moment    :      0.51587      -0.22556      -0.43633
                        -----------------------------------------
Magnitude (a.u.)       :      0.71231
Magnitude (Debye)      :      1.81054

Rotational constants in cm-1:     0.019878     0.007464     0.006489
Rotational constants in MHz :   595.929140   223.772207   194.549254

                             ****ORCA TERMINATED NORMALLY****
TOTAL RUN TIME: 0 days 0 hours 0 minutes 28 seconds 77 msec
