                         Program Version 4.2.1 -  RELEASE  -
|  1> ! wB97X-D3 SP def2-SVP
|  2> %pal
|  3> nprocs 16
|  4> end
|  5>
|  6> * xyz 0 1
|  7> S 	 59.617 	 -6.48728 	 87.4678
|  8> C 	 58.3322 	 -5.99277 	 88.5721
|  9> C 	 58.8278 	 -5.32772 	 89.6721
| 10> C 	 60.2547 	 -5.34675 	 89.6288
| 11> C 	 60.883 	 -6.04154 	 88.5916
| 12> H 	 60.9452 	 -5.03524 	 90.3562
| 13> C 	 58.122 	 -4.71636 	 90.8674
| 14> H 	 58.1257 	 -3.59772 	 90.8435
| 15> H 	 58.6934 	 -4.99905 	 91.7557
| 16> C 	 56.7006 	 -5.06712 	 91.1843
| 17> H 	 56.3234 	 -4.37025 	 91.9834
| 18> H 	 56.1347 	 -4.69851 	 90.3218
| 19> C 	 56.3707 	 -6.53613 	 91.5993
| 20> H 	 57.0586 	 -6.85781 	 92.3356
| 21> H 	 55.3908 	 -6.63512 	 92.0262
| 22> H 	 56.3921 	 -7.22565 	 90.7761
| 23> S 	 62.9803 	 -7.75871 	 88.3535
| 24> C 	 64.5435 	 -7.0484 	 87.9276
| 25> C 	 64.4962 	 -5.65395 	 87.7751
| 26> C 	 63.1941 	 -5.16322 	 87.9684
| 27> C 	 62.279 	 -6.14432 	 88.3213
| 28> H 	 65.3463 	 -5.08247 	 87.3955
| 29> C 	 62.8325 	 -3.74139 	 87.6747
| 30> H 	 61.8485 	 -3.4405 	 87.6135
| 31> H 	 63.2832 	 -3.44681 	 86.7222
| 32> C 	 63.514 	 -2.71921 	 88.6371
| 33> H 	 64.5527 	 -2.80402 	 88.6338
| 34> H 	 63.2513 	 -2.9373 	 89.6502
| 35> C 	 63.3874 	 -1.29708 	 88.1782
| 36> H 	 63.8715 	 -1.2538 	 87.1384
| 37> H 	 63.7897 	 -0.591103 	 88.8566
| 38> H 	 62.3072 	 -1.0256 	 88.1508
| 39> H 	 57.2937 	 -6.05379 	 88.3962
| 40> H 	 65.4443 	 -7.61513 	 87.8188
| 41> *
| 42>
| 43>                          ****END OF INPUT****

CARTESIAN COORDINATES (ANGSTROEM)
---------------------------------
  S     59.617000   -6.487280   87.467800
  C     58.332200   -5.992770   88.572100
  C     58.827800   -5.327720   89.672100
  C     60.254700   -5.346750   89.628800
  C     60.883000   -6.041540   88.591600
  H     60.945200   -5.035240   90.356200
  C     58.122000   -4.716360   90.867400
  H     58.125700   -3.597720   90.843500
  H     58.693400   -4.999050   91.755700
  C     56.700600   -5.067120   91.184300
  H     56.323400   -4.370250   91.983400
  H     56.134700   -4.698510   90.321800
  C     56.370700   -6.536130   91.599300
  H     57.058600   -6.857810   92.335600
  H     55.390800   -6.635120   92.026200
  H     56.392100   -7.225650   90.776100
  S     62.980300   -7.758710   88.353500
  C     64.543500   -7.048400   87.927600
  C     64.496200   -5.653950   87.775100
  C     63.194100   -5.163220   87.968400
  C     62.279000   -6.144320   88.321300
  H     65.346300   -5.082470   87.395500
  C     62.832500   -3.741390   87.674700
  H     61.848500   -3.440500   87.613500
  H     63.283200   -3.446810   86.722200
  C     63.514000   -2.719210   88.637100
  H     64.552700   -2.804020   88.633800
  H     63.251300   -2.937300   89.650200
  C     63.387400   -1.297080   88.178200
  H     63.871500   -1.253800   87.138400
  H     63.789700   -0.591103   88.856600
  H     62.307200   -1.025600   88.150800
  H     57.293700   -6.053790   88.396200
  H     65.444300   -7.615130   87.818800

 Total Charge           Charge          ....    0
 Multiplicity           Mult            ....    1
 Number of Electrons    NEL             ....  134
 Basis Dimension        Dim             ....  322

ORBITAL ENERGIES
----------------

  NO   OCC          E(Eh)            E(eV)
   0   2.0000     -88.969440     -2420.9815
   1   2.0000     -88.962571     -2420.7946
   2   2.0000     -10.323436      -280.9150
   3   2.0000     -10.323107      -280.9060
   4   2.0000     -10.322578      -280.8916
   5   2.0000     -10.312585      -280.6197
   6   2.0000     -10.304123      -280.3894
   7   2.0000     -10.302121      -280.3350
   8   2.0000     -10.297902      -280.2202
   9   2.0000     -10.295426      -280.1528
  10   2.0000     -10.290733      -280.0251
  11   2.0000     -10.287193      -279.9288
  12   2.0000     -10.284643      -279.8594
  13   2.0000     -10.281045      -279.7614
  14   2.0000     -10.274053      -279.5712
  15   2.0000     -10.273428      -279.5542
  16   2.0000      -8.083662      -219.9676
  17   2.0000      -8.077039      -219.7874
  18   2.0000      -6.042051      -164.4126
  19   2.0000      -6.038329      -164.3113
  20   2.0000      -6.035683      -164.2393
  21   2.0000      -6.034495      -164.2070
  22   2.0000      -6.031501      -164.1255
  23   2.0000      -6.027732      -164.0229
  24   2.0000      -1.005876       -27.3713
  25   2.0000      -0.982332       -26.7306
  26   2.0000      -0.915214       -24.9042
  27   2.0000      -0.912595       -24.8330
  28   2.0000      -0.870197       -23.6793
  29   2.0000      -0.857205       -23.3257
  30   2.0000      -0.843812       -22.9613
  31   2.0000      -0.810645       -22.0588
  32   2.0000      -0.789840       -21.4926
  33   2.0000      -0.775103       -21.0916
  34   2.0000      -0.708687       -19.2844
  35   2.0000      -0.701596       -19.0914
  36   2.0000      -0.697802       -18.9882
  37   2.0000      -0.665320       -18.1043
  38   2.0000      -0.643371       -17.5070
  39   2.0000      -0.613257       -16.6876
  40   2.0000      -0.598385       -16.2829
  41   2.0000      -0.577060       -15.7026
  42   2.0000      -0.572717       -15.5844
  43   2.0000      -0.555964       -15.1285
  44   2.0000      -0.537860       -14.6359
  45   2.0000      -0.525711       -14.3053
  46   2.0000      -0.520431       -14.1616
  47   2.0000      -0.510237       -13.8842
  48   2.0000      -0.504657       -13.7324
  49   2.0000      -0.493613       -13.4319
  50   2.0000      -0.490486       -13.3468
  51   2.0000      -0.482284       -13.1236
  52   2.0000      -0.473669       -12.8892
  53   2.0000      -0.466824       -12.7029
  54   2.0000      -0.461911       -12.5692
  55   2.0000      -0.455864       -12.4047
  56   2.0000      -0.440399       -11.9839
  57   2.0000      -0.434201       -11.8152
  58   2.0000      -0.429198       -11.6791
  59   2.0000      -0.428069       -11.6484
  60   2.0000      -0.424883       -11.5617
  61   2.0000      -0.416179       -11.3248
  62   2.0000      -0.410212       -11.1624
  63   2.0000      -0.337622        -9.1872
  64   2.0000      -0.330332        -8.9888
  65   2.0000      -0.325363        -8.8536
  66   2.0000      -0.300495        -8.1769
  67   0.0000       0.034398         0.9360
  68   0.0000       0.060276         1.6402
  69   0.0000       0.109543         2.9808
  70   0.0000       0.118060         3.2126
  71   0.0000       0.126592         3.4447

MULLIKEN ATOMIC CHARGES
-----------------------
   0 S :    0.107072
   1 C :   -0.107119
   2 C :   -0.048813
   3 C :    0.033377
   4 C :   -0.162525
   5 H :   -0.011229
   6 C :    0.050671
   7 H :    0.048080
   8 H :    0.027673
   9 C :   -0.113681
  10 H :    0.031913
  11 H :    0.020691
  12 C :   -0.005226
  13 H :    0.021994
  14 H :    0.028240
  15 H :    0.027890
  16 S :    0.120509
  17 C :   -0.086587
  18 C :   -0.042297
  19 C :    0.032835
  20 C :   -0.205908
  21 H :    0.029898
  22 C :    0.106951
  23 H :    0.010176
  24 H :    0.010267
  25 C :   -0.081402
  26 H :    0.005771
  27 H :    0.017411
  28 C :   -0.049307
  29 H :    0.042408
  30 H :    0.030742
  31 H :    0.027303
  32 H :    0.030572
  33 H :    0.051651
Sum of atomic charges:    0.0000000

LOEWDIN ATOMIC CHARGES
----------------------
   0 S :    0.397991
   1 C :   -0.184548
   2 C :   -0.065600
   3 C :   -0.053786
   4 C :   -0.204207
   5 H :    0.020135
   6 C :   -0.037626
   7 H :    0.043283
   8 H :    0.031161
   9 C :   -0.051927
  10 H :    0.032758
  11 H :    0.020341
  12 C :   -0.058715
  13 H :    0.021954
  14 H :    0.026538
  15 H :    0.023183
  16 S :    0.405339
  17 C :   -0.168580
  18 C :   -0.067840
  19 C :   -0.044963
  20 C :   -0.207133
  21 H :    0.037093
  22 C :   -0.017768
  23 H :    0.019641
  24 H :    0.032635
  25 C :   -0.039973
  26 H :    0.013210
  27 H :    0.016551
  28 C :   -0.063583
  29 H :    0.035601
  30 H :    0.021420
  31 H :    0.024242
  32 H :    0.019831
  33 H :    0.023343

  Mayer bond orders larger than 0.100000
B(  0-S ,  1-C ) :   1.1414 B(  0-S ,  4-C ) :   1.1339 B(  1-C ,  2-C ) :   1.6123
B(  1-C , 32-H ) :   0.9678 B(  2-C ,  3-C ) :   1.2320 B(  2-C ,  6-C ) :   1.0033
B(  3-C ,  4-C ) :   1.5902 B(  3-C ,  5-H ) :   1.0046 B(  4-C , 20-C ) :   1.0493
B(  6-C ,  7-H ) :   0.9328 B(  6-C ,  8-H ) :   0.9452 B(  6-C ,  9-C ) :   1.0960
B(  9-C , 10-H ) :   0.9516 B(  9-C , 11-H ) :   0.9488 B(  9-C , 12-C ) :   1.0690
B( 12-C , 13-H ) :   0.9747 B( 12-C , 14-H ) :   0.9750 B( 12-C , 15-H ) :   0.9763
B( 16-S , 17-C ) :   1.1651 B( 16-S , 20-C ) :   1.1340 B( 17-C , 18-C ) :   1.5979
B( 17-C , 20-C ) :   0.1055 B( 17-C , 33-H ) :   0.9696 B( 18-C , 19-C ) :   1.2451
B( 18-C , 21-H ) :   0.9849 B( 19-C , 20-C ) :   1.5891 B( 19-C , 22-C ) :   1.0529
B( 22-C , 23-H ) :   0.9405 B( 22-C , 24-H ) :   0.9293 B( 22-C , 25-C ) :   1.0470
B( 25-C , 26-H ) :   0.9560 B( 25-C , 27-H ) :   0.9531 B( 25-C , 28-C ) :   1.0848
B( 28-C , 29-H ) :   0.9707 B( 28-C , 30-H ) :   0.9718 B( 28-C , 31-H ) :   0.9738

Dispersion correction           -0.014031985
FINAL SINGLE POINT ENERGY     -1339.869170639342

DIPOLE MOMENT
-------------
                                X             Y             Z
Electronic contribution:      8.10199     -20.08691     -11.62671
Nuclear contribution   :     -8.01045      20.64632      11.91218
                        -----------------------------------------
Total Dipole Moment    :      0.09154       0.55941       0.28547
                        -----------------------------------------
Magnitude (a.u.)       :      0.63468
Magnitude (Debye)      :      1.61322

Rotational constants in cm-1:     0.019277     0.007965     0.006374
Rotational constants in MHz :   577.908097   238.793938   191.083111

                             ****ORCA TERMINATED NORMALLY****
TOTAL RUN TIME: 0 days 0 hours 0 minutes 29 seconds 689 msec
