                         Program Version 4.2.1 -  RELEASE  -
|  1> ! wB97X-D3 SP def2-SVP
|  2> %pal
|  3> nprocs 16
|  4> end
|  5>
|  6> * xyz 0 1
|  7> S 	 -19.6856 	 1.38281 	 76.7038
|  8> C 	 -19.644 	 0.967336 	 75.0218
|  9> C 	 -20.7248 	 1.57495 	 74.4161
| 10> C 	 -21.6571 	 2.19648 	 75.3166
| 11> C 	 -21.3091 	 2.11511 	 76.626
| 12> H 	 -22.5327 	 2.73797 	 74.9988
| 13> C 	 -20.906 	 1.79375 	 72.9328
| 14> H 	 -21.8658 	 2.07463 	 72.5989
| 15> H 	 -20.8808 	 0.818554 	 72.3849
| 16> C 	 -19.859 	 2.71883 	 72.3567
| 17> H 	 -18.8473 	 2.26601 	 72.3573
| 18> H 	 -20.0407 	 2.84905 	 71.2974
| 19> C 	 -19.8534 	 4.14163 	 72.9793
| 20> H 	 -20.8001 	 4.64996 	 72.8545
| 21> H 	 -19.8602 	 4.12811 	 74.0224
| 22> H 	 -18.9601 	 4.75078 	 72.5766
| 23> S 	 -21.055 	 2.90883 	 79.2008
| 24> C 	 -22.4088 	 3.15773 	 80.2554
| 25> C 	 -23.5664 	 3.23804 	 79.431
| 26> C 	 -23.3326 	 2.9174 	 78.0683
| 27> C 	 -22.0366 	 2.57747 	 77.8064
| 28> H 	 -24.5362 	 3.36084 	 79.8804
| 29> C 	 -24.4972 	 2.88713 	 77.1218
| 30> H 	 -24.1286 	 3.03778 	 76.1344
| 31> H 	 -25.3534 	 3.60167 	 77.2334
| 32> C 	 -25.119 	 1.46271 	 77.0776
| 33> H 	 -25.6051 	 1.20289 	 78.0784
| 34> H 	 -24.298 	 0.739634 	 76.9793
| 35> C 	 -26.2521 	 1.24621 	 76.0454
| 36> H 	 -27.1002 	 1.84437 	 76.123
| 37> H 	 -26.5164 	 0.17928 	 75.9809
| 38> H 	 -25.8241 	 1.49587 	 75.0687
| 39> H 	 -18.7843 	 0.489722 	 74.4601
| 40> H 	 -22.4366 	 3.35298 	 81.2983
| 41> *
| 42>
| 43>                          ****END OF INPUT****

CARTESIAN COORDINATES (ANGSTROEM)
---------------------------------
  S    -19.685600    1.382810   76.703800
  C    -19.644000    0.967336   75.021800
  C    -20.724800    1.574950   74.416100
  C    -21.657100    2.196480   75.316600
  C    -21.309100    2.115110   76.626000
  H    -22.532700    2.737970   74.998800
  C    -20.906000    1.793750   72.932800
  H    -21.865800    2.074630   72.598900
  H    -20.880800    0.818554   72.384900
  C    -19.859000    2.718830   72.356700
  H    -18.847300    2.266010   72.357300
  H    -20.040700    2.849050   71.297400
  C    -19.853400    4.141630   72.979300
  H    -20.800100    4.649960   72.854500
  H    -19.860200    4.128110   74.022400
  H    -18.960100    4.750780   72.576600
  S    -21.055000    2.908830   79.200800
  C    -22.408800    3.157730   80.255400
  C    -23.566400    3.238040   79.431000
  C    -23.332600    2.917400   78.068300
  C    -22.036600    2.577470   77.806400
  H    -24.536200    3.360840   79.880400
  C    -24.497200    2.887130   77.121800
  H    -24.128600    3.037780   76.134400
  H    -25.353400    3.601670   77.233400
  C    -25.119000    1.462710   77.077600
  H    -25.605100    1.202890   78.078400
  H    -24.298000    0.739634   76.979300
  C    -26.252100    1.246210   76.045400
  H    -27.100200    1.844370   76.123000
  H    -26.516400    0.179280   75.980900
  H    -25.824100    1.495870   75.068700
  H    -18.784300    0.489722   74.460100
  H    -22.436600    3.352980   81.298300

 Total Charge           Charge          ....    0
 Multiplicity           Mult            ....    1
 Number of Electrons    NEL             ....  134
 Basis Dimension        Dim             ....  322

ORBITAL ENERGIES
----------------

  NO   OCC          E(Eh)            E(eV)
   0   2.0000     -88.967112     -2420.9182
   1   2.0000     -88.966523     -2420.9022
   2   2.0000     -10.335394      -281.2404
   3   2.0000     -10.330077      -281.0957
   4   2.0000     -10.320449      -280.8337
   5   2.0000     -10.320169      -280.8261
   6   2.0000     -10.304439      -280.3980
   7   2.0000     -10.301944      -280.3302
   8   2.0000     -10.295853      -280.1644
   9   2.0000     -10.294890      -280.1382
  10   2.0000     -10.292793      -280.0811
  11   2.0000     -10.291635      -280.0496
  12   2.0000     -10.288591      -279.9668
  13   2.0000     -10.286058      -279.8979
  14   2.0000     -10.275865      -279.6205
  15   2.0000     -10.274715      -279.5892
  16   2.0000      -8.082244      -219.9290
  17   2.0000      -8.080933      -219.8934
  18   2.0000      -6.040831      -164.3794
  19   2.0000      -6.039672      -164.3478
  20   2.0000      -6.036604      -164.2644
  21   2.0000      -6.035500      -164.2343
  22   2.0000      -6.032985      -164.1659
  23   2.0000      -6.031410      -164.1230
  24   2.0000      -1.013423       -27.5766
  25   2.0000      -0.989916       -26.9370
  26   2.0000      -0.912836       -24.8395
  27   2.0000      -0.909799       -24.7569
  28   2.0000      -0.871369       -23.7112
  29   2.0000      -0.852893       -23.2084
  30   2.0000      -0.841664       -22.9028
  31   2.0000      -0.816424       -22.2160
  32   2.0000      -0.784132       -21.3373
  33   2.0000      -0.776817       -21.1383
  34   2.0000      -0.707430       -19.2502
  35   2.0000      -0.702763       -19.1232
  36   2.0000      -0.693309       -18.8659
  37   2.0000      -0.672614       -18.3027
  38   2.0000      -0.639922       -17.4132
  39   2.0000      -0.621699       -16.9173
  40   2.0000      -0.600560       -16.3421
  41   2.0000      -0.577330       -15.7099
  42   2.0000      -0.562765       -15.3136
  43   2.0000      -0.548908       -14.9365
  44   2.0000      -0.538576       -14.6554
  45   2.0000      -0.525099       -14.2887
  46   2.0000      -0.519684       -14.1413
  47   2.0000      -0.509888       -13.8748
  48   2.0000      -0.506532       -13.7834
  49   2.0000      -0.505754       -13.7623
  50   2.0000      -0.498620       -13.5681
  51   2.0000      -0.481802       -13.1105
  52   2.0000      -0.478322       -13.0158
  53   2.0000      -0.469151       -12.7662
  54   2.0000      -0.457175       -12.4404
  55   2.0000      -0.448236       -12.1971
  56   2.0000      -0.441860       -12.0236
  57   2.0000      -0.436134       -11.8678
  58   2.0000      -0.432160       -11.7597
  59   2.0000      -0.421610       -11.4726
  60   2.0000      -0.415735       -11.3127
  61   2.0000      -0.409843       -11.1524
  62   2.0000      -0.406781       -11.0691
  63   2.0000      -0.364783        -9.9263
  64   2.0000      -0.333137        -9.0651
  65   2.0000      -0.326306        -8.8792
  66   2.0000      -0.286431        -7.7942
  67   0.0000       0.016362         0.4452
  68   0.0000       0.079627         2.1668
  69   0.0000       0.096296         2.6204
  70   0.0000       0.121262         3.2997
  71   0.0000       0.136280         3.7084

MULLIKEN ATOMIC CHARGES
-----------------------
   0 S :    0.099098
   1 C :   -0.129019
   2 C :   -0.089878
   3 C :   -0.025989
   4 C :   -0.077399
   5 H :    0.010479
   6 C :    0.069469
   7 H :    0.001152
   8 H :    0.027238
   9 C :   -0.065569
  10 H :    0.027284
  11 H :    0.022643
  12 C :   -0.054409
  13 H :    0.015872
  14 H :    0.028011
  15 H :    0.053533
  16 S :    0.102776
  17 C :   -0.075835
  18 C :   -0.044555
  19 C :   -0.044162
  20 C :   -0.118834
  21 H :    0.017095
  22 C :    0.081578
  23 H :   -0.013044
  24 H :    0.037162
  25 C :   -0.121833
  26 H :    0.029824
  27 H :    0.038932
  28 C :   -0.009905
  29 H :    0.022746
  30 H :    0.042216
  31 H :    0.011139
  32 H :    0.080116
  33 H :    0.052066
Sum of atomic charges:   -0.0000000

LOEWDIN ATOMIC CHARGES
----------------------
   0 S :    0.396856
   1 C :   -0.208922
   2 C :   -0.064887
   3 C :   -0.072143
   4 C :   -0.176360
   5 H :    0.027815
   6 C :   -0.039286
   7 H :    0.021321
   8 H :    0.038590
   9 C :   -0.040914
  10 H :    0.023048
  11 H :    0.022221
  12 C :   -0.070113
  13 H :    0.023197
  14 H :    0.016788
  15 H :    0.039642
  16 S :    0.422594
  17 C :   -0.187474
  18 C :   -0.063626
  19 C :   -0.060074
  20 C :   -0.193639
  21 H :    0.028355
  22 C :   -0.032357
  23 H :    0.017544
  24 H :    0.038033
  25 C :   -0.041272
  26 H :    0.024998
  27 H :    0.026792
  28 C :   -0.064382
  29 H :    0.015085
  30 H :    0.033864
  31 H :    0.021678
  32 H :    0.049649
  33 H :    0.027381

  Mayer bond orders larger than 0.100000
B(  0-S ,  1-C ) :   1.1296 B(  0-S ,  4-C ) :   1.1382 B(  1-C ,  2-C ) :   1.6053
B(  1-C , 32-H ) :   0.9619 B(  2-C ,  3-C ) :   1.2469 B(  2-C ,  6-C ) :   1.0270
B(  3-C ,  4-C ) :   1.5633 B(  3-C ,  5-H ) :   0.9980 B(  4-C , 20-C ) :   1.0666
B(  6-C ,  7-H ) :   0.9433 B(  6-C ,  8-H ) :   0.9300 B(  6-C ,  9-C ) :   1.0834
B(  9-C , 10-H ) :   0.9575 B(  9-C , 11-H ) :   0.9531 B(  9-C , 12-C ) :   1.0652
B( 12-C , 13-H ) :   0.9707 B( 12-C , 14-H ) :   0.9753 B( 12-C , 15-H ) :   0.9740
B( 16-S , 17-C ) :   1.1655 B( 16-S , 20-C ) :   1.1439 B( 17-C , 18-C ) :   1.5714
B( 17-C , 20-C ) :   0.1089 B( 17-C , 33-H ) :   0.9758 B( 18-C , 19-C ) :   1.2655
B( 18-C , 21-H ) :   0.9903 B( 19-C , 20-C ) :   1.5792 B( 19-C , 22-C ) :   1.0533
B( 22-C , 23-H ) :   0.9289 B( 22-C , 24-H ) :   0.9378 B( 22-C , 25-C ) :   1.0555
B( 25-C , 26-H ) :   0.9576 B( 25-C , 27-H ) :   0.9563 B( 25-C , 28-C ) :   1.0765
B( 28-C , 29-H ) :   0.9755 B( 28-C , 30-H ) :   0.9730 B( 28-C , 31-H ) :   0.9724

Dispersion correction           -0.014773748
FINAL SINGLE POINT ENERGY     -1339.869060214459

DIPOLE MOMENT
-------------
                                X             Y             Z
Electronic contribution:     14.81751      -1.82389      21.17258
Nuclear contribution   :    -15.32914       1.92941     -21.60129
                        -----------------------------------------
Total Dipole Moment    :     -0.51163       0.10552      -0.42871
                        -----------------------------------------
Magnitude (a.u.)       :      0.67579
Magnitude (Debye)      :      1.71772

Rotational constants in cm-1:     0.018159     0.009360     0.007159
Rotational constants in MHz :   544.399086   280.605533   214.607607

                             ****ORCA TERMINATED NORMALLY****
TOTAL RUN TIME: 0 days 0 hours 0 minutes 33 seconds 177 msec
