                         Program Version 4.2.1 -  RELEASE  -
|  1> ! wB97X-D3 SP def2-SVP
|  2> %pal
|  3> nprocs 16
|  4> end
|  5>
|  6> * xyz 0 1
|  7> S 	 0.516207 	 30.9126 	 40.294
|  8> C 	 1.21667 	 30.7068 	 38.6823
|  9> C 	 0.986247 	 31.8365 	 37.8971
| 10> C 	 -0.0605843 	 32.6225 	 38.4459
| 11> C 	 -0.464715 	 32.1805 	 39.7452
| 12> H 	 -0.678564 	 33.4594 	 38.1003
| 13> C 	 1.57003 	 32.0238 	 36.4789
| 14> H 	 2.62912 	 31.9213 	 36.593
| 15> H 	 1.46074 	 33.0636 	 36.1359
| 16> C 	 1.01336 	 31.036 	 35.3731
| 17> H 	 1.05785 	 29.978 	 35.6596
| 18> H 	 -0.0615865 	 31.1152 	 35.311
| 19> C 	 1.59388 	 31.2889 	 33.9387
| 20> H 	 1.28545 	 32.2098 	 33.4585
| 21> H 	 2.66618 	 31.3409 	 33.8878
| 22> H 	 1.42713 	 30.4073 	 33.2388
| 23> S 	 -1.31612 	 33.622 	 41.8809
| 24> C 	 -2.98233 	 33.7432 	 42.2083
| 25> C 	 -3.79008 	 32.9938 	 41.3654
| 26> C 	 -2.96393 	 32.3805 	 40.3722
| 27> C 	 -1.63404 	 32.6537 	 40.5175
| 28> H 	 -4.86717 	 33.1333 	 41.3523
| 29> C 	 -3.52791 	 31.3851 	 39.3241
| 30> H 	 -4.23721 	 30.8824 	 39.9432
| 31> H 	 -2.74292 	 30.6704 	 39.0671
| 32> C 	 -4.1661 	 32.0904 	 38.1072
| 33> H 	 -3.49962 	 32.7949 	 37.5723
| 34> H 	 -4.84946 	 32.8741 	 38.4947
| 35> C 	 -4.92327 	 31.1115 	 37.1678
| 36> H 	 -4.18662 	 30.4597 	 36.7129
| 37> H 	 -5.53728 	 31.7867 	 36.528
| 38> H 	 -5.6981 	 30.5981 	 37.6927
| 39> H 	 1.91614 	 29.8769 	 38.3182
| 40> H 	 -3.50032 	 34.2563 	 43.0112
| 41> *
| 42>
| 43>                          ****END OF INPUT****

CARTESIAN COORDINATES (ANGSTROEM)
---------------------------------
  S      0.516207   30.912600   40.294000
  C      1.216670   30.706800   38.682300
  C      0.986247   31.836500   37.897100
  C     -0.060584   32.622500   38.445900
  C     -0.464715   32.180500   39.745200
  H     -0.678564   33.459400   38.100300
  C      1.570030   32.023800   36.478900
  H      2.629120   31.921300   36.593000
  H      1.460740   33.063600   36.135900
  C      1.013360   31.036000   35.373100
  H      1.057850   29.978000   35.659600
  H     -0.061587   31.115200   35.311000
  C      1.593880   31.288900   33.938700
  H      1.285450   32.209800   33.458500
  H      2.666180   31.340900   33.887800
  H      1.427130   30.407300   33.238800
  S     -1.316120   33.622000   41.880900
  C     -2.982330   33.743200   42.208300
  C     -3.790080   32.993800   41.365400
  C     -2.963930   32.380500   40.372200
  C     -1.634040   32.653700   40.517500
  H     -4.867170   33.133300   41.352300
  C     -3.527910   31.385100   39.324100
  H     -4.237210   30.882400   39.943200
  H     -2.742920   30.670400   39.067100
  C     -4.166100   32.090400   38.107200
  H     -3.499620   32.794900   37.572300
  H     -4.849460   32.874100   38.494700
  C     -4.923270   31.111500   37.167800
  H     -4.186620   30.459700   36.712900
  H     -5.537280   31.786700   36.528000
  H     -5.698100   30.598100   37.692700
  H      1.916140   29.876900   38.318200
  H     -3.500320   34.256300   43.011200

 Total Charge           Charge          ....    0
 Multiplicity           Mult            ....    1
 Number of Electrons    NEL             ....  134
 Basis Dimension        Dim             ....  322

ORBITAL ENERGIES
----------------

  NO   OCC          E(Eh)            E(eV)
   0   2.0000     -88.969544     -2420.9844
   1   2.0000     -88.965850     -2420.8839
   2   2.0000     -10.325045      -280.9587
   3   2.0000     -10.320977      -280.8481
   4   2.0000     -10.316191      -280.7178
   5   2.0000     -10.311790      -280.5981
   6   2.0000     -10.307077      -280.4698
   7   2.0000     -10.298555      -280.2379
   8   2.0000     -10.297938      -280.2211
   9   2.0000     -10.297799      -280.2174
  10   2.0000     -10.295405      -280.1522
  11   2.0000     -10.291209      -280.0380
  12   2.0000     -10.288532      -279.9652
  13   2.0000     -10.286732      -279.9162
  14   2.0000     -10.284800      -279.8636
  15   2.0000     -10.278863      -279.7021
  16   2.0000      -8.084482      -219.9900
  17   2.0000      -8.082239      -219.9289
  18   2.0000      -6.042814      -164.4333
  19   2.0000      -6.040495      -164.3702
  20   2.0000      -6.038926      -164.3275
  21   2.0000      -6.036510      -164.2618
  22   2.0000      -6.035447      -164.2329
  23   2.0000      -6.033171      -164.1709
  24   2.0000      -1.012829       -27.5605
  25   2.0000      -0.988232       -26.8912
  26   2.0000      -0.902593       -24.5608
  27   2.0000      -0.902355       -24.5543
  28   2.0000      -0.864338       -23.5198
  29   2.0000      -0.850228       -23.1359
  30   2.0000      -0.845078       -22.9958
  31   2.0000      -0.809606       -22.0305
  32   2.0000      -0.782506       -21.2931
  33   2.0000      -0.769450       -20.9378
  34   2.0000      -0.711641       -19.3647
  35   2.0000      -0.700594       -19.0641
  36   2.0000      -0.690383       -18.7863
  37   2.0000      -0.661518       -18.0008
  38   2.0000      -0.640145       -17.4192
  39   2.0000      -0.609349       -16.5812
  40   2.0000      -0.588637       -16.0176
  41   2.0000      -0.570225       -15.5166
  42   2.0000      -0.556862       -15.1530
  43   2.0000      -0.548648       -14.9295
  44   2.0000      -0.525953       -14.3119
  45   2.0000      -0.519149       -14.1268
  46   2.0000      -0.514907       -14.0113
  47   2.0000      -0.508340       -13.8326
  48   2.0000      -0.498262       -13.5584
  49   2.0000      -0.496235       -13.5032
  50   2.0000      -0.493303       -13.4235
  51   2.0000      -0.478342       -13.0163
  52   2.0000      -0.470690       -12.8081
  53   2.0000      -0.467606       -12.7242
  54   2.0000      -0.462442       -12.5837
  55   2.0000      -0.450957       -12.2712
  56   2.0000      -0.446356       -12.1460
  57   2.0000      -0.440353       -11.9826
  58   2.0000      -0.430345       -11.7103
  59   2.0000      -0.428906       -11.6711
  60   2.0000      -0.418611       -11.3910
  61   2.0000      -0.412493       -11.2245
  62   2.0000      -0.408931       -11.1276
  63   2.0000      -0.335760        -9.1365
  64   2.0000      -0.333051        -9.0628
  65   2.0000      -0.322170        -8.7667
  66   2.0000      -0.302210        -8.2235
  67   0.0000       0.042311         1.1513
  68   0.0000       0.059209         1.6112
  69   0.0000       0.108199         2.9442
  70   0.0000       0.125157         3.4057
  71   0.0000       0.130649         3.5551

MULLIKEN ATOMIC CHARGES
-----------------------
   0 S :    0.141445
   1 C :   -0.165705
   2 C :   -0.067550
   3 C :    0.044915
   4 C :   -0.202207
   5 H :    0.018895
   6 C :    0.072507
   7 H :    0.025861
   8 H :    0.026246
   9 C :   -0.054769
  10 H :    0.024363
  11 H :    0.025983
  12 C :   -0.069047
  13 H :    0.036792
  14 H :    0.019469
  15 H :    0.041352
  16 S :    0.136801
  17 C :   -0.082365
  18 C :   -0.057415
  19 C :   -0.050234
  20 C :   -0.199642
  21 H :    0.030443
  22 C :    0.111582
  23 H :    0.015337
  24 H :    0.033283
  25 C :   -0.114677
  26 H :    0.025976
  27 H :    0.012654
  28 C :   -0.005219
  29 H :    0.048852
  30 H :    0.031792
  31 H :    0.020783
  32 H :    0.075098
  33 H :    0.048401
Sum of atomic charges:   -0.0000000

LOEWDIN ATOMIC CHARGES
----------------------
   0 S :    0.432462
   1 C :   -0.209093
   2 C :   -0.065343
   3 C :   -0.063566
   4 C :   -0.223017
   5 H :    0.036070
   6 C :   -0.028534
   7 H :    0.027271
   8 H :    0.032782
   9 C :   -0.039861
  10 H :    0.025201
  11 H :    0.024814
  12 C :   -0.075952
  13 H :    0.024401
  14 H :    0.020007
  15 H :    0.036968
  16 S :    0.448247
  17 C :   -0.199281
  18 C :   -0.079634
  19 C :   -0.052292
  20 C :   -0.231831
  21 H :    0.034756
  22 C :   -0.024190
  23 H :    0.027386
  24 H :    0.029977
  25 C :   -0.049335
  26 H :    0.024644
  27 H :    0.022125
  28 C :   -0.061787
  29 H :    0.028247
  30 H :    0.033490
  31 H :    0.020832
  32 H :    0.044111
  33 H :    0.029923

  Mayer bond orders larger than 0.100000
B(  0-S ,  1-C ) :   1.1550 B(  0-S ,  4-C ) :   1.1802 B(  1-C ,  2-C ) :   1.5801
B(  1-C ,  4-C ) :   0.1107 B(  1-C , 32-H ) :   0.9612 B(  2-C ,  3-C ) :   1.2335
B(  2-C ,  6-C ) :   1.0256 B(  3-C ,  4-C ) :   1.5619 B(  3-C ,  5-H ) :   0.9954
B(  4-C , 20-C ) :   0.9870 B(  6-C ,  7-H ) :   0.9376 B(  6-C ,  8-H ) :   0.9493
B(  6-C ,  9-C ) :   1.0487 B(  9-C , 10-H ) :   0.9596 B(  9-C , 11-H ) :   0.9574
B(  9-C , 12-C ) :   1.0669 B( 12-C , 13-H ) :   0.9783 B( 12-C , 14-H ) :   0.9771
B( 12-C , 15-H ) :   0.9747 B( 16-S , 17-C ) :   1.1781 B( 16-S , 20-C ) :   1.1538
B( 17-C , 18-C ) :   1.6156 B( 17-C , 33-H ) :   0.9615 B( 18-C , 19-C ) :   1.2540
B( 18-C , 21-H ) :   0.9829 B( 19-C , 20-C ) :   1.6301 B( 19-C , 22-C ) :   1.0167
B( 22-C , 23-H ) :   0.9376 B( 22-C , 24-H ) :   0.9357 B( 22-C , 25-C ) :   1.0566
B( 25-C , 26-H ) :   0.9535 B( 25-C , 27-H ) :   0.9553 B( 25-C , 28-C ) :   1.0753
B( 28-C , 29-H ) :   0.9767 B( 28-C , 30-H ) :   0.9728 B( 28-C , 31-H ) :   0.9745

Dispersion correction           -0.014261917
FINAL SINGLE POINT ENERGY     -1339.862037949231

DIPOLE MOMENT
-------------
                                X             Y             Z
Electronic contribution:      7.20773       5.69045      30.35434
Nuclear contribution   :     -7.48069      -5.71188     -30.88510
                        -----------------------------------------
Total Dipole Moment    :     -0.27296      -0.02144      -0.53077
                        -----------------------------------------
Magnitude (a.u.)       :      0.59723
Magnitude (Debye)      :      1.51803

Rotational constants in cm-1:     0.018277     0.008467     0.006480
Rotational constants in MHz :   547.918897   253.836056   194.274975

                             ****ORCA TERMINATED NORMALLY****
TOTAL RUN TIME: 0 days 0 hours 0 minutes 34 seconds 433 msec
