                         Program Version 4.2.1 -  RELEASE  -
|  1> ! wB97X-D3 SP def2-SVP
|  2> %pal
|  3> nprocs 16
|  4> end
|  5>
|  6> * xyz 0 1
|  7> S 	 -32.6345 	 67.4253 	 98.6977
|  8> C 	 -32.8415 	 65.947 	 99.5101
|  9> C 	 -32.4563 	 66.1099 	 100.822
| 10> C 	 -31.621 	 67.2544 	 101.03
| 11> C 	 -31.4046 	 67.9827 	 99.9227
| 12> H 	 -31.1181 	 67.5707 	 101.915
| 13> C 	 -32.7092 	 65.0287 	 101.88
| 14> H 	 -32.4155 	 65.3951 	 102.85
| 15> H 	 -32.2043 	 64.0629 	 101.7
| 16> C 	 -34.1947 	 64.8006 	 102.196
| 17> H 	 -34.6998 	 64.3135 	 101.435
| 18> H 	 -34.3068 	 64.0404 	 102.94
| 19> C 	 -34.9342 	 66.0702 	 102.652
| 20> H 	 -35.9513 	 65.922 	 103.034
| 21> H 	 -34.3647 	 66.5591 	 103.466
| 22> H 	 -35.0107 	 66.7737 	 101.854
| 23> S 	 -31.5208 	 70.6543 	 99.0266
| 24> C 	 -30.1356 	 71.6807 	 99.4388
| 25> C 	 -29.0858 	 70.936 	 99.8619
| 26> C 	 -29.4741 	 69.6303 	 100.243
| 27> C 	 -30.7257 	 69.2575 	 99.7209
| 28> H 	 -28.0549 	 71.3693 	 100.007
| 29> C 	 -28.4724 	 68.7241 	 100.891
| 30> H 	 -28.8341 	 67.748 	 100.705
| 31> H 	 -28.5883 	 68.8361 	 101.991
| 32> C 	 -26.95 	 68.8456 	 100.529
| 33> H 	 -26.2587 	 68.5745 	 101.36
| 34> H 	 -26.6082 	 69.8582 	 100.484
| 35> C 	 -26.5289 	 68.1656 	 99.2719
| 36> H 	 -27.2809 	 68.2506 	 98.5318
| 37> H 	 -26.4537 	 67.0935 	 99.4612
| 38> H 	 -25.5476 	 68.4943 	 98.8922
| 39> H 	 -33.214 	 64.9974 	 99.0678
| 40> H 	 -30.0879 	 72.7214 	 99.3906
| 41> *
| 42>
| 43>                          ****END OF INPUT****

CARTESIAN COORDINATES (ANGSTROEM)
---------------------------------
  S    -32.634500   67.425300   98.697700
  C    -32.841500   65.947000   99.510100
  C    -32.456300   66.109900  100.822000
  C    -31.621000   67.254400  101.030000
  C    -31.404600   67.982700   99.922700
  H    -31.118100   67.570700  101.915000
  C    -32.709200   65.028700  101.880000
  H    -32.415500   65.395100  102.850000
  H    -32.204300   64.062900  101.700000
  C    -34.194700   64.800600  102.196000
  H    -34.699800   64.313500  101.435000
  H    -34.306800   64.040400  102.940000
  C    -34.934200   66.070200  102.652000
  H    -35.951300   65.922000  103.034000
  H    -34.364700   66.559100  103.466000
  H    -35.010700   66.773700  101.854000
  S    -31.520800   70.654300   99.026600
  C    -30.135600   71.680700   99.438800
  C    -29.085800   70.936000   99.861900
  C    -29.474100   69.630300  100.243000
  C    -30.725700   69.257500   99.720900
  H    -28.054900   71.369300  100.007000
  C    -28.472400   68.724100  100.891000
  H    -28.834100   67.748000  100.705000
  H    -28.588300   68.836100  101.991000
  C    -26.950000   68.845600  100.529000
  H    -26.258700   68.574500  101.360000
  H    -26.608200   69.858200  100.484000
  C    -26.528900   68.165600   99.271900
  H    -27.280900   68.250600   98.531800
  H    -26.453700   67.093500   99.461200
  H    -25.547600   68.494300   98.892200
  H    -33.214000   64.997400   99.067800
  H    -30.087900   72.721400   99.390600

 Total Charge           Charge          ....    0
 Multiplicity           Mult            ....    1
 Number of Electrons    NEL             ....  134
 Basis Dimension        Dim             ....  322

ORBITAL ENERGIES
----------------

  NO   OCC          E(Eh)            E(eV)
   0   2.0000     -88.968342     -2420.9517
   1   2.0000     -88.958075     -2420.6723
   2   2.0000     -10.331619      -281.1377
   3   2.0000     -10.329776      -281.0875
   4   2.0000     -10.315057      -280.6870
   5   2.0000     -10.313560      -280.6462
   6   2.0000     -10.302538      -280.3463
   7   2.0000     -10.301953      -280.3304
   8   2.0000     -10.294408      -280.1251
   9   2.0000     -10.293197      -280.0921
  10   2.0000     -10.292410      -280.0707
  11   2.0000     -10.291924      -280.0575
  12   2.0000     -10.287371      -279.9336
  13   2.0000     -10.275515      -279.6110
  14   2.0000     -10.273432      -279.5543
  15   2.0000     -10.270758      -279.4815
  16   2.0000      -8.082610      -219.9390
  17   2.0000      -8.073487      -219.6908
  18   2.0000      -6.041294      -164.3920
  19   2.0000      -6.037314      -164.2837
  20   2.0000      -6.033073      -164.1683
  21   2.0000      -6.032112      -164.1421
  22   2.0000      -6.028209      -164.0359
  23   2.0000      -6.023763      -163.9149
  24   2.0000      -1.009826       -27.4788
  25   2.0000      -0.989121       -26.9154
  26   2.0000      -0.910400       -24.7732
  27   2.0000      -0.909465       -24.7478
  28   2.0000      -0.875251       -23.8168
  29   2.0000      -0.854936       -23.2640
  30   2.0000      -0.843945       -22.9649
  31   2.0000      -0.819574       -22.3017
  32   2.0000      -0.782099       -21.2820
  33   2.0000      -0.769772       -20.9466
  34   2.0000      -0.710332       -19.3291
  35   2.0000      -0.704993       -19.1838
  36   2.0000      -0.703945       -19.1553
  37   2.0000      -0.656248       -17.8574
  38   2.0000      -0.642642       -17.4872
  39   2.0000      -0.614834       -16.7305
  40   2.0000      -0.599274       -16.3071
  41   2.0000      -0.573362       -15.6020
  42   2.0000      -0.558131       -15.1875
  43   2.0000      -0.555923       -15.1274
  44   2.0000      -0.541410       -14.7325
  45   2.0000      -0.530576       -14.4377
  46   2.0000      -0.526874       -14.3370
  47   2.0000      -0.516859       -14.0645
  48   2.0000      -0.503003       -13.6874
  49   2.0000      -0.493868       -13.4388
  50   2.0000      -0.491971       -13.3872
  51   2.0000      -0.474139       -12.9020
  52   2.0000      -0.472049       -12.8451
  53   2.0000      -0.462548       -12.5866
  54   2.0000      -0.461184       -12.5494
  55   2.0000      -0.445478       -12.1221
  56   2.0000      -0.445014       -12.1095
  57   2.0000      -0.440549       -11.9880
  58   2.0000      -0.436817       -11.8864
  59   2.0000      -0.428070       -11.6484
  60   2.0000      -0.422749       -11.5036
  61   2.0000      -0.407982       -11.1018
  62   2.0000      -0.403796       -10.9878
  63   2.0000      -0.360288        -9.8039
  64   2.0000      -0.332801        -9.0560
  65   2.0000      -0.322933        -8.7875
  66   2.0000      -0.282210        -7.6793
  67   0.0000       0.024210         0.6588
  68   0.0000       0.057046         1.5523
  69   0.0000       0.105400         2.8681
  70   0.0000       0.114725         3.1218
  71   0.0000       0.137640         3.7454

MULLIKEN ATOMIC CHARGES
-----------------------
   0 S :    0.075189
   1 C :   -0.112784
   2 C :   -0.096332
   3 C :    0.048961
   4 C :   -0.153484
   5 H :    0.003214
   6 C :    0.065905
   7 H :    0.007273
   8 H :    0.047337
   9 C :   -0.037936
  10 H :   -0.002051
  11 H :    0.009367
  12 C :   -0.059438
  13 H :    0.035704
  14 H :    0.023020
  15 H :    0.038487
  16 S :    0.108650
  17 C :   -0.067995
  18 C :   -0.038843
  19 C :   -0.089695
  20 C :   -0.106692
  21 H :    0.043695
  22 C :    0.071100
  23 H :    0.013154
  24 H :    0.041530
  25 C :   -0.064115
  26 H :    0.020657
  27 H :    0.005025
  28 C :   -0.023664
  29 H :    0.028829
  30 H :    0.025634
  31 H :    0.034485
  32 H :    0.072208
  33 H :    0.033605
Sum of atomic charges:   -0.0000000

LOEWDIN ATOMIC CHARGES
----------------------
   0 S :    0.373909
   1 C :   -0.199172
   2 C :   -0.068190
   3 C :   -0.058125
   4 C :   -0.157400
   5 H :    0.030683
   6 C :   -0.029870
   7 H :    0.025095
   8 H :    0.036410
   9 C :   -0.039606
  10 H :    0.007904
  11 H :    0.020519
  12 C :   -0.063334
  13 H :    0.028266
  14 H :    0.025020
  15 H :    0.022406
  16 S :    0.395919
  17 C :   -0.165870
  18 C :   -0.072720
  19 C :   -0.060279
  20 C :   -0.203507
  21 H :    0.042438
  22 C :   -0.031643
  23 H :    0.023889
  24 H :    0.039676
  25 C :   -0.047133
  26 H :    0.030665
  27 H :    0.016164
  28 C :   -0.061627
  29 H :    0.022344
  30 H :    0.025860
  31 H :    0.029515
  32 H :    0.042127
  33 H :    0.019666

  Mayer bond orders larger than 0.100000
B(  0-S ,  1-C ) :   1.1444 B(  0-S ,  4-C ) :   1.1104 B(  1-C ,  2-C ) :   1.6005
B(  1-C , 32-H ) :   0.9710 B(  2-C ,  3-C ) :   1.2086 B(  2-C ,  6-C ) :   1.0185
B(  3-C ,  4-C ) :   1.5964 B(  3-C ,  5-H ) :   1.0041 B(  4-C , 20-C ) :   1.0618
B(  6-C ,  7-H ) :   0.9458 B(  6-C ,  8-H ) :   0.9461 B(  6-C ,  9-C ) :   1.0698
B(  9-C , 10-H ) :   0.9514 B(  9-C , 11-H ) :   0.9544 B(  9-C , 12-C ) :   1.0710
B( 12-C , 13-H ) :   0.9749 B( 12-C , 14-H ) :   0.9759 B( 12-C , 15-H ) :   0.9744
B( 16-S , 17-C ) :   1.1423 B( 16-S , 20-C ) :   1.1237 B( 17-C , 18-C ) :   1.6238
B( 17-C , 33-H ) :   0.9717 B( 18-C , 19-C ) :   1.2478 B( 18-C , 21-H ) :   0.9743
B( 19-C , 20-C ) :   1.5810 B( 19-C , 22-C ) :   1.0507 B( 22-C , 23-H ) :   0.9369
B( 22-C , 24-H ) :   0.9175 B( 22-C , 25-C ) :   1.0644 B( 25-C , 26-H ) :   0.9484
B( 25-C , 27-H ) :   0.9511 B( 25-C , 28-C ) :   1.0838 B( 28-C , 29-H ) :   0.9767
B( 28-C , 30-H ) :   0.9723 B( 28-C , 31-H ) :   0.9723

Dispersion correction           -0.014259959
FINAL SINGLE POINT ENERGY     -1339.848788118255

DIPOLE MOMENT
-------------
                                X             Y             Z
Electronic contribution:     -8.40353      12.99235     -14.59089
Nuclear contribution   :      8.80910     -13.21599      15.14816
                        -----------------------------------------
Total Dipole Moment    :      0.40556      -0.22364       0.55728
                        -----------------------------------------
Magnitude (a.u.)       :      0.72461
Magnitude (Debye)      :      1.84181

Rotational constants in cm-1:     0.021274     0.007813     0.006692
Rotational constants in MHz :   637.789843   234.229929   200.632809

                             ****ORCA TERMINATED NORMALLY****
TOTAL RUN TIME: 0 days 0 hours 0 minutes 29 seconds 943 msec
