                         Program Version 4.2.1 -  RELEASE  -
|  1> ! wB97X-D3 SP def2-SVP
|  2> %pal
|  3> nprocs 16
|  4> end
|  5>
|  6> * xyz 0 1
|  7> S 	 -75.5652 	 50.1095 	 135.292
|  8> C 	 -75.5482 	 49.2367 	 136.824
|  9> C 	 -75.4952 	 50.0251 	 137.948
| 10> C 	 -75.5011 	 51.3931 	 137.525
| 11> C 	 -75.5043 	 51.6002 	 136.174
| 12> H 	 -75.4735 	 52.2458 	 138.191
| 13> C 	 -75.4707 	 49.4284 	 139.348
| 14> H 	 -74.922 	 50.18 	 139.92
| 15> H 	 -74.8235 	 48.5316 	 139.362
| 16> C 	 -76.9115 	 49.1479 	 139.989
| 17> H 	 -77.5116 	 50.0957 	 140.091
| 18> H 	 -77.4248 	 48.4885 	 139.315
| 19> C 	 -76.6816 	 48.565 	 141.337
| 20> H 	 -77.6539 	 48.313 	 141.719
| 21> H 	 -76.242 	 47.5254 	 141.197
| 22> H 	 -76.1548 	 49.1549 	 142.063
| 23> S 	 -76.2006 	 52.8384 	 133.844
| 24> C 	 -75.8669 	 54.5571 	 133.605
| 25> C 	 -75.1617 	 55.0453 	 134.663
| 26> C 	 -74.9409 	 54.1251 	 135.746
| 27> C 	 -75.4367 	 52.86 	 135.432
| 28> H 	 -74.7762 	 56.0589 	 134.598
| 29> C 	 -74.1533 	 54.4543 	 136.982
| 30> H 	 -73.2249 	 54.967 	 136.667
| 31> H 	 -73.765 	 53.5643 	 137.485
| 32> C 	 -74.8736 	 55.4038 	 137.987
| 33> H 	 -75.7223 	 55.0041 	 138.448
| 34> H 	 -75.2779 	 56.2286 	 137.324
| 35> C 	 -73.9322 	 55.9367 	 139.154
| 36> H 	 -73.5513 	 55.1891 	 139.884
| 37> H 	 -74.3671 	 56.7187 	 139.765
| 38> H 	 -73.0013 	 56.3961 	 138.788
| 39> H 	 -75.4165 	 48.1574 	 136.837
| 40> H 	 -75.8735 	 55.048 	 132.646
| 41> *
| 42>
| 43>                          ****END OF INPUT****

CARTESIAN COORDINATES (ANGSTROEM)
---------------------------------
  S    -75.565200   50.109500  135.292000
  C    -75.548200   49.236700  136.824000
  C    -75.495200   50.025100  137.948000
  C    -75.501100   51.393100  137.525000
  C    -75.504300   51.600200  136.174000
  H    -75.473500   52.245800  138.191000
  C    -75.470700   49.428400  139.348000
  H    -74.922000   50.180000  139.920000
  H    -74.823500   48.531600  139.362000
  C    -76.911500   49.147900  139.989000
  H    -77.511600   50.095700  140.091000
  H    -77.424800   48.488500  139.315000
  C    -76.681600   48.565000  141.337000
  H    -77.653900   48.313000  141.719000
  H    -76.242000   47.525400  141.197000
  H    -76.154800   49.154900  142.063000
  S    -76.200600   52.838400  133.844000
  C    -75.866900   54.557100  133.605000
  C    -75.161700   55.045300  134.663000
  C    -74.940900   54.125100  135.746000
  C    -75.436700   52.860000  135.432000
  H    -74.776200   56.058900  134.598000
  C    -74.153300   54.454300  136.982000
  H    -73.224900   54.967000  136.667000
  H    -73.765000   53.564300  137.485000
  C    -74.873600   55.403800  137.987000
  H    -75.722300   55.004100  138.448000
  H    -75.277900   56.228600  137.324000
  C    -73.932200   55.936700  139.154000
  H    -73.551300   55.189100  139.884000
  H    -74.367100   56.718700  139.765000
  H    -73.001300   56.396100  138.788000
  H    -75.416500   48.157400  136.837000
  H    -75.873500   55.048000  132.646000

 Total Charge           Charge          ....    0
 Multiplicity           Mult            ....    1
 Number of Electrons    NEL             ....  134
 Basis Dimension        Dim             ....  322

ORBITAL ENERGIES
----------------

  NO   OCC          E(Eh)            E(eV)
   0   2.0000     -88.965043     -2420.8619
   1   2.0000     -88.962481     -2420.7922
   2   2.0000     -10.330111      -281.0966
   3   2.0000     -10.326925      -281.0099
   4   2.0000     -10.314644      -280.6757
   5   2.0000     -10.311157      -280.5808
   6   2.0000     -10.304876      -280.4099
   7   2.0000     -10.301134      -280.3081
   8   2.0000     -10.299609      -280.2666
   9   2.0000     -10.295156      -280.1454
  10   2.0000     -10.294990      -280.1409
  11   2.0000     -10.294896      -280.1384
  12   2.0000     -10.293754      -280.1073
  13   2.0000     -10.293304      -280.0950
  14   2.0000     -10.285611      -279.8857
  15   2.0000     -10.278960      -279.7047
  16   2.0000      -8.080203      -219.8735
  17   2.0000      -8.077111      -219.7894
  18   2.0000      -6.038671      -164.3206
  19   2.0000      -6.035739      -164.2408
  20   2.0000      -6.034843      -164.2164
  21   2.0000      -6.031712      -164.1312
  22   2.0000      -6.030789      -164.1061
  23   2.0000      -6.027668      -164.0212
  24   2.0000      -1.008064       -27.4308
  25   2.0000      -0.983016       -26.7492
  26   2.0000      -0.911465       -24.8022
  27   2.0000      -0.902790       -24.5662
  28   2.0000      -0.873310       -23.7640
  29   2.0000      -0.851445       -23.1690
  30   2.0000      -0.842207       -22.9176
  31   2.0000      -0.817443       -22.2438
  32   2.0000      -0.781109       -21.2550
  33   2.0000      -0.770293       -20.9607
  34   2.0000      -0.709133       -19.2965
  35   2.0000      -0.701327       -19.0841
  36   2.0000      -0.696729       -18.9590
  37   2.0000      -0.663527       -18.0555
  38   2.0000      -0.638710       -17.3802
  39   2.0000      -0.621250       -16.9051
  40   2.0000      -0.596443       -16.2300
  41   2.0000      -0.570672       -15.5288
  42   2.0000      -0.561063       -15.2673
  43   2.0000      -0.553667       -15.0661
  44   2.0000      -0.527026       -14.3411
  45   2.0000      -0.520970       -14.1763
  46   2.0000      -0.516226       -14.0472
  47   2.0000      -0.512946       -13.9580
  48   2.0000      -0.505339       -13.7510
  49   2.0000      -0.497987       -13.5509
  50   2.0000      -0.490666       -13.3517
  51   2.0000      -0.480008       -13.0617
  52   2.0000      -0.467859       -12.7311
  53   2.0000      -0.464703       -12.6452
  54   2.0000      -0.459358       -12.4998
  55   2.0000      -0.449853       -12.2411
  56   2.0000      -0.446236       -12.1427
  57   2.0000      -0.440755       -11.9935
  58   2.0000      -0.435207       -11.8426
  59   2.0000      -0.428412       -11.6577
  60   2.0000      -0.425606       -11.5813
  61   2.0000      -0.417820       -11.3695
  62   2.0000      -0.412435       -11.2229
  63   2.0000      -0.356868        -9.7109
  64   2.0000      -0.335087        -9.1182
  65   2.0000      -0.327746        -8.9184
  66   2.0000      -0.285523        -7.7695
  67   0.0000       0.023960         0.6520
  68   0.0000       0.078675         2.1408
  69   0.0000       0.099699         2.7130
  70   0.0000       0.121718         3.3121
  71   0.0000       0.131321         3.5734

MULLIKEN ATOMIC CHARGES
-----------------------
   0 S :    0.100437
   1 C :   -0.123255
   2 C :   -0.070474
   3 C :   -0.003969
   4 C :   -0.109172
   5 H :   -0.002159
   6 C :    0.039492
   7 H :    0.018604
   8 H :    0.032848
   9 C :   -0.069489
  10 H :    0.042283
  11 H :    0.029928
  12 C :   -0.024716
  13 H :    0.022097
  14 H :    0.029790
  15 H :    0.040664
  16 S :    0.075511
  17 C :   -0.076839
  18 C :   -0.043573
  19 C :   -0.030898
  20 C :   -0.120609
  21 H :    0.022448
  22 C :    0.033942
  23 H :    0.027848
  24 H :    0.025024
  25 C :   -0.056941
  26 H :    0.024018
  27 H :    0.035228
  28 C :   -0.069825
  29 H :    0.035747
  30 H :    0.034976
  31 H :    0.024297
  32 H :    0.045276
  33 H :    0.061461
Sum of atomic charges:    0.0000000

LOEWDIN ATOMIC CHARGES
----------------------
   0 S :    0.398519
   1 C :   -0.187457
   2 C :   -0.064157
   3 C :   -0.065654
   4 C :   -0.193358
   5 H :    0.028014
   6 C :   -0.031481
   7 H :    0.028222
   8 H :    0.033960
   9 C :   -0.032699
  10 H :    0.031864
  11 H :    0.023163
  12 C :   -0.068355
  13 H :    0.024057
  14 H :    0.033013
  15 H :    0.024311
  16 S :    0.381431
  17 C :   -0.183547
  18 C :   -0.066741
  19 C :   -0.063509
  20 C :   -0.179025
  21 H :    0.032787
  22 C :   -0.036354
  23 H :    0.035529
  24 H :    0.027784
  25 C :   -0.033858
  26 H :    0.014152
  27 H :    0.032259
  28 C :   -0.076570
  29 H :    0.028895
  30 H :    0.025827
  31 H :    0.023832
  32 H :    0.023530
  33 H :    0.031617

  Mayer bond orders larger than 0.100000
B(  0-S ,  1-C ) :   1.1334 B(  0-S ,  4-C ) :   1.1417 B(  1-C ,  2-C ) :   1.6254
B(  1-C , 32-H ) :   0.9652 B(  2-C ,  3-C ) :   1.2324 B(  2-C ,  6-C ) :   1.0160
B(  3-C ,  4-C ) :   1.5885 B(  3-C ,  5-H ) :   0.9962 B(  4-C , 20-C ) :   1.0462
B(  6-C ,  7-H ) :   0.9381 B(  6-C ,  8-H ) :   0.9462 B(  6-C ,  9-C ) :   1.0493
B(  9-C , 10-H ) :   0.9550 B(  9-C , 11-H ) :   0.9557 B(  9-C , 12-C ) :   1.0950
B( 12-C , 13-H ) :   0.9682 B( 12-C , 14-H ) :   0.9684 B( 12-C , 15-H ) :   0.9744
B( 16-S , 17-C ) :   1.1286 B( 16-S , 20-C ) :   1.1359 B( 17-C , 18-C ) :   1.6448
B( 17-C , 33-H ) :   0.9629 B( 18-C , 19-C ) :   1.2208 B( 18-C , 21-H ) :   0.9836
B( 19-C , 20-C ) :   1.6041 B( 19-C , 22-C ) :   1.0476 B( 22-C , 23-H ) :   0.9347
B( 22-C , 24-H ) :   0.9386 B( 22-C , 25-C ) :   1.0455 B( 25-C , 26-H ) :   0.9591
B( 25-C , 27-H ) :   0.9580 B( 25-C , 28-C ) :   1.0641 B( 28-C , 29-H ) :   0.9767
B( 28-C , 30-H ) :   0.9777 B( 28-C , 31-H ) :   0.9769

Dispersion correction           -0.013471322
FINAL SINGLE POINT ENERGY     -1339.888183907733

DIPOLE MOMENT
-------------
                                X             Y             Z
Electronic contribution:     -3.50403      -4.21326     -30.77459
Nuclear contribution   :      3.76675       4.35407      31.44887
                        -----------------------------------------
Total Dipole Moment    :      0.26272       0.14081       0.67428
                        -----------------------------------------
Magnitude (a.u.)       :      0.73723
Magnitude (Debye)      :      1.87388

Rotational constants in cm-1:     0.017284     0.008455     0.006006
Rotational constants in MHz :   518.166342   253.478632   180.047304

                             ****ORCA TERMINATED NORMALLY****
TOTAL RUN TIME: 0 days 0 hours 0 minutes 33 seconds 906 msec
