                         Program Version 4.2.1 -  RELEASE  -
|  1> ! wB97X-D3 SP def2-SVP
|  2> %pal
|  3> nprocs 16
|  4> end
|  5>
|  6> * xyz 0 1
|  7> S 	 -46.5293 	 56.9204 	 102.461
|  8> C 	 -48.1834 	 56.4508 	 102.788
|  9> C 	 -48.8048 	 56.1171 	 101.629
| 10> C 	 -48.0144 	 56.473 	 100.504
| 11> C 	 -46.7385 	 56.933 	 100.688
| 12> H 	 -48.2687 	 56.4682 	 99.4565
| 13> C 	 -50.3239 	 55.7457 	 101.476
| 14> H 	 -50.7238 	 55.5234 	 102.497
| 15> H 	 -50.3683 	 54.8398 	 100.93
| 16> C 	 -51.409 	 56.686 	 100.939
| 17> H 	 -51.9773 	 57.1838 	 101.696
| 18> H 	 -50.8878 	 57.5512 	 100.542
| 19> C 	 -52.4492 	 56.0657 	 100.013
| 20> H 	 -53.056 	 55.2829 	 100.543
| 21> H 	 -53.1048 	 56.7561 	 99.5692
| 22> H 	 -51.9497 	 55.5422 	 99.1669
| 23> S 	 -45.1167 	 58.9286 	 99.7195
| 24> C 	 -44.2757 	 58.7556 	 98.18
| 25> C 	 -44.4888 	 57.497 	 97.7018
| 26> C 	 -45.4551 	 56.7271 	 98.4548
| 27> C 	 -45.8592 	 57.395 	 99.6183
| 28> H 	 -43.9563 	 57.2534 	 96.8102
| 29> C 	 -45.8223 	 55.2746 	 98.1167
| 30> H 	 -46.1263 	 55.0583 	 97.0436
| 31> H 	 -46.6248 	 54.9858 	 98.7524
| 32> C 	 -44.777 	 54.1581 	 98.4065
| 33> H 	 -45.1641 	 53.1361 	 98.4333
| 34> H 	 -44.3786 	 54.3785 	 99.4591
| 35> C 	 -43.5031 	 54.1414 	 97.4721
| 36> H 	 -43.0543 	 55.0506 	 97.2777
| 37> H 	 -43.6503 	 53.6111 	 96.5487
| 38> H 	 -42.7571 	 53.6234 	 98.0963
| 39> H 	 -48.5213 	 56.3226 	 103.761
| 40> H 	 -43.7186 	 59.3863 	 97.5682
| 41> *
| 42>
| 43>                          ****END OF INPUT****

CARTESIAN COORDINATES (ANGSTROEM)
---------------------------------
  S    -46.529300   56.920400  102.461000
  C    -48.183400   56.450800  102.788000
  C    -48.804800   56.117100  101.629000
  C    -48.014400   56.473000  100.504000
  C    -46.738500   56.933000  100.688000
  H    -48.268700   56.468200   99.456500
  C    -50.323900   55.745700  101.476000
  H    -50.723800   55.523400  102.497000
  H    -50.368300   54.839800  100.930000
  C    -51.409000   56.686000  100.939000
  H    -51.977300   57.183800  101.696000
  H    -50.887800   57.551200  100.542000
  C    -52.449200   56.065700  100.013000
  H    -53.056000   55.282900  100.543000
  H    -53.104800   56.756100   99.569200
  H    -51.949700   55.542200   99.166900
  S    -45.116700   58.928600   99.719500
  C    -44.275700   58.755600   98.180000
  C    -44.488800   57.497000   97.701800
  C    -45.455100   56.727100   98.454800
  C    -45.859200   57.395000   99.618300
  H    -43.956300   57.253400   96.810200
  C    -45.822300   55.274600   98.116700
  H    -46.126300   55.058300   97.043600
  H    -46.624800   54.985800   98.752400
  C    -44.777000   54.158100   98.406500
  H    -45.164100   53.136100   98.433300
  H    -44.378600   54.378500   99.459100
  C    -43.503100   54.141400   97.472100
  H    -43.054300   55.050600   97.277700
  H    -43.650300   53.611100   96.548700
  H    -42.757100   53.623400   98.096300
  H    -48.521300   56.322600  103.761000
  H    -43.718600   59.386300   97.568200

 Total Charge           Charge          ....    0
 Multiplicity           Mult            ....    1
 Number of Electrons    NEL             ....  134
 Basis Dimension        Dim             ....  322

ORBITAL ENERGIES
----------------

  NO   OCC          E(Eh)            E(eV)
   0   2.0000     -88.969961     -2420.9957
   1   2.0000     -88.964881     -2420.8575
   2   2.0000     -10.333511      -281.1891
   3   2.0000     -10.332880      -281.1719
   4   2.0000     -10.315430      -280.6971
   5   2.0000     -10.314655      -280.6760
   6   2.0000     -10.312223      -280.6098
   7   2.0000     -10.306131      -280.4441
   8   2.0000     -10.295110      -280.1442
   9   2.0000     -10.293654      -280.1046
  10   2.0000     -10.293371      -280.0969
  11   2.0000     -10.292960      -280.0857
  12   2.0000     -10.290978      -280.0318
  13   2.0000     -10.282572      -279.8030
  14   2.0000     -10.281435      -279.7721
  15   2.0000     -10.269432      -279.4455
  16   2.0000      -8.085008      -220.0043
  17   2.0000      -8.079191      -219.8460
  18   2.0000      -6.043558      -164.4536
  19   2.0000      -6.039392      -164.3402
  20   2.0000      -6.037818      -164.2974
  21   2.0000      -6.035739      -164.2408
  22   2.0000      -6.033698      -164.1853
  23   2.0000      -6.029868      -164.0810
  24   2.0000      -1.011538       -27.5254
  25   2.0000      -0.990225       -26.9454
  26   2.0000      -0.907731       -24.7006
  27   2.0000      -0.899038       -24.4641
  28   2.0000      -0.880895       -23.9704
  29   2.0000      -0.846836       -23.0436
  30   2.0000      -0.842374       -22.9222
  31   2.0000      -0.825299       -22.4575
  32   2.0000      -0.784174       -21.3385
  33   2.0000      -0.777170       -21.1479
  34   2.0000      -0.714842       -19.4518
  35   2.0000      -0.703326       -19.1385
  36   2.0000      -0.688958       -18.7475
  37   2.0000      -0.662313       -18.0225
  38   2.0000      -0.652314       -17.7504
  39   2.0000      -0.620924       -16.8962
  40   2.0000      -0.591069       -16.0838
  41   2.0000      -0.576303       -15.6820
  42   2.0000      -0.555615       -15.1190
  43   2.0000      -0.550450       -14.9785
  44   2.0000      -0.539284       -14.6747
  45   2.0000      -0.528556       -14.3827
  46   2.0000      -0.521994       -14.2042
  47   2.0000      -0.517629       -14.0854
  48   2.0000      -0.512571       -13.9478
  49   2.0000      -0.499178       -13.5833
  50   2.0000      -0.489832       -13.3290
  51   2.0000      -0.486703       -13.2439
  52   2.0000      -0.478817       -13.0293
  53   2.0000      -0.468914       -12.7598
  54   2.0000      -0.463588       -12.6149
  55   2.0000      -0.447414       -12.1747
  56   2.0000      -0.441519       -12.0143
  57   2.0000      -0.436990       -11.8911
  58   2.0000      -0.430067       -11.7027
  59   2.0000      -0.417451       -11.3594
  60   2.0000      -0.412471       -11.2239
  61   2.0000      -0.407880       -11.0990
  62   2.0000      -0.399302       -10.8656
  63   2.0000      -0.356300        -9.6954
  64   2.0000      -0.332460        -9.0467
  65   2.0000      -0.331854        -9.0302
  66   2.0000      -0.299069        -8.1381
  67   0.0000       0.027807         0.7567
  68   0.0000       0.071324         1.9408
  69   0.0000       0.118792         3.2325
  70   0.0000       0.123114         3.3501
  71   0.0000       0.125495         3.4149

MULLIKEN ATOMIC CHARGES
-----------------------
   0 S :    0.095713
   1 C :   -0.101739
   2 C :   -0.046251
   3 C :    0.016135
   4 C :   -0.146394
   5 H :    0.014775
   6 C :    0.064635
   7 H :    0.021788
   8 H :    0.022491
   9 C :   -0.047398
  10 H :    0.017952
  11 H :    0.020265
  12 C :   -0.064905
  13 H :    0.040014
  14 H :    0.029877
  15 H :    0.031699
  16 S :    0.123962
  17 C :   -0.057002
  18 C :   -0.044006
  19 C :   -0.028036
  20 C :   -0.165001
  21 H :    0.017315
  22 C :    0.081399
  23 H :    0.036559
  24 H :    0.012033
  25 C :   -0.118350
  26 H :    0.039897
  27 H :    0.036693
  28 C :   -0.033608
  29 H :    0.008569
  30 H :    0.031631
  31 H :    0.029185
  32 H :    0.032118
  33 H :    0.027987
Sum of atomic charges:   -0.0000000

LOEWDIN ATOMIC CHARGES
----------------------
   0 S :    0.384545
   1 C :   -0.166909
   2 C :   -0.069647
   3 C :   -0.062444
   4 C :   -0.188646
   5 H :    0.029340
   6 C :   -0.028752
   7 H :    0.035588
   8 H :    0.024882
   9 C :   -0.048411
  10 H :    0.021847
  11 H :    0.024363
  12 C :   -0.063233
  13 H :    0.030476
  14 H :    0.021202
  15 H :    0.025941
  16 S :    0.429098
  17 C :   -0.177412
  18 C :   -0.064698
  19 C :   -0.053054
  20 C :   -0.208006
  21 H :    0.028281
  22 C :   -0.040772
  23 H :    0.035513
  24 H :    0.024835
  25 C :   -0.038908
  26 H :    0.026676
  27 H :    0.029925
  28 C :   -0.067207
  29 H :    0.009705
  30 H :    0.020632
  31 H :    0.032949
  32 H :    0.018107
  33 H :    0.024193

  Mayer bond orders larger than 0.100000
B(  0-S ,  1-C ) :   1.1488 B(  0-S ,  4-C ) :   1.1165 B(  1-C ,  2-C ) :   1.6004
B(  1-C , 32-H ) :   0.9794 B(  2-C ,  3-C ) :   1.2177 B(  2-C ,  6-C ) :   1.0336
B(  3-C ,  4-C ) :   1.6036 B(  3-C ,  5-H ) :   0.9914 B(  4-C , 20-C ) :   1.0531
B(  6-C ,  7-H ) :   0.9451 B(  6-C ,  8-H ) :   0.9465 B(  6-C ,  9-C ) :   1.0371
B(  9-C , 10-H ) :   0.9590 B(  9-C , 11-H ) :   0.9588 B(  9-C , 12-C ) :   1.0781
B( 12-C , 13-H ) :   0.9761 B( 12-C , 14-H ) :   0.9729 B( 12-C , 15-H ) :   0.9768
B( 16-S , 17-C ) :   1.1383 B( 16-S , 20-C ) :   1.1536 B( 17-C , 18-C ) :   1.6400
B( 17-C , 33-H ) :   0.9714 B( 18-C , 19-C ) :   1.2327 B( 18-C , 21-H ) :   0.9874
B( 19-C , 20-C ) :   1.5699 B( 19-C , 22-C ) :   1.0539 B( 22-C , 23-H ) :   0.9402
B( 22-C , 24-H ) :   0.9232 B( 22-C , 25-C ) :   1.0616 B( 25-C , 26-H ) :   0.9594
B( 25-C , 27-H ) :   0.9596 B( 25-C , 28-C ) :   1.0710 B( 28-C , 29-H ) :   0.9746
B( 28-C , 30-H ) :   0.9775 B( 28-C , 31-H ) :   0.9751

Dispersion correction           -0.013832093
FINAL SINGLE POINT ENERGY     -1339.850529306538

DIPOLE MOMENT
-------------
                                X             Y             Z
Electronic contribution:     13.80626      16.95113      11.45711
Nuclear contribution   :    -14.13735     -17.23521     -11.83576
                        -----------------------------------------
Total Dipole Moment    :     -0.33109      -0.28409      -0.37866
                        -----------------------------------------
Magnitude (a.u.)       :      0.57767
Magnitude (Debye)      :      1.46833

Rotational constants in cm-1:     0.018432     0.007590     0.006819
Rotational constants in MHz :   552.576645   227.537665   204.433593

                             ****ORCA TERMINATED NORMALLY****
TOTAL RUN TIME: 0 days 0 hours 0 minutes 29 seconds 477 msec
