                         Program Version 4.2.1 -  RELEASE  -
|  1> ! wB97X-D3 SP def2-SVP
|  2> %pal
|  3> nprocs 16
|  4> end
|  5>
|  6> * xyz 0 1
|  7> S 	 16.2784 	 -7.731 	 81.705
|  8> C 	 15.1269 	 -6.47079 	 81.6734
|  9> C 	 14.8229 	 -6.0477 	 80.4168
| 10> C 	 15.4375 	 -6.84363 	 79.4033
| 11> C 	 16.1562 	 -7.90998 	 79.9625
| 12> H 	 15.1971 	 -6.70881 	 78.3005
| 13> C 	 13.8836 	 -4.97528 	 80.0699
| 14> H 	 13.7905 	 -4.45846 	 80.9832
| 15> H 	 12.832 	 -5.36752 	 79.9372
| 16> C 	 14.3459 	 -3.90154 	 78.989
| 17> H 	 15.3651 	 -3.72315 	 79.1576
| 18> H 	 14.4186 	 -4.32321 	 77.9381
| 19> C 	 13.4584 	 -2.68143 	 78.9115
| 20> H 	 12.5695 	 -2.98538 	 78.3477
| 21> H 	 13.2613 	 -2.1534 	 79.8352
| 22> H 	 14.0305 	 -1.98751 	 78.3043
| 23> S 	 16.2269 	 -10.6382 	 80.0917
| 24> C 	 16.8498 	 -11.5478 	 78.6931
| 25> C 	 17.4924 	 -10.6758 	 77.8142
| 26> C 	 17.4511 	 -9.31122 	 78.1667
| 27> C 	 16.6613 	 -9.13438 	 79.3218
| 28> H 	 17.8874 	 -11.0587 	 76.9066
| 29> C 	 18.0206 	 -8.10727 	 77.3292
| 30> H 	 17.3303 	 -7.25699 	 77.4274
| 31> H 	 17.83 	 -8.62309 	 76.3734
| 32> C 	 19.4786 	 -7.63661 	 77.4922
| 33> H 	 20.1011 	 -8.56456 	 77.3236
| 34> H 	 19.5609 	 -7.34453 	 78.5479
| 35> C 	 19.8707 	 -6.59968 	 76.496
| 36> H 	 19.4076 	 -5.71141 	 76.851
| 37> H 	 19.6341 	 -6.81206 	 75.4292
| 38> H 	 20.9659 	 -6.48758 	 76.5885
| 39> H 	 14.8371 	 -5.8525 	 82.5338
| 40> H 	 16.8249 	 -12.6263 	 78.5089
| 41> *
| 42>
| 43>                          ****END OF INPUT****

CARTESIAN COORDINATES (ANGSTROEM)
---------------------------------
  S     16.278400   -7.731000   81.705000
  C     15.126900   -6.470790   81.673400
  C     14.822900   -6.047700   80.416800
  C     15.437500   -6.843630   79.403300
  C     16.156200   -7.909980   79.962500
  H     15.197100   -6.708810   78.300500
  C     13.883600   -4.975280   80.069900
  H     13.790500   -4.458460   80.983200
  H     12.832000   -5.367520   79.937200
  C     14.345900   -3.901540   78.989000
  H     15.365100   -3.723150   79.157600
  H     14.418600   -4.323210   77.938100
  C     13.458400   -2.681430   78.911500
  H     12.569500   -2.985380   78.347700
  H     13.261300   -2.153400   79.835200
  H     14.030500   -1.987510   78.304300
  S     16.226900  -10.638200   80.091700
  C     16.849800  -11.547800   78.693100
  C     17.492400  -10.675800   77.814200
  C     17.451100   -9.311220   78.166700
  C     16.661300   -9.134380   79.321800
  H     17.887400  -11.058700   76.906600
  C     18.020600   -8.107270   77.329200
  H     17.330300   -7.256990   77.427400
  H     17.830000   -8.623090   76.373400
  C     19.478600   -7.636610   77.492200
  H     20.101100   -8.564560   77.323600
  H     19.560900   -7.344530   78.547900
  C     19.870700   -6.599680   76.496000
  H     19.407600   -5.711410   76.851000
  H     19.634100   -6.812060   75.429200
  H     20.965900   -6.487580   76.588500
  H     14.837100   -5.852500   82.533800
  H     16.824900  -12.626300   78.508900

 Total Charge           Charge          ....    0
 Multiplicity           Mult            ....    1
 Number of Electrons    NEL             ....  134
 Basis Dimension        Dim             ....  322

ORBITAL ENERGIES
----------------

  NO   OCC          E(Eh)            E(eV)
   0   2.0000     -88.967441     -2420.9271
   1   2.0000     -88.966221     -2420.8940
   2   2.0000     -10.332222      -281.1540
   3   2.0000     -10.326348      -280.9942
   4   2.0000     -10.319794      -280.8159
   5   2.0000     -10.306278      -280.4481
   6   2.0000     -10.304694      -280.4050
   7   2.0000     -10.298415      -280.2341
   8   2.0000     -10.294726      -280.1337
   9   2.0000     -10.292375      -280.0698
  10   2.0000     -10.292136      -280.0633
  11   2.0000     -10.291373      -280.0425
  12   2.0000     -10.289027      -279.9786
  13   2.0000     -10.288294      -279.9587
  14   2.0000     -10.279841      -279.7287
  15   2.0000     -10.278285      -279.6863
  16   2.0000      -8.081639      -219.9126
  17   2.0000      -8.081467      -219.9079
  18   2.0000      -6.040056      -164.3583
  19   2.0000      -6.039988      -164.3564
  20   2.0000      -6.036098      -164.2506
  21   2.0000      -6.036051      -164.2493
  22   2.0000      -6.032422      -164.1506
  23   2.0000      -6.032256      -164.1460
  24   2.0000      -1.006914       -27.3995
  25   2.0000      -0.983119       -26.7520
  26   2.0000      -0.911452       -24.8019
  27   2.0000      -0.906752       -24.6740
  28   2.0000      -0.869709       -23.6660
  29   2.0000      -0.853781       -23.2326
  30   2.0000      -0.850914       -23.1546
  31   2.0000      -0.814475       -22.1630
  32   2.0000      -0.780904       -21.2495
  33   2.0000      -0.767661       -20.8891
  34   2.0000      -0.712062       -19.3762
  35   2.0000      -0.694822       -18.9071
  36   2.0000      -0.687814       -18.7164
  37   2.0000      -0.660145       -17.9635
  38   2.0000      -0.633693       -17.2437
  39   2.0000      -0.620855       -16.8943
  40   2.0000      -0.588321       -16.0090
  41   2.0000      -0.569979       -15.5099
  42   2.0000      -0.567956       -15.4549
  43   2.0000      -0.557301       -15.1649
  44   2.0000      -0.526133       -14.3168
  45   2.0000      -0.521091       -14.1796
  46   2.0000      -0.520522       -14.1641
  47   2.0000      -0.507707       -13.8154
  48   2.0000      -0.506116       -13.7721
  49   2.0000      -0.495518       -13.4837
  50   2.0000      -0.491702       -13.3799
  51   2.0000      -0.482347       -13.1253
  52   2.0000      -0.473768       -12.8919
  53   2.0000      -0.467306       -12.7160
  54   2.0000      -0.463870       -12.6225
  55   2.0000      -0.448646       -12.2083
  56   2.0000      -0.445258       -12.1161
  57   2.0000      -0.435606       -11.8534
  58   2.0000      -0.429041       -11.6748
  59   2.0000      -0.421180       -11.4609
  60   2.0000      -0.420008       -11.4290
  61   2.0000      -0.415321       -11.3014
  62   2.0000      -0.411485       -11.1971
  63   2.0000      -0.348159        -9.4739
  64   2.0000      -0.331597        -9.0232
  65   2.0000      -0.327112        -8.9012
  66   2.0000      -0.285003        -7.7553
  67   0.0000       0.027370         0.7448
  68   0.0000       0.069127         1.8810
  69   0.0000       0.111939         3.0460
  70   0.0000       0.119105         3.2410
  71   0.0000       0.131750         3.5851

MULLIKEN ATOMIC CHARGES
-----------------------
   0 S :    0.118754
   1 C :   -0.118371
   2 C :   -0.118898
   3 C :    0.016803
   4 C :   -0.166368
   5 H :    0.047553
   6 C :    0.085755
   7 H :   -0.012642
   8 H :    0.049781
   9 C :   -0.099951
  10 H :    0.015964
  11 H :    0.028824
  12 C :   -0.022873
  13 H :    0.042296
  14 H :    0.036319
  15 H :    0.027856
  16 S :    0.116488
  17 C :   -0.100066
  18 C :   -0.043397
  19 C :   -0.013550
  20 C :   -0.166367
  21 H :    0.004546
  22 C :    0.038533
  23 H :    0.017239
  24 H :    0.020876
  25 C :   -0.070282
  26 H :    0.027387
  27 H :    0.043065
  28 C :   -0.023412
  29 H :    0.025915
  30 H :    0.042136
  31 H :    0.039275
  32 H :    0.048806
  33 H :    0.062007
Sum of atomic charges:   -0.0000000

LOEWDIN ATOMIC CHARGES
----------------------
   0 S :    0.417816
   1 C :   -0.218366
   2 C :   -0.073666
   3 C :   -0.069527
   4 C :   -0.188372
   5 H :    0.042772
   6 C :   -0.038289
   7 H :    0.021654
   8 H :    0.040996
   9 C :   -0.039508
  10 H :    0.015035
  11 H :    0.028002
  12 C :   -0.061813
  13 H :    0.031755
  14 H :    0.023981
  15 H :    0.029729
  16 S :    0.404133
  17 C :   -0.187138
  18 C :   -0.069078
  19 C :   -0.058925
  20 C :   -0.202091
  21 H :    0.024647
  22 C :   -0.033645
  23 H :    0.026374
  24 H :    0.030596
  25 C :   -0.044498
  26 H :    0.026384
  27 H :    0.031000
  28 C :   -0.064080
  29 H :    0.022543
  30 H :    0.031727
  31 H :    0.032939
  32 H :    0.031821
  33 H :    0.035094

  Mayer bond orders larger than 0.100000
B(  0-S ,  1-C ) :   1.1280 B(  0-S ,  4-C ) :   1.1681 B(  1-C ,  2-C ) :   1.6272
B(  1-C , 32-H ) :   0.9555 B(  2-C ,  3-C ) :   1.2469 B(  2-C ,  6-C ) :   1.0405
B(  3-C ,  4-C ) :   1.5597 B(  3-C ,  5-H ) :   0.9749 B(  4-C , 20-C ) :   1.0357
B(  6-C ,  7-H ) :   0.9282 B(  6-C ,  8-H ) :   0.9312 B(  6-C ,  9-C ) :   1.0463
B(  9-C , 10-H ) :   0.9608 B(  9-C , 11-H ) :   0.9497 B(  9-C , 12-C ) :   1.0887
B( 12-C , 13-H ) :   0.9749 B( 12-C , 14-H ) :   0.9762 B( 12-C , 15-H ) :   0.9713
B( 16-S , 17-C ) :   1.1407 B( 16-S , 20-C ) :   1.1589 B( 17-C , 18-C ) :   1.6030
B( 17-C , 20-C ) :   0.1086 B( 17-C , 33-H ) :   0.9670 B( 18-C , 19-C ) :   1.2678
B( 18-C , 21-H ) :   0.9887 B( 19-C , 20-C ) :   1.5534 B( 19-C , 22-C ) :   1.0026
B( 22-C , 23-H ) :   0.9371 B( 22-C , 24-H ) :   0.9382 B( 22-C , 25-C ) :   1.0667
B( 25-C , 26-H ) :   0.9536 B( 25-C , 27-H ) :   0.9535 B( 25-C , 28-C ) :   1.0795
B( 28-C , 29-H ) :   0.9733 B( 28-C , 30-H ) :   0.9734 B( 28-C , 31-H ) :   0.9717

Dispersion correction           -0.013470175
FINAL SINGLE POINT ENERGY     -1339.864335986837

DIPOLE MOMENT
-------------
                                X             Y             Z
Electronic contribution:     -1.65317     -24.30950      17.81588
Nuclear contribution   :      1.64316      24.78920     -18.33248
                        -----------------------------------------
Total Dipole Moment    :     -0.01001       0.47970      -0.51660
                        -----------------------------------------
Magnitude (a.u.)       :      0.70504
Magnitude (Debye)      :      1.79207

Rotational constants in cm-1:     0.016527     0.008652     0.006511
Rotational constants in MHz :   495.469643   259.391961   195.196266

                             ****ORCA TERMINATED NORMALLY****
TOTAL RUN TIME: 0 days 0 hours 0 minutes 29 seconds 381 msec
