                         Program Version 4.2.1 -  RELEASE  -
|  1> ! wB97X-D3 SP def2-SVP
|  2> %pal
|  3> nprocs 16
|  4> end
|  5>
|  6> * xyz 0 1
|  7> S 	 -69.2655 	 39.8031 	 125.025
|  8> C 	 -69.1836 	 41.1494 	 126.113
|  9> C 	 -67.9378 	 41.7623 	 126.046
| 10> C 	 -67.0442 	 41.1712 	 125.134
| 11> C 	 -67.5665 	 39.9926 	 124.544
| 12> H 	 -66.0721 	 41.5999 	 124.925
| 13> C 	 -67.5542 	 42.9744 	 126.861
| 14> H 	 -66.5023 	 43.0769 	 126.827
| 15> H 	 -67.6172 	 42.757 	 127.901
| 16> C 	 -68.2523 	 44.3697 	 126.509
| 17> H 	 -69.2925 	 44.2625 	 126.325
| 18> H 	 -68.1421 	 44.969 	 127.433
| 19> C 	 -67.6911 	 45.1267 	 125.283
| 20> H 	 -68.198 	 46.0952 	 125.177
| 21> H 	 -66.6448 	 45.236 	 125.362
| 22> H 	 -67.8757 	 44.434 	 124.497
| 23> S 	 -67.9975 	 38.3709 	 122.262
| 24> C 	 -66.7259 	 37.2152 	 121.949
| 25> C 	 -65.5441 	 37.5134 	 122.608
| 26> C 	 -65.6556 	 38.6504 	 123.467
| 27> C 	 -66.9562 	 39.1223 	 123.533
| 28> H 	 -64.6691 	 36.8655 	 122.388
| 29> C 	 -64.4332 	 39.1157 	 124.248
| 30> H 	 -64.1639 	 38.1633 	 124.786
| 31> H 	 -64.6816 	 39.9094 	 124.925
| 32> C 	 -63.3083 	 39.5538 	 123.322
| 33> H 	 -63.0997 	 38.6767 	 122.661
| 34> H 	 -62.4095 	 39.6448 	 123.937
| 35> C 	 -63.6484 	 40.7659 	 122.497
| 36> H 	 -62.867 	 40.9324 	 121.685
| 37> H 	 -63.5368 	 41.6801 	 123.036
| 38> H 	 -64.632 	 40.8204 	 121.94
| 39> H 	 -69.9097 	 41.4756 	 126.825
| 40> H 	 -67.0136 	 36.2677 	 121.418
| 41> *
| 42>
| 43>                          ****END OF INPUT****

CARTESIAN COORDINATES (ANGSTROEM)
---------------------------------
  S    -69.265500   39.803100  125.025000
  C    -69.183600   41.149400  126.113000
  C    -67.937800   41.762300  126.046000
  C    -67.044200   41.171200  125.134000
  C    -67.566500   39.992600  124.544000
  H    -66.072100   41.599900  124.925000
  C    -67.554200   42.974400  126.861000
  H    -66.502300   43.076900  126.827000
  H    -67.617200   42.757000  127.901000
  C    -68.252300   44.369700  126.509000
  H    -69.292500   44.262500  126.325000
  H    -68.142100   44.969000  127.433000
  C    -67.691100   45.126700  125.283000
  H    -68.198000   46.095200  125.177000
  H    -66.644800   45.236000  125.362000
  H    -67.875700   44.434000  124.497000
  S    -67.997500   38.370900  122.262000
  C    -66.725900   37.215200  121.949000
  C    -65.544100   37.513400  122.608000
  C    -65.655600   38.650400  123.467000
  C    -66.956200   39.122300  123.533000
  H    -64.669100   36.865500  122.388000
  C    -64.433200   39.115700  124.248000
  H    -64.163900   38.163300  124.786000
  H    -64.681600   39.909400  124.925000
  C    -63.308300   39.553800  123.322000
  H    -63.099700   38.676700  122.661000
  H    -62.409500   39.644800  123.937000
  C    -63.648400   40.765900  122.497000
  H    -62.867000   40.932400  121.685000
  H    -63.536800   41.680100  123.036000
  H    -64.632000   40.820400  121.940000
  H    -69.909700   41.475600  126.825000
  H    -67.013600   36.267700  121.418000

 Total Charge           Charge          ....    0
 Multiplicity           Mult            ....    1
 Number of Electrons    NEL             ....  134
 Basis Dimension        Dim             ....  322

ORBITAL ENERGIES
----------------

  NO   OCC          E(Eh)            E(eV)
   0   2.0000     -88.970193     -2421.0020
   1   2.0000     -88.963652     -2420.8241
   2   2.0000     -10.336046      -281.2581
   3   2.0000     -10.330331      -281.1026
   4   2.0000     -10.321604      -280.8651
   5   2.0000     -10.310122      -280.5527
   6   2.0000     -10.305003      -280.4134
   7   2.0000     -10.299066      -280.2518
   8   2.0000     -10.296422      -280.1799
   9   2.0000     -10.295253      -280.1481
  10   2.0000     -10.293713      -280.1062
  11   2.0000     -10.291433      -280.0441
  12   2.0000     -10.287738      -279.9436
  13   2.0000     -10.287159      -279.9278
  14   2.0000     -10.282135      -279.7911
  15   2.0000     -10.271463      -279.5007
  16   2.0000      -8.084209      -219.9825
  17   2.0000      -8.078054      -219.8150
  18   2.0000      -6.042717      -164.4307
  19   2.0000      -6.038673      -164.3207
  20   2.0000      -6.036551      -164.2629
  21   2.0000      -6.035157      -164.2250
  22   2.0000      -6.032820      -164.1614
  23   2.0000      -6.028642      -164.0477
  24   2.0000      -1.001479       -27.2516
  25   2.0000      -0.981334       -26.7035
  26   2.0000      -0.914399       -24.8821
  27   2.0000      -0.903663       -24.5899
  28   2.0000      -0.863962       -23.5096
  29   2.0000      -0.852524       -23.1984
  30   2.0000      -0.844711       -22.9858
  31   2.0000      -0.810188       -22.0463
  32   2.0000      -0.785730       -21.3808
  33   2.0000      -0.773070       -21.0363
  34   2.0000      -0.706532       -19.2257
  35   2.0000      -0.703350       -19.1391
  36   2.0000      -0.691590       -18.8191
  37   2.0000      -0.656645       -17.8682
  38   2.0000      -0.635180       -17.2841
  39   2.0000      -0.619763       -16.8646
  40   2.0000      -0.597029       -16.2460
  41   2.0000      -0.569543       -15.4980
  42   2.0000      -0.557463       -15.1693
  43   2.0000      -0.547170       -14.8893
  44   2.0000      -0.542261       -14.7557
  45   2.0000      -0.533251       -14.5105
  46   2.0000      -0.515994       -14.0409
  47   2.0000      -0.510658       -13.8957
  48   2.0000      -0.498113       -13.5543
  49   2.0000      -0.496679       -13.5153
  50   2.0000      -0.490967       -13.3599
  51   2.0000      -0.477206       -12.9854
  52   2.0000      -0.472587       -12.8598
  53   2.0000      -0.462245       -12.5783
  54   2.0000      -0.459502       -12.5037
  55   2.0000      -0.450113       -12.2482
  56   2.0000      -0.444077       -12.0840
  57   2.0000      -0.438540       -11.9333
  58   2.0000      -0.435418       -11.8483
  59   2.0000      -0.423384       -11.5209
  60   2.0000      -0.417245       -11.3538
  61   2.0000      -0.416265       -11.3271
  62   2.0000      -0.413166       -11.2428
  63   2.0000      -0.350696        -9.5429
  64   2.0000      -0.332019        -9.0347
  65   2.0000      -0.330790        -9.0013
  66   2.0000      -0.279927        -7.6172
  67   0.0000       0.017850         0.4857
  68   0.0000       0.073156         1.9907
  69   0.0000       0.098344         2.6761
  70   0.0000       0.121070         3.2945
  71   0.0000       0.131571         3.5802

MULLIKEN ATOMIC CHARGES
-----------------------
   0 S :    0.118696
   1 C :   -0.103268
   2 C :   -0.105470
   3 C :    0.022356
   4 C :   -0.140403
   5 H :    0.012689
   6 C :    0.079702
   7 H :   -0.008058
   8 H :    0.021413
   9 C :   -0.081171
  10 H :    0.023999
  11 H :    0.027997
  12 C :   -0.020669
  13 H :    0.046895
  14 H :    0.015738
  15 H :    0.030917
  16 S :    0.089690
  17 C :   -0.127554
  18 C :   -0.052063
  19 C :   -0.053432
  20 C :   -0.147422
  21 H :    0.042319
  22 C :    0.083133
  23 H :    0.045170
  24 H :    0.009959
  25 C :   -0.059299
  26 H :    0.027906
  27 H :    0.034288
  28 C :   -0.077503
  29 H :    0.033920
  30 H :    0.021592
  31 H :    0.065560
  32 H :    0.038539
  33 H :    0.083835
Sum of atomic charges:   -0.0000000

LOEWDIN ATOMIC CHARGES
----------------------
   0 S :    0.416177
   1 C :   -0.204302
   2 C :   -0.068349
   3 C :   -0.067923
   4 C :   -0.180107
   5 H :    0.028401
   6 C :   -0.033598
   7 H :    0.022468
   8 H :    0.031303
   9 C :   -0.031872
  10 H :    0.016992
  11 H :    0.022325
  12 C :   -0.057342
  13 H :    0.032140
  14 H :    0.015422
  15 H :    0.025432
  16 S :    0.368331
  17 C :   -0.188051
  18 C :   -0.078802
  19 C :   -0.052664
  20 C :   -0.184952
  21 H :    0.040497
  22 C :   -0.027498
  23 H :    0.042742
  24 H :    0.021297
  25 C :   -0.043581
  26 H :    0.025883
  27 H :    0.028529
  28 C :   -0.079512
  29 H :    0.035011
  30 H :    0.019077
  31 H :    0.040326
  32 H :    0.027154
  33 H :    0.039046

  Mayer bond orders larger than 0.100000
B(  0-S ,  1-C ) :   1.1458 B(  0-S ,  4-C ) :   1.1651 B(  1-C ,  2-C ) :   1.5744
B(  1-C ,  4-C ) :   0.1060 B(  1-C , 32-H ) :   0.9699 B(  2-C ,  3-C ) :   1.3006
B(  2-C ,  6-C ) :   1.0249 B(  3-C ,  4-C ) :   1.5016 B(  3-C ,  5-H ) :   0.9839
B(  4-C , 20-C ) :   1.0823 B(  6-C ,  7-H ) :   0.9367 B(  6-C ,  8-H ) :   0.9362
B(  6-C ,  9-C ) :   1.0523 B(  9-C , 10-H ) :   0.9651 B(  9-C , 11-H ) :   0.9582
B(  9-C , 12-C ) :   1.0712 B( 12-C , 13-H ) :   0.9739 B( 12-C , 14-H ) :   0.9771
B( 12-C , 15-H ) :   0.9794 B( 16-S , 17-C ) :   1.1442 B( 16-S , 20-C ) :   1.1167
B( 17-C , 18-C ) :   1.6312 B( 17-C , 33-H ) :   0.9584 B( 18-C , 19-C ) :   1.2116
B( 18-C , 21-H ) :   0.9838 B( 19-C , 20-C ) :   1.6000 B( 19-C , 22-C ) :   1.0299
B( 22-C , 23-H ) :   0.9315 B( 22-C , 24-H ) :   0.9351 B( 22-C , 25-C ) :   1.0765
B( 25-C , 26-H ) :   0.9537 B( 25-C , 27-H ) :   0.9526 B( 25-C , 28-C ) :   1.0700
B( 28-C , 29-H ) :   0.9699 B( 28-C , 30-H ) :   0.9718 B( 28-C , 31-H ) :   0.9726

Dispersion correction           -0.014598740
FINAL SINGLE POINT ENERGY     -1339.873682412604

DIPOLE MOMENT
-------------
                                X             Y             Z
Electronic contribution:    -17.55046     -20.32706      -5.10035
Nuclear contribution   :     18.13232      20.52512       5.36778
                        -----------------------------------------
Total Dipole Moment    :      0.58186       0.19806       0.26743
                        -----------------------------------------
Magnitude (a.u.)       :      0.67031
Magnitude (Debye)      :      1.70378

Rotational constants in cm-1:     0.019489     0.008740     0.006769
Rotational constants in MHz :   584.279872   262.011241   202.923564

                             ****ORCA TERMINATED NORMALLY****
TOTAL RUN TIME: 0 days 0 hours 0 minutes 34 seconds 166 msec
