                         Program Version 4.2.1 -  RELEASE  -
|  1> ! wB97X-D3 SP def2-SVP
|  2> %pal
|  3> nprocs 16
|  4> end
|  5>
|  6> * xyz 0 1
|  7> S 	 -15.4852 	 36.9431 	 35.8945
|  8> C 	 -15.382 	 37.9893 	 37.2477
|  9> C 	 -15.1296 	 37.3177 	 38.4381
| 10> C 	 -15.1797 	 35.9137 	 38.2291
| 11> C 	 -15.3862 	 35.5293 	 36.9252
| 12> H 	 -14.9914 	 35.127 	 38.9445
| 13> C 	 -14.7562 	 37.955 	 39.7979
| 14> H 	 -14.9582 	 37.2402 	 40.5582
| 15> H 	 -15.4766 	 38.7212 	 39.9753
| 16> C 	 -13.3381 	 38.4931 	 39.8431
| 17> H 	 -13.211 	 39.3265 	 39.1088
| 18> H 	 -13.1501 	 38.9592 	 40.8058
| 19> C 	 -12.2693 	 37.3535 	 39.7414
| 20> H 	 -12.2827 	 36.6727 	 40.5921
| 21> H 	 -12.3429 	 36.7909 	 38.7939
| 22> H 	 -11.3039 	 37.8506 	 39.7483
| 23> S 	 -14.1348 	 34.0228 	 35.034
| 24> C 	 -14.2613 	 32.3024 	 34.9873
| 25> C 	 -14.9896 	 31.807 	 36.0166
| 26> C 	 -15.5843 	 32.8659 	 36.7665
| 27> C 	 -15.2218 	 34.1479 	 36.3671
| 28> H 	 -15.0921 	 30.7111 	 35.9972
| 29> C 	 -16.4139 	 32.5229 	 37.9503
| 30> H 	 -17.3708 	 33.1472 	 37.9222
| 31> H 	 -15.909 	 33.0651 	 38.7248
| 32> C 	 -16.7131 	 31.0411 	 38.2088
| 33> H 	 -15.7707 	 30.4908 	 38.2749
| 34> H 	 -17.3427 	 30.6136 	 37.3962
| 35> C 	 -17.4044 	 30.6801 	 39.5941
| 36> H 	 -18.305 	 31.2838 	 39.7261
| 37> H 	 -16.8383 	 30.7711 	 40.4736
| 38> H 	 -17.7882 	 29.6547 	 39.6593
| 39> H 	 -15.4321 	 38.9777 	 37.0316
| 40> H 	 -13.8326 	 31.6049 	 34.3351
| 41> *
| 42>
| 43>                          ****END OF INPUT****

CARTESIAN COORDINATES (ANGSTROEM)
---------------------------------
  S    -15.485200   36.943100   35.894500
  C    -15.382000   37.989300   37.247700
  C    -15.129600   37.317700   38.438100
  C    -15.179700   35.913700   38.229100
  C    -15.386200   35.529300   36.925200
  H    -14.991400   35.127000   38.944500
  C    -14.756200   37.955000   39.797900
  H    -14.958200   37.240200   40.558200
  H    -15.476600   38.721200   39.975300
  C    -13.338100   38.493100   39.843100
  H    -13.211000   39.326500   39.108800
  H    -13.150100   38.959200   40.805800
  C    -12.269300   37.353500   39.741400
  H    -12.282700   36.672700   40.592100
  H    -12.342900   36.790900   38.793900
  H    -11.303900   37.850600   39.748300
  S    -14.134800   34.022800   35.034000
  C    -14.261300   32.302400   34.987300
  C    -14.989600   31.807000   36.016600
  C    -15.584300   32.865900   36.766500
  C    -15.221800   34.147900   36.367100
  H    -15.092100   30.711100   35.997200
  C    -16.413900   32.522900   37.950300
  H    -17.370800   33.147200   37.922200
  H    -15.909000   33.065100   38.724800
  C    -16.713100   31.041100   38.208800
  H    -15.770700   30.490800   38.274900
  H    -17.342700   30.613600   37.396200
  C    -17.404400   30.680100   39.594100
  H    -18.305000   31.283800   39.726100
  H    -16.838300   30.771100   40.473600
  H    -17.788200   29.654700   39.659300
  H    -15.432100   38.977700   37.031600
  H    -13.832600   31.604900   34.335100

 Total Charge           Charge          ....    0
 Multiplicity           Mult            ....    1
 Number of Electrons    NEL             ....  134
 Basis Dimension        Dim             ....  322

ORBITAL ENERGIES
----------------

  NO   OCC          E(Eh)            E(eV)
   0   2.0000     -88.966122     -2420.8913
   1   2.0000     -88.962005     -2420.7792
   2   2.0000     -10.331224      -281.1269
   3   2.0000     -10.324899      -280.9548
   4   2.0000     -10.307820      -280.4900
   5   2.0000     -10.304521      -280.4003
   6   2.0000     -10.304305      -280.3944
   7   2.0000     -10.301560      -280.3197
   8   2.0000     -10.296929      -280.1937
   9   2.0000     -10.292903      -280.0841
  10   2.0000     -10.290794      -280.0267
  11   2.0000     -10.290516      -280.0192
  12   2.0000     -10.288691      -279.9695
  13   2.0000     -10.287646      -279.9411
  14   2.0000     -10.277976      -279.6780
  15   2.0000     -10.277712      -279.6708
  16   2.0000      -8.081626      -219.9122
  17   2.0000      -8.077535      -219.8009
  18   2.0000      -6.039980      -164.3562
  19   2.0000      -6.036015      -164.2483
  20   2.0000      -6.035985      -164.2475
  21   2.0000      -6.032562      -164.1544
  22   2.0000      -6.031837      -164.1346
  23   2.0000      -6.028383      -164.0406
  24   2.0000      -1.011217       -27.5166
  25   2.0000      -0.991073       -26.9685
  26   2.0000      -0.910138       -24.7661
  27   2.0000      -0.905800       -24.6481
  28   2.0000      -0.870578       -23.6896
  29   2.0000      -0.850532       -23.1441
  30   2.0000      -0.843582       -22.9550
  31   2.0000      -0.820195       -22.3186
  32   2.0000      -0.783787       -21.3279
  33   2.0000      -0.772953       -21.0331
  34   2.0000      -0.711460       -19.3598
  35   2.0000      -0.703733       -19.1496
  36   2.0000      -0.697163       -18.9708
  37   2.0000      -0.660221       -17.9655
  38   2.0000      -0.643989       -17.5238
  39   2.0000      -0.618222       -16.8227
  40   2.0000      -0.592356       -16.1188
  41   2.0000      -0.575036       -15.6475
  42   2.0000      -0.564068       -15.3491
  43   2.0000      -0.550379       -14.9766
  44   2.0000      -0.546244       -14.8640
  45   2.0000      -0.522968       -14.2307
  46   2.0000      -0.517506       -14.0821
  47   2.0000      -0.509399       -13.8614
  48   2.0000      -0.501680       -13.6514
  49   2.0000      -0.499442       -13.5905
  50   2.0000      -0.484604       -13.1867
  51   2.0000      -0.480785       -13.0828
  52   2.0000      -0.472438       -12.8557
  53   2.0000      -0.464298       -12.6342
  54   2.0000      -0.459550       -12.5050
  55   2.0000      -0.450291       -12.2530
  56   2.0000      -0.443934       -12.0801
  57   2.0000      -0.438782       -11.9399
  58   2.0000      -0.432957       -11.7814
  59   2.0000      -0.429974       -11.7002
  60   2.0000      -0.421728       -11.4758
  61   2.0000      -0.415560       -11.3080
  62   2.0000      -0.413608       -11.2548
  63   2.0000      -0.354003        -9.6329
  64   2.0000      -0.333566        -9.0768
  65   2.0000      -0.325097        -8.8464
  66   2.0000      -0.288318        -7.8455
  67   0.0000       0.032077         0.8729
  68   0.0000       0.075429         2.0525
  69   0.0000       0.114499         3.1157
  70   0.0000       0.127149         3.4599
  71   0.0000       0.144779         3.9396

MULLIKEN ATOMIC CHARGES
-----------------------
   0 S :    0.108065
   1 C :   -0.097686
   2 C :   -0.087139
   3 C :    0.013504
   4 C :   -0.146929
   5 H :    0.011034
   6 C :    0.123091
   7 H :    0.006996
   8 H :    0.019978
   9 C :   -0.074814
  10 H :    0.036496
  11 H :    0.026561
  12 C :   -0.065108
  13 H :    0.032060
  14 H :    0.054347
  15 H :    0.030316
  16 S :    0.103301
  17 C :   -0.047136
  18 C :   -0.085636
  19 C :   -0.059089
  20 C :   -0.124629
  21 H :    0.033441
  22 C :    0.065926
  23 H :    0.037243
  24 H :    0.011417
  25 C :   -0.087701
  26 H :    0.039873
  27 H :    0.048332
  28 C :   -0.034680
  29 H :    0.023692
  30 H :    0.024776
  31 H :    0.027640
  32 H :    0.010109
  33 H :    0.022348
Sum of atomic charges:   -0.0000000

LOEWDIN ATOMIC CHARGES
----------------------
   0 S :    0.422014
   1 C :   -0.184685
   2 C :   -0.057599
   3 C :   -0.064840
   4 C :   -0.196526
   5 H :    0.029382
   6 C :   -0.025863
   7 H :    0.024212
   8 H :    0.028746
   9 C :   -0.039268
  10 H :    0.027877
  11 H :    0.023385
  12 C :   -0.065763
  13 H :    0.024147
  14 H :    0.030100
  15 H :    0.026182
  16 S :    0.423762
  17 C :   -0.185322
  18 C :   -0.083080
  19 C :   -0.059753
  20 C :   -0.210520
  21 H :    0.041406
  22 C :   -0.045354
  23 H :    0.042814
  24 H :    0.028351
  25 C :   -0.039727
  26 H :    0.026250
  27 H :    0.032987
  28 C :   -0.066658
  29 H :    0.023669
  30 H :    0.016835
  31 H :    0.029422
  32 H :    0.002954
  33 H :    0.020467

  Mayer bond orders larger than 0.100000
B(  0-S ,  1-C ) :   1.1675 B(  0-S ,  4-C ) :   1.1629 B(  1-C ,  2-C ) :   1.5635
B(  1-C , 32-H ) :   0.9918 B(  2-C ,  3-C ) :   1.2659 B(  2-C ,  6-C ) :   1.0086
B(  3-C ,  4-C ) :   1.5661 B(  3-C ,  5-H ) :   0.9906 B(  4-C , 20-C ) :   1.0120
B(  6-C ,  7-H ) :   0.9401 B(  6-C ,  8-H ) :   0.9345 B(  6-C ,  9-C ) :   1.0788
B(  9-C , 10-H ) :   0.9582 B(  9-C , 11-H ) :   0.9541 B(  9-C , 12-C ) :   1.0679
B( 12-C , 13-H ) :   0.9764 B( 12-C , 14-H ) :   0.9769 B( 12-C , 15-H ) :   0.9745
B( 16-S , 17-C ) :   1.1649 B( 16-S , 20-C ) :   1.1419 B( 17-C , 18-C ) :   1.6262
B( 17-C , 33-H ) :   0.9599 B( 18-C , 19-C ) :   1.2396 B( 18-C , 21-H ) :   0.9850
B( 19-C , 20-C ) :   1.6040 B( 19-C , 22-C ) :   1.0339 B( 22-C , 23-H ) :   0.9199
B( 22-C , 24-H ) :   0.9252 B( 22-C , 25-C ) :   1.0841 B( 25-C , 26-H ) :   0.9448
B( 25-C , 27-H ) :   0.9530 B( 25-C , 28-C ) :   1.0761 B( 28-C , 29-H ) :   0.9756
B( 28-C , 30-H ) :   0.9787 B( 28-C , 31-H ) :   0.9741

Dispersion correction           -0.013962983
FINAL SINGLE POINT ENERGY     -1339.873306568313

DIPOLE MOMENT
-------------
                                X             Y             Z
Electronic contribution:      0.49823       6.48972     -24.21025
Nuclear contribution   :     -0.40867      -6.64151      24.84199
                        -----------------------------------------
Total Dipole Moment    :      0.08956      -0.15178       0.63173
                        -----------------------------------------
Magnitude (a.u.)       :      0.65585
Magnitude (Debye)      :      1.66705

Rotational constants in cm-1:     0.018005     0.008217     0.006708
Rotational constants in MHz :   539.765452   246.347972   201.105069

                             ****ORCA TERMINATED NORMALLY****
TOTAL RUN TIME: 0 days 0 hours 0 minutes 33 seconds 290 msec
