                         Program Version 4.2.1 -  RELEASE  -
|  1> ! wB97X-D3 SP def2-SVP
|  2> %pal
|  3> nprocs 16
|  4> end
|  5>
|  6> * xyz 0 1
|  7> S 	 -42.6137 	 -7.00453 	 95.9651
|  8> C 	 -41.3388 	 -6.85439 	 94.7537
|  9> C 	 -40.7519 	 -5.66495 	 94.9012
| 10> C 	 -41.3013 	 -4.87577 	 95.9148
| 11> C 	 -42.4023 	 -5.44379 	 96.6201
| 12> H 	 -40.9775 	 -3.94383 	 96.3886
| 13> C 	 -39.4711 	 -5.1819 	 94.1795
| 14> H 	 -38.6477 	 -5.19094 	 94.8944
| 15> H 	 -39.5818 	 -4.07834 	 93.9557
| 16> C 	 -39.041 	 -5.89756 	 92.8528
| 17> H 	 -37.9984 	 -5.77487 	 92.6505
| 18> H 	 -39.1622 	 -7.01232 	 93.077
| 19> C 	 -40.0982 	 -5.70585 	 91.6728
| 20> H 	 -40.2638 	 -4.66308 	 91.3786
| 21> H 	 -39.826 	 -6.33062 	 90.8252
| 22> H 	 -41.0966 	 -6.02543 	 92.0066
| 23> S 	 -41.9241 	 -4.42818 	 99.0743
| 24> C 	 -43.2684 	 -4.39347 	 100.252
| 25> C 	 -44.4731 	 -4.67067 	 99.689
| 26> C 	 -44.334 	 -5.1133 	 98.3449
| 27> C 	 -43.0172 	 -5.11057 	 97.8711
| 28> H 	 -45.4229 	 -4.64934 	 100.193
| 29> C 	 -45.5348 	 -5.64415 	 97.5802
| 30> H 	 -45.3595 	 -5.56138 	 96.5117
| 31> H 	 -46.4704 	 -5.0088 	 97.6813
| 32> C 	 -45.7662 	 -7.13269 	 97.8424
| 33> H 	 -46.0795 	 -7.25552 	 98.8495
| 34> H 	 -44.7846 	 -7.62934 	 97.7232
| 35> C 	 -46.8345 	 -7.68218 	 96.9183
| 36> H 	 -47.6235 	 -6.95376 	 96.7924
| 37> H 	 -47.2948 	 -8.57254 	 97.3884
| 38> H 	 -46.4277 	 -7.87043 	 95.9049
| 39> H 	 -40.9989 	 -7.6632 	 94.1041
| 40> H 	 -43.1471 	 -4.18765 	 101.277
| 41> *
| 42>
| 43>                          ****END OF INPUT****

CARTESIAN COORDINATES (ANGSTROEM)
---------------------------------
  S    -42.613700   -7.004530   95.965100
  C    -41.338800   -6.854390   94.753700
  C    -40.751900   -5.664950   94.901200
  C    -41.301300   -4.875770   95.914800
  C    -42.402300   -5.443790   96.620100
  H    -40.977500   -3.943830   96.388600
  C    -39.471100   -5.181900   94.179500
  H    -38.647700   -5.190940   94.894400
  H    -39.581800   -4.078340   93.955700
  C    -39.041000   -5.897560   92.852800
  H    -37.998400   -5.774870   92.650500
  H    -39.162200   -7.012320   93.077000
  C    -40.098200   -5.705850   91.672800
  H    -40.263800   -4.663080   91.378600
  H    -39.826000   -6.330620   90.825200
  H    -41.096600   -6.025430   92.006600
  S    -41.924100   -4.428180   99.074300
  C    -43.268400   -4.393470  100.252000
  C    -44.473100   -4.670670   99.689000
  C    -44.334000   -5.113300   98.344900
  C    -43.017200   -5.110570   97.871100
  H    -45.422900   -4.649340  100.193000
  C    -45.534800   -5.644150   97.580200
  H    -45.359500   -5.561380   96.511700
  H    -46.470400   -5.008800   97.681300
  C    -45.766200   -7.132690   97.842400
  H    -46.079500   -7.255520   98.849500
  H    -44.784600   -7.629340   97.723200
  C    -46.834500   -7.682180   96.918300
  H    -47.623500   -6.953760   96.792400
  H    -47.294800   -8.572540   97.388400
  H    -46.427700   -7.870430   95.904900
  H    -40.998900   -7.663200   94.104100
  H    -43.147100   -4.187650  101.277000

 Total Charge           Charge          ....    0
 Multiplicity           Mult            ....    1
 Number of Electrons    NEL             ....  134
 Basis Dimension        Dim             ....  322

ORBITAL ENERGIES
----------------

  NO   OCC          E(Eh)            E(eV)
   0   2.0000     -88.968322     -2420.9511
   1   2.0000     -88.963971     -2420.8327
   2   2.0000     -10.330419      -281.1050
   3   2.0000     -10.329923      -281.0915
   4   2.0000     -10.318593      -280.7832
   5   2.0000     -10.312297      -280.6119
   6   2.0000     -10.305850      -280.4364
   7   2.0000     -10.300644      -280.2948
   8   2.0000     -10.300478      -280.2902
   9   2.0000     -10.299086      -280.2524
  10   2.0000     -10.294432      -280.1257
  11   2.0000     -10.294081      -280.1162
  12   2.0000     -10.291096      -280.0350
  13   2.0000     -10.283162      -279.8191
  14   2.0000     -10.279021      -279.7064
  15   2.0000     -10.275733      -279.6169
  16   2.0000      -8.082323      -219.9312
  17   2.0000      -8.078935      -219.8390
  18   2.0000      -6.040961      -164.3829
  19   2.0000      -6.037392      -164.2858
  20   2.0000      -6.037036      -164.2761
  21   2.0000      -6.033216      -164.1722
  22   2.0000      -6.032895      -164.1634
  23   2.0000      -6.029921      -164.0825
  24   2.0000      -1.012735       -27.5579
  25   2.0000      -0.987841       -26.8805
  26   2.0000      -0.910638       -24.7797
  27   2.0000      -0.906086       -24.6558
  28   2.0000      -0.872401       -23.7392
  29   2.0000      -0.851002       -23.1570
  30   2.0000      -0.840934       -22.8830
  31   2.0000      -0.812771       -22.1166
  32   2.0000      -0.783041       -21.3076
  33   2.0000      -0.769620       -20.9424
  34   2.0000      -0.709067       -19.2947
  35   2.0000      -0.705463       -19.1966
  36   2.0000      -0.694024       -18.8854
  37   2.0000      -0.670499       -18.2452
  38   2.0000      -0.639816       -17.4103
  39   2.0000      -0.606254       -16.4970
  40   2.0000      -0.599147       -16.3036
  41   2.0000      -0.579066       -15.7572
  42   2.0000      -0.565082       -15.3767
  43   2.0000      -0.547783       -14.9059
  44   2.0000      -0.532270       -14.4838
  45   2.0000      -0.524617       -14.2755
  46   2.0000      -0.521127       -14.1806
  47   2.0000      -0.510802       -13.8996
  48   2.0000      -0.508033       -13.8243
  49   2.0000      -0.501353       -13.6425
  50   2.0000      -0.491880       -13.3847
  51   2.0000      -0.477963       -13.0060
  52   2.0000      -0.475064       -12.9272
  53   2.0000      -0.463793       -12.6205
  54   2.0000      -0.460694       -12.5361
  55   2.0000      -0.450307       -12.2535
  56   2.0000      -0.438219       -11.9245
  57   2.0000      -0.434296       -11.8178
  58   2.0000      -0.431828       -11.7506
  59   2.0000      -0.421554       -11.4711
  60   2.0000      -0.418874       -11.3981
  61   2.0000      -0.416095       -11.3225
  62   2.0000      -0.407710       -11.0944
  63   2.0000      -0.356288        -9.6951
  64   2.0000      -0.334282        -9.0963
  65   2.0000      -0.328740        -8.9455
  66   2.0000      -0.289654        -7.8819
  67   0.0000       0.024199         0.6585
  68   0.0000       0.068107         1.8533
  69   0.0000       0.100122         2.7245
  70   0.0000       0.121286         3.3003
  71   0.0000       0.134440         3.6583

MULLIKEN ATOMIC CHARGES
-----------------------
   0 S :    0.084209
   1 C :   -0.140915
   2 C :   -0.040507
   3 C :   -0.010963
   4 C :   -0.139324
   5 H :    0.013850
   6 C :    0.031935
   7 H :    0.043080
   8 H :    0.038061
   9 C :   -0.079984
  10 H :    0.034991
  11 H :    0.023587
  12 C :   -0.058523
  13 H :    0.035753
  14 H :    0.041311
  15 H :    0.032682
  16 S :    0.098306
  17 C :   -0.068840
  18 C :    0.000526
  19 C :   -0.035394
  20 C :   -0.142549
  21 H :    0.017612
  22 C :    0.005913
  23 H :    0.015837
  24 H :    0.034961
  25 C :   -0.054040
  26 H :    0.012140
  27 H :    0.037560
  28 C :   -0.027823
  29 H :    0.018270
  30 H :    0.037928
  31 H :    0.041249
  32 H :    0.057848
  33 H :    0.041252
Sum of atomic charges:   -0.0000000

LOEWDIN ATOMIC CHARGES
----------------------
   0 S :    0.430668
   1 C :   -0.198951
   2 C :   -0.070223
   3 C :   -0.078697
   4 C :   -0.204340
   5 H :    0.027469
   6 C :   -0.032940
   7 H :    0.033856
   8 H :    0.035174
   9 C :   -0.043109
  10 H :    0.022463
  11 H :    0.026746
  12 C :   -0.067239
  13 H :    0.023859
  14 H :    0.026299
  15 H :    0.027259
  16 S :    0.390567
  17 C :   -0.156231
  18 C :   -0.062698
  19 C :   -0.049055
  20 C :   -0.198265
  21 H :    0.034379
  22 C :   -0.043017
  23 H :    0.023712
  24 H :    0.034775
  25 C :   -0.039729
  26 H :    0.015471
  27 H :    0.020764
  28 C :   -0.064039
  29 H :    0.020685
  30 H :    0.030334
  31 H :    0.030186
  32 H :    0.033739
  33 H :    0.020127

  Mayer bond orders larger than 0.100000
B(  0-S ,  1-C ) :   1.1306 B(  0-S ,  4-C ) :   1.1837 B(  1-C ,  2-C ) :   1.6050
B(  1-C , 32-H ) :   0.9668 B(  2-C ,  3-C ) :   1.2638 B(  2-C ,  6-C ) :   0.9895
B(  3-C ,  4-C ) :   1.5306 B(  3-C ,  5-H ) :   0.9979 B(  4-C , 20-C ) :   1.0601
B(  6-C ,  7-H ) :   0.9431 B(  6-C ,  8-H ) :   0.9480 B(  6-C ,  9-C ) :   1.0706
B(  9-C , 10-H ) :   0.9606 B(  9-C , 11-H ) :   0.9534 B(  9-C , 12-C ) :   1.0563
B( 12-C , 13-H ) :   0.9788 B( 12-C , 14-H ) :   0.9781 B( 12-C , 15-H ) :   0.9748
B( 16-S , 17-C ) :   1.1429 B( 16-S , 20-C ) :   1.1213 B( 17-C , 18-C ) :   1.6123
B( 17-C , 33-H ) :   0.9725 B( 18-C , 19-C ) :   1.2421 B( 18-C , 21-H ) :   0.9916
B( 19-C , 20-C ) :   1.5807 B( 19-C , 22-C ) :   1.0581 B( 22-C , 23-H ) :   0.9318
B( 22-C , 24-H ) :   0.9348 B( 22-C , 25-C ) :   1.0585 B( 25-C , 26-H ) :   0.9559
B( 25-C , 27-H ) :   0.9479 B( 25-C , 28-C ) :   1.0829 B( 28-C , 29-H ) :   0.9707
B( 28-C , 30-H ) :   0.9742 B( 28-C , 31-H ) :   0.9730

Dispersion correction           -0.014379955
FINAL SINGLE POINT ENERGY     -1339.877340581823

DIPOLE MOMENT
-------------
                                X             Y             Z
Electronic contribution:      4.21857       5.29249      16.59411
Nuclear contribution   :     -4.24844      -5.29828     -16.55863
                        -----------------------------------------
Total Dipole Moment    :     -0.02987      -0.00579       0.03548
                        -----------------------------------------
Magnitude (a.u.)       :      0.04674
Magnitude (Debye)      :      0.11880

Rotational constants in cm-1:     0.022283     0.007970     0.006201
Rotational constants in MHz :   668.025066   238.949516   185.903180

                             ****ORCA TERMINATED NORMALLY****
TOTAL RUN TIME: 0 days 0 hours 0 minutes 29 seconds 617 msec
