                         Program Version 4.2.1 -  RELEASE  -
|  1> ! wB97X-D3 SP def2-SVP
|  2> %pal
|  3> nprocs 16
|  4> end
|  5>
|  6> * xyz 0 1
|  7> S 	 -29.8929 	 71.6113 	 159.122
|  8> C 	 -28.4054 	 72.0013 	 160.024
|  9> C 	 -28.6566 	 72.7878 	 161.162
| 10> C 	 -30.088 	 72.8491 	 161.392
| 11> C 	 -30.8802 	 72.2642 	 160.384
| 12> H 	 -30.5001 	 73.3837 	 162.236
| 13> C 	 -27.6034 	 73.2791 	 162.14
| 14> H 	 -27.7266 	 74.347 	 162.159
| 15> H 	 -26.6512 	 72.9967 	 161.634
| 16> C 	 -27.7023 	 72.7971 	 163.674
| 17> H 	 -28.563 	 73.2074 	 164.243
| 18> H 	 -27.7237 	 71.6818 	 163.78
| 19> C 	 -26.468 	 73.1401 	 164.393
| 20> H 	 -26.3476 	 72.7119 	 165.385
| 21> H 	 -25.5782 	 72.7691 	 163.831
| 22> H 	 -26.368 	 74.1572 	 164.609
| 23> S 	 -33.1356 	 70.8229 	 159.91
| 24> C 	 -34.6117 	 71.7097 	 159.737
| 25> C 	 -34.5381 	 73.0026 	 160.1
| 26> C 	 -33.2202 	 73.3199 	 160.499
| 27> C 	 -32.3356 	 72.2753 	 160.354
| 28> H 	 -35.4467 	 73.5677 	 160.041
| 29> C 	 -32.9718 	 74.7755 	 160.585
| 30> H 	 -31.9737 	 74.8478 	 161.03
| 31> H 	 -33.7877 	 75.2511 	 161.229
| 32> C 	 -33.0305 	 75.4722 	 159.178
| 33> H 	 -32.7723 	 76.5233 	 159.299
| 34> H 	 -34.0579 	 75.7073 	 158.878
| 35> C 	 -32.2903 	 74.7767 	 157.985
| 36> H 	 -32.5498 	 73.7669 	 157.679
| 37> H 	 -31.2276 	 74.7218 	 158.248
| 38> H 	 -32.3709 	 75.4702 	 157.164
| 39> H 	 -27.4276 	 71.6155 	 159.908
| 40> H 	 -35.5377 	 71.161 	 159.685
| 41> *
| 42>
| 43>                          ****END OF INPUT****

CARTESIAN COORDINATES (ANGSTROEM)
---------------------------------
  S    -29.892900   71.611300  159.122000
  C    -28.405400   72.001300  160.024000
  C    -28.656600   72.787800  161.162000
  C    -30.088000   72.849100  161.392000
  C    -30.880200   72.264200  160.384000
  H    -30.500100   73.383700  162.236000
  C    -27.603400   73.279100  162.140000
  H    -27.726600   74.347000  162.159000
  H    -26.651200   72.996700  161.634000
  C    -27.702300   72.797100  163.674000
  H    -28.563000   73.207400  164.243000
  H    -27.723700   71.681800  163.780000
  C    -26.468000   73.140100  164.393000
  H    -26.347600   72.711900  165.385000
  H    -25.578200   72.769100  163.831000
  H    -26.368000   74.157200  164.609000
  S    -33.135600   70.822900  159.910000
  C    -34.611700   71.709700  159.737000
  C    -34.538100   73.002600  160.100000
  C    -33.220200   73.319900  160.499000
  C    -32.335600   72.275300  160.354000
  H    -35.446700   73.567700  160.041000
  C    -32.971800   74.775500  160.585000
  H    -31.973700   74.847800  161.030000
  H    -33.787700   75.251100  161.229000
  C    -33.030500   75.472200  159.178000
  H    -32.772300   76.523300  159.299000
  H    -34.057900   75.707300  158.878000
  C    -32.290300   74.776700  157.985000
  H    -32.549800   73.766900  157.679000
  H    -31.227600   74.721800  158.248000
  H    -32.370900   75.470200  157.164000
  H    -27.427600   71.615500  159.908000
  H    -35.537700   71.161000  159.685000

 Total Charge           Charge          ....    0
 Multiplicity           Mult            ....    1
 Number of Electrons    NEL             ....  134
 Basis Dimension        Dim             ....  322

ORBITAL ENERGIES
----------------

  NO   OCC          E(Eh)            E(eV)
   0   2.0000     -88.970593     -2421.0129
   1   2.0000     -88.962997     -2420.8062
   2   2.0000     -10.330184      -281.0986
   3   2.0000     -10.322569      -280.8914
   4   2.0000     -10.312542      -280.6185
   5   2.0000     -10.307967      -280.4940
   6   2.0000     -10.303811      -280.3810
   7   2.0000     -10.303223      -280.3650
   8   2.0000     -10.296024      -280.1691
   9   2.0000     -10.295643      -280.1587
  10   2.0000     -10.293672      -280.1051
  11   2.0000     -10.293352      -280.0964
  12   2.0000     -10.288599      -279.9670
  13   2.0000     -10.285414      -279.8803
  14   2.0000     -10.272958      -279.5414
  15   2.0000     -10.271312      -279.4966
  16   2.0000      -8.084418      -219.9882
  17   2.0000      -8.079152      -219.8449
  18   2.0000      -6.043094      -164.4410
  19   2.0000      -6.039031      -164.3304
  20   2.0000      -6.037487      -164.2884
  21   2.0000      -6.035076      -164.2228
  22   2.0000      -6.033526      -164.1806
  23   2.0000      -6.029955      -164.0834
  24   2.0000      -1.013486       -27.5784
  25   2.0000      -0.982157       -26.7259
  26   2.0000      -0.910924       -24.7875
  27   2.0000      -0.904963       -24.6253
  28   2.0000      -0.874742       -23.8029
  29   2.0000      -0.850135       -23.1333
  30   2.0000      -0.845350       -23.0032
  31   2.0000      -0.812387       -22.1062
  32   2.0000      -0.782038       -21.2803
  33   2.0000      -0.770809       -20.9748
  34   2.0000      -0.711362       -19.3571
  35   2.0000      -0.699433       -19.0325
  36   2.0000      -0.692843       -18.8532
  37   2.0000      -0.663953       -18.0671
  38   2.0000      -0.632342       -17.2069
  39   2.0000      -0.618927       -16.8419
  40   2.0000      -0.587354       -15.9827
  41   2.0000      -0.574449       -15.6315
  42   2.0000      -0.567120       -15.4321
  43   2.0000      -0.548721       -14.9315
  44   2.0000      -0.539294       -14.6749
  45   2.0000      -0.523029       -14.2323
  46   2.0000      -0.511104       -13.9079
  47   2.0000      -0.510324       -13.8866
  48   2.0000      -0.504629       -13.7316
  49   2.0000      -0.500296       -13.6137
  50   2.0000      -0.495392       -13.4803
  51   2.0000      -0.476800       -12.9744
  52   2.0000      -0.464026       -12.6268
  53   2.0000      -0.459961       -12.5162
  54   2.0000      -0.453870       -12.3504
  55   2.0000      -0.449121       -12.2212
  56   2.0000      -0.446295       -12.1443
  57   2.0000      -0.434628       -11.8268
  58   2.0000      -0.432312       -11.7638
  59   2.0000      -0.428055       -11.6480
  60   2.0000      -0.423683       -11.5290
  61   2.0000      -0.419435       -11.4134
  62   2.0000      -0.400121       -10.8878
  63   2.0000      -0.346237        -9.4216
  64   2.0000      -0.332160        -9.0385
  65   2.0000      -0.328063        -8.9271
  66   2.0000      -0.289610        -7.8807
  67   0.0000       0.028831         0.7845
  68   0.0000       0.076519         2.0822
  69   0.0000       0.110901         3.0178
  70   0.0000       0.115689         3.1481
  71   0.0000       0.132022         3.5925

MULLIKEN ATOMIC CHARGES
-----------------------
   0 S :    0.124382
   1 C :   -0.111695
   2 C :   -0.103949
   3 C :    0.024519
   4 C :   -0.140884
   5 H :    0.011405
   6 C :    0.064156
   7 H :    0.038260
   8 H :    0.024878
   9 C :   -0.079571
  10 H :    0.041064
  11 H :    0.042505
  12 C :   -0.041650
  13 H :    0.026109
  14 H :    0.028099
  15 H :    0.013413
  16 S :    0.108452
  17 C :   -0.091449
  18 C :   -0.035285
  19 C :   -0.027821
  20 C :   -0.170791
  21 H :    0.017912
  22 C :    0.072155
  23 H :    0.014445
  24 H :    0.040203
  25 C :   -0.082742
  26 H :    0.020581
  27 H :    0.011128
  28 C :   -0.030441
  29 H :    0.046299
  30 H :    0.033823
  31 H :    0.029047
  32 H :    0.030940
  33 H :    0.052504
Sum of atomic charges:   -0.0000000

LOEWDIN ATOMIC CHARGES
----------------------
   0 S :    0.406895
   1 C :   -0.197648
   2 C :   -0.057005
   3 C :   -0.067514
   4 C :   -0.200096
   5 H :    0.025626
   6 C :   -0.027684
   7 H :    0.034242
   8 H :    0.035231
   9 C :   -0.043635
  10 H :    0.029181
  11 H :    0.032762
  12 C :   -0.070222
  13 H :    0.027298
  14 H :    0.028899
  15 H :    0.013609
  16 S :    0.420430
  17 C :   -0.181272
  18 C :   -0.063554
  19 C :   -0.060035
  20 C :   -0.212584
  21 H :    0.035034
  22 C :   -0.036316
  23 H :    0.024391
  24 H :    0.042323
  25 C :   -0.043687
  26 H :    0.026085
  27 H :    0.019492
  28 C :   -0.064069
  29 H :    0.027026
  30 H :    0.027229
  31 H :    0.026476
  32 H :    0.019792
  33 H :    0.023297

  Mayer bond orders larger than 0.100000
B(  0-S ,  1-C ) :   1.1231 B(  0-S ,  4-C ) :   1.1511 B(  1-C ,  2-C ) :   1.6118
B(  1-C , 32-H ) :   0.9649 B(  2-C ,  3-C ) :   1.2432 B(  2-C ,  6-C ) :   1.0352
B(  3-C ,  4-C ) :   1.5618 B(  3-C ,  5-H ) :   0.9884 B(  4-C , 20-C ) :   1.0440
B(  6-C ,  7-H ) :   0.9287 B(  6-C ,  8-H ) :   0.9453 B(  6-C ,  9-C ) :   1.0478
B(  9-C , 10-H ) :   0.9506 B(  9-C , 11-H ) :   0.9605 B(  9-C , 12-C ) :   1.0960
B( 12-C , 13-H ) :   0.9697 B( 12-C , 14-H ) :   0.9716 B( 12-C , 15-H ) :   0.9723
B( 16-S , 17-C ) :   1.1547 B( 16-S , 20-C ) :   1.1483 B( 17-C , 18-C ) :   1.6313
B( 17-C , 33-H ) :   0.9600 B( 18-C , 19-C ) :   1.2110 B( 18-C , 21-H ) :   1.0014
B( 19-C , 20-C ) :   1.5790 B( 19-C , 22-C ) :   1.0705 B( 22-C , 23-H ) :   0.9273
B( 22-C , 24-H ) :   0.9282 B( 22-C , 25-C ) :   1.0650 B( 25-C , 26-H ) :   0.9527
B( 25-C , 27-H ) :   0.9488 B( 25-C , 28-C ) :   1.0673 B( 28-C , 29-H ) :   0.9737
B( 28-C , 30-H ) :   0.9767 B( 28-C , 31-H ) :   0.9722

Dispersion correction           -0.015260367
FINAL SINGLE POINT ENERGY     -1339.861823731741

DIPOLE MOMENT
-------------
                                X             Y             Z
Electronic contribution:    -11.19958     -17.40239     -10.65268
Nuclear contribution   :     11.19281      17.89599      11.05673
                        -----------------------------------------
Total Dipole Moment    :     -0.00678       0.49361       0.40405
                        -----------------------------------------
Magnitude (a.u.)       :      0.63792
Magnitude (Debye)      :      1.62147

Rotational constants in cm-1:     0.022276     0.007655     0.007213
Rotational constants in MHz :   667.810451   229.505048   216.247322

                             ****ORCA TERMINATED NORMALLY****
TOTAL RUN TIME: 0 days 0 hours 0 minutes 35 seconds 284 msec
