                         Program Version 4.2.1 -  RELEASE  -
|  1> ! wB97X-D3 SP def2-SVP
|  2> %pal
|  3> nprocs 16
|  4> end
|  5>
|  6> * xyz 0 1
|  7> S 	 -45.2163 	 26.369 	 86.0814
|  8> C 	 -45.6966 	 25.9484 	 84.5178
|  9> C 	 -44.7726 	 25.3104 	 83.7353
| 10> C 	 -43.5328 	 25.3653 	 84.3884
| 11> C 	 -43.5443 	 25.9623 	 85.66
| 12> H 	 -42.6306 	 25.0511 	 83.8963
| 13> C 	 -45.0161 	 24.8052 	 82.3187
| 14> H 	 -44.3082 	 25.3139 	 81.6636
| 15> H 	 -45.9505 	 25.1331 	 82.0122
| 16> C 	 -44.9921 	 23.2978 	 82.096
| 17> H 	 -44.9525 	 23.2462 	 81.0049
| 18> H 	 -43.9948 	 22.9181 	 82.472
| 19> C 	 -46.1037 	 22.5262 	 82.735
| 20> H 	 -47.002 	 22.928 	 82.2614
| 21> H 	 -45.926 	 21.4864 	 82.5479
| 22> H 	 -46.1046 	 22.7109 	 83.7866
| 23> S 	 -42.4556 	 25.5702 	 88.1531
| 24> C 	 -40.8672 	 26.0346 	 88.4081
| 25> C 	 -40.245 	 26.5551 	 87.3498
| 26> C 	 -41.0943 	 26.56 	 86.2009
| 27> C 	 -42.3951 	 26.2133 	 86.5326
| 28> H 	 -39.2063 	 26.9065 	 87.3904
| 29> C 	 -40.6214 	 27.1953 	 84.9685
| 30> H 	 -40.5984 	 28.2351 	 85.1713
| 31> H 	 -41.3 	 27.0715 	 84.1435
| 32> C 	 -39.2428 	 26.7356 	 84.4202
| 33> H 	 -38.4539 	 26.9657 	 85.0616
| 34> H 	 -38.9883 	 27.3122 	 83.5335
| 35> C 	 -39.1705 	 25.3163 	 83.9192
| 36> H 	 -39.7897 	 25.1137 	 83.0122
| 37> H 	 -39.546 	 24.6491 	 84.8122
| 38> H 	 -38.1486 	 25.0466 	 83.6007
| 39> H 	 -46.74 	 26.1513 	 84.2117
| 40> H 	 -40.3059 	 25.8519 	 89.3145
| 41> *
| 42>
| 43>                          ****END OF INPUT****

CARTESIAN COORDINATES (ANGSTROEM)
---------------------------------
  S    -45.216300   26.369000   86.081400
  C    -45.696600   25.948400   84.517800
  C    -44.772600   25.310400   83.735300
  C    -43.532800   25.365300   84.388400
  C    -43.544300   25.962300   85.660000
  H    -42.630600   25.051100   83.896300
  C    -45.016100   24.805200   82.318700
  H    -44.308200   25.313900   81.663600
  H    -45.950500   25.133100   82.012200
  C    -44.992100   23.297800   82.096000
  H    -44.952500   23.246200   81.004900
  H    -43.994800   22.918100   82.472000
  C    -46.103700   22.526200   82.735000
  H    -47.002000   22.928000   82.261400
  H    -45.926000   21.486400   82.547900
  H    -46.104600   22.710900   83.786600
  S    -42.455600   25.570200   88.153100
  C    -40.867200   26.034600   88.408100
  C    -40.245000   26.555100   87.349800
  C    -41.094300   26.560000   86.200900
  C    -42.395100   26.213300   86.532600
  H    -39.206300   26.906500   87.390400
  C    -40.621400   27.195300   84.968500
  H    -40.598400   28.235100   85.171300
  H    -41.300000   27.071500   84.143500
  C    -39.242800   26.735600   84.420200
  H    -38.453900   26.965700   85.061600
  H    -38.988300   27.312200   83.533500
  C    -39.170500   25.316300   83.919200
  H    -39.789700   25.113700   83.012200
  H    -39.546000   24.649100   84.812200
  H    -38.148600   25.046600   83.600700
  H    -46.740000   26.151300   84.211700
  H    -40.305900   25.851900   89.314500

 Total Charge           Charge          ....    0
 Multiplicity           Mult            ....    1
 Number of Electrons    NEL             ....  134
 Basis Dimension        Dim             ....  322

ORBITAL ENERGIES
----------------

  NO   OCC          E(Eh)            E(eV)
   0   2.0000     -88.965923     -2420.8858
   1   2.0000     -88.962170     -2420.7837
   2   2.0000     -10.328692      -281.0580
   3   2.0000     -10.321795      -280.8703
   4   2.0000     -10.308460      -280.5074
   5   2.0000     -10.304528      -280.4005
   6   2.0000     -10.297470      -280.2084
   7   2.0000     -10.293519      -280.1009
   8   2.0000     -10.290663      -280.0232
   9   2.0000     -10.287201      -279.9290
  10   2.0000     -10.286005      -279.8964
  11   2.0000     -10.285477      -279.8821
  12   2.0000     -10.285045      -279.8703
  13   2.0000     -10.282251      -279.7943
  14   2.0000     -10.280403      -279.7440
  15   2.0000     -10.271192      -279.4933
  16   2.0000      -8.081593      -219.9113
  17   2.0000      -8.078889      -219.8377
  18   2.0000      -6.039883      -164.3536
  19   2.0000      -6.037190      -164.2803
  20   2.0000      -6.036044      -164.2491
  21   2.0000      -6.033275      -164.1738
  22   2.0000      -6.032482      -164.1522
  23   2.0000      -6.029593      -164.0736
  24   2.0000      -1.014185       -27.5974
  25   2.0000      -0.994438       -27.0600
  26   2.0000      -0.917096       -24.9555
  27   2.0000      -0.915839       -24.9212
  28   2.0000      -0.870897       -23.6983
  29   2.0000      -0.857077       -23.3222
  30   2.0000      -0.851726       -23.1766
  31   2.0000      -0.814565       -22.1654
  32   2.0000      -0.789042       -21.4709
  33   2.0000      -0.773966       -21.0607
  34   2.0000      -0.708067       -19.2675
  35   2.0000      -0.695731       -18.9318
  36   2.0000      -0.686819       -18.6893
  37   2.0000      -0.656445       -17.8628
  38   2.0000      -0.636542       -17.3212
  39   2.0000      -0.627754       -17.0821
  40   2.0000      -0.604190       -16.4408
  41   2.0000      -0.569802       -15.5051
  42   2.0000      -0.561615       -15.2823
  43   2.0000      -0.556442       -15.1416
  44   2.0000      -0.546073       -14.8594
  45   2.0000      -0.538655       -14.6575
  46   2.0000      -0.517153       -14.0724
  47   2.0000      -0.509975       -13.8771
  48   2.0000      -0.499182       -13.5834
  49   2.0000      -0.493141       -13.4191
  50   2.0000      -0.488449       -13.2914
  51   2.0000      -0.481609       -13.1052
  52   2.0000      -0.477887       -13.0040
  53   2.0000      -0.464194       -12.6314
  54   2.0000      -0.461558       -12.5596
  55   2.0000      -0.453828       -12.3493
  56   2.0000      -0.445102       -12.1119
  57   2.0000      -0.443441       -12.0666
  58   2.0000      -0.439263       -11.9529
  59   2.0000      -0.419914       -11.4265
  60   2.0000      -0.418710       -11.3937
  61   2.0000      -0.417113       -11.3502
  62   2.0000      -0.409760       -11.1501
  63   2.0000      -0.352008        -9.5786
  64   2.0000      -0.333801        -9.0832
  65   2.0000      -0.328833        -8.9480
  66   2.0000      -0.284959        -7.7541
  67   0.0000       0.034858         0.9485
  68   0.0000       0.074395         2.0244
  69   0.0000       0.117929         3.2090
  70   0.0000       0.122520         3.3339
  71   0.0000       0.128399         3.4939

MULLIKEN ATOMIC CHARGES
-----------------------
   0 S :    0.122571
   1 C :   -0.144755
   2 C :   -0.088285
   3 C :    0.025417
   4 C :   -0.164111
   5 H :   -0.004558
   6 C :    0.114272
   7 H :    0.027845
   8 H :   -0.018394
   9 C :   -0.103304
  10 H :    0.027602
  11 H :    0.024026
  12 C :   -0.000099
  13 H :    0.023665
  14 H :    0.038369
  15 H :    0.039147
  16 S :    0.112811
  17 C :   -0.061695
  18 C :   -0.048356
  19 C :   -0.056688
  20 C :   -0.122298
  21 H :    0.023342
  22 C :    0.088314
  23 H :    0.036276
  24 H :    0.007688
  25 C :   -0.058427
  26 H :    0.011511
  27 H :    0.017876
  28 C :   -0.099667
  29 H :    0.037267
  30 H :    0.056029
  31 H :    0.038755
  32 H :    0.051160
  33 H :    0.046693
Sum of atomic charges:   -0.0000000

LOEWDIN ATOMIC CHARGES
----------------------
   0 S :    0.420460
   1 C :   -0.211584
   2 C :   -0.073795
   3 C :   -0.055131
   4 C :   -0.193654
   5 H :    0.025314
   6 C :   -0.023126
   7 H :    0.033348
   8 H :    0.016064
   9 C :   -0.042696
  10 H :    0.023790
  11 H :    0.022657
  12 C :   -0.056050
  13 H :    0.026455
  14 H :    0.028165
  15 H :    0.026841
  16 S :    0.432584
  17 C :   -0.200948
  18 C :   -0.077497
  19 C :   -0.056141
  20 C :   -0.204368
  21 H :    0.036192
  22 C :   -0.027492
  23 H :    0.036555
  24 H :    0.026604
  25 C :   -0.042027
  26 H :    0.011483
  27 H :    0.026568
  28 C :   -0.075854
  29 H :    0.024954
  30 H :    0.036936
  31 H :    0.028064
  32 H :    0.027543
  33 H :    0.029784

  Mayer bond orders larger than 0.100000
B(  0-S ,  1-C ) :   1.1712 B(  0-S ,  4-C ) :   1.1509 B(  1-C ,  2-C ) :   1.5873
B(  1-C , 32-H ) :   0.9571 B(  2-C ,  3-C ) :   1.2764 B(  2-C ,  6-C ) :   1.0180
B(  3-C ,  4-C ) :   1.5504 B(  3-C ,  5-H ) :   0.9934 B(  4-C , 20-C ) :   1.0319
B(  6-C ,  7-H ) :   0.9376 B(  6-C ,  8-H ) :   0.9305 B(  6-C ,  9-C ) :   1.0732
B(  9-C , 10-H ) :   0.9550 B(  9-C , 11-H ) :   0.9551 B(  9-C , 12-C ) :   1.0729
B( 12-C , 13-H ) :   0.9729 B( 12-C , 14-H ) :   0.9710 B( 12-C , 15-H ) :   0.9743
B( 16-S , 17-C ) :   1.1668 B( 16-S , 20-C ) :   1.1420 B( 17-C , 18-C ) :   1.6282
B( 17-C , 33-H ) :   0.9595 B( 18-C , 19-C ) :   1.2162 B( 18-C , 21-H ) :   0.9916
B( 19-C , 20-C ) :   1.5993 B( 19-C , 22-C ) :   1.0588 B( 22-C , 23-H ) :   0.9323
B( 22-C , 24-H ) :   0.9317 B( 22-C , 25-C ) :   1.0736 B( 25-C , 26-H ) :   0.9545
B( 25-C , 27-H ) :   0.9493 B( 25-C , 28-C ) :   1.0803 B( 28-C , 29-H ) :   0.9713
B( 28-C , 30-H ) :   0.9726 B( 28-C , 31-H ) :   0.9710

Dispersion correction           -0.014597759
FINAL SINGLE POINT ENERGY     -1339.880253169819

DIPOLE MOMENT
-------------
                                X             Y             Z
Electronic contribution:     -8.22866       8.74156      23.94767
Nuclear contribution   :      8.60347      -8.73092     -24.52556
                        -----------------------------------------
Total Dipole Moment    :      0.37481       0.01063      -0.57788
                        -----------------------------------------
Magnitude (a.u.)       :      0.68887
Magnitude (Debye)      :      1.75098

Rotational constants in cm-1:     0.019049     0.008813     0.006924
Rotational constants in MHz :   571.087837   264.207504   207.585146

                             ****ORCA TERMINATED NORMALLY****
TOTAL RUN TIME: 0 days 0 hours 0 minutes 30 seconds 873 msec
