                         Program Version 4.2.1 -  RELEASE  -
|  1> ! wB97X-D3 SP def2-SVP
|  2> %pal
|  3> nprocs 16
|  4> end
|  5>
|  6> * xyz 0 1
|  7> S 	 -34.9964 	 69.0573 	 171.762
|  8> C 	 -34.0225 	 69.5505 	 173.142
|  9> C 	 -34.7909 	 69.6404 	 174.291
| 10> C 	 -36.2232 	 69.6395 	 173.988
| 11> C 	 -36.4941 	 69.3915 	 172.632
| 12> H 	 -37.0235 	 69.8848 	 174.665
| 13> C 	 -34.403 	 69.8466 	 175.72
| 14> H 	 -33.6126 	 69.1198 	 175.715
| 15> H 	 -35.2001 	 69.4953 	 176.413
| 16> C 	 -33.755 	 71.1432 	 176.145
| 17> H 	 -32.7959 	 71.3451 	 175.553
| 18> H 	 -34.5114 	 71.9192 	 176.096
| 19> C 	 -33.3678 	 70.9629 	 177.562
| 20> H 	 -34.3054 	 70.7668 	 178.18
| 21> H 	 -32.6606 	 70.0981 	 177.662
| 22> H 	 -32.8226 	 71.9152 	 177.73
| 23> S 	 -38.0506 	 70.2672 	 170.38
| 24> C 	 -39.78 	 69.8312 	 170.395
| 25> C 	 -40.1361 	 69.1415 	 171.537
| 26> C 	 -39.0334 	 68.7713 	 172.383
| 27> C 	 -37.7855 	 69.4032 	 172.001
| 28> H 	 -41.1781 	 68.7933 	 171.7
| 29> C 	 -39.3501 	 67.9707 	 173.657
| 30> H 	 -38.4229 	 67.7683 	 174.136
| 31> H 	 -39.6748 	 66.9658 	 173.304
| 32> C 	 -40.4452 	 68.4482 	 174.556
| 33> H 	 -40.7073 	 67.6222 	 175.188
| 34> H 	 -41.245 	 68.4917 	 173.845
| 35> C 	 -40.2471 	 69.7623 	 175.227
| 36> H 	 -40.0747 	 70.5456 	 174.471
| 37> H 	 -39.4811 	 69.6956 	 175.98
| 38> H 	 -41.0925 	 70.0257 	 175.917
| 39> H 	 -32.9274 	 69.3759 	 173.205
| 40> H 	 -40.5023 	 70.4347 	 169.734
| 41> *
| 42>
| 43>                          ****END OF INPUT****

CARTESIAN COORDINATES (ANGSTROEM)
---------------------------------
  S    -34.996400   69.057300  171.762000
  C    -34.022500   69.550500  173.142000
  C    -34.790900   69.640400  174.291000
  C    -36.223200   69.639500  173.988000
  C    -36.494100   69.391500  172.632000
  H    -37.023500   69.884800  174.665000
  C    -34.403000   69.846600  175.720000
  H    -33.612600   69.119800  175.715000
  H    -35.200100   69.495300  176.413000
  C    -33.755000   71.143200  176.145000
  H    -32.795900   71.345100  175.553000
  H    -34.511400   71.919200  176.096000
  C    -33.367800   70.962900  177.562000
  H    -34.305400   70.766800  178.180000
  H    -32.660600   70.098100  177.662000
  H    -32.822600   71.915200  177.730000
  S    -38.050600   70.267200  170.380000
  C    -39.780000   69.831200  170.395000
  C    -40.136100   69.141500  171.537000
  C    -39.033400   68.771300  172.383000
  C    -37.785500   69.403200  172.001000
  H    -41.178100   68.793300  171.700000
  C    -39.350100   67.970700  173.657000
  H    -38.422900   67.768300  174.136000
  H    -39.674800   66.965800  173.304000
  C    -40.445200   68.448200  174.556000
  H    -40.707300   67.622200  175.188000
  H    -41.245000   68.491700  173.845000
  C    -40.247100   69.762300  175.227000
  H    -40.074700   70.545600  174.471000
  H    -39.481100   69.695600  175.980000
  H    -41.092500   70.025700  175.917000
  H    -32.927400   69.375900  173.205000
  H    -40.502300   70.434700  169.734000

 Total Charge           Charge          ....    0
 Multiplicity           Mult            ....    1
 Number of Electrons    NEL             ....  134
 Basis Dimension        Dim             ....  322

ORBITAL ENERGIES
----------------

  NO   OCC          E(Eh)            E(eV)
   0   2.0000     -88.966261     -2420.8950
   1   2.0000     -88.966058     -2420.8895
   2   2.0000     -10.341411      -281.4041
   3   2.0000     -10.331933      -281.1462
   4   2.0000     -10.328960      -281.0653
   5   2.0000     -10.316180      -280.7175
   6   2.0000     -10.314594      -280.6744
   7   2.0000     -10.303440      -280.3708
   8   2.0000     -10.300685      -280.2959
   9   2.0000     -10.295666      -280.1593
  10   2.0000     -10.289339      -279.9871
  11   2.0000     -10.288674      -279.9690
  12   2.0000     -10.288569      -279.9662
  13   2.0000     -10.285763      -279.8898
  14   2.0000     -10.281197      -279.7656
  15   2.0000     -10.280531      -279.7475
  16   2.0000      -8.080308      -219.8764
  17   2.0000      -8.079004      -219.8409
  18   2.0000      -6.038999      -164.3295
  19   2.0000      -6.037682      -164.2937
  20   2.0000      -6.034959      -164.2196
  21   2.0000      -6.033824      -164.1887
  22   2.0000      -6.030821      -164.1070
  23   2.0000      -6.029658      -164.0753
  24   2.0000      -0.994885       -27.0722
  25   2.0000      -0.971401       -26.4332
  26   2.0000      -0.925376       -25.1808
  27   2.0000      -0.917776       -24.9739
  28   2.0000      -0.871078       -23.7032
  29   2.0000      -0.851008       -23.1571
  30   2.0000      -0.843784       -22.9605
  31   2.0000      -0.808562       -22.0021
  32   2.0000      -0.785101       -21.3637
  33   2.0000      -0.768585       -20.9143
  34   2.0000      -0.710454       -19.3324
  35   2.0000      -0.693942       -18.8831
  36   2.0000      -0.689767       -18.7695
  37   2.0000      -0.650710       -17.7067
  38   2.0000      -0.635838       -17.3020
  39   2.0000      -0.615218       -16.7409
  40   2.0000      -0.596915       -16.2429
  41   2.0000      -0.586721       -15.9655
  42   2.0000      -0.560147       -15.2424
  43   2.0000      -0.555709       -15.1216
  44   2.0000      -0.543081       -14.7780
  45   2.0000      -0.531013       -14.4496
  46   2.0000      -0.518382       -14.1059
  47   2.0000      -0.508730       -13.8433
  48   2.0000      -0.500815       -13.6279
  49   2.0000      -0.497272       -13.5315
  50   2.0000      -0.488577       -13.2949
  51   2.0000      -0.474746       -12.9185
  52   2.0000      -0.469547       -12.7770
  53   2.0000      -0.467768       -12.7286
  54   2.0000      -0.455667       -12.3993
  55   2.0000      -0.447881       -12.1875
  56   2.0000      -0.444365       -12.0918
  57   2.0000      -0.435276       -11.8445
  58   2.0000      -0.430999       -11.7281
  59   2.0000      -0.427990       -11.6462
  60   2.0000      -0.416423       -11.3315
  61   2.0000      -0.411942       -11.2095
  62   2.0000      -0.407912       -11.0998
  63   2.0000      -0.348891        -9.4938
  64   2.0000      -0.331000        -9.0070
  65   2.0000      -0.324283        -8.8242
  66   2.0000      -0.285481        -7.7683
  67   0.0000       0.017370         0.4727
  68   0.0000       0.062740         1.7072
  69   0.0000       0.097709         2.6588
  70   0.0000       0.111829         3.0430
  71   0.0000       0.125449         3.4136

MULLIKEN ATOMIC CHARGES
-----------------------
   0 S :    0.110813
   1 C :   -0.131434
   2 C :   -0.076752
   3 C :    0.016840
   4 C :   -0.147989
   5 H :    0.007979
   6 C :    0.021088
   7 H :    0.014534
   8 H :    0.031607
   9 C :   -0.055474
  10 H :    0.043053
  11 H :    0.031030
  12 C :   -0.062447
  13 H :    0.043346
  14 H :    0.033612
  15 H :    0.043407
  16 S :    0.085567
  17 C :   -0.117354
  18 C :   -0.058936
  19 C :   -0.055197
  20 C :   -0.150725
  21 H :    0.048578
  22 C :    0.063770
  23 H :    0.005231
  24 H :    0.030643
  25 C :   -0.029606
  26 H :    0.022482
  27 H :    0.000810
  28 C :   -0.034272
  29 H :    0.055998
  30 H :    0.020025
  31 H :    0.033216
  32 H :    0.061192
  33 H :    0.095367
Sum of atomic charges:   -0.0000000

LOEWDIN ATOMIC CHARGES
----------------------
   0 S :    0.397072
   1 C :   -0.211450
   2 C :   -0.055813
   3 C :   -0.060373
   4 C :   -0.190963
   5 H :    0.027714
   6 C :   -0.045115
   7 H :    0.031167
   8 H :    0.035604
   9 C :   -0.042009
  10 H :    0.035825
  11 H :    0.023807
  12 C :   -0.071059
  13 H :    0.032063
  14 H :    0.026060
  15 H :    0.032197
  16 S :    0.351196
  17 C :   -0.185926
  18 C :   -0.082469
  19 C :   -0.046597
  20 C :   -0.173387
  21 H :    0.038806
  22 C :   -0.030950
  23 H :    0.018274
  24 H :    0.040345
  25 C :   -0.043161
  26 H :    0.026617
  27 H :    0.018335
  28 C :   -0.068384
  29 H :    0.035064
  30 H :    0.020222
  31 H :    0.034732
  32 H :    0.034186
  33 H :    0.048372

  Mayer bond orders larger than 0.100000
B(  0-S ,  1-C ) :   1.1175 B(  0-S ,  4-C ) :   1.1465 B(  1-C ,  2-C ) :   1.6290
B(  1-C , 32-H ) :   0.9585 B(  2-C ,  3-C ) :   1.2187 B(  2-C ,  6-C ) :   1.0066
B(  3-C ,  4-C ) :   1.5588 B(  3-C ,  5-H ) :   0.9934 B(  4-C , 20-C ) :   1.0996
B(  6-C ,  7-H ) :   0.9268 B(  6-C ,  8-H ) :   0.9455 B(  6-C ,  9-C ) :   1.0830
B(  9-C , 10-H ) :   0.9481 B(  9-C , 11-H ) :   0.9508 B(  9-C , 12-C ) :   1.0774
B( 12-C , 13-H ) :   0.9697 B( 12-C , 14-H ) :   0.9746 B( 12-C , 15-H ) :   0.9726
B( 16-S , 17-C ) :   1.1463 B( 16-S , 20-C ) :   1.1138 B( 17-C , 18-C ) :   1.6259
B( 17-C , 20-C ) :   0.1041 B( 17-C , 33-H ) :   0.9489 B( 18-C , 19-C ) :   1.2315
B( 18-C , 21-H ) :   0.9739 B( 19-C , 20-C ) :   1.5559 B( 19-C , 22-C ) :   1.0459
B( 22-C , 23-H ) :   0.9336 B( 22-C , 24-H ) :   0.9251 B( 22-C , 25-C ) :   1.0773
B( 25-C , 26-H ) :   0.9440 B( 25-C , 27-H ) :   0.9445 B( 25-C , 28-C ) :   1.0892
B( 28-C , 29-H ) :   0.9696 B( 28-C , 30-H ) :   0.9675 B( 28-C , 31-H ) :   0.9669

Dispersion correction           -0.014068757
FINAL SINGLE POINT ENERGY     -1339.850491776549

DIPOLE MOMENT
-------------
                                X             Y             Z
Electronic contribution:      2.25869      -1.81556     -29.42354
Nuclear contribution   :     -2.54880       1.72574      30.24960
                        -----------------------------------------
Total Dipole Moment    :     -0.29011      -0.08982       0.82606
                        -----------------------------------------
Magnitude (a.u.)       :      0.88012
Magnitude (Debye)      :      2.23708

Rotational constants in cm-1:     0.018998     0.008250     0.006315
Rotational constants in MHz :   569.556420   247.333948   189.319334

                             ****ORCA TERMINATED NORMALLY****
TOTAL RUN TIME: 0 days 0 hours 0 minutes 34 seconds 157 msec
