                         Program Version 4.2.1 -  RELEASE  -
|  1> ! wB97X-D3 SP def2-SVP
|  2> %pal
|  3> nprocs 16
|  4> end
|  5>
|  6> * xyz 0 1
|  7> S 	 -103 	 56.0612 	 117.904
|  8> C 	 -102.797 	 57.3885 	 116.784
|  9> C 	 -103.982 	 58.0185 	 116.517
| 10> C 	 -105.014 	 57.5703 	 117.448
| 11> C 	 -104.603 	 56.6073 	 118.331
| 12> H 	 -106.021 	 57.8787 	 117.478
| 13> C 	 -104.199 	 59.0013 	 115.361
| 14> H 	 -103.831 	 58.6391 	 114.494
| 15> H 	 -103.558 	 59.8585 	 115.572
| 16> C 	 -105.672 	 59.4683 	 115.195
| 17> H 	 -105.976 	 59.8788 	 116.127
| 18> H 	 -105.669 	 60.3814 	 114.525
| 19> C 	 -106.689 	 58.4705 	 114.606
| 20> H 	 -106.585 	 57.5209 	 115.077
| 21> H 	 -107.737 	 58.7183 	 114.597
| 22> H 	 -106.346 	 58.1983 	 113.588
| 23> S 	 -104.238 	 56.1259 	 120.948
| 24> C 	 -105.582 	 55.553 	 121.882
| 25> C 	 -106.816 	 55.8211 	 121.299
| 26> C 	 -106.674 	 56.1358 	 119.925
| 27> C 	 -105.292 	 56.2824 	 119.598
| 28> H 	 -107.72 	 55.653 	 121.87
| 29> C 	 -107.827 	 56.5612 	 119.041
| 30> H 	 -108.689 	 55.863 	 119.212
| 31> H 	 -107.739 	 56.23 	 118.029
| 32> C 	 -108.338 	 58.0054 	 119.208
| 33> H 	 -107.508 	 58.6995 	 119.221
| 34> H 	 -108.926 	 58.1071 	 120.058
| 35> C 	 -109.202 	 58.4905 	 118.04
| 36> H 	 -109.764 	 57.604 	 117.784
| 37> H 	 -108.679 	 58.9617 	 117.177
| 38> H 	 -109.97 	 59.1173 	 118.498
| 39> H 	 -101.846 	 57.5318 	 116.335
| 40> H 	 -105.398 	 55.2658 	 122.86
| 41> *
| 42>
| 43>                          ****END OF INPUT****

CARTESIAN COORDINATES (ANGSTROEM)
---------------------------------
  S    -103.000000   56.061200  117.904000
  C    -102.797000   57.388500  116.784000
  C    -103.982000   58.018500  116.517000
  C    -105.014000   57.570300  117.448000
  C    -104.603000   56.607300  118.331000
  H    -106.021000   57.878700  117.478000
  C    -104.199000   59.001300  115.361000
  H    -103.831000   58.639100  114.494000
  H    -103.558000   59.858500  115.572000
  C    -105.672000   59.468300  115.195000
  H    -105.976000   59.878800  116.127000
  H    -105.669000   60.381400  114.525000
  C    -106.689000   58.470500  114.606000
  H    -106.585000   57.520900  115.077000
  H    -107.737000   58.718300  114.597000
  H    -106.346000   58.198300  113.588000
  S    -104.238000   56.125900  120.948000
  C    -105.582000   55.553000  121.882000
  C    -106.816000   55.821100  121.299000
  C    -106.674000   56.135800  119.925000
  C    -105.292000   56.282400  119.598000
  H    -107.720000   55.653000  121.870000
  C    -107.827000   56.561200  119.041000
  H    -108.689000   55.863000  119.212000
  H    -107.739000   56.230000  118.029000
  C    -108.338000   58.005400  119.208000
  H    -107.508000   58.699500  119.221000
  H    -108.926000   58.107100  120.058000
  C    -109.202000   58.490500  118.040000
  H    -109.764000   57.604000  117.784000
  H    -108.679000   58.961700  117.177000
  H    -109.970000   59.117300  118.498000
  H    -101.846000   57.531800  116.335000
  H    -105.398000   55.265800  122.860000

 Total Charge           Charge          ....    0
 Multiplicity           Mult            ....    1
 Number of Electrons    NEL             ....  134
 Basis Dimension        Dim             ....  322

ORBITAL ENERGIES
----------------

  NO   OCC          E(Eh)            E(eV)
   0   2.0000     -88.965925     -2420.8859
   1   2.0000     -88.961847     -2420.7749
   2   2.0000     -10.327200      -281.0174
   3   2.0000     -10.325195      -280.9628
   4   2.0000     -10.309237      -280.5286
   5   2.0000     -10.307275      -280.4752
   6   2.0000     -10.304964      -280.4123
   7   2.0000     -10.304072      -280.3880
   8   2.0000     -10.294571      -280.1295
   9   2.0000     -10.292810      -280.0816
  10   2.0000     -10.292640      -280.0770
  11   2.0000     -10.290033      -280.0060
  12   2.0000     -10.288898      -279.9752
  13   2.0000     -10.281731      -279.7801
  14   2.0000     -10.279949      -279.7316
  15   2.0000     -10.278612      -279.6952
  16   2.0000      -8.081553      -219.9102
  17   2.0000      -8.076969      -219.7855
  18   2.0000      -6.039727      -164.3493
  19   2.0000      -6.036052      -164.2493
  20   2.0000      -6.035473      -164.2336
  21   2.0000      -6.032488      -164.1523
  22   2.0000      -6.031521      -164.1260
  23   2.0000      -6.027617      -164.0198
  24   2.0000      -1.007392       -27.4125
  25   2.0000      -0.984459       -26.7885
  26   2.0000      -0.912971       -24.8432
  27   2.0000      -0.909364       -24.7450
  28   2.0000      -0.868165       -23.6240
  29   2.0000      -0.856819       -23.3152
  30   2.0000      -0.840449       -22.8698
  31   2.0000      -0.816889       -22.2287
  32   2.0000      -0.787406       -21.4264
  33   2.0000      -0.773454       -21.0468
  34   2.0000      -0.709752       -19.3133
  35   2.0000      -0.702621       -19.1193
  36   2.0000      -0.690686       -18.7945
  37   2.0000      -0.664199       -18.0738
  38   2.0000      -0.644055       -17.5256
  39   2.0000      -0.624944       -17.0056
  40   2.0000      -0.603368       -16.4185
  41   2.0000      -0.573808       -15.6141
  42   2.0000      -0.566026       -15.4024
  43   2.0000      -0.551192       -14.9987
  44   2.0000      -0.531403       -14.4602
  45   2.0000      -0.526357       -14.3229
  46   2.0000      -0.521210       -14.1828
  47   2.0000      -0.510772       -13.8988
  48   2.0000      -0.507418       -13.8075
  49   2.0000      -0.500169       -13.6103
  50   2.0000      -0.487147       -13.2559
  51   2.0000      -0.485986       -13.2243
  52   2.0000      -0.477530       -12.9942
  53   2.0000      -0.464550       -12.6410
  54   2.0000      -0.457678       -12.4541
  55   2.0000      -0.453164       -12.3312
  56   2.0000      -0.442712       -12.0468
  57   2.0000      -0.437557       -11.9065
  58   2.0000      -0.434572       -11.8253
  59   2.0000      -0.429475       -11.6866
  60   2.0000      -0.425961       -11.5910
  61   2.0000      -0.415129       -11.2962
  62   2.0000      -0.410338       -11.1659
  63   2.0000      -0.348056        -9.4711
  64   2.0000      -0.333005        -9.0615
  65   2.0000      -0.323029        -8.7901
  66   2.0000      -0.282995        -7.7007
  67   0.0000       0.022983         0.6254
  68   0.0000       0.078198         2.1279
  69   0.0000       0.105667         2.8754
  70   0.0000       0.111383         3.0309
  71   0.0000       0.122510         3.3337

MULLIKEN ATOMIC CHARGES
-----------------------
   0 S :    0.102676
   1 C :   -0.145344
   2 C :   -0.067171
   3 C :    0.029694
   4 C :   -0.117777
   5 H :   -0.025258
   6 C :    0.128002
   7 H :    0.002880
   8 H :    0.035025
   9 C :   -0.097905
  10 H :    0.018676
  11 H :    0.032788
  12 C :   -0.033905
  13 H :    0.020707
  14 H :    0.047979
  15 H :    0.023153
  16 S :    0.122788
  17 C :   -0.085052
  18 C :   -0.025075
  19 C :   -0.023232
  20 C :   -0.157095
  21 H :    0.022439
  22 C :    0.027231
  23 H :    0.013554
  24 H :    0.018247
  25 C :   -0.027625
  26 H :    0.032184
  27 H :    0.015859
  28 C :   -0.062339
  29 H :    0.016320
  30 H :    0.062072
  31 H :    0.028775
  32 H :    0.038200
  33 H :    0.028530
Sum of atomic charges:    0.0000000

LOEWDIN ATOMIC CHARGES
----------------------
   0 S :    0.395123
   1 C :   -0.187881
   2 C :   -0.056701
   3 C :   -0.059998
   4 C :   -0.196046
   5 H :    0.020596
   6 C :   -0.018142
   7 H :    0.014397
   8 H :    0.041335
   9 C :   -0.041669
  10 H :    0.014609
  11 H :    0.031356
  12 C :   -0.069770
  13 H :    0.020584
  14 H :    0.026909
  15 H :    0.030789
  16 S :    0.435938
  17 C :   -0.182681
  18 C :   -0.061079
  19 C :   -0.059916
  20 C :   -0.196882
  21 H :    0.033924
  22 C :   -0.049489
  23 H :    0.035802
  24 H :    0.027432
  25 C :   -0.031765
  26 H :    0.022768
  27 H :    0.017428
  28 C :   -0.066253
  29 H :    0.022020
  30 H :    0.030628
  31 H :    0.029935
  32 H :    0.019458
  33 H :    0.007241

  Mayer bond orders larger than 0.100000
B(  0-S ,  1-C ) :   1.1357 B(  0-S ,  4-C ) :   1.1448 B(  1-C ,  2-C ) :   1.6126
B(  1-C , 32-H ) :   0.9813 B(  2-C ,  3-C ) :   1.2299 B(  2-C ,  6-C ) :   0.9953
B(  3-C ,  4-C ) :   1.5706 B(  3-C ,  5-H ) :   0.9951 B(  4-C , 20-C ) :   1.0404
B(  6-C ,  7-H ) :   0.9409 B(  6-C ,  8-H ) :   0.9301 B(  6-C ,  9-C ) :   1.0892
B(  9-C , 10-H ) :   0.9513 B(  9-C , 11-H ) :   0.9555 B(  9-C , 12-C ) :   1.0666
B( 12-C , 13-H ) :   0.9752 B( 12-C , 14-H ) :   0.9746 B( 12-C , 15-H ) :   0.9669
B( 16-S , 17-C ) :   1.1691 B( 16-S , 20-C ) :   1.1816 B( 17-C , 18-C ) :   1.5708
B( 17-C , 20-C ) :   0.1022 B( 17-C , 33-H ) :   0.9790 B( 18-C , 19-C ) :   1.2623
B( 18-C , 21-H ) :   0.9937 B( 19-C , 20-C ) :   1.5380 B( 19-C , 22-C ) :   1.0690
B( 22-C , 23-H ) :   0.9136 B( 22-C , 24-H ) :   0.9314 B( 22-C , 25-C ) :   1.0494
B( 25-C , 26-H ) :   0.9612 B( 25-C , 27-H ) :   0.9549 B( 25-C , 28-C ) :   1.0785
B( 28-C , 29-H ) :   0.9709 B( 28-C , 30-H ) :   0.9748 B( 28-C , 31-H ) :   0.9730

Dispersion correction           -0.015628411
FINAL SINGLE POINT ENERGY     -1339.853019431353

DIPOLE MOMENT
-------------
                                X             Y             Z
Electronic contribution:     23.14851     -14.96607      16.99084
Nuclear contribution   :    -23.61083      15.38170     -17.23257
                        -----------------------------------------
Total Dipole Moment    :     -0.46233       0.41563      -0.24174
                        -----------------------------------------
Magnitude (a.u.)       :      0.66703
Magnitude (Debye)      :      1.69545

Rotational constants in cm-1:     0.016869     0.011375     0.007191
Rotational constants in MHz :   505.719251   341.011344   215.586168

                             ****ORCA TERMINATED NORMALLY****
TOTAL RUN TIME: 0 days 0 hours 0 minutes 37 seconds 55 msec
