                         Program Version 4.2.1 -  RELEASE  -
|  1> ! wB97X-D3 SP def2-SVP
|  2> %pal
|  3> nprocs 16
|  4> end
|  5>
|  6> * xyz 0 1
|  7> S 	 45.6403 	 24.1803 	 90.6656
|  8> C 	 46.1275 	 23.2542 	 91.9893
|  9> C 	 45.1947 	 23.2649 	 92.9872
| 10> C 	 44.2053 	 24.2052 	 92.7982
| 11> C 	 44.2223 	 24.8008 	 91.4938
| 12> H 	 43.3873 	 24.4754 	 93.4511
| 13> C 	 45.4286 	 22.5793 	 94.2959
| 14> H 	 46.5057 	 22.2944 	 94.297
| 15> H 	 44.8548 	 21.6177 	 94.2413
| 16> C 	 45.0262 	 23.2671 	 95.6081
| 17> H 	 45.4469 	 24.2774 	 95.725
| 18> H 	 43.9436 	 23.4795 	 95.6841
| 19> C 	 45.48 	 22.4928 	 96.8208
| 20> H 	 45.2789 	 21.4144 	 96.7771
| 21> H 	 46.5845 	 22.6032 	 96.9256
| 22> H 	 45.0232 	 22.9154 	 97.7191
| 23> S 	 43.8936 	 27.2546 	 90.2883
| 24> C 	 42.2159 	 27.9294 	 89.9789
| 25> C 	 41.2641 	 27.0468 	 90.3207
| 26> C 	 41.8391 	 25.8667 	 90.9726
| 27> C 	 43.2136 	 25.7715 	 90.9204
| 28> H 	 40.2378 	 27.3302 	 90.2965
| 29> C 	 40.9604 	 24.8022 	 91.6084
| 30> H 	 41.5685 	 24.1353 	 92.2526
| 31> H 	 40.4318 	 24.2922 	 90.8179
| 32> C 	 39.8435 	 25.3985 	 92.4386
| 33> H 	 39.4391 	 26.3153 	 92.061
| 34> H 	 40.257 	 25.6351 	 93.3543
| 35> C 	 38.6012 	 24.5176 	 92.6975
| 36> H 	 38.0359 	 24.4521 	 91.7715
| 37> H 	 38.0037 	 24.8938 	 93.4932
| 38> H 	 38.9199 	 23.5062 	 92.8733
| 39> H 	 47.1124 	 22.7497 	 92.0446
| 40> H 	 42.0524 	 28.9914 	 89.7705
| 41> *
| 42>
| 43>                          ****END OF INPUT****

CARTESIAN COORDINATES (ANGSTROEM)
---------------------------------
  S     45.640300   24.180300   90.665600
  C     46.127500   23.254200   91.989300
  C     45.194700   23.264900   92.987200
  C     44.205300   24.205200   92.798200
  C     44.222300   24.800800   91.493800
  H     43.387300   24.475400   93.451100
  C     45.428600   22.579300   94.295900
  H     46.505700   22.294400   94.297000
  H     44.854800   21.617700   94.241300
  C     45.026200   23.267100   95.608100
  H     45.446900   24.277400   95.725000
  H     43.943600   23.479500   95.684100
  C     45.480000   22.492800   96.820800
  H     45.278900   21.414400   96.777100
  H     46.584500   22.603200   96.925600
  H     45.023200   22.915400   97.719100
  S     43.893600   27.254600   90.288300
  C     42.215900   27.929400   89.978900
  C     41.264100   27.046800   90.320700
  C     41.839100   25.866700   90.972600
  C     43.213600   25.771500   90.920400
  H     40.237800   27.330200   90.296500
  C     40.960400   24.802200   91.608400
  H     41.568500   24.135300   92.252600
  H     40.431800   24.292200   90.817900
  C     39.843500   25.398500   92.438600
  H     39.439100   26.315300   92.061000
  H     40.257000   25.635100   93.354300
  C     38.601200   24.517600   92.697500
  H     38.035900   24.452100   91.771500
  H     38.003700   24.893800   93.493200
  H     38.919900   23.506200   92.873300
  H     47.112400   22.749700   92.044600
  H     42.052400   28.991400   89.770500

 Total Charge           Charge          ....    0
 Multiplicity           Mult            ....    1
 Number of Electrons    NEL             ....  134
 Basis Dimension        Dim             ....  322

ORBITAL ENERGIES
----------------

  NO   OCC          E(Eh)            E(eV)
   0   2.0000     -88.969202     -2420.9751
   1   2.0000     -88.959142     -2420.7013
   2   2.0000     -10.337091      -281.2865
   3   2.0000     -10.331901      -281.1453
   4   2.0000     -10.323410      -280.9143
   5   2.0000     -10.309713      -280.5416
   6   2.0000     -10.308138      -280.4987
   7   2.0000     -10.297408      -280.2067
   8   2.0000     -10.295701      -280.1603
   9   2.0000     -10.293922      -280.1118
  10   2.0000     -10.292969      -280.0859
  11   2.0000     -10.289839      -280.0008
  12   2.0000     -10.289370      -279.9880
  13   2.0000     -10.281003      -279.7603
  14   2.0000     -10.274017      -279.5702
  15   2.0000     -10.273826      -279.5650
  16   2.0000      -8.084515      -219.9908
  17   2.0000      -8.073281      -219.6851
  18   2.0000      -6.042785      -164.4325
  19   2.0000      -6.038722      -164.3220
  20   2.0000      -6.035708      -164.2400
  21   2.0000      -6.032017      -164.1395
  22   2.0000      -6.027980      -164.0297
  23   2.0000      -6.023700      -163.9132
  24   2.0000      -1.008068       -27.4309
  25   2.0000      -0.985661       -26.8212
  26   2.0000      -0.913971       -24.8704
  27   2.0000      -0.911278       -24.7971
  28   2.0000      -0.871849       -23.7242
  29   2.0000      -0.856149       -23.2970
  30   2.0000      -0.843741       -22.9594
  31   2.0000      -0.820975       -22.3399
  32   2.0000      -0.778341       -21.1797
  33   2.0000      -0.769244       -20.9322
  34   2.0000      -0.710232       -19.3264
  35   2.0000      -0.700108       -19.0509
  36   2.0000      -0.688199       -18.7268
  37   2.0000      -0.661245       -17.9934
  38   2.0000      -0.642418       -17.4811
  39   2.0000      -0.620876       -16.8949
  40   2.0000      -0.598242       -16.2790
  41   2.0000      -0.576178       -15.6786
  42   2.0000      -0.572196       -15.5703
  43   2.0000      -0.562714       -15.3122
  44   2.0000      -0.532105       -14.4793
  45   2.0000      -0.529118       -14.3980
  46   2.0000      -0.513431       -13.9712
  47   2.0000      -0.508651       -13.8411
  48   2.0000      -0.507493       -13.8096
  49   2.0000      -0.504612       -13.7312
  50   2.0000      -0.493652       -13.4330
  51   2.0000      -0.480087       -13.0638
  52   2.0000      -0.468552       -12.7500
  53   2.0000      -0.465335       -12.6624
  54   2.0000      -0.464759       -12.6467
  55   2.0000      -0.449917       -12.2429
  56   2.0000      -0.444687       -12.1005
  57   2.0000      -0.436104       -11.8670
  58   2.0000      -0.433381       -11.7929
  59   2.0000      -0.425359       -11.5746
  60   2.0000      -0.422749       -11.5036
  61   2.0000      -0.414609       -11.2821
  62   2.0000      -0.411196       -11.1892
  63   2.0000      -0.351871        -9.5749
  64   2.0000      -0.334984        -9.1154
  65   2.0000      -0.323310        -8.7977
  66   2.0000      -0.292398        -7.9566
  67   0.0000       0.030256         0.8233
  68   0.0000       0.071423         1.9435
  69   0.0000       0.109337         2.9752
  70   0.0000       0.125657         3.4193
  71   0.0000       0.126431         3.4404

MULLIKEN ATOMIC CHARGES
-----------------------
   0 S :    0.136063
   1 C :   -0.152270
   2 C :   -0.047982
   3 C :    0.014351
   4 C :   -0.163173
   5 H :    0.013555
   6 C :    0.046636
   7 H :    0.020570
   8 H :    0.042514
   9 C :   -0.088974
  10 H :    0.032790
  11 H :    0.030894
  12 C :   -0.051983
  13 H :    0.031811
  14 H :    0.035397
  15 H :    0.033748
  16 S :    0.067183
  17 C :   -0.100751
  18 C :    0.005914
  19 C :   -0.083779
  20 C :   -0.123581
  21 H :    0.020492
  22 C :    0.111060
  23 H :    0.028006
  24 H :    0.024810
  25 C :   -0.087545
  26 H :    0.013549
  27 H :    0.003009
  28 C :   -0.028571
  29 H :    0.025591
  30 H :    0.036275
  31 H :    0.019598
  32 H :    0.065045
  33 H :    0.069748
Sum of atomic charges:    0.0000000

LOEWDIN ATOMIC CHARGES
----------------------
   0 S :    0.444492
   1 C :   -0.223373
   2 C :   -0.078471
   3 C :   -0.063355
   4 C :   -0.198626
   5 H :    0.028689
   6 C :   -0.034908
   7 H :    0.032330
   8 H :    0.039789
   9 C :   -0.050807
  10 H :    0.028102
  11 H :    0.023553
  12 C :   -0.065745
  13 H :    0.023734
  14 H :    0.028782
  15 H :    0.027867
  16 S :    0.358092
  17 C :   -0.149552
  18 C :   -0.065361
  19 C :   -0.051963
  20 C :   -0.196137
  21 H :    0.031046
  22 C :   -0.026917
  23 H :    0.032844
  24 H :    0.030816
  25 C :   -0.037680
  26 H :    0.016739
  27 H :    0.011381
  28 C :   -0.056210
  29 H :    0.023453
  30 H :    0.024597
  31 H :    0.020393
  32 H :    0.037793
  33 H :    0.034614

  Mayer bond orders larger than 0.100000
B(  0-S ,  1-C ) :   1.1763 B(  0-S ,  4-C ) :   1.1907 B(  1-C ,  2-C ) :   1.5464
B(  1-C ,  4-C ) :   0.1109 B(  1-C , 32-H ) :   0.9624 B(  2-C ,  3-C ) :   1.3129
B(  2-C ,  6-C ) :   1.0232 B(  3-C ,  4-C ) :   1.5017 B(  3-C ,  5-H ) :   0.9895
B(  4-C , 20-C ) :   1.0087 B(  6-C ,  7-H ) :   0.9508 B(  6-C ,  8-H ) :   0.9166
B(  6-C ,  9-C ) :   1.0753 B(  9-C , 10-H ) :   0.9544 B(  9-C , 11-H ) :   0.9450
B(  9-C , 12-C ) :   1.0899 B( 12-C , 13-H ) :   0.9748 B( 12-C , 14-H ) :   0.9749
B( 12-C , 15-H ) :   0.9719 B( 16-S , 17-C ) :   1.1261 B( 16-S , 20-C ) :   1.1173
B( 17-C , 18-C ) :   1.6680 B( 17-C , 33-H ) :   0.9629 B( 18-C , 19-C ) :   1.1844
B( 18-C , 21-H ) :   0.9876 B( 19-C , 20-C ) :   1.6572 B( 19-C , 22-C ) :   1.0455
B( 22-C , 23-H ) :   0.9351 B( 22-C , 24-H ) :   0.9338 B( 22-C , 25-C ) :   1.0477
B( 25-C , 26-H ) :   0.9596 B( 25-C , 27-H ) :   0.9527 B( 25-C , 28-C ) :   1.0853
B( 28-C , 29-H ) :   0.9752 B( 28-C , 30-H ) :   0.9746 B( 28-C , 31-H ) :   0.9751

Dispersion correction           -0.013370614
FINAL SINGLE POINT ENERGY     -1339.873708532130

DIPOLE MOMENT
-------------
                                X             Y             Z
Electronic contribution:     14.60408      11.87883     -24.41577
Nuclear contribution   :    -15.04643     -11.98307      25.04249
                        -----------------------------------------
Total Dipole Moment    :     -0.44235      -0.10423       0.62672
                        -----------------------------------------
Magnitude (a.u.)       :      0.77415
Magnitude (Debye)      :      1.96774

Rotational constants in cm-1:     0.016231     0.008599     0.006275
Rotational constants in MHz :   486.604022   257.777588   188.108150

                             ****ORCA TERMINATED NORMALLY****
TOTAL RUN TIME: 0 days 0 hours 0 minutes 29 seconds 732 msec
