                         Program Version 4.2.1 -  RELEASE  -
|  1> ! wB97X-D3 SP def2-SVP
|  2> %pal
|  3> nprocs 16
|  4> end
|  5>
|  6> * xyz 0 1
|  7> S 	 -48.2819 	 38.7934 	 82.9215
|  8> C 	 -48.0811 	 37.9915 	 81.4116
|  9> C 	 -48.3649 	 38.8069 	 80.3405
| 10> C 	 -49.1053 	 39.9763 	 80.7495
| 11> C 	 -49.3073 	 40.0469 	 82.1261
| 12> H 	 -49.3725 	 40.8774 	 80.2046
| 13> C 	 -47.9526 	 38.6349 	 78.8783
| 14> H 	 -46.8934 	 38.9975 	 78.7486
| 15> H 	 -48.3837 	 39.5012 	 78.3032
| 16> C 	 -48.1658 	 37.2606 	 78.202
| 17> H 	 -47.3912 	 37.3154 	 77.4392
| 18> H 	 -47.7796 	 36.4144 	 78.7917
| 19> C 	 -49.6 	 36.9075 	 77.6284
| 20> H 	 -50.368 	 36.9372 	 78.4418
| 21> H 	 -49.9139 	 37.6259 	 76.8151
| 22> H 	 -49.5794 	 35.9316 	 77.2634
| 23> S 	 -48.8431 	 42.0357 	 84.0196
| 24> C 	 -50.1673 	 43.0873 	 84.3674
| 25> C 	 -51.2028 	 43.0088 	 83.4605
| 26> C 	 -51.0629 	 41.9259 	 82.5477
| 27> C 	 -49.8825 	 41.23 	 82.7863
| 28> H 	 -52.0491 	 43.699 	 83.496
| 29> C 	 -52.106 	 41.5759 	 81.5031
| 30> H 	 -51.5905 	 40.9761 	 80.744
| 31> H 	 -52.3869 	 42.4761 	 80.8833
| 32> C 	 -53.3012 	 40.8819 	 82.0792
| 33> H 	 -52.9792 	 39.9275 	 82.5675
| 34> H 	 -53.9775 	 40.661 	 81.2479
| 35> C 	 -54.1897 	 41.6237 	 82.9943
| 36> H 	 -54.6837 	 42.4539 	 82.4743
| 37> H 	 -53.5177 	 41.9463 	 83.8143
| 38> H 	 -54.8772 	 41.0287 	 83.5418
| 39> H 	 -47.3863 	 37.1877 	 81.3912
| 40> H 	 -50.1716 	 43.8574 	 85.0923
| 41> *
| 42>
| 43>                          ****END OF INPUT****

CARTESIAN COORDINATES (ANGSTROEM)
---------------------------------
  S    -48.281900   38.793400   82.921500
  C    -48.081100   37.991500   81.411600
  C    -48.364900   38.806900   80.340500
  C    -49.105300   39.976300   80.749500
  C    -49.307300   40.046900   82.126100
  H    -49.372500   40.877400   80.204600
  C    -47.952600   38.634900   78.878300
  H    -46.893400   38.997500   78.748600
  H    -48.383700   39.501200   78.303200
  C    -48.165800   37.260600   78.202000
  H    -47.391200   37.315400   77.439200
  H    -47.779600   36.414400   78.791700
  C    -49.600000   36.907500   77.628400
  H    -50.368000   36.937200   78.441800
  H    -49.913900   37.625900   76.815100
  H    -49.579400   35.931600   77.263400
  S    -48.843100   42.035700   84.019600
  C    -50.167300   43.087300   84.367400
  C    -51.202800   43.008800   83.460500
  C    -51.062900   41.925900   82.547700
  C    -49.882500   41.230000   82.786300
  H    -52.049100   43.699000   83.496000
  C    -52.106000   41.575900   81.503100
  H    -51.590500   40.976100   80.744000
  H    -52.386900   42.476100   80.883300
  C    -53.301200   40.881900   82.079200
  H    -52.979200   39.927500   82.567500
  H    -53.977500   40.661000   81.247900
  C    -54.189700   41.623700   82.994300
  H    -54.683700   42.453900   82.474300
  H    -53.517700   41.946300   83.814300
  H    -54.877200   41.028700   83.541800
  H    -47.386300   37.187700   81.391200
  H    -50.171600   43.857400   85.092300

 Total Charge           Charge          ....    0
 Multiplicity           Mult            ....    1
 Number of Electrons    NEL             ....  134
 Basis Dimension        Dim             ....  322

ORBITAL ENERGIES
----------------

  NO   OCC          E(Eh)            E(eV)
   0   2.0000     -88.967109     -2420.9181
   1   2.0000     -88.965692     -2420.8796
   2   2.0000     -10.331528      -281.1352
   3   2.0000     -10.329817      -281.0886
   4   2.0000     -10.311312      -280.5851
   5   2.0000     -10.309935      -280.5476
   6   2.0000     -10.304824      -280.4085
   7   2.0000     -10.302628      -280.3488
   8   2.0000     -10.302331      -280.3407
   9   2.0000     -10.295833      -280.1639
  10   2.0000     -10.294843      -280.1369
  11   2.0000     -10.293256      -280.0937
  12   2.0000     -10.291815      -280.0545
  13   2.0000     -10.285306      -279.8774
  14   2.0000     -10.279395      -279.7166
  15   2.0000     -10.268973      -279.4330
  16   2.0000      -8.081484      -219.9084
  17   2.0000      -8.080187      -219.8731
  18   2.0000      -6.039912      -164.3544
  19   2.0000      -6.038739      -164.3224
  20   2.0000      -6.036302      -164.2561
  21   2.0000      -6.035000      -164.2207
  22   2.0000      -6.032103      -164.1419
  23   2.0000      -6.030643      -164.1021
  24   2.0000      -1.002373       -27.2760
  25   2.0000      -0.982641       -26.7390
  26   2.0000      -0.916803       -24.9475
  27   2.0000      -0.900711       -24.5096
  28   2.0000      -0.868330       -23.6285
  29   2.0000      -0.852501       -23.1977
  30   2.0000      -0.844248       -22.9732
  31   2.0000      -0.811166       -22.0730
  32   2.0000      -0.786914       -21.4130
  33   2.0000      -0.773775       -21.0555
  34   2.0000      -0.708535       -19.2802
  35   2.0000      -0.699644       -19.0383
  36   2.0000      -0.682955       -18.5841
  37   2.0000      -0.661172       -17.9914
  38   2.0000      -0.644204       -17.5297
  39   2.0000      -0.607038       -16.5184
  40   2.0000      -0.596207       -16.2236
  41   2.0000      -0.568232       -15.4624
  42   2.0000      -0.559437       -15.2230
  43   2.0000      -0.547011       -14.8849
  44   2.0000      -0.544995       -14.8301
  45   2.0000      -0.524041       -14.2599
  46   2.0000      -0.515627       -14.0309
  47   2.0000      -0.512931       -13.9576
  48   2.0000      -0.496668       -13.5150
  49   2.0000      -0.489124       -13.3097
  50   2.0000      -0.487396       -13.2627
  51   2.0000      -0.480368       -13.0715
  52   2.0000      -0.476340       -12.9619
  53   2.0000      -0.469118       -12.7653
  54   2.0000      -0.461214       -12.5503
  55   2.0000      -0.447557       -12.1786
  56   2.0000      -0.446333       -12.1454
  57   2.0000      -0.441603       -12.0166
  58   2.0000      -0.432378       -11.7656
  59   2.0000      -0.422093       -11.4857
  60   2.0000      -0.417361       -11.3570
  61   2.0000      -0.412023       -11.2117
  62   2.0000      -0.400370       -10.8946
  63   2.0000      -0.348575        -9.4852
  64   2.0000      -0.334443        -9.1007
  65   2.0000      -0.323221        -8.7953
  66   2.0000      -0.287140        -7.8135
  67   0.0000       0.022124         0.6020
  68   0.0000       0.064384         1.7520
  69   0.0000       0.097463         2.6521
  70   0.0000       0.117458         3.1962
  71   0.0000       0.132493         3.6053

MULLIKEN ATOMIC CHARGES
-----------------------
   0 S :    0.097157
   1 C :   -0.098877
   2 C :   -0.070917
   3 C :    0.005716
   4 C :   -0.146101
   5 H :    0.036107
   6 C :    0.025056
   7 H :    0.042589
   8 H :    0.018146
   9 C :   -0.071479
  10 H :    0.019196
  11 H :    0.030614
  12 C :   -0.037165
  13 H :    0.046300
  14 H :    0.042186
  15 H :    0.027980
  16 S :    0.106420
  17 C :   -0.061467
  18 C :   -0.049879
  19 C :   -0.057589
  20 C :   -0.176184
  21 H :    0.026160
  22 C :    0.084818
  23 H :    0.011195
  24 H :    0.031057
  25 C :   -0.067998
  26 H :    0.038229
  27 H :    0.023285
  28 C :   -0.029734
  29 H :    0.031231
  30 H :    0.021965
  31 H :    0.024365
  32 H :    0.042104
  33 H :    0.035512
Sum of atomic charges:   -0.0000000

LOEWDIN ATOMIC CHARGES
----------------------
   0 S :    0.393387
   1 C :   -0.199498
   2 C :   -0.063580
   3 C :   -0.061992
   4 C :   -0.182177
   5 H :    0.034701
   6 C :   -0.044838
   7 H :    0.040874
   8 H :    0.034547
   9 C :   -0.046292
  10 H :    0.025137
  11 H :    0.026631
  12 C :   -0.061567
  13 H :    0.032933
  14 H :    0.031807
  15 H :    0.017691
  16 S :    0.389734
  17 C :   -0.184696
  18 C :   -0.071930
  19 C :   -0.057303
  20 C :   -0.177915
  21 H :    0.033407
  22 C :   -0.036689
  23 H :    0.031384
  24 H :    0.036519
  25 C :   -0.046640
  26 H :    0.033426
  27 H :    0.024224
  28 C :   -0.067304
  29 H :    0.025071
  30 H :    0.027938
  31 H :    0.024051
  32 H :    0.019095
  33 H :    0.019866

  Mayer bond orders larger than 0.100000
B(  0-S ,  1-C ) :   1.1426 B(  0-S ,  4-C ) :   1.1419 B(  1-C ,  2-C ) :   1.6115
B(  1-C , 32-H ) :   0.9689 B(  2-C ,  3-C ) :   1.2394 B(  2-C ,  6-C ) :   1.0177
B(  3-C ,  4-C ) :   1.5715 B(  3-C ,  5-H ) :   0.9788 B(  4-C , 20-C ) :   1.0609
B(  6-C ,  7-H ) :   0.9359 B(  6-C ,  8-H ) :   0.9426 B(  6-C ,  9-C ) :   1.0613
B(  9-C , 10-H ) :   0.9530 B(  9-C , 11-H ) :   0.9585 B(  9-C , 12-C ) :   1.0673
B( 12-C , 13-H ) :   0.9777 B( 12-C , 14-H ) :   0.9765 B( 12-C , 15-H ) :   0.9752
B( 16-S , 17-C ) :   1.1449 B( 16-S , 20-C ) :   1.1313 B( 17-C , 18-C ) :   1.6258
B( 17-C , 33-H ) :   0.9674 B( 18-C , 19-C ) :   1.2309 B( 18-C , 21-H ) :   0.9832
B( 19-C , 20-C ) :   1.6176 B( 19-C , 22-C ) :   1.0338 B( 22-C , 23-H ) :   0.9188
B( 22-C , 24-H ) :   0.9325 B( 22-C , 25-C ) :   1.0838 B( 25-C , 26-H ) :   0.9473
B( 25-C , 27-H ) :   0.9500 B( 25-C , 28-C ) :   1.0984 B( 28-C , 29-H ) :   0.9722
B( 28-C , 30-H ) :   0.9625 B( 28-C , 31-H ) :   0.9655

Dispersion correction           -0.014085540
FINAL SINGLE POINT ENERGY     -1339.860682358155

DIPOLE MOMENT
-------------
                                X             Y             Z
Electronic contribution:     15.76976       6.23549      20.12747
Nuclear contribution   :    -15.84622      -6.10064     -20.75205
                        -----------------------------------------
Total Dipole Moment    :     -0.07646       0.13485      -0.62458
                        -----------------------------------------
Magnitude (a.u.)       :      0.64353
Magnitude (Debye)      :      1.63571

Rotational constants in cm-1:     0.020099     0.008068     0.006397
Rotational constants in MHz :   602.544876   241.885258   191.777755

                             ****ORCA TERMINATED NORMALLY****
TOTAL RUN TIME: 0 days 0 hours 0 minutes 29 seconds 752 msec
