                         Program Version 4.2.1 -  RELEASE  -
|  1> ! wB97X-D3 SP def2-SVP
|  2> %pal
|  3> nprocs 16
|  4> end
|  5>
|  6> * xyz 0 1
|  7> S 	 2.27738 	 21.2061 	 55.9849
|  8> C 	 3.84161 	 22.0679 	 55.7351
|  9> C 	 4.55684 	 22.2136 	 56.9282
| 10> C 	 3.90456 	 21.5482 	 57.9705
| 11> C 	 2.73195 	 20.9681 	 57.6483
| 12> H 	 4.18644 	 21.5264 	 58.9429
| 13> C 	 5.9681 	 22.8157 	 57.0581
| 14> H 	 5.87325 	 23.4664 	 57.9509
| 15> H 	 6.18462 	 23.5568 	 56.2218
| 16> C 	 7.08868 	 21.814 	 57.2987
| 17> H 	 6.92126 	 21.0194 	 58.1135
| 18> H 	 7.34714 	 21.2971 	 56.3267
| 19> C 	 8.40565 	 22.6542 	 57.6837
| 20> H 	 9.12116 	 22.0181 	 58.1774
| 21> H 	 8.81583 	 22.9306 	 56.6984
| 22> H 	 8.17016 	 23.539 	 58.2903
| 23> S 	 1.43317 	 18.556 	 57.8099
| 24> C 	 0.146156 	 18.3512 	 58.9861
| 25> C 	 0.0957469 	 19.4437 	 59.8772
| 26> C 	 1.07117 	 20.4587 	 59.5953
| 27> C 	 1.78931 	 20.1887 	 58.398
| 28> H 	 -0.661262 	 19.5784 	 60.661
| 29> C 	 1.21274 	 21.7487 	 60.3422
| 30> H 	 0.636911 	 22.5649 	 59.9922
| 31> H 	 2.24496 	 22.1117 	 60.2008
| 32> C 	 0.9209 	 21.7673 	 61.8765
| 33> H 	 -0.226417 	 21.6956 	 62.0957
| 34> H 	 0.992087 	 22.7767 	 62.2806
| 35> C 	 1.86948 	 20.7836 	 62.634
| 36> H 	 2.79619 	 21.3165 	 62.6314
| 37> H 	 2.09631 	 19.8325 	 62.1372
| 38> H 	 1.62973 	 20.514 	 63.6548
| 39> H 	 4.08039 	 22.5367 	 54.7814
| 40> H 	 -0.578852 	 17.5071 	 59.0275
| 41> *
| 42>
| 43>                          ****END OF INPUT****

CARTESIAN COORDINATES (ANGSTROEM)
---------------------------------
  S      2.277380   21.206100   55.984900
  C      3.841610   22.067900   55.735100
  C      4.556840   22.213600   56.928200
  C      3.904560   21.548200   57.970500
  C      2.731950   20.968100   57.648300
  H      4.186440   21.526400   58.942900
  C      5.968100   22.815700   57.058100
  H      5.873250   23.466400   57.950900
  H      6.184620   23.556800   56.221800
  C      7.088680   21.814000   57.298700
  H      6.921260   21.019400   58.113500
  H      7.347140   21.297100   56.326700
  C      8.405650   22.654200   57.683700
  H      9.121160   22.018100   58.177400
  H      8.815830   22.930600   56.698400
  H      8.170160   23.539000   58.290300
  S      1.433170   18.556000   57.809900
  C      0.146156   18.351200   58.986100
  C      0.095747   19.443700   59.877200
  C      1.071170   20.458700   59.595300
  C      1.789310   20.188700   58.398000
  H     -0.661262   19.578400   60.661000
  C      1.212740   21.748700   60.342200
  H      0.636911   22.564900   59.992200
  H      2.244960   22.111700   60.200800
  C      0.920900   21.767300   61.876500
  H     -0.226417   21.695600   62.095700
  H      0.992087   22.776700   62.280600
  C      1.869480   20.783600   62.634000
  H      2.796190   21.316500   62.631400
  H      2.096310   19.832500   62.137200
  H      1.629730   20.514000   63.654800
  H      4.080390   22.536700   54.781400
  H     -0.578852   17.507100   59.027500

 Total Charge           Charge          ....    0
 Multiplicity           Mult            ....    1
 Number of Electrons    NEL             ....  134
 Basis Dimension        Dim             ....  322

ORBITAL ENERGIES
----------------

  NO   OCC          E(Eh)            E(eV)
   0   2.0000     -88.968041     -2420.9435
   1   2.0000     -88.963660     -2420.8243
   2   2.0000     -10.326479      -280.9978
   3   2.0000     -10.323232      -280.9094
   4   2.0000     -10.322356      -280.8856
   5   2.0000     -10.316808      -280.7346
   6   2.0000     -10.306839      -280.4634
   7   2.0000     -10.304175      -280.3909
   8   2.0000     -10.302896      -280.3561
   9   2.0000     -10.302351      -280.3412
  10   2.0000     -10.299849      -280.2731
  11   2.0000     -10.298701      -280.2419
  12   2.0000     -10.290586      -280.0211
  13   2.0000     -10.283595      -279.8308
  14   2.0000     -10.282322      -279.7962
  15   2.0000     -10.275450      -279.6092
  16   2.0000      -8.081963      -219.9214
  17   2.0000      -8.078074      -219.8156
  18   2.0000      -6.040450      -164.3690
  19   2.0000      -6.036497      -164.2614
  20   2.0000      -6.036457      -164.2603
  21   2.0000      -6.032875      -164.1629
  22   2.0000      -6.032732      -164.1590
  23   2.0000      -6.028853      -164.0534
  24   2.0000      -1.006099       -27.3773
  25   2.0000      -0.977222       -26.5916
  26   2.0000      -0.907983       -24.7075
  27   2.0000      -0.904293       -24.6071
  28   2.0000      -0.865095       -23.5404
  29   2.0000      -0.848870       -23.0989
  30   2.0000      -0.840962       -22.8837
  31   2.0000      -0.810996       -22.0683
  32   2.0000      -0.783788       -21.3279
  33   2.0000      -0.768117       -20.9015
  34   2.0000      -0.707985       -19.2653
  35   2.0000      -0.695722       -18.9316
  36   2.0000      -0.692395       -18.8410
  37   2.0000      -0.654622       -17.8132
  38   2.0000      -0.647361       -17.6156
  39   2.0000      -0.624967       -17.0062
  40   2.0000      -0.594475       -16.1765
  41   2.0000      -0.562638       -15.3102
  42   2.0000      -0.555495       -15.1158
  43   2.0000      -0.554072       -15.0771
  44   2.0000      -0.533943       -14.5293
  45   2.0000      -0.523072       -14.2335
  46   2.0000      -0.514177       -13.9915
  47   2.0000      -0.510284       -13.8855
  48   2.0000      -0.503259       -13.6944
  49   2.0000      -0.492031       -13.3888
  50   2.0000      -0.489479       -13.3194
  51   2.0000      -0.477040       -12.9809
  52   2.0000      -0.465256       -12.6603
  53   2.0000      -0.464842       -12.6490
  54   2.0000      -0.459458       -12.5025
  55   2.0000      -0.449718       -12.2375
  56   2.0000      -0.445784       -12.1304
  57   2.0000      -0.443675       -12.0730
  58   2.0000      -0.434962       -11.8359
  59   2.0000      -0.423184       -11.5154
  60   2.0000      -0.421135       -11.4597
  61   2.0000      -0.410035       -11.1576
  62   2.0000      -0.405678       -11.0391
  63   2.0000      -0.340037        -9.2529
  64   2.0000      -0.333822        -9.0838
  65   2.0000      -0.328059        -8.9269
  66   2.0000      -0.289599        -7.8804
  67   0.0000       0.028780         0.7832
  68   0.0000       0.064647         1.7591
  69   0.0000       0.108851         2.9620
  70   0.0000       0.115430         3.1410
  71   0.0000       0.131558         3.5799

MULLIKEN ATOMIC CHARGES
-----------------------
   0 S :    0.104161
   1 C :   -0.139275
   2 C :   -0.046403
   3 C :    0.076169
   4 C :   -0.167715
   5 H :   -0.039149
   6 C :    0.035268
   7 H :    0.028031
   8 H :    0.039013
   9 C :   -0.116947
  10 H :    0.056815
  11 H :    0.047282
  12 C :   -0.060423
  13 H :    0.036986
  14 H :    0.036040
  15 H :    0.039432
  16 S :    0.121141
  17 C :   -0.109559
  18 C :   -0.037181
  19 C :   -0.009806
  20 C :   -0.170491
  21 H :    0.028179
  22 C :    0.082245
  23 H :    0.032756
  24 H :    0.010461
  25 C :   -0.116259
  26 H :    0.029796
  27 H :    0.026334
  28 C :   -0.038851
  29 H :    0.018787
  30 H :    0.045433
  31 H :    0.033970
  32 H :    0.049134
  33 H :    0.074626
Sum of atomic charges:    0.0000000

LOEWDIN ATOMIC CHARGES
----------------------
   0 S :    0.391815
   1 C :   -0.182343
   2 C :   -0.059538
   3 C :   -0.054202
   4 C :   -0.188774
   5 H :    0.013841
   6 C :   -0.039370
   7 H :    0.031590
   8 H :    0.038959
   9 C :   -0.046514
  10 H :    0.033204
  11 H :    0.031723
  12 C :   -0.066011
  13 H :    0.022577
  14 H :    0.027798
  15 H :    0.024121
  16 S :    0.405924
  17 C :   -0.197494
  18 C :   -0.070128
  19 C :   -0.053845
  20 C :   -0.202188
  21 H :    0.034842
  22 C :   -0.033801
  23 H :    0.032388
  24 H :    0.031866
  25 C :   -0.049554
  26 H :    0.025730
  27 H :    0.025071
  28 C :   -0.070369
  29 H :    0.024366
  30 H :    0.030188
  31 H :    0.024413
  32 H :    0.024632
  33 H :    0.039085

  Mayer bond orders larger than 0.100000
B(  0-S ,  1-C ) :   1.1312 B(  0-S ,  4-C ) :   1.1490 B(  1-C ,  2-C ) :   1.6105
B(  1-C ,  4-C ) :   0.1025 B(  1-C , 32-H ) :   0.9700 B(  2-C ,  3-C ) :   1.2219
B(  2-C ,  6-C ) :   1.0157 B(  3-C ,  4-C ) :   1.6032 B(  3-C ,  5-H ) :   1.0105
B(  4-C , 20-C ) :   1.0306 B(  6-C ,  7-H ) :   0.9379 B(  6-C ,  8-H ) :   0.9459
B(  6-C ,  9-C ) :   1.0557 B(  9-C , 10-H ) :   0.9613 B(  9-C , 11-H ) :   0.9598
B(  9-C , 12-C ) :   1.0522 B( 12-C , 13-H ) :   0.9780 B( 12-C , 14-H ) :   0.9813
B( 12-C , 15-H ) :   0.9795 B( 16-S , 17-C ) :   1.1557 B( 16-S , 20-C ) :   1.1539
B( 17-C , 18-C ) :   1.5808 B( 17-C , 20-C ) :   0.1088 B( 17-C , 33-H ) :   0.9632
B( 18-C , 19-C ) :   1.2626 B( 18-C , 21-H ) :   0.9836 B( 19-C , 20-C ) :   1.5554
B( 19-C , 22-C ) :   1.0460 B( 22-C , 23-H ) :   0.9239 B( 22-C , 24-H ) :   0.9311
B( 22-C , 25-C ) :   1.0815 B( 25-C , 26-H ) :   0.9514 B( 25-C , 27-H ) :   0.9565
B( 25-C , 28-C ) :   1.0443 B( 28-C , 29-H ) :   0.9743 B( 28-C , 30-H ) :   0.9807
B( 28-C , 31-H ) :   0.9782

Dispersion correction           -0.013982104
FINAL SINGLE POINT ENERGY     -1339.864679210454

DIPOLE MOMENT
-------------
                                X             Y             Z
Electronic contribution:    -17.02609     -12.44128     -17.35643
Nuclear contribution   :     17.31004      12.86792      17.76843
                        -----------------------------------------
Total Dipole Moment    :      0.28396       0.42664       0.41200
                        -----------------------------------------
Magnitude (a.u.)       :      0.65757
Magnitude (Debye)      :      1.67142

Rotational constants in cm-1:     0.018633     0.008057     0.006479
Rotational constants in MHz :   558.604940   241.537950   194.232951

                             ****ORCA TERMINATED NORMALLY****
TOTAL RUN TIME: 0 days 0 hours 0 minutes 32 seconds 247 msec
