                         Program Version 4.2.1 -  RELEASE  -
|  1> ! wB97X-D3 SP def2-SVP
|  2> %pal
|  3> nprocs 16
|  4> end
|  5>
|  6> * xyz 0 1
|  7> S 	 3.32634 	 76.734 	 49.7541
|  8> C 	 2.80101 	 78.0702 	 50.7557
|  9> C 	 2.24502 	 77.6655 	 51.941
| 10> C 	 2.27065 	 76.2293 	 52.0723
| 11> C 	 2.6298 	 75.5803 	 50.8974
| 12> H 	 1.88972 	 75.7371 	 52.9461
| 13> C 	 1.75676 	 78.5893 	 53.1083
| 14> H 	 2.54412 	 79.2772 	 53.3553
| 15> H 	 1.67715 	 77.9134 	 53.919
| 16> C 	 0.414712 	 79.2863 	 52.7938
| 17> H 	 0.197532 	 80.0008 	 53.6248
| 18> H 	 0.561997 	 79.8588 	 51.8359
| 19> C 	 -0.775729 	 78.3349 	 52.7
| 20> H 	 -1.70615 	 78.8232 	 52.326
| 21> H 	 -0.604797 	 77.4006 	 52.1209
| 22> H 	 -1.03975 	 78.0027 	 53.7462
| 23> S 	 4.28928 	 73.4901 	 50.3224
| 24> C 	 3.7713 	 71.9216 	 50.7098
| 25> C 	 2.43356 	 71.8337 	 51.0427
| 26> C 	 1.82606 	 73.0832 	 51.1552
| 27> C 	 2.69839 	 74.093 	 50.7759
| 28> H 	 2.01697 	 70.8684 	 51.1895
| 29> C 	 0.412314 	 73.2539 	 51.6821
| 30> H 	 -0.256379 	 72.8953 	 50.9526
| 31> H 	 0.337204 	 74.3774 	 51.729
| 32> C 	 0.0992916 	 72.6551 	 53.0274
| 33> H 	 0.432496 	 71.6128 	 53.1054
| 34> H 	 -0.927743 	 72.5906 	 53.2537
| 35> C 	 0.659778 	 73.4491 	 54.2597
| 36> H 	 0.443409 	 72.9906 	 55.1728
| 37> H 	 0.297109 	 74.5025 	 54.1487
| 38> H 	 1.76409 	 73.5625 	 54.2826
| 39> H 	 2.9028 	 79.0718 	 50.3558
| 40> H 	 4.4332 	 71.0514 	 50.4147
| 41> *
| 42>
| 43>                          ****END OF INPUT****

CARTESIAN COORDINATES (ANGSTROEM)
---------------------------------
  S      3.326340   76.734000   49.754100
  C      2.801010   78.070200   50.755700
  C      2.245020   77.665500   51.941000
  C      2.270650   76.229300   52.072300
  C      2.629800   75.580300   50.897400
  H      1.889720   75.737100   52.946100
  C      1.756760   78.589300   53.108300
  H      2.544120   79.277200   53.355300
  H      1.677150   77.913400   53.919000
  C      0.414712   79.286300   52.793800
  H      0.197532   80.000800   53.624800
  H      0.561997   79.858800   51.835900
  C     -0.775729   78.334900   52.700000
  H     -1.706150   78.823200   52.326000
  H     -0.604797   77.400600   52.120900
  H     -1.039750   78.002700   53.746200
  S      4.289280   73.490100   50.322400
  C      3.771300   71.921600   50.709800
  C      2.433560   71.833700   51.042700
  C      1.826060   73.083200   51.155200
  C      2.698390   74.093000   50.775900
  H      2.016970   70.868400   51.189500
  C      0.412314   73.253900   51.682100
  H     -0.256379   72.895300   50.952600
  H      0.337204   74.377400   51.729000
  C      0.099292   72.655100   53.027400
  H      0.432496   71.612800   53.105400
  H     -0.927743   72.590600   53.253700
  C      0.659778   73.449100   54.259700
  H      0.443409   72.990600   55.172800
  H      0.297109   74.502500   54.148700
  H      1.764090   73.562500   54.282600
  H      2.902800   79.071800   50.355800
  H      4.433200   71.051400   50.414700

 Total Charge           Charge          ....    0
 Multiplicity           Mult            ....    1
 Number of Electrons    NEL             ....  134
 Basis Dimension        Dim             ....  322

ORBITAL ENERGIES
----------------

  NO   OCC          E(Eh)            E(eV)
   0   2.0000     -88.966397     -2420.8987
   1   2.0000     -88.964575     -2420.8492
   2   2.0000     -10.332095      -281.1506
   3   2.0000     -10.326814      -281.0069
   4   2.0000     -10.315266      -280.6927
   5   2.0000     -10.312533      -280.6183
   6   2.0000     -10.301412      -280.3157
   7   2.0000     -10.301284      -280.3122
   8   2.0000     -10.295618      -280.1580
   9   2.0000     -10.292757      -280.0802
  10   2.0000     -10.292160      -280.0639
  11   2.0000     -10.291046      -280.0336
  12   2.0000     -10.287364      -279.9334
  13   2.0000     -10.286550      -279.9113
  14   2.0000     -10.285057      -279.8706
  15   2.0000     -10.280524      -279.7473
  16   2.0000      -8.080928      -219.8932
  17   2.0000      -8.080452      -219.8803
  18   2.0000      -6.039548      -164.3445
  19   2.0000      -6.038679      -164.3208
  20   2.0000      -6.035509      -164.2345
  21   2.0000      -6.034860      -164.2169
  22   2.0000      -6.031566      -164.1273
  23   2.0000      -6.031397      -164.1226
  24   2.0000      -1.008264       -27.4363
  25   2.0000      -0.985283       -26.8109
  26   2.0000      -0.913263       -24.8512
  27   2.0000      -0.906459       -24.6660
  28   2.0000      -0.863214       -23.4892
  29   2.0000      -0.854761       -23.2592
  30   2.0000      -0.843486       -22.9524
  31   2.0000      -0.809556       -22.0291
  32   2.0000      -0.786036       -21.3891
  33   2.0000      -0.773718       -21.0539
  34   2.0000      -0.709580       -19.3087
  35   2.0000      -0.698790       -19.0151
  36   2.0000      -0.686703       -18.6861
  37   2.0000      -0.660649       -17.9772
  38   2.0000      -0.640580       -17.4311
  39   2.0000      -0.615222       -16.7410
  40   2.0000      -0.593840       -16.1592
  41   2.0000      -0.569404       -15.4943
  42   2.0000      -0.563642       -15.3375
  43   2.0000      -0.548600       -14.9282
  44   2.0000      -0.547096       -14.8872
  45   2.0000      -0.535876       -14.5819
  46   2.0000      -0.514895       -14.0110
  47   2.0000      -0.509817       -13.8728
  48   2.0000      -0.501961       -13.6591
  49   2.0000      -0.490752       -13.3541
  50   2.0000      -0.485327       -13.2064
  51   2.0000      -0.477528       -12.9942
  52   2.0000      -0.465662       -12.6713
  53   2.0000      -0.463655       -12.6167
  54   2.0000      -0.458903       -12.4874
  55   2.0000      -0.448808       -12.2127
  56   2.0000      -0.447722       -12.1831
  57   2.0000      -0.442067       -12.0293
  58   2.0000      -0.437738       -11.9115
  59   2.0000      -0.425105       -11.5677
  60   2.0000      -0.424005       -11.5378
  61   2.0000      -0.415144       -11.2966
  62   2.0000      -0.412141       -11.2149
  63   2.0000      -0.345723        -9.4076
  64   2.0000      -0.336390        -9.1536
  65   2.0000      -0.330556        -8.9949
  66   2.0000      -0.289581        -7.8799
  67   0.0000       0.031684         0.8622
  68   0.0000       0.070108         1.9077
  69   0.0000       0.107091         2.9141
  70   0.0000       0.125688         3.4201
  71   0.0000       0.128429         3.4947

MULLIKEN ATOMIC CHARGES
-----------------------
   0 S :    0.099706
   1 C :   -0.137360
   2 C :   -0.107330
   3 C :    0.046454
   4 C :   -0.142780
   5 H :   -0.020880
   6 C :    0.111001
   7 H :    0.035589
   8 H :    0.000344
   9 C :   -0.076641
  10 H :    0.040222
  11 H :    0.039906
  12 C :   -0.092174
  13 H :    0.043816
  14 H :    0.052309
  15 H :    0.028183
  16 S :    0.111827
  17 C :   -0.117841
  18 C :   -0.033215
  19 C :   -0.042307
  20 C :   -0.158027
  21 H :    0.006307
  22 C :    0.104168
  23 H :    0.029102
  24 H :    0.025027
  25 C :   -0.056868
  26 H :    0.025785
  27 H :    0.022311
  28 C :   -0.071920
  29 H :    0.026096
  30 H :    0.037046
  31 H :    0.044088
  32 H :    0.051845
  33 H :    0.076213
Sum of atomic charges:   -0.0000000

LOEWDIN ATOMIC CHARGES
----------------------
   0 S :    0.391918
   1 C :   -0.193472
   2 C :   -0.062280
   3 C :   -0.063282
   4 C :   -0.189973
   5 H :    0.023389
   6 C :   -0.020417
   7 H :    0.031111
   8 H :    0.020322
   9 C :   -0.045026
  10 H :    0.029382
  11 H :    0.027510
  12 C :   -0.077617
  13 H :    0.031129
  14 H :    0.028303
  15 H :    0.027500
  16 S :    0.424088
  17 C :   -0.205675
  18 C :   -0.072225
  19 C :   -0.056313
  20 C :   -0.192033
  21 H :    0.027451
  22 C :   -0.027390
  23 H :    0.030225
  24 H :    0.036680
  25 C :   -0.036792
  26 H :    0.023492
  27 H :    0.021659
  28 C :   -0.064724
  29 H :    0.018138
  30 H :    0.025554
  31 H :    0.026855
  32 H :    0.025424
  33 H :    0.037091

  Mayer bond orders larger than 0.100000
B(  0-S ,  1-C ) :   1.1332 B(  0-S ,  4-C ) :   1.1536 B(  1-C ,  2-C ) :   1.6207
B(  1-C , 32-H ) :   0.9699 B(  2-C ,  3-C ) :   1.2484 B(  2-C ,  6-C ) :   0.9976
B(  3-C ,  4-C ) :   1.5612 B(  3-C ,  5-H ) :   0.9846 B(  4-C , 20-C ) :   1.0128
B(  6-C ,  7-H ) :   0.9439 B(  6-C ,  8-H ) :   0.9417 B(  6-C ,  9-C ) :   1.0657
B(  9-C , 10-H ) :   0.9562 B(  9-C , 11-H ) :   0.9594 B(  9-C , 12-C ) :   1.0689
B( 12-C , 13-H ) :   0.9728 B( 12-C , 14-H ) :   0.9771 B( 12-C , 15-H ) :   0.9736
B( 16-S , 17-C ) :   1.1827 B( 16-S , 20-C ) :   1.1583 B( 17-C , 18-C ) :   1.5896
B( 17-C , 33-H ) :   0.9554 B( 18-C , 19-C ) :   1.2443 B( 18-C , 21-H ) :   1.0020
B( 19-C , 20-C ) :   1.5991 B( 19-C , 22-C ) :   1.0264 B( 22-C , 23-H ) :   0.9246
B( 22-C , 24-H ) :   0.9373 B( 22-C , 25-C ) :   1.0766 B( 25-C , 26-H ) :   0.9530
B( 25-C , 27-H ) :   0.9538 B( 25-C , 28-C ) :   1.0736 B( 28-C , 29-H ) :   0.9704
B( 28-C , 30-H ) :   0.9673 B( 28-C , 31-H ) :   0.9748

Dispersion correction           -0.015479390
FINAL SINGLE POINT ENERGY     -1339.885177905493

DIPOLE MOMENT
-------------
                                X             Y             Z
Electronic contribution:     21.92773      -5.48224     -19.82451
Nuclear contribution   :    -22.36627       5.41709      20.29996
                        -----------------------------------------
Total Dipole Moment    :     -0.43854      -0.06515       0.47546
                        -----------------------------------------
Magnitude (a.u.)       :      0.65009
Magnitude (Debye)      :      1.65240

Rotational constants in cm-1:     0.018564     0.010084     0.007108
Rotational constants in MHz :   556.543828   302.318924   213.103629

                             ****ORCA TERMINATED NORMALLY****
TOTAL RUN TIME: 0 days 0 hours 0 minutes 36 seconds 303 msec
