                         Program Version 4.2.1 -  RELEASE  -
|  1> ! wB97X-D3 SP def2-SVP
|  2> %pal
|  3> nprocs 16
|  4> end
|  5>
|  6> * xyz 0 1
|  7> S 	 -57.6104 	 35.4074 	 93.202
|  8> C 	 -58.7956 	 34.2228 	 92.925
|  9> C 	 -58.6689 	 33.1268 	 93.748
| 10> C 	 -57.7077 	 33.365 	 94.7181
| 11> C 	 -56.9021 	 34.4952 	 94.4811
| 12> H 	 -57.491 	 32.6083 	 95.4752
| 13> C 	 -59.5323 	 31.9184 	 93.585
| 14> H 	 -58.9077 	 31.0769 	 93.4381
| 15> H 	 -60.1246 	 31.9944 	 92.6385
| 16> C 	 -60.4891 	 31.6097 	 94.7625
| 17> H 	 -59.8731 	 31.5296 	 95.6072
| 18> H 	 -61.1243 	 32.3978 	 95.0136
| 19> C 	 -61.2688 	 30.3386 	 94.2381
| 20> H 	 -61.7383 	 29.8803 	 95.1075
| 21> H 	 -61.9659 	 30.5297 	 93.4362
| 22> H 	 -60.6254 	 29.6034 	 93.8133
| 23> S 	 -54.3884 	 33.7024 	 95.0308
| 24> C 	 -53.26 	 34.9466 	 95.6714
| 25> C 	 -53.9686 	 36.0217 	 96.1509
| 26> C 	 -55.3664 	 35.9878 	 95.828
| 27> C 	 -55.7448 	 34.8469 	 95.1374
| 28> H 	 -53.4916 	 36.9654 	 96.5347
| 29> C 	 -56.244 	 37.193 	 96.1002
| 30> H 	 -56.6943 	 36.9257 	 97.0504
| 31> H 	 -57.1472 	 37.1486 	 95.581
| 32> C 	 -55.4909 	 38.5494 	 95.9085
| 33> H 	 -54.6198 	 38.4974 	 95.1418
| 34> H 	 -54.8889 	 38.7482 	 96.8129
| 35> C 	 -56.4839 	 39.7272 	 95.727
| 36> H 	 -56.0173 	 40.6512 	 96.1034
| 37> H 	 -57.2875 	 39.4705 	 96.4051
| 38> H 	 -56.9335 	 39.8224 	 94.7632
| 39> H 	 -59.4451 	 34.3036 	 92.0837
| 40> H 	 -52.1941 	 34.7726 	 95.6834
| 41> *
| 42>
| 43>                          ****END OF INPUT****

CARTESIAN COORDINATES (ANGSTROEM)
---------------------------------
  S    -57.610400   35.407400   93.202000
  C    -58.795600   34.222800   92.925000
  C    -58.668900   33.126800   93.748000
  C    -57.707700   33.365000   94.718100
  C    -56.902100   34.495200   94.481100
  H    -57.491000   32.608300   95.475200
  C    -59.532300   31.918400   93.585000
  H    -58.907700   31.076900   93.438100
  H    -60.124600   31.994400   92.638500
  C    -60.489100   31.609700   94.762500
  H    -59.873100   31.529600   95.607200
  H    -61.124300   32.397800   95.013600
  C    -61.268800   30.338600   94.238100
  H    -61.738300   29.880300   95.107500
  H    -61.965900   30.529700   93.436200
  H    -60.625400   29.603400   93.813300
  S    -54.388400   33.702400   95.030800
  C    -53.260000   34.946600   95.671400
  C    -53.968600   36.021700   96.150900
  C    -55.366400   35.987800   95.828000
  C    -55.744800   34.846900   95.137400
  H    -53.491600   36.965400   96.534700
  C    -56.244000   37.193000   96.100200
  H    -56.694300   36.925700   97.050400
  H    -57.147200   37.148600   95.581000
  C    -55.490900   38.549400   95.908500
  H    -54.619800   38.497400   95.141800
  H    -54.888900   38.748200   96.812900
  C    -56.483900   39.727200   95.727000
  H    -56.017300   40.651200   96.103400
  H    -57.287500   39.470500   96.405100
  H    -56.933500   39.822400   94.763200
  H    -59.445100   34.303600   92.083700
  H    -52.194100   34.772600   95.683400

 Total Charge           Charge          ....    0
 Multiplicity           Mult            ....    1
 Number of Electrons    NEL             ....  134
 Basis Dimension        Dim             ....  322

ORBITAL ENERGIES
----------------

  NO   OCC          E(Eh)            E(eV)
   0   2.0000     -88.964417     -2420.8448
   1   2.0000     -88.959001     -2420.6975
   2   2.0000     -10.321131      -280.8522
   3   2.0000     -10.319385      -280.8047
   4   2.0000     -10.316834      -280.7353
   5   2.0000     -10.301746      -280.3247
   6   2.0000     -10.301479      -280.3175
   7   2.0000     -10.300176      -280.2820
   8   2.0000     -10.297360      -280.2054
   9   2.0000     -10.289353      -279.9875
  10   2.0000     -10.288481      -279.9638
  11   2.0000     -10.287079      -279.9257
  12   2.0000     -10.286997      -279.9234
  13   2.0000     -10.281163      -279.7647
  14   2.0000     -10.278829      -279.7012
  15   2.0000     -10.277889      -279.6756
  16   2.0000      -8.080281      -219.8756
  17   2.0000      -8.073025      -219.6782
  18   2.0000      -6.038458      -164.3148
  19   2.0000      -6.034508      -164.2073
  20   2.0000      -6.031696      -164.1308
  21   2.0000      -6.031460      -164.1244
  22   2.0000      -6.027715      -164.0225
  23   2.0000      -6.023571      -163.9097
  24   2.0000      -1.012216       -27.5438
  25   2.0000      -0.981920       -26.7194
  26   2.0000      -0.914165       -24.8757
  27   2.0000      -0.904483       -24.6122
  28   2.0000      -0.875486       -23.8232
  29   2.0000      -0.851852       -23.1801
  30   2.0000      -0.844576       -22.9821
  31   2.0000      -0.809104       -22.0168
  32   2.0000      -0.781681       -21.2706
  33   2.0000      -0.766646       -20.8615
  34   2.0000      -0.720500       -19.6058
  35   2.0000      -0.711241       -19.3538
  36   2.0000      -0.699968       -19.0471
  37   2.0000      -0.658353       -17.9147
  38   2.0000      -0.640004       -17.4154
  39   2.0000      -0.617722       -16.8091
  40   2.0000      -0.600970       -16.3532
  41   2.0000      -0.570113       -15.5136
  42   2.0000      -0.557648       -15.1744
  43   2.0000      -0.555146       -15.1063
  44   2.0000      -0.532805       -14.4984
  45   2.0000      -0.524662       -14.2768
  46   2.0000      -0.517774       -14.0894
  47   2.0000      -0.512319       -13.9409
  48   2.0000      -0.498921       -13.5763
  49   2.0000      -0.495517       -13.4837
  50   2.0000      -0.490199       -13.3390
  51   2.0000      -0.480687       -13.0802
  52   2.0000      -0.477545       -12.9947
  53   2.0000      -0.466063       -12.6822
  54   2.0000      -0.459048       -12.4913
  55   2.0000      -0.451616       -12.2891
  56   2.0000      -0.450967       -12.2714
  57   2.0000      -0.438672       -11.9369
  58   2.0000      -0.434680       -11.8283
  59   2.0000      -0.433401       -11.7934
  60   2.0000      -0.421753       -11.4765
  61   2.0000      -0.408441       -11.1143
  62   2.0000      -0.403741       -10.9863
  63   2.0000      -0.339618        -9.2415
  64   2.0000      -0.331642        -9.0244
  65   2.0000      -0.324257        -8.8235
  66   2.0000      -0.286671        -7.8007
  67   0.0000       0.034109         0.9282
  68   0.0000       0.062320         1.6958
  69   0.0000       0.110209         2.9989
  70   0.0000       0.124429         3.3859
  71   0.0000       0.135293         3.6815

MULLIKEN ATOMIC CHARGES
-----------------------
   0 S :    0.137038
   1 C :   -0.129481
   2 C :   -0.058739
   3 C :    0.013545
   4 C :   -0.185804
   5 H :    0.011489
   6 C :    0.042688
   7 H :    0.023086
   8 H :    0.016687
   9 C :   -0.034806
  10 H :    0.015930
  11 H :    0.020188
  12 C :   -0.028121
  13 H :    0.034676
  14 H :    0.034691
  15 H :    0.016278
  16 S :    0.089098
  17 C :   -0.099923
  18 C :   -0.034472
  19 C :   -0.067078
  20 C :   -0.151683
  21 H :    0.041711
  22 C :    0.142953
  23 H :    0.030745
  24 H :   -0.013768
  25 C :   -0.150390
  26 H :    0.057835
  27 H :    0.036314
  28 C :   -0.016183
  29 H :    0.036697
  30 H :    0.025434
  31 H :    0.044599
  32 H :    0.036711
  33 H :    0.062056
Sum of atomic charges:    0.0000000

LOEWDIN ATOMIC CHARGES
----------------------
   0 S :    0.450556
   1 C :   -0.210830
   2 C :   -0.069578
   3 C :   -0.066323
   4 C :   -0.212922
   5 H :    0.029426
   6 C :   -0.027764
   7 H :    0.025682
   8 H :    0.031417
   9 C :   -0.022812
  10 H :    0.016859
  11 H :    0.018009
  12 C :   -0.058196
  13 H :    0.026115
  14 H :    0.027152
  15 H :    0.020618
  16 S :    0.369782
  17 C :   -0.160697
  18 C :   -0.078276
  19 C :   -0.046936
  20 C :   -0.200193
  21 H :    0.040777
  22 C :   -0.037879
  23 H :    0.043474
  24 H :    0.015214
  25 C :   -0.049789
  26 H :    0.034376
  27 H :    0.024021
  28 C :   -0.060701
  29 H :    0.030382
  30 H :    0.027308
  31 H :    0.024414
  32 H :    0.019123
  33 H :    0.028194

  Mayer bond orders larger than 0.100000
B(  0-S ,  1-C ) :   1.1698 B(  0-S ,  4-C ) :   1.1715 B(  1-C ,  2-C ) :   1.5589
B(  1-C ,  4-C ) :   0.1072 B(  1-C , 32-H ) :   0.9695 B(  2-C ,  3-C ) :   1.3006
B(  2-C ,  6-C ) :   1.0200 B(  3-C ,  4-C ) :   1.4998 B(  3-C ,  5-H ) :   0.9907
B(  4-C , 20-C ) :   1.1044 B(  6-C ,  7-H ) :   0.9327 B(  6-C ,  8-H ) :   0.9467
B(  6-C ,  9-C ) :   1.0563 B(  9-C , 10-H ) :   0.9589 B(  9-C , 11-H ) :   0.9586
B(  9-C , 12-C ) :   1.0662 B( 12-C , 13-H ) :   0.9744 B( 12-C , 14-H ) :   0.9764
B( 12-C , 15-H ) :   0.9743 B( 16-S , 17-C ) :   1.1419 B( 16-S , 20-C ) :   1.1053
B( 17-C , 18-C ) :   1.6117 B( 17-C , 20-C ) :   0.1008 B( 17-C , 33-H ) :   0.9722
B( 18-C , 19-C ) :   1.2241 B( 18-C , 21-H ) :   0.9738 B( 19-C , 20-C ) :   1.6025
B( 19-C , 22-C ) :   1.0446 B( 22-C , 23-H ) :   0.9080 B( 22-C , 24-H ) :   0.9259
B( 22-C , 25-C ) :   1.0289 B( 25-C , 26-H ) :   0.9655 B( 25-C , 27-H ) :   0.9477
B( 25-C , 28-C ) :   1.0738 B( 28-C , 29-H ) :   0.9752 B( 28-C , 30-H ) :   0.9715
B( 28-C , 31-H ) :   0.9779

Dispersion correction           -0.013636356
FINAL SINGLE POINT ENERGY     -1339.856372507317

DIPOLE MOMENT
-------------
                                X             Y             Z
Electronic contribution:     15.26736      -2.08555      -5.14203
Nuclear contribution   :    -15.49924       2.21506       5.28101
                        -----------------------------------------
Total Dipole Moment    :     -0.23189       0.12951       0.13899
                        -----------------------------------------
Magnitude (a.u.)       :      0.29977
Magnitude (Debye)      :      0.76196

Rotational constants in cm-1:     0.022307     0.007219     0.006079
Rotational constants in MHz :   668.757565   216.412569   182.245717

                             ****ORCA TERMINATED NORMALLY****
TOTAL RUN TIME: 0 days 0 hours 0 minutes 27 seconds 60 msec
