                         Program Version 4.2.1 -  RELEASE  -
|  1> ! wB97X-D3 SP def2-SVP
|  2> %pal
|  3> nprocs 16
|  4> end
|  5>
|  6> * xyz 0 1
|  7> S 	 11.7493 	 -14.4505 	 79.0495
|  8> C 	 10.9697 	 -15.878 	 79.4671
|  9> C 	 10.1324 	 -16.3205 	 78.4827
| 10> C 	 10.2612 	 -15.5211 	 77.35
| 11> C 	 11.102 	 -14.4287 	 77.4176
| 12> H 	 9.69255 	 -15.6328 	 76.4115
| 13> C 	 9.22504 	 -17.4965 	 78.5489
| 14> H 	 8.55487 	 -17.3747 	 79.4364
| 15> H 	 9.87426 	 -18.286 	 78.8245
| 16> C 	 8.37956 	 -17.876 	 77.3243
| 17> H 	 7.59118 	 -17.1032 	 77.1713
| 18> H 	 8.98597 	 -17.7547 	 76.4344
| 19> C 	 7.7151 	 -19.2893 	 77.3975
| 20> H 	 6.86587 	 -19.1097 	 78.1163
| 21> H 	 7.28222 	 -19.2983 	 76.4572
| 22> H 	 8.28511 	 -20.2029 	 77.7035
| 23> S 	 11.2102 	 -11.7258 	 77.2134
| 24> C 	 11.5165 	 -10.8359 	 75.7834
| 25> C 	 11.8075 	 -11.7787 	 74.8072
| 26> C 	 11.644 	 -13.1257 	 75.2197
| 27> C 	 11.2906 	 -13.2815 	 76.5347
| 28> H 	 12.0987 	 -11.5228 	 73.805
| 29> C 	 11.7181 	 -14.242 	 74.2522
| 30> H 	 10.9839 	 -14.159 	 73.4187
| 31> H 	 11.4794 	 -15.1393 	 74.8709
| 32> C 	 13.1643 	 -14.4936 	 73.7863
| 33> H 	 13.6295 	 -15.0217 	 74.6396
| 34> H 	 13.6307 	 -13.5064 	 73.5963
| 35> C 	 13.4398 	 -15.3754 	 72.5383
| 36> H 	 12.854 	 -16.2967 	 72.4895
| 37> H 	 14.5541 	 -15.5692 	 72.4935
| 38> H 	 13.0642 	 -14.8705 	 71.6641
| 39> H 	 11.0731 	 -16.4209 	 80.4208
| 40> H 	 11.3731 	 -9.76115 	 75.6992
| 41> *
| 42>
| 43>                          ****END OF INPUT****

CARTESIAN COORDINATES (ANGSTROEM)
---------------------------------
  S     11.749300  -14.450500   79.049500
  C     10.969700  -15.878000   79.467100
  C     10.132400  -16.320500   78.482700
  C     10.261200  -15.521100   77.350000
  C     11.102000  -14.428700   77.417600
  H      9.692550  -15.632800   76.411500
  C      9.225040  -17.496500   78.548900
  H      8.554870  -17.374700   79.436400
  H      9.874260  -18.286000   78.824500
  C      8.379560  -17.876000   77.324300
  H      7.591180  -17.103200   77.171300
  H      8.985970  -17.754700   76.434400
  C      7.715100  -19.289300   77.397500
  H      6.865870  -19.109700   78.116300
  H      7.282220  -19.298300   76.457200
  H      8.285110  -20.202900   77.703500
  S     11.210200  -11.725800   77.213400
  C     11.516500  -10.835900   75.783400
  C     11.807500  -11.778700   74.807200
  C     11.644000  -13.125700   75.219700
  C     11.290600  -13.281500   76.534700
  H     12.098700  -11.522800   73.805000
  C     11.718100  -14.242000   74.252200
  H     10.983900  -14.159000   73.418700
  H     11.479400  -15.139300   74.870900
  C     13.164300  -14.493600   73.786300
  H     13.629500  -15.021700   74.639600
  H     13.630700  -13.506400   73.596300
  C     13.439800  -15.375400   72.538300
  H     12.854000  -16.296700   72.489500
  H     14.554100  -15.569200   72.493500
  H     13.064200  -14.870500   71.664100
  H     11.073100  -16.420900   80.420800
  H     11.373100   -9.761150   75.699200

 Total Charge           Charge          ....    0
 Multiplicity           Mult            ....    1
 Number of Electrons    NEL             ....  134
 Basis Dimension        Dim             ....  322

ORBITAL ENERGIES
----------------

  NO   OCC          E(Eh)            E(eV)
   0   2.0000     -88.965698     -2420.8797
   1   2.0000     -88.959884     -2420.7215
   2   2.0000     -10.329803      -281.0882
   3   2.0000     -10.323699      -280.9221
   4   2.0000     -10.317818      -280.7621
   5   2.0000     -10.308486      -280.5082
   6   2.0000     -10.294613      -280.1307
   7   2.0000     -10.293880      -280.1107
   8   2.0000     -10.293483      -280.0999
   9   2.0000     -10.291802      -280.0542
  10   2.0000     -10.290891      -280.0294
  11   2.0000     -10.289011      -279.9782
  12   2.0000     -10.288681      -279.9692
  13   2.0000     -10.286015      -279.8967
  14   2.0000     -10.285516      -279.8831
  15   2.0000     -10.279795      -279.7274
  16   2.0000      -8.081470      -219.9080
  17   2.0000      -8.076516      -219.7732
  18   2.0000      -6.039806      -164.3515
  19   2.0000      -6.035693      -164.2396
  20   2.0000      -6.034936      -164.2189
  21   2.0000      -6.032469      -164.1518
  22   2.0000      -6.030471      -164.0975
  23   2.0000      -6.027492      -164.0164
  24   2.0000      -1.020295       -27.7636
  25   2.0000      -1.000039       -27.2124
  26   2.0000      -0.914375       -24.8814
  27   2.0000      -0.908537       -24.7225
  28   2.0000      -0.876240       -23.8437
  29   2.0000      -0.853135       -23.2150
  30   2.0000      -0.845768       -23.0145
  31   2.0000      -0.821732       -22.3605
  32   2.0000      -0.782154       -21.2835
  33   2.0000      -0.772941       -21.0328
  34   2.0000      -0.715209       -19.4618
  35   2.0000      -0.693664       -18.8755
  36   2.0000      -0.689821       -18.7710
  37   2.0000      -0.662574       -18.0295
  38   2.0000      -0.643048       -17.4982
  39   2.0000      -0.623452       -16.9650
  40   2.0000      -0.599279       -16.3072
  41   2.0000      -0.573984       -15.6189
  42   2.0000      -0.566117       -15.4048
  43   2.0000      -0.560637       -15.2557
  44   2.0000      -0.535565       -14.5735
  45   2.0000      -0.526829       -14.3357
  46   2.0000      -0.522871       -14.2280
  47   2.0000      -0.512913       -13.9571
  48   2.0000      -0.506322       -13.7777
  49   2.0000      -0.503043       -13.6885
  50   2.0000      -0.495345       -13.4790
  51   2.0000      -0.487322       -13.2607
  52   2.0000      -0.477430       -12.9915
  53   2.0000      -0.465309       -12.6617
  54   2.0000      -0.459577       -12.5057
  55   2.0000      -0.446465       -12.1489
  56   2.0000      -0.440810       -11.9951
  57   2.0000      -0.437356       -11.9011
  58   2.0000      -0.424849       -11.5607
  59   2.0000      -0.423275       -11.5179
  60   2.0000      -0.417121       -11.3504
  61   2.0000      -0.411154       -11.1881
  62   2.0000      -0.407622       -11.0920
  63   2.0000      -0.356660        -9.7052
  64   2.0000      -0.331021        -9.0075
  65   2.0000      -0.326203        -8.8764
  66   2.0000      -0.290733        -7.9112
  67   0.0000       0.034410         0.9363
  68   0.0000       0.070305         1.9131
  69   0.0000       0.120983         3.2921
  70   0.0000       0.132918         3.6169
  71   0.0000       0.138448         3.7674

MULLIKEN ATOMIC CHARGES
-----------------------
   0 S :    0.126128
   1 C :   -0.135554
   2 C :   -0.076688
   3 C :   -0.003547
   4 C :   -0.157707
   5 H :    0.020113
   6 C :    0.085722
   7 H :    0.035222
   8 H :    0.020690
   9 C :   -0.130820
  10 H :    0.037390
  11 H :    0.030535
  12 C :   -0.019793
  13 H :    0.034423
  14 H :    0.023027
  15 H :    0.059621
  16 S :    0.095748
  17 C :   -0.095817
  18 C :   -0.018827
  19 C :   -0.062309
  20 C :   -0.134610
  21 H :    0.009973
  22 C :    0.064694
  23 H :    0.040614
  24 H :    0.017358
  25 C :   -0.125316
  26 H :    0.040129
  27 H :    0.035240
  28 C :   -0.035892
  29 H :    0.023942
  30 H :    0.054180
  31 H :    0.019674
  32 H :    0.051132
  33 H :    0.071321
Sum of atomic charges:   -0.0000000

LOEWDIN ATOMIC CHARGES
----------------------
   0 S :    0.441603
   1 C :   -0.219813
   2 C :   -0.074616
   3 C :   -0.071618
   4 C :   -0.199128
   5 H :    0.032185
   6 C :   -0.038190
   7 H :    0.037966
   8 H :    0.029144
   9 C :   -0.042404
  10 H :    0.030375
  11 H :    0.016858
  12 C :   -0.062787
  13 H :    0.033452
  14 H :    0.020442
  15 H :    0.034772
  16 S :    0.443853
  17 C :   -0.198266
  18 C :   -0.069817
  19 C :   -0.069635
  20 C :   -0.213901
  21 H :    0.025842
  22 C :   -0.040603
  23 H :    0.030770
  24 H :    0.034133
  25 C :   -0.044986
  26 H :    0.030421
  27 H :    0.022704
  28 C :   -0.071944
  29 H :    0.023056
  30 H :    0.037999
  31 H :    0.019268
  32 H :    0.036383
  33 H :    0.036482

  Mayer bond orders larger than 0.100000
B(  0-S ,  1-C ) :   1.1749 B(  0-S ,  4-C ) :   1.1645 B(  1-C ,  2-C ) :   1.5692
B(  1-C ,  4-C ) :   0.1067 B(  1-C , 32-H ) :   0.9680 B(  2-C ,  3-C ) :   1.3107
B(  2-C ,  6-C ) :   0.9969 B(  3-C ,  4-C ) :   1.5303 B(  3-C ,  5-H ) :   0.9809
B(  4-C , 20-C ) :   1.0289 B(  6-C ,  7-H ) :   0.9310 B(  6-C ,  8-H ) :   0.9318
B(  6-C ,  9-C ) :   1.0871 B(  9-C , 10-H ) :   0.9504 B(  9-C , 11-H ) :   0.9513
B(  9-C , 12-C ) :   1.0646 B( 12-C , 13-H ) :   0.9750 B( 12-C , 14-H ) :   0.9713
B( 12-C , 15-H ) :   0.9776 B( 16-S , 17-C ) :   1.1839 B( 16-S , 20-C ) :   1.1642
B( 17-C , 18-C ) :   1.5314 B( 17-C , 20-C ) :   0.1023 B( 17-C , 33-H ) :   0.9756
B( 18-C , 19-C ) :   1.2861 B( 18-C , 21-H ) :   0.9940 B( 19-C , 20-C ) :   1.5592
B( 19-C , 22-C ) :   1.0509 B( 22-C , 23-H ) :   0.9430 B( 22-C , 24-H ) :   0.9267
B( 22-C , 25-C ) :   1.0458 B( 25-C , 26-H ) :   0.9574 B( 25-C , 27-H ) :   0.9669
B( 25-C , 28-C ) :   1.0782 B( 28-C , 29-H ) :   0.9720 B( 28-C , 30-H ) :   0.9740
B( 28-C , 31-H ) :   0.9742

Dispersion correction           -0.013298200
FINAL SINGLE POINT ENERGY     -1339.871572688233

DIPOLE MOMENT
-------------
                                X             Y             Z
Electronic contribution:      5.76279      22.78747      16.71530
Nuclear contribution   :     -6.10936     -23.21872     -17.05547
                        -----------------------------------------
Total Dipole Moment    :     -0.34658      -0.43124      -0.34017
                        -----------------------------------------
Magnitude (a.u.)       :      0.64946
Magnitude (Debye)      :      1.65081

Rotational constants in cm-1:     0.016912     0.008377     0.006481
Rotational constants in MHz :   507.019903   251.130310   194.292835

                             ****ORCA TERMINATED NORMALLY****
TOTAL RUN TIME: 0 days 0 hours 0 minutes 29 seconds 377 msec
