                         Program Version 4.2.1 -  RELEASE  -
|  1> ! wB97X-D3 SP def2-SVP
|  2> %pal
|  3> nprocs 16
|  4> end
|  5>
|  6> * xyz 0 1
|  7> S 	 -0.958135 	 -11.1595 	 80.8932
|  8> C 	 -1.30543 	 -12.2152 	 82.32
|  9> C 	 -2.48588 	 -12.9254 	 82.0935
| 10> C 	 -2.74663 	 -12.94 	 80.6221
| 11> C 	 -1.92931 	 -12.1224 	 79.8392
| 12> H 	 -3.54381 	 -13.5307 	 80.0469
| 13> C 	 -3.18707 	 -13.8381 	 83.1182
| 14> H 	 -3.56764 	 -13.1875 	 83.9911
| 15> H 	 -2.41194 	 -14.3158 	 83.6634
| 16> C 	 -4.11626 	 -14.9671 	 82.6845
| 17> H 	 -4.98894 	 -14.4557 	 82.1967
| 18> H 	 -3.69881 	 -15.5166 	 81.8557
| 19> C 	 -4.64035 	 -15.9583 	 83.6964
| 20> H 	 -5.30367 	 -16.5794 	 83.0814
| 21> H 	 -3.9316 	 -16.5668 	 84.2366
| 22> H 	 -5.19318 	 -15.3572 	 84.4824
| 23> S 	 -1.6914 	 -13.2843 	 77.3445
| 24> C 	 -2.06447 	 -12.3708 	 75.8892
| 25> C 	 -2.41606 	 -11.0765 	 76.1733
| 26> C 	 -2.26209 	 -10.8321 	 77.5961
| 27> C 	 -2.04164 	 -11.9305 	 78.3666
| 28> H 	 -2.41433 	 -10.2883 	 75.4035
| 29> C 	 -2.42129 	 -9.40011 	 78.1474
| 30> H 	 -2.72585 	 -9.46497 	 79.26
| 31> H 	 -3.31869 	 -8.90213 	 77.6862
| 32> C 	 -1.26476 	 -8.45996 	 78.0699
| 33> H 	 -1.01196 	 -8.23154 	 76.9962
| 34> H 	 -0.3643 	 -8.92807 	 78.5152
| 35> C 	 -1.53268 	 -7.17275 	 78.8413
| 36> H 	 -2.40571 	 -6.67798 	 78.7082
| 37> H 	 -0.675776 	 -6.43652 	 78.6443
| 38> H 	 -1.44782 	 -7.56616 	 79.931
| 39> H 	 -0.773378 	 -12.1263 	 83.2421
| 40> H 	 -1.91535 	 -12.7292 	 74.893
| 41> *
| 42>
| 43>                          ****END OF INPUT****

CARTESIAN COORDINATES (ANGSTROEM)
---------------------------------
  S     -0.958135  -11.159500   80.893200
  C     -1.305430  -12.215200   82.320000
  C     -2.485880  -12.925400   82.093500
  C     -2.746630  -12.940000   80.622100
  C     -1.929310  -12.122400   79.839200
  H     -3.543810  -13.530700   80.046900
  C     -3.187070  -13.838100   83.118200
  H     -3.567640  -13.187500   83.991100
  H     -2.411940  -14.315800   83.663400
  C     -4.116260  -14.967100   82.684500
  H     -4.988940  -14.455700   82.196700
  H     -3.698810  -15.516600   81.855700
  C     -4.640350  -15.958300   83.696400
  H     -5.303670  -16.579400   83.081400
  H     -3.931600  -16.566800   84.236600
  H     -5.193180  -15.357200   84.482400
  S     -1.691400  -13.284300   77.344500
  C     -2.064470  -12.370800   75.889200
  C     -2.416060  -11.076500   76.173300
  C     -2.262090  -10.832100   77.596100
  C     -2.041640  -11.930500   78.366600
  H     -2.414330  -10.288300   75.403500
  C     -2.421290   -9.400110   78.147400
  H     -2.725850   -9.464970   79.260000
  H     -3.318690   -8.902130   77.686200
  C     -1.264760   -8.459960   78.069900
  H     -1.011960   -8.231540   76.996200
  H     -0.364300   -8.928070   78.515200
  C     -1.532680   -7.172750   78.841300
  H     -2.405710   -6.677980   78.708200
  H     -0.675776   -6.436520   78.644300
  H     -1.447820   -7.566160   79.931000
  H     -0.773378  -12.126300   83.242100
  H     -1.915350  -12.729200   74.893000

 Total Charge           Charge          ....    0
 Multiplicity           Mult            ....    1
 Number of Electrons    NEL             ....  134
 Basis Dimension        Dim             ....  322

ORBITAL ENERGIES
----------------

  NO   OCC          E(Eh)            E(eV)
   0   2.0000     -88.965678     -2420.8792
   1   2.0000     -88.965502     -2420.8744
   2   2.0000     -10.334176      -281.2072
   3   2.0000     -10.327194      -281.0172
   4   2.0000     -10.322383      -280.8863
   5   2.0000     -10.320075      -280.8235
   6   2.0000     -10.318483      -280.7802
   7   2.0000     -10.307813      -280.4899
   8   2.0000     -10.302561      -280.3469
   9   2.0000     -10.300372      -280.2874
  10   2.0000     -10.297173      -280.2003
  11   2.0000     -10.293551      -280.1018
  12   2.0000     -10.290386      -280.0156
  13   2.0000     -10.286798      -279.9180
  14   2.0000     -10.285559      -279.8843
  15   2.0000     -10.279392      -279.7165
  16   2.0000      -8.080661      -219.8860
  17   2.0000      -8.079500      -219.8544
  18   2.0000      -6.039266      -164.3368
  19   2.0000      -6.038262      -164.3095
  20   2.0000      -6.035152      -164.2248
  21   2.0000      -6.034208      -164.1991
  22   2.0000      -6.031265      -164.1191
  23   2.0000      -6.029943      -164.0831
  24   2.0000      -1.005916       -27.3724
  25   2.0000      -0.981089       -26.6968
  26   2.0000      -0.912374       -24.8270
  27   2.0000      -0.908027       -24.7087
  28   2.0000      -0.872003       -23.7284
  29   2.0000      -0.847931       -23.0734
  30   2.0000      -0.841891       -22.9090
  31   2.0000      -0.814052       -22.1515
  32   2.0000      -0.783819       -21.3288
  33   2.0000      -0.769008       -20.9258
  34   2.0000      -0.707481       -19.2515
  35   2.0000      -0.691738       -18.8231
  36   2.0000      -0.685063       -18.6415
  37   2.0000      -0.666922       -18.1479
  38   2.0000      -0.637173       -17.3384
  39   2.0000      -0.608831       -16.5671
  40   2.0000      -0.595025       -16.1915
  41   2.0000      -0.570678       -15.5289
  42   2.0000      -0.564282       -15.3549
  43   2.0000      -0.562281       -15.3004
  44   2.0000      -0.535677       -14.5765
  45   2.0000      -0.523907       -14.2562
  46   2.0000      -0.513479       -13.9725
  47   2.0000      -0.510653       -13.8956
  48   2.0000      -0.505428       -13.7534
  49   2.0000      -0.502249       -13.6669
  50   2.0000      -0.485245       -13.2042
  51   2.0000      -0.482669       -13.1341
  52   2.0000      -0.473565       -12.8863
  53   2.0000      -0.461501       -12.5581
  54   2.0000      -0.450960       -12.2713
  55   2.0000      -0.448347       -12.2002
  56   2.0000      -0.445722       -12.1287
  57   2.0000      -0.435284       -11.8447
  58   2.0000      -0.433171       -11.7872
  59   2.0000      -0.422941       -11.5088
  60   2.0000      -0.414118       -11.2687
  61   2.0000      -0.406622       -11.0647
  62   2.0000      -0.403418       -10.9776
  63   2.0000      -0.345937        -9.4134
  64   2.0000      -0.330668        -8.9979
  65   2.0000      -0.323707        -8.8085
  66   2.0000      -0.299000        -8.1362
  67   0.0000       0.033848         0.9210
  68   0.0000       0.060479         1.6457
  69   0.0000       0.093746         2.5510
  70   0.0000       0.117589         3.1997
  71   0.0000       0.130257         3.5445

MULLIKEN ATOMIC CHARGES
-----------------------
   0 S :    0.094472
   1 C :   -0.125383
   2 C :   -0.046990
   3 C :   -0.025566
   4 C :   -0.131249
   5 H :    0.046144
   6 C :    0.044490
   7 H :    0.041792
   8 H :    0.012826
   9 C :   -0.096421
  10 H :    0.034341
  11 H :    0.029916
  12 C :   -0.039003
  13 H :    0.043703
  14 H :    0.036757
  15 H :    0.037410
  16 S :    0.107084
  17 C :   -0.088336
  18 C :   -0.010083
  19 C :   -0.044652
  20 C :   -0.143794
  21 H :    0.038065
  22 C :   -0.026087
  23 H :    0.031106
  24 H :    0.031069
  25 C :   -0.059209
  26 H :    0.025636
  27 H :    0.029956
  28 C :   -0.056284
  29 H :    0.017837
  30 H :    0.045517
  31 H :    0.042381
  32 H :    0.049395
  33 H :    0.053160
Sum of atomic charges:    0.0000000

LOEWDIN ATOMIC CHARGES
----------------------
   0 S :    0.388913
   1 C :   -0.172204
   2 C :   -0.048770
   3 C :   -0.075202
   4 C :   -0.203094
   5 H :    0.042305
   6 C :   -0.048263
   7 H :    0.043699
   8 H :    0.027875
   9 C :   -0.051895
  10 H :    0.029243
  11 H :    0.023622
  12 C :   -0.060711
  13 H :    0.035592
  14 H :    0.021653
  15 H :    0.032085
  16 S :    0.412052
  17 C :   -0.172318
  18 C :   -0.073306
  19 C :   -0.060324
  20 C :   -0.204728
  21 H :    0.039008
  22 C :   -0.049598
  23 H :    0.029725
  24 H :    0.032623
  25 C :   -0.050486
  26 H :    0.020928
  27 H :    0.024900
  28 C :   -0.062513
  29 H :    0.004594
  30 H :    0.036188
  31 H :    0.038582
  32 H :    0.023575
  33 H :    0.026250

  Mayer bond orders larger than 0.100000
B(  0-S ,  1-C ) :   1.1261 B(  0-S ,  4-C ) :   1.1329 B(  1-C ,  2-C ) :   1.6172
B(  1-C , 32-H ) :   0.9788 B(  2-C ,  3-C ) :   1.1992 B(  2-C ,  6-C ) :   1.0181
B(  3-C ,  4-C ) :   1.6095 B(  3-C ,  5-H ) :   0.9754 B(  4-C , 20-C ) :   1.0019
B(  6-C ,  7-H ) :   0.9292 B(  6-C ,  8-H ) :   0.9393 B(  6-C ,  9-C ) :   1.0690
B(  9-C , 10-H ) :   0.9493 B(  9-C , 11-H ) :   0.9500 B(  9-C , 12-C ) :   1.0844
B( 12-C , 13-H ) :   0.9718 B( 12-C , 14-H ) :   0.9759 B( 12-C , 15-H ) :   0.9748
B( 16-S , 17-C ) :   1.1572 B( 16-S , 20-C ) :   1.1300 B( 17-C , 18-C ) :   1.6233
B( 17-C , 33-H ) :   0.9678 B( 18-C , 19-C ) :   1.2334 B( 18-C , 21-H ) :   0.9792
B( 19-C , 20-C ) :   1.6432 B( 19-C , 22-C ) :   1.0327 B( 22-C , 23-H ) :   0.9385
B( 22-C , 24-H ) :   0.9375 B( 22-C , 25-C ) :   1.0713 B( 25-C , 26-H ) :   0.9498
B( 25-C , 27-H ) :   0.9514 B( 25-C , 28-C ) :   1.0721 B( 28-C , 29-H ) :   0.9793
B( 28-C , 30-H ) :   0.9735 B( 28-C , 31-H ) :   0.9742

Dispersion correction           -0.013922444
FINAL SINGLE POINT ENERGY     -1339.851761012582

DIPOLE MOMENT
-------------
                                X             Y             Z
Electronic contribution:      9.48090      -4.04309     -11.67094
Nuclear contribution   :     -9.69013       3.99682      11.84863
                        -----------------------------------------
Total Dipole Moment    :     -0.20923      -0.04627       0.17770
                        -----------------------------------------
Magnitude (a.u.)       :      0.27838
Magnitude (Debye)      :      0.70758

Rotational constants in cm-1:     0.020123     0.007650     0.006097
Rotational constants in MHz :   603.260128   229.342469   182.798282

                             ****ORCA TERMINATED NORMALLY****
TOTAL RUN TIME: 0 days 0 hours 0 minutes 33 seconds 194 msec
