                         Program Version 4.2.1 -  RELEASE  -
|  1> ! wB97X-D3 SP def2-SVP
|  2> %pal
|  3> nprocs 16
|  4> end
|  5>
|  6> * xyz 0 1
|  7> S 	 48.1756 	 10.07 	 84.843
|  8> C 	 46.47 	 9.74088 	 85.0479
|  9> C 	 46.0517 	 8.55422 	 84.459
| 10> C 	 47.1067 	 7.91844 	 83.7192
| 11> C 	 48.3599 	 8.53549 	 83.9052
| 12> H 	 47.0335 	 7.05657 	 83.037
| 13> C 	 44.6613 	 8.03646 	 84.3089
| 14> H 	 44.52 	 7.91474 	 83.2335
| 15> H 	 43.934 	 8.78475 	 84.6269
| 16> C 	 44.3696 	 6.67018 	 85.0085
| 17> H 	 43.4755 	 6.18561 	 84.5325
| 18> H 	 45.1769 	 6.0229 	 84.8894
| 19> C 	 44.1814 	 6.73963 	 86.4787
| 20> H 	 43.7955 	 5.81259 	 86.7827
| 21> H 	 45.1433 	 6.8947 	 86.9867
| 22> H 	 43.4883 	 7.4867 	 86.8543
| 23> S 	 50.3557 	 9.47337 	 82.3027
| 24> C 	 51.5076 	 8.45402 	 81.5558
| 25> C 	 51.2065 	 7.16256 	 81.86
| 26> C 	 50.1129 	 7.00318 	 82.7794
| 27> C 	 49.5173 	 8.20314 	 83.101
| 28> H 	 51.8737 	 6.33232 	 81.6806
| 29> C 	 49.7736 	 5.65605 	 83.389
| 30> H 	 48.696 	 5.46993 	 83.5935
| 31> H 	 50.1572 	 5.50323 	 84.3903
| 32> C 	 50.135 	 4.40901 	 82.5135
| 33> H 	 51.2181 	 4.27885 	 82.2678
| 34> H 	 49.6589 	 4.45849 	 81.4895
| 35> C 	 49.6926 	 3.05554 	 83.1877
| 36> H 	 48.6073 	 2.96768 	 83.4005
| 37> H 	 50.1979 	 2.80102 	 84.0296
| 38> H 	 49.8613 	 2.18827 	 82.4897
| 39> H 	 45.889 	 10.3307 	 85.7003
| 40> H 	 52.4217 	 8.68794 	 80.9698
| 41> *
| 42>
| 43>                          ****END OF INPUT****

CARTESIAN COORDINATES (ANGSTROEM)
---------------------------------
  S     48.175600   10.070000   84.843000
  C     46.470000    9.740880   85.047900
  C     46.051700    8.554220   84.459000
  C     47.106700    7.918440   83.719200
  C     48.359900    8.535490   83.905200
  H     47.033500    7.056570   83.037000
  C     44.661300    8.036460   84.308900
  H     44.520000    7.914740   83.233500
  H     43.934000    8.784750   84.626900
  C     44.369600    6.670180   85.008500
  H     43.475500    6.185610   84.532500
  H     45.176900    6.022900   84.889400
  C     44.181400    6.739630   86.478700
  H     43.795500    5.812590   86.782700
  H     45.143300    6.894700   86.986700
  H     43.488300    7.486700   86.854300
  S     50.355700    9.473370   82.302700
  C     51.507600    8.454020   81.555800
  C     51.206500    7.162560   81.860000
  C     50.112900    7.003180   82.779400
  C     49.517300    8.203140   83.101000
  H     51.873700    6.332320   81.680600
  C     49.773600    5.656050   83.389000
  H     48.696000    5.469930   83.593500
  H     50.157200    5.503230   84.390300
  C     50.135000    4.409010   82.513500
  H     51.218100    4.278850   82.267800
  H     49.658900    4.458490   81.489500
  C     49.692600    3.055540   83.187700
  H     48.607300    2.967680   83.400500
  H     50.197900    2.801020   84.029600
  H     49.861300    2.188270   82.489700
  H     45.889000   10.330700   85.700300
  H     52.421700    8.687940   80.969800

 Total Charge           Charge          ....    0
 Multiplicity           Mult            ....    1
 Number of Electrons    NEL             ....  134
 Basis Dimension        Dim             ....  322

ORBITAL ENERGIES
----------------

  NO   OCC          E(Eh)            E(eV)
   0   2.0000     -88.970566     -2421.0122
   1   2.0000     -88.962630     -2420.7962
   2   2.0000     -10.335777      -281.2508
   3   2.0000     -10.322691      -280.8947
   4   2.0000     -10.315902      -280.7100
   5   2.0000     -10.314539      -280.6729
   6   2.0000     -10.303967      -280.3852
   7   2.0000     -10.300922      -280.3023
   8   2.0000     -10.300763      -280.2980
   9   2.0000     -10.299118      -280.2532
  10   2.0000     -10.295563      -280.1565
  11   2.0000     -10.292250      -280.0664
  12   2.0000     -10.287954      -279.9494
  13   2.0000     -10.284013      -279.8422
  14   2.0000     -10.278955      -279.7046
  15   2.0000     -10.268843      -279.4294
  16   2.0000      -8.084266      -219.9841
  17   2.0000      -8.078679      -219.8320
  18   2.0000      -6.042865      -164.4347
  19   2.0000      -6.038982      -164.3291
  20   2.0000      -6.037174      -164.2799
  21   2.0000      -6.034927      -164.2187
  22   2.0000      -6.032812      -164.1612
  23   2.0000      -6.029531      -164.0719
  24   2.0000      -1.011069       -27.5126
  25   2.0000      -0.983623       -26.7657
  26   2.0000      -0.914456       -24.8836
  27   2.0000      -0.901932       -24.5428
  28   2.0000      -0.874664       -23.8008
  29   2.0000      -0.855155       -23.2700
  30   2.0000      -0.844689       -22.9852
  31   2.0000      -0.815134       -22.1809
  32   2.0000      -0.781874       -21.2759
  33   2.0000      -0.773779       -21.0556
  34   2.0000      -0.708703       -19.2848
  35   2.0000      -0.701768       -19.0961
  36   2.0000      -0.697388       -18.9769
  37   2.0000      -0.656089       -17.8531
  38   2.0000      -0.640829       -17.4378
  39   2.0000      -0.622167       -16.9300
  40   2.0000      -0.602936       -16.4067
  41   2.0000      -0.571675       -15.5561
  42   2.0000      -0.557782       -15.1780
  43   2.0000      -0.552041       -15.0218
  44   2.0000      -0.538052       -14.6411
  45   2.0000      -0.524440       -14.2707
  46   2.0000      -0.519425       -14.1343
  47   2.0000      -0.511110       -13.9080
  48   2.0000      -0.505220       -13.7477
  49   2.0000      -0.496083       -13.4991
  50   2.0000      -0.489531       -13.3208
  51   2.0000      -0.484124       -13.1737
  52   2.0000      -0.470510       -12.8032
  53   2.0000      -0.464744       -12.6463
  54   2.0000      -0.459448       -12.5022
  55   2.0000      -0.453410       -12.3379
  56   2.0000      -0.445034       -12.1100
  57   2.0000      -0.433766       -11.8034
  58   2.0000      -0.432647       -11.7729
  59   2.0000      -0.430730       -11.7208
  60   2.0000      -0.419980       -11.4282
  61   2.0000      -0.417417       -11.3585
  62   2.0000      -0.413140       -11.2421
  63   2.0000      -0.356083        -9.6895
  64   2.0000      -0.330658        -8.9977
  65   2.0000      -0.327539        -8.9128
  66   2.0000      -0.288563        -7.8522
  67   0.0000       0.023620         0.6427
  68   0.0000       0.077369         2.1053
  69   0.0000       0.109131         2.9696
  70   0.0000       0.118398         3.2218
  71   0.0000       0.131460         3.5772

MULLIKEN ATOMIC CHARGES
-----------------------
   0 S :    0.104745
   1 C :   -0.108668
   2 C :   -0.064382
   3 C :   -0.005568
   4 C :   -0.142917
   5 H :    0.040396
   6 C :    0.062380
   7 H :    0.036036
   8 H :    0.017729
   9 C :   -0.064108
  10 H :    0.032782
  11 H :    0.010535
  12 C :   -0.025267
  13 H :    0.016862
  14 H :    0.036722
  15 H :    0.021268
  16 S :    0.110434
  17 C :   -0.088961
  18 C :   -0.032198
  19 C :   -0.040116
  20 C :   -0.137628
  21 H :    0.013588
  22 C :    0.064998
  23 H :    0.016505
  24 H :    0.037000
  25 C :   -0.137802
  26 H :    0.040291
  27 H :    0.042898
  28 C :   -0.043926
  29 H :    0.030604
  30 H :    0.016493
  31 H :    0.031133
  32 H :    0.037349
  33 H :    0.070792
Sum of atomic charges:   -0.0000000

LOEWDIN ATOMIC CHARGES
----------------------
   0 S :    0.383706
   1 C :   -0.185538
   2 C :   -0.064921
   3 C :   -0.049471
   4 C :   -0.178978
   5 H :    0.037430
   6 C :   -0.030889
   7 H :    0.036689
   8 H :    0.028108
   9 C :   -0.037343
  10 H :    0.028698
  11 H :    0.016248
  12 C :   -0.061331
  13 H :    0.021089
  14 H :    0.029656
  15 H :    0.020946
  16 S :    0.435479
  17 C :   -0.207921
  18 C :   -0.076503
  19 C :   -0.066552
  20 C :   -0.207503
  21 H :    0.028364
  22 C :   -0.038112
  23 H :    0.032492
  24 H :    0.034176
  25 C :   -0.046438
  26 H :    0.022865
  27 H :    0.030231
  28 C :   -0.066428
  29 H :    0.026233
  30 H :    0.007983
  31 H :    0.033583
  32 H :    0.018286
  33 H :    0.045665

  Mayer bond orders larger than 0.100000
B(  0-S ,  1-C ) :   1.1350 B(  0-S ,  4-C ) :   1.1326 B(  1-C ,  2-C ) :   1.6062
B(  1-C , 32-H ) :   0.9701 B(  2-C ,  3-C ) :   1.2292 B(  2-C ,  6-C ) :   1.0321
B(  3-C ,  4-C ) :   1.5747 B(  3-C ,  5-H ) :   0.9787 B(  4-C , 20-C ) :   1.0642
B(  6-C ,  7-H ) :   0.9394 B(  6-C ,  8-H ) :   0.9461 B(  6-C ,  9-C ) :   1.0617
B(  9-C , 10-H ) :   0.9577 B(  9-C , 11-H ) :   0.9555 B(  9-C , 12-C ) :   1.0864
B( 12-C , 13-H ) :   0.9687 B( 12-C , 14-H ) :   0.9741 B( 12-C , 15-H ) :   0.9748
B( 16-S , 17-C ) :   1.1621 B( 16-S , 20-C ) :   1.1475 B( 17-C , 18-C ) :   1.5912
B( 17-C , 33-H ) :   0.9601 B( 18-C , 19-C ) :   1.2825 B( 18-C , 21-H ) :   0.9825
B( 19-C , 20-C ) :   1.5839 B( 19-C , 22-C ) :   1.0357 B( 22-C , 23-H ) :   0.9386
B( 22-C , 24-H ) :   0.9319 B( 22-C , 25-C ) :   1.0542 B( 25-C , 26-H ) :   0.9497
B( 25-C , 27-H ) :   0.9608 B( 25-C , 28-C ) :   1.0783 B( 28-C , 29-H ) :   0.9749
B( 28-C , 30-H ) :   0.9781 B( 28-C , 31-H ) :   0.9734

Dispersion correction           -0.013648955
FINAL SINGLE POINT ENERGY     -1339.877196040196

DIPOLE MOMENT
-------------
                                X             Y             Z
Electronic contribution:     13.86848      27.83702      -4.71271
Nuclear contribution   :    -14.15730     -28.47388       4.73812
                        -----------------------------------------
Total Dipole Moment    :     -0.28882      -0.63686       0.02541
                        -----------------------------------------
Magnitude (a.u.)       :      0.69975
Magnitude (Debye)      :      1.77863

Rotational constants in cm-1:     0.016366     0.009297     0.006314
Rotational constants in MHz :   490.626360   278.730349   189.274417

                             ****ORCA TERMINATED NORMALLY****
TOTAL RUN TIME: 0 days 0 hours 0 minutes 29 seconds 592 msec
