                         Program Version 4.2.1 -  RELEASE  -
|  1> ! wB97X-D3 SP def2-SVP
|  2> %pal
|  3> nprocs 16
|  4> end
|  5>
|  6> * xyz 0 1
|  7> S 	 -42.2998 	 49.5116 	 105.157
|  8> C 	 -41.655 	 47.8625 	 105.397
|  9> C 	 -42.6624 	 46.8752 	 105.354
| 10> C 	 -43.9652 	 47.5972 	 105.226
| 11> C 	 -43.9065 	 48.999 	 105.217
| 12> H 	 -44.9615 	 47.1713 	 105.248
| 13> C 	 -42.4338 	 45.3436 	 105.276
| 14> H 	 -41.3882 	 45.1968 	 104.916
| 15> H 	 -43.0717 	 44.9521 	 104.496
| 16> C 	 -42.5265 	 44.526 	 106.645
| 17> H 	 -43.4566 	 44.8784 	 107.081
| 18> H 	 -42.6695 	 43.5275 	 106.591
| 19> C 	 -41.3863 	 44.7363 	 107.646
| 20> H 	 -41.5554 	 44.1483 	 108.539
| 21> H 	 -40.4589 	 44.3576 	 107.235
| 22> H 	 -41.3221 	 45.7948 	 107.905
| 23> S 	 -44.6552 	 50.9495 	 103.451
| 24> C 	 -46.2797 	 51.6637 	 103.507
| 25> C 	 -47.0112 	 51.1157 	 104.549
| 26> C 	 -46.2806 	 50.1626 	 105.281
| 27> C 	 -44.9908 	 49.8982 	 104.844
| 28> H 	 -48.0441 	 51.4688 	 104.794
| 29> C 	 -47.0188 	 49.4017 	 106.379
| 30> H 	 -47.3343 	 50.144 	 107.064
| 31> H 	 -46.3886 	 48.7074 	 106.856
| 32> C 	 -48.2053 	 48.6342 	 105.924
| 33> H 	 -48.7852 	 49.3637 	 105.345
| 34> H 	 -48.7477 	 48.3373 	 106.807
| 35> C 	 -47.9675 	 47.4918 	 104.987
| 36> H 	 -47.2186 	 47.8555 	 104.286
| 37> H 	 -48.8115 	 47.0643 	 104.422
| 38> H 	 -47.4672 	 46.5761 	 105.497
| 39> H 	 -40.6005 	 47.6991 	 105.287
| 40> H 	 -46.6531 	 52.511 	 102.881
| 41> *
| 42>
| 43>                          ****END OF INPUT****

CARTESIAN COORDINATES (ANGSTROEM)
---------------------------------
  S    -42.299800   49.511600  105.157000
  C    -41.655000   47.862500  105.397000
  C    -42.662400   46.875200  105.354000
  C    -43.965200   47.597200  105.226000
  C    -43.906500   48.999000  105.217000
  H    -44.961500   47.171300  105.248000
  C    -42.433800   45.343600  105.276000
  H    -41.388200   45.196800  104.916000
  H    -43.071700   44.952100  104.496000
  C    -42.526500   44.526000  106.645000
  H    -43.456600   44.878400  107.081000
  H    -42.669500   43.527500  106.591000
  C    -41.386300   44.736300  107.646000
  H    -41.555400   44.148300  108.539000
  H    -40.458900   44.357600  107.235000
  H    -41.322100   45.794800  107.905000
  S    -44.655200   50.949500  103.451000
  C    -46.279700   51.663700  103.507000
  C    -47.011200   51.115700  104.549000
  C    -46.280600   50.162600  105.281000
  C    -44.990800   49.898200  104.844000
  H    -48.044100   51.468800  104.794000
  C    -47.018800   49.401700  106.379000
  H    -47.334300   50.144000  107.064000
  H    -46.388600   48.707400  106.856000
  C    -48.205300   48.634200  105.924000
  H    -48.785200   49.363700  105.345000
  H    -48.747700   48.337300  106.807000
  C    -47.967500   47.491800  104.987000
  H    -47.218600   47.855500  104.286000
  H    -48.811500   47.064300  104.422000
  H    -47.467200   46.576100  105.497000
  H    -40.600500   47.699100  105.287000
  H    -46.653100   52.511000  102.881000

 Total Charge           Charge          ....    0
 Multiplicity           Mult            ....    1
 Number of Electrons    NEL             ....  134
 Basis Dimension        Dim             ....  322

ORBITAL ENERGIES
----------------

  NO   OCC          E(Eh)            E(eV)
   0   2.0000     -88.967501     -2420.9288
   1   2.0000     -88.965915     -2420.8856
   2   2.0000     -10.331834      -281.1435
   3   2.0000     -10.330163      -281.0980
   4   2.0000     -10.325664      -280.9756
   5   2.0000     -10.322134      -280.8795
   6   2.0000     -10.320332      -280.8305
   7   2.0000     -10.306601      -280.4569
   8   2.0000     -10.302335      -280.3408
   9   2.0000     -10.302087      -280.3340
  10   2.0000     -10.298321      -280.2316
  11   2.0000     -10.282208      -279.7931
  12   2.0000     -10.281065      -279.7620
  13   2.0000     -10.279895      -279.7302
  14   2.0000     -10.279508      -279.7196
  15   2.0000     -10.275429      -279.6086
  16   2.0000      -8.082885      -219.9465
  17   2.0000      -8.079899      -219.8652
  18   2.0000      -6.041376      -164.3942
  19   2.0000      -6.038474      -164.3152
  20   2.0000      -6.037249      -164.2819
  21   2.0000      -6.034482      -164.2066
  22   2.0000      -6.033651      -164.1840
  23   2.0000      -6.030625      -164.1017
  24   2.0000      -1.007327       -27.4108
  25   2.0000      -0.981137       -26.6981
  26   2.0000      -0.920974       -25.0610
  27   2.0000      -0.905905       -24.6509
  28   2.0000      -0.870204       -23.6795
  29   2.0000      -0.847064       -23.0498
  30   2.0000      -0.842719       -22.9316
  31   2.0000      -0.812253       -22.1025
  32   2.0000      -0.785100       -21.3637
  33   2.0000      -0.778283       -21.1782
  34   2.0000      -0.710308       -19.3285
  35   2.0000      -0.698928       -19.0188
  36   2.0000      -0.691385       -18.8135
  37   2.0000      -0.658812       -17.9272
  38   2.0000      -0.645676       -17.5697
  39   2.0000      -0.613171       -16.6852
  40   2.0000      -0.599197       -16.3050
  41   2.0000      -0.569973       -15.5098
  42   2.0000      -0.564451       -15.3595
  43   2.0000      -0.553036       -15.0489
  44   2.0000      -0.543153       -14.7799
  45   2.0000      -0.541873       -14.7451
  46   2.0000      -0.515130       -14.0174
  47   2.0000      -0.509199       -13.8560
  48   2.0000      -0.504636       -13.7318
  49   2.0000      -0.496866       -13.5204
  50   2.0000      -0.490638       -13.3509
  51   2.0000      -0.475020       -12.9259
  52   2.0000      -0.471491       -12.8299
  53   2.0000      -0.464973       -12.6526
  54   2.0000      -0.460546       -12.5321
  55   2.0000      -0.450046       -12.2464
  56   2.0000      -0.445526       -12.1234
  57   2.0000      -0.442912       -12.0522
  58   2.0000      -0.439673       -11.9641
  59   2.0000      -0.423958       -11.5365
  60   2.0000      -0.417371       -11.3572
  61   2.0000      -0.409520       -11.1436
  62   2.0000      -0.408389       -11.1128
  63   2.0000      -0.348020        -9.4701
  64   2.0000      -0.332994        -9.0612
  65   2.0000      -0.329104        -8.9554
  66   2.0000      -0.294727        -8.0199
  67   0.0000       0.026927         0.7327
  68   0.0000       0.065268         1.7760
  69   0.0000       0.104211         2.8357
  70   0.0000       0.116376         3.1668
  71   0.0000       0.128160         3.4874

MULLIKEN ATOMIC CHARGES
-----------------------
   0 S :    0.099526
   1 C :   -0.119001
   2 C :   -0.087682
   3 C :    0.027169
   4 C :   -0.130867
   5 H :   -0.005761
   6 C :    0.056732
   7 H :    0.025173
   8 H :    0.040811
   9 C :   -0.031717
  10 H :    0.017370
  11 H :    0.005840
  12 C :   -0.051164
  13 H :    0.031722
  14 H :    0.023382
  15 H :    0.043466
  16 S :    0.090733
  17 C :   -0.105235
  18 C :   -0.057179
  19 C :   -0.079240
  20 C :   -0.143583
  21 H :    0.044338
  22 C :    0.123522
  23 H :    0.020851
  24 H :    0.003166
  25 C :   -0.056209
  26 H :    0.015038
  27 H :    0.029136
  28 C :   -0.085654
  29 H :    0.044224
  30 H :    0.045823
  31 H :    0.035574
  32 H :    0.053259
  33 H :    0.076433
Sum of atomic charges:    0.0000000

LOEWDIN ATOMIC CHARGES
----------------------
   0 S :    0.420412
   1 C :   -0.184476
   2 C :   -0.053119
   3 C :   -0.061793
   4 C :   -0.221162
   5 H :    0.023815
   6 C :   -0.026734
   7 H :    0.032358
   8 H :    0.034403
   9 C :   -0.033168
  10 H :    0.023328
  11 H :    0.008998
  12 C :   -0.060085
  13 H :    0.027617
  14 H :    0.020917
  15 H :    0.027651
  16 S :    0.385417
  17 C :   -0.181381
  18 C :   -0.081091
  19 C :   -0.062880
  20 C :   -0.188247
  21 H :    0.041457
  22 C :   -0.021265
  23 H :    0.031417
  24 H :    0.019984
  25 C :   -0.042318
  26 H :    0.022387
  27 H :    0.023388
  28 C :   -0.075319
  29 H :    0.027087
  30 H :    0.030701
  31 H :    0.027358
  32 H :    0.022630
  33 H :    0.041715

  Mayer bond orders larger than 0.100000
B(  0-S ,  1-C ) :   1.1473 B(  0-S ,  4-C ) :   1.1561 B(  1-C ,  2-C ) :   1.5992
B(  1-C , 32-H ) :   0.9682 B(  2-C ,  3-C ) :   1.2320 B(  2-C ,  6-C ) :   1.0181
B(  3-C ,  4-C ) :   1.5698 B(  3-C ,  5-H ) :   0.9855 B(  4-C , 20-C ) :   1.0360
B(  6-C ,  7-H ) :   0.9492 B(  6-C ,  8-H ) :   0.9462 B(  6-C ,  9-C ) :   1.0446
B(  9-C , 10-H ) :   0.9573 B(  9-C , 11-H ) :   0.9597 B(  9-C , 12-C ) :   1.0849
B( 12-C , 13-H ) :   0.9727 B( 12-C , 14-H ) :   0.9749 B( 12-C , 15-H ) :   0.9775
B( 16-S , 17-C ) :   1.1544 B( 16-S , 20-C ) :   1.1263 B( 17-C , 18-C ) :   1.6032
B( 17-C , 20-C ) :   0.1024 B( 17-C , 33-H ) :   0.9606 B( 18-C , 19-C ) :   1.2495
B( 18-C , 21-H ) :   0.9782 B( 19-C , 20-C ) :   1.6055 B( 19-C , 22-C ) :   1.0463
B( 22-C , 23-H ) :   0.9214 B( 22-C , 24-H ) :   0.9332 B( 22-C , 25-C ) :   1.0866
B( 25-C , 26-H ) :   0.9478 B( 25-C , 27-H ) :   0.9504 B( 25-C , 28-C ) :   1.0782
B( 28-C , 29-H ) :   0.9684 B( 28-C , 30-H ) :   0.9708 B( 28-C , 31-H ) :   0.9657

Dispersion correction           -0.014639408
FINAL SINGLE POINT ENERGY     -1339.866510606611

DIPOLE MOMENT
-------------
                                X             Y             Z
Electronic contribution:      8.35363      23.53810     -11.17706
Nuclear contribution   :     -8.71661     -24.00393      11.28315
                        -----------------------------------------
Total Dipole Moment    :     -0.36297      -0.46583       0.10609
                        -----------------------------------------
Magnitude (a.u.)       :      0.60000
Magnitude (Debye)      :      1.52508

Rotational constants in cm-1:     0.020944     0.008390     0.006506
Rotational constants in MHz :   627.885268   251.526872   195.046823

                             ****ORCA TERMINATED NORMALLY****
TOTAL RUN TIME: 0 days 0 hours 0 minutes 30 seconds 305 msec
