                         Program Version 4.2.1 -  RELEASE  -
|  1> ! wB97X-D3 SP def2-SVP
|  2> %pal
|  3> nprocs 16
|  4> end
|  5>
|  6> * xyz 0 1
|  7> S 	 -3.5276 	 -11.2266 	 87.2551
|  8> C 	 -2.94775 	 -12.6471 	 88.258
|  9> C 	 -3.18131 	 -13.7909 	 87.5718
| 10> C 	 -3.79059 	 -13.616 	 86.2492
| 11> C 	 -4.03368 	 -12.2983 	 85.9618
| 12> H 	 -4.06831 	 -14.4054 	 85.5082
| 13> C 	 -2.97551 	 -15.2388 	 88.0642
| 14> H 	 -2.14725 	 -15.2695 	 88.7052
| 15> H 	 -2.80453 	 -15.7929 	 87.1798
| 16> C 	 -4.24988 	 -15.904 	 88.7669
| 17> H 	 -4.24564 	 -15.6108 	 89.8205
| 18> H 	 -5.21047 	 -15.5473 	 88.4682
| 19> C 	 -4.28825 	 -17.4187 	 88.6699
| 20> H 	 -5.15075 	 -17.934 	 89.0643
| 21> H 	 -4.19449 	 -17.7988 	 87.7073
| 22> H 	 -3.49012 	 -17.8504 	 89.2798
| 23> S 	 -4.05981 	 -10.3484 	 84.1503
| 24> C 	 -5.10206 	 -10.4082 	 82.7348
| 25> C 	 -5.84442 	 -11.6089 	 82.7273
| 26> C 	 -5.62976 	 -12.4014 	 83.908
| 27> C 	 -4.77794 	 -11.7836 	 84.8253
| 28> H 	 -6.40759 	 -11.8571 	 81.7811
| 29> C 	 -6.39897 	 -13.7034 	 84.1322
| 30> H 	 -7.45 	 -13.4621 	 84.1709
| 31> H 	 -6.29543 	 -14.0088 	 85.2399
| 32> C 	 -6.00376 	 -14.8457 	 83.1521
| 33> H 	 -4.99297 	 -15.1547 	 83.3612
| 34> H 	 -5.89883 	 -14.3893 	 82.1588
| 35> C 	 -6.80207 	 -16.1242 	 83.2376
| 36> H 	 -7.793 	 -15.9786 	 82.9595
| 37> H 	 -6.78196 	 -16.5883 	 84.2413
| 38> H 	 -6.37351 	 -16.8258 	 82.556
| 39> H 	 -2.46763 	 -12.5333 	 89.2609
| 40> H 	 -5.12739 	 -9.77429 	 81.8796
| 41> *
| 42>
| 43>                          ****END OF INPUT****

CARTESIAN COORDINATES (ANGSTROEM)
---------------------------------
  S     -3.527600  -11.226600   87.255100
  C     -2.947750  -12.647100   88.258000
  C     -3.181310  -13.790900   87.571800
  C     -3.790590  -13.616000   86.249200
  C     -4.033680  -12.298300   85.961800
  H     -4.068310  -14.405400   85.508200
  C     -2.975510  -15.238800   88.064200
  H     -2.147250  -15.269500   88.705200
  H     -2.804530  -15.792900   87.179800
  C     -4.249880  -15.904000   88.766900
  H     -4.245640  -15.610800   89.820500
  H     -5.210470  -15.547300   88.468200
  C     -4.288250  -17.418700   88.669900
  H     -5.150750  -17.934000   89.064300
  H     -4.194490  -17.798800   87.707300
  H     -3.490120  -17.850400   89.279800
  S     -4.059810  -10.348400   84.150300
  C     -5.102060  -10.408200   82.734800
  C     -5.844420  -11.608900   82.727300
  C     -5.629760  -12.401400   83.908000
  C     -4.777940  -11.783600   84.825300
  H     -6.407590  -11.857100   81.781100
  C     -6.398970  -13.703400   84.132200
  H     -7.450000  -13.462100   84.170900
  H     -6.295430  -14.008800   85.239900
  C     -6.003760  -14.845700   83.152100
  H     -4.992970  -15.154700   83.361200
  H     -5.898830  -14.389300   82.158800
  C     -6.802070  -16.124200   83.237600
  H     -7.793000  -15.978600   82.959500
  H     -6.781960  -16.588300   84.241300
  H     -6.373510  -16.825800   82.556000
  H     -2.467630  -12.533300   89.260900
  H     -5.127390   -9.774290   81.879600

 Total Charge           Charge          ....    0
 Multiplicity           Mult            ....    1
 Number of Electrons    NEL             ....  134
 Basis Dimension        Dim             ....  322

ORBITAL ENERGIES
----------------

  NO   OCC          E(Eh)            E(eV)
   0   2.0000     -88.967919     -2420.9402
   1   2.0000     -88.962343     -2420.7884
   2   2.0000     -10.330020      -281.0941
   3   2.0000     -10.327553      -281.0270
   4   2.0000     -10.320936      -280.8469
   5   2.0000     -10.320341      -280.8308
   6   2.0000     -10.310196      -280.5547
   7   2.0000     -10.305532      -280.4278
   8   2.0000     -10.303529      -280.3733
   9   2.0000     -10.298211      -280.2286
  10   2.0000     -10.296673      -280.1867
  11   2.0000     -10.292093      -280.0621
  12   2.0000     -10.290401      -280.0160
  13   2.0000     -10.287753      -279.9440
  14   2.0000     -10.275144      -279.6009
  15   2.0000     -10.271421      -279.4996
  16   2.0000      -8.082519      -219.9365
  17   2.0000      -8.076131      -219.7627
  18   2.0000      -6.041046      -164.3852
  19   2.0000      -6.036956      -164.2739
  20   2.0000      -6.034985      -164.2203
  21   2.0000      -6.033331      -164.1753
  22   2.0000      -6.030879      -164.1086
  23   2.0000      -6.026463      -163.9884
  24   2.0000      -1.005208       -27.3531
  25   2.0000      -0.976456       -26.5707
  26   2.0000      -0.909326       -24.7440
  27   2.0000      -0.904962       -24.6253
  28   2.0000      -0.870413       -23.6851
  29   2.0000      -0.856149       -23.2970
  30   2.0000      -0.840983       -22.8843
  31   2.0000      -0.813765       -22.1437
  32   2.0000      -0.783021       -21.3071
  33   2.0000      -0.775170       -21.0934
  34   2.0000      -0.710391       -19.3307
  35   2.0000      -0.708052       -19.2671
  36   2.0000      -0.698290       -19.0014
  37   2.0000      -0.661621       -18.0036
  38   2.0000      -0.635907       -17.3039
  39   2.0000      -0.616119       -16.7654
  40   2.0000      -0.592371       -16.1192
  41   2.0000      -0.564291       -15.3551
  42   2.0000      -0.559840       -15.2340
  43   2.0000      -0.556404       -15.1405
  44   2.0000      -0.532802       -14.4983
  45   2.0000      -0.525282       -14.2937
  46   2.0000      -0.518574       -14.1111
  47   2.0000      -0.513483       -13.9726
  48   2.0000      -0.508384       -13.8338
  49   2.0000      -0.500124       -13.6091
  50   2.0000      -0.493235       -13.4216
  51   2.0000      -0.487723       -13.2716
  52   2.0000      -0.471159       -12.8209
  53   2.0000      -0.465418       -12.6647
  54   2.0000      -0.458935       -12.4882
  55   2.0000      -0.452211       -12.3053
  56   2.0000      -0.443629       -12.0718
  57   2.0000      -0.442061       -12.0291
  58   2.0000      -0.432328       -11.7642
  59   2.0000      -0.427617       -11.6360
  60   2.0000      -0.420085       -11.4311
  61   2.0000      -0.412398       -11.2219
  62   2.0000      -0.410265       -11.1639
  63   2.0000      -0.353917        -9.6306
  64   2.0000      -0.331586        -9.0229
  65   2.0000      -0.327007        -8.8983
  66   2.0000      -0.290613        -7.9080
  67   0.0000       0.023418         0.6372
  68   0.0000       0.077103         2.0981
  69   0.0000       0.095907         2.6098
  70   0.0000       0.114726         3.1218
  71   0.0000       0.125123         3.4048

MULLIKEN ATOMIC CHARGES
-----------------------
   0 S :    0.077339
   1 C :   -0.152068
   2 C :   -0.077480
   3 C :   -0.020014
   4 C :   -0.108736
   5 H :    0.026864
   6 C :    0.110684
   7 H :    0.017047
   8 H :    0.012219
   9 C :   -0.048155
  10 H :    0.023134
  11 H :    0.021522
  12 C :   -0.042118
  13 H :    0.025414
  14 H :    0.016155
  15 H :    0.022519
  16 S :    0.100826
  17 C :   -0.077268
  18 C :   -0.068912
  19 C :   -0.054779
  20 C :   -0.097238
  21 H :    0.047270
  22 C :    0.011612
  23 H :    0.032027
  24 H :    0.031966
  25 C :   -0.073596
  26 H :    0.016781
  27 H :    0.026629
  28 C :    0.004261
  29 H :    0.018362
  30 H :    0.033363
  31 H :    0.027750
  32 H :    0.068715
  33 H :    0.047903
Sum of atomic charges:   -0.0000000

LOEWDIN ATOMIC CHARGES
----------------------
   0 S :    0.356049
   1 C :   -0.182267
   2 C :   -0.056880
   3 C :   -0.075556
   4 C :   -0.184245
   5 H :    0.039915
   6 C :   -0.012738
   7 H :    0.022486
   8 H :    0.023950
   9 C :   -0.034889
  10 H :    0.025565
  11 H :    0.019864
  12 C :   -0.066883
  13 H :    0.027660
  14 H :    0.013775
  15 H :    0.026260
  16 S :    0.415972
  17 C :   -0.183125
  18 C :   -0.076757
  19 C :   -0.055953
  20 C :   -0.199975
  21 H :    0.042958
  22 C :   -0.042003
  23 H :    0.029502
  24 H :    0.036179
  25 C :   -0.041261
  26 H :    0.021076
  27 H :    0.026013
  28 C :   -0.056113
  29 H :    0.015135
  30 H :    0.031410
  31 H :    0.027360
  32 H :    0.041665
  33 H :    0.025852

  Mayer bond orders larger than 0.100000
B(  0-S ,  1-C ) :   1.0834 B(  0-S ,  4-C ) :   1.1284 B(  1-C ,  2-C ) :   1.6745
B(  1-C , 32-H ) :   0.9677 B(  2-C ,  3-C ) :   1.1796 B(  2-C ,  6-C ) :   1.0272
B(  3-C ,  4-C ) :   1.6360 B(  3-C ,  5-H ) :   0.9794 B(  4-C , 20-C ) :   1.0253
B(  6-C ,  7-H ) :   0.9420 B(  6-C ,  8-H ) :   0.9461 B(  6-C ,  9-C ) :   1.0394
B(  9-C , 10-H ) :   0.9557 B(  9-C , 11-H ) :   0.9648 B(  9-C , 12-C ) :   1.0810
B( 12-C , 13-H ) :   0.9723 B( 12-C , 14-H ) :   0.9769 B( 12-C , 15-H ) :   0.9747
B( 16-S , 17-C ) :   1.1625 B( 16-S , 20-C ) :   1.1394 B( 17-C , 18-C ) :   1.6049
B( 17-C , 33-H ) :   0.9701 B( 18-C , 19-C ) :   1.2478 B( 18-C , 21-H ) :   0.9789
B( 19-C , 20-C ) :   1.5951 B( 19-C , 22-C ) :   1.0233 B( 22-C , 23-H ) :   0.9438
B( 22-C , 24-H ) :   0.9414 B( 22-C , 25-C ) :   1.0400 B( 25-C , 26-H ) :   0.9493
B( 25-C , 27-H ) :   0.9570 B( 25-C , 28-C ) :   1.0889 B( 28-C , 29-H ) :   0.9742
B( 28-C , 30-H ) :   0.9705 B( 28-C , 31-H ) :   0.9708

Dispersion correction           -0.013987187
FINAL SINGLE POINT ENERGY     -1339.867860425857

DIPOLE MOMENT
-------------
                                X             Y             Z
Electronic contribution:      9.02272      32.94833      -2.09598
Nuclear contribution   :     -9.25909     -33.77610       1.87831
                        -----------------------------------------
Total Dipole Moment    :     -0.23637      -0.82777      -0.21766
                        -----------------------------------------
Magnitude (a.u.)       :      0.88795
Magnitude (Debye)      :      2.25699

Rotational constants in cm-1:     0.016313     0.009861     0.006375
Rotational constants in MHz :   489.057620   295.619537   191.132231

                             ****ORCA TERMINATED NORMALLY****
TOTAL RUN TIME: 0 days 0 hours 0 minutes 31 seconds 827 msec
