                         Program Version 4.2.1 -  RELEASE  -
|  1> ! wB97X-D3 SP def2-SVP
|  2> %pal
|  3> nprocs 16
|  4> end
|  5>
|  6> * xyz 0 1
|  7> S 	 -2.71287 	 75.8132 	 57.2415
|  8> C 	 -3.41115 	 74.4037 	 58.0705
|  9> C 	 -3.46448 	 73.3042 	 57.1919
| 10> C 	 -2.98773 	 73.5423 	 55.8285
| 11> C 	 -2.50923 	 74.8371 	 55.7375
| 12> H 	 -3.00221 	 72.8803 	 54.9766
| 13> C 	 -3.98505 	 71.9114 	 57.5073
| 14> H 	 -4.22096 	 71.4768 	 56.5246
| 15> H 	 -4.87752 	 71.9405 	 58.1093
| 16> C 	 -2.99126 	 70.8668 	 57.9355
| 17> H 	 -2.31065 	 70.8513 	 57.0395
| 18> H 	 -2.46638 	 71.2281 	 58.844
| 19> C 	 -3.61614 	 69.5242 	 58.1588
| 20> H 	 -2.91124 	 68.7168 	 58.4423
| 21> H 	 -4.29547 	 69.6292 	 59.0126
| 22> H 	 -4.36461 	 69.1784 	 57.4128
| 23> S 	 -2.62868 	 74.825 	 52.9637
| 24> C 	 -2.0098 	 76.1748 	 52.1578
| 25> C 	 -0.967258 	 76.7333 	 52.8083
| 26> C 	 -1.02725 	 76.4091 	 54.1876
| 27> C 	 -1.92235 	 75.3891 	 54.4807
| 28> H 	 -0.340577 	 77.4727 	 52.3447
| 29> C 	 -0.161255 	 77.195 	 55.2042
| 30> H 	 0.770452 	 76.6606 	 55.0995
| 31> H 	 -0.575544 	 77.0564 	 56.1499
| 32> C 	 -0.0445275 	 78.6622 	 54.8915
| 33> H 	 0.368236 	 78.8227 	 53.8792
| 34> H 	 0.810315 	 78.9473 	 55.565
| 35> C 	 -1.24392 	 79.5388 	 55.1596
| 36> H 	 -0.964461 	 80.5858 	 55.1901
| 37> H 	 -1.84626 	 79.2217 	 56.0689
| 38> H 	 -1.96417 	 79.3342 	 54.4293
| 39> H 	 -3.76761 	 74.3673 	 59.1075
| 40> H 	 -2.26444 	 76.2577 	 51.0923
| 41> *
| 42>
| 43>                          ****END OF INPUT****

CARTESIAN COORDINATES (ANGSTROEM)
---------------------------------
  S     -2.712870   75.813200   57.241500
  C     -3.411150   74.403700   58.070500
  C     -3.464480   73.304200   57.191900
  C     -2.987730   73.542300   55.828500
  C     -2.509230   74.837100   55.737500
  H     -3.002210   72.880300   54.976600
  C     -3.985050   71.911400   57.507300
  H     -4.220960   71.476800   56.524600
  H     -4.877520   71.940500   58.109300
  C     -2.991260   70.866800   57.935500
  H     -2.310650   70.851300   57.039500
  H     -2.466380   71.228100   58.844000
  C     -3.616140   69.524200   58.158800
  H     -2.911240   68.716800   58.442300
  H     -4.295470   69.629200   59.012600
  H     -4.364610   69.178400   57.412800
  S     -2.628680   74.825000   52.963700
  C     -2.009800   76.174800   52.157800
  C     -0.967258   76.733300   52.808300
  C     -1.027250   76.409100   54.187600
  C     -1.922350   75.389100   54.480700
  H     -0.340577   77.472700   52.344700
  C     -0.161255   77.195000   55.204200
  H      0.770452   76.660600   55.099500
  H     -0.575544   77.056400   56.149900
  C     -0.044527   78.662200   54.891500
  H      0.368236   78.822700   53.879200
  H      0.810315   78.947300   55.565000
  C     -1.243920   79.538800   55.159600
  H     -0.964461   80.585800   55.190100
  H     -1.846260   79.221700   56.068900
  H     -1.964170   79.334200   54.429300
  H     -3.767610   74.367300   59.107500
  H     -2.264440   76.257700   51.092300

 Total Charge           Charge          ....    0
 Multiplicity           Mult            ....    1
 Number of Electrons    NEL             ....  134
 Basis Dimension        Dim             ....  322

ORBITAL ENERGIES
----------------

  NO   OCC          E(Eh)            E(eV)
   0   2.0000     -88.972262     -2421.0583
   1   2.0000     -88.959844     -2420.7204
   2   2.0000     -10.339375      -281.3487
   3   2.0000     -10.325264      -280.9647
   4   2.0000     -10.319994      -280.8213
   5   2.0000     -10.313747      -280.6513
   6   2.0000     -10.308410      -280.5061
   7   2.0000     -10.302738      -280.3517
   8   2.0000     -10.297082      -280.1978
   9   2.0000     -10.290265      -280.0124
  10   2.0000     -10.287040      -279.9246
  11   2.0000     -10.286899      -279.9207
  12   2.0000     -10.285358      -279.8788
  13   2.0000     -10.285078      -279.8712
  14   2.0000     -10.280915      -279.7579
  15   2.0000     -10.274138      -279.5735
  16   2.0000      -8.084870      -220.0005
  17   2.0000      -8.076222      -219.7652
  18   2.0000      -6.043752      -164.4588
  19   2.0000      -6.039744      -164.3498
  20   2.0000      -6.035325      -164.2295
  21   2.0000      -6.034713      -164.2129
  22   2.0000      -6.030730      -164.1045
  23   2.0000      -6.026686      -163.9945
  24   2.0000      -1.009603       -27.4727
  25   2.0000      -0.979246       -26.6466
  26   2.0000      -0.916756       -24.9462
  27   2.0000      -0.915263       -24.9056
  28   2.0000      -0.867938       -23.6178
  29   2.0000      -0.852541       -23.1988
  30   2.0000      -0.845264       -23.0008
  31   2.0000      -0.813099       -22.1255
  32   2.0000      -0.787688       -21.4341
  33   2.0000      -0.770703       -20.9719
  34   2.0000      -0.704247       -19.1635
  35   2.0000      -0.694113       -18.8878
  36   2.0000      -0.690521       -18.7900
  37   2.0000      -0.660912       -17.9843
  38   2.0000      -0.635938       -17.3047
  39   2.0000      -0.614545       -16.7226
  40   2.0000      -0.604038       -16.4367
  41   2.0000      -0.575642       -15.6640
  42   2.0000      -0.564217       -15.3531
  43   2.0000      -0.558811       -15.2060
  44   2.0000      -0.538948       -14.6655
  45   2.0000      -0.520120       -14.1532
  46   2.0000      -0.516947       -14.0668
  47   2.0000      -0.514888       -14.0108
  48   2.0000      -0.507786       -13.8176
  49   2.0000      -0.502945       -13.6858
  50   2.0000      -0.489403       -13.3173
  51   2.0000      -0.478583       -13.0229
  52   2.0000      -0.469227       -12.7683
  53   2.0000      -0.463449       -12.6111
  54   2.0000      -0.460830       -12.5398
  55   2.0000      -0.449321       -12.2267
  56   2.0000      -0.447129       -12.1670
  57   2.0000      -0.444467       -12.0946
  58   2.0000      -0.430410       -11.7121
  59   2.0000      -0.426289       -11.5999
  60   2.0000      -0.417283       -11.3548
  61   2.0000      -0.409348       -11.1389
  62   2.0000      -0.397744       -10.8232
  63   2.0000      -0.358504        -9.7554
  64   2.0000      -0.330549        -8.9947
  65   2.0000      -0.326822        -8.8933
  66   2.0000      -0.282566        -7.6890
  67   0.0000       0.024899         0.6775
  68   0.0000       0.070160         1.9091
  69   0.0000       0.100201         2.7266
  70   0.0000       0.106996         2.9115
  71   0.0000       0.134897         3.6707

MULLIKEN ATOMIC CHARGES
-----------------------
   0 S :    0.095400
   1 C :   -0.129242
   2 C :   -0.061526
   3 C :   -0.021954
   4 C :   -0.075509
   5 H :    0.027389
   6 C :    0.031799
   7 H :    0.010283
   8 H :    0.021685
   9 C :   -0.059307
  10 H :    0.029882
  11 H :    0.033797
  12 C :   -0.046075
  13 H :    0.049894
  14 H :    0.014222
  15 H :    0.029308
  16 S :    0.078952
  17 C :   -0.097497
  18 C :   -0.006012
  19 C :   -0.130679
  20 C :   -0.138634
  21 H :    0.017932
  22 C :    0.141055
  23 H :    0.041352
  24 H :   -0.004524
  25 C :   -0.113368
  26 H :    0.025463
  27 H :    0.029701
  28 C :   -0.014285
  29 H :    0.046399
  30 H :    0.031401
  31 H :    0.020115
  32 H :    0.057852
  33 H :    0.064733
Sum of atomic charges:   -0.0000000

LOEWDIN ATOMIC CHARGES
----------------------
   0 S :    0.377383
   1 C :   -0.206104
   2 C :   -0.048270
   3 C :   -0.073457
   4 C :   -0.156183
   5 H :    0.030116
   6 C :   -0.038273
   7 H :    0.031592
   8 H :    0.021745
   9 C :   -0.044737
  10 H :    0.027785
  11 H :    0.024925
  12 C :   -0.076310
  13 H :    0.033046
  14 H :    0.025436
  15 H :    0.029166
  16 S :    0.410822
  17 C :   -0.185336
  18 C :   -0.075215
  19 C :   -0.054172
  20 C :   -0.200213
  21 H :    0.030277
  22 C :   -0.020873
  23 H :    0.040601
  24 H :    0.008022
  25 C :   -0.048470
  26 H :    0.021781
  27 H :    0.029704
  28 C :   -0.064836
  29 H :    0.030371
  30 H :    0.034983
  31 H :    0.019782
  32 H :    0.035808
  33 H :    0.029103

  Mayer bond orders larger than 0.100000
B(  0-S ,  1-C ) :   1.0991 B(  0-S ,  4-C ) :   1.1332 B(  1-C ,  2-C ) :   1.6375
B(  1-C , 32-H ) :   0.9682 B(  2-C ,  3-C ) :   1.2039 B(  2-C ,  6-C ) :   1.0328
B(  3-C ,  4-C ) :   1.5853 B(  3-C ,  5-H ) :   0.9881 B(  4-C , 20-C ) :   1.0573
B(  6-C ,  7-H ) :   0.9427 B(  6-C ,  8-H ) :   0.9462 B(  6-C ,  9-C ) :   1.0501
B(  9-C , 10-H ) :   0.9558 B(  9-C , 11-H ) :   0.9530 B(  9-C , 12-C ) :   1.0848
B( 12-C , 13-H ) :   0.9721 B( 12-C , 14-H ) :   0.9672 B( 12-C , 15-H ) :   0.9699
B( 16-S , 17-C ) :   1.1872 B( 16-S , 20-C ) :   1.1184 B( 17-C , 18-C ) :   1.6004
B( 17-C , 33-H ) :   0.9621 B( 18-C , 19-C ) :   1.2290 B( 18-C , 21-H ) :   0.9923
B( 19-C , 20-C ) :   1.6064 B( 19-C , 22-C ) :   1.0087 B( 22-C , 23-H ) :   0.9258
B( 22-C , 24-H ) :   0.9325 B( 22-C , 25-C ) :   1.0917 B( 25-C , 26-H ) :   0.9477
B( 25-C , 27-H ) :   0.9515 B( 25-C , 28-C ) :   1.0710 B( 28-C , 29-H ) :   0.9733
B( 28-C , 30-H ) :   0.9696 B( 28-C , 31-H ) :   0.9699

Dispersion correction           -0.014010112
FINAL SINGLE POINT ENERGY     -1339.858746293379

DIPOLE MOMENT
-------------
                                X             Y             Z
Electronic contribution:     -2.75103       4.82366      -8.87686
Nuclear contribution   :      2.88423      -4.85242       8.81813
                        -----------------------------------------
Total Dipole Moment    :      0.13320      -0.02876      -0.05873
                        -----------------------------------------
Magnitude (a.u.)       :      0.14838
Magnitude (Debye)      :      0.37716

Rotational constants in cm-1:     0.025125     0.007211     0.006029
Rotational constants in MHz :   753.230964   216.183347   180.759427

                             ****ORCA TERMINATED NORMALLY****
TOTAL RUN TIME: 0 days 0 hours 0 minutes 31 seconds 530 msec
