                         Program Version 4.2.1 -  RELEASE  -
|  1> ! wB97X-D3 SP def2-SVP
|  2> %pal
|  3> nprocs 16
|  4> end
|  5>
|  6> * xyz 0 1
|  7> S 	 -2.05916 	 80.3452 	 49.7534
|  8> C 	 -1.13243 	 80.3527 	 51.2526
|  9> C 	 0.0495312 	 79.6298 	 51.1115
| 10> C 	 0.193497 	 79.1291 	 49.7633
| 11> C 	 -0.925868 	 79.3085 	 48.9265
| 12> H 	 1.00919 	 78.5355 	 49.4166
| 13> C 	 1.11962 	 79.2778 	 52.1181
| 14> H 	 1.22665 	 78.2287 	 51.9685
| 15> H 	 0.776071 	 79.4095 	 53.1604
| 16> C 	 2.47355 	 79.9576 	 51.908
| 17> H 	 3.25429 	 79.4054 	 52.4291
| 18> H 	 2.69469 	 79.9954 	 50.8033
| 19> C 	 2.50241 	 81.4587 	 52.3832
| 20> H 	 3.37386 	 82.1165 	 52.239
| 21> H 	 1.75652 	 81.9809 	 51.8216
| 22> H 	 2.19335 	 81.6216 	 53.4101
| 23> S 	 -2.58803 	 78.2734 	 47.0298
| 24> C 	 -2.27317 	 78.4711 	 45.3081
| 25> C 	 -1.21707 	 79.3216 	 45.1648
| 26> C 	 -0.426148 	 79.5268 	 46.344
| 27> C 	 -1.12373 	 79.06 	 47.4914
| 28> H 	 -0.953921 	 79.5578 	 44.1221
| 29> C 	 0.839245 	 80.3436 	 46.3358
| 30> H 	 1.16187 	 80.4261 	 47.3789
| 31> H 	 0.481972 	 81.2681 	 45.8668
| 32> C 	 1.97809 	 79.7518 	 45.4726
| 33> H 	 2.83137 	 80.3683 	 45.3703
| 34> H 	 1.58146 	 79.699 	 44.5087
| 35> C 	 2.29647 	 78.3801 	 46.066
| 36> H 	 1.50093 	 77.7293 	 45.9966
| 37> H 	 2.62863 	 78.5679 	 47.089
| 38> H 	 3.14335 	 77.983 	 45.5792
| 39> H 	 -1.39282 	 80.8967 	 52.1961
| 40> H 	 -2.8809 	 78.1071 	 44.5312
| 41> *
| 42>
| 43>                          ****END OF INPUT****

CARTESIAN COORDINATES (ANGSTROEM)
---------------------------------
  S     -2.059160   80.345200   49.753400
  C     -1.132430   80.352700   51.252600
  C      0.049531   79.629800   51.111500
  C      0.193497   79.129100   49.763300
  C     -0.925868   79.308500   48.926500
  H      1.009190   78.535500   49.416600
  C      1.119620   79.277800   52.118100
  H      1.226650   78.228700   51.968500
  H      0.776071   79.409500   53.160400
  C      2.473550   79.957600   51.908000
  H      3.254290   79.405400   52.429100
  H      2.694690   79.995400   50.803300
  C      2.502410   81.458700   52.383200
  H      3.373860   82.116500   52.239000
  H      1.756520   81.980900   51.821600
  H      2.193350   81.621600   53.410100
  S     -2.588030   78.273400   47.029800
  C     -2.273170   78.471100   45.308100
  C     -1.217070   79.321600   45.164800
  C     -0.426148   79.526800   46.344000
  C     -1.123730   79.060000   47.491400
  H     -0.953921   79.557800   44.122100
  C      0.839245   80.343600   46.335800
  H      1.161870   80.426100   47.378900
  H      0.481972   81.268100   45.866800
  C      1.978090   79.751800   45.472600
  H      2.831370   80.368300   45.370300
  H      1.581460   79.699000   44.508700
  C      2.296470   78.380100   46.066000
  H      1.500930   77.729300   45.996600
  H      2.628630   78.567900   47.089000
  H      3.143350   77.983000   45.579200
  H     -1.392820   80.896700   52.196100
  H     -2.880900   78.107100   44.531200

 Total Charge           Charge          ....    0
 Multiplicity           Mult            ....    1
 Number of Electrons    NEL             ....  134
 Basis Dimension        Dim             ....  322

ORBITAL ENERGIES
----------------

  NO   OCC          E(Eh)            E(eV)
   0   2.0000     -88.965779     -2420.8819
   1   2.0000     -88.963979     -2420.8329
   2   2.0000     -10.334143      -281.2063
   3   2.0000     -10.330334      -281.1027
   4   2.0000     -10.320706      -280.8407
   5   2.0000     -10.316244      -280.7193
   6   2.0000     -10.308859      -280.5183
   7   2.0000     -10.305046      -280.4145
   8   2.0000     -10.297163      -280.2001
   9   2.0000     -10.296241      -280.1750
  10   2.0000     -10.295936      -280.1667
  11   2.0000     -10.294367      -280.1240
  12   2.0000     -10.289478      -279.9909
  13   2.0000     -10.277277      -279.6589
  14   2.0000     -10.275525      -279.6113
  15   2.0000     -10.264869      -279.3213
  16   2.0000      -8.080308      -219.8764
  17   2.0000      -8.079100      -219.8435
  18   2.0000      -6.038888      -164.3265
  19   2.0000      -6.037575      -164.2908
  20   2.0000      -6.034731      -164.2134
  21   2.0000      -6.033457      -164.1787
  22   2.0000      -6.031084      -164.1141
  23   2.0000      -6.029956      -164.0834
  24   2.0000      -1.006405       -27.3857
  25   2.0000      -0.983202       -26.7543
  26   2.0000      -0.915750       -24.9188
  27   2.0000      -0.911911       -24.8144
  28   2.0000      -0.868563       -23.6348
  29   2.0000      -0.847994       -23.0751
  30   2.0000      -0.841381       -22.8951
  31   2.0000      -0.814120       -22.1533
  32   2.0000      -0.784495       -21.3472
  33   2.0000      -0.774349       -21.0711
  34   2.0000      -0.713953       -19.4276
  35   2.0000      -0.703744       -19.1499
  36   2.0000      -0.696570       -18.9546
  37   2.0000      -0.655360       -17.8332
  38   2.0000      -0.638411       -17.3720
  39   2.0000      -0.622322       -16.9342
  40   2.0000      -0.597612       -16.2618
  41   2.0000      -0.571516       -15.5517
  42   2.0000      -0.561006       -15.2657
  43   2.0000      -0.552786       -15.0421
  44   2.0000      -0.546459       -14.8699
  45   2.0000      -0.536219       -14.5913
  46   2.0000      -0.521507       -14.1909
  47   2.0000      -0.511260       -13.9121
  48   2.0000      -0.501406       -13.6440
  49   2.0000      -0.492643       -13.4055
  50   2.0000      -0.487350       -13.2615
  51   2.0000      -0.477336       -12.9890
  52   2.0000      -0.471158       -12.8209
  53   2.0000      -0.466757       -12.7011
  54   2.0000      -0.460883       -12.5413
  55   2.0000      -0.451120       -12.2756
  56   2.0000      -0.441243       -12.0068
  57   2.0000      -0.440320       -11.9817
  58   2.0000      -0.433329       -11.7915
  59   2.0000      -0.425359       -11.5746
  60   2.0000      -0.424279       -11.5452
  61   2.0000      -0.417154       -11.3513
  62   2.0000      -0.414860       -11.2889
  63   2.0000      -0.345395        -9.3987
  64   2.0000      -0.330218        -8.9857
  65   2.0000      -0.325550        -8.8587
  66   2.0000      -0.295096        -8.0300
  67   0.0000       0.033556         0.9131
  68   0.0000       0.062526         1.7014
  69   0.0000       0.110998         3.0204
  70   0.0000       0.118955         3.2369
  71   0.0000       0.125721         3.4210

MULLIKEN ATOMIC CHARGES
-----------------------
   0 S :    0.111594
   1 C :   -0.135453
   2 C :   -0.097927
   3 C :    0.013361
   4 C :   -0.132059
   5 H :    0.005906
   6 C :    0.077954
   7 H :    0.031686
   8 H :    0.026528
   9 C :   -0.071219
  10 H :    0.038219
  11 H :    0.039330
  12 C :   -0.062277
  13 H :    0.038357
  14 H :    0.017958
  15 H :    0.019485
  16 S :    0.100521
  17 C :   -0.079103
  18 C :   -0.046420
  19 C :   -0.062280
  20 C :   -0.166757
  21 H :    0.031938
  22 C :    0.069758
  23 H :    0.025370
  24 H :    0.038228
  25 C :   -0.036392
  26 H :    0.021882
  27 H :    0.003653
  28 C :   -0.005163
  29 H :    0.037553
  30 H :    0.018966
  31 H :    0.015099
  32 H :    0.065399
  33 H :    0.046304
Sum of atomic charges:    0.0000000

LOEWDIN ATOMIC CHARGES
----------------------
   0 S :    0.410310
   1 C :   -0.206266
   2 C :   -0.064482
   3 C :   -0.065387
   4 C :   -0.196508
   5 H :    0.023577
   6 C :   -0.030821
   7 H :    0.033842
   8 H :    0.032331
   9 C :   -0.035246
  10 H :    0.023567
  11 H :    0.030884
  12 C :   -0.077738
  13 H :    0.029654
  14 H :    0.022117
  15 H :    0.020426
  16 S :    0.412969
  17 C :   -0.172124
  18 C :   -0.076254
  19 C :   -0.051409
  20 C :   -0.217878
  21 H :    0.034320
  22 C :   -0.026973
  23 H :    0.028373
  24 H :    0.036994
  25 C :   -0.029338
  26 H :    0.019972
  27 H :    0.011922
  28 C :   -0.047314
  29 H :    0.017785
  30 H :    0.025326
  31 H :    0.019284
  32 H :    0.040853
  33 H :    0.023232

  Mayer bond orders larger than 0.100000
B(  0-S ,  1-C ) :   1.1384 B(  0-S ,  4-C ) :   1.1626 B(  1-C ,  2-C ) :   1.6037
B(  1-C , 32-H ) :   0.9622 B(  2-C ,  3-C ) :   1.2388 B(  2-C ,  6-C ) :   1.0188
B(  3-C ,  4-C ) :   1.5735 B(  3-C ,  5-H ) :   0.9976 B(  4-C , 20-C ) :   1.0190
B(  6-C ,  7-H ) :   0.9356 B(  6-C ,  8-H ) :   0.9458 B(  6-C ,  9-C ) :   1.0654
B(  9-C , 10-H ) :   0.9584 B(  9-C , 11-H ) :   0.9588 B(  9-C , 12-C ) :   1.0569
B( 12-C , 13-H ) :   0.9782 B( 12-C , 14-H ) :   0.9758 B( 12-C , 15-H ) :   0.9767
B( 16-S , 17-C ) :   1.1496 B( 16-S , 20-C ) :   1.1600 B( 17-C , 18-C ) :   1.6188
B( 17-C , 20-C ) :   0.1005 B( 17-C , 33-H ) :   0.9752 B( 18-C , 19-C ) :   1.2415
B( 18-C , 21-H ) :   0.9783 B( 19-C , 20-C ) :   1.5455 B( 19-C , 22-C ) :   1.0333
B( 22-C , 23-H ) :   0.9389 B( 22-C , 24-H ) :   0.9329 B( 22-C , 25-C ) :   1.0707
B( 25-C , 26-H ) :   0.9573 B( 25-C , 27-H ) :   0.9518 B( 25-C , 28-C ) :   1.0773
B( 28-C , 29-H ) :   0.9742 B( 28-C , 30-H ) :   0.9736 B( 28-C , 31-H ) :   0.9698

Dispersion correction           -0.014989767
FINAL SINGLE POINT ENERGY     -1339.873021139946

DIPOLE MOMENT
-------------
                                X             Y             Z
Electronic contribution:    -27.26926      -4.20695      -4.38376
Nuclear contribution   :     27.85966       4.31281       4.20627
                        -----------------------------------------
Total Dipole Moment    :      0.59040       0.10585      -0.17750
                        -----------------------------------------
Magnitude (a.u.)       :      0.62552
Magnitude (Debye)      :      1.58996

Rotational constants in cm-1:     0.019967     0.009005     0.006875
Rotational constants in MHz :   598.588607   269.958194   206.094964

                             ****ORCA TERMINATED NORMALLY****
TOTAL RUN TIME: 0 days 0 hours 0 minutes 35 seconds 5 msec
