                         Program Version 4.2.1 -  RELEASE  -
|  1> ! wB97X-D3 SP def2-SVP
|  2> %pal
|  3> nprocs 16
|  4> end
|  5>
|  6> * xyz 0 1
|  7> S 	 46.226 	 15.427 	 80.5773
|  8> C 	 46.2175 	 17.051 	 81.0584
|  9> C 	 47.2949 	 17.2983 	 81.8646
| 10> C 	 48.0471 	 16.1105 	 82.2051
| 11> C 	 47.6506 	 15.0281 	 81.4772
| 12> H 	 48.9018 	 16.1119 	 82.9631
| 13> C 	 47.8063 	 18.6363 	 82.5384
| 14> H 	 47.1099 	 19.3793 	 82.1822
| 15> H 	 48.8062 	 18.8429 	 82.1281
| 16> C 	 47.8424 	 18.7506 	 84.1019
| 17> H 	 48.4999 	 17.9823 	 84.5628
| 18> H 	 48.4097 	 19.6564 	 84.3507
| 19> C 	 46.4351 	 18.5407 	 84.7058
| 20> H 	 45.8806 	 19.4851 	 84.6086
| 21> H 	 45.8426 	 17.7862 	 84.2474
| 22> H 	 46.6039 	 18.2394 	 85.7562
| 23> S 	 47.1926 	 12.3421 	 81.2374
| 24> C 	 48.5357 	 11.2826 	 80.8255
| 25> C 	 49.7119 	 11.9481 	 80.9841
| 26> C 	 49.5857 	 13.3239 	 81.4079
| 27> C 	 48.2409 	 13.7322 	 81.4734
| 28> H 	 50.6274 	 11.4154 	 80.8295
| 29> C 	 50.7495 	 14.2231 	 81.3844
| 30> H 	 50.5701 	 15.1883 	 81.8173
| 31> H 	 50.8714 	 14.4868 	 80.3863
| 32> C 	 52.1896 	 13.7489 	 81.9023
| 33> H 	 52.9917 	 14.4783 	 81.7212
| 34> H 	 52.4522 	 12.8646 	 81.4091
| 35> C 	 52.2973 	 13.3314 	 83.4104
| 36> H 	 51.5901 	 12.6412 	 83.8117
| 37> H 	 52.278 	 14.1986 	 84.091
| 38> H 	 53.3109 	 12.813 	 83.4994
| 39> H 	 45.5181 	 17.7668 	 80.6876
| 40> H 	 48.4785 	 10.1874 	 80.7171
| 41> *
| 42>
| 43>                          ****END OF INPUT****

CARTESIAN COORDINATES (ANGSTROEM)
---------------------------------
  S     46.226000   15.427000   80.577300
  C     46.217500   17.051000   81.058400
  C     47.294900   17.298300   81.864600
  C     48.047100   16.110500   82.205100
  C     47.650600   15.028100   81.477200
  H     48.901800   16.111900   82.963100
  C     47.806300   18.636300   82.538400
  H     47.109900   19.379300   82.182200
  H     48.806200   18.842900   82.128100
  C     47.842400   18.750600   84.101900
  H     48.499900   17.982300   84.562800
  H     48.409700   19.656400   84.350700
  C     46.435100   18.540700   84.705800
  H     45.880600   19.485100   84.608600
  H     45.842600   17.786200   84.247400
  H     46.603900   18.239400   85.756200
  S     47.192600   12.342100   81.237400
  C     48.535700   11.282600   80.825500
  C     49.711900   11.948100   80.984100
  C     49.585700   13.323900   81.407900
  C     48.240900   13.732200   81.473400
  H     50.627400   11.415400   80.829500
  C     50.749500   14.223100   81.384400
  H     50.570100   15.188300   81.817300
  H     50.871400   14.486800   80.386300
  C     52.189600   13.748900   81.902300
  H     52.991700   14.478300   81.721200
  H     52.452200   12.864600   81.409100
  C     52.297300   13.331400   83.410400
  H     51.590100   12.641200   83.811700
  H     52.278000   14.198600   84.091000
  H     53.310900   12.813000   83.499400
  H     45.518100   17.766800   80.687600
  H     48.478500   10.187400   80.717100

 Total Charge           Charge          ....    0
 Multiplicity           Mult            ....    1
 Number of Electrons    NEL             ....  134
 Basis Dimension        Dim             ....  322

ORBITAL ENERGIES
----------------

  NO   OCC          E(Eh)            E(eV)
   0   2.0000     -88.964524     -2420.8478
   1   2.0000     -88.963213     -2420.8121
   2   2.0000     -10.327724      -281.0317
   3   2.0000     -10.325079      -280.9597
   4   2.0000     -10.318515      -280.7811
   5   2.0000     -10.310117      -280.5525
   6   2.0000     -10.307665      -280.4858
   7   2.0000     -10.302254      -280.3386
   8   2.0000     -10.296006      -280.1686
   9   2.0000     -10.294636      -280.1313
  10   2.0000     -10.293199      -280.0922
  11   2.0000     -10.293019      -280.0873
  12   2.0000     -10.292597      -280.0758
  13   2.0000     -10.284885      -279.8659
  14   2.0000     -10.281738      -279.7803
  15   2.0000     -10.276311      -279.6326
  16   2.0000      -8.080661      -219.8860
  17   2.0000      -8.077856      -219.8096
  18   2.0000      -6.039184      -164.3346
  19   2.0000      -6.036507      -164.2617
  20   2.0000      -6.034923      -164.2186
  21   2.0000      -6.032310      -164.1475
  22   2.0000      -6.031337      -164.1210
  23   2.0000      -6.028534      -164.0448
  24   2.0000      -1.014291       -27.6003
  25   2.0000      -0.987544       -26.8724
  26   2.0000      -0.904376       -24.6093
  27   2.0000      -0.901664       -24.5355
  28   2.0000      -0.877422       -23.8759
  29   2.0000      -0.849583       -23.1183
  30   2.0000      -0.841151       -22.8889
  31   2.0000      -0.817102       -22.2345
  32   2.0000      -0.781462       -21.2647
  33   2.0000      -0.773474       -21.0473
  34   2.0000      -0.712742       -19.3947
  35   2.0000      -0.700027       -19.0487
  36   2.0000      -0.697961       -18.9925
  37   2.0000      -0.657374       -17.8881
  38   2.0000      -0.638551       -17.3759
  39   2.0000      -0.622315       -16.9341
  40   2.0000      -0.599480       -16.3127
  41   2.0000      -0.565797       -15.3961
  42   2.0000      -0.548783       -14.9331
  43   2.0000      -0.545575       -14.8459
  44   2.0000      -0.538481       -14.6528
  45   2.0000      -0.533255       -14.5106
  46   2.0000      -0.521726       -14.1969
  47   2.0000      -0.513408       -13.9706
  48   2.0000      -0.510006       -13.8780
  49   2.0000      -0.502564       -13.6755
  50   2.0000      -0.490599       -13.3499
  51   2.0000      -0.482969       -13.1423
  52   2.0000      -0.474896       -12.9226
  53   2.0000      -0.464777       -12.6472
  54   2.0000      -0.456258       -12.4154
  55   2.0000      -0.450868       -12.2687
  56   2.0000      -0.447374       -12.1737
  57   2.0000      -0.432072       -11.7573
  58   2.0000      -0.428684       -11.6651
  59   2.0000      -0.421885       -11.4801
  60   2.0000      -0.420487       -11.4420
  61   2.0000      -0.414428       -11.2771
  62   2.0000      -0.404089       -10.9958
  63   2.0000      -0.362037        -9.8515
  64   2.0000      -0.329328        -8.9615
  65   2.0000      -0.326901        -8.8954
  66   2.0000      -0.287305        -7.8180
  67   0.0000       0.024203         0.6586
  68   0.0000       0.084125         2.2892
  69   0.0000       0.111845         3.0435
  70   0.0000       0.119498         3.2517
  71   0.0000       0.132918         3.6169

MULLIKEN ATOMIC CHARGES
-----------------------
   0 S :    0.119788
   1 C :   -0.118970
   2 C :   -0.107967
   3 C :   -0.025444
   4 C :   -0.122585
   5 H :    0.052713
   6 C :    0.066093
   7 H :    0.009593
   8 H :    0.039385
   9 C :   -0.083937
  10 H :    0.022309
  11 H :    0.034886
  12 C :   -0.051321
  13 H :    0.036111
  14 H :    0.042524
  15 H :    0.039294
  16 S :    0.091429
  17 C :   -0.095570
  18 C :   -0.044175
  19 C :   -0.011024
  20 C :   -0.147026
  21 H :    0.016705
  22 C :    0.089568
  23 H :   -0.000793
  24 H :    0.026508
  25 C :   -0.062573
  26 H :    0.038008
  27 H :    0.015077
  28 C :   -0.088806
  29 H :    0.037281
  30 H :    0.031932
  31 H :    0.037416
  32 H :    0.043349
  33 H :    0.070224
Sum of atomic charges:    0.0000000

LOEWDIN ATOMIC CHARGES
----------------------
   0 S :    0.435031
   1 C :   -0.215416
   2 C :   -0.066913
   3 C :   -0.073024
   4 C :   -0.201641
   5 H :    0.042731
   6 C :   -0.029630
   7 H :    0.022162
   8 H :    0.031675
   9 C :   -0.045632
  10 H :    0.020323
  11 H :    0.028430
  12 C :   -0.064017
  13 H :    0.027360
  14 H :    0.024555
  15 H :    0.031248
  16 S :    0.391798
  17 C :   -0.184007
  18 C :   -0.069722
  19 C :   -0.048925
  20 C :   -0.192703
  21 H :    0.028467
  22 C :   -0.034346
  23 H :    0.024717
  24 H :    0.034014
  25 C :   -0.030495
  26 H :    0.031824
  27 H :    0.011639
  28 C :   -0.072589
  29 H :    0.020055
  30 H :    0.022278
  31 H :    0.034238
  32 H :    0.027803
  33 H :    0.038710

  Mayer bond orders larger than 0.100000
B(  0-S ,  1-C ) :   1.1392 B(  0-S ,  4-C ) :   1.1512 B(  1-C ,  2-C ) :   1.6097
B(  1-C , 32-H ) :   0.9745 B(  2-C ,  3-C ) :   1.2412 B(  2-C ,  6-C ) :   1.0090
B(  3-C ,  4-C ) :   1.5662 B(  3-C ,  5-H ) :   0.9776 B(  4-C , 20-C ) :   1.0901
B(  6-C ,  7-H ) :   0.9451 B(  6-C ,  8-H ) :   0.9436 B(  6-C ,  9-C ) :   1.0687
B(  9-C , 10-H ) :   0.9599 B(  9-C , 11-H ) :   0.9559 B(  9-C , 12-C ) :   1.0561
B( 12-C , 13-H ) :   0.9778 B( 12-C , 14-H ) :   0.9778 B( 12-C , 15-H ) :   0.9772
B( 16-S , 17-C ) :   1.1376 B( 16-S , 20-C ) :   1.1346 B( 17-C , 18-C ) :   1.6297
B( 17-C , 33-H ) :   0.9620 B( 18-C , 19-C ) :   1.2304 B( 18-C , 21-H ) :   0.9914
B( 19-C , 20-C ) :   1.5571 B( 19-C , 22-C ) :   1.0569 B( 22-C , 23-H ) :   0.9294
B( 22-C , 24-H ) :   0.9181 B( 22-C , 25-C ) :   1.0648 B( 25-C , 26-H ) :   0.9576
B( 25-C , 27-H ) :   0.9589 B( 25-C , 28-C ) :   1.0689 B( 28-C , 29-H ) :   0.9786
B( 28-C , 30-H ) :   0.9787 B( 28-C , 31-H ) :   0.9762

Dispersion correction           -0.014163182
FINAL SINGLE POINT ENERGY     -1339.870003313459

DIPOLE MOMENT
-------------
                                X             Y             Z
Electronic contribution:    -17.98826     -13.94059     -15.53862
Nuclear contribution   :     18.61381      14.21672      15.67578
                        -----------------------------------------
Total Dipole Moment    :      0.62555       0.27613       0.13716
                        -----------------------------------------
Magnitude (a.u.)       :      0.69741
Magnitude (Debye)      :      1.77267

Rotational constants in cm-1:     0.018121     0.008938     0.006679
Rotational constants in MHz :   543.265743   267.941020   200.235452

                             ****ORCA TERMINATED NORMALLY****
TOTAL RUN TIME: 0 days 0 hours 0 minutes 28 seconds 203 msec
