                         Program Version 4.2.1 -  RELEASE  -
|  1> ! wB97X-D3 SP def2-SVP
|  2> %pal
|  3> nprocs 16
|  4> end
|  5>
|  6> * xyz 0 1
|  7> S 	 30.9513 	 1.74052 	 70.6565
|  8> C 	 31.8025 	 3.15914 	 70.1426
|  9> C 	 32.6383 	 3.65658 	 71.1183
| 10> C 	 32.4264 	 2.99874 	 72.4172
| 11> C 	 31.5777 	 1.87405 	 72.3185
| 12> H 	 33.0429 	 3.22591 	 73.3041
| 13> C 	 33.7953 	 4.57453 	 70.8729
| 14> H 	 34.6484 	 4.03707 	 71.1144
| 15> H 	 33.7362 	 5.33037 	 71.6351
| 16> C 	 33.9284 	 5.29832 	 69.4976
| 17> H 	 33.0277 	 5.77673 	 69.1919
| 18> H 	 34.6106 	 6.10518 	 69.7204
| 19> C 	 34.4009 	 4.56765 	 68.1712
| 20> H 	 33.4967 	 4.08858 	 67.8054
| 21> H 	 34.8275 	 5.28782 	 67.4404
| 22> H 	 35.0504 	 3.67823 	 68.2449
| 23> S 	 29.472 	 1.34604 	 73.9556
| 24> C 	 29.633 	 0.0768992 	 75.2508
| 25> C 	 30.9233 	 -0.425463 	 75.2659
| 26> C 	 31.7886 	 0.217514 	 74.3407
| 27> C 	 31.1387 	 1.0431 	 73.4257
| 28> H 	 31.1122 	 -1.17846 	 76.0402
| 29> C 	 33.2369 	 -0.248414 	 74.1175
| 30> H 	 33.3567 	 -0.374422 	 73.053
| 31> H 	 33.2545 	 -1.32709 	 74.462
| 32> C 	 34.3377 	 0.582235 	 74.7184
| 33> H 	 34.3718 	 1.48744 	 74.0498
| 34> H 	 35.3789 	 0.278784 	 74.575
| 35> C 	 34.1533 	 0.839527 	 76.2302
| 36> H 	 35.1116 	 1.20037 	 76.7451
| 37> H 	 34.0101 	 -0.0704254 	 76.835
| 38> H 	 33.3631 	 1.5442 	 76.341
| 39> H 	 31.8346 	 3.47858 	 69.096
| 40> H 	 28.7984 	 -0.251906 	 75.91
| 41> *
| 42>
| 43>                          ****END OF INPUT****

CARTESIAN COORDINATES (ANGSTROEM)
---------------------------------
  S     30.951300    1.740520   70.656500
  C     31.802500    3.159140   70.142600
  C     32.638300    3.656580   71.118300
  C     32.426400    2.998740   72.417200
  C     31.577700    1.874050   72.318500
  H     33.042900    3.225910   73.304100
  C     33.795300    4.574530   70.872900
  H     34.648400    4.037070   71.114400
  H     33.736200    5.330370   71.635100
  C     33.928400    5.298320   69.497600
  H     33.027700    5.776730   69.191900
  H     34.610600    6.105180   69.720400
  C     34.400900    4.567650   68.171200
  H     33.496700    4.088580   67.805400
  H     34.827500    5.287820   67.440400
  H     35.050400    3.678230   68.244900
  S     29.472000    1.346040   73.955600
  C     29.633000    0.076899   75.250800
  C     30.923300   -0.425463   75.265900
  C     31.788600    0.217514   74.340700
  C     31.138700    1.043100   73.425700
  H     31.112200   -1.178460   76.040200
  C     33.236900   -0.248414   74.117500
  H     33.356700   -0.374422   73.053000
  H     33.254500   -1.327090   74.462000
  C     34.337700    0.582235   74.718400
  H     34.371800    1.487440   74.049800
  H     35.378900    0.278784   74.575000
  C     34.153300    0.839527   76.230200
  H     35.111600    1.200370   76.745100
  H     34.010100   -0.070425   76.835000
  H     33.363100    1.544200   76.341000
  H     31.834600    3.478580   69.096000
  H     28.798400   -0.251906   75.910000

 Total Charge           Charge          ....    0
 Multiplicity           Mult            ....    1
 Number of Electrons    NEL             ....  134
 Basis Dimension        Dim             ....  322

ORBITAL ENERGIES
----------------

  NO   OCC          E(Eh)            E(eV)
   0   2.0000     -88.967626     -2420.9322
   1   2.0000     -88.962160     -2420.7834
   2   2.0000     -10.337053      -281.2855
   3   2.0000     -10.329483      -281.0795
   4   2.0000     -10.325284      -280.9653
   5   2.0000     -10.314040      -280.6593
   6   2.0000     -10.307784      -280.4891
   7   2.0000     -10.305061      -280.4150
   8   2.0000     -10.303071      -280.3608
   9   2.0000     -10.298208      -280.2285
  10   2.0000     -10.292269      -280.0669
  11   2.0000     -10.291651      -280.0501
  12   2.0000     -10.290901      -280.0296
  13   2.0000     -10.288895      -279.9751
  14   2.0000     -10.287871      -279.9472
  15   2.0000     -10.281348      -279.7697
  16   2.0000      -8.082003      -219.9225
  17   2.0000      -8.075733      -219.7519
  18   2.0000      -6.040615      -164.3735
  19   2.0000      -6.036549      -164.2629
  20   2.0000      -6.034356      -164.2032
  21   2.0000      -6.032683      -164.1576
  22   2.0000      -6.030364      -164.0945
  23   2.0000      -6.026452      -163.9881
  24   2.0000      -0.999689       -27.2029
  25   2.0000      -0.977493       -26.5989
  26   2.0000      -0.909297       -24.7432
  27   2.0000      -0.904564       -24.6144
  28   2.0000      -0.867651       -23.6100
  29   2.0000      -0.848271       -23.0826
  30   2.0000      -0.840184       -22.8626
  31   2.0000      -0.811698       -22.0874
  32   2.0000      -0.786410       -21.3993
  33   2.0000      -0.772511       -21.0211
  34   2.0000      -0.711714       -19.3667
  35   2.0000      -0.707269       -19.2458
  36   2.0000      -0.689057       -18.7502
  37   2.0000      -0.659621       -17.9492
  38   2.0000      -0.639090       -17.3905
  39   2.0000      -0.607325       -16.5261
  40   2.0000      -0.584595       -15.9076
  41   2.0000      -0.575507       -15.6604
  42   2.0000      -0.555590       -15.1184
  43   2.0000      -0.550586       -14.9822
  44   2.0000      -0.544487       -14.8162
  45   2.0000      -0.535605       -14.5746
  46   2.0000      -0.522225       -14.2105
  47   2.0000      -0.511981       -13.9317
  48   2.0000      -0.501353       -13.6425
  49   2.0000      -0.493769       -13.4361
  50   2.0000      -0.490025       -13.3343
  51   2.0000      -0.480977       -13.0880
  52   2.0000      -0.476216       -12.9585
  53   2.0000      -0.461465       -12.5571
  54   2.0000      -0.458877       -12.4867
  55   2.0000      -0.439016       -11.9462
  56   2.0000      -0.437369       -11.9014
  57   2.0000      -0.435602       -11.8533
  58   2.0000      -0.433413       -11.7938
  59   2.0000      -0.426007       -11.5923
  60   2.0000      -0.423657       -11.5283
  61   2.0000      -0.416319       -11.3286
  62   2.0000      -0.400965       -10.9108
  63   2.0000      -0.342427        -9.3179
  64   2.0000      -0.326422        -8.8824
  65   2.0000      -0.321367        -8.7448
  66   2.0000      -0.302895        -8.2422
  67   0.0000       0.029909         0.8139
  68   0.0000       0.058893         1.6026
  69   0.0000       0.108200         2.9443
  70   0.0000       0.114657         3.1200
  71   0.0000       0.122591         3.3359

MULLIKEN ATOMIC CHARGES
-----------------------
   0 S :    0.118953
   1 C :   -0.133169
   2 C :   -0.105544
   3 C :    0.036416
   4 C :   -0.173816
   5 H :    0.035267
   6 C :    0.108551
   7 H :    0.024191
   8 H :    0.022507
   9 C :   -0.081648
  10 H :    0.025902
  11 H :    0.027431
  12 C :   -0.068649
  13 H :    0.018222
  14 H :    0.053437
  15 H :    0.036902
  16 S :    0.090882
  17 C :   -0.120828
  18 C :   -0.033687
  19 C :   -0.021950
  20 C :   -0.156063
  21 H :    0.033216
  22 C :    0.043462
  23 H :    0.033075
  24 H :    0.026486
  25 C :   -0.054893
  26 H :    0.015565
  27 H :    0.023897
  28 C :   -0.068935
  29 H :    0.035422
  30 H :    0.032061
  31 H :    0.047853
  32 H :    0.055134
  33 H :    0.074350
Sum of atomic charges:    0.0000000

LOEWDIN ATOMIC CHARGES
----------------------
   0 S :    0.403372
   1 C :   -0.209084
   2 C :   -0.063519
   3 C :   -0.054158
   4 C :   -0.196981
   5 H :    0.034599
   6 C :   -0.024788
   7 H :    0.027974
   8 H :    0.034397
   9 C :   -0.038702
  10 H :    0.022415
  11 H :    0.026251
  12 C :   -0.073477
  13 H :    0.019338
  14 H :    0.034915
  15 H :    0.027368
  16 S :    0.370346
  17 C :   -0.168299
  18 C :   -0.074979
  19 C :   -0.056604
  20 C :   -0.189689
  21 H :    0.039398
  22 C :   -0.034300
  23 H :    0.031829
  24 H :    0.032343
  25 C :   -0.052424
  26 H :    0.026828
  27 H :    0.025485
  28 C :   -0.071400
  29 H :    0.033812
  30 H :    0.027374
  31 H :    0.022555
  32 H :    0.029532
  33 H :    0.038273

  Mayer bond orders larger than 0.100000
B(  0-S ,  1-C ) :   1.1325 B(  0-S ,  4-C ) :   1.1465 B(  1-C ,  2-C ) :   1.6362
B(  1-C , 32-H ) :   0.9560 B(  2-C ,  3-C ) :   1.2307 B(  2-C ,  6-C ) :   1.0143
B(  3-C ,  4-C ) :   1.5767 B(  3-C ,  5-H ) :   0.9804 B(  4-C , 20-C ) :   1.0316
B(  6-C ,  7-H ) :   0.9351 B(  6-C ,  8-H ) :   0.9283 B(  6-C ,  9-C ) :   1.0767
B(  9-C , 10-H ) :   0.9599 B(  9-C , 11-H ) :   0.9595 B(  9-C , 12-C ) :   1.0553
B( 12-C , 13-H ) :   0.9799 B( 12-C , 14-H ) :   0.9742 B( 12-C , 15-H ) :   0.9780
B( 16-S , 17-C ) :   1.1377 B( 16-S , 20-C ) :   1.1395 B( 17-C , 18-C ) :   1.6335
B( 17-C , 20-C ) :   0.1081 B( 17-C , 33-H ) :   0.9619 B( 18-C , 19-C ) :   1.2167
B( 18-C , 21-H ) :   0.9864 B( 19-C , 20-C ) :   1.6079 B( 19-C , 22-C ) :   1.0165
B( 22-C , 23-H ) :   0.9446 B( 22-C , 24-H ) :   0.9477 B( 22-C , 25-C ) :   1.0637
B( 25-C , 26-H ) :   0.9502 B( 25-C , 27-H ) :   0.9552 B( 25-C , 28-C ) :   1.0657
B( 28-C , 29-H ) :   0.9752 B( 28-C , 30-H ) :   0.9747 B( 28-C , 31-H ) :   0.9753

Dispersion correction           -0.014891901
FINAL SINGLE POINT ENERGY     -1339.860108053673

DIPOLE MOMENT
-------------
                                X             Y             Z
Electronic contribution:    -24.35098      -7.23153       1.11445
Nuclear contribution   :     25.05888       7.31995      -0.99312
                        -----------------------------------------
Total Dipole Moment    :      0.70791       0.08842       0.12133
                        -----------------------------------------
Magnitude (a.u.)       :      0.72365
Magnitude (Debye)      :      1.83938

Rotational constants in cm-1:     0.022263     0.007859     0.006404
Rotational constants in MHz :   667.432672   235.602337   191.991717

                             ****ORCA TERMINATED NORMALLY****
TOTAL RUN TIME: 0 days 0 hours 0 minutes 29 seconds 929 msec
