                         Program Version 4.2.1 -  RELEASE  -
|  1> ! wB97X-D3 SP def2-SVP
|  2> %pal
|  3> nprocs 16
|  4> end
|  5>
|  6> * xyz 0 1
|  7> S 	 23.7304 	 2.92606 	 76.4939
|  8> C 	 23.5616 	 4.64286 	 76.6606
|  9> C 	 22.6111 	 5.14298 	 75.7848
| 10> C 	 21.8118 	 4.08579 	 75.2743
| 11> C 	 22.3995 	 2.86371 	 75.4672
| 12> H 	 20.9238 	 4.21497 	 74.7118
| 13> C 	 22.3041 	 6.62171 	 75.5309
| 14> H 	 21.5954 	 6.7417 	 74.7093
| 15> H 	 23.2215 	 7.16839 	 75.2262
| 16> C 	 21.7721 	 7.35228 	 76.7912
| 17> H 	 20.8631 	 6.92168 	 77.1024
| 18> H 	 22.5107 	 7.04659 	 77.5723
| 19> C 	 21.7465 	 8.84405 	 76.6827
| 20> H 	 22.7746 	 9.30537 	 76.5526
| 21> H 	 21.148 	 9.13661 	 75.8309
| 22> H 	 21.2635 	 9.35928 	 77.4894
| 23> S 	 23.4621 	 0.780609 	 74.0378
| 24> C 	 22.4129 	 -0.183746 	 72.9663
| 25> C 	 21.116 	 -0.02344 	 73.3464
| 26> C 	 20.8447 	 1.07581 	 74.2677
| 27> C 	 22.0244 	 1.65153 	 74.7572
| 28> H 	 20.3565 	 -0.6499 	 72.9324
| 29> C 	 19.4965 	 1.3489 	 74.7556
| 30> H 	 19.6293 	 1.95999 	 75.6161
| 31> H 	 18.8947 	 0.524937 	 75.0998
| 32> C 	 18.6222 	 2.14757 	 73.8154
| 33> H 	 18.5036 	 1.50096 	 72.9613
| 34> H 	 18.9991 	 3.13528 	 73.4313
| 35> C 	 17.2681 	 2.4178 	 74.4831
| 36> H 	 17.3357 	 3.03164 	 75.373
| 37> H 	 16.6533 	 1.55103 	 74.7218
| 38> H 	 16.6196 	 2.98392 	 73.7352
| 39> H 	 24.2483 	 5.30345 	 77.2014
| 40> H 	 22.7882 	 -1.013 	 72.3934
| 41> *
| 42>
| 43>                          ****END OF INPUT****

CARTESIAN COORDINATES (ANGSTROEM)
---------------------------------
  S     23.730400    2.926060   76.493900
  C     23.561600    4.642860   76.660600
  C     22.611100    5.142980   75.784800
  C     21.811800    4.085790   75.274300
  C     22.399500    2.863710   75.467200
  H     20.923800    4.214970   74.711800
  C     22.304100    6.621710   75.530900
  H     21.595400    6.741700   74.709300
  H     23.221500    7.168390   75.226200
  C     21.772100    7.352280   76.791200
  H     20.863100    6.921680   77.102400
  H     22.510700    7.046590   77.572300
  C     21.746500    8.844050   76.682700
  H     22.774600    9.305370   76.552600
  H     21.148000    9.136610   75.830900
  H     21.263500    9.359280   77.489400
  S     23.462100    0.780609   74.037800
  C     22.412900   -0.183746   72.966300
  C     21.116000   -0.023440   73.346400
  C     20.844700    1.075810   74.267700
  C     22.024400    1.651530   74.757200
  H     20.356500   -0.649900   72.932400
  C     19.496500    1.348900   74.755600
  H     19.629300    1.959990   75.616100
  H     18.894700    0.524937   75.099800
  C     18.622200    2.147570   73.815400
  H     18.503600    1.500960   72.961300
  H     18.999100    3.135280   73.431300
  C     17.268100    2.417800   74.483100
  H     17.335700    3.031640   75.373000
  H     16.653300    1.551030   74.721800
  H     16.619600    2.983920   73.735200
  H     24.248300    5.303450   77.201400
  H     22.788200   -1.013000   72.393400

 Total Charge           Charge          ....    0
 Multiplicity           Mult            ....    1
 Number of Electrons    NEL             ....  134
 Basis Dimension        Dim             ....  322

ORBITAL ENERGIES
----------------

  NO   OCC          E(Eh)            E(eV)
   0   2.0000     -88.970363     -2421.0067
   1   2.0000     -88.958037     -2420.6713
   2   2.0000     -10.334996      -281.2295
   3   2.0000     -10.325061      -280.9592
   4   2.0000     -10.316607      -280.7292
   5   2.0000     -10.313389      -280.6416
   6   2.0000     -10.304544      -280.4009
   7   2.0000     -10.302607      -280.3482
   8   2.0000     -10.296910      -280.1932
   9   2.0000     -10.293252      -280.0936
  10   2.0000     -10.289463      -279.9905
  11   2.0000     -10.288613      -279.9674
  12   2.0000     -10.284549      -279.8568
  13   2.0000     -10.282558      -279.8026
  14   2.0000     -10.281869      -279.7839
  15   2.0000     -10.279625      -279.7228
  16   2.0000      -8.086449      -220.0435
  17   2.0000      -8.071771      -219.6440
  18   2.0000      -6.044818      -164.4879
  19   2.0000      -6.040771      -164.3777
  20   2.0000      -6.037269      -164.2824
  21   2.0000      -6.030543      -164.0994
  22   2.0000      -6.026537      -163.9904
  23   2.0000      -6.022177      -163.8718
  24   2.0000      -1.015573       -27.6351
  25   2.0000      -0.979621       -26.6569
  26   2.0000      -0.918087       -24.9824
  27   2.0000      -0.914201       -24.8767
  28   2.0000      -0.871486       -23.7143
  29   2.0000      -0.857430       -23.3318
  30   2.0000      -0.844906       -22.9911
  31   2.0000      -0.814785       -22.1714
  32   2.0000      -0.782826       -21.3018
  33   2.0000      -0.771495       -20.9934
  34   2.0000      -0.705984       -19.2108
  35   2.0000      -0.703320       -19.1383
  36   2.0000      -0.695958       -18.9380
  37   2.0000      -0.665121       -18.0989
  38   2.0000      -0.641749       -17.4629
  39   2.0000      -0.623419       -16.9641
  40   2.0000      -0.602726       -16.4010
  41   2.0000      -0.573562       -15.6074
  42   2.0000      -0.572604       -15.5814
  43   2.0000      -0.560046       -15.2396
  44   2.0000      -0.526981       -14.3399
  45   2.0000      -0.525728       -14.3058
  46   2.0000      -0.519791       -14.1442
  47   2.0000      -0.516626       -14.0581
  48   2.0000      -0.504187       -13.7196
  49   2.0000      -0.501161       -13.6373
  50   2.0000      -0.493779       -13.4364
  51   2.0000      -0.483818       -13.1654
  52   2.0000      -0.473818       -12.8932
  53   2.0000      -0.461535       -12.5590
  54   2.0000      -0.458322       -12.4716
  55   2.0000      -0.449496       -12.2314
  56   2.0000      -0.446627       -12.1533
  57   2.0000      -0.436724       -11.8839
  58   2.0000      -0.436408       -11.8753
  59   2.0000      -0.431054       -11.7296
  60   2.0000      -0.418965       -11.4006
  61   2.0000      -0.416428       -11.3316
  62   2.0000      -0.412323       -11.2199
  63   2.0000      -0.353988        -9.6325
  64   2.0000      -0.334436        -9.1005
  65   2.0000      -0.323544        -8.8041
  66   2.0000      -0.286062        -7.7841
  67   0.0000       0.024955         0.6791
  68   0.0000       0.067365         1.8331
  69   0.0000       0.110850         3.0164
  70   0.0000       0.119688         3.2569
  71   0.0000       0.127573         3.4714

MULLIKEN ATOMIC CHARGES
-----------------------
   0 S :    0.134561
   1 C :   -0.126611
   2 C :   -0.091752
   3 C :    0.033291
   4 C :   -0.117273
   5 H :   -0.016830
   6 C :    0.051270
   7 H :    0.020112
   8 H :    0.032478
   9 C :   -0.066397
  10 H :    0.017815
  11 H :    0.022762
  12 C :   -0.030860
  13 H :    0.038707
  14 H :    0.020187
  15 H :    0.030791
  16 S :    0.051819
  17 C :   -0.077535
  18 C :   -0.014150
  19 C :   -0.031938
  20 C :   -0.115746
  21 H :    0.012275
  22 C :    0.066032
  23 H :    0.003831
  24 H :    0.026008
  25 C :   -0.085997
  26 H :    0.019022
  27 H :    0.042156
  28 C :   -0.066515
  29 H :    0.034001
  30 H :    0.030913
  31 H :    0.036346
  32 H :    0.055889
  33 H :    0.061339
Sum of atomic charges:   -0.0000000

LOEWDIN ATOMIC CHARGES
----------------------
   0 S :    0.449107
   1 C :   -0.210113
   2 C :   -0.055109
   3 C :   -0.057258
   4 C :   -0.217797
   5 H :    0.023840
   6 C :   -0.029664
   7 H :    0.025457
   8 H :    0.034628
   9 C :   -0.040106
  10 H :    0.017590
  11 H :    0.026138
  12 C :   -0.069584
  13 H :    0.033208
  14 H :    0.022846
  15 H :    0.025513
  16 S :    0.343614
  17 C :   -0.170974
  18 C :   -0.063179
  19 C :   -0.058252
  20 C :   -0.155176
  21 H :    0.026512
  22 C :   -0.037642
  23 H :    0.025693
  24 H :    0.034934
  25 C :   -0.038383
  26 H :    0.019569
  27 H :    0.028238
  28 C :   -0.071389
  29 H :    0.022966
  30 H :    0.023015
  31 H :    0.032840
  32 H :    0.029674
  33 H :    0.029245

  Mayer bond orders larger than 0.100000
B(  0-S ,  1-C ) :   1.1425 B(  0-S ,  4-C ) :   1.1706 B(  1-C ,  2-C ) :   1.5966
B(  1-C , 32-H ) :   0.9632 B(  2-C ,  3-C ) :   1.2654 B(  2-C ,  6-C ) :   1.0294
B(  3-C ,  4-C ) :   1.5387 B(  3-C ,  5-H ) :   1.0003 B(  4-C , 20-C ) :   1.0329
B(  6-C ,  7-H ) :   0.9423 B(  6-C ,  8-H ) :   0.9396 B(  6-C ,  9-C ) :   1.0564
B(  9-C , 10-H ) :   0.9552 B(  9-C , 11-H ) :   0.9570 B(  9-C , 12-C ) :   1.0864
B( 12-C , 13-H ) :   0.9716 B( 12-C , 14-H ) :   0.9706 B( 12-C , 15-H ) :   0.9712
B( 16-S , 17-C ) :   1.1253 B( 16-S , 20-C ) :   1.1063 B( 17-C , 18-C ) :   1.6471
B( 17-C , 33-H ) :   0.9644 B( 18-C , 19-C ) :   1.1962 B( 18-C , 21-H ) :   0.9884
B( 19-C , 20-C ) :   1.6257 B( 19-C , 22-C ) :   1.0578 B( 22-C , 23-H ) :   0.9315
B( 22-C , 24-H ) :   0.9399 B( 22-C , 25-C ) :   1.0541 B( 25-C , 26-H ) :   0.9546
B( 25-C , 27-H ) :   0.9516 B( 25-C , 28-C ) :   1.0848 B( 28-C , 29-H ) :   0.9747
B( 28-C , 30-H ) :   0.9722 B( 28-C , 31-H ) :   0.9737

Dispersion correction           -0.013645662
FINAL SINGLE POINT ENERGY     -1339.873733127852

DIPOLE MOMENT
-------------
                                X             Y             Z
Electronic contribution:     22.38071     -20.90675      -0.75804
Nuclear contribution   :    -22.97797      21.25867       0.68397
                        -----------------------------------------
Total Dipole Moment    :     -0.59727       0.35192      -0.07406
                        -----------------------------------------
Magnitude (a.u.)       :      0.69718
Magnitude (Debye)      :      1.77210

Rotational constants in cm-1:     0.018040     0.008418     0.006161
Rotational constants in MHz :   540.821553   252.358687   184.698693

                             ****ORCA TERMINATED NORMALLY****
TOTAL RUN TIME: 0 days 0 hours 0 minutes 34 seconds 205 msec
