                         Program Version 4.2.1 -  RELEASE  -
|  1> ! wB97X-D3 SP def2-SVP
|  2> %pal
|  3> nprocs 16
|  4> end
|  5>
|  6> * xyz 0 1
|  7> S 	 -3.77842 	 -11.4479 	 82.4055
|  8> C 	 -2.37211 	 -11.9683 	 83.308
|  9> C 	 -2.68415 	 -12.2636 	 84.6202
| 10> C 	 -4.01466 	 -11.7632 	 84.9437
| 11> C 	 -4.73216 	 -11.2958 	 83.8836
| 12> H 	 -4.47489 	 -11.7756 	 85.968
| 13> C 	 -1.67868 	 -12.8229 	 85.6084
| 14> H 	 -1.4579 	 -12.0351 	 86.3736
| 15> H 	 -0.772337 	 -13.0137 	 85.0471
| 16> C 	 -2.18488 	 -14.1386 	 86.2818
| 17> H 	 -3.10906 	 -13.766 	 86.7347
| 18> H 	 -2.3215 	 -14.839 	 85.4472
| 19> C 	 -1.23531 	 -14.6194 	 87.407
| 20> H 	 -1.24636 	 -15.5868 	 87.8412
| 21> H 	 -0.220878 	 -14.5843 	 86.9084
| 22> H 	 -1.39371 	 -13.8887 	 88.1927
| 23> S 	 -6.73649 	 -9.52443 	 82.7526
| 24> C 	 -8.3451 	 -9.79291 	 83.1661
| 25> C 	 -8.50471 	 -10.9462 	 83.9376
| 26> C 	 -7.27717 	 -11.4549 	 84.4272
| 27> C 	 -6.15594 	 -10.8375 	 83.8662
| 28> H 	 -9.49067 	 -11.2767 	 84.2413
| 29> C 	 -7.38567 	 -12.725 	 85.1381
| 30> H 	 -7.99627 	 -12.5878 	 86.0015
| 31> H 	 -6.41145 	 -13.1052 	 85.5096
| 32> C 	 -7.96399 	 -13.9283 	 84.3258
| 33> H 	 -7.32573 	 -13.9931 	 83.4789
| 34> H 	 -8.93299 	 -13.6772 	 83.9051
| 35> C 	 -7.88401 	 -15.2502 	 85.1578
| 36> H 	 -8.57829 	 -15.2087 	 86.0108
| 37> H 	 -6.8726 	 -15.4297 	 85.5729
| 38> H 	 -8.22028 	 -16.1064 	 84.4754
| 39> H 	 -1.39988 	 -12.0904 	 82.7964
| 40> H 	 -9.20068 	 -9.21421 	 82.8156
| 41> *
| 42>
| 43>                          ****END OF INPUT****

CARTESIAN COORDINATES (ANGSTROEM)
---------------------------------
  S     -3.778420  -11.447900   82.405500
  C     -2.372110  -11.968300   83.308000
  C     -2.684150  -12.263600   84.620200
  C     -4.014660  -11.763200   84.943700
  C     -4.732160  -11.295800   83.883600
  H     -4.474890  -11.775600   85.968000
  C     -1.678680  -12.822900   85.608400
  H     -1.457900  -12.035100   86.373600
  H     -0.772337  -13.013700   85.047100
  C     -2.184880  -14.138600   86.281800
  H     -3.109060  -13.766000   86.734700
  H     -2.321500  -14.839000   85.447200
  C     -1.235310  -14.619400   87.407000
  H     -1.246360  -15.586800   87.841200
  H     -0.220878  -14.584300   86.908400
  H     -1.393710  -13.888700   88.192700
  S     -6.736490   -9.524430   82.752600
  C     -8.345100   -9.792910   83.166100
  C     -8.504710  -10.946200   83.937600
  C     -7.277170  -11.454900   84.427200
  C     -6.155940  -10.837500   83.866200
  H     -9.490670  -11.276700   84.241300
  C     -7.385670  -12.725000   85.138100
  H     -7.996270  -12.587800   86.001500
  H     -6.411450  -13.105200   85.509600
  C     -7.963990  -13.928300   84.325800
  H     -7.325730  -13.993100   83.478900
  H     -8.932990  -13.677200   83.905100
  C     -7.884010  -15.250200   85.157800
  H     -8.578290  -15.208700   86.010800
  H     -6.872600  -15.429700   85.572900
  H     -8.220280  -16.106400   84.475400
  H     -1.399880  -12.090400   82.796400
  H     -9.200680   -9.214210   82.815600

 Total Charge           Charge          ....    0
 Multiplicity           Mult            ....    1
 Number of Electrons    NEL             ....  134
 Basis Dimension        Dim             ....  322

ORBITAL ENERGIES
----------------

  NO   OCC          E(Eh)            E(eV)
   0   2.0000     -88.968750     -2420.9628
   1   2.0000     -88.962283     -2420.7868
   2   2.0000     -10.335212      -281.2354
   3   2.0000     -10.333193      -281.1805
   4   2.0000     -10.319191      -280.7995
   5   2.0000     -10.316218      -280.7186
   6   2.0000     -10.304625      -280.4031
   7   2.0000     -10.302244      -280.3383
   8   2.0000     -10.298130      -280.2264
   9   2.0000     -10.296097      -280.1711
  10   2.0000     -10.292853      -280.0828
  11   2.0000     -10.291864      -280.0559
  12   2.0000     -10.290122      -280.0084
  13   2.0000     -10.285598      -279.8853
  14   2.0000     -10.285365      -279.8790
  15   2.0000     -10.282479      -279.8005
  16   2.0000      -8.083603      -219.9660
  17   2.0000      -8.077113      -219.7894
  18   2.0000      -6.042077      -164.4133
  19   2.0000      -6.038014      -164.3027
  20   2.0000      -6.035730      -164.2406
  21   2.0000      -6.034470      -164.2063
  22   2.0000      -6.031731      -164.1317
  23   2.0000      -6.027628      -164.0201
  24   2.0000      -1.004455       -27.3326
  25   2.0000      -0.985950       -26.8291
  26   2.0000      -0.912719       -24.8363
  27   2.0000      -0.910071       -24.7643
  28   2.0000      -0.865950       -23.5637
  29   2.0000      -0.851617       -23.1737
  30   2.0000      -0.841926       -22.9100
  31   2.0000      -0.812544       -22.1105
  32   2.0000      -0.780048       -21.2262
  33   2.0000      -0.768595       -20.9145
  34   2.0000      -0.708022       -19.2663
  35   2.0000      -0.699324       -19.0296
  36   2.0000      -0.688927       -18.7467
  37   2.0000      -0.657527       -17.8922
  38   2.0000      -0.640625       -17.4323
  39   2.0000      -0.620486       -16.8843
  40   2.0000      -0.600669       -16.3450
  41   2.0000      -0.576814       -15.6959
  42   2.0000      -0.563193       -15.3253
  43   2.0000      -0.560939       -15.2639
  44   2.0000      -0.523588       -14.2476
  45   2.0000      -0.517148       -14.0723
  46   2.0000      -0.516059       -14.0427
  47   2.0000      -0.509417       -13.8619
  48   2.0000      -0.500863       -13.6292
  49   2.0000      -0.498868       -13.5749
  50   2.0000      -0.492533       -13.4025
  51   2.0000      -0.478178       -13.0119
  52   2.0000      -0.471119       -12.8198
  53   2.0000      -0.466072       -12.6825
  54   2.0000      -0.459767       -12.5109
  55   2.0000      -0.454240       -12.3605
  56   2.0000      -0.447234       -12.1698
  57   2.0000      -0.435585       -11.8529
  58   2.0000      -0.428902       -11.6710
  59   2.0000      -0.425384       -11.5753
  60   2.0000      -0.423389       -11.5210
  61   2.0000      -0.417118       -11.3504
  62   2.0000      -0.410811       -11.1787
  63   2.0000      -0.351596        -9.5674
  64   2.0000      -0.330741        -8.9999
  65   2.0000      -0.326775        -8.8920
  66   2.0000      -0.290649        -7.9090
  67   0.0000       0.027983         0.7615
  68   0.0000       0.073346         1.9959
  69   0.0000       0.106068         2.8862
  70   0.0000       0.122697         3.3388
  71   0.0000       0.129146         3.5142

MULLIKEN ATOMIC CHARGES
-----------------------
   0 S :    0.094485
   1 C :   -0.142582
   2 C :   -0.085492
   3 C :   -0.004835
   4 C :   -0.125670
   5 H :    0.037855
   6 C :    0.039341
   7 H :    0.045517
   8 H :    0.011565
   9 C :   -0.091219
  10 H :    0.027212
  11 H :    0.043168
  12 C :   -0.034149
  13 H :    0.035672
  14 H :    0.031841
  15 H :    0.033840
  16 S :    0.114957
  17 C :   -0.084250
  18 C :   -0.061204
  19 C :   -0.000162
  20 C :   -0.154416
  21 H :    0.021817
  22 C :    0.043392
  23 H :    0.018368
  24 H :    0.006810
  25 C :   -0.063746
  26 H :    0.027591
  27 H :    0.024704
  28 C :   -0.070953
  29 H :    0.032958
  30 H :    0.044656
  31 H :    0.052233
  32 H :    0.064118
  33 H :    0.066577
Sum of atomic charges:   -0.0000000

LOEWDIN ATOMIC CHARGES
----------------------
   0 S :    0.385504
   1 C :   -0.196706
   2 C :   -0.064882
   3 C :   -0.076832
   4 C :   -0.181118
   5 H :    0.038392
   6 C :   -0.031049
   7 H :    0.035072
   8 H :    0.023111
   9 C :   -0.038345
  10 H :    0.020559
  11 H :    0.026750
  12 C :   -0.068941
  13 H :    0.021256
  14 H :    0.032558
  15 H :    0.027865
  16 S :    0.413301
  17 C :   -0.198315
  18 C :   -0.074708
  19 C :   -0.051352
  20 C :   -0.189262
  21 H :    0.029677
  22 C :   -0.036226
  23 H :    0.025579
  24 H :    0.027053
  25 C :   -0.031014
  26 H :    0.022237
  27 H :    0.019275
  28 C :   -0.069316
  29 H :    0.023771
  30 H :    0.029418
  31 H :    0.037495
  32 H :    0.033632
  33 H :    0.035564

  Mayer bond orders larger than 0.100000
B(  0-S ,  1-C ) :   1.1307 B(  0-S ,  4-C ) :   1.1338 B(  1-C ,  2-C ) :   1.6272
B(  1-C , 32-H ) :   0.9647 B(  2-C ,  3-C ) :   1.1998 B(  2-C ,  6-C ) :   1.0350
B(  3-C ,  4-C ) :   1.6232 B(  3-C ,  5-H ) :   0.9798 B(  4-C , 20-C ) :   1.0459
B(  6-C ,  7-H ) :   0.9449 B(  6-C ,  8-H ) :   0.9372 B(  6-C ,  9-C ) :   1.0398
B(  9-C , 10-H ) :   0.9662 B(  9-C , 11-H ) :   0.9590 B(  9-C , 12-C ) :   1.0613
B( 12-C , 13-H ) :   0.9796 B( 12-C , 14-H ) :   0.9744 B( 12-C , 15-H ) :   0.9769
B( 16-S , 17-C ) :   1.1888 B( 16-S , 20-C ) :   1.1241 B( 17-C , 18-C ) :   1.5721
B( 17-C , 33-H ) :   0.9640 B( 18-C , 19-C ) :   1.2601 B( 18-C , 21-H ) :   0.9900
B( 19-C , 20-C ) :   1.5517 B( 19-C , 22-C ) :   1.0743 B( 22-C , 23-H ) :   0.9207
B( 22-C , 24-H ) :   0.9328 B( 22-C , 25-C ) :   1.0567 B( 25-C , 26-H ) :   0.9565
B( 25-C , 27-H ) :   0.9526 B( 25-C , 28-C ) :   1.0748 B( 28-C , 29-H ) :   0.9769
B( 28-C , 30-H ) :   0.9738 B( 28-C , 31-H ) :   0.9739

Dispersion correction           -0.013811511
FINAL SINGLE POINT ENERGY     -1339.877311142740

DIPOLE MOMENT
-------------
                                X             Y             Z
Electronic contribution:     -3.73416      24.22702     -19.70168
Nuclear contribution   :      3.57665     -24.71054      20.11545
                        -----------------------------------------
Total Dipole Moment    :     -0.15751      -0.48352       0.41377
                        -----------------------------------------
Magnitude (a.u.)       :      0.65560
Magnitude (Debye)      :      1.66639

Rotational constants in cm-1:     0.017842     0.008685     0.006469
Rotational constants in MHz :   534.900139   260.362798   193.937049

                             ****ORCA TERMINATED NORMALLY****
TOTAL RUN TIME: 0 days 0 hours 0 minutes 33 seconds 500 msec
