                         Program Version 4.2.1 -  RELEASE  -
|  1> ! wB97X-D3 SP def2-SVP
|  2> %pal
|  3> nprocs 16
|  4> end
|  5>
|  6> * xyz 0 1
|  7> S 	 -1.09016 	 -12.353 	 80.7438
|  8> C 	 -1.59035 	 -13.8503 	 81.5539
|  9> C 	 -2.83114 	 -13.6398 	 82.1395
| 10> C 	 -3.39013 	 -12.3461 	 81.9108
| 11> C 	 -2.61017 	 -11.5508 	 81.0946
| 12> H 	 -4.31552 	 -11.9277 	 82.3327
| 13> C 	 -3.58717 	 -14.6421 	 82.9507
| 14> H 	 -3.71769 	 -14.3312 	 84.0001
| 15> H 	 -2.98481 	 -15.5244 	 82.9858
| 16> C 	 -4.98657 	 -15.1033 	 82.3863
| 17> H 	 -4.89275 	 -15.188 	 81.3148
| 18> H 	 -5.19405 	 -16.0608 	 82.7111
| 19> C 	 -6.10395 	 -14.1306 	 82.7452
| 20> H 	 -6.09174 	 -13.9562 	 83.8263
| 21> H 	 -5.99974 	 -13.2434 	 82.084
| 22> H 	 -7.0731 	 -14.5523 	 82.6209
| 23> S 	 -1.76471 	 -9.08372 	 80.0986
| 24> C 	 -2.94295 	 -7.92663 	 79.5771
| 25> C 	 -4.1931 	 -8.46729 	 79.5718
| 26> C 	 -4.24875 	 -9.7385 	 80.2623
| 27> C 	 -2.98376 	 -10.2448 	 80.5317
| 28> H 	 -5.06203 	 -7.86816 	 79.268
| 29> C 	 -5.5643 	 -10.4365 	 80.2905
| 30> H 	 -6.31333 	 -9.68972 	 79.9657
| 31> H 	 -5.78072 	 -10.5895 	 81.3426
| 32> C 	 -5.60986 	 -11.7365 	 79.4711
| 33> H 	 -5.11696 	 -12.5311 	 80.058
| 34> H 	 -5.01211 	 -11.7889 	 78.6126
| 35> C 	 -7.10344 	 -12.2501 	 79.3296
| 36> H 	 -7.2117 	 -12.936 	 78.5407
| 37> H 	 -7.66603 	 -11.4289 	 78.8625
| 38> H 	 -7.6236 	 -12.6501 	 80.2398
| 39> H 	 -1.11195 	 -14.7808 	 81.5244
| 40> H 	 -2.67315 	 -6.87597 	 79.2695
| 41> *
| 42>
| 43>                          ****END OF INPUT****

CARTESIAN COORDINATES (ANGSTROEM)
---------------------------------
  S     -1.090160  -12.353000   80.743800
  C     -1.590350  -13.850300   81.553900
  C     -2.831140  -13.639800   82.139500
  C     -3.390130  -12.346100   81.910800
  C     -2.610170  -11.550800   81.094600
  H     -4.315520  -11.927700   82.332700
  C     -3.587170  -14.642100   82.950700
  H     -3.717690  -14.331200   84.000100
  H     -2.984810  -15.524400   82.985800
  C     -4.986570  -15.103300   82.386300
  H     -4.892750  -15.188000   81.314800
  H     -5.194050  -16.060800   82.711100
  C     -6.103950  -14.130600   82.745200
  H     -6.091740  -13.956200   83.826300
  H     -5.999740  -13.243400   82.084000
  H     -7.073100  -14.552300   82.620900
  S     -1.764710   -9.083720   80.098600
  C     -2.942950   -7.926630   79.577100
  C     -4.193100   -8.467290   79.571800
  C     -4.248750   -9.738500   80.262300
  C     -2.983760  -10.244800   80.531700
  H     -5.062030   -7.868160   79.268000
  C     -5.564300  -10.436500   80.290500
  H     -6.313330   -9.689720   79.965700
  H     -5.780720  -10.589500   81.342600
  C     -5.609860  -11.736500   79.471100
  H     -5.116960  -12.531100   80.058000
  H     -5.012110  -11.788900   78.612600
  C     -7.103440  -12.250100   79.329600
  H     -7.211700  -12.936000   78.540700
  H     -7.666030  -11.428900   78.862500
  H     -7.623600  -12.650100   80.239800
  H     -1.111950  -14.780800   81.524400
  H     -2.673150   -6.875970   79.269500

 Total Charge           Charge          ....    0
 Multiplicity           Mult            ....    1
 Number of Electrons    NEL             ....  134
 Basis Dimension        Dim             ....  322

ORBITAL ENERGIES
----------------

  NO   OCC          E(Eh)            E(eV)
   0   2.0000     -88.966885     -2420.9120
   1   2.0000     -88.965628     -2420.8778
   2   2.0000     -10.333069      -281.1771
   3   2.0000     -10.329114      -281.0695
   4   2.0000     -10.320288      -280.8293
   5   2.0000     -10.313619      -280.6478
   6   2.0000     -10.302486      -280.3449
   7   2.0000     -10.301092      -280.3070
   8   2.0000     -10.294489      -280.1273
   9   2.0000     -10.292657      -280.0774
  10   2.0000     -10.292081      -280.0618
  11   2.0000     -10.288896      -279.9751
  12   2.0000     -10.285021      -279.8697
  13   2.0000     -10.280593      -279.7492
  14   2.0000     -10.279715      -279.7253
  15   2.0000     -10.278351      -279.6881
  16   2.0000      -8.081093      -219.8977
  17   2.0000      -8.080998      -219.8951
  18   2.0000      -6.039719      -164.3491
  19   2.0000      -6.039661      -164.3475
  20   2.0000      -6.035560      -164.2359
  21   2.0000      -6.035464      -164.2333
  22   2.0000      -6.031772      -164.1329
  23   2.0000      -6.031636      -164.1292
  24   2.0000      -1.009082       -27.4585
  25   2.0000      -0.985717       -26.8227
  26   2.0000      -0.911326       -24.7984
  27   2.0000      -0.909227       -24.7413
  28   2.0000      -0.870831       -23.6965
  29   2.0000      -0.849749       -23.1228
  30   2.0000      -0.843615       -22.9559
  31   2.0000      -0.818704       -22.2781
  32   2.0000      -0.782394       -21.2900
  33   2.0000      -0.771762       -21.0007
  34   2.0000      -0.715995       -19.4832
  35   2.0000      -0.705431       -19.1958
  36   2.0000      -0.695483       -18.9251
  37   2.0000      -0.663436       -18.0530
  38   2.0000      -0.639103       -17.3909
  39   2.0000      -0.622132       -16.9291
  40   2.0000      -0.595940       -16.2164
  41   2.0000      -0.575333       -15.6556
  42   2.0000      -0.560200       -15.2438
  43   2.0000      -0.548181       -14.9168
  44   2.0000      -0.537231       -14.6188
  45   2.0000      -0.525469       -14.2987
  46   2.0000      -0.519896       -14.1471
  47   2.0000      -0.510091       -13.8803
  48   2.0000      -0.506935       -13.7944
  49   2.0000      -0.504088       -13.7169
  50   2.0000      -0.498834       -13.5740
  51   2.0000      -0.484404       -13.1813
  52   2.0000      -0.473080       -12.8732
  53   2.0000      -0.461178       -12.5493
  54   2.0000      -0.460068       -12.5191
  55   2.0000      -0.448007       -12.1909
  56   2.0000      -0.445233       -12.1154
  57   2.0000      -0.436604       -11.8806
  58   2.0000      -0.432481       -11.7684
  59   2.0000      -0.424260       -11.5447
  60   2.0000      -0.422387       -11.4937
  61   2.0000      -0.416517       -11.3340
  62   2.0000      -0.408058       -11.1038
  63   2.0000      -0.359599        -9.7852
  64   2.0000      -0.332679        -9.0527
  65   2.0000      -0.326981        -8.8976
  66   2.0000      -0.284854        -7.7513
  67   0.0000       0.022034         0.5996
  68   0.0000       0.079621         2.1666
  69   0.0000       0.106561         2.8997
  70   0.0000       0.121551         3.3076
  71   0.0000       0.130523         3.5517

MULLIKEN ATOMIC CHARGES
-----------------------
   0 S :    0.097548
   1 C :   -0.095535
   2 C :   -0.083365
   3 C :   -0.021058
   4 C :   -0.110654
   5 H :    0.023641
   6 C :    0.059072
   7 H :    0.039465
   8 H :    0.000223
   9 C :   -0.039767
  10 H :    0.024682
  11 H :    0.008477
  12 C :   -0.038150
  13 H :    0.026741
  14 H :    0.030030
  15 H :    0.022016
  16 S :    0.105071
  17 C :   -0.111398
  18 C :   -0.028872
  19 C :   -0.091818
  20 C :   -0.118517
  21 H :    0.030609
  22 C :    0.069540
  23 H :    0.015301
  24 H :    0.027488
  25 C :   -0.044780
  26 H :    0.034729
  27 H :    0.023954
  28 C :   -0.052600
  29 H :    0.015746
  30 H :    0.020350
  31 H :    0.053651
  32 H :    0.028752
  33 H :    0.079427
Sum of atomic charges:   -0.0000000

LOEWDIN ATOMIC CHARGES
----------------------
   0 S :    0.390438
   1 C :   -0.187474
   2 C :   -0.059421
   3 C :   -0.074960
   4 C :   -0.178780
   5 H :    0.034760
   6 C :   -0.029908
   7 H :    0.033928
   8 H :    0.023887
   9 C :   -0.028613
  10 H :    0.023450
  11 H :    0.012807
  12 C :   -0.065804
  13 H :    0.026406
  14 H :    0.027232
  15 H :    0.021078
  16 S :    0.412818
  17 C :   -0.193793
  18 C :   -0.077169
  19 C :   -0.057240
  20 C :   -0.202715
  21 H :    0.035934
  22 C :   -0.032888
  23 H :    0.031256
  24 H :    0.029341
  25 C :   -0.035822
  26 H :    0.028587
  27 H :    0.023089
  28 C :   -0.071037
  29 H :    0.019159
  30 H :    0.024600
  31 H :    0.032621
  32 H :    0.021264
  33 H :    0.042968

  Mayer bond orders larger than 0.100000
B(  0-S ,  1-C ) :   1.1153 B(  0-S ,  4-C ) :   1.1512 B(  1-C ,  2-C ) :   1.6113
B(  1-C , 32-H ) :   0.9748 B(  2-C ,  3-C ) :   1.2270 B(  2-C ,  6-C ) :   1.0466
B(  3-C ,  4-C ) :   1.5703 B(  3-C ,  5-H ) :   0.9868 B(  4-C , 20-C ) :   1.0615
B(  6-C ,  7-H ) :   0.9405 B(  6-C ,  8-H ) :   0.9321 B(  6-C ,  9-C ) :   1.0620
B(  9-C , 10-H ) :   0.9547 B(  9-C , 11-H ) :   0.9555 B(  9-C , 12-C ) :   1.0847
B( 12-C , 13-H ) :   0.9718 B( 12-C , 14-H ) :   0.9673 B( 12-C , 15-H ) :   0.9689
B( 16-S , 17-C ) :   1.1603 B( 16-S , 20-C ) :   1.1310 B( 17-C , 18-C ) :   1.6101
B( 17-C , 33-H ) :   0.9596 B( 18-C , 19-C ) :   1.2544 B( 18-C , 21-H ) :   0.9805
B( 19-C , 20-C ) :   1.5770 B( 19-C , 22-C ) :   1.0515 B( 22-C , 23-H ) :   0.9347
B( 22-C , 24-H ) :   0.9183 B( 22-C , 25-C ) :   1.0528 B( 25-C , 26-H ) :   0.9400
B( 25-C , 27-H ) :   0.9563 B( 25-C , 28-C ) :   1.0745 B( 28-C , 29-H ) :   0.9724
B( 28-C , 30-H ) :   0.9741 B( 28-C , 31-H ) :   0.9740

Dispersion correction           -0.016562087
FINAL SINGLE POINT ENERGY     -1339.874086155471

DIPOLE MOMENT
-------------
                                X             Y             Z
Electronic contribution:     28.12503      15.55048      -3.99358
Nuclear contribution   :    -28.83662     -15.79774       4.03435
                        -----------------------------------------
Total Dipole Moment    :     -0.71159      -0.24726       0.04077
                        -----------------------------------------
Magnitude (a.u.)       :      0.75443
Magnitude (Debye)      :      1.91760

Rotational constants in cm-1:     0.018523     0.010989     0.007520
Rotational constants in MHz :   555.292400   329.454901   225.455926

                             ****ORCA TERMINATED NORMALLY****
TOTAL RUN TIME: 0 days 0 hours 0 minutes 35 seconds 773 msec
