                         Program Version 4.2.1 -  RELEASE  -
|  1> ! wB97X-D3 SP def2-SVP
|  2> %pal
|  3> nprocs 16
|  4> end
|  5>
|  6> * xyz 0 1
|  7> S 	 70.4532 	 24.0358 	 73.6777
|  8> C 	 69.1349 	 24.3594 	 72.6558
|  9> C 	 69.4808 	 24.2318 	 71.2922
| 10> C 	 70.8962 	 24.1336 	 71.077
| 11> C 	 71.5664 	 23.9821 	 72.2914
| 12> H 	 71.3614 	 24.1746 	 70.1182
| 13> C 	 68.4501 	 24.048 	 70.1815
| 14> H 	 68.768 	 24.6998 	 69.3272
| 15> H 	 67.4769 	 24.437 	 70.5662
| 16> C 	 68.3646 	 22.6688 	 69.5705
| 17> H 	 67.7111 	 22.7085 	 68.7187
| 18> H 	 69.3103 	 22.461 	 69.1917
| 19> C 	 67.8483 	 21.5823 	 70.5021
| 20> H 	 68.2007 	 20.5567 	 70.2369
| 21> H 	 68.2169 	 21.5858 	 71.536
| 22> H 	 66.7149 	 21.5418 	 70.4703
| 23> S 	 73.5259 	 24.9337 	 73.9631
| 24> C 	 75.1769 	 24.4485 	 73.7224
| 25> C 	 75.3607 	 23.5984 	 72.631
| 26> C 	 74.1163 	 23.4542 	 71.8703
| 27> C 	 73.0242 	 23.9582 	 72.5325
| 28> H 	 76.3236 	 23.2959 	 72.3902
| 29> C 	 74.0435 	 22.6391 	 70.6051
| 30> H 	 74.9209 	 22.8096 	 70.0414
| 31> H 	 73.1488 	 22.9596 	 70.0859
| 32> C 	 73.8982 	 21.1085 	 70.9038
| 33> H 	 73.2251 	 21.1959 	 71.7585
| 34> H 	 74.8286 	 20.6565 	 71.1925
| 35> C 	 73.2349 	 20.3833 	 69.7816
| 36> H 	 73.2225 	 19.325 	 70.0401
| 37> H 	 73.7116 	 20.5713 	 68.7827
| 38> H 	 72.1517 	 20.4276 	 69.6694
| 39> H 	 68.1456 	 24.4745 	 72.918
| 40> H 	 75.9609 	 24.8338 	 74.3584
| 41> *
| 42>
| 43>                          ****END OF INPUT****

CARTESIAN COORDINATES (ANGSTROEM)
---------------------------------
  S     70.453200   24.035800   73.677700
  C     69.134900   24.359400   72.655800
  C     69.480800   24.231800   71.292200
  C     70.896200   24.133600   71.077000
  C     71.566400   23.982100   72.291400
  H     71.361400   24.174600   70.118200
  C     68.450100   24.048000   70.181500
  H     68.768000   24.699800   69.327200
  H     67.476900   24.437000   70.566200
  C     68.364600   22.668800   69.570500
  H     67.711100   22.708500   68.718700
  H     69.310300   22.461000   69.191700
  C     67.848300   21.582300   70.502100
  H     68.200700   20.556700   70.236900
  H     68.216900   21.585800   71.536000
  H     66.714900   21.541800   70.470300
  S     73.525900   24.933700   73.963100
  C     75.176900   24.448500   73.722400
  C     75.360700   23.598400   72.631000
  C     74.116300   23.454200   71.870300
  C     73.024200   23.958200   72.532500
  H     76.323600   23.295900   72.390200
  C     74.043500   22.639100   70.605100
  H     74.920900   22.809600   70.041400
  H     73.148800   22.959600   70.085900
  C     73.898200   21.108500   70.903800
  H     73.225100   21.195900   71.758500
  H     74.828600   20.656500   71.192500
  C     73.234900   20.383300   69.781600
  H     73.222500   19.325000   70.040100
  H     73.711600   20.571300   68.782700
  H     72.151700   20.427600   69.669400
  H     68.145600   24.474500   72.918000
  H     75.960900   24.833800   74.358400

 Total Charge           Charge          ....    0
 Multiplicity           Mult            ....    1
 Number of Electrons    NEL             ....  134
 Basis Dimension        Dim             ....  322

ORBITAL ENERGIES
----------------

  NO   OCC          E(Eh)            E(eV)
   0   2.0000     -88.971579     -2421.0397
   1   2.0000     -88.962005     -2420.7792
   2   2.0000     -10.336546      -281.2717
   3   2.0000     -10.328624      -281.0561
   4   2.0000     -10.318042      -280.7682
   5   2.0000     -10.307739      -280.4878
   6   2.0000     -10.305731      -280.4332
   7   2.0000     -10.302095      -280.3343
   8   2.0000     -10.297026      -280.1963
   9   2.0000     -10.295845      -280.1642
  10   2.0000     -10.294916      -280.1389
  11   2.0000     -10.286181      -279.9012
  12   2.0000     -10.282793      -279.8090
  13   2.0000     -10.281056      -279.7618
  14   2.0000     -10.280658      -279.7509
  15   2.0000     -10.278074      -279.6806
  16   2.0000      -8.086288      -220.0391
  17   2.0000      -8.076492      -219.7725
  18   2.0000      -6.044815      -164.4878
  19   2.0000      -6.040766      -164.3776
  20   2.0000      -6.037056      -164.2766
  21   2.0000      -6.035038      -164.2217
  22   2.0000      -6.031078      -164.1140
  23   2.0000      -6.027178      -164.0078
  24   2.0000      -1.003647       -27.3106
  25   2.0000      -0.980468       -26.6799
  26   2.0000      -0.913863       -24.8675
  27   2.0000      -0.911723       -24.8093
  28   2.0000      -0.866514       -23.5791
  29   2.0000      -0.854285       -23.2463
  30   2.0000      -0.847108       -23.0510
  31   2.0000      -0.812753       -22.1161
  32   2.0000      -0.782352       -21.2889
  33   2.0000      -0.771946       -21.0057
  34   2.0000      -0.709160       -19.2972
  35   2.0000      -0.697731       -18.9862
  36   2.0000      -0.693345       -18.8669
  37   2.0000      -0.666139       -18.1266
  38   2.0000      -0.642528       -17.4841
  39   2.0000      -0.621852       -16.9215
  40   2.0000      -0.593757       -16.1569
  41   2.0000      -0.575751       -15.6670
  42   2.0000      -0.566264       -15.4088
  43   2.0000      -0.553942       -15.0735
  44   2.0000      -0.546471       -14.8702
  45   2.0000      -0.526640       -14.3306
  46   2.0000      -0.519851       -14.1459
  47   2.0000      -0.505986       -13.7686
  48   2.0000      -0.503470       -13.7001
  49   2.0000      -0.496584       -13.5128
  50   2.0000      -0.493287       -13.4230
  51   2.0000      -0.488519       -13.2933
  52   2.0000      -0.470006       -12.7895
  53   2.0000      -0.461662       -12.5625
  54   2.0000      -0.458461       -12.4753
  55   2.0000      -0.454565       -12.3693
  56   2.0000      -0.438183       -11.9236
  57   2.0000      -0.433573       -11.7981
  58   2.0000      -0.428219       -11.6524
  59   2.0000      -0.423516       -11.5244
  60   2.0000      -0.420687       -11.4475
  61   2.0000      -0.417844       -11.3701
  62   2.0000      -0.414394       -11.2762
  63   2.0000      -0.355579        -9.6758
  64   2.0000      -0.328550        -8.9403
  65   2.0000      -0.326306        -8.8792
  66   2.0000      -0.284509        -7.7419
  67   0.0000       0.025390         0.6909
  68   0.0000       0.071425         1.9436
  69   0.0000       0.103110         2.8058
  70   0.0000       0.108671         2.9571
  71   0.0000       0.126181         3.4336

MULLIKEN ATOMIC CHARGES
-----------------------
   0 S :    0.124184
   1 C :   -0.068001
   2 C :   -0.123571
   3 C :    0.022577
   4 C :   -0.137601
   5 H :    0.021423
   6 C :    0.037471
   7 H :    0.030016
   8 H :    0.021825
   9 C :    0.003596
  10 H :    0.025736
  11 H :    0.004662
  12 C :   -0.089300
  13 H :    0.025408
  14 H :    0.041432
  15 H :    0.040583
  16 S :    0.088639
  17 C :   -0.093391
  18 C :    0.004068
  19 C :   -0.092243
  20 C :   -0.129359
  21 H :   -0.005454
  22 C :    0.107299
  23 H :    0.014923
  24 H :   -0.000257
  25 C :   -0.051807
  26 H :    0.034745
  27 H :    0.030172
  28 C :   -0.057771
  29 H :    0.023688
  30 H :    0.043341
  31 H :    0.028031
  32 H :    0.015188
  33 H :    0.059749
Sum of atomic charges:   -0.0000000

LOEWDIN ATOMIC CHARGES
----------------------
   0 S :    0.422391
   1 C :   -0.206348
   2 C :   -0.059453
   3 C :   -0.062282
   4 C :   -0.182288
   5 H :    0.028470
   6 C :   -0.033829
   7 H :    0.034663
   8 H :    0.028602
   9 C :   -0.037391
  10 H :    0.027512
  11 H :    0.014496
  12 C :   -0.078450
  13 H :    0.028617
  14 H :    0.027668
  15 H :    0.031586
  16 S :    0.381023
  17 C :   -0.177677
  18 C :   -0.063136
  19 C :   -0.051581
  20 C :   -0.184224
  21 H :    0.019711
  22 C :   -0.024183
  23 H :    0.022577
  24 H :    0.026410
  25 C :   -0.033765
  26 H :    0.031485
  27 H :    0.022271
  28 C :   -0.079911
  29 H :    0.030285
  30 H :    0.030154
  31 H :    0.027933
  32 H :    0.012030
  33 H :    0.026632

  Mayer bond orders larger than 0.100000
B(  0-S ,  1-C ) :   1.1427 B(  0-S ,  4-C ) :   1.1559 B(  1-C ,  2-C ) :   1.5920
B(  1-C , 32-H ) :   0.9734 B(  2-C ,  3-C ) :   1.2483 B(  2-C ,  6-C ) :   1.0360
B(  3-C ,  4-C ) :   1.5551 B(  3-C ,  5-H ) :   0.9876 B(  4-C , 20-C ) :   1.0407
B(  6-C ,  7-H ) :   0.9339 B(  6-C ,  8-H ) :   0.9429 B(  6-C ,  9-C ) :   1.0764
B(  9-C , 10-H ) :   0.9523 B(  9-C , 11-H ) :   0.9502 B(  9-C , 12-C ) :   1.0713
B( 12-C , 13-H ) :   0.9727 B( 12-C , 14-H ) :   0.9767 B( 12-C , 15-H ) :   0.9766
B( 16-S , 17-C ) :   1.1572 B( 16-S , 20-C ) :   1.1144 B( 17-C , 18-C ) :   1.6245
B( 17-C , 33-H ) :   0.9672 B( 18-C , 19-C ) :   1.1915 B( 18-C , 21-H ) :   1.0010
B( 19-C , 20-C ) :   1.6329 B( 19-C , 22-C ) :   1.0742 B( 22-C , 23-H ) :   0.9168
B( 22-C , 24-H ) :   0.9342 B( 22-C , 25-C ) :   1.0558 B( 25-C , 26-H ) :   0.9565
B( 25-C , 27-H ) :   0.9557 B( 25-C , 28-C ) :   1.0979 B( 28-C , 29-H ) :   0.9651
B( 28-C , 30-H ) :   0.9721 B( 28-C , 31-H ) :   0.9679

Dispersion correction           -0.014807398
FINAL SINGLE POINT ENERGY     -1339.869827955158

DIPOLE MOMENT
-------------
                                X             Y             Z
Electronic contribution:      8.21984      18.07458      22.03049
Nuclear contribution   :     -8.17457     -18.40258     -22.59392
                        -----------------------------------------
Total Dipole Moment    :      0.04527      -0.32800      -0.56343
                        -----------------------------------------
Magnitude (a.u.)       :      0.65352
Magnitude (Debye)      :      1.66110

Rotational constants in cm-1:     0.018715     0.009863     0.007094
Rotational constants in MHz :   561.059094   295.684333   212.682674

                             ****ORCA TERMINATED NORMALLY****
TOTAL RUN TIME: 0 days 0 hours 0 minutes 31 seconds 222 msec
