                         Program Version 4.2.1 -  RELEASE  -
|  1> ! wB97X-D3 SP def2-SVP
|  2> %pal
|  3> nprocs 16
|  4> end
|  5>
|  6> * xyz 0 1
|  7> S 	 -83.5717 	 51.6384 	 136.488
|  8> C 	 -84.2472 	 52.2317 	 138.061
|  9> C 	 -83.2966 	 52.8983 	 138.794
| 10> C 	 -82.0722 	 53.1674 	 138.013
| 11> C 	 -82.1175 	 52.6326 	 136.727
| 12> H 	 -81.1422 	 53.6249 	 138.283
| 13> C 	 -83.426 	 53.4953 	 140.15
| 14> H 	 -83.7119 	 54.5348 	 140.107
| 15> H 	 -82.4174 	 53.496 	 140.598
| 16> C 	 -84.3702 	 52.8365 	 141.061
| 17> H 	 -85.3107 	 52.519 	 140.609
| 18> H 	 -83.8666 	 51.9212 	 141.426
| 19> C 	 -84.7057 	 53.8481 	 142.24
| 20> H 	 -83.8412 	 54.3473 	 142.76
| 21> H 	 -85.4728 	 54.5616 	 141.843
| 22> H 	 -85.2404 	 53.3413 	 143.034
| 23> S 	 -81.4757 	 53.881 	 134.294
| 24> C 	 -79.9907 	 53.5185 	 133.532
| 25> C 	 -79.2011 	 52.6951 	 134.347
| 26> C 	 -79.8771 	 52.281 	 135.533
| 27> C 	 -81.1622 	 52.8002 	 135.642
| 28> H 	 -78.1903 	 52.3704 	 134.043
| 29> C 	 -79.203 	 51.3481 	 136.434
| 30> H 	 -78.8325 	 50.5097 	 135.784
| 31> H 	 -79.9233 	 51.0673 	 137.225
| 32> C 	 -77.9645 	 51.9175 	 137.265
| 33> H 	 -77.2237 	 52.4222 	 136.727
| 34> H 	 -77.4541 	 51.1418 	 137.894
| 35> C 	 -78.3823 	 53.0722 	 138.193
| 36> H 	 -77.535 	 53.5983 	 138.73
| 37> H 	 -78.9976 	 52.7041 	 138.98
| 38> H 	 -78.974 	 53.7193 	 137.58
| 39> H 	 -85.2489 	 52.0533 	 138.303
| 40> H 	 -79.5832 	 54.0779 	 132.695
| 41> *
| 42>
| 43>                          ****END OF INPUT****

CARTESIAN COORDINATES (ANGSTROEM)
---------------------------------
  S    -83.571700   51.638400  136.488000
  C    -84.247200   52.231700  138.061000
  C    -83.296600   52.898300  138.794000
  C    -82.072200   53.167400  138.013000
  C    -82.117500   52.632600  136.727000
  H    -81.142200   53.624900  138.283000
  C    -83.426000   53.495300  140.150000
  H    -83.711900   54.534800  140.107000
  H    -82.417400   53.496000  140.598000
  C    -84.370200   52.836500  141.061000
  H    -85.310700   52.519000  140.609000
  H    -83.866600   51.921200  141.426000
  C    -84.705700   53.848100  142.240000
  H    -83.841200   54.347300  142.760000
  H    -85.472800   54.561600  141.843000
  H    -85.240400   53.341300  143.034000
  S    -81.475700   53.881000  134.294000
  C    -79.990700   53.518500  133.532000
  C    -79.201100   52.695100  134.347000
  C    -79.877100   52.281000  135.533000
  C    -81.162200   52.800200  135.642000
  H    -78.190300   52.370400  134.043000
  C    -79.203000   51.348100  136.434000
  H    -78.832500   50.509700  135.784000
  H    -79.923300   51.067300  137.225000
  C    -77.964500   51.917500  137.265000
  H    -77.223700   52.422200  136.727000
  H    -77.454100   51.141800  137.894000
  C    -78.382300   53.072200  138.193000
  H    -77.535000   53.598300  138.730000
  H    -78.997600   52.704100  138.980000
  H    -78.974000   53.719300  137.580000
  H    -85.248900   52.053300  138.303000
  H    -79.583200   54.077900  132.695000

 Total Charge           Charge          ....    0
 Multiplicity           Mult            ....    1
 Number of Electrons    NEL             ....  134
 Basis Dimension        Dim             ....  322

ORBITAL ENERGIES
----------------

  NO   OCC          E(Eh)            E(eV)
   0   2.0000     -88.967261     -2420.9223
   1   2.0000     -88.961133     -2420.7555
   2   2.0000     -10.331492      -281.1342
   3   2.0000     -10.325582      -280.9734
   4   2.0000     -10.318874      -280.7908
   5   2.0000     -10.315825      -280.7079
   6   2.0000     -10.306281      -280.4482
   7   2.0000     -10.300894      -280.3016
   8   2.0000     -10.298387      -280.2334
   9   2.0000     -10.296755      -280.1890
  10   2.0000     -10.295884      -280.1653
  11   2.0000     -10.288630      -279.9679
  12   2.0000     -10.288064      -279.9525
  13   2.0000     -10.288007      -279.9509
  14   2.0000     -10.285824      -279.8915
  15   2.0000     -10.274698      -279.5888
  16   2.0000      -8.082513      -219.9363
  17   2.0000      -8.074890      -219.7289
  18   2.0000      -6.040963      -164.3830
  19   2.0000      -6.036777      -164.2690
  20   2.0000      -6.033567      -164.1817
  21   2.0000      -6.033461      -164.1788
  22   2.0000      -6.029656      -164.0753
  23   2.0000      -6.025404      -163.9596
  24   2.0000      -1.005151       -27.3516
  25   2.0000      -0.978234       -26.6191
  26   2.0000      -0.919196       -25.0126
  27   2.0000      -0.910485       -24.7756
  28   2.0000      -0.866650       -23.5827
  29   2.0000      -0.853466       -23.2240
  30   2.0000      -0.840357       -22.8673
  31   2.0000      -0.810857       -22.0645
  32   2.0000      -0.779661       -21.2156
  33   2.0000      -0.770412       -20.9640
  34   2.0000      -0.711442       -19.3593
  35   2.0000      -0.703762       -19.1503
  36   2.0000      -0.692122       -18.8336
  37   2.0000      -0.657402       -17.8888
  38   2.0000      -0.648362       -17.6428
  39   2.0000      -0.610446       -16.6111
  40   2.0000      -0.597071       -16.2471
  41   2.0000      -0.576462       -15.6863
  42   2.0000      -0.567114       -15.4319
  43   2.0000      -0.555318       -15.1110
  44   2.0000      -0.542809       -14.7706
  45   2.0000      -0.526536       -14.3278
  46   2.0000      -0.521932       -14.2025
  47   2.0000      -0.512529       -13.9466
  48   2.0000      -0.499651       -13.5962
  49   2.0000      -0.497602       -13.5404
  50   2.0000      -0.489782       -13.3277
  51   2.0000      -0.479761       -13.0550
  52   2.0000      -0.469903       -12.7867
  53   2.0000      -0.457671       -12.4539
  54   2.0000      -0.453174       -12.3315
  55   2.0000      -0.446368       -12.1463
  56   2.0000      -0.445139       -12.1129
  57   2.0000      -0.436221       -11.8702
  58   2.0000      -0.433827       -11.8050
  59   2.0000      -0.424386       -11.5481
  60   2.0000      -0.421701       -11.4751
  61   2.0000      -0.418044       -11.3756
  62   2.0000      -0.415210       -11.2984
  63   2.0000      -0.333058        -9.0630
  64   2.0000      -0.326079        -8.8731
  65   2.0000      -0.322870        -8.7858
  66   2.0000      -0.308677        -8.3995
  67   0.0000       0.035516         0.9664
  68   0.0000       0.057330         1.5600
  69   0.0000       0.102429         2.7872
  70   0.0000       0.116982         3.1832
  71   0.0000       0.129676         3.5287

MULLIKEN ATOMIC CHARGES
-----------------------
   0 S :    0.090241
   1 C :   -0.130093
   2 C :   -0.048442
   3 C :    0.063456
   4 C :   -0.192014
   5 H :   -0.011014
   6 C :    0.082615
   7 H :    0.034989
   8 H :    0.029490
   9 C :   -0.094236
  10 H :    0.030836
  11 H :    0.035490
  12 C :   -0.088761
  13 H :    0.049169
  14 H :    0.045611
  15 H :    0.026280
  16 S :    0.130248
  17 C :   -0.090701
  18 C :   -0.052301
  19 C :   -0.031773
  20 C :   -0.169262
  21 H :    0.028788
  22 C :    0.052490
  23 H :    0.052746
  24 H :    0.036829
  25 C :   -0.059774
  26 H :    0.016788
  27 H :    0.039647
  28 C :   -0.095155
  29 H :    0.046269
  30 H :    0.021329
  31 H :    0.050060
  32 H :    0.033039
  33 H :    0.067116
Sum of atomic charges:    0.0000000

LOEWDIN ATOMIC CHARGES
----------------------
   0 S :    0.360583
   1 C :   -0.166928
   2 C :   -0.054612
   3 C :   -0.052216
   4 C :   -0.181214
   5 H :    0.027609
   6 C :   -0.041515
   7 H :    0.033504
   8 H :    0.037264
   9 C :   -0.039575
  10 H :    0.022695
  11 H :    0.027495
  12 C :   -0.074497
  13 H :    0.031921
  14 H :    0.032087
  15 H :    0.021645
  16 S :    0.432750
  17 C :   -0.197730
  18 C :   -0.075257
  19 C :   -0.061778
  20 C :   -0.216681
  21 H :    0.034505
  22 C :   -0.033087
  23 H :    0.043850
  24 H :    0.036310
  25 C :   -0.036020
  26 H :    0.012868
  27 H :    0.028795
  28 C :   -0.067991
  29 H :    0.034472
  30 H :    0.013115
  31 H :    0.019688
  32 H :    0.014634
  33 H :    0.033311

  Mayer bond orders larger than 0.100000
B(  0-S ,  1-C ) :   1.1102 B(  0-S ,  4-C ) :   1.1301 B(  1-C ,  2-C ) :   1.6432
B(  1-C , 32-H ) :   0.9806 B(  2-C ,  3-C ) :   1.1690 B(  2-C ,  6-C ) :   1.0185
B(  3-C ,  4-C ) :   1.6367 B(  3-C ,  5-H ) :   0.9898 B(  4-C , 20-C ) :   1.0239
B(  6-C ,  7-H ) :   0.9350 B(  6-C ,  8-H ) :   0.9339 B(  6-C ,  9-C ) :   1.0661
B(  9-C , 10-H ) :   0.9556 B(  9-C , 11-H ) :   0.9585 B(  9-C , 12-C ) :   1.0753
B( 12-C , 13-H ) :   0.9751 B( 12-C , 14-H ) :   0.9743 B( 12-C , 15-H ) :   0.9748
B( 16-S , 17-C ) :   1.1842 B( 16-S , 20-C ) :   1.1480 B( 17-C , 18-C ) :   1.5740
B( 17-C , 33-H ) :   0.9647 B( 18-C , 19-C ) :   1.2578 B( 18-C , 21-H ) :   0.9872
B( 19-C , 20-C ) :   1.5573 B( 19-C , 22-C ) :   1.0658 B( 22-C , 23-H ) :   0.9344
B( 22-C , 24-H ) :   0.9291 B( 22-C , 25-C ) :   1.0535 B( 25-C , 26-H ) :   0.9637
B( 25-C , 27-H ) :   0.9617 B( 25-C , 28-C ) :   1.0600 B( 28-C , 29-H ) :   0.9706
B( 28-C , 30-H ) :   0.9738 B( 28-C , 31-H ) :   0.9704

Dispersion correction           -0.014841483
FINAL SINGLE POINT ENERGY     -1339.870665731211

DIPOLE MOMENT
-------------
                                X             Y             Z
Electronic contribution:     -6.79757      -1.80112     -26.72564
Nuclear contribution   :      7.18803       1.94703      27.22906
                        -----------------------------------------
Total Dipole Moment    :      0.39047       0.14591       0.50342
                        -----------------------------------------
Magnitude (a.u.)       :      0.65359
Magnitude (Debye)      :      1.66131

Rotational constants in cm-1:     0.021925     0.007754     0.006494
Rotational constants in MHz :   657.285988   232.452759   194.689621

                             ****ORCA TERMINATED NORMALLY****
TOTAL RUN TIME: 0 days 0 hours 0 minutes 35 seconds 288 msec
