                         Program Version 4.2.1 -  RELEASE  -
|  1> ! wB97X-D3 SP def2-SVP
|  2> %pal
|  3> nprocs 16
|  4> end
|  5>
|  6> * xyz 0 1
|  7> S 	 -40.1536 	 19.0486 	 76.5222
|  8> C 	 -40.4337 	 18.2411 	 75.0867
|  9> C 	 -39.1732 	 18.0795 	 74.4258
| 10> C 	 -38.0302 	 18.3966 	 75.3002
| 11> C 	 -38.43 	 18.7655 	 76.5805
| 12> H 	 -36.9433 	 18.285 	 75.0692
| 13> C 	 -38.8659 	 17.5709 	 73.0425
| 14> H 	 -37.9235 	 17.9499 	 72.6736
| 15> H 	 -39.6784 	 17.9415 	 72.4085
| 16> C 	 -38.8294 	 16.0351 	 72.9962
| 17> H 	 -38.0766 	 15.5443 	 72.3978
| 18> H 	 -38.5282 	 15.5883 	 73.9556
| 19> C 	 -40.0737 	 15.4283 	 72.4303
| 20> H 	 -40.9709 	 15.844 	 72.9374
| 21> H 	 -40.3249 	 15.4392 	 71.3591
| 22> H 	 -40.1359 	 14.4186 	 72.7585
| 23> S 	 -36.7768 	 20.4145 	 77.848
| 24> C 	 -35.8349 	 19.8379 	 79.1573
| 25> C 	 -36.0649 	 18.5515 	 79.5311
| 26> C 	 -36.9893 	 17.9469 	 78.6256
| 27> C 	 -37.5867 	 18.885 	 77.7895
| 28> H 	 -35.4742 	 17.9533 	 80.2295
| 29> C 	 -37.2573 	 16.4716 	 78.7159
| 30> H 	 -38.1335 	 16.2685 	 79.3196
| 31> H 	 -36.5708 	 16.0395 	 79.4069
| 32> C 	 -37.1441 	 15.6504 	 77.4487
| 33> H 	 -36.1388 	 15.7028 	 77.0956
| 34> H 	 -37.6738 	 16.0717 	 76.6143
| 35> C 	 -37.5966 	 14.1468 	 77.5752
| 36> H 	 -38.5092 	 14.158 	 78.1296
| 37> H 	 -36.8962 	 13.5683 	 78.1809
| 38> H 	 -37.7008 	 13.7006 	 76.5767
| 39> H 	 -41.4237 	 18.2175 	 74.6692
| 40> H 	 -35.2334 	 20.4363 	 79.8491
| 41> *
| 42>
| 43>                          ****END OF INPUT****

CARTESIAN COORDINATES (ANGSTROEM)
---------------------------------
  S    -40.153600   19.048600   76.522200
  C    -40.433700   18.241100   75.086700
  C    -39.173200   18.079500   74.425800
  C    -38.030200   18.396600   75.300200
  C    -38.430000   18.765500   76.580500
  H    -36.943300   18.285000   75.069200
  C    -38.865900   17.570900   73.042500
  H    -37.923500   17.949900   72.673600
  H    -39.678400   17.941500   72.408500
  C    -38.829400   16.035100   72.996200
  H    -38.076600   15.544300   72.397800
  H    -38.528200   15.588300   73.955600
  C    -40.073700   15.428300   72.430300
  H    -40.970900   15.844000   72.937400
  H    -40.324900   15.439200   71.359100
  H    -40.135900   14.418600   72.758500
  S    -36.776800   20.414500   77.848000
  C    -35.834900   19.837900   79.157300
  C    -36.064900   18.551500   79.531100
  C    -36.989300   17.946900   78.625600
  C    -37.586700   18.885000   77.789500
  H    -35.474200   17.953300   80.229500
  C    -37.257300   16.471600   78.715900
  H    -38.133500   16.268500   79.319600
  H    -36.570800   16.039500   79.406900
  C    -37.144100   15.650400   77.448700
  H    -36.138800   15.702800   77.095600
  H    -37.673800   16.071700   76.614300
  C    -37.596600   14.146800   77.575200
  H    -38.509200   14.158000   78.129600
  H    -36.896200   13.568300   78.180900
  H    -37.700800   13.700600   76.576700
  H    -41.423700   18.217500   74.669200
  H    -35.233400   20.436300   79.849100

 Total Charge           Charge          ....    0
 Multiplicity           Mult            ....    1
 Number of Electrons    NEL             ....  134
 Basis Dimension        Dim             ....  322

ORBITAL ENERGIES
----------------

  NO   OCC          E(Eh)            E(eV)
   0   2.0000     -88.967437     -2420.9270
   1   2.0000     -88.960684     -2420.7433
   2   2.0000     -10.327372      -281.0221
   3   2.0000     -10.324182      -280.9353
   4   2.0000     -10.315194      -280.6907
   5   2.0000     -10.312736      -280.6238
   6   2.0000     -10.309127      -280.5256
   7   2.0000     -10.304383      -280.3965
   8   2.0000     -10.299995      -280.2771
   9   2.0000     -10.291114      -280.0355
  10   2.0000     -10.289874      -280.0017
  11   2.0000     -10.284740      -279.8620
  12   2.0000     -10.282135      -279.7911
  13   2.0000     -10.277320      -279.6601
  14   2.0000     -10.277152      -279.6555
  15   2.0000     -10.272722      -279.5350
  16   2.0000      -8.083203      -219.9551
  17   2.0000      -8.077028      -219.7871
  18   2.0000      -6.041610      -164.4006
  19   2.0000      -6.037599      -164.2914
  20   2.0000      -6.035343      -164.2300
  21   2.0000      -6.033962      -164.1925
  22   2.0000      -6.031188      -164.1170
  23   2.0000      -6.027999      -164.0302
  24   2.0000      -1.011418       -27.5221
  25   2.0000      -0.990395       -26.9500
  26   2.0000      -0.913141       -24.8478
  27   2.0000      -0.909374       -24.7453
  28   2.0000      -0.872737       -23.7484
  29   2.0000      -0.850329       -23.1386
  30   2.0000      -0.847967       -23.0744
  31   2.0000      -0.814226       -22.1562
  32   2.0000      -0.781836       -21.2748
  33   2.0000      -0.768397       -20.9091
  34   2.0000      -0.710159       -19.3244
  35   2.0000      -0.703384       -19.1400
  36   2.0000      -0.687156       -18.6985
  37   2.0000      -0.662249       -18.0207
  38   2.0000      -0.648728       -17.6528
  39   2.0000      -0.614325       -16.7166
  40   2.0000      -0.599868       -16.3232
  41   2.0000      -0.569172       -15.4879
  42   2.0000      -0.556155       -15.1337
  43   2.0000      -0.551224       -14.9996
  44   2.0000      -0.531476       -14.4622
  45   2.0000      -0.526952       -14.3391
  46   2.0000      -0.521223       -14.1832
  47   2.0000      -0.515076       -14.0159
  48   2.0000      -0.505818       -13.7640
  49   2.0000      -0.496794       -13.5185
  50   2.0000      -0.490161       -13.3380
  51   2.0000      -0.486151       -13.2289
  52   2.0000      -0.476498       -12.9662
  53   2.0000      -0.469108       -12.7651
  54   2.0000      -0.457587       -12.4516
  55   2.0000      -0.449243       -12.2245
  56   2.0000      -0.443118       -12.0579
  57   2.0000      -0.440261       -11.9801
  58   2.0000      -0.427925       -11.6444
  59   2.0000      -0.423798       -11.5321
  60   2.0000      -0.420379       -11.4391
  61   2.0000      -0.409611       -11.1461
  62   2.0000      -0.399599       -10.8737
  63   2.0000      -0.338124        -9.2008
  64   2.0000      -0.328273        -8.9328
  65   2.0000      -0.315747        -8.5919
  66   2.0000      -0.306316        -8.3353
  67   0.0000       0.045739         1.2446
  68   0.0000       0.049597         1.3496
  69   0.0000       0.106346         2.8938
  70   0.0000       0.116051         3.1579
  71   0.0000       0.127034         3.4568

MULLIKEN ATOMIC CHARGES
-----------------------
   0 S :    0.122921
   1 C :   -0.104441
   2 C :   -0.142490
   3 C :    0.041951
   4 C :   -0.194541
   5 H :    0.035298
   6 C :    0.089785
   7 H :    0.024458
   8 H :    0.031579
   9 C :   -0.048402
  10 H :    0.015212
  11 H :    0.026928
  12 C :   -0.060655
  13 H :    0.009746
  14 H :    0.045398
  15 H :    0.015170
  16 S :    0.127295
  17 C :   -0.067178
  18 C :   -0.042986
  19 C :   -0.046438
  20 C :   -0.172545
  21 H :    0.027481
  22 C :    0.112563
  23 H :    0.027967
  24 H :   -0.015346
  25 C :   -0.083764
  26 H :    0.013004
  27 H :    0.044076
  28 C :   -0.040141
  29 H :    0.025939
  30 H :    0.026984
  31 H :    0.042047
  32 H :    0.058868
  33 H :    0.054256
Sum of atomic charges:   -0.0000000

LOEWDIN ATOMIC CHARGES
----------------------
   0 S :    0.442879
   1 C :   -0.226960
   2 C :   -0.061414
   3 C :   -0.065127
   4 C :   -0.216718
   5 H :    0.039121
   6 C :   -0.030617
   7 H :    0.031678
   8 H :    0.032912
   9 C :   -0.048147
  10 H :    0.024025
  11 H :    0.028650
  12 C :   -0.072461
  13 H :    0.020721
  14 H :    0.027856
  15 H :    0.023313
  16 S :    0.439694
  17 C :   -0.195320
  18 C :   -0.074908
  19 C :   -0.042253
  20 C :   -0.212312
  21 H :    0.036116
  22 C :   -0.036077
  23 H :    0.035068
  24 H :    0.025469
  25 C :   -0.038852
  26 H :    0.018986
  27 H :    0.021307
  28 C :   -0.058598
  29 H :    0.021288
  30 H :    0.021706
  31 H :    0.029770
  32 H :    0.028015
  33 H :    0.031189

  Mayer bond orders larger than 0.100000
B(  0-S ,  1-C ) :   1.1805 B(  0-S ,  4-C ) :   1.1770 B(  1-C ,  2-C ) :   1.5384
B(  1-C ,  4-C ) :   0.1046 B(  1-C , 32-H ) :   0.9753 B(  2-C ,  3-C ) :   1.2550
B(  2-C ,  6-C ) :   1.0457 B(  3-C ,  4-C ) :   1.5513 B(  3-C ,  5-H ) :   0.9897
B(  4-C , 20-C ) :   0.9879 B(  6-C ,  7-H ) :   0.9411 B(  6-C ,  8-H ) :   0.9483
B(  6-C ,  9-C ) :   1.0371 B(  9-C , 10-H ) :   0.9508 B(  9-C , 11-H ) :   0.9561
B(  9-C , 12-C ) :   1.0877 B( 12-C , 13-H ) :   0.9693 B( 12-C , 14-H ) :   0.9772
B( 12-C , 15-H ) :   0.9674 B( 16-S , 17-C ) :   1.1725 B( 16-S , 20-C ) :   1.1553
B( 17-C , 18-C ) :   1.6219 B( 17-C , 33-H ) :   0.9530 B( 18-C , 19-C ) :   1.2564
B( 18-C , 21-H ) :   0.9810 B( 19-C , 20-C ) :   1.6068 B( 19-C , 22-C ) :   1.0439
B( 22-C , 23-H ) :   0.9252 B( 22-C , 24-H ) :   0.9197 B( 22-C , 25-C ) :   1.0544
B( 25-C , 26-H ) :   0.9509 B( 25-C , 27-H ) :   0.9577 B( 25-C , 28-C ) :   1.0806
B( 28-C , 29-H ) :   0.9771 B( 28-C , 30-H ) :   0.9770 B( 28-C , 31-H ) :   0.9751

Dispersion correction           -0.015277146
FINAL SINGLE POINT ENERGY     -1339.851187212237

DIPOLE MOMENT
-------------
                                X             Y             Z
Electronic contribution:      0.05306      27.47671      12.61235
Nuclear contribution   :      0.24829     -27.98260     -12.77651
                        -----------------------------------------
Total Dipole Moment    :      0.30134      -0.50590      -0.16416
                        -----------------------------------------
Magnitude (a.u.)       :      0.61130
Magnitude (Debye)      :      1.55381

Rotational constants in cm-1:     0.019666     0.009223     0.007328
Rotational constants in MHz :   589.574463   276.512332   219.683893

                             ****ORCA TERMINATED NORMALLY****
TOTAL RUN TIME: 0 days 0 hours 0 minutes 31 seconds 625 msec
