                         Program Version 4.2.1 -  RELEASE  -
|  1> ! wB97X-D3 SP def2-SVP
|  2> %pal
|  3> nprocs 16
|  4> end
|  5>
|  6> * xyz 0 1
|  7> S 	 8.82319 	 25.6491 	 65.3242
|  8> C 	 7.96173 	 24.477 	 64.2632
|  9> C 	 6.75087 	 24.0677 	 64.8915
| 10> C 	 6.64894 	 24.5179 	 66.1975
| 11> C 	 7.63672 	 25.4319 	 66.6141
| 12> H 	 5.80249 	 24.2565 	 66.8536
| 13> C 	 5.73114 	 23.1486 	 64.2535
| 14> H 	 6.22117 	 22.2097 	 64.5674
| 15> H 	 5.61319 	 23.3459 	 63.1724
| 16> C 	 4.23899 	 23.0222 	 64.7593
| 17> H 	 3.85699 	 22.1838 	 64.2104
| 18> H 	 4.17434 	 22.7612 	 65.7892
| 19> C 	 3.44514 	 24.3016 	 64.4287
| 20> H 	 2.37151 	 24.1696 	 64.7534
| 21> H 	 3.8527 	 25.1456 	 64.986
| 22> H 	 3.48582 	 24.4539 	 63.3647
| 23> S 	 7.60797 	 25.3216 	 69.3572
| 24> C 	 8.16303 	 26.5829 	 70.3158
| 25> C 	 8.43391 	 27.7152 	 69.5679
| 26> C 	 8.1781 	 27.5315 	 68.1439
| 27> C 	 7.75193 	 26.2211 	 67.8624
| 28> H 	 8.75664 	 28.6339 	 69.9915
| 29> C 	 8.43858 	 28.7564 	 67.2087
| 30> H 	 7.90889 	 28.5803 	 66.3001
| 31> H 	 9.53511 	 28.7626 	 66.9657
| 32> C 	 7.95939 	 30.0293 	 67.8494
| 33> H 	 8.35024 	 30.8015 	 67.1813
| 34> H 	 8.36476 	 30.28 	 68.8058
| 35> C 	 6.45605 	 30.0766 	 67.8872
| 36> H 	 6.09059 	 30.0839 	 66.8493
| 37> H 	 6.18627 	 31.0114 	 68.2795
| 38> H 	 5.93028 	 29.2313 	 68.3761
| 39> H 	 8.23325 	 24.2477 	 63.3243
| 40> H 	 8.3021 	 26.448 	 71.4141
| 41> *
| 42>
| 43>                          ****END OF INPUT****

CARTESIAN COORDINATES (ANGSTROEM)
---------------------------------
  S      8.823190   25.649100   65.324200
  C      7.961730   24.477000   64.263200
  C      6.750870   24.067700   64.891500
  C      6.648940   24.517900   66.197500
  C      7.636720   25.431900   66.614100
  H      5.802490   24.256500   66.853600
  C      5.731140   23.148600   64.253500
  H      6.221170   22.209700   64.567400
  H      5.613190   23.345900   63.172400
  C      4.238990   23.022200   64.759300
  H      3.856990   22.183800   64.210400
  H      4.174340   22.761200   65.789200
  C      3.445140   24.301600   64.428700
  H      2.371510   24.169600   64.753400
  H      3.852700   25.145600   64.986000
  H      3.485820   24.453900   63.364700
  S      7.607970   25.321600   69.357200
  C      8.163030   26.582900   70.315800
  C      8.433910   27.715200   69.567900
  C      8.178100   27.531500   68.143900
  C      7.751930   26.221100   67.862400
  H      8.756640   28.633900   69.991500
  C      8.438580   28.756400   67.208700
  H      7.908890   28.580300   66.300100
  H      9.535110   28.762600   66.965700
  C      7.959390   30.029300   67.849400
  H      8.350240   30.801500   67.181300
  H      8.364760   30.280000   68.805800
  C      6.456050   30.076600   67.887200
  H      6.090590   30.083900   66.849300
  H      6.186270   31.011400   68.279500
  H      5.930280   29.231300   68.376100
  H      8.233250   24.247700   63.324300
  H      8.302100   26.448000   71.414100

 Total Charge           Charge          ....    0
 Multiplicity           Mult            ....    1
 Number of Electrons    NEL             ....  134
 Basis Dimension        Dim             ....  322

ORBITAL ENERGIES
----------------

  NO   OCC          E(Eh)            E(eV)
   0   2.0000     -88.968336     -2420.9515
   1   2.0000     -88.962424     -2420.7906
   2   2.0000     -10.336646      -281.2744
   3   2.0000     -10.329459      -281.0789
   4   2.0000     -10.316555      -280.7277
   5   2.0000     -10.309515      -280.5362
   6   2.0000     -10.308361      -280.5047
   7   2.0000     -10.303294      -280.3669
   8   2.0000     -10.297439      -280.2076
   9   2.0000     -10.293137      -280.0905
  10   2.0000     -10.292773      -280.0806
  11   2.0000     -10.291062      -280.0340
  12   2.0000     -10.287831      -279.9461
  13   2.0000     -10.280838      -279.7558
  14   2.0000     -10.280264      -279.7402
  15   2.0000     -10.269920      -279.4587
  16   2.0000      -8.081333      -219.9043
  17   2.0000      -8.078701      -219.8326
  18   2.0000      -6.039883      -164.3536
  19   2.0000      -6.037122      -164.2785
  20   2.0000      -6.035930      -164.2460
  21   2.0000      -6.032853      -164.1623
  22   2.0000      -6.032326      -164.1479
  23   2.0000      -6.029598      -164.0737
  24   2.0000      -1.003139       -27.2968
  25   2.0000      -0.980030       -26.6680
  26   2.0000      -0.917460       -24.9654
  27   2.0000      -0.908051       -24.7093
  28   2.0000      -0.865010       -23.5381
  29   2.0000      -0.846931       -23.0462
  30   2.0000      -0.842229       -22.9182
  31   2.0000      -0.810003       -22.0413
  32   2.0000      -0.783815       -21.3287
  33   2.0000      -0.770703       -20.9719
  34   2.0000      -0.708977       -19.2923
  35   2.0000      -0.703267       -19.1369
  36   2.0000      -0.690666       -18.7940
  37   2.0000      -0.658419       -17.9165
  38   2.0000      -0.630159       -17.1475
  39   2.0000      -0.620877       -16.8949
  40   2.0000      -0.605548       -16.4778
  41   2.0000      -0.572276       -15.5724
  42   2.0000      -0.559137       -15.2149
  43   2.0000      -0.550003       -14.9663
  44   2.0000      -0.538257       -14.6467
  45   2.0000      -0.533936       -14.5291
  46   2.0000      -0.520637       -14.1673
  47   2.0000      -0.517113       -14.0714
  48   2.0000      -0.500450       -13.6179
  49   2.0000      -0.494131       -13.4460
  50   2.0000      -0.486770       -13.2457
  51   2.0000      -0.482155       -13.1201
  52   2.0000      -0.467252       -12.7146
  53   2.0000      -0.463237       -12.6053
  54   2.0000      -0.456300       -12.4165
  55   2.0000      -0.446042       -12.1374
  56   2.0000      -0.445555       -12.1242
  57   2.0000      -0.440309       -11.9814
  58   2.0000      -0.435201       -11.8424
  59   2.0000      -0.431444       -11.7402
  60   2.0000      -0.419950       -11.4274
  61   2.0000      -0.412823       -11.2335
  62   2.0000      -0.404916       -11.0183
  63   2.0000      -0.346172        -9.4198
  64   2.0000      -0.330336        -8.9889
  65   2.0000      -0.327109        -8.9011
  66   2.0000      -0.283091        -7.7033
  67   0.0000       0.026602         0.7239
  68   0.0000       0.073882         2.0104
  69   0.0000       0.106742         2.9046
  70   0.0000       0.124255         3.3811
  71   0.0000       0.132595         3.6081

MULLIKEN ATOMIC CHARGES
-----------------------
   0 S :    0.108101
   1 C :   -0.090505
   2 C :   -0.072160
   3 C :    0.006411
   4 C :   -0.129973
   5 H :    0.018941
   6 C :   -0.003175
   7 H :    0.059543
   8 H :    0.040978
   9 C :   -0.052780
  10 H :    0.027092
  11 H :    0.022351
  12 C :   -0.057895
  13 H :    0.043125
  14 H :    0.044264
  15 H :    0.028959
  16 S :    0.111412
  17 C :   -0.098785
  18 C :   -0.031297
  19 C :   -0.093717
  20 C :   -0.155732
  21 H :    0.005653
  22 C :    0.094868
  23 H :    0.014419
  24 H :    0.051330
  25 C :   -0.076805
  26 H :    0.024145
  27 H :    0.022230
  28 C :   -0.029074
  29 H :    0.020670
  30 H :    0.017955
  31 H :    0.055543
  32 H :   -0.003513
  33 H :    0.077422
Sum of atomic charges:   -0.0000000

LOEWDIN ATOMIC CHARGES
----------------------
   0 S :    0.395953
   1 C :   -0.179500
   2 C :   -0.056090
   3 C :   -0.080830
   4 C :   -0.183530
   5 H :    0.033556
   6 C :   -0.037775
   7 H :    0.047268
   8 H :    0.034139
   9 C :   -0.036109
  10 H :    0.025606
  11 H :    0.015787
  12 C :   -0.064917
  13 H :    0.031913
  14 H :    0.027563
  15 H :    0.021785
  16 S :    0.438110
  17 C :   -0.210078
  18 C :   -0.075003
  19 C :   -0.053861
  20 C :   -0.213036
  21 H :    0.022949
  22 C :   -0.027653
  23 H :    0.023410
  24 H :    0.038948
  25 C :   -0.042397
  26 H :    0.029500
  27 H :    0.016334
  28 C :   -0.059798
  29 H :    0.027377
  30 H :    0.018163
  31 H :    0.033490
  32 H :   -0.000934
  33 H :    0.039662

  Mayer bond orders larger than 0.100000
B(  0-S ,  1-C ) :   1.1370 B(  0-S ,  4-C ) :   1.1653 B(  1-C ,  2-C ) :   1.5552
B(  1-C ,  4-C ) :   0.1189 B(  1-C , 32-H ) :   0.9899 B(  2-C ,  3-C ) :   1.3065
B(  2-C ,  6-C ) :   0.9939 B(  3-C ,  4-C ) :   1.5173 B(  3-C ,  5-H ) :   0.9808
B(  4-C , 20-C ) :   1.0337 B(  6-C ,  7-H ) :   0.9359 B(  6-C ,  8-H ) :   0.9502
B(  6-C ,  9-C ) :   1.0870 B(  9-C , 10-H ) :   0.9519 B(  9-C , 11-H ) :   0.9496
B(  9-C , 12-C ) :   1.0755 B( 12-C , 13-H ) :   0.9747 B( 12-C , 14-H ) :   0.9773
B( 12-C , 15-H ) :   0.9751 B( 16-S , 17-C ) :   1.1887 B( 16-S , 20-C ) :   1.1486
B( 17-C , 18-C ) :   1.5688 B( 17-C , 33-H ) :   0.9619 B( 18-C , 19-C ) :   1.2540
B( 18-C , 21-H ) :   0.9984 B( 19-C , 20-C ) :   1.5794 B( 19-C , 22-C ) :   1.0159
B( 22-C , 23-H ) :   0.9360 B( 22-C , 24-H ) :   0.9341 B( 22-C , 25-C ) :   1.0813
B( 25-C , 26-H ) :   0.9466 B( 25-C , 27-H ) :   0.9539 B( 25-C , 28-C ) :   1.0802
B( 28-C , 29-H ) :   0.9709 B( 28-C , 30-H ) :   0.9707 B( 28-C , 31-H ) :   0.9743

Dispersion correction           -0.014300789
FINAL SINGLE POINT ENERGY     -1339.870517449359

DIPOLE MOMENT
-------------
                                X             Y             Z
Electronic contribution:     16.12860      -8.04974       7.79621
Nuclear contribution   :    -16.42667       8.22171      -7.86922
                        -----------------------------------------
Total Dipole Moment    :     -0.29807       0.17198      -0.07301
                        -----------------------------------------
Magnitude (a.u.)       :      0.35178
Magnitude (Debye)      :      0.89416

Rotational constants in cm-1:     0.019966     0.007654     0.007369
Rotational constants in MHz :   598.575694   229.468775   220.916638

                             ****ORCA TERMINATED NORMALLY****
TOTAL RUN TIME: 0 days 0 hours 0 minutes 34 seconds 421 msec
