                         Program Version 4.2.1 -  RELEASE  -
|  1> ! wB97X-D3 SP def2-SVP
|  2> %pal
|  3> nprocs 16
|  4> end
|  5>
|  6> * xyz 0 1
|  7> S 	 -37.2241 	 53.8518 	 108.828
|  8> C 	 -36.1981 	 55.2794 	 108.845
|  9> C 	 -36.8706 	 56.3251 	 109.513
| 10> C 	 -38.2527 	 56.0655 	 109.638
| 11> C 	 -38.6053 	 54.8782 	 109.082
| 12> H 	 -38.9201 	 56.7796 	 110.111
| 13> C 	 -36.3686 	 57.7167 	 109.564
| 14> H 	 -37.2591 	 58.4048 	 109.796
| 15> H 	 -35.9983 	 57.9074 	 108.57
| 16> C 	 -35.2311 	 57.9486 	 110.662
| 17> H 	 -34.4642 	 57.22 	 110.565
| 18> H 	 -34.7035 	 58.8851 	 110.536
| 19> C 	 -35.7172 	 57.8223 	 112.099
| 20> H 	 -36.5623 	 58.473 	 112.337
| 21> H 	 -35.9877 	 56.8587 	 112.43
| 22> H 	 -34.879 	 58.0275 	 112.768
| 23> S 	 -40.0518 	 52.6078 	 109.764
| 24> C 	 -41.7943 	 52.5792 	 109.577
| 25> C 	 -42.2569 	 53.8849 	 109.463
| 26> C 	 -41.2116 	 54.8779 	 109.261
| 27> C 	 -39.9448 	 54.3499 	 109.307
| 28> H 	 -43.267 	 54.0319 	 109.447
| 29> C 	 -41.6239 	 56.3303 	 109.109
| 30> H 	 -41.1666 	 56.837 	 110.014
| 31> H 	 -42.7416 	 56.4795 	 109.224
| 32> C 	 -41.3218 	 57.0228 	 107.742
| 33> H 	 -40.3757 	 57.3295 	 107.66
| 34> H 	 -41.8978 	 57.9292 	 107.607
| 35> C 	 -41.6617 	 56.3247 	 106.434
| 36> H 	 -40.9134 	 55.4832 	 106.224
| 37> H 	 -41.7106 	 57.0086 	 105.56
| 38> H 	 -42.6988 	 55.924 	 106.396
| 39> H 	 -35.1741 	 55.2877 	 108.664
| 40> H 	 -42.3808 	 51.6736 	 109.665
| 41> *
| 42>
| 43>                          ****END OF INPUT****

CARTESIAN COORDINATES (ANGSTROEM)
---------------------------------
  S    -37.224100   53.851800  108.828000
  C    -36.198100   55.279400  108.845000
  C    -36.870600   56.325100  109.513000
  C    -38.252700   56.065500  109.638000
  C    -38.605300   54.878200  109.082000
  H    -38.920100   56.779600  110.111000
  C    -36.368600   57.716700  109.564000
  H    -37.259100   58.404800  109.796000
  H    -35.998300   57.907400  108.570000
  C    -35.231100   57.948600  110.662000
  H    -34.464200   57.220000  110.565000
  H    -34.703500   58.885100  110.536000
  C    -35.717200   57.822300  112.099000
  H    -36.562300   58.473000  112.337000
  H    -35.987700   56.858700  112.430000
  H    -34.879000   58.027500  112.768000
  S    -40.051800   52.607800  109.764000
  C    -41.794300   52.579200  109.577000
  C    -42.256900   53.884900  109.463000
  C    -41.211600   54.877900  109.261000
  C    -39.944800   54.349900  109.307000
  H    -43.267000   54.031900  109.447000
  C    -41.623900   56.330300  109.109000
  H    -41.166600   56.837000  110.014000
  H    -42.741600   56.479500  109.224000
  C    -41.321800   57.022800  107.742000
  H    -40.375700   57.329500  107.660000
  H    -41.897800   57.929200  107.607000
  C    -41.661700   56.324700  106.434000
  H    -40.913400   55.483200  106.224000
  H    -41.710600   57.008600  105.560000
  H    -42.698800   55.924000  106.396000
  H    -35.174100   55.287700  108.664000
  H    -42.380800   51.673600  109.665000

 Total Charge           Charge          ....    0
 Multiplicity           Mult            ....    1
 Number of Electrons    NEL             ....  134
 Basis Dimension        Dim             ....  322

ORBITAL ENERGIES
----------------

  NO   OCC          E(Eh)            E(eV)
   0   2.0000     -88.971154     -2421.0282
   1   2.0000     -88.958246     -2420.6769
   2   2.0000     -10.328282      -281.0468
   3   2.0000     -10.327149      -281.0160
   4   2.0000     -10.316454      -280.7250
   5   2.0000     -10.314438      -280.6701
   6   2.0000     -10.304781      -280.4074
   7   2.0000     -10.303965      -280.3851
   8   2.0000     -10.299651      -280.2678
   9   2.0000     -10.298768      -280.2437
  10   2.0000     -10.292215      -280.0654
  11   2.0000     -10.289145      -279.9819
  12   2.0000     -10.287367      -279.9335
  13   2.0000     -10.281094      -279.7628
  14   2.0000     -10.275020      -279.5975
  15   2.0000     -10.272644      -279.5329
  16   2.0000      -8.085725      -220.0238
  17   2.0000      -8.072621      -219.6672
  18   2.0000      -6.044278      -164.4732
  19   2.0000      -6.040545      -164.3716
  20   2.0000      -6.036139      -164.2517
  21   2.0000      -6.031297      -164.1199
  22   2.0000      -6.027295      -164.0110
  23   2.0000      -6.023135      -163.8978
  24   2.0000      -1.010831       -27.5061
  25   2.0000      -0.980358       -26.6769
  26   2.0000      -0.910730       -24.7822
  27   2.0000      -0.903129       -24.5754
  28   2.0000      -0.868872       -23.6432
  29   2.0000      -0.857720       -23.3397
  30   2.0000      -0.844589       -22.9824
  31   2.0000      -0.814908       -22.1748
  32   2.0000      -0.779221       -21.2037
  33   2.0000      -0.770607       -20.9693
  34   2.0000      -0.712891       -19.3987
  35   2.0000      -0.706187       -19.2163
  36   2.0000      -0.689418       -18.7600
  37   2.0000      -0.666882       -18.1468
  38   2.0000      -0.641106       -17.4454
  39   2.0000      -0.618689       -16.8354
  40   2.0000      -0.586355       -15.9555
  41   2.0000      -0.569856       -15.5066
  42   2.0000      -0.558736       -15.2040
  43   2.0000      -0.551470       -15.0063
  44   2.0000      -0.548029       -14.9126
  45   2.0000      -0.540367       -14.7041
  46   2.0000      -0.515631       -14.0310
  47   2.0000      -0.510651       -13.8955
  48   2.0000      -0.503045       -13.6885
  49   2.0000      -0.496371       -13.5069
  50   2.0000      -0.488713       -13.2986
  51   2.0000      -0.477347       -12.9893
  52   2.0000      -0.471651       -12.8343
  53   2.0000      -0.464639       -12.6435
  54   2.0000      -0.461104       -12.5473
  55   2.0000      -0.446250       -12.1431
  56   2.0000      -0.443179       -12.0595
  57   2.0000      -0.440877       -11.9969
  58   2.0000      -0.430143       -11.7048
  59   2.0000      -0.425256       -11.5718
  60   2.0000      -0.418786       -11.3958
  61   2.0000      -0.410693       -11.1755
  62   2.0000      -0.404366       -11.0034
  63   2.0000      -0.355430        -9.6717
  64   2.0000      -0.328768        -8.9462
  65   2.0000      -0.324682        -8.8350
  66   2.0000      -0.284582        -7.7439
  67   0.0000       0.015263         0.4153
  68   0.0000       0.068078         1.8525
  69   0.0000       0.091179         2.4811
  70   0.0000       0.116884         3.1806
  71   0.0000       0.128140         3.4869

MULLIKEN ATOMIC CHARGES
-----------------------
   0 S :    0.110147
   1 C :   -0.079472
   2 C :   -0.063343
   3 C :   -0.015944
   4 C :   -0.074584
   5 H :    0.016622
   6 C :    0.009407
   7 H :    0.038608
   8 H :    0.043144
   9 C :   -0.042801
  10 H :    0.012420
  11 H :    0.026978
  12 C :   -0.048917
  13 H :    0.028050
  14 H :    0.022895
  15 H :    0.028097
  16 S :    0.065208
  17 C :   -0.095872
  18 C :    0.002954
  19 C :   -0.041558
  20 C :   -0.140081
  21 H :   -0.015690
  22 C :    0.014306
  23 H :    0.053982
  24 H :    0.031368
  25 C :   -0.001816
  26 H :   -0.002777
  27 H :    0.017841
  28 C :   -0.103031
  29 H :    0.055246
  30 H :    0.034287
  31 H :    0.025263
  32 H :    0.026039
  33 H :    0.063024
Sum of atomic charges:    0.0000000

LOEWDIN ATOMIC CHARGES
----------------------
   0 S :    0.413101
   1 C :   -0.178336
   2 C :   -0.062035
   3 C :   -0.054061
   4 C :   -0.195052
   5 H :    0.032333
   6 C :   -0.032012
   7 H :    0.035963
   8 H :    0.035126
   9 C :   -0.036732
  10 H :    0.018147
  11 H :    0.022701
  12 C :   -0.065907
  13 H :    0.022742
  14 H :    0.019305
  15 H :    0.030271
  16 S :    0.361657
  17 C :   -0.178195
  18 C :   -0.058905
  19 C :   -0.066406
  20 C :   -0.168198
  21 H :    0.013885
  22 C :   -0.035094
  23 H :    0.038766
  24 H :    0.038093
  25 C :   -0.040232
  26 H :    0.003995
  27 H :    0.027557
  28 C :   -0.073105
  29 H :    0.033643
  30 H :    0.029207
  31 H :    0.023858
  32 H :    0.013319
  33 H :    0.030600

  Mayer bond orders larger than 0.100000
B(  0-S ,  1-C ) :   1.1431 B(  0-S ,  4-C ) :   1.1504 B(  1-C ,  2-C ) :   1.5683
B(  1-C , 32-H ) :   0.9771 B(  2-C ,  3-C ) :   1.2663 B(  2-C ,  6-C ) :   1.0158
B(  3-C ,  4-C ) :   1.5281 B(  3-C ,  5-H ) :   0.9938 B(  4-C , 20-C ) :   1.0682
B(  6-C ,  7-H ) :   0.9572 B(  6-C ,  8-H ) :   0.9473 B(  6-C ,  9-C ) :   1.0514
B(  9-C , 10-H ) :   0.9571 B(  9-C , 11-H ) :   0.9598 B(  9-C , 12-C ) :   1.0799
B( 12-C , 13-H ) :   0.9774 B( 12-C , 14-H ) :   0.9734 B( 12-C , 15-H ) :   0.9708
B( 16-S , 17-C ) :   1.1396 B( 16-S , 20-C ) :   1.1111 B( 17-C , 18-C ) :   1.6168
B( 17-C , 33-H ) :   0.9704 B( 18-C , 19-C ) :   1.2170 B( 18-C , 21-H ) :   1.0054
B( 19-C , 20-C ) :   1.6335 B( 19-C , 22-C ) :   1.0308 B( 22-C , 23-H ) :   0.9404
B( 22-C , 24-H ) :   0.9398 B( 22-C , 25-C ) :   1.0585 B( 25-C , 26-H ) :   0.9523
B( 25-C , 27-H ) :   0.9573 B( 25-C , 28-C ) :   1.0812 B( 28-C , 29-H ) :   0.9716
B( 28-C , 30-H ) :   0.9742 B( 28-C , 31-H ) :   0.9743

Dispersion correction           -0.014741966
FINAL SINGLE POINT ENERGY     -1339.841734497482

DIPOLE MOMENT
-------------
                                X             Y             Z
Electronic contribution:     -0.08475     -24.42211       0.01998
Nuclear contribution   :      0.05627      25.10742       0.09143
                        -----------------------------------------
Total Dipole Moment    :     -0.02848       0.68531       0.11142
                        -----------------------------------------
Magnitude (a.u.)       :      0.69489
Magnitude (Debye)      :      1.76627

Rotational constants in cm-1:     0.019888     0.008700     0.007290
Rotational constants in MHz :   596.220157   260.827967   218.538041

                             ****ORCA TERMINATED NORMALLY****
TOTAL RUN TIME: 0 days 0 hours 0 minutes 31 seconds 44 msec
