                         Program Version 4.2.1 -  RELEASE  -
|  1> ! wB97X-D3 SP def2-SVP
|  2> %pal
|  3> nprocs 16
|  4> end
|  5>
|  6> * xyz 0 1
|  7> S 	 13.1664 	 0.733299 	 82.9288
|  8> C 	 14.3802 	 1.34759 	 81.8349
|  9> C 	 14.7803 	 2.65335 	 82.1766
| 10> C 	 14.3306 	 2.94113 	 83.5037
| 11> C 	 13.6181 	 1.95458 	 84.0712
| 12> H 	 14.4412 	 3.8107 	 84.149
| 13> C 	 15.5758 	 3.57155 	 81.3068
| 14> H 	 15.9223 	 3.04824 	 80.3652
| 15> H 	 16.5223 	 3.97635 	 81.8564
| 16> C 	 14.7575 	 4.81417 	 80.8868
| 17> H 	 14.1479 	 5.03029 	 81.7348
| 18> H 	 15.3466 	 5.6666 	 80.4858
| 19> C 	 13.6762 	 4.55019 	 79.8404
| 20> H 	 14.173 	 4.39946 	 78.9048
| 21> H 	 13.0829 	 3.64906 	 80.0861
| 22> H 	 13.0377 	 5.44911 	 79.6603
| 23> S 	 14.2045 	 1.69203 	 86.6926
| 24> C 	 13.0113 	 1.82518 	 87.9446
| 25> C 	 11.7638 	 2.04201 	 87.4293
| 26> C 	 11.7348 	 1.9204 	 85.992
| 27> C 	 13.0314 	 1.9964 	 85.4573
| 28> H 	 10.9248 	 2.21065 	 88.0959
| 29> C 	 10.4749 	 2.23292 	 85.2249
| 30> H 	 9.94851 	 1.31468 	 85.1386
| 31> H 	 10.8058 	 2.33947 	 84.1634
| 32> C 	 9.69231 	 3.48364 	 85.5119
| 33> H 	 10.3355 	 4.36972 	 85.3541
| 34> H 	 9.30391 	 3.61414 	 86.5469
| 35> C 	 8.49887 	 3.61964 	 84.6245
| 36> H 	 8.30886 	 4.67577 	 84.3667
| 37> H 	 7.52409 	 3.16431 	 85.0022
| 38> H 	 8.56842 	 3.03237 	 83.6846
| 39> H 	 14.3981 	 0.906097 	 80.8637
| 40> H 	 13.2245 	 1.82991 	 88.9646
| 41> *
| 42>
| 43>                          ****END OF INPUT****

CARTESIAN COORDINATES (ANGSTROEM)
---------------------------------
  S     13.166400    0.733299   82.928800
  C     14.380200    1.347590   81.834900
  C     14.780300    2.653350   82.176600
  C     14.330600    2.941130   83.503700
  C     13.618100    1.954580   84.071200
  H     14.441200    3.810700   84.149000
  C     15.575800    3.571550   81.306800
  H     15.922300    3.048240   80.365200
  H     16.522300    3.976350   81.856400
  C     14.757500    4.814170   80.886800
  H     14.147900    5.030290   81.734800
  H     15.346600    5.666600   80.485800
  C     13.676200    4.550190   79.840400
  H     14.173000    4.399460   78.904800
  H     13.082900    3.649060   80.086100
  H     13.037700    5.449110   79.660300
  S     14.204500    1.692030   86.692600
  C     13.011300    1.825180   87.944600
  C     11.763800    2.042010   87.429300
  C     11.734800    1.920400   85.992000
  C     13.031400    1.996400   85.457300
  H     10.924800    2.210650   88.095900
  C     10.474900    2.232920   85.224900
  H      9.948510    1.314680   85.138600
  H     10.805800    2.339470   84.163400
  C      9.692310    3.483640   85.511900
  H     10.335500    4.369720   85.354100
  H      9.303910    3.614140   86.546900
  C      8.498870    3.619640   84.624500
  H      8.308860    4.675770   84.366700
  H      7.524090    3.164310   85.002200
  H      8.568420    3.032370   83.684600
  H     14.398100    0.906097   80.863700
  H     13.224500    1.829910   88.964600

 Total Charge           Charge          ....    0
 Multiplicity           Mult            ....    1
 Number of Electrons    NEL             ....  134
 Basis Dimension        Dim             ....  322

ORBITAL ENERGIES
----------------

  NO   OCC          E(Eh)            E(eV)
   0   2.0000     -88.965590     -2420.8768
   1   2.0000     -88.962111     -2420.7821
   2   2.0000     -10.328412      -281.0504
   3   2.0000     -10.327248      -281.0187
   4   2.0000     -10.316335      -280.7217
   5   2.0000     -10.310772      -280.5704
   6   2.0000     -10.308363      -280.5048
   7   2.0000     -10.305544      -280.4281
   8   2.0000     -10.304198      -280.3915
   9   2.0000     -10.293578      -280.1025
  10   2.0000     -10.292074      -280.0616
  11   2.0000     -10.288454      -279.9631
  12   2.0000     -10.286983      -279.9230
  13   2.0000     -10.285675      -279.8874
  14   2.0000     -10.281110      -279.7632
  15   2.0000     -10.275608      -279.6135
  16   2.0000      -8.081008      -219.8954
  17   2.0000      -8.077644      -219.8039
  18   2.0000      -6.039303      -164.3378
  19   2.0000      -6.036120      -164.2512
  20   2.0000      -6.035752      -164.2412
  21   2.0000      -6.031889      -164.1361
  22   2.0000      -6.031615      -164.1286
  23   2.0000      -6.028543      -164.0450
  24   2.0000      -1.011376       -27.5209
  25   2.0000      -0.989528       -26.9264
  26   2.0000      -0.914757       -24.8918
  27   2.0000      -0.914115       -24.8743
  28   2.0000      -0.868452       -23.6318
  29   2.0000      -0.853322       -23.2201
  30   2.0000      -0.849196       -23.1078
  31   2.0000      -0.819197       -22.2915
  32   2.0000      -0.780311       -21.2333
  33   2.0000      -0.768522       -20.9125
  34   2.0000      -0.703127       -19.1331
  35   2.0000      -0.698137       -18.9973
  36   2.0000      -0.686558       -18.6822
  37   2.0000      -0.661556       -18.0018
  38   2.0000      -0.644861       -17.5476
  39   2.0000      -0.622147       -16.9295
  40   2.0000      -0.600331       -16.3358
  41   2.0000      -0.576002       -15.6738
  42   2.0000      -0.561708       -15.2849
  43   2.0000      -0.549164       -14.9435
  44   2.0000      -0.537833       -14.6352
  45   2.0000      -0.534957       -14.5569
  46   2.0000      -0.517863       -14.0918
  47   2.0000      -0.514035       -13.9876
  48   2.0000      -0.507558       -13.8114
  49   2.0000      -0.490583       -13.3494
  50   2.0000      -0.488815       -13.3013
  51   2.0000      -0.473356       -12.8807
  52   2.0000      -0.468605       -12.7514
  53   2.0000      -0.465276       -12.6608
  54   2.0000      -0.456769       -12.4293
  55   2.0000      -0.451227       -12.2785
  56   2.0000      -0.443725       -12.0744
  57   2.0000      -0.439352       -11.9554
  58   2.0000      -0.434273       -11.8172
  59   2.0000      -0.427993       -11.6463
  60   2.0000      -0.420104       -11.4316
  61   2.0000      -0.409570       -11.1450
  62   2.0000      -0.403665       -10.9843
  63   2.0000      -0.341836        -9.3018
  64   2.0000      -0.334371        -9.0987
  65   2.0000      -0.324132        -8.8201
  66   2.0000      -0.302563        -8.2332
  67   0.0000       0.036351         0.9891
  68   0.0000       0.062637         1.7044
  69   0.0000       0.099975         2.7205
  70   0.0000       0.123181         3.3519
  71   0.0000       0.131607         3.5812

MULLIKEN ATOMIC CHARGES
-----------------------
   0 S :    0.111611
   1 C :   -0.104579
   2 C :   -0.082862
   3 C :    0.023722
   4 C :   -0.144166
   5 H :    0.019187
   6 C :    0.039559
   7 H :    0.030175
   8 H :    0.057573
   9 C :   -0.074887
  10 H :    0.023977
  11 H :    0.043429
  12 C :   -0.072860
  13 H :    0.013873
  14 H :    0.042158
  15 H :    0.041782
  16 S :    0.110535
  17 C :   -0.061882
  18 C :   -0.044261
  19 C :   -0.028178
  20 C :   -0.177393
  21 H :    0.023354
  22 C :    0.045293
  23 H :    0.023966
  24 H :    0.015952
  25 C :   -0.040542
  26 H :    0.035769
  27 H :    0.033754
  28 C :   -0.082832
  29 H :    0.039898
  30 H :    0.035282
  31 H :    0.025269
  32 H :    0.046310
  33 H :    0.032012
Sum of atomic charges:    0.0000000

LOEWDIN ATOMIC CHARGES
----------------------
   0 S :    0.410654
   1 C :   -0.189201
   2 C :   -0.059729
   3 C :   -0.065269
   4 C :   -0.201586
   5 H :    0.037669
   6 C :   -0.039477
   7 H :    0.033138
   8 H :    0.045392
   9 C :   -0.045088
  10 H :    0.020468
  11 H :    0.030045
  12 C :   -0.069360
  13 H :    0.014673
  14 H :    0.026969
  15 H :    0.031371
  16 S :    0.423921
  17 C :   -0.181774
  18 C :   -0.067321
  19 C :   -0.061270
  20 C :   -0.202019
  21 H :    0.032764
  22 C :   -0.043046
  23 H :    0.028428
  24 H :    0.032778
  25 C :   -0.047509
  26 H :    0.032414
  27 H :    0.027056
  28 C :   -0.075546
  29 H :    0.029487
  30 H :    0.030517
  31 H :    0.025396
  32 H :    0.018501
  33 H :    0.016554

  Mayer bond orders larger than 0.100000
B(  0-S ,  1-C ) :   1.1522 B(  0-S ,  4-C ) :   1.1409 B(  1-C ,  2-C ) :   1.5966
B(  1-C , 32-H ) :   0.9700 B(  2-C ,  3-C ) :   1.1995 B(  2-C ,  6-C ) :   1.0409
B(  3-C ,  4-C ) :   1.6199 B(  3-C ,  5-H ) :   0.9915 B(  4-C , 20-C ) :   0.9854
B(  6-C ,  7-H ) :   0.9445 B(  6-C ,  8-H ) :   0.9400 B(  6-C ,  9-C ) :   1.0506
B(  9-C , 10-H ) :   0.9607 B(  9-C , 11-H ) :   0.9589 B(  9-C , 12-C ) :   1.0731
B( 12-C , 13-H ) :   0.9750 B( 12-C , 14-H ) :   0.9754 B( 12-C , 15-H ) :   0.9736
B( 16-S , 17-C ) :   1.1555 B( 16-S , 20-C ) :   1.1684 B( 17-C , 18-C ) :   1.6210
B( 17-C , 33-H ) :   0.9750 B( 18-C , 19-C ) :   1.2192 B( 18-C , 21-H ) :   0.9901
B( 19-C , 20-C ) :   1.5815 B( 19-C , 22-C ) :   1.0553 B( 22-C , 23-H ) :   0.9249
B( 22-C , 24-H ) :   0.9320 B( 22-C , 25-C ) :   1.0671 B( 25-C , 26-H ) :   0.9560
B( 25-C , 27-H ) :   0.9496 B( 25-C , 28-C ) :   1.0740 B( 28-C , 29-H ) :   0.9757
B( 28-C , 30-H ) :   0.9735 B( 28-C , 31-H ) :   0.9743

Dispersion correction           -0.014270467
FINAL SINGLE POINT ENERGY     -1339.863591913618

DIPOLE MOMENT
-------------
                                X             Y             Z
Electronic contribution:     12.71451     -17.17106      14.15394
Nuclear contribution   :    -13.00684      17.65245     -14.33026
                        -----------------------------------------
Total Dipole Moment    :     -0.29233       0.48139      -0.17631
                        -----------------------------------------
Magnitude (a.u.)       :      0.59015
Magnitude (Debye)      :      1.50005

Rotational constants in cm-1:     0.017869     0.008731     0.007020
Rotational constants in MHz :   535.702394   261.751021   210.455962

                             ****ORCA TERMINATED NORMALLY****
TOTAL RUN TIME: 0 days 0 hours 0 minutes 34 seconds 286 msec
