                         Program Version 4.2.1 -  RELEASE  -
|  1> ! wB97X-D3 SP def2-SVP
|  2> %pal
|  3> nprocs 16
|  4> end
|  5>
|  6> * xyz 0 1
|  7> S 	 4.33873 	 -15.6269 	 85.2556
|  8> C 	 3.43563 	 -16.8192 	 86.2021
|  9> C 	 4.2281 	 -17.7024 	 86.8396
| 10> C 	 5.61791 	 -17.4946 	 86.5601
| 11> C 	 5.81903 	 -16.415 	 85.7579
| 12> H 	 6.41114 	 -18.1144 	 86.9419
| 13> C 	 3.72372 	 -18.7388 	 87.8185
| 14> H 	 2.62369 	 -18.9382 	 87.7729
| 15> H 	 3.71789 	 -18.2557 	 88.8317
| 16> C 	 4.36671 	 -20.1675 	 87.9587
| 17> H 	 4.32675 	 -20.5572 	 86.9039
| 18> H 	 5.41345 	 -19.9428 	 88.1972
| 19> C 	 3.73287 	 -21.1493 	 89.0603
| 20> H 	 3.77656 	 -20.6357 	 90.0482
| 21> H 	 2.70438 	 -21.2959 	 88.8303
| 22> H 	 4.27669 	 -22.0175 	 88.9999
| 23> S 	 7.1154 	 -14.1607 	 86.3149
| 24> C 	 8.77291 	 -13.908 	 85.9059
| 25> C 	 9.27204 	 -15.0863 	 85.3526
| 26> C 	 8.32744 	 -16.0985 	 85.1078
| 27> C 	 7.10447 	 -15.7447 	 85.6084
| 28> H 	 10.342 	 -15.0986 	 85.0354
| 29> C 	 8.64615 	 -17.3385 	 84.2597
| 30> H 	 7.89785 	 -18.1629 	 84.5056
| 31> H 	 9.64452 	 -17.7689 	 84.4627
| 32> C 	 8.69595 	 -17.0045 	 82.7929
| 33> H 	 9.3126 	 -16.0877 	 82.7171
| 34> H 	 7.74544 	 -16.7924 	 82.4309
| 35> C 	 9.21448 	 -18.0271 	 81.7783
| 36> H 	 10.1806 	 -18.3932 	 81.9783
| 37> H 	 9.30778 	 -17.5883 	 80.746
| 38> H 	 8.58912 	 -18.9269 	 81.6453
| 39> H 	 2.31159 	 -16.6839 	 86.4221
| 40> H 	 9.41973 	 -13.0869 	 86.0867
| 41> *
| 42>
| 43>                          ****END OF INPUT****

CARTESIAN COORDINATES (ANGSTROEM)
---------------------------------
  S      4.338730  -15.626900   85.255600
  C      3.435630  -16.819200   86.202100
  C      4.228100  -17.702400   86.839600
  C      5.617910  -17.494600   86.560100
  C      5.819030  -16.415000   85.757900
  H      6.411140  -18.114400   86.941900
  C      3.723720  -18.738800   87.818500
  H      2.623690  -18.938200   87.772900
  H      3.717890  -18.255700   88.831700
  C      4.366710  -20.167500   87.958700
  H      4.326750  -20.557200   86.903900
  H      5.413450  -19.942800   88.197200
  C      3.732870  -21.149300   89.060300
  H      3.776560  -20.635700   90.048200
  H      2.704380  -21.295900   88.830300
  H      4.276690  -22.017500   88.999900
  S      7.115400  -14.160700   86.314900
  C      8.772910  -13.908000   85.905900
  C      9.272040  -15.086300   85.352600
  C      8.327440  -16.098500   85.107800
  C      7.104470  -15.744700   85.608400
  H     10.342000  -15.098600   85.035400
  C      8.646150  -17.338500   84.259700
  H      7.897850  -18.162900   84.505600
  H      9.644520  -17.768900   84.462700
  C      8.695950  -17.004500   82.792900
  H      9.312600  -16.087700   82.717100
  H      7.745440  -16.792400   82.430900
  C      9.214480  -18.027100   81.778300
  H     10.180600  -18.393200   81.978300
  H      9.307780  -17.588300   80.746000
  H      8.589120  -18.926900   81.645300
  H      2.311590  -16.683900   86.422100
  H      9.419730  -13.086900   86.086700

 Total Charge           Charge          ....    0
 Multiplicity           Mult            ....    1
 Number of Electrons    NEL             ....  134
 Basis Dimension        Dim             ....  322

ORBITAL ENERGIES
----------------

  NO   OCC          E(Eh)            E(eV)
   0   2.0000     -88.967159     -2420.9195
   1   2.0000     -88.964515     -2420.8475
   2   2.0000     -10.327341      -281.0212
   3   2.0000     -10.322290      -280.8838
   4   2.0000     -10.316345      -280.7220
   5   2.0000     -10.311662      -280.5946
   6   2.0000     -10.301096      -280.3071
   7   2.0000     -10.300167      -280.2818
   8   2.0000     -10.298676      -280.2412
   9   2.0000     -10.297541      -280.2103
  10   2.0000     -10.297177      -280.2004
  11   2.0000     -10.293239      -280.0933
  12   2.0000     -10.292286      -280.0674
  13   2.0000     -10.284224      -279.8480
  14   2.0000     -10.277429      -279.6631
  15   2.0000     -10.276075      -279.6262
  16   2.0000      -8.081791      -219.9167
  17   2.0000      -8.079841      -219.8636
  18   2.0000      -6.040295      -164.3648
  19   2.0000      -6.038298      -164.3104
  20   2.0000      -6.036466      -164.2606
  21   2.0000      -6.034150      -164.1976
  22   2.0000      -6.032392      -164.1497
  23   2.0000      -6.030699      -164.1037
  24   2.0000      -1.013651       -27.5828
  25   2.0000      -0.988354       -26.8945
  26   2.0000      -0.910140       -24.7662
  27   2.0000      -0.902646       -24.5622
  28   2.0000      -0.868936       -23.6450
  29   2.0000      -0.852508       -23.1979
  30   2.0000      -0.845955       -23.0196
  31   2.0000      -0.814649       -22.1677
  32   2.0000      -0.783876       -21.3303
  33   2.0000      -0.776054       -21.1175
  34   2.0000      -0.709841       -19.3157
  35   2.0000      -0.694254       -18.8916
  36   2.0000      -0.689070       -18.7505
  37   2.0000      -0.661469       -17.9995
  38   2.0000      -0.638538       -17.3755
  39   2.0000      -0.624645       -16.9975
  40   2.0000      -0.595505       -16.2045
  41   2.0000      -0.565901       -15.3989
  42   2.0000      -0.563036       -15.3210
  43   2.0000      -0.556792       -15.1511
  44   2.0000      -0.530574       -14.4377
  45   2.0000      -0.519447       -14.1349
  46   2.0000      -0.516851       -14.0642
  47   2.0000      -0.510274       -13.8853
  48   2.0000      -0.507102       -13.7990
  49   2.0000      -0.494067       -13.4442
  50   2.0000      -0.489367       -13.3164
  51   2.0000      -0.486585       -13.2406
  52   2.0000      -0.469922       -12.7872
  53   2.0000      -0.466202       -12.6860
  54   2.0000      -0.460569       -12.5327
  55   2.0000      -0.453456       -12.3392
  56   2.0000      -0.444035       -12.0828
  57   2.0000      -0.431729       -11.7479
  58   2.0000      -0.428932       -11.6718
  59   2.0000      -0.424173       -11.5423
  60   2.0000      -0.420508       -11.4426
  61   2.0000      -0.415547       -11.3076
  62   2.0000      -0.413560       -11.2535
  63   2.0000      -0.344461        -9.3733
  64   2.0000      -0.334662        -9.1066
  65   2.0000      -0.327105        -8.9010
  66   2.0000      -0.297868        -8.1054
  67   0.0000       0.036216         0.9855
  68   0.0000       0.068230         1.8566
  69   0.0000       0.115765         3.1501
  70   0.0000       0.125375         3.4116
  71   0.0000       0.129539         3.5249

MULLIKEN ATOMIC CHARGES
-----------------------
   0 S :    0.109691
   1 C :   -0.165991
   2 C :   -0.024039
   3 C :    0.047237
   4 C :   -0.153589
   5 H :    0.015763
   6 C :   -0.003591
   7 H :    0.016434
   8 H :    0.037318
   9 C :   -0.134389
  10 H :    0.046581
  11 H :    0.035562
  12 C :   -0.008757
  13 H :    0.042406
  14 H :    0.031843
  15 H :    0.035126
  16 S :    0.119864
  17 C :   -0.075779
  18 C :   -0.079910
  19 C :   -0.006328
  20 C :   -0.180767
  21 H :    0.029189
  22 C :    0.070169
  23 H :    0.033411
  24 H :    0.017727
  25 C :   -0.052041
  26 H :    0.026890
  27 H :    0.014648
  28 C :   -0.044444
  29 H :    0.009858
  30 H :    0.036969
  31 H :    0.031959
  32 H :    0.077779
  33 H :    0.043203
Sum of atomic charges:    0.0000000

LOEWDIN ATOMIC CHARGES
----------------------
   0 S :    0.392692
   1 C :   -0.200527
   2 C :   -0.067326
   3 C :   -0.052344
   4 C :   -0.194209
   5 H :    0.032603
   6 C :   -0.050921
   7 H :    0.028638
   8 H :    0.035144
   9 C :   -0.044566
  10 H :    0.029033
  11 H :    0.018248
  12 C :   -0.047538
  13 H :    0.034370
  14 H :    0.022653
  15 H :    0.019225
  16 S :    0.429704
  17 C :   -0.197798
  18 C :   -0.075781
  19 C :   -0.064890
  20 C :   -0.197592
  21 H :    0.034530
  22 C :   -0.031661
  23 H :    0.034319
  24 H :    0.029843
  25 C :   -0.041047
  26 H :    0.029274
  27 H :    0.017827
  28 C :   -0.067884
  29 H :    0.011626
  30 H :    0.035668
  31 H :    0.026326
  32 H :    0.045823
  33 H :    0.026540

  Mayer bond orders larger than 0.100000
B(  0-S ,  1-C ) :   1.1117 B(  0-S ,  4-C ) :   1.1500 B(  1-C ,  2-C ) :   1.6632
B(  1-C , 32-H ) :   0.9521 B(  2-C ,  3-C ) :   1.2120 B(  2-C ,  6-C ) :   1.0184
B(  3-C ,  4-C ) :   1.5998 B(  3-C ,  5-H ) :   0.9961 B(  4-C , 20-C ) :   1.0041
B(  6-C ,  7-H ) :   0.9464 B(  6-C ,  8-H ) :   0.9330 B(  6-C ,  9-C ) :   1.0451
B(  9-C , 10-H ) :   0.9634 B(  9-C , 11-H ) :   0.9543 B(  9-C , 12-C ) :   1.0689
B( 12-C , 13-H ) :   0.9761 B( 12-C , 14-H ) :   0.9780 B( 12-C , 15-H ) :   0.9762
B( 16-S , 17-C ) :   1.1529 B( 16-S , 20-C ) :   1.1653 B( 17-C , 18-C ) :   1.6052
B( 17-C , 20-C ) :   0.1032 B( 17-C , 33-H ) :   0.9725 B( 18-C , 19-C ) :   1.2544
B( 18-C , 21-H ) :   0.9775 B( 19-C , 20-C ) :   1.6037 B( 19-C , 22-C ) :   1.0464
B( 22-C , 23-H ) :   0.9314 B( 22-C , 24-H ) :   0.9328 B( 22-C , 25-C ) :   1.0700
B( 25-C , 26-H ) :   0.9535 B( 25-C , 27-H ) :   0.9502 B( 25-C , 28-C ) :   1.0871
B( 28-C , 29-H ) :   0.9725 B( 28-C , 30-H ) :   0.9724 B( 28-C , 31-H ) :   0.9743

Dispersion correction           -0.013420765
FINAL SINGLE POINT ENERGY     -1339.870873622035

DIPOLE MOMENT
-------------
                                X             Y             Z
Electronic contribution:     -4.12742      25.19622       1.59494
Nuclear contribution   :      4.28182     -25.66749      -1.38140
                        -----------------------------------------
Total Dipole Moment    :      0.15440      -0.47126       0.21354
                        -----------------------------------------
Magnitude (a.u.)       :      0.53993
Magnitude (Debye)      :      1.37240

Rotational constants in cm-1:     0.017567     0.007674     0.006505
Rotational constants in MHz :   526.641564   230.070498   195.015107

                             ****ORCA TERMINATED NORMALLY****
TOTAL RUN TIME: 0 days 0 hours 0 minutes 31 seconds 81 msec
