                         Program Version 4.2.1 -  RELEASE  -
|  1> ! wB97X-D3 SP def2-SVP
|  2> %pal
|  3> nprocs 16
|  4> end
|  5>
|  6> * xyz 0 1
|  7> S 	 -37.3047 	 43.3117 	 94.8493
|  8> C 	 -38.245 	 44.8188 	 95.0434
|  9> C 	 -39.485 	 44.55 	 95.5727
| 10> C 	 -39.7298 	 43.1437 	 95.7156
| 11> C 	 -38.6759 	 42.3482 	 95.3404
| 12> H 	 -40.6101 	 42.6898 	 96.052
| 13> C 	 -40.5204 	 45.5593 	 96.0641
| 14> H 	 -40.4021 	 46.4176 	 95.3538
| 15> H 	 -40.1042 	 45.9051 	 96.9945
| 16> C 	 -41.9737 	 45.1222 	 96.1833
| 17> H 	 -42.3514 	 44.9254 	 95.2306
| 18> H 	 -42.1282 	 44.256 	 96.8533
| 19> C 	 -42.7982 	 46.3064 	 96.7477
| 20> H 	 -42.3574 	 46.5539 	 97.7082
| 21> H 	 -42.9365 	 47.1843 	 96.0414
| 22> H 	 -43.7844 	 45.9432 	 96.9547
| 23> S 	 -37.4577 	 40.3999 	 96.8128
| 24> C 	 -37.8103 	 38.7327 	 96.4855
| 25> C 	 -38.748 	 38.5441 	 95.4954
| 26> C 	 -39.1593 	 39.8051 	 94.9167
| 27> C 	 -38.4824 	 40.8856 	 95.4605
| 28> H 	 -39.0671 	 37.5359 	 95.3759
| 29> C 	 -40.2753 	 39.9612 	 93.8817
| 30> H 	 -39.8019 	 40.0339 	 92.9142
| 31> H 	 -40.7254 	 40.8679 	 94.1756
| 32> C 	 -41.366 	 38.9489 	 93.8801
| 33> H 	 -41.5891 	 38.8153 	 94.9073
| 34> H 	 -41.0543 	 37.9613 	 93.5303
| 35> C 	 -42.4675 	 39.4713 	 92.9996
| 36> H 	 -43.2037 	 38.6985 	 92.8031
| 37> H 	 -42.1429 	 39.8425 	 92.0125
| 38> H 	 -42.91 	 40.3352 	 93.4597
| 39> H 	 -37.8942 	 45.8367 	 94.7769
| 40> H 	 -37.5971 	 37.8166 	 96.96
| 41> *
| 42>
| 43>                          ****END OF INPUT****

CARTESIAN COORDINATES (ANGSTROEM)
---------------------------------
  S    -37.304700   43.311700   94.849300
  C    -38.245000   44.818800   95.043400
  C    -39.485000   44.550000   95.572700
  C    -39.729800   43.143700   95.715600
  C    -38.675900   42.348200   95.340400
  H    -40.610100   42.689800   96.052000
  C    -40.520400   45.559300   96.064100
  H    -40.402100   46.417600   95.353800
  H    -40.104200   45.905100   96.994500
  C    -41.973700   45.122200   96.183300
  H    -42.351400   44.925400   95.230600
  H    -42.128200   44.256000   96.853300
  C    -42.798200   46.306400   96.747700
  H    -42.357400   46.553900   97.708200
  H    -42.936500   47.184300   96.041400
  H    -43.784400   45.943200   96.954700
  S    -37.457700   40.399900   96.812800
  C    -37.810300   38.732700   96.485500
  C    -38.748000   38.544100   95.495400
  C    -39.159300   39.805100   94.916700
  C    -38.482400   40.885600   95.460500
  H    -39.067100   37.535900   95.375900
  C    -40.275300   39.961200   93.881700
  H    -39.801900   40.033900   92.914200
  H    -40.725400   40.867900   94.175600
  C    -41.366000   38.948900   93.880100
  H    -41.589100   38.815300   94.907300
  H    -41.054300   37.961300   93.530300
  C    -42.467500   39.471300   92.999600
  H    -43.203700   38.698500   92.803100
  H    -42.142900   39.842500   92.012500
  H    -42.910000   40.335200   93.459700
  H    -37.894200   45.836700   94.776900
  H    -37.597100   37.816600   96.960000

 Total Charge           Charge          ....    0
 Multiplicity           Mult            ....    1
 Number of Electrons    NEL             ....  134
 Basis Dimension        Dim             ....  322

ORBITAL ENERGIES
----------------

  NO   OCC          E(Eh)            E(eV)
   0   2.0000     -88.966489     -2420.9012
   1   2.0000     -88.962775     -2420.8002
   2   2.0000     -10.328008      -281.0394
   3   2.0000     -10.324297      -280.9384
   4   2.0000     -10.315649      -280.7031
   5   2.0000     -10.309377      -280.5324
   6   2.0000     -10.304944      -280.4118
   7   2.0000     -10.300554      -280.2923
   8   2.0000     -10.294381      -280.1244
   9   2.0000     -10.289512      -279.9919
  10   2.0000     -10.288979      -279.9773
  11   2.0000     -10.288278      -279.9583
  12   2.0000     -10.282976      -279.8140
  13   2.0000     -10.280095      -279.7356
  14   2.0000     -10.278244      -279.6852
  15   2.0000     -10.275899      -279.6214
  16   2.0000      -8.080953      -219.8939
  17   2.0000      -8.077083      -219.7886
  18   2.0000      -6.039580      -164.3453
  19   2.0000      -6.035703      -164.2398
  20   2.0000      -6.035532      -164.2352
  21   2.0000      -6.031637      -164.1292
  22   2.0000      -6.031560      -164.1271
  23   2.0000      -6.027763      -164.0238
  24   2.0000      -1.003382       -27.3034
  25   2.0000      -0.980901       -26.6917
  26   2.0000      -0.921351       -25.0712
  27   2.0000      -0.913956       -24.8700
  28   2.0000      -0.870059       -23.6755
  29   2.0000      -0.850747       -23.1500
  30   2.0000      -0.843662       -22.9572
  31   2.0000      -0.818543       -22.2737
  32   2.0000      -0.781510       -21.2660
  33   2.0000      -0.770195       -20.9581
  34   2.0000      -0.713376       -19.4119
  35   2.0000      -0.705066       -19.1858
  36   2.0000      -0.691282       -18.8108
  37   2.0000      -0.649146       -17.6642
  38   2.0000      -0.641361       -17.4523
  39   2.0000      -0.621812       -16.9204
  40   2.0000      -0.592441       -16.1212
  41   2.0000      -0.582933       -15.8624
  42   2.0000      -0.578990       -15.7551
  43   2.0000      -0.566814       -15.4238
  44   2.0000      -0.529005       -14.3950
  45   2.0000      -0.522622       -14.2213
  46   2.0000      -0.514999       -14.0138
  47   2.0000      -0.507511       -13.8101
  48   2.0000      -0.503410       -13.6985
  49   2.0000      -0.498220       -13.5572
  50   2.0000      -0.489025       -13.3070
  51   2.0000      -0.483559       -13.1583
  52   2.0000      -0.470622       -12.8063
  53   2.0000      -0.466216       -12.6864
  54   2.0000      -0.458837       -12.4856
  55   2.0000      -0.448215       -12.1966
  56   2.0000      -0.445909       -12.1338
  57   2.0000      -0.439304       -11.9541
  58   2.0000      -0.433124       -11.7859
  59   2.0000      -0.429660       -11.6916
  60   2.0000      -0.425953       -11.5908
  61   2.0000      -0.415437       -11.3046
  62   2.0000      -0.414123       -11.2689
  63   2.0000      -0.338657        -9.2153
  64   2.0000      -0.328465        -8.9380
  65   2.0000      -0.326431        -8.8826
  66   2.0000      -0.299739        -8.1563
  67   0.0000       0.042138         1.1466
  68   0.0000       0.060312         1.6412
  69   0.0000       0.118117         3.2141
  70   0.0000       0.120363         3.2752
  71   0.0000       0.133066         3.6209

MULLIKEN ATOMIC CHARGES
-----------------------
   0 S :    0.102640
   1 C :   -0.146057
   2 C :   -0.073767
   3 C :    0.062886
   4 C :   -0.183187
   5 H :   -0.012320
   6 C :    0.047440
   7 H :    0.028598
   8 H :    0.036720
   9 C :   -0.070553
  10 H :    0.021810
  11 H :    0.045953
  12 C :   -0.044605
  13 H :    0.028121
  14 H :    0.048384
  15 H :    0.022208
  16 S :    0.123693
  17 C :   -0.043882
  18 C :   -0.071807
  19 C :   -0.048632
  20 C :   -0.153822
  21 H :    0.009407
  22 C :    0.112970
  23 H :    0.038954
  24 H :   -0.001018
  25 C :   -0.063087
  26 H :    0.017408
  27 H :    0.022616
  28 C :   -0.021367
  29 H :    0.032001
  30 H :    0.026947
  31 H :    0.022834
  32 H :    0.054721
  33 H :    0.027794
Sum of atomic charges:   -0.0000000

LOEWDIN ATOMIC CHARGES
----------------------
   0 S :    0.393422
   1 C :   -0.198882
   2 C :   -0.061767
   3 C :   -0.062486
   4 C :   -0.192689
   5 H :    0.019936
   6 C :   -0.033822
   7 H :    0.036964
   8 H :    0.032242
   9 C :   -0.036772
  10 H :    0.018298
  11 H :    0.029319
  12 C :   -0.060994
  13 H :    0.023533
  14 H :    0.033512
  15 H :    0.020872
  16 S :    0.412398
  17 C :   -0.186573
  18 C :   -0.075087
  19 C :   -0.046666
  20 C :   -0.206954
  21 H :    0.028334
  22 C :   -0.024666
  23 H :    0.034283
  24 H :    0.024458
  25 C :   -0.041269
  26 H :    0.020809
  27 H :    0.021082
  28 C :   -0.057978
  29 H :    0.025333
  30 H :    0.029178
  31 H :    0.022888
  32 H :    0.034614
  33 H :    0.025130

  Mayer bond orders larger than 0.100000
B(  0-S ,  1-C ) :   1.1205 B(  0-S ,  4-C ) :   1.1604 B(  1-C ,  2-C ) :   1.6358
B(  1-C , 32-H ) :   0.9688 B(  2-C ,  3-C ) :   1.2241 B(  2-C ,  6-C ) :   0.9951
B(  3-C ,  4-C ) :   1.5956 B(  3-C ,  5-H ) :   0.9981 B(  4-C , 20-C ) :   0.9851
B(  6-C ,  7-H ) :   0.9420 B(  6-C ,  8-H ) :   0.9358 B(  6-C ,  9-C ) :   1.0813
B(  9-C , 10-H ) :   0.9544 B(  9-C , 11-H ) :   0.9446 B(  9-C , 12-C ) :   1.0898
B( 12-C , 13-H ) :   0.9751 B( 12-C , 14-H ) :   0.9749 B( 12-C , 15-H ) :   0.9730
B( 16-S , 17-C ) :   1.1475 B( 16-S , 20-C ) :   1.1376 B( 17-C , 18-C ) :   1.6540
B( 17-C , 33-H ) :   0.9599 B( 18-C , 19-C ) :   1.2034 B( 18-C , 21-H ) :   0.9963
B( 19-C , 20-C ) :   1.6356 B( 19-C , 22-C ) :   1.0171 B( 22-C , 23-H ) :   0.9198
B( 22-C , 24-H ) :   0.9345 B( 22-C , 25-C ) :   1.0912 B( 25-C , 26-H ) :   0.9550
B( 25-C , 27-H ) :   0.9414 B( 25-C , 28-C ) :   1.0893 B( 28-C , 29-H ) :   0.9720
B( 28-C , 30-H ) :   0.9699 B( 28-C , 31-H ) :   0.9731

Dispersion correction           -0.013468435
FINAL SINGLE POINT ENERGY     -1339.870740948707

DIPOLE MOMENT
-------------
                                X             Y             Z
Electronic contribution:     28.80330      -5.34634       4.89377
Nuclear contribution   :    -29.63210       5.36137      -4.85447
                        -----------------------------------------
Total Dipole Moment    :     -0.82879       0.01503       0.03930
                        -----------------------------------------
Magnitude (a.u.)       :      0.82986
Magnitude (Debye)      :      2.10934

Rotational constants in cm-1:     0.016052     0.008712     0.006623
Rotational constants in MHz :   481.233350   261.173922   198.555236

                             ****ORCA TERMINATED NORMALLY****
TOTAL RUN TIME: 0 days 0 hours 0 minutes 29 seconds 475 msec
