                         Program Version 4.2.1 -  RELEASE  -
|  1> ! wB97X-D3 SP def2-SVP
|  2> %pal
|  3> nprocs 16
|  4> end
|  5>
|  6> * xyz 0 1
|  7> S 	 -39.1453 	 15.7063 	 78.8066
|  8> C 	 -38.0124 	 14.3769 	 78.7143
|  9> C 	 -38.6431 	 13.1666 	 78.811
| 10> C 	 -40.075 	 13.2797 	 78.7354
| 11> C 	 -40.4928 	 14.6242 	 78.6097
| 12> H 	 -40.8213 	 12.4604 	 78.6696
| 13> C 	 -37.9587 	 11.8564 	 78.6536
| 14> H 	 -38.5735 	 11.0821 	 79.0287
| 15> H 	 -37.0558 	 11.8491 	 79.3266
| 16> C 	 -37.5495 	 11.4142 	 77.1827
| 17> H 	 -36.9135 	 12.1982 	 76.7569
| 18> H 	 -36.9403 	 10.5056 	 77.2172
| 19> C 	 -38.6732 	 11.2201 	 76.19
| 20> H 	 -39.1758 	 12.1487 	 76.194
| 21> H 	 -38.2193 	 11.1473 	 75.2006
| 22> H 	 -39.3675 	 10.426 	 76.4779
| 23> S 	 -41.8579 	 16.1344 	 76.8606
| 24> C 	 -43.6182 	 16.0459 	 76.9218
| 25> C 	 -44.0868 	 15.1717 	 77.8709
| 26> C 	 -43.0743 	 14.6511 	 78.7175
| 27> C 	 -41.8409 	 15.0467 	 78.2391
| 28> H 	 -45.1373 	 15.0322 	 78.0487
| 29> C 	 -43.4564 	 13.7454 	 79.8635
| 30> H 	 -43.0261 	 12.7513 	 79.7069
| 31> H 	 -44.4932 	 13.6998 	 79.9955
| 32> C 	 -43.0132 	 14.2499 	 81.1963
| 33> H 	 -41.8892 	 14.3917 	 81.2097
| 34> H 	 -43.3441 	 13.5532 	 81.9827
| 35> C 	 -43.6645 	 15.6107 	 81.5901
| 36> H 	 -43.5723 	 16.3937 	 80.7905
| 37> H 	 -43.4476 	 16.1072 	 82.5781
| 38> H 	 -44.6993 	 15.421 	 81.6862
| 39> H 	 -36.98 	 14.5261 	 78.5353
| 40> H 	 -44.3281 	 16.684 	 76.3422
| 41> *
| 42>
| 43>                          ****END OF INPUT****

CARTESIAN COORDINATES (ANGSTROEM)
---------------------------------
  S    -39.145300   15.706300   78.806600
  C    -38.012400   14.376900   78.714300
  C    -38.643100   13.166600   78.811000
  C    -40.075000   13.279700   78.735400
  C    -40.492800   14.624200   78.609700
  H    -40.821300   12.460400   78.669600
  C    -37.958700   11.856400   78.653600
  H    -38.573500   11.082100   79.028700
  H    -37.055800   11.849100   79.326600
  C    -37.549500   11.414200   77.182700
  H    -36.913500   12.198200   76.756900
  H    -36.940300   10.505600   77.217200
  C    -38.673200   11.220100   76.190000
  H    -39.175800   12.148700   76.194000
  H    -38.219300   11.147300   75.200600
  H    -39.367500   10.426000   76.477900
  S    -41.857900   16.134400   76.860600
  C    -43.618200   16.045900   76.921800
  C    -44.086800   15.171700   77.870900
  C    -43.074300   14.651100   78.717500
  C    -41.840900   15.046700   78.239100
  H    -45.137300   15.032200   78.048700
  C    -43.456400   13.745400   79.863500
  H    -43.026100   12.751300   79.706900
  H    -44.493200   13.699800   79.995500
  C    -43.013200   14.249900   81.196300
  H    -41.889200   14.391700   81.209700
  H    -43.344100   13.553200   81.982700
  C    -43.664500   15.610700   81.590100
  H    -43.572300   16.393700   80.790500
  H    -43.447600   16.107200   82.578100
  H    -44.699300   15.421000   81.686200
  H    -36.980000   14.526100   78.535300
  H    -44.328100   16.684000   76.342200

 Total Charge           Charge          ....    0
 Multiplicity           Mult            ....    1
 Number of Electrons    NEL             ....  134
 Basis Dimension        Dim             ....  322

ORBITAL ENERGIES
----------------

  NO   OCC          E(Eh)            E(eV)
   0   2.0000     -88.970051     -2420.9982
   1   2.0000     -88.966671     -2420.9062
   2   2.0000     -10.329136      -281.0701
   3   2.0000     -10.326633      -281.0020
   4   2.0000     -10.319041      -280.7954
   5   2.0000     -10.309135      -280.5258
   6   2.0000     -10.302162      -280.3361
   7   2.0000     -10.299640      -280.2675
   8   2.0000     -10.299347      -280.2595
   9   2.0000     -10.290611      -280.0218
  10   2.0000     -10.290558      -280.0203
  11   2.0000     -10.289741      -279.9981
  12   2.0000     -10.287872      -279.9472
  13   2.0000     -10.286692      -279.9151
  14   2.0000     -10.275752      -279.6174
  15   2.0000     -10.269695      -279.4526
  16   2.0000      -8.084384      -219.9873
  17   2.0000      -8.081602      -219.9116
  18   2.0000      -6.042832      -164.4338
  19   2.0000      -6.040086      -164.3591
  20   2.0000      -6.039102      -164.3323
  21   2.0000      -6.036047      -164.2492
  22   2.0000      -6.035066      -164.2225
  23   2.0000      -6.032431      -164.1508
  24   2.0000      -1.008242       -27.4357
  25   2.0000      -0.985174       -26.8080
  26   2.0000      -0.917464       -24.9655
  27   2.0000      -0.908555       -24.7230
  28   2.0000      -0.868708       -23.6387
  29   2.0000      -0.849231       -23.1087
  30   2.0000      -0.846773       -23.0419
  31   2.0000      -0.810169       -22.0458
  32   2.0000      -0.785621       -21.3778
  33   2.0000      -0.773971       -21.0608
  34   2.0000      -0.707313       -19.2470
  35   2.0000      -0.697035       -18.9673
  36   2.0000      -0.683639       -18.6028
  37   2.0000      -0.664556       -18.0835
  38   2.0000      -0.640440       -17.4272
  39   2.0000      -0.608839       -16.5673
  40   2.0000      -0.597752       -16.2657
  41   2.0000      -0.573414       -15.6034
  42   2.0000      -0.562014       -15.2932
  43   2.0000      -0.547493       -14.8980
  44   2.0000      -0.546019       -14.8579
  45   2.0000      -0.538559       -14.6549
  46   2.0000      -0.518229       -14.1017
  47   2.0000      -0.508521       -13.8376
  48   2.0000      -0.499856       -13.6018
  49   2.0000      -0.493000       -13.4152
  50   2.0000      -0.485415       -13.2088
  51   2.0000      -0.475743       -12.9456
  52   2.0000      -0.467921       -12.7328
  53   2.0000      -0.464338       -12.6353
  54   2.0000      -0.461090       -12.5469
  55   2.0000      -0.450037       -12.2461
  56   2.0000      -0.445344       -12.1184
  57   2.0000      -0.437567       -11.9068
  58   2.0000      -0.435116       -11.8401
  59   2.0000      -0.421366       -11.4659
  60   2.0000      -0.418606       -11.3909
  61   2.0000      -0.418486       -11.3876
  62   2.0000      -0.410012       -11.1570
  63   2.0000      -0.343705        -9.3527
  64   2.0000      -0.334629        -9.1057
  65   2.0000      -0.329811        -8.9746
  66   2.0000      -0.290031        -7.8921
  67   0.0000       0.023317         0.6345
  68   0.0000       0.072280         1.9668
  69   0.0000       0.105376         2.8674
  70   0.0000       0.112262         3.0548
  71   0.0000       0.135540         3.6882

MULLIKEN ATOMIC CHARGES
-----------------------
   0 S :    0.115628
   1 C :   -0.128108
   2 C :   -0.065338
   3 C :    0.020575
   4 C :   -0.174973
   5 H :    0.025265
   6 C :    0.060069
   7 H :    0.007633
   8 H :    0.035991
   9 C :   -0.084533
  10 H :    0.019613
  11 H :    0.030359
  12 C :   -0.028281
  13 H :    0.028297
  14 H :    0.035880
  15 H :    0.034726
  16 S :    0.122974
  17 C :   -0.099051
  18 C :   -0.035682
  19 C :   -0.047126
  20 C :   -0.170029
  21 H :    0.012603
  22 C :    0.142526
  23 H :    0.038590
  24 H :   -0.004543
  25 C :   -0.099757
  26 H :    0.054518
  27 H :    0.035240
  28 C :   -0.086898
  29 H :    0.049153
  30 H :    0.044811
  31 H :    0.004580
  32 H :    0.039448
  33 H :    0.065840
Sum of atomic charges:   -0.0000000

LOEWDIN ATOMIC CHARGES
----------------------
   0 S :    0.405805
   1 C :   -0.189219
   2 C :   -0.068070
   3 C :   -0.064030
   4 C :   -0.203016
   5 H :    0.035109
   6 C :   -0.035794
   7 H :    0.021407
   8 H :    0.038238
   9 C :   -0.036330
  10 H :    0.021423
  11 H :    0.021349
  12 C :   -0.063438
  13 H :    0.022581
  14 H :    0.031898
  15 H :    0.024284
  16 S :    0.405605
  17 C :   -0.188326
  18 C :   -0.067808
  19 C :   -0.053269
  20 C :   -0.193521
  21 H :    0.028982
  22 C :   -0.023942
  23 H :    0.036329
  24 H :    0.023408
  25 C :   -0.041044
  26 H :    0.029439
  27 H :    0.026720
  28 C :   -0.079474
  29 H :    0.030429
  30 H :    0.033624
  31 H :    0.012701
  32 H :    0.021188
  33 H :    0.036762

  Mayer bond orders larger than 0.100000
B(  0-S ,  1-C ) :   1.1313 B(  0-S ,  4-C ) :   1.1622 B(  1-C ,  2-C ) :   1.5956
B(  1-C , 32-H ) :   0.9780 B(  2-C ,  3-C ) :   1.2335 B(  2-C ,  6-C ) :   1.0482
B(  3-C ,  4-C ) :   1.5547 B(  3-C ,  5-H ) :   0.9866 B(  4-C , 20-C ) :   1.0438
B(  6-C ,  7-H ) :   0.9383 B(  6-C ,  8-H ) :   0.9369 B(  6-C ,  9-C ) :   1.0581
B(  9-C , 10-H ) :   0.9583 B(  9-C , 11-H ) :   0.9572 B(  9-C , 12-C ) :   1.0818
B( 12-C , 13-H ) :   0.9724 B( 12-C , 14-H ) :   0.9693 B( 12-C , 15-H ) :   0.9756
B( 16-S , 17-C ) :   1.1368 B( 16-S , 20-C ) :   1.1465 B( 17-C , 18-C ) :   1.6330
B( 17-C , 33-H ) :   0.9594 B( 18-C , 19-C ) :   1.2386 B( 18-C , 21-H ) :   0.9844
B( 19-C , 20-C ) :   1.5941 B( 19-C , 22-C ) :   1.0433 B( 22-C , 23-H ) :   0.9233
B( 22-C , 24-H ) :   0.9278 B( 22-C , 25-C ) :   1.0742 B( 25-C , 26-H ) :   0.9560
B( 25-C , 27-H ) :   0.9577 B( 25-C , 28-C ) :   1.0568 B( 28-C , 29-H ) :   0.9766
B( 28-C , 30-H ) :   0.9765 B( 28-C , 31-H ) :   0.9722

Dispersion correction           -0.015383083
FINAL SINGLE POINT ENERGY     -1339.877074790205

DIPOLE MOMENT
-------------
                                X             Y             Z
Electronic contribution:      1.80354      16.80369      -6.89200
Nuclear contribution   :     -2.03445     -17.25934       6.93005
                        -----------------------------------------
Total Dipole Moment    :     -0.23091      -0.45565       0.03805
                        -----------------------------------------
Magnitude (a.u.)       :      0.51224
Magnitude (Debye)      :      1.30200

Rotational constants in cm-1:     0.020130     0.008675     0.008050
Rotational constants in MHz :   603.480516   260.082444   241.343843

                             ****ORCA TERMINATED NORMALLY****
TOTAL RUN TIME: 0 days 0 hours 0 minutes 31 seconds 703 msec
