                         Program Version 4.2.1 -  RELEASE  -
|  1> ! wB97X-D3 SP def2-SVP
|  2> %pal
|  3> nprocs 16
|  4> end
|  5>
|  6> * xyz 0 1
|  7> S 	 -43.8026 	 51.6842 	 103.121
|  8> C 	 -44.4664 	 51.1811 	 101.625
|  9> C 	 -43.585 	 51.325 	 100.533
| 10> C 	 -42.3911 	 52.0126 	 100.916
| 11> C 	 -42.3677 	 52.3114 	 102.279
| 12> H 	 -41.6537 	 52.4508 	 100.247
| 13> C 	 -44.12 	 51.0154 	 99.0854
| 14> H 	 -43.7412 	 51.8018 	 98.332
| 15> H 	 -45.1626 	 50.966 	 99.1886
| 16> C 	 -43.658 	 49.7475 	 98.4953
| 17> H 	 -43.7728 	 49.7162 	 97.4024
| 18> H 	 -42.6347 	 49.6713 	 98.644
| 19> C 	 -44.406 	 48.5155 	 99.0707
| 20> H 	 -44.1182 	 47.5278 	 98.6093
| 21> H 	 -44.0733 	 48.3884 	 100.1
| 22> H 	 -45.5078 	 48.6134 	 99.0001
| 23> S 	 -41.8419 	 53.9814 	 104.331
| 24> C 	 -40.2995 	 54.7462 	 104.602
| 25> C 	 -39.5589 	 54.4303 	 103.533
| 26> C 	 -40.1012 	 53.5527 	 102.557
| 27> C 	 -41.3904 	 53.1888 	 102.894
| 28> H 	 -38.6033 	 55.0074 	 103.504
| 29> C 	 -39.2776 	 53.1577 	 101.291
| 30> H 	 -39.7505 	 53.6312 	 100.428
| 31> H 	 -39.3883 	 52.0616 	 101.259
| 32> C 	 -37.8463 	 53.5966 	 101.187
| 33> H 	 -37.3004 	 53.2713 	 102.087
| 34> H 	 -37.7683 	 54.6961 	 101.096
| 35> C 	 -37.1264 	 52.9045 	 99.9964
| 36> H 	 -37.6871 	 52.6703 	 99.1847
| 37> H 	 -36.6859 	 51.9572 	 100.405
| 38> H 	 -36.2173 	 53.3932 	 99.5042
| 39> H 	 -45.4849 	 50.854 	 101.469
| 40> H 	 -40.2488 	 55.5936 	 105.322
| 41> *
| 42>
| 43>                          ****END OF INPUT****

CARTESIAN COORDINATES (ANGSTROEM)
---------------------------------
  S    -43.802600   51.684200  103.121000
  C    -44.466400   51.181100  101.625000
  C    -43.585000   51.325000  100.533000
  C    -42.391100   52.012600  100.916000
  C    -42.367700   52.311400  102.279000
  H    -41.653700   52.450800  100.247000
  C    -44.120000   51.015400   99.085400
  H    -43.741200   51.801800   98.332000
  H    -45.162600   50.966000   99.188600
  C    -43.658000   49.747500   98.495300
  H    -43.772800   49.716200   97.402400
  H    -42.634700   49.671300   98.644000
  C    -44.406000   48.515500   99.070700
  H    -44.118200   47.527800   98.609300
  H    -44.073300   48.388400  100.100000
  H    -45.507800   48.613400   99.000100
  S    -41.841900   53.981400  104.331000
  C    -40.299500   54.746200  104.602000
  C    -39.558900   54.430300  103.533000
  C    -40.101200   53.552700  102.557000
  C    -41.390400   53.188800  102.894000
  H    -38.603300   55.007400  103.504000
  C    -39.277600   53.157700  101.291000
  H    -39.750500   53.631200  100.428000
  H    -39.388300   52.061600  101.259000
  C    -37.846300   53.596600  101.187000
  H    -37.300400   53.271300  102.087000
  H    -37.768300   54.696100  101.096000
  C    -37.126400   52.904500   99.996400
  H    -37.687100   52.670300   99.184700
  H    -36.685900   51.957200  100.405000
  H    -36.217300   53.393200   99.504200
  H    -45.484900   50.854000  101.469000
  H    -40.248800   55.593600  105.322000

 Total Charge           Charge          ....    0
 Multiplicity           Mult            ....    1
 Number of Electrons    NEL             ....  134
 Basis Dimension        Dim             ....  322

ORBITAL ENERGIES
----------------

  NO   OCC          E(Eh)            E(eV)
   0   2.0000     -88.973460     -2421.0909
   1   2.0000     -88.956301     -2420.6240
   2   2.0000     -10.334375      -281.2127
   3   2.0000     -10.326094      -280.9873
   4   2.0000     -10.315649      -280.7031
   5   2.0000     -10.313423      -280.6425
   6   2.0000     -10.307830      -280.4903
   7   2.0000     -10.304282      -280.3938
   8   2.0000     -10.300237      -280.2837
   9   2.0000     -10.298611      -280.2395
  10   2.0000     -10.295818      -280.1634
  11   2.0000     -10.293609      -280.1033
  12   2.0000     -10.291681      -280.0509
  13   2.0000     -10.281347      -279.7697
  14   2.0000     -10.280194      -279.7383
  15   2.0000     -10.277208      -279.6571
  16   2.0000      -8.087950      -220.0843
  17   2.0000      -8.072861      -219.6737
  18   2.0000      -6.046420      -164.5314
  19   2.0000      -6.042510      -164.4251
  20   2.0000      -6.038741      -164.3225
  21   2.0000      -6.031293      -164.1198
  22   2.0000      -6.026966      -164.0021
  23   2.0000      -6.023717      -163.9137
  24   2.0000      -1.015348       -27.6290
  25   2.0000      -0.988894       -26.9092
  26   2.0000      -0.917026       -24.9535
  27   2.0000      -0.912675       -24.8351
  28   2.0000      -0.875933       -23.8354
  29   2.0000      -0.853662       -23.2293
  30   2.0000      -0.842018       -22.9125
  31   2.0000      -0.814758       -22.1707
  32   2.0000      -0.781528       -21.2665
  33   2.0000      -0.774887       -21.0858
  34   2.0000      -0.713100       -19.4044
  35   2.0000      -0.703580       -19.1454
  36   2.0000      -0.690715       -18.7953
  37   2.0000      -0.655355       -17.8331
  38   2.0000      -0.635277       -17.2868
  39   2.0000      -0.624110       -16.9829
  40   2.0000      -0.599994       -16.3267
  41   2.0000      -0.579272       -15.7628
  42   2.0000      -0.569258       -15.4903
  43   2.0000      -0.550098       -14.9689
  44   2.0000      -0.543416       -14.7871
  45   2.0000      -0.527462       -14.3530
  46   2.0000      -0.519745       -14.1430
  47   2.0000      -0.510568       -13.8933
  48   2.0000      -0.503070       -13.6892
  49   2.0000      -0.496694       -13.5157
  50   2.0000      -0.488811       -13.3012
  51   2.0000      -0.483097       -13.1457
  52   2.0000      -0.477210       -12.9856
  53   2.0000      -0.467222       -12.7138
  54   2.0000      -0.463795       -12.6205
  55   2.0000      -0.447791       -12.1850
  56   2.0000      -0.442199       -12.0329
  57   2.0000      -0.437299       -11.8995
  58   2.0000      -0.430669       -11.7191
  59   2.0000      -0.426880       -11.6160
  60   2.0000      -0.423467       -11.5231
  61   2.0000      -0.409332       -11.1385
  62   2.0000      -0.405196       -11.0259
  63   2.0000      -0.366017        -9.9598
  64   2.0000      -0.336663        -9.1611
  65   2.0000      -0.327574        -8.9137
  66   2.0000      -0.283423        -7.7123
  67   0.0000       0.018759         0.5105
  68   0.0000       0.086802         2.3620
  69   0.0000       0.107180         2.9165
  70   0.0000       0.116566         3.1719
  71   0.0000       0.136315         3.7093

MULLIKEN ATOMIC CHARGES
-----------------------
   0 S :    0.136277
   1 C :   -0.123366
   2 C :   -0.083528
   3 C :   -0.019090
   4 C :   -0.121291
   5 H :    0.013802
   6 C :    0.077221
   7 H :    0.044288
   8 H :    0.003430
   9 C :   -0.032586
  10 H :    0.028213
  11 H :    0.009325
  12 C :   -0.093726
  13 H :    0.037025
  14 H :    0.037071
  15 H :    0.035107
  16 S :    0.067507
  17 C :   -0.107398
  18 C :   -0.066242
  19 C :   -0.048170
  20 C :   -0.127334
  21 H :    0.034300
  22 C :    0.023559
  23 H :    0.050034
  24 H :    0.045760
  25 C :   -0.068446
  26 H :    0.037572
  27 H :    0.041790
  28 C :   -0.045289
  29 H :    0.008683
  30 H :    0.035650
  31 H :    0.037360
  32 H :    0.050590
  33 H :    0.081900
Sum of atomic charges:   -0.0000000

LOEWDIN ATOMIC CHARGES
----------------------
   0 S :    0.416524
   1 C :   -0.208151
   2 C :   -0.059318
   3 C :   -0.062529
   4 C :   -0.182509
   5 H :    0.033929
   6 C :   -0.022884
   7 H :    0.043338
   8 H :    0.019322
   9 C :   -0.044398
  10 H :    0.024653
  11 H :    0.015443
  12 C :   -0.073806
  13 H :    0.029986
  14 H :    0.025162
  15 H :    0.024266
  16 S :    0.414506
  17 C :   -0.199442
  18 C :   -0.083706
  19 C :   -0.070155
  20 C :   -0.202038
  21 H :    0.038971
  22 C :   -0.034565
  23 H :    0.032575
  24 H :    0.036837
  25 C :   -0.044037
  26 H :    0.027659
  27 H :    0.026894
  28 C :   -0.067578
  29 H :    0.005792
  30 H :    0.033464
  31 H :    0.035959
  32 H :    0.027330
  33 H :    0.042506

  Mayer bond orders larger than 0.100000
B(  0-S ,  1-C ) :   1.1522 B(  0-S ,  4-C ) :   1.1389 B(  1-C ,  2-C ) :   1.5909
B(  1-C , 32-H ) :   0.9629 B(  2-C ,  3-C ) :   1.2565 B(  2-C ,  6-C ) :   1.0196
B(  3-C ,  4-C ) :   1.5548 B(  3-C ,  5-H ) :   0.9872 B(  4-C , 20-C ) :   1.0968
B(  6-C ,  7-H ) :   0.9431 B(  6-C ,  8-H ) :   0.9441 B(  6-C ,  9-C ) :   1.0703
B(  9-C , 10-H ) :   0.9554 B(  9-C , 11-H ) :   0.9515 B(  9-C , 12-C ) :   1.0738
B( 12-C , 13-H ) :   0.9746 B( 12-C , 14-H ) :   0.9762 B( 12-C , 15-H ) :   0.9765
B( 16-S , 17-C ) :   1.1448 B( 16-S , 20-C ) :   1.1626 B( 17-C , 18-C ) :   1.5938
B( 17-C , 33-H ) :   0.9622 B( 18-C , 19-C ) :   1.2741 B( 18-C , 21-H ) :   0.9764
B( 19-C , 20-C ) :   1.5647 B( 19-C , 22-C ) :   1.0087 B( 22-C , 23-H ) :   0.9228
B( 22-C , 24-H ) :   0.9368 B( 22-C , 25-C ) :   1.0948 B( 25-C , 26-H ) :   0.9556
B( 25-C , 27-H ) :   0.9480 B( 25-C , 28-C ) :   1.0609 B( 28-C , 29-H ) :   0.9780
B( 28-C , 30-H ) :   0.9787 B( 28-C , 31-H ) :   0.9754

Dispersion correction           -0.013432408
FINAL SINGLE POINT ENERGY     -1339.860887637151

DIPOLE MOMENT
-------------
                                X             Y             Z
Electronic contribution:    -11.44085      10.00752      25.16701
Nuclear contribution   :     11.71494      -9.85698     -25.82042
                        -----------------------------------------
Total Dipole Moment    :      0.27409       0.15055      -0.65341
                        -----------------------------------------
Magnitude (a.u.)       :      0.72438
Magnitude (Debye)      :      1.84123

Rotational constants in cm-1:     0.017831     0.008481     0.005959
Rotational constants in MHz :   534.563179   254.265854   178.633838

                             ****ORCA TERMINATED NORMALLY****
TOTAL RUN TIME: 0 days 0 hours 0 minutes 28 seconds 945 msec
