                         Program Version 4.2.1 -  RELEASE  -
|  1> ! wB97X-D3 SP def2-SVP
|  2> %pal
|  3> nprocs 16
|  4> end
|  5>
|  6> * xyz 0 1
|  7> S 	 -8.71 	 -5.32913 	 86.3646
|  8> C 	 -8.48633 	 -4.64778 	 87.975
|  9> C 	 -8.98961 	 -5.44703 	 88.9378
| 10> C 	 -9.69996 	 -6.53177 	 88.286
| 11> C 	 -9.60754 	 -6.61078 	 86.9718
| 12> H 	 -10.2401 	 -7.36583 	 88.7276
| 13> C 	 -8.87177 	 -5.32566 	 90.4698
| 14> H 	 -9.85952 	 -5.65767 	 90.9051
| 15> H 	 -8.90793 	 -4.30243 	 90.7745
| 16> C 	 -7.66466 	 -6.13163 	 91.0706
| 17> H 	 -7.61962 	 -7.15673 	 90.6868
| 18> H 	 -6.7662 	 -5.69919 	 90.6913
| 19> C 	 -7.77223 	 -6.13136 	 92.6299
| 20> H 	 -6.85917 	 -6.39077 	 93.0796
| 21> H 	 -7.73099 	 -5.12165 	 92.9351
| 22> H 	 -8.61699 	 -6.76029 	 92.992
| 23> S 	 -11.6191 	 -6.62412 	 85.1692
| 24> C 	 -12.1381 	 -8.11282 	 84.4081
| 25> C 	 -11.5173 	 -9.20842 	 84.8665
| 26> C 	 -10.5232 	 -8.86954 	 85.8953
| 27> C 	 -10.4796 	 -7.48583 	 86.1451
| 28> H 	 -11.7366 	 -10.2843 	 84.6459
| 29> C 	 -9.71316 	 -9.98589 	 86.5063
| 30> H 	 -8.85955 	 -9.51811 	 87.0364
| 31> H 	 -9.38284 	 -10.7357 	 85.7641
| 32> C 	 -10.4812 	 -10.8474 	 87.5272
| 33> H 	 -11.1107 	 -11.4348 	 86.9
| 34> H 	 -11.1879 	 -10.2888 	 88.1443
| 35> C 	 -9.56368 	 -11.7533 	 88.3356
| 36> H 	 -9.1379 	 -11.3009 	 89.2153
| 37> H 	 -8.76287 	 -12.008 	 87.6555
| 38> H 	 -10.2052 	 -12.6348 	 88.5308
| 39> H 	 -7.85077 	 -3.74344 	 88.1877
| 40> H 	 -12.9733 	 -8.15954 	 83.7844
| 41> *
| 42>
| 43>                          ****END OF INPUT****

CARTESIAN COORDINATES (ANGSTROEM)
---------------------------------
  S     -8.710000   -5.329130   86.364600
  C     -8.486330   -4.647780   87.975000
  C     -8.989610   -5.447030   88.937800
  C     -9.699960   -6.531770   88.286000
  C     -9.607540   -6.610780   86.971800
  H    -10.240100   -7.365830   88.727600
  C     -8.871770   -5.325660   90.469800
  H     -9.859520   -5.657670   90.905100
  H     -8.907930   -4.302430   90.774500
  C     -7.664660   -6.131630   91.070600
  H     -7.619620   -7.156730   90.686800
  H     -6.766200   -5.699190   90.691300
  C     -7.772230   -6.131360   92.629900
  H     -6.859170   -6.390770   93.079600
  H     -7.730990   -5.121650   92.935100
  H     -8.616990   -6.760290   92.992000
  S    -11.619100   -6.624120   85.169200
  C    -12.138100   -8.112820   84.408100
  C    -11.517300   -9.208420   84.866500
  C    -10.523200   -8.869540   85.895300
  C    -10.479600   -7.485830   86.145100
  H    -11.736600  -10.284300   84.645900
  C     -9.713160   -9.985890   86.506300
  H     -8.859550   -9.518110   87.036400
  H     -9.382840  -10.735700   85.764100
  C    -10.481200  -10.847400   87.527200
  H    -11.110700  -11.434800   86.900000
  H    -11.187900  -10.288800   88.144300
  C     -9.563680  -11.753300   88.335600
  H     -9.137900  -11.300900   89.215300
  H     -8.762870  -12.008000   87.655500
  H    -10.205200  -12.634800   88.530800
  H     -7.850770   -3.743440   88.187700
  H    -12.973300   -8.159540   83.784400

 Total Charge           Charge          ....    0
 Multiplicity           Mult            ....    1
 Number of Electrons    NEL             ....  134
 Basis Dimension        Dim             ....  322

ORBITAL ENERGIES
----------------

  NO   OCC          E(Eh)            E(eV)
   0   2.0000     -88.962503     -2420.7928
   1   2.0000     -88.960993     -2420.7517
   2   2.0000     -10.328092      -281.0417
   3   2.0000     -10.315387      -280.6959
   4   2.0000     -10.314876      -280.6820
   5   2.0000     -10.309154      -280.5264
   6   2.0000     -10.305254      -280.4202
   7   2.0000     -10.301316      -280.3131
   8   2.0000     -10.298959      -280.2489
   9   2.0000     -10.295110      -280.1442
  10   2.0000     -10.292087      -280.0619
  11   2.0000     -10.291382      -280.0427
  12   2.0000     -10.283049      -279.8160
  13   2.0000     -10.280442      -279.7450
  14   2.0000     -10.277826      -279.6739
  15   2.0000     -10.277425      -279.6629
  16   2.0000      -8.077870      -219.8100
  17   2.0000      -8.077259      -219.7934
  18   2.0000      -6.036458      -164.2604
  19   2.0000      -6.035777      -164.2418
  20   2.0000      -6.032266      -164.1463
  21   2.0000      -6.031617      -164.1286
  22   2.0000      -6.028528      -164.0446
  23   2.0000      -6.027819      -164.0253
  24   2.0000      -1.015367       -27.6295
  25   2.0000      -0.987629       -26.8747
  26   2.0000      -0.912931       -24.8421
  27   2.0000      -0.906656       -24.6714
  28   2.0000      -0.871816       -23.7233
  29   2.0000      -0.849854       -23.1257
  30   2.0000      -0.845525       -23.0079
  31   2.0000      -0.818850       -22.2820
  32   2.0000      -0.783420       -21.3179
  33   2.0000      -0.770682       -20.9713
  34   2.0000      -0.710125       -19.3235
  35   2.0000      -0.699313       -19.0293
  36   2.0000      -0.690450       -18.7881
  37   2.0000      -0.660264       -17.9667
  38   2.0000      -0.645376       -17.5616
  39   2.0000      -0.614297       -16.7159
  40   2.0000      -0.599737       -16.3197
  41   2.0000      -0.570722       -15.5301
  42   2.0000      -0.569050       -15.4846
  43   2.0000      -0.560074       -15.2404
  44   2.0000      -0.526706       -14.3324
  45   2.0000      -0.522395       -14.2151
  46   2.0000      -0.517386       -14.0788
  47   2.0000      -0.506210       -13.7747
  48   2.0000      -0.504252       -13.7214
  49   2.0000      -0.497446       -13.5362
  50   2.0000      -0.493616       -13.4320
  51   2.0000      -0.481539       -13.1033
  52   2.0000      -0.473606       -12.8875
  53   2.0000      -0.465342       -12.6626
  54   2.0000      -0.460588       -12.5332
  55   2.0000      -0.448687       -12.2094
  56   2.0000      -0.443180       -12.0595
  57   2.0000      -0.434769       -11.8307
  58   2.0000      -0.434130       -11.8133
  59   2.0000      -0.423959       -11.5365
  60   2.0000      -0.419515       -11.4156
  61   2.0000      -0.418253       -11.3812
  62   2.0000      -0.416361       -11.3297
  63   2.0000      -0.346362        -9.4250
  64   2.0000      -0.332773        -9.0552
  65   2.0000      -0.323396        -8.8000
  66   2.0000      -0.303318        -8.2537
  67   0.0000       0.047999         1.3061
  68   0.0000       0.073354         1.9961
  69   0.0000       0.117835         3.2065
  70   0.0000       0.124110         3.3772
  71   0.0000       0.125174         3.4062

MULLIKEN ATOMIC CHARGES
-----------------------
   0 S :    0.105834
   1 C :   -0.159174
   2 C :   -0.051874
   3 C :    0.014934
   4 C :   -0.135378
   5 H :    0.003898
   6 C :    0.056286
   7 H :    0.026160
   8 H :    0.015222
   9 C :   -0.060981
  10 H :    0.031219
  11 H :    0.019030
  12 C :   -0.008020
  13 H :    0.011535
  14 H :    0.012413
  15 H :    0.056663
  16 S :    0.107260
  17 C :   -0.058474
  18 C :   -0.029682
  19 C :   -0.048950
  20 C :   -0.172785
  21 H :    0.036808
  22 C :    0.036187
  23 H :    0.030440
  24 H :    0.033550
  25 C :   -0.089310
  26 H :    0.003543
  27 H :    0.027914
  28 C :   -0.017389
  29 H :    0.042862
  30 H :    0.021891
  31 H :    0.040494
  32 H :    0.063221
  33 H :    0.034654
Sum of atomic charges:   -0.0000000

LOEWDIN ATOMIC CHARGES
----------------------
   0 S :    0.417109
   1 C :   -0.195262
   2 C :   -0.065468
   3 C :   -0.067037
   4 C :   -0.227470
   5 H :    0.030164
   6 C :   -0.031198
   7 H :    0.035167
   8 H :    0.024487
   9 C :   -0.031317
  10 H :    0.025098
  11 H :    0.020087
  12 C :   -0.064486
  13 H :    0.021161
  14 H :    0.022860
  15 H :    0.035814
  16 S :    0.412178
  17 C :   -0.173361
  18 C :   -0.072294
  19 C :   -0.054688
  20 C :   -0.199603
  21 H :    0.040052
  22 C :   -0.038706
  23 H :    0.029812
  24 H :    0.034388
  25 C :   -0.041145
  26 H :    0.013660
  27 H :    0.019948
  28 C :   -0.059492
  29 H :    0.025000
  30 H :    0.024074
  31 H :    0.034747
  32 H :    0.038828
  33 H :    0.016893

  Mayer bond orders larger than 0.100000
B(  0-S ,  1-C ) :   1.1318 B(  0-S ,  4-C ) :   1.1431 B(  1-C ,  2-C ) :   1.6498
B(  1-C , 32-H ) :   0.9606 B(  2-C ,  3-C ) :   1.2005 B(  2-C ,  6-C ) :   1.0146
B(  3-C ,  4-C ) :   1.6411 B(  3-C ,  5-H ) :   0.9914 B(  4-C , 20-C ) :   0.9763
B(  6-C ,  7-H ) :   0.9457 B(  6-C ,  8-H ) :   0.9427 B(  6-C ,  9-C ) :   1.0445
B(  9-C , 10-H ) :   0.9615 B(  9-C , 11-H ) :   0.9556 B(  9-C , 12-C ) :   1.0793
B( 12-C , 13-H ) :   0.9687 B( 12-C , 14-H ) :   0.9687 B( 12-C , 15-H ) :   0.9768
B( 16-S , 17-C ) :   1.1410 B( 16-S , 20-C ) :   1.1467 B( 17-C , 18-C ) :   1.6394
B( 17-C , 33-H ) :   0.9705 B( 18-C , 19-C ) :   1.2179 B( 18-C , 21-H ) :   0.9795
B( 19-C , 20-C ) :   1.6309 B( 19-C , 22-C ) :   1.0636 B( 22-C , 23-H ) :   0.9383
B( 22-C , 24-H ) :   0.9315 B( 22-C , 25-C ) :   1.0534 B( 25-C , 26-H ) :   0.9564
B( 25-C , 27-H ) :   0.9564 B( 25-C , 28-C ) :   1.0805 B( 28-C , 29-H ) :   0.9773
B( 28-C , 30-H ) :   0.9693 B( 28-C , 31-H ) :   0.9745

Dispersion correction           -0.013573730
FINAL SINGLE POINT ENERGY     -1339.866908385325

DIPOLE MOMENT
-------------
                                X             Y             Z
Electronic contribution:     -7.64159      16.35068     -25.25787
Nuclear contribution   :      7.70515     -16.77193      25.84461
                        -----------------------------------------
Total Dipole Moment    :      0.06356      -0.42125       0.58674
                        -----------------------------------------
Magnitude (a.u.)       :      0.72509
Magnitude (Debye)      :      1.84302

Rotational constants in cm-1:     0.016947     0.008807     0.006297
Rotational constants in MHz :   508.068319   264.012930   188.778103

                             ****ORCA TERMINATED NORMALLY****
TOTAL RUN TIME: 0 days 0 hours 0 minutes 33 seconds 11 msec
