                         Program Version 4.2.1 -  RELEASE  -
|  1> ! wB97X-D3 SP def2-SVP
|  2> %pal
|  3> nprocs 16
|  4> end
|  5>
|  6> * xyz 0 1
|  7> S 	 52.1888 	 2.86672 	 93.8745
|  8> C 	 53.2457 	 4.2004 	 94.0727
|  9> C 	 52.5992 	 5.39828 	 93.7102
| 10> C 	 51.3323 	 5.18714 	 93.1619
| 11> C 	 50.9394 	 3.91487 	 93.2725
| 12> H 	 50.6671 	 5.97085 	 92.7668
| 13> C 	 53.2694 	 6.79473 	 93.8531
| 14> H 	 52.65 	 7.53455 	 93.302
| 15> H 	 54.2056 	 6.61155 	 93.308
| 16> C 	 53.3284 	 7.23675 	 95.3442
| 17> H 	 53.7389 	 8.26264 	 95.4653
| 18> H 	 52.3145 	 7.3192 	 95.9087
| 19> C 	 54.287 	 6.41861 	 96.3081
| 20> H 	 55.2676 	 6.44693 	 95.8098
| 21> H 	 54.3481 	 6.8913 	 97.2518
| 22> H 	 53.9092 	 5.42276 	 96.4768
| 23> S 	 49.5983 	 2.87663 	 91.1371
| 24> C 	 47.903 	 2.545 	 91.2962
| 25> C 	 47.3782 	 2.80797 	 92.4999
| 26> C 	 48.4069 	 3.34479 	 93.3559
| 27> C 	 49.6705 	 3.34864 	 92.8365
| 28> H 	 46.3135 	 2.67682 	 92.615
| 29> C 	 48.0866 	 3.69773 	 94.8298
| 30> H 	 47.1946 	 4.32388 	 94.8478
| 31> H 	 48.8334 	 4.37162 	 95.1736
| 32> C 	 47.8698 	 2.52374 	 95.7471
| 33> H 	 47.0082 	 1.90857 	 95.4592
| 34> H 	 47.6127 	 2.86523 	 96.7602
| 35> C 	 49.0823 	 1.5734 	 95.9636
| 36> H 	 49.4429 	 1.22356 	 95.0343
| 37> H 	 48.8225 	 0.692424 	 96.6014
| 38> H 	 49.8652 	 2.05869 	 96.5173
| 39> H 	 54.2123 	 4.30823 	 94.5344
| 40> H 	 47.2748 	 2.05658 	 90.559
| 41> *
| 42>
| 43>                          ****END OF INPUT****

CARTESIAN COORDINATES (ANGSTROEM)
---------------------------------
  S     52.188800    2.866720   93.874500
  C     53.245700    4.200400   94.072700
  C     52.599200    5.398280   93.710200
  C     51.332300    5.187140   93.161900
  C     50.939400    3.914870   93.272500
  H     50.667100    5.970850   92.766800
  C     53.269400    6.794730   93.853100
  H     52.650000    7.534550   93.302000
  H     54.205600    6.611550   93.308000
  C     53.328400    7.236750   95.344200
  H     53.738900    8.262640   95.465300
  H     52.314500    7.319200   95.908700
  C     54.287000    6.418610   96.308100
  H     55.267600    6.446930   95.809800
  H     54.348100    6.891300   97.251800
  H     53.909200    5.422760   96.476800
  S     49.598300    2.876630   91.137100
  C     47.903000    2.545000   91.296200
  C     47.378200    2.807970   92.499900
  C     48.406900    3.344790   93.355900
  C     49.670500    3.348640   92.836500
  H     46.313500    2.676820   92.615000
  C     48.086600    3.697730   94.829800
  H     47.194600    4.323880   94.847800
  H     48.833400    4.371620   95.173600
  C     47.869800    2.523740   95.747100
  H     47.008200    1.908570   95.459200
  H     47.612700    2.865230   96.760200
  C     49.082300    1.573400   95.963600
  H     49.442900    1.223560   95.034300
  H     48.822500    0.692424   96.601400
  H     49.865200    2.058690   96.517300
  H     54.212300    4.308230   94.534400
  H     47.274800    2.056580   90.559000

 Total Charge           Charge          ....    0
 Multiplicity           Mult            ....    1
 Number of Electrons    NEL             ....  134
 Basis Dimension        Dim             ....  322

ORBITAL ENERGIES
----------------

  NO   OCC          E(Eh)            E(eV)
   0   2.0000     -88.969025     -2420.9702
   1   2.0000     -88.959780     -2420.7187
   2   2.0000     -10.321083      -280.8509
   3   2.0000     -10.320802      -280.8433
   4   2.0000     -10.310278      -280.5569
   5   2.0000     -10.309224      -280.5282
   6   2.0000     -10.303791      -280.3804
   7   2.0000     -10.302779      -280.3529
   8   2.0000     -10.301340      -280.3137
   9   2.0000     -10.297372      -280.2057
  10   2.0000     -10.288626      -279.9677
  11   2.0000     -10.288499      -279.9643
  12   2.0000     -10.284933      -279.8673
  13   2.0000     -10.283329      -279.8236
  14   2.0000     -10.277522      -279.6656
  15   2.0000     -10.267272      -279.3867
  16   2.0000      -8.084010      -219.9771
  17   2.0000      -8.075082      -219.7341
  18   2.0000      -6.042420      -164.4226
  19   2.0000      -6.038398      -164.3132
  20   2.0000      -6.034938      -164.2190
  21   2.0000      -6.033626      -164.1833
  22   2.0000      -6.029609      -164.0740
  23   2.0000      -6.025670      -163.9668
  24   2.0000      -1.013341       -27.5744
  25   2.0000      -0.989930       -26.9374
  26   2.0000      -0.903729       -24.5917
  27   2.0000      -0.902871       -24.5684
  28   2.0000      -0.870741       -23.6941
  29   2.0000      -0.851561       -23.1721
  30   2.0000      -0.840496       -22.8711
  31   2.0000      -0.817363       -22.2416
  32   2.0000      -0.785562       -21.3762
  33   2.0000      -0.773309       -21.0428
  34   2.0000      -0.707200       -19.2439
  35   2.0000      -0.692419       -18.8417
  36   2.0000      -0.689506       -18.7624
  37   2.0000      -0.655585       -17.8394
  38   2.0000      -0.640431       -17.4270
  39   2.0000      -0.618262       -16.8238
  40   2.0000      -0.592984       -16.1359
  41   2.0000      -0.571315       -15.5463
  42   2.0000      -0.549940       -14.9646
  43   2.0000      -0.545047       -14.8315
  44   2.0000      -0.544064       -14.8047
  45   2.0000      -0.535734       -14.5781
  46   2.0000      -0.521716       -14.1966
  47   2.0000      -0.512356       -13.9419
  48   2.0000      -0.504609       -13.7311
  49   2.0000      -0.494585       -13.4583
  50   2.0000      -0.481857       -13.1120
  51   2.0000      -0.476189       -12.9577
  52   2.0000      -0.472840       -12.8666
  53   2.0000      -0.462331       -12.5807
  54   2.0000      -0.461450       -12.5567
  55   2.0000      -0.445816       -12.1313
  56   2.0000      -0.443163       -12.0591
  57   2.0000      -0.440037       -11.9740
  58   2.0000      -0.435887       -11.8611
  59   2.0000      -0.417943       -11.3728
  60   2.0000      -0.415978       -11.3193
  61   2.0000      -0.409478       -11.1425
  62   2.0000      -0.405781       -11.0419
  63   2.0000      -0.343783        -9.3548
  64   2.0000      -0.330579        -8.9955
  65   2.0000      -0.321222        -8.7409
  66   2.0000      -0.310733        -8.4555
  67   0.0000       0.050067         1.3624
  68   0.0000       0.058220         1.5842
  69   0.0000       0.117936         3.2092
  70   0.0000       0.121822         3.3149
  71   0.0000       0.135078         3.6757

MULLIKEN ATOMIC CHARGES
-----------------------
   0 S :    0.140487
   1 C :   -0.099353
   2 C :   -0.145328
   3 C :    0.051375
   4 C :   -0.184444
   5 H :    0.023240
   6 C :    0.077233
   7 H :    0.031333
   8 H :    0.050634
   9 C :   -0.118276
  10 H :    0.034890
  11 H :    0.045490
  12 C :   -0.062346
  13 H :    0.034784
  14 H :    0.028811
  15 H :    0.045120
  16 S :    0.104365
  17 C :   -0.076856
  18 C :   -0.036541
  19 C :   -0.042907
  20 C :   -0.167104
  21 H :    0.021095
  22 C :    0.112711
  23 H :    0.016396
  24 H :    0.012275
  25 C :   -0.068779
  26 H :    0.025127
  27 H :    0.022920
  28 C :   -0.048740
  29 H :    0.028018
  30 H :    0.031889
  31 H :    0.024672
  32 H :    0.039221
  33 H :    0.048588
Sum of atomic charges:   -0.0000000

LOEWDIN ATOMIC CHARGES
----------------------
   0 S :    0.441352
   1 C :   -0.218701
   2 C :   -0.063634
   3 C :   -0.063301
   4 C :   -0.206616
   5 H :    0.041554
   6 C :   -0.032998
   7 H :    0.034835
   8 H :    0.038181
   9 C :   -0.049558
  10 H :    0.024048
  11 H :    0.034930
  12 C :   -0.066400
  13 H :    0.025429
  14 H :    0.021775
  15 H :    0.020523
  16 S :    0.396709
  17 C :   -0.178177
  18 C :   -0.077926
  19 C :   -0.046206
  20 C :   -0.203533
  21 H :    0.036535
  22 C :   -0.029395
  23 H :    0.031899
  24 H :    0.024452
  25 C :   -0.041348
  26 H :    0.022632
  27 H :    0.025263
  28 C :   -0.063618
  29 H :    0.013605
  30 H :    0.030827
  31 H :    0.019885
  32 H :    0.027607
  33 H :    0.029373

  Mayer bond orders larger than 0.100000
B(  0-S ,  1-C ) :   1.1505 B(  0-S ,  4-C ) :   1.1692 B(  1-C ,  2-C ) :   1.5978
B(  1-C ,  4-C ) :   0.1010 B(  1-C , 32-H ) :   0.9595 B(  2-C ,  3-C ) :   1.2719
B(  2-C ,  6-C ) :   0.9931 B(  3-C ,  4-C ) :   1.5890 B(  3-C ,  5-H ) :   0.9935
B(  4-C , 20-C ) :   0.9848 B(  6-C ,  7-H ) :   0.9444 B(  6-C ,  8-H ) :   0.9493
B(  6-C ,  9-C ) :   1.0534 B(  9-C , 10-H ) :   0.9612 B(  9-C , 11-H ) :   0.9580
B(  9-C , 12-C ) :   1.0735 B( 12-C , 13-H ) :   0.9767 B( 12-C , 14-H ) :   0.9724
B( 12-C , 15-H ) :   0.9718 B( 16-S , 17-C ) :   1.1513 B( 16-S , 20-C ) :   1.1228
B( 17-C , 18-C ) :   1.6693 B( 17-C , 33-H ) :   0.9569 B( 18-C , 19-C ) :   1.1830
B( 18-C , 21-H ) :   0.9953 B( 19-C , 20-C ) :   1.6632 B( 19-C , 22-C ) :   1.0410
B( 22-C , 23-H ) :   0.9283 B( 22-C , 24-H ) :   0.9331 B( 22-C , 25-C ) :   1.0794
B( 25-C , 26-H ) :   0.9560 B( 25-C , 27-H ) :   0.9526 B( 25-C , 28-C ) :   1.0751
B( 28-C , 29-H ) :   0.9776 B( 28-C , 30-H ) :   0.9734 B( 28-C , 31-H ) :   0.9758

Dispersion correction           -0.015450306
FINAL SINGLE POINT ENERGY     -1339.877972574013

DIPOLE MOMENT
-------------
                                X             Y             Z
Electronic contribution:     -2.24607      -9.82954     -20.26244
Nuclear contribution   :      2.03410      10.29867      20.58973
                        -----------------------------------------
Total Dipole Moment    :     -0.21197       0.46913       0.32729
                        -----------------------------------------
Magnitude (a.u.)       :      0.61002
Magnitude (Debye)      :      1.55056

Rotational constants in cm-1:     0.022122     0.008410     0.007362
Rotational constants in MHz :   663.191722   252.131308   220.708290

                             ****ORCA TERMINATED NORMALLY****
TOTAL RUN TIME: 0 days 0 hours 0 minutes 32 seconds 144 msec
