                         Program Version 4.2.1 -  RELEASE  -
|  1> ! wB97X-D3 SP def2-SVP
|  2> %pal
|  3> nprocs 16
|  4> end
|  5>
|  6> * xyz 0 1
|  7> S 	 39.6931 	 27.5068 	 83.6411
|  8> C 	 39.8095 	 28.7099 	 84.8701
|  9> C 	 41.0351 	 28.7661 	 85.4572
| 10> C 	 41.7839 	 27.5976 	 85.0891
| 11> C 	 41.2072 	 26.7951 	 84.1559
| 12> H 	 42.6826 	 27.2833 	 85.6046
| 13> C 	 41.3907 	 29.6766 	 86.6363
| 14> H 	 41.204 	 30.7022 	 86.2988
| 15> H 	 42.4094 	 29.5716 	 86.8739
| 16> C 	 40.5586 	 29.3736 	 87.8644
| 17> H 	 39.5493 	 28.9476 	 87.5549
| 18> H 	 41.0657 	 28.5792 	 88.3738
| 19> C 	 40.4236 	 30.5629 	 88.887
| 20> H 	 39.6833 	 30.4221 	 89.7058
| 21> H 	 41.3649 	 30.8187 	 89.3106
| 22> H 	 39.9773 	 31.307 	 88.2659
| 23> S 	 41.7041 	 25.7027 	 81.6752
| 24> C 	 42.5781 	 24.1481 	 81.5674
| 25> C 	 42.7868 	 23.5722 	 82.7913
| 26> C 	 42.2448 	 24.358 	 83.8742
| 27> C 	 41.7552 	 25.605 	 83.4491
| 28> H 	 43.2364 	 22.5726 	 82.7837
| 29> C 	 42.5114 	 23.8999 	 85.2464
| 30> H 	 43.2649 	 24.576 	 85.6327
| 31> H 	 42.963 	 22.8858 	 85.3332
| 32> C 	 41.3181 	 23.9897 	 86.1044
| 33> H 	 40.5925 	 23.2523 	 85.7272
| 34> H 	 40.7747 	 24.8846 	 85.9525
| 35> C 	 41.5996 	 23.7922 	 87.5708
| 36> H 	 40.9436 	 24.3202 	 88.2803
| 37> H 	 42.5498 	 24.2761 	 87.792
| 38> H 	 41.5338 	 22.7605 	 87.8867
| 39> H 	 39.0307 	 29.4208 	 85.0346
| 40> H 	 42.885 	 23.8066 	 80.5331
| 41> *
| 42>
| 43>                          ****END OF INPUT****

CARTESIAN COORDINATES (ANGSTROEM)
---------------------------------
  S     39.693100   27.506800   83.641100
  C     39.809500   28.709900   84.870100
  C     41.035100   28.766100   85.457200
  C     41.783900   27.597600   85.089100
  C     41.207200   26.795100   84.155900
  H     42.682600   27.283300   85.604600
  C     41.390700   29.676600   86.636300
  H     41.204000   30.702200   86.298800
  H     42.409400   29.571600   86.873900
  C     40.558600   29.373600   87.864400
  H     39.549300   28.947600   87.554900
  H     41.065700   28.579200   88.373800
  C     40.423600   30.562900   88.887000
  H     39.683300   30.422100   89.705800
  H     41.364900   30.818700   89.310600
  H     39.977300   31.307000   88.265900
  S     41.704100   25.702700   81.675200
  C     42.578100   24.148100   81.567400
  C     42.786800   23.572200   82.791300
  C     42.244800   24.358000   83.874200
  C     41.755200   25.605000   83.449100
  H     43.236400   22.572600   82.783700
  C     42.511400   23.899900   85.246400
  H     43.264900   24.576000   85.632700
  H     42.963000   22.885800   85.333200
  C     41.318100   23.989700   86.104400
  H     40.592500   23.252300   85.727200
  H     40.774700   24.884600   85.952500
  C     41.599600   23.792200   87.570800
  H     40.943600   24.320200   88.280300
  H     42.549800   24.276100   87.792000
  H     41.533800   22.760500   87.886700
  H     39.030700   29.420800   85.034600
  H     42.885000   23.806600   80.533100

 Total Charge           Charge          ....    0
 Multiplicity           Mult            ....    1
 Number of Electrons    NEL             ....  134
 Basis Dimension        Dim             ....  322

ORBITAL ENERGIES
----------------

  NO   OCC          E(Eh)            E(eV)
   0   2.0000     -88.964586     -2420.8495
   1   2.0000     -88.962995     -2420.8062
   2   2.0000     -10.333123      -281.1786
   3   2.0000     -10.329415      -281.0777
   4   2.0000     -10.323138      -280.9069
   5   2.0000     -10.309588      -280.5382
   6   2.0000     -10.306052      -280.4419
   7   2.0000     -10.299948      -280.2758
   8   2.0000     -10.296565      -280.1838
   9   2.0000     -10.293029      -280.0876
  10   2.0000     -10.291152      -280.0365
  11   2.0000     -10.289322      -279.9867
  12   2.0000     -10.285009      -279.8693
  13   2.0000     -10.280276      -279.7405
  14   2.0000     -10.272022      -279.5159
  15   2.0000     -10.269927      -279.4589
  16   2.0000      -8.080038      -219.8690
  17   2.0000      -8.077100      -219.7891
  18   2.0000      -6.038507      -164.3161
  19   2.0000      -6.035670      -164.2389
  20   2.0000      -6.034433      -164.2053
  21   2.0000      -6.031786      -164.1332
  22   2.0000      -6.030815      -164.1068
  23   2.0000      -6.027745      -164.0233
  24   2.0000      -1.008396       -27.4398
  25   2.0000      -0.983532       -26.7633
  26   2.0000      -0.920284       -25.0422
  27   2.0000      -0.913984       -24.8708
  28   2.0000      -0.867231       -23.5986
  29   2.0000      -0.850562       -23.1450
  30   2.0000      -0.846311       -23.0293
  31   2.0000      -0.817089       -22.2341
  32   2.0000      -0.784346       -21.3431
  33   2.0000      -0.771262       -20.9871
  34   2.0000      -0.708835       -19.2884
  35   2.0000      -0.701152       -19.0793
  36   2.0000      -0.687307       -18.7026
  37   2.0000      -0.661332       -17.9958
  38   2.0000      -0.643678       -17.5154
  39   2.0000      -0.621183       -16.9032
  40   2.0000      -0.599568       -16.3151
  41   2.0000      -0.578930       -15.7535
  42   2.0000      -0.571386       -15.5482
  43   2.0000      -0.557112       -15.1598
  44   2.0000      -0.522187       -14.2094
  45   2.0000      -0.521411       -14.1883
  46   2.0000      -0.518709       -14.1148
  47   2.0000      -0.515857       -14.0372
  48   2.0000      -0.511481       -13.9181
  49   2.0000      -0.497333       -13.5331
  50   2.0000      -0.491812       -13.3829
  51   2.0000      -0.488623       -13.2961
  52   2.0000      -0.474232       -12.9045
  53   2.0000      -0.466950       -12.7064
  54   2.0000      -0.456931       -12.4337
  55   2.0000      -0.443471       -12.0675
  56   2.0000      -0.440808       -11.9950
  57   2.0000      -0.435076       -11.8390
  58   2.0000      -0.429002       -11.6737
  59   2.0000      -0.426461       -11.6046
  60   2.0000      -0.422747       -11.5035
  61   2.0000      -0.417766       -11.3680
  62   2.0000      -0.409433       -11.1412
  63   2.0000      -0.347980        -9.4690
  64   2.0000      -0.332143        -9.0381
  65   2.0000      -0.327810        -8.9202
  66   2.0000      -0.292753        -7.9662
  67   0.0000       0.033372         0.9081
  68   0.0000       0.061478         1.6729
  69   0.0000       0.105181         2.8621
  70   0.0000       0.122099         3.3225
  71   0.0000       0.129581         3.5261

MULLIKEN ATOMIC CHARGES
-----------------------
   0 S :    0.110971
   1 C :   -0.121035
   2 C :   -0.084244
   3 C :    0.029694
   4 C :   -0.153278
   5 H :    0.005191
   6 C :    0.098565
   7 H :    0.026443
   8 H :    0.013551
   9 C :   -0.105881
  10 H :    0.041908
  11 H :    0.019026
  12 C :   -0.033353
  13 H :    0.040144
  14 H :    0.035079
  15 H :    0.023045
  16 S :    0.081888
  17 C :   -0.121712
  18 C :   -0.033222
  19 C :   -0.023340
  20 C :   -0.145182
  21 H :    0.033626
  22 C :    0.072186
  23 H :    0.027608
  24 H :    0.026024
  25 C :   -0.088739
  26 H :    0.021530
  27 H :    0.033170
  28 C :   -0.020976
  29 H :    0.023450
  30 H :    0.014328
  31 H :    0.034213
  32 H :    0.039496
  33 H :    0.079826
Sum of atomic charges:   -0.0000000

LOEWDIN ATOMIC CHARGES
----------------------
   0 S :    0.410727
   1 C :   -0.190233
   2 C :   -0.062456
   3 C :   -0.062358
   4 C :   -0.198175
   5 H :    0.028767
   6 C :   -0.024993
   7 H :    0.030677
   8 H :    0.023500
   9 C :   -0.042153
  10 H :    0.029848
  11 H :    0.018035
  12 C :   -0.061715
  13 H :    0.032263
  14 H :    0.020920
  15 H :    0.020553
  16 S :    0.372321
  17 C :   -0.174977
  18 C :   -0.075424
  19 C :   -0.051293
  20 C :   -0.186128
  21 H :    0.040309
  22 C :   -0.035543
  23 H :    0.030948
  24 H :    0.035207
  25 C :   -0.048583
  26 H :    0.027987
  27 H :    0.022388
  28 C :   -0.066817
  29 H :    0.028831
  30 H :    0.023001
  31 H :    0.025063
  32 H :    0.021281
  33 H :    0.038222

  Mayer bond orders larger than 0.100000
B(  0-S ,  1-C ) :   1.1510 B(  0-S ,  4-C ) :   1.1381 B(  1-C ,  2-C ) :   1.6159
B(  1-C , 32-H ) :   0.9697 B(  2-C ,  3-C ) :   1.2319 B(  2-C ,  6-C ) :   1.0332
B(  3-C ,  4-C ) :   1.6039 B(  3-C ,  5-H ) :   0.9947 B(  4-C , 20-C ) :   1.0183
B(  6-C ,  7-H ) :   0.9386 B(  6-C ,  8-H ) :   0.9405 B(  6-C ,  9-C ) :   1.0505
B(  9-C , 10-H ) :   0.9644 B(  9-C , 11-H ) :   0.9567 B(  9-C , 12-C ) :   1.0642
B( 12-C , 13-H ) :   0.9760 B( 12-C , 14-H ) :   0.9772 B( 12-C , 15-H ) :   0.9798
B( 16-S , 17-C ) :   1.1424 B( 16-S , 20-C ) :   1.1316 B( 17-C , 18-C ) :   1.6326
B( 17-C , 33-H ) :   0.9591 B( 18-C , 19-C ) :   1.2032 B( 18-C , 21-H ) :   0.9905
B( 19-C , 20-C ) :   1.6070 B( 19-C , 22-C ) :   1.0503 B( 22-C , 23-H ) :   0.9254
B( 22-C , 24-H ) :   0.9372 B( 22-C , 25-C ) :   1.0604 B( 25-C , 26-H ) :   0.9497
B( 25-C , 27-H ) :   0.9574 B( 25-C , 28-C ) :   1.0769 B( 28-C , 29-H ) :   0.9725
B( 28-C , 30-H ) :   0.9718 B( 28-C , 31-H ) :   0.9748

Dispersion correction           -0.014326177
FINAL SINGLE POINT ENERGY     -1339.872142979464

DIPOLE MOMENT
-------------
                                X             Y             Z
Electronic contribution:     -2.13265      -2.65170     -30.20858
Nuclear contribution   :      2.37559       2.61447      30.80373
                        -----------------------------------------
Total Dipole Moment    :      0.24294      -0.03723       0.59514
                        -----------------------------------------
Magnitude (a.u.)       :      0.64390
Magnitude (Debye)      :      1.63666

Rotational constants in cm-1:     0.020825     0.008418     0.006557
Rotational constants in MHz :   624.316933   252.370765   196.563192

                             ****ORCA TERMINATED NORMALLY****
TOTAL RUN TIME: 0 days 0 hours 0 minutes 30 seconds 580 msec
