                         Program Version 4.2.1 -  RELEASE  -
|  1> ! wB97X-D3 SP def2-SVP
|  2> %pal
|  3> nprocs 16
|  4> end
|  5>
|  6> * xyz 0 1
|  7> S 	 48.2814 	 4.87431 	 86.7777
|  8> C 	 47.0082 	 4.49509 	 85.709
|  9> C 	 46.6412 	 3.13494 	 85.8553
| 10> C 	 47.2959 	 2.51758 	 86.9555
| 11> C 	 48.2604 	 3.26337 	 87.5475
| 12> H 	 47.0476 	 1.55909 	 87.3288
| 13> C 	 45.5613 	 2.38946 	 85.0573
| 14> H 	 44.7658 	 3.07232 	 85.0364
| 15> H 	 45.283 	 1.51821 	 85.6123
| 16> C 	 46.0774 	 2.07842 	 83.6481
| 17> H 	 47.0157 	 1.55176 	 83.7513
| 18> H 	 45.2917 	 1.4239 	 83.2068
| 19> C 	 45.9641 	 3.2762 	 82.7101
| 20> H 	 44.8725 	 3.53707 	 82.7087
| 21> H 	 46.5513 	 4.13777 	 83.0596
| 22> H 	 46.3056 	 2.97671 	 81.6424
| 23> S 	 48.5506 	 3.96977 	 90.1845
| 24> C 	 49.3451 	 2.86538 	 91.2811
| 25> C 	 49.6242 	 1.66886 	 90.6915
| 26> C 	 49.4576 	 1.75626 	 89.2462
| 27> C 	 48.8657 	 2.91763 	 88.8038
| 28> H 	 50.1743 	 0.871818 	 91.2188
| 29> C 	 49.8711 	 0.630856 	 88.4222
| 30> H 	 49.1129 	 0.35307 	 87.7265
| 31> H 	 49.877 	 -0.228506 	 89.1646
| 32> C 	 51.2476 	 0.693109 	 87.7375
| 33> H 	 51.1809 	 1.32735 	 86.8276
| 34> H 	 51.5173 	 -0.329934 	 87.5371
| 35> C 	 52.3991 	 1.1126 	 88.6651
| 36> H 	 52.3869 	 0.559198 	 89.6302
| 37> H 	 52.4771 	 2.26031 	 88.8492
| 38> H 	 53.3019 	 0.86493 	 88.23
| 39> H 	 46.5534 	 5.13903 	 84.973
| 40> H 	 49.4328 	 3.11814 	 92.3128
| 41> *
| 42>
| 43>                          ****END OF INPUT****

CARTESIAN COORDINATES (ANGSTROEM)
---------------------------------
  S     48.281400    4.874310   86.777700
  C     47.008200    4.495090   85.709000
  C     46.641200    3.134940   85.855300
  C     47.295900    2.517580   86.955500
  C     48.260400    3.263370   87.547500
  H     47.047600    1.559090   87.328800
  C     45.561300    2.389460   85.057300
  H     44.765800    3.072320   85.036400
  H     45.283000    1.518210   85.612300
  C     46.077400    2.078420   83.648100
  H     47.015700    1.551760   83.751300
  H     45.291700    1.423900   83.206800
  C     45.964100    3.276200   82.710100
  H     44.872500    3.537070   82.708700
  H     46.551300    4.137770   83.059600
  H     46.305600    2.976710   81.642400
  S     48.550600    3.969770   90.184500
  C     49.345100    2.865380   91.281100
  C     49.624200    1.668860   90.691500
  C     49.457600    1.756260   89.246200
  C     48.865700    2.917630   88.803800
  H     50.174300    0.871818   91.218800
  C     49.871100    0.630856   88.422200
  H     49.112900    0.353070   87.726500
  H     49.877000   -0.228506   89.164600
  C     51.247600    0.693109   87.737500
  H     51.180900    1.327350   86.827600
  H     51.517300   -0.329934   87.537100
  C     52.399100    1.112600   88.665100
  H     52.386900    0.559198   89.630200
  H     52.477100    2.260310   88.849200
  H     53.301900    0.864930   88.230000
  H     46.553400    5.139030   84.973000
  H     49.432800    3.118140   92.312800

 Total Charge           Charge          ....    0
 Multiplicity           Mult            ....    1
 Number of Electrons    NEL             ....  134
 Basis Dimension        Dim             ....  322

ORBITAL ENERGIES
----------------

  NO   OCC          E(Eh)            E(eV)
   0   2.0000     -88.967592     -2420.9313
   1   2.0000     -88.958947     -2420.6960
   2   2.0000     -10.325704      -280.9767
   3   2.0000     -10.322317      -280.8845
   4   2.0000     -10.315521      -280.6996
   5   2.0000     -10.314383      -280.6686
   6   2.0000     -10.299935      -280.2755
   7   2.0000     -10.297522      -280.2098
   8   2.0000     -10.294826      -280.1365
   9   2.0000     -10.291264      -280.0395
  10   2.0000     -10.287711      -279.9428
  11   2.0000     -10.287476      -279.9365
  12   2.0000     -10.286211      -279.9020
  13   2.0000     -10.285706      -279.8883
  14   2.0000     -10.284661      -279.8598
  15   2.0000     -10.276537      -279.6388
  16   2.0000      -8.082247      -219.9291
  17   2.0000      -8.074081      -219.7069
  18   2.0000      -6.040704      -164.3759
  19   2.0000      -6.036687      -164.2666
  20   2.0000      -6.033128      -164.1698
  21   2.0000      -6.032679      -164.1575
  22   2.0000      -6.028480      -164.0433
  23   2.0000      -6.024767      -163.9422
  24   2.0000      -1.008062       -27.4308
  25   2.0000      -0.984941       -26.8016
  26   2.0000      -0.915374       -24.9086
  27   2.0000      -0.910247       -24.7691
  28   2.0000      -0.874639       -23.8001
  29   2.0000      -0.850735       -23.1497
  30   2.0000      -0.844884       -22.9905
  31   2.0000      -0.813913       -22.1477
  32   2.0000      -0.780914       -21.2498
  33   2.0000      -0.771370       -20.9900
  34   2.0000      -0.709535       -19.3074
  35   2.0000      -0.693773       -18.8785
  36   2.0000      -0.687808       -18.7162
  37   2.0000      -0.665645       -18.1131
  38   2.0000      -0.645119       -17.5546
  39   2.0000      -0.619480       -16.8569
  40   2.0000      -0.589864       -16.0510
  41   2.0000      -0.576268       -15.6811
  42   2.0000      -0.560865       -15.2619
  43   2.0000      -0.551185       -14.9985
  44   2.0000      -0.547016       -14.8851
  45   2.0000      -0.538541       -14.6545
  46   2.0000      -0.518029       -14.0963
  47   2.0000      -0.512984       -13.9590
  48   2.0000      -0.508431       -13.8351
  49   2.0000      -0.486404       -13.2357
  50   2.0000      -0.484385       -13.1808
  51   2.0000      -0.480356       -13.0712
  52   2.0000      -0.474206       -12.9038
  53   2.0000      -0.466084       -12.6828
  54   2.0000      -0.459188       -12.4951
  55   2.0000      -0.442790       -12.0489
  56   2.0000      -0.441781       -12.0215
  57   2.0000      -0.436289       -11.8720
  58   2.0000      -0.435240       -11.8435
  59   2.0000      -0.429847       -11.6967
  60   2.0000      -0.418132       -11.3779
  61   2.0000      -0.409057       -11.1310
  62   2.0000      -0.405263       -11.0278
  63   2.0000      -0.352350        -9.5879
  64   2.0000      -0.327639        -8.9155
  65   2.0000      -0.324213        -8.8223
  66   2.0000      -0.292218        -7.9516
  67   0.0000       0.028378         0.7722
  68   0.0000       0.072133         1.9628
  69   0.0000       0.109386         2.9765
  70   0.0000       0.127126         3.4593
  71   0.0000       0.129330         3.5193

MULLIKEN ATOMIC CHARGES
-----------------------
   0 S :    0.118480
   1 C :   -0.118900
   2 C :   -0.140568
   3 C :    0.038756
   4 C :   -0.154473
   5 H :    0.002635
   6 C :    0.110476
   7 H :    0.010878
   8 H :    0.015301
   9 C :   -0.057516
  10 H :    0.037798
  11 H :    0.031275
  12 C :   -0.094221
  13 H :    0.038287
  14 H :    0.036298
  15 H :    0.055199
  16 S :    0.089859
  17 C :   -0.086509
  18 C :   -0.021844
  19 C :   -0.079448
  20 C :   -0.112865
  21 H :    0.036639
  22 C :    0.052056
  23 H :    0.013309
  24 H :    0.013666
  25 C :   -0.040121
  26 H :    0.048701
  27 H :    0.024621
  28 C :   -0.066691
  29 H :    0.025010
  30 H :    0.053550
  31 H :    0.013878
  32 H :    0.054767
  33 H :    0.051716
Sum of atomic charges:   -0.0000000

LOEWDIN ATOMIC CHARGES
----------------------
   0 S :    0.413733
   1 C :   -0.213793
   2 C :   -0.060990
   3 C :   -0.052651
   4 C :   -0.194743
   5 H :    0.025464
   6 C :   -0.022359
   7 H :    0.022133
   8 H :    0.026549
   9 C :   -0.041707
  10 H :    0.023517
  11 H :    0.028960
  12 C :   -0.072209
  13 H :    0.030820
  14 H :    0.018383
  15 H :    0.038081
  16 S :    0.393761
  17 C :   -0.170213
  18 C :   -0.075474
  19 C :   -0.058486
  20 C :   -0.193622
  21 H :    0.036836
  22 C :   -0.041146
  23 H :    0.024053
  24 H :    0.034556
  25 C :   -0.033405
  26 H :    0.031509
  27 H :    0.025862
  28 C :   -0.070772
  29 H :    0.026123
  30 H :    0.037758
  31 H :    0.012711
  32 H :    0.027648
  33 H :    0.023113

  Mayer bond orders larger than 0.100000
B(  0-S ,  1-C ) :   1.1598 B(  0-S ,  4-C ) :   1.1363 B(  1-C ,  2-C ) :   1.5698
B(  1-C , 32-H ) :   0.9632 B(  2-C ,  3-C ) :   1.2798 B(  2-C ,  6-C ) :   1.0125
B(  3-C ,  4-C ) :   1.5647 B(  3-C ,  5-H ) :   0.9931 B(  4-C , 20-C ) :   1.0531
B(  6-C ,  7-H ) :   0.9366 B(  6-C ,  8-H ) :   0.9418 B(  6-C ,  9-C ) :   1.0671
B(  9-C , 10-H ) :   0.9576 B(  9-C , 11-H ) :   0.9559 B(  9-C , 12-C ) :   1.0646
B( 12-C , 13-H ) :   0.9743 B( 12-C , 14-H ) :   0.9722 B( 12-C , 15-H ) :   0.9714
B( 16-S , 17-C ) :   1.1612 B( 16-S , 20-C ) :   1.1160 B( 17-C , 18-C ) :   1.6187
B( 17-C , 33-H ) :   0.9701 B( 18-C , 19-C ) :   1.2267 B( 18-C , 21-H ) :   0.9794
B( 19-C , 20-C ) :   1.6115 B( 19-C , 22-C ) :   1.0605 B( 22-C , 23-H ) :   0.9266
B( 22-C , 24-H ) :   0.9297 B( 22-C , 25-C ) :   1.0799 B( 25-C , 26-H ) :   0.9544
B( 25-C , 27-H ) :   0.9534 B( 25-C , 28-C ) :   1.0854 B( 28-C , 29-H ) :   0.9719
B( 28-C , 30-H ) :   0.9692 B( 28-C , 31-H ) :   0.9737

Dispersion correction           -0.014678353
FINAL SINGLE POINT ENERGY     -1339.870924534747

DIPOLE MOMENT
-------------
                                X             Y             Z
Electronic contribution:     -1.77143      15.80859      16.02170
Nuclear contribution   :      1.61022     -16.44290     -16.21649
                        -----------------------------------------
Total Dipole Moment    :     -0.16122      -0.63432      -0.19479
                        -----------------------------------------
Magnitude (a.u.)       :      0.68286
Magnitude (Debye)      :      1.73568

Rotational constants in cm-1:     0.022710     0.007937     0.006812
Rotational constants in MHz :   680.818920   237.956756   204.230557

                             ****ORCA TERMINATED NORMALLY****
TOTAL RUN TIME: 0 days 0 hours 0 minutes 28 seconds 848 msec
