                         Program Version 4.2.1 -  RELEASE  -
|  1> ! wB97X-D3 SP def2-SVP
|  2> %pal
|  3> nprocs 16
|  4> end
|  5>
|  6> * xyz 0 1
|  7> S 	 28.3149 	 3.39619 	 77.0676
|  8> C 	 29.5152 	 4.29899 	 77.8993
|  9> C 	 29.0238 	 4.91413 	 79.029
| 10> C 	 27.8007 	 4.26117 	 79.397
| 11> C 	 27.2699 	 3.35661 	 78.5108
| 12> H 	 27.2627 	 4.50646 	 80.2096
| 13> C 	 29.7364 	 5.93088 	 79.9159
| 14> H 	 30.398 	 6.54695 	 79.2814
| 15> H 	 30.3164 	 5.4282 	 80.6839
| 16> C 	 28.8076 	 6.93282 	 80.5732
| 17> H 	 28.265 	 7.35433 	 79.7481
| 18> H 	 28.0224 	 6.43633 	 81.1338
| 19> C 	 29.7317 	 7.94695 	 81.3583
| 20> H 	 29.9742 	 7.4566 	 82.2687
| 21> H 	 30.6193 	 8.23737 	 80.8534
| 22> H 	 28.9317 	 8.70241 	 81.5289
| 23> S 	 25.639 	 1.2738 	 79.4845
| 24> C 	 24.0744 	 0.994375 	 78.9856
| 25> C 	 23.8395 	 1.75943 	 77.8671
| 26> C 	 24.8162 	 2.7884 	 77.6189
| 27> C 	 25.9405 	 2.70778 	 78.4798
| 28> H 	 22.9879 	 1.66193 	 77.2607
| 29> C 	 24.6366 	 3.72644 	 76.4586
| 30> H 	 25.3345 	 4.56136 	 76.6148
| 31> H 	 23.6385 	 4.169 	 76.6108
| 32> C 	 24.6256 	 3.04199 	 75.0201
| 33> H 	 23.8425 	 2.20613 	 75.0578
| 34> H 	 25.617 	 2.65367 	 74.7524
| 35> C 	 24.4878 	 4.06927 	 73.865
| 36> H 	 25.0457 	 4.96587 	 73.8428
| 37> H 	 23.4105 	 4.44275 	 74.0346
| 38> H 	 24.608 	 3.71138 	 72.8978
| 39> H 	 30.5187 	 4.49959 	 77.505
| 40> H 	 23.4374 	 0.219163 	 79.4205
| 41> *
| 42>
| 43>                          ****END OF INPUT****

CARTESIAN COORDINATES (ANGSTROEM)
---------------------------------
  S     28.314900    3.396190   77.067600
  C     29.515200    4.298990   77.899300
  C     29.023800    4.914130   79.029000
  C     27.800700    4.261170   79.397000
  C     27.269900    3.356610   78.510800
  H     27.262700    4.506460   80.209600
  C     29.736400    5.930880   79.915900
  H     30.398000    6.546950   79.281400
  H     30.316400    5.428200   80.683900
  C     28.807600    6.932820   80.573200
  H     28.265000    7.354330   79.748100
  H     28.022400    6.436330   81.133800
  C     29.731700    7.946950   81.358300
  H     29.974200    7.456600   82.268700
  H     30.619300    8.237370   80.853400
  H     28.931700    8.702410   81.528900
  S     25.639000    1.273800   79.484500
  C     24.074400    0.994375   78.985600
  C     23.839500    1.759430   77.867100
  C     24.816200    2.788400   77.618900
  C     25.940500    2.707780   78.479800
  H     22.987900    1.661930   77.260700
  C     24.636600    3.726440   76.458600
  H     25.334500    4.561360   76.614800
  H     23.638500    4.169000   76.610800
  C     24.625600    3.041990   75.020100
  H     23.842500    2.206130   75.057800
  H     25.617000    2.653670   74.752400
  C     24.487800    4.069270   73.865000
  H     25.045700    4.965870   73.842800
  H     23.410500    4.442750   74.034600
  H     24.608000    3.711380   72.897800
  H     30.518700    4.499590   77.505000
  H     23.437400    0.219163   79.420500

 Total Charge           Charge          ....    0
 Multiplicity           Mult            ....    1
 Number of Electrons    NEL             ....  134
 Basis Dimension        Dim             ....  322

ORBITAL ENERGIES
----------------

  NO   OCC          E(Eh)            E(eV)
   0   2.0000     -88.962941     -2420.8047
   1   2.0000     -88.958154     -2420.6744
   2   2.0000     -10.331784      -281.1421
   3   2.0000     -10.330803      -281.1154
   4   2.0000     -10.314672      -280.6765
   5   2.0000     -10.314168      -280.6628
   6   2.0000     -10.304515      -280.4001
   7   2.0000     -10.300194      -280.2825
   8   2.0000     -10.299714      -280.2695
   9   2.0000     -10.293858      -280.1101
  10   2.0000     -10.291915      -280.0572
  11   2.0000     -10.288331      -279.9597
  12   2.0000     -10.286809      -279.9183
  13   2.0000     -10.285986      -279.8959
  14   2.0000     -10.282350      -279.7970
  15   2.0000     -10.275189      -279.6021
  16   2.0000      -8.077808      -219.8083
  17   2.0000      -8.074318      -219.7134
  18   2.0000      -6.036312      -164.2564
  19   2.0000      -6.032633      -164.1563
  20   2.0000      -6.032366      -164.1490
  21   2.0000      -6.028489      -164.0435
  22   2.0000      -6.028485      -164.0434
  23   2.0000      -6.025296      -163.9566
  24   2.0000      -1.006180       -27.3795
  25   2.0000      -0.990002       -26.9393
  26   2.0000      -0.915741       -24.9186
  27   2.0000      -0.901535       -24.5320
  28   2.0000      -0.869651       -23.6644
  29   2.0000      -0.848555       -23.0904
  30   2.0000      -0.846446       -23.0330
  31   2.0000      -0.814551       -22.1650
  32   2.0000      -0.780895       -21.2492
  33   2.0000      -0.770643       -20.9703
  34   2.0000      -0.711815       -19.3695
  35   2.0000      -0.701133       -19.0788
  36   2.0000      -0.687798       -18.7159
  37   2.0000      -0.659898       -17.9567
  38   2.0000      -0.645544       -17.5661
  39   2.0000      -0.622978       -16.9521
  40   2.0000      -0.597133       -16.2488
  41   2.0000      -0.575506       -15.6603
  42   2.0000      -0.570394       -15.5212
  43   2.0000      -0.557749       -15.1771
  44   2.0000      -0.530143       -14.4259
  45   2.0000      -0.522062       -14.2060
  46   2.0000      -0.516771       -14.0621
  47   2.0000      -0.511224       -13.9111
  48   2.0000      -0.509008       -13.8508
  49   2.0000      -0.500533       -13.6202
  50   2.0000      -0.495773       -13.4907
  51   2.0000      -0.487362       -13.2618
  52   2.0000      -0.477071       -12.9818
  53   2.0000      -0.468105       -12.7378
  54   2.0000      -0.461756       -12.5650
  55   2.0000      -0.448114       -12.1938
  56   2.0000      -0.442151       -12.0315
  57   2.0000      -0.436699       -11.8832
  58   2.0000      -0.433633       -11.7998
  59   2.0000      -0.428494       -11.6599
  60   2.0000      -0.415197       -11.2981
  61   2.0000      -0.403807       -10.9881
  62   2.0000      -0.396573       -10.7913
  63   2.0000      -0.340001        -9.2519
  64   2.0000      -0.326533        -8.8854
  65   2.0000      -0.320472        -8.7205
  66   2.0000      -0.300669        -8.1816
  67   0.0000       0.036532         0.9941
  68   0.0000       0.059804         1.6274
  69   0.0000       0.103687         2.8215
  70   0.0000       0.119651         3.2559
  71   0.0000       0.137555         3.7431

MULLIKEN ATOMIC CHARGES
-----------------------
   0 S :    0.110489
   1 C :   -0.118137
   2 C :   -0.080333
   3 C :    0.081805
   4 C :   -0.153517
   5 H :   -0.044446
   6 C :    0.065715
   7 H :    0.020750
   8 H :    0.041397
   9 C :   -0.142741
  10 H :    0.025817
  11 H :    0.036642
  12 C :   -0.004289
  13 H :    0.030225
  14 H :    0.036532
  15 H :    0.047739
  16 S :    0.101954
  17 C :   -0.083516
  18 C :   -0.026291
  19 C :   -0.051532
  20 C :   -0.156440
  21 H :   -0.003621
  22 C :    0.045989
  23 H :    0.029415
  24 H :    0.027638
  25 C :   -0.084932
  26 H :    0.050655
  27 H :    0.036317
  28 C :   -0.039993
  29 H :    0.027265
  30 H :    0.023231
  31 H :    0.026291
  32 H :    0.051790
  33 H :    0.072133
Sum of atomic charges:    0.0000000

LOEWDIN ATOMIC CHARGES
----------------------
   0 S :    0.404248
   1 C :   -0.194104
   2 C :   -0.069705
   3 C :   -0.038377
   4 C :   -0.190452
   5 H :    0.008629
   6 C :   -0.032795
   7 H :    0.029920
   8 H :    0.029681
   9 C :   -0.040380
  10 H :    0.019784
  11 H :    0.021052
  12 C :   -0.051922
  13 H :    0.023496
  14 H :    0.022415
  15 H :    0.038641
  16 S :    0.433331
  17 C :   -0.207061
  18 C :   -0.077762
  19 C :   -0.056298
  20 C :   -0.205846
  21 H :    0.017936
  22 C :   -0.039346
  23 H :    0.029739
  24 H :    0.032782
  25 C :   -0.037584
  26 H :    0.034070
  27 H :    0.024327
  28 C :   -0.068571
  29 H :    0.023048
  30 H :    0.030677
  31 H :    0.016926
  32 H :    0.031343
  33 H :    0.038158

  Mayer bond orders larger than 0.100000
B(  0-S ,  1-C ) :   1.1666 B(  0-S ,  4-C ) :   1.1234 B(  1-C ,  2-C ) :   1.5992
B(  1-C , 32-H ) :   0.9667 B(  2-C ,  3-C ) :   1.2356 B(  2-C ,  6-C ) :   1.0170
B(  3-C ,  4-C ) :   1.5974 B(  3-C ,  5-H ) :   1.0073 B(  4-C , 20-C ) :   1.0251
B(  6-C ,  7-H ) :   0.9452 B(  6-C ,  8-H ) :   0.9428 B(  6-C ,  9-C ) :   1.0587
B(  9-C , 10-H ) :   0.9646 B(  9-C , 11-H ) :   0.9536 B(  9-C , 12-C ) :   1.0581
B( 12-C , 13-H ) :   0.9764 B( 12-C , 14-H ) :   0.9761 B( 12-C , 15-H ) :   0.9764
B( 16-S , 17-C ) :   1.1992 B( 16-S , 20-C ) :   1.1524 B( 17-C , 18-C ) :   1.5336
B( 17-C , 20-C ) :   0.1014 B( 17-C , 33-H ) :   0.9694 B( 18-C , 19-C ) :   1.2817
B( 18-C , 21-H ) :   0.9979 B( 19-C , 20-C ) :   1.5476 B( 19-C , 22-C ) :   1.0547
B( 22-C , 23-H ) :   0.9388 B( 22-C , 24-H ) :   0.9307 B( 22-C , 25-C ) :   1.0440
B( 25-C , 26-H ) :   0.9565 B( 25-C , 27-H ) :   0.9605 B( 25-C , 28-C ) :   1.0639
B( 28-C , 29-H ) :   0.9762 B( 28-C , 30-H ) :   0.9755 B( 28-C , 31-H ) :   0.9782

Dispersion correction           -0.013701173
FINAL SINGLE POINT ENERGY     -1339.840570517719

DIPOLE MOMENT
-------------
                                X             Y             Z
Electronic contribution:      0.18760     -19.91128       3.84551
Nuclear contribution   :     -0.19866      20.40015      -3.86662
                        -----------------------------------------
Total Dipole Moment    :     -0.01106       0.48887      -0.02111
                        -----------------------------------------
Magnitude (a.u.)       :      0.48945
Magnitude (Debye)      :      1.24409

Rotational constants in cm-1:     0.019092     0.007475     0.006349
Rotational constants in MHz :   572.370296   224.107216   190.348481

                             ****ORCA TERMINATED NORMALLY****
TOTAL RUN TIME: 0 days 0 hours 0 minutes 33 seconds 316 msec
