                         Program Version 4.2.1 -  RELEASE  -
|  1> ! wB97X-D3 SP def2-SVP
|  2> %pal
|  3> nprocs 16
|  4> end
|  5>
|  6> * xyz 0 1
|  7> S 	 -30.5742 	 62.7692 	 116.067
|  8> C 	 -29.0239 	 62.021 	 115.456
|  9> C 	 -29.2423 	 60.7583 	 114.992
| 10> C 	 -30.6407 	 60.4131 	 114.887
| 11> C 	 -31.4474 	 61.4726 	 115.359
| 12> H 	 -31.2058 	 59.534 	 114.625
| 13> C 	 -28.0808 	 59.8857 	 114.649
| 14> H 	 -27.3012 	 60.4649 	 114.182
| 15> H 	 -28.4617 	 59.1575 	 113.918
| 16> C 	 -27.5231 	 59.0756 	 115.934
| 17> H 	 -27.0969 	 59.8126 	 116.555
| 18> H 	 -28.402 	 58.5305 	 116.417
| 19> C 	 -26.4426 	 58.1433 	 115.5
| 20> H 	 -25.9682 	 58.5644 	 114.561
| 21> H 	 -25.7745 	 58.1209 	 116.295
| 22> H 	 -26.6559 	 57.0539 	 115.272
| 23> S 	 -33.5137 	 61.5693 	 117.09
| 24> C 	 -35.1231 	 61.8173 	 116.448
| 25> C 	 -35.1648 	 61.6883 	 115.106
| 26> C 	 -33.9211 	 61.4532 	 114.473
| 27> C 	 -32.8811 	 61.4423 	 115.467
| 28> H 	 -36.1365 	 61.862 	 114.599
| 29> C 	 -33.7897 	 61.2401 	 112.938
| 30> H 	 -32.7185 	 60.9517 	 112.692
| 31> H 	 -33.805 	 62.2357 	 112.467
| 32> C 	 -34.7897 	 60.231 	 112.248
| 33> H 	 -35.7885 	 60.5422 	 112.185
| 34> H 	 -34.7711 	 59.3122 	 112.797
| 35> C 	 -34.3835 	 59.9465 	 110.798
| 36> H 	 -34.4218 	 60.8204 	 110.162
| 37> H 	 -35.1849 	 59.2368 	 110.438
| 38> H 	 -33.39 	 59.4749 	 110.761
| 39> H 	 -28.0711 	 62.3525 	 115.754
| 40> H 	 -36.0461 	 61.9683 	 117.012
| 41> *
| 42>
| 43>                          ****END OF INPUT****

CARTESIAN COORDINATES (ANGSTROEM)
---------------------------------
  S    -30.574200   62.769200  116.067000
  C    -29.023900   62.021000  115.456000
  C    -29.242300   60.758300  114.992000
  C    -30.640700   60.413100  114.887000
  C    -31.447400   61.472600  115.359000
  H    -31.205800   59.534000  114.625000
  C    -28.080800   59.885700  114.649000
  H    -27.301200   60.464900  114.182000
  H    -28.461700   59.157500  113.918000
  C    -27.523100   59.075600  115.934000
  H    -27.096900   59.812600  116.555000
  H    -28.402000   58.530500  116.417000
  C    -26.442600   58.143300  115.500000
  H    -25.968200   58.564400  114.561000
  H    -25.774500   58.120900  116.295000
  H    -26.655900   57.053900  115.272000
  S    -33.513700   61.569300  117.090000
  C    -35.123100   61.817300  116.448000
  C    -35.164800   61.688300  115.106000
  C    -33.921100   61.453200  114.473000
  C    -32.881100   61.442300  115.467000
  H    -36.136500   61.862000  114.599000
  C    -33.789700   61.240100  112.938000
  H    -32.718500   60.951700  112.692000
  H    -33.805000   62.235700  112.467000
  C    -34.789700   60.231000  112.248000
  H    -35.788500   60.542200  112.185000
  H    -34.771100   59.312200  112.797000
  C    -34.383500   59.946500  110.798000
  H    -34.421800   60.820400  110.162000
  H    -35.184900   59.236800  110.438000
  H    -33.390000   59.474900  110.761000
  H    -28.071100   62.352500  115.754000
  H    -36.046100   61.968300  117.012000

 Total Charge           Charge          ....    0
 Multiplicity           Mult            ....    1
 Number of Electrons    NEL             ....  134
 Basis Dimension        Dim             ....  322

ORBITAL ENERGIES
----------------

  NO   OCC          E(Eh)            E(eV)
   0   2.0000     -88.966547     -2420.9028
   1   2.0000     -88.964319     -2420.8422
   2   2.0000     -10.326141      -280.9886
   3   2.0000     -10.325673      -280.9758
   4   2.0000     -10.311361      -280.5864
   5   2.0000     -10.309846      -280.5452
   6   2.0000     -10.308023      -280.4956
   7   2.0000     -10.301732      -280.3244
   8   2.0000     -10.300947      -280.3030
   9   2.0000     -10.295704      -280.1603
  10   2.0000     -10.291820      -280.0546
  11   2.0000     -10.291576      -280.0480
  12   2.0000     -10.289228      -279.9841
  13   2.0000     -10.285624      -279.8861
  14   2.0000     -10.282574      -279.8031
  15   2.0000     -10.278001      -279.6786
  16   2.0000      -8.081250      -219.9020
  17   2.0000      -8.078588      -219.8296
  18   2.0000      -6.039705      -164.3487
  19   2.0000      -6.037098      -164.2778
  20   2.0000      -6.035796      -164.2424
  21   2.0000      -6.033279      -164.1739
  22   2.0000      -6.032036      -164.1401
  23   2.0000      -6.029236      -164.0639
  24   2.0000      -1.004596       -27.3365
  25   2.0000      -0.978822       -26.6351
  26   2.0000      -0.911972       -24.8160
  27   2.0000      -0.901689       -24.5362
  28   2.0000      -0.872850       -23.7515
  29   2.0000      -0.850170       -23.1343
  30   2.0000      -0.844602       -22.9828
  31   2.0000      -0.813070       -22.1248
  32   2.0000      -0.779087       -21.2000
  33   2.0000      -0.764779       -20.8107
  34   2.0000      -0.705612       -19.2007
  35   2.0000      -0.698644       -19.0111
  36   2.0000      -0.697845       -18.9893
  37   2.0000      -0.649842       -17.6831
  38   2.0000      -0.641611       -17.4591
  39   2.0000      -0.610810       -16.6210
  40   2.0000      -0.592140       -16.1130
  41   2.0000      -0.568665       -15.4742
  42   2.0000      -0.567405       -15.4399
  43   2.0000      -0.558779       -15.2051
  44   2.0000      -0.524947       -14.2845
  45   2.0000      -0.523447       -14.2437
  46   2.0000      -0.518812       -14.1176
  47   2.0000      -0.509627       -13.8677
  48   2.0000      -0.501354       -13.6425
  49   2.0000      -0.499033       -13.5794
  50   2.0000      -0.489097       -13.3090
  51   2.0000      -0.475945       -12.9511
  52   2.0000      -0.467292       -12.7157
  53   2.0000      -0.462179       -12.5765
  54   2.0000      -0.457611       -12.4522
  55   2.0000      -0.448552       -12.2057
  56   2.0000      -0.447000       -12.1635
  57   2.0000      -0.435936       -11.8624
  58   2.0000      -0.428336       -11.6556
  59   2.0000      -0.425872       -11.5886
  60   2.0000      -0.423601       -11.5268
  61   2.0000      -0.421929       -11.4813
  62   2.0000      -0.414750       -11.2859
  63   2.0000      -0.339060        -9.2263
  64   2.0000      -0.331231        -9.0133
  65   2.0000      -0.325211        -8.8495
  66   2.0000      -0.290825        -7.9137
  67   0.0000       0.030939         0.8419
  68   0.0000       0.063814         1.7365
  69   0.0000       0.108660         2.9568
  70   0.0000       0.122318         3.3284
  71   0.0000       0.129429         3.5219

MULLIKEN ATOMIC CHARGES
-----------------------
   0 S :    0.102480
   1 C :   -0.098116
   2 C :   -0.070809
   3 C :    0.046137
   4 C :   -0.165519
   5 H :    0.012489
   6 C :    0.027815
   7 H :    0.031656
   8 H :    0.026095
   9 C :   -0.069811
  10 H :    0.020686
  11 H :    0.052015
  12 C :   -0.039782
  13 H :    0.033801
  14 H :    0.019269
  15 H :    0.044987
  16 S :    0.116076
  17 C :   -0.091146
  18 C :   -0.056838
  19 C :    0.005116
  20 C :   -0.210205
  21 H :    0.029106
  22 C :    0.042352
  23 H :    0.024047
  24 H :    0.037331
  25 C :   -0.047178
  26 H :    0.021416
  27 H :    0.031305
  28 C :   -0.074379
  29 H :    0.035018
  30 H :    0.040431
  31 H :    0.040377
  32 H :    0.028610
  33 H :    0.055167
Sum of atomic charges:   -0.0000000

LOEWDIN ATOMIC CHARGES
----------------------
   0 S :    0.390349
   1 C :   -0.176468
   2 C :   -0.056325
   3 C :   -0.067153
   4 C :   -0.201417
   5 H :    0.032922
   6 C :   -0.032652
   7 H :    0.027862
   8 H :    0.029855
   9 C :   -0.031112
  10 H :    0.017251
  11 H :    0.036949
  12 C :   -0.073751
  13 H :    0.032219
  14 H :    0.017321
  15 H :    0.033025
  16 S :    0.410042
  17 C :   -0.192136
  18 C :   -0.080036
  19 C :   -0.051418
  20 C :   -0.208670
  21 H :    0.038251
  22 C :   -0.039473
  23 H :    0.035091
  24 H :    0.035010
  25 C :   -0.033794
  26 H :    0.016538
  27 H :    0.024594
  28 C :   -0.063497
  29 H :    0.022130
  30 H :    0.034204
  31 H :    0.025575
  32 H :    0.015259
  33 H :    0.033453

  Mayer bond orders larger than 0.100000
B(  0-S ,  1-C ) :   1.1011 B(  0-S ,  4-C ) :   1.1695 B(  1-C ,  2-C ) :   1.6428
B(  1-C , 32-H ) :   0.9720 B(  2-C ,  3-C ) :   1.1970 B(  2-C ,  6-C ) :   1.0320
B(  3-C ,  4-C ) :   1.5672 B(  3-C ,  5-H ) :   0.9972 B(  4-C , 20-C ) :   1.0443
B(  6-C ,  7-H ) :   0.9396 B(  6-C ,  8-H ) :   0.9429 B(  6-C ,  9-C ) :   1.0594
B(  9-C , 10-H ) :   0.9601 B(  9-C , 11-H ) :   0.9564 B(  9-C , 12-C ) :   1.0762
B( 12-C , 13-H ) :   0.9704 B( 12-C , 14-H ) :   0.9737 B( 12-C , 15-H ) :   0.9748
B( 16-S , 17-C ) :   1.1364 B( 16-S , 20-C ) :   1.1648 B( 17-C , 18-C ) :   1.6368
B( 17-C , 20-C ) :   0.1005 B( 17-C , 33-H ) :   0.9619 B( 18-C , 19-C ) :   1.2506
B( 18-C , 21-H ) :   0.9807 B( 19-C , 20-C ) :   1.5570 B( 19-C , 22-C ) :   1.0384
B( 22-C , 23-H ) :   0.9402 B( 22-C , 24-H ) :   0.9311 B( 22-C , 25-C ) :   1.0483
B( 25-C , 26-H ) :   0.9528 B( 25-C , 27-H ) :   0.9592 B( 25-C , 28-C ) :   1.0915
B( 28-C , 29-H ) :   0.9759 B( 28-C , 30-H ) :   0.9751 B( 28-C , 31-H ) :   0.9761

Dispersion correction           -0.013328138
FINAL SINGLE POINT ENERGY     -1339.860932302884

DIPOLE MOMENT
-------------
                                X             Y             Z
Electronic contribution:     -8.60222      16.80077      18.72097
Nuclear contribution   :      8.59775     -17.21690     -19.06241
                        -----------------------------------------
Total Dipole Moment    :     -0.00447      -0.41613      -0.34144
                        -----------------------------------------
Magnitude (a.u.)       :      0.53830
Magnitude (Debye)      :      1.36825

Rotational constants in cm-1:     0.018016     0.007633     0.006066
Rotational constants in MHz :   540.105165   228.827559   181.849993

                             ****ORCA TERMINATED NORMALLY****
TOTAL RUN TIME: 0 days 0 hours 0 minutes 28 seconds 695 msec
