                         Program Version 4.2.1 -  RELEASE  -
|  1> ! wB97X-D3 SP def2-SVP
|  2> %pal
|  3> nprocs 16
|  4> end
|  5>
|  6> * xyz 0 1
|  7> S 	 -33.4258 	 52.2764 	 103.119
|  8> C 	 -34.0807 	 51.7569 	 101.611
|  9> C 	 -34.7224 	 52.7086 	 100.901
| 10> C 	 -34.5774 	 53.9645 	 101.563
| 11> C 	 -33.8798 	 53.9614 	 102.761
| 12> H 	 -35.0091 	 54.9224 	 101.219
| 13> C 	 -35.6083 	 52.481 	 99.6532
| 14> H 	 -36.4192 	 53.1542 	 99.703
| 15> H 	 -36.027 	 51.5089 	 99.7235
| 16> C 	 -34.9194 	 52.6036 	 98.2754
| 17> H 	 -34.2314 	 53.4109 	 98.3422
| 18> H 	 -34.3722 	 51.7096 	 98.1141
| 19> C 	 -35.969 	 52.8217 	 97.2144
| 20> H 	 -35.4011 	 53.1071 	 96.3123
| 21> H 	 -36.3424 	 51.8615 	 96.9714
| 22> H 	 -36.7384 	 53.4626 	 97.4394
| 23> S 	 -32.3623 	 54.6926 	 105.001
| 24> C 	 -32.4431 	 56.3354 	 105.557
| 25> C 	 -33.406 	 57.0659 	 104.979
| 26> C 	 -33.968 	 56.4039 	 103.794
| 27> C 	 -33.6133 	 55.0622 	 103.709
| 28> H 	 -33.7375 	 57.983 	 105.388
| 29> C 	 -35.1163 	 57.0344 	 103.022
| 30> H 	 -36.0414 	 56.3619 	 103.172
| 31> H 	 -34.9456 	 56.9001 	 101.988
| 32> C 	 -35.558 	 58.4975 	 103.192
| 33> H 	 -34.7921 	 59.1941 	 102.913
| 34> H 	 -35.8176 	 58.7287 	 104.278
| 35> C 	 -36.8321 	 58.8639 	 102.314
| 36> H 	 -37.6433 	 58.1369 	 102.638
| 37> H 	 -36.6069 	 58.6473 	 101.286
| 38> H 	 -37.1443 	 59.9529 	 102.416
| 39> H 	 -34.1807 	 50.7857 	 101.295
| 40> H 	 -31.9556 	 56.6479 	 106.451
| 41> *
| 42>
| 43>                          ****END OF INPUT****

CARTESIAN COORDINATES (ANGSTROEM)
---------------------------------
  S    -33.425800   52.276400  103.119000
  C    -34.080700   51.756900  101.611000
  C    -34.722400   52.708600  100.901000
  C    -34.577400   53.964500  101.563000
  C    -33.879800   53.961400  102.761000
  H    -35.009100   54.922400  101.219000
  C    -35.608300   52.481000   99.653200
  H    -36.419200   53.154200   99.703000
  H    -36.027000   51.508900   99.723500
  C    -34.919400   52.603600   98.275400
  H    -34.231400   53.410900   98.342200
  H    -34.372200   51.709600   98.114100
  C    -35.969000   52.821700   97.214400
  H    -35.401100   53.107100   96.312300
  H    -36.342400   51.861500   96.971400
  H    -36.738400   53.462600   97.439400
  S    -32.362300   54.692600  105.001000
  C    -32.443100   56.335400  105.557000
  C    -33.406000   57.065900  104.979000
  C    -33.968000   56.403900  103.794000
  C    -33.613300   55.062200  103.709000
  H    -33.737500   57.983000  105.388000
  C    -35.116300   57.034400  103.022000
  H    -36.041400   56.361900  103.172000
  H    -34.945600   56.900100  101.988000
  C    -35.558000   58.497500  103.192000
  H    -34.792100   59.194100  102.913000
  H    -35.817600   58.728700  104.278000
  C    -36.832100   58.863900  102.314000
  H    -37.643300   58.136900  102.638000
  H    -36.606900   58.647300  101.286000
  H    -37.144300   59.952900  102.416000
  H    -34.180700   50.785700  101.295000
  H    -31.955600   56.647900  106.451000

 Total Charge           Charge          ....    0
 Multiplicity           Mult            ....    1
 Number of Electrons    NEL             ....  134
 Basis Dimension        Dim             ....  322

ORBITAL ENERGIES
----------------

  NO   OCC          E(Eh)            E(eV)
   0   2.0000     -88.966628     -2420.9050
   1   2.0000     -88.962137     -2420.7828
   2   2.0000     -10.337486      -281.2973
   3   2.0000     -10.335191      -281.2349
   4   2.0000     -10.312484      -280.6170
   5   2.0000     -10.311510      -280.5905
   6   2.0000     -10.303329      -280.3678
   7   2.0000     -10.299712      -280.2694
   8   2.0000     -10.298330      -280.2318
   9   2.0000     -10.297278      -280.2032
  10   2.0000     -10.295608      -280.1577
  11   2.0000     -10.294305      -280.1223
  12   2.0000     -10.291475      -280.0453
  13   2.0000     -10.287736      -279.9435
  14   2.0000     -10.278644      -279.6961
  15   2.0000     -10.269874      -279.4575
  16   2.0000      -8.081286      -219.9030
  17   2.0000      -8.076355      -219.7688
  18   2.0000      -6.039924      -164.3547
  19   2.0000      -6.035944      -164.2464
  20   2.0000      -6.035096      -164.2233
  21   2.0000      -6.031791      -164.1334
  22   2.0000      -6.031156      -164.1161
  23   2.0000      -6.026688      -163.9945
  24   2.0000      -1.003599       -27.3093
  25   2.0000      -0.983042       -26.7499
  26   2.0000      -0.916179       -24.9305
  27   2.0000      -0.905854       -24.6495
  28   2.0000      -0.874079       -23.7849
  29   2.0000      -0.853227       -23.2175
  30   2.0000      -0.841825       -22.9072
  31   2.0000      -0.818373       -22.2691
  32   2.0000      -0.784920       -21.3588
  33   2.0000      -0.773823       -21.0568
  34   2.0000      -0.709886       -19.3170
  35   2.0000      -0.706294       -19.2192
  36   2.0000      -0.700621       -19.0649
  37   2.0000      -0.656693       -17.8695
  38   2.0000      -0.640832       -17.4379
  39   2.0000      -0.621109       -16.9012
  40   2.0000      -0.601366       -16.3640
  41   2.0000      -0.576791       -15.6953
  42   2.0000      -0.568834       -15.4787
  43   2.0000      -0.566502       -15.4153
  44   2.0000      -0.528342       -14.3769
  45   2.0000      -0.525978       -14.3126
  46   2.0000      -0.522315       -14.2129
  47   2.0000      -0.509800       -13.8724
  48   2.0000      -0.500417       -13.6170
  49   2.0000      -0.497539       -13.5387
  50   2.0000      -0.489099       -13.3091
  51   2.0000      -0.482066       -13.1177
  52   2.0000      -0.472503       -12.8575
  53   2.0000      -0.464335       -12.6352
  54   2.0000      -0.460013       -12.5176
  55   2.0000      -0.458324       -12.4716
  56   2.0000      -0.451229       -12.2786
  57   2.0000      -0.442475       -12.0403
  58   2.0000      -0.428653       -11.6642
  59   2.0000      -0.426073       -11.5940
  60   2.0000      -0.424108       -11.5406
  61   2.0000      -0.420185       -11.4338
  62   2.0000      -0.413627       -11.2554
  63   2.0000      -0.365357        -9.9419
  64   2.0000      -0.334178        -9.0934
  65   2.0000      -0.325812        -8.8658
  66   2.0000      -0.283346        -7.7102
  67   0.0000       0.020532         0.5587
  68   0.0000       0.078619         2.1393
  69   0.0000       0.097021         2.6401
  70   0.0000       0.121151         3.2967
  71   0.0000       0.133279         3.6267

MULLIKEN ATOMIC CHARGES
-----------------------
   0 S :    0.102232
   1 C :   -0.062323
   2 C :   -0.090883
   3 C :   -0.028413
   4 C :   -0.098761
   5 H :    0.000372
   6 C :    0.084632
   7 H :    0.006790
   8 H :    0.009568
   9 C :   -0.049221
  10 H :    0.021857
  11 H :    0.020364
  12 C :    0.002168
  13 H :    0.032009
  14 H :    0.014364
  15 H :    0.021397
  16 S :    0.068430
  17 C :   -0.047193
  18 C :   -0.022091
  19 C :   -0.032978
  20 C :   -0.110941
  21 H :    0.009597
  22 C :   -0.028224
  23 H :    0.052302
  24 H :    0.031442
  25 C :   -0.080111
  26 H :    0.033653
  27 H :    0.040751
  28 C :   -0.082604
  29 H :    0.043267
  30 H :    0.030400
  31 H :    0.058810
  32 H :    0.003067
  33 H :    0.046269
Sum of atomic charges:    0.0000000

LOEWDIN ATOMIC CHARGES
----------------------
   0 S :    0.396928
   1 C :   -0.185032
   2 C :   -0.063400
   3 C :   -0.070268
   4 C :   -0.180471
   5 H :    0.028720
   6 C :   -0.017897
   7 H :    0.021727
   8 H :    0.024466
   9 C :   -0.028495
  10 H :    0.017170
  11 H :    0.021311
  12 C :   -0.051982
  13 H :    0.033940
  14 H :    0.023023
  15 H :    0.012782
  16 S :    0.361308
  17 C :   -0.173101
  18 C :   -0.066059
  19 C :   -0.050591
  20 C :   -0.161325
  21 H :    0.026769
  22 C :   -0.045490
  23 H :    0.045226
  24 H :    0.022679
  25 C :   -0.044631
  26 H :    0.020082
  27 H :    0.026914
  28 C :   -0.068268
  29 H :    0.031672
  30 H :    0.018348
  31 H :    0.037425
  32 H :    0.011675
  33 H :    0.024843

  Mayer bond orders larger than 0.100000
B(  0-S ,  1-C ) :   1.1381 B(  0-S ,  4-C ) :   1.1258 B(  1-C ,  2-C ) :   1.6498
B(  1-C , 32-H ) :   0.9626 B(  2-C ,  3-C ) :   1.2394 B(  2-C ,  6-C ) :   1.0123
B(  3-C ,  4-C ) :   1.5914 B(  3-C ,  5-H ) :   0.9841 B(  4-C , 20-C ) :   1.0775
B(  6-C ,  7-H ) :   0.9462 B(  6-C ,  8-H ) :   0.9378 B(  6-C ,  9-C ) :   1.0591
B(  9-C , 10-H ) :   0.9633 B(  9-C , 11-H ) :   0.9535 B(  9-C , 12-C ) :   1.0853
B( 12-C , 13-H ) :   0.9711 B( 12-C , 14-H ) :   0.9724 B( 12-C , 15-H ) :   0.9791
B( 16-S , 17-C ) :   1.1413 B( 16-S , 20-C ) :   1.0982 B( 17-C , 18-C ) :   1.6666
B( 17-C , 33-H ) :   0.9591 B( 18-C , 19-C ) :   1.1900 B( 18-C , 21-H ) :   0.9896
B( 19-C , 20-C ) :   1.6424 B( 19-C , 22-C ) :   1.0340 B( 22-C , 23-H ) :   0.9421
B( 22-C , 24-H ) :   0.9227 B( 22-C , 25-C ) :   1.0694 B( 25-C , 26-H ) :   0.9544
B( 25-C , 27-H ) :   0.9499 B( 25-C , 28-C ) :   1.0709 B( 28-C , 29-H ) :   0.9769
B( 28-C , 30-H ) :   0.9771 B( 28-C , 31-H ) :   0.9739

Dispersion correction           -0.012933690
FINAL SINGLE POINT ENERGY     -1339.863329362117

DIPOLE MOMENT
-------------
                                X             Y             Z
Electronic contribution:     19.31070     -12.24993      23.22261
Nuclear contribution   :    -19.92623      12.60940     -23.66857
                        -----------------------------------------
Total Dipole Moment    :     -0.61553       0.35947      -0.44596
                        -----------------------------------------
Magnitude (a.u.)       :      0.84082
Magnitude (Debye)      :      2.13720

Rotational constants in cm-1:     0.016214     0.008359     0.005705
Rotational constants in MHz :   486.070073   250.582215   171.038625

                             ****ORCA TERMINATED NORMALLY****
TOTAL RUN TIME: 0 days 0 hours 0 minutes 28 seconds 225 msec
