                         Program Version 4.2.1 -  RELEASE  -
|  1> ! wB97X-D3 SP def2-SVP
|  2> %pal
|  3> nprocs 16
|  4> end
|  5>
|  6> * xyz 0 1
|  7> S 	 48.0014 	 21.8443 	 87.8463
|  8> C 	 47.1931 	 23.0149 	 88.7645
|  9> C 	 47.8487 	 23.4301 	 89.863
| 10> C 	 48.9078 	 22.5497 	 90.1673
| 11> C 	 49.1423 	 21.61 	 89.1637
| 12> H 	 49.5911 	 22.6851 	 90.9595
| 13> C 	 47.4579 	 24.5952 	 90.7718
| 14> H 	 46.8461 	 24.3367 	 91.6099
| 15> H 	 47.0089 	 25.3067 	 90.1116
| 16> C 	 48.4581 	 25.1706 	 91.736
| 17> H 	 48.0293 	 25.9636 	 92.3362
| 18> H 	 48.8237 	 24.4047 	 92.4318
| 19> C 	 49.6596 	 25.8483 	 91.1129
| 20> H 	 50.3285 	 26.3242 	 91.8918
| 21> H 	 50.1995 	 25.169 	 90.5629
| 22> H 	 49.3953 	 26.6381 	 90.3741
| 23> S 	 49.8673 	 18.9384 	 89.0538
| 24> C 	 51.5261 	 18.5234 	 89.0814
| 25> C 	 52.3205 	 19.6354 	 89.3021
| 26> C 	 51.5963 	 20.8691 	 89.3801
| 27> C 	 50.2164 	 20.6367 	 89.1888
| 28> H 	 53.3568 	 19.4749 	 89.2507
| 29> C 	 52.3271 	 22.2145 	 89.4246
| 30> H 	 53.3607 	 22.0389 	 89.6808
| 31> H 	 51.936 	 22.7174 	 90.2315
| 32> C 	 52.3495 	 23.0408 	 88.1368
| 33> H 	 51.5004 	 23.1279 	 87.5457
| 34> H 	 52.9686 	 22.5088 	 87.4456
| 35> C 	 52.9306 	 24.4643 	 88.3127
| 36> H 	 53.9451 	 24.5367 	 88.6583
| 37> H 	 52.3711 	 25.0987 	 89.1044
| 38> H 	 52.9213 	 25.0412 	 87.4247
| 39> H 	 46.2081 	 23.4012 	 88.4357
| 40> H 	 51.876 	 17.5527 	 88.8597
| 41> *
| 42>
| 43>                          ****END OF INPUT****

CARTESIAN COORDINATES (ANGSTROEM)
---------------------------------
  S     48.001400   21.844300   87.846300
  C     47.193100   23.014900   88.764500
  C     47.848700   23.430100   89.863000
  C     48.907800   22.549700   90.167300
  C     49.142300   21.610000   89.163700
  H     49.591100   22.685100   90.959500
  C     47.457900   24.595200   90.771800
  H     46.846100   24.336700   91.609900
  H     47.008900   25.306700   90.111600
  C     48.458100   25.170600   91.736000
  H     48.029300   25.963600   92.336200
  H     48.823700   24.404700   92.431800
  C     49.659600   25.848300   91.112900
  H     50.328500   26.324200   91.891800
  H     50.199500   25.169000   90.562900
  H     49.395300   26.638100   90.374100
  S     49.867300   18.938400   89.053800
  C     51.526100   18.523400   89.081400
  C     52.320500   19.635400   89.302100
  C     51.596300   20.869100   89.380100
  C     50.216400   20.636700   89.188800
  H     53.356800   19.474900   89.250700
  C     52.327100   22.214500   89.424600
  H     53.360700   22.038900   89.680800
  H     51.936000   22.717400   90.231500
  C     52.349500   23.040800   88.136800
  H     51.500400   23.127900   87.545700
  H     52.968600   22.508800   87.445600
  C     52.930600   24.464300   88.312700
  H     53.945100   24.536700   88.658300
  H     52.371100   25.098700   89.104400
  H     52.921300   25.041200   87.424700
  H     46.208100   23.401200   88.435700
  H     51.876000   17.552700   88.859700

 Total Charge           Charge          ....    0
 Multiplicity           Mult            ....    1
 Number of Electrons    NEL             ....  134
 Basis Dimension        Dim             ....  322

ORBITAL ENERGIES
----------------

  NO   OCC          E(Eh)            E(eV)
   0   2.0000     -88.967027     -2420.9159
   1   2.0000     -88.964622     -2420.8504
   2   2.0000     -10.325819      -280.9798
   3   2.0000     -10.323810      -280.9252
   4   2.0000     -10.309841      -280.5450
   5   2.0000     -10.307535      -280.4823
   6   2.0000     -10.305875      -280.4371
   7   2.0000     -10.294760      -280.1347
   8   2.0000     -10.288636      -279.9680
   9   2.0000     -10.288291      -279.9586
  10   2.0000     -10.286674      -279.9146
  11   2.0000     -10.286544      -279.9111
  12   2.0000     -10.286378      -279.9066
  13   2.0000     -10.278420      -279.6900
  14   2.0000     -10.277466      -279.6641
  15   2.0000     -10.270651      -279.4786
  16   2.0000      -8.082674      -219.9408
  17   2.0000      -8.080243      -219.8746
  18   2.0000      -6.040956      -164.3828
  19   2.0000      -6.038549      -164.3173
  20   2.0000      -6.037153      -164.2793
  21   2.0000      -6.034504      -164.2072
  22   2.0000      -6.033527      -164.1806
  23   2.0000      -6.031297      -164.1199
  24   2.0000      -1.011082       -27.5129
  25   2.0000      -0.990237       -26.9457
  26   2.0000      -0.920380       -25.0448
  27   2.0000      -0.908393       -24.7186
  28   2.0000      -0.871808       -23.7231
  29   2.0000      -0.853311       -23.2198
  30   2.0000      -0.848267       -23.0825
  31   2.0000      -0.814345       -22.1595
  32   2.0000      -0.789772       -21.4908
  33   2.0000      -0.776300       -21.1242
  34   2.0000      -0.714770       -19.4499
  35   2.0000      -0.703649       -19.1473
  36   2.0000      -0.690235       -18.7822
  37   2.0000      -0.662973       -18.0404
  38   2.0000      -0.642018       -17.4702
  39   2.0000      -0.625588       -17.0231
  40   2.0000      -0.598181       -16.2773
  41   2.0000      -0.569023       -15.4839
  42   2.0000      -0.564674       -15.3656
  43   2.0000      -0.560581       -15.2542
  44   2.0000      -0.543847       -14.7988
  45   2.0000      -0.525115       -14.2891
  46   2.0000      -0.519796       -14.1444
  47   2.0000      -0.512642       -13.9497
  48   2.0000      -0.502016       -13.6606
  49   2.0000      -0.500538       -13.6203
  50   2.0000      -0.490509       -13.3474
  51   2.0000      -0.488537       -13.2938
  52   2.0000      -0.469065       -12.7639
  53   2.0000      -0.467634       -12.7250
  54   2.0000      -0.459056       -12.4915
  55   2.0000      -0.447995       -12.1906
  56   2.0000      -0.446776       -12.1574
  57   2.0000      -0.437405       -11.9024
  58   2.0000      -0.436412       -11.8754
  59   2.0000      -0.426951       -11.6179
  60   2.0000      -0.423020       -11.5110
  61   2.0000      -0.416082       -11.3222
  62   2.0000      -0.407949       -11.1009
  63   2.0000      -0.340719        -9.2714
  64   2.0000      -0.331133        -9.0106
  65   2.0000      -0.328845        -8.9483
  66   2.0000      -0.293767        -7.9938
  67   0.0000       0.029330         0.7981
  68   0.0000       0.075569         2.0563
  69   0.0000       0.112949         3.0735
  70   0.0000       0.123658         3.3649
  71   0.0000       0.134348         3.6558

MULLIKEN ATOMIC CHARGES
-----------------------
   0 S :    0.132998
   1 C :   -0.156415
   2 C :   -0.065851
   3 C :    0.046344
   4 C :   -0.164345
   5 H :   -0.005062
   6 C :    0.124481
   7 H :    0.039059
   8 H :    0.020290
   9 C :   -0.125652
  10 H :    0.031231
  11 H :    0.034792
  12 C :   -0.037449
  13 H :    0.037501
  14 H :    0.003088
  15 H :    0.025355
  16 S :    0.125366
  17 C :   -0.089075
  18 C :   -0.026931
  19 C :   -0.033719
  20 C :   -0.188266
  21 H :    0.001154
  22 C :    0.151364
  23 H :    0.008326
  24 H :   -0.007965
  25 C :   -0.010490
  26 H :    0.015264
  27 H :    0.009997
  28 C :   -0.069709
  29 H :    0.019203
  30 H :    0.034249
  31 H :    0.025754
  32 H :    0.052746
  33 H :    0.042367
Sum of atomic charges:    0.0000000

LOEWDIN ATOMIC CHARGES
----------------------
   0 S :    0.426647
   1 C :   -0.211350
   2 C :   -0.069374
   3 C :   -0.050033
   4 C :   -0.196802
   5 H :    0.021550
   6 C :   -0.030636
   7 H :    0.042110
   8 H :    0.027691
   9 C :   -0.043287
  10 H :    0.029173
  11 H :    0.026420
  12 C :   -0.069727
  13 H :    0.031055
  14 H :    0.004700
  15 H :    0.027755
  16 S :    0.433093
  17 C :   -0.192501
  18 C :   -0.069209
  19 C :   -0.045727
  20 C :   -0.212406
  21 H :    0.023129
  22 C :   -0.017830
  23 H :    0.032455
  24 H :    0.015206
  25 C :   -0.031049
  26 H :    0.018188
  27 H :    0.024393
  28 C :   -0.068570
  29 H :    0.018760
  30 H :    0.032090
  31 H :    0.021505
  32 H :    0.032018
  33 H :    0.020562

  Mayer bond orders larger than 0.100000
B(  0-S ,  1-C ) :   1.1606 B(  0-S ,  4-C ) :   1.1522 B(  1-C ,  2-C ) :   1.6078
B(  1-C , 32-H ) :   0.9625 B(  2-C ,  3-C ) :   1.2597 B(  2-C ,  6-C ) :   1.0114
B(  3-C ,  4-C ) :   1.5619 B(  3-C ,  5-H ) :   0.9926 B(  4-C , 20-C ) :   1.0556
B(  6-C ,  7-H ) :   0.9331 B(  6-C ,  8-H ) :   0.9410 B(  6-C ,  9-C ) :   1.0628
B(  9-C , 10-H ) :   0.9549 B(  9-C , 11-H ) :   0.9457 B(  9-C , 12-C ) :   1.0856
B( 12-C , 13-H ) :   0.9735 B( 12-C , 14-H ) :   0.9731 B( 12-C , 15-H ) :   0.9695
B( 16-S , 17-C ) :   1.1741 B( 16-S , 20-C ) :   1.1667 B( 17-C , 18-C ) :   1.5837
B( 17-C , 20-C ) :   0.1010 B( 17-C , 33-H ) :   0.9733 B( 18-C , 19-C ) :   1.2602
B( 18-C , 21-H ) :   0.9987 B( 19-C , 20-C ) :   1.5506 B( 19-C , 22-C ) :   1.0412
B( 22-C , 23-H ) :   0.9286 B( 22-C , 24-H ) :   0.9240 B( 22-C , 25-C ) :   1.0548
B( 25-C , 26-H ) :   0.9597 B( 25-C , 27-H ) :   0.9472 B( 25-C , 28-C ) :   1.0808
B( 28-C , 29-H ) :   0.9741 B( 28-C , 30-H ) :   0.9748 B( 28-C , 31-H ) :   0.9735

Dispersion correction           -0.015575154
FINAL SINGLE POINT ENERGY     -1339.861015373762

DIPOLE MOMENT
-------------
                                X             Y             Z
Electronic contribution:    -12.08869     -26.83875      -8.43266
Nuclear contribution   :     12.37713      27.28519       8.59906
                        -----------------------------------------
Total Dipole Moment    :      0.28844       0.44643       0.16640
                        -----------------------------------------
Magnitude (a.u.)       :      0.55694
Magnitude (Debye)      :      1.41564

Rotational constants in cm-1:     0.017519     0.010264     0.007827
Rotational constants in MHz :   525.208488   307.694066   234.639290

                             ****ORCA TERMINATED NORMALLY****
TOTAL RUN TIME: 0 days 0 hours 0 minutes 32 seconds 870 msec
