                         Program Version 4.2.1 -  RELEASE  -
|  1> ! wB97X-D3 SP def2-SVP
|  2> %pal
|  3> nprocs 16
|  4> end
|  5>
|  6> * xyz 0 1
|  7> S 	 -45.5017 	 55.8169 	 99.7843
|  8> C 	 -46.4199 	 54.3499 	 99.6526
|  9> C 	 -46.3182 	 53.6924 	 98.4456
| 10> C 	 -45.5755 	 54.4943 	 97.5642
| 11> C 	 -44.8942 	 55.5451 	 98.1567
| 12> H 	 -45.5326 	 54.3915 	 96.5046
| 13> C 	 -47.1644 	 52.5595 	 97.9748
| 14> H 	 -47.111 	 52.5803 	 96.9064
| 15> H 	 -48.2471 	 52.7573 	 98.0237
| 16> C 	 -46.6801 	 51.1391 	 98.3234
| 17> H 	 -47.3918 	 50.5197 	 97.9272
| 18> H 	 -45.6766 	 50.8138 	 97.9312
| 19> C 	 -46.6197 	 50.9744 	 99.865
| 20> H 	 -47.4787 	 51.3727 	 100.391
| 21> H 	 -46.5932 	 49.8949 	 100.26
| 22> H 	 -45.7744 	 51.489 	 100.278
| 23> S 	 -44.465 	 58.1769 	 97.5408
| 24> C 	 -43.0553 	 58.5935 	 96.4968
| 25> C 	 -42.2862 	 57.4787 	 96.2541
| 26> C 	 -42.7489 	 56.2969 	 96.9065
| 27> C 	 -44.0059 	 56.503 	 97.5233
| 28> H 	 -41.3644 	 57.5093 	 95.6956
| 29> C 	 -42.1212 	 54.9339 	 96.7306
| 30> H 	 -42.2453 	 54.6654 	 95.6951
| 31> H 	 -42.7187 	 54.2433 	 97.2864
| 32> C 	 -40.6618 	 54.8573 	 97.2163
| 33> H 	 -40.0723 	 55.6308 	 96.7685
| 34> H 	 -40.4511 	 53.9047 	 96.847
| 35> C 	 -40.5576 	 55.0115 	 98.6834
| 36> H 	 -39.5266 	 54.9784 	 99.0082
| 37> H 	 -41.1126 	 54.2691 	 99.2938
| 38> H 	 -40.9248 	 56.0332 	 98.9731
| 39> H 	 -47.0701 	 53.9905 	 100.407
| 40> H 	 -42.7242 	 59.6126 	 96.1048
| 41> *
| 42>
| 43>                          ****END OF INPUT****

CARTESIAN COORDINATES (ANGSTROEM)
---------------------------------
  S    -45.501700   55.816900   99.784300
  C    -46.419900   54.349900   99.652600
  C    -46.318200   53.692400   98.445600
  C    -45.575500   54.494300   97.564200
  C    -44.894200   55.545100   98.156700
  H    -45.532600   54.391500   96.504600
  C    -47.164400   52.559500   97.974800
  H    -47.111000   52.580300   96.906400
  H    -48.247100   52.757300   98.023700
  C    -46.680100   51.139100   98.323400
  H    -47.391800   50.519700   97.927200
  H    -45.676600   50.813800   97.931200
  C    -46.619700   50.974400   99.865000
  H    -47.478700   51.372700  100.391000
  H    -46.593200   49.894900  100.260000
  H    -45.774400   51.489000  100.278000
  S    -44.465000   58.176900   97.540800
  C    -43.055300   58.593500   96.496800
  C    -42.286200   57.478700   96.254100
  C    -42.748900   56.296900   96.906500
  C    -44.005900   56.503000   97.523300
  H    -41.364400   57.509300   95.695600
  C    -42.121200   54.933900   96.730600
  H    -42.245300   54.665400   95.695100
  H    -42.718700   54.243300   97.286400
  C    -40.661800   54.857300   97.216300
  H    -40.072300   55.630800   96.768500
  H    -40.451100   53.904700   96.847000
  C    -40.557600   55.011500   98.683400
  H    -39.526600   54.978400   99.008200
  H    -41.112600   54.269100   99.293800
  H    -40.924800   56.033200   98.973100
  H    -47.070100   53.990500  100.407000
  H    -42.724200   59.612600   96.104800

 Total Charge           Charge          ....    0
 Multiplicity           Mult            ....    1
 Number of Electrons    NEL             ....  134
 Basis Dimension        Dim             ....  322

ORBITAL ENERGIES
----------------

  NO   OCC          E(Eh)            E(eV)
   0   2.0000     -88.968107     -2420.9453
   1   2.0000     -88.966252     -2420.8948
   2   2.0000     -10.324957      -280.9564
   3   2.0000     -10.324594      -280.9465
   4   2.0000     -10.323389      -280.9137
   5   2.0000     -10.309705      -280.5413
   6   2.0000     -10.299657      -280.2679
   7   2.0000     -10.295359      -280.1510
   8   2.0000     -10.292513      -280.0735
   9   2.0000     -10.291661      -280.0503
  10   2.0000     -10.290189      -280.0103
  11   2.0000     -10.288803      -279.9726
  12   2.0000     -10.281391      -279.7709
  13   2.0000     -10.277224      -279.6575
  14   2.0000     -10.274966      -279.5960
  15   2.0000     -10.272447      -279.5275
  16   2.0000      -8.082951      -219.9483
  17   2.0000      -8.080233      -219.8743
  18   2.0000      -6.041258      -164.3910
  19   2.0000      -6.038854      -164.3256
  20   2.0000      -6.037567      -164.2905
  21   2.0000      -6.034861      -164.2169
  22   2.0000      -6.033808      -164.1883
  23   2.0000      -6.030901      -164.1092
  24   2.0000      -1.006612       -27.3913
  25   2.0000      -0.981841       -26.7173
  26   2.0000      -0.915744       -24.9187
  27   2.0000      -0.912938       -24.8423
  28   2.0000      -0.867059       -23.5939
  29   2.0000      -0.852237       -23.1906
  30   2.0000      -0.845280       -23.0012
  31   2.0000      -0.811114       -22.0715
  32   2.0000      -0.785700       -21.3800
  33   2.0000      -0.770865       -20.9763
  34   2.0000      -0.709276       -19.3004
  35   2.0000      -0.701285       -19.0829
  36   2.0000      -0.693222       -18.8635
  37   2.0000      -0.654438       -17.8082
  38   2.0000      -0.644652       -17.5419
  39   2.0000      -0.618191       -16.8218
  40   2.0000      -0.597931       -16.2705
  41   2.0000      -0.574453       -15.6317
  42   2.0000      -0.554596       -15.0913
  43   2.0000      -0.547300       -14.8928
  44   2.0000      -0.541862       -14.7448
  45   2.0000      -0.537062       -14.6142
  46   2.0000      -0.516924       -14.0662
  47   2.0000      -0.515220       -14.0198
  48   2.0000      -0.496096       -13.4995
  49   2.0000      -0.491521       -13.3750
  50   2.0000      -0.487952       -13.2778
  51   2.0000      -0.477394       -12.9906
  52   2.0000      -0.466097       -12.6831
  53   2.0000      -0.463319       -12.6076
  54   2.0000      -0.460812       -12.5393
  55   2.0000      -0.450643       -12.2626
  56   2.0000      -0.441908       -12.0249
  57   2.0000      -0.439593       -11.9619
  58   2.0000      -0.436227       -11.8703
  59   2.0000      -0.428419       -11.6579
  60   2.0000      -0.427436       -11.6311
  61   2.0000      -0.409553       -11.1445
  62   2.0000      -0.405431       -11.0323
  63   2.0000      -0.343128        -9.3370
  64   2.0000      -0.334470        -9.1014
  65   2.0000      -0.325146        -8.8477
  66   2.0000      -0.290484        -7.9045
  67   0.0000       0.029978         0.8157
  68   0.0000       0.066370         1.8060
  69   0.0000       0.103673         2.8211
  70   0.0000       0.124238         3.3807
  71   0.0000       0.130745         3.5577

MULLIKEN ATOMIC CHARGES
-----------------------
   0 S :    0.121752
   1 C :   -0.105641
   2 C :   -0.058461
   3 C :    0.036360
   4 C :   -0.175455
   5 H :    0.008170
   6 C :    0.029603
   7 H :    0.002254
   8 H :    0.045415
   9 C :   -0.005472
  10 H :    0.010790
  11 H :    0.042672
  12 C :   -0.094113
  13 H :    0.019524
  14 H :    0.038545
  15 H :    0.041193
  16 S :    0.106842
  17 C :   -0.111740
  18 C :   -0.029277
  19 C :   -0.056496
  20 C :   -0.170890
  21 H :    0.017657
  22 C :    0.068361
  23 H :    0.032210
  24 H :    0.012673
  25 C :   -0.013484
  26 H :    0.021391
  27 H :    0.012477
  28 C :   -0.061765
  29 H :    0.028153
  30 H :    0.035384
  31 H :    0.041895
  32 H :    0.031283
  33 H :    0.078192
Sum of atomic charges:    0.0000000

LOEWDIN ATOMIC CHARGES
----------------------
   0 S :    0.411428
   1 C :   -0.183285
   2 C :   -0.070780
   3 C :   -0.049313
   4 C :   -0.200033
   5 H :    0.027864
   6 C :   -0.037392
   7 H :    0.029643
   8 H :    0.040587
   9 C :   -0.026767
  10 H :    0.012897
  11 H :    0.034514
  12 C :   -0.076830
  13 H :    0.017793
  14 H :    0.032108
  15 H :    0.021794
  16 S :    0.390837
  17 C :   -0.185646
  18 C :   -0.072469
  19 C :   -0.054961
  20 C :   -0.210371
  21 H :    0.029971
  22 C :   -0.025724
  23 H :    0.029740
  24 H :    0.025311
  25 C :   -0.033474
  26 H :    0.021380
  27 H :    0.018441
  28 C :   -0.066163
  29 H :    0.023298
  30 H :    0.027962
  31 H :    0.033339
  32 H :    0.017373
  33 H :    0.046926

  Mayer bond orders larger than 0.100000
B(  0-S ,  1-C ) :   1.1597 B(  0-S ,  4-C ) :   1.1420 B(  1-C ,  2-C ) :   1.5895
B(  1-C , 32-H ) :   0.9683 B(  2-C ,  3-C ) :   1.2632 B(  2-C ,  6-C ) :   1.0160
B(  3-C ,  4-C ) :   1.5746 B(  3-C ,  5-H ) :   0.9918 B(  4-C , 20-C ) :   1.0471
B(  6-C ,  7-H ) :   0.9316 B(  6-C ,  8-H ) :   0.9434 B(  6-C ,  9-C ) :   1.0728
B(  9-C , 10-H ) :   0.9518 B(  9-C , 11-H ) :   0.9571 B(  9-C , 12-C ) :   1.0737
B( 12-C , 13-H ) :   0.9749 B( 12-C , 14-H ) :   0.9749 B( 12-C , 15-H ) :   0.9742
B( 16-S , 17-C ) :   1.1307 B( 16-S , 20-C ) :   1.1452 B( 17-C , 18-C ) :   1.6254
B( 17-C , 33-H ) :   0.9572 B( 18-C , 19-C ) :   1.2420 B( 18-C , 21-H ) :   0.9837
B( 19-C , 20-C ) :   1.5668 B( 19-C , 22-C ) :   1.0427 B( 22-C , 23-H ) :   0.9394
B( 22-C , 24-H ) :   0.9257 B( 22-C , 25-C ) :   1.0636 B( 25-C , 26-H ) :   0.9568
B( 25-C , 27-H ) :   0.9519 B( 25-C , 28-C ) :   1.0877 B( 28-C , 29-H ) :   0.9717
B( 28-C , 30-H ) :   0.9731 B( 28-C , 31-H ) :   0.9689

Dispersion correction           -0.014779237
FINAL SINGLE POINT ENERGY     -1339.867062135366

DIPOLE MOMENT
-------------
                                X             Y             Z
Electronic contribution:     -6.73295      23.92498       0.45254
Nuclear contribution   :      6.79036     -24.41661      -0.84964
                        -----------------------------------------
Total Dipole Moment    :      0.05741      -0.49163      -0.39710
                        -----------------------------------------
Magnitude (a.u.)       :      0.63457
Magnitude (Debye)      :      1.61296

Rotational constants in cm-1:     0.021000     0.008382     0.007024
Rotational constants in MHz :   629.549633   251.275726   210.561240

                             ****ORCA TERMINATED NORMALLY****
TOTAL RUN TIME: 0 days 0 hours 0 minutes 30 seconds 765 msec
