                         Program Version 4.2.1 -  RELEASE  -
|  1> ! wB97X-D3 SP def2-SVP
|  2> %pal
|  3> nprocs 16
|  4> end
|  5>
|  6> * xyz 0 1
|  7> S 	 41.1077 	 11.046 	 82.1138
|  8> C 	 42.5161 	 10.9768 	 81.0126
|  9> C 	 42.7263 	 12.1664 	 80.325
| 10> C 	 41.7201 	 13.0866 	 80.6834
| 11> C 	 40.8465 	 12.6402 	 81.6267
| 12> H 	 41.5103 	 14.0266 	 80.1718
| 13> C 	 43.7233 	 12.5229 	 79.2583
| 14> H 	 44.7119 	 12.176 	 79.6321
| 15> H 	 43.8298 	 13.5771 	 79.2553
| 16> C 	 43.2913 	 12.0372 	 77.9232
| 17> H 	 43.1149 	 10.9833 	 78.1641
| 18> H 	 42.3255 	 12.4436 	 77.552
| 19> C 	 44.3651 	 12.1527 	 76.8354
| 20> H 	 45.2675 	 11.6107 	 77.0006
| 21> H 	 43.9195 	 11.7661 	 75.8955
| 22> H 	 44.5566 	 13.1952 	 76.6151
| 23> S 	 38.2003 	 12.7405 	 82.2422
| 24> C 	 37.3592 	 14.2328 	 82.6738
| 25> C 	 38.2956 	 15.2884 	 82.668
| 26> C 	 39.6751 	 14.9122 	 82.3862
| 27> C 	 39.7589 	 13.5003 	 82.1805
| 28> H 	 37.9984 	 16.3101 	 82.8991
| 29> C 	 40.7972 	 15.9064 	 82.3646
| 30> H 	 40.4413 	 16.7841 	 82.754
| 31> H 	 41.0648 	 16.1321 	 81.3489
| 32> C 	 42.11 	 15.5467 	 83.2383
| 33> H 	 42.6148 	 14.6682 	 82.9427
| 34> H 	 41.6992 	 15.1592 	 84.1387
| 35> C 	 43.0326 	 16.7365 	 83.6314
| 36> H 	 42.7154 	 17.4991 	 84.3281
| 37> H 	 43.2057 	 17.1836 	 82.6901
| 38> H 	 44.0525 	 16.3302 	 83.8625
| 39> H 	 43.1015 	 10.1476 	 80.7488
| 40> H 	 36.3132 	 14.4193 	 82.8346
| 41> *
| 42>
| 43>                          ****END OF INPUT****

CARTESIAN COORDINATES (ANGSTROEM)
---------------------------------
  S     41.107700   11.046000   82.113800
  C     42.516100   10.976800   81.012600
  C     42.726300   12.166400   80.325000
  C     41.720100   13.086600   80.683400
  C     40.846500   12.640200   81.626700
  H     41.510300   14.026600   80.171800
  C     43.723300   12.522900   79.258300
  H     44.711900   12.176000   79.632100
  H     43.829800   13.577100   79.255300
  C     43.291300   12.037200   77.923200
  H     43.114900   10.983300   78.164100
  H     42.325500   12.443600   77.552000
  C     44.365100   12.152700   76.835400
  H     45.267500   11.610700   77.000600
  H     43.919500   11.766100   75.895500
  H     44.556600   13.195200   76.615100
  S     38.200300   12.740500   82.242200
  C     37.359200   14.232800   82.673800
  C     38.295600   15.288400   82.668000
  C     39.675100   14.912200   82.386200
  C     39.758900   13.500300   82.180500
  H     37.998400   16.310100   82.899100
  C     40.797200   15.906400   82.364600
  H     40.441300   16.784100   82.754000
  H     41.064800   16.132100   81.348900
  C     42.110000   15.546700   83.238300
  H     42.614800   14.668200   82.942700
  H     41.699200   15.159200   84.138700
  C     43.032600   16.736500   83.631400
  H     42.715400   17.499100   84.328100
  H     43.205700   17.183600   82.690100
  H     44.052500   16.330200   83.862500
  H     43.101500   10.147600   80.748800
  H     36.313200   14.419300   82.834600

 Total Charge           Charge          ....    0
 Multiplicity           Mult            ....    1
 Number of Electrons    NEL             ....  134
 Basis Dimension        Dim             ....  322

ORBITAL ENERGIES
----------------

  NO   OCC          E(Eh)            E(eV)
   0   2.0000     -88.971834     -2421.0467
   1   2.0000     -88.967357     -2420.9249
   2   2.0000     -10.330795      -281.1152
   3   2.0000     -10.323623      -280.9201
   4   2.0000     -10.320697      -280.8404
   5   2.0000     -10.311808      -280.5986
   6   2.0000     -10.309584      -280.5380
   7   2.0000     -10.300066      -280.2790
   8   2.0000     -10.297948      -280.2214
   9   2.0000     -10.289164      -279.9824
  10   2.0000     -10.288733      -279.9706
  11   2.0000     -10.287995      -279.9506
  12   2.0000     -10.284545      -279.8567
  13   2.0000     -10.280407      -279.7441
  14   2.0000     -10.277986      -279.6782
  15   2.0000     -10.277635      -279.6687
  16   2.0000      -8.086757      -220.0518
  17   2.0000      -8.081750      -219.9156
  18   2.0000      -6.045175      -164.4976
  19   2.0000      -6.041363      -164.3938
  20   2.0000      -6.040368      -164.3668
  21   2.0000      -6.037476      -164.2881
  22   2.0000      -6.036096      -164.2505
  23   2.0000      -6.032631      -164.1562
  24   2.0000      -1.009278       -27.4638
  25   2.0000      -0.980365       -26.6771
  26   2.0000      -0.923275       -25.1236
  27   2.0000      -0.900623       -24.5072
  28   2.0000      -0.866075       -23.5671
  29   2.0000      -0.851125       -23.1603
  30   2.0000      -0.847133       -23.0516
  31   2.0000      -0.812105       -22.0985
  32   2.0000      -0.787324       -21.4242
  33   2.0000      -0.773073       -21.0364
  34   2.0000      -0.713251       -19.4085
  35   2.0000      -0.705146       -19.1880
  36   2.0000      -0.692081       -18.8325
  37   2.0000      -0.662020       -18.0145
  38   2.0000      -0.638614       -17.3776
  39   2.0000      -0.620192       -16.8763
  40   2.0000      -0.590691       -16.0735
  41   2.0000      -0.576949       -15.6996
  42   2.0000      -0.561257       -15.2726
  43   2.0000      -0.557676       -15.1751
  44   2.0000      -0.529263       -14.4020
  45   2.0000      -0.520233       -14.1563
  46   2.0000      -0.515596       -14.0301
  47   2.0000      -0.513668       -13.9776
  48   2.0000      -0.506078       -13.7711
  49   2.0000      -0.500367       -13.6157
  50   2.0000      -0.491662       -13.3788
  51   2.0000      -0.486905       -13.2493
  52   2.0000      -0.469659       -12.7801
  53   2.0000      -0.468717       -12.7544
  54   2.0000      -0.458012       -12.4632
  55   2.0000      -0.451933       -12.2977
  56   2.0000      -0.447650       -12.1812
  57   2.0000      -0.443032       -12.0555
  58   2.0000      -0.428833       -11.6691
  59   2.0000      -0.426526       -11.6064
  60   2.0000      -0.421481       -11.4691
  61   2.0000      -0.412084       -11.2134
  62   2.0000      -0.409995       -11.1565
  63   2.0000      -0.346346        -9.4246
  64   2.0000      -0.336395        -9.1538
  65   2.0000      -0.326461        -8.8835
  66   2.0000      -0.288197        -7.8422
  67   0.0000       0.026924         0.7327
  68   0.0000       0.075797         2.0626
  69   0.0000       0.101961         2.7745
  70   0.0000       0.118733         3.2309
  71   0.0000       0.138108         3.7581

MULLIKEN ATOMIC CHARGES
-----------------------
   0 S :    0.128410
   1 C :   -0.103809
   2 C :   -0.104932
   3 C :   -0.014799
   4 C :   -0.124199
   5 H :    0.013737
   6 C :    0.104945
   7 H :    0.029070
   8 H :    0.001742
   9 C :   -0.084322
  10 H :    0.019048
  11 H :    0.038599
  12 C :   -0.013244
  13 H :    0.030929
  14 H :    0.030289
  15 H :    0.025700
  16 S :    0.101755
  17 C :   -0.084613
  18 C :   -0.048173
  19 C :   -0.082188
  20 C :   -0.134890
  21 H :    0.019927
  22 C :    0.133790
  23 H :   -0.018372
  24 H :    0.028242
  25 C :   -0.063500
  26 H :    0.030301
  27 H :    0.013781
  28 C :   -0.043756
  29 H :    0.047662
  30 H :    0.012693
  31 H :    0.035984
  32 H :    0.017700
  33 H :    0.056492
Sum of atomic charges:    0.0000000

LOEWDIN ATOMIC CHARGES
----------------------
   0 S :    0.422820
   1 C :   -0.188116
   2 C :   -0.052386
   3 C :   -0.070385
   4 C :   -0.216025
   5 H :    0.032852
   6 C :   -0.031703
   7 H :    0.036919
   8 H :    0.021238
   9 C :   -0.042664
  10 H :    0.025170
  11 H :    0.032676
  12 C :   -0.062091
  13 H :    0.021290
  14 H :    0.031290
  15 H :    0.023221
  16 S :    0.412574
  17 C :   -0.192842
  18 C :   -0.067220
  19 C :   -0.057242
  20 C :   -0.198843
  21 H :    0.029091
  22 C :   -0.023053
  23 H :    0.018118
  24 H :    0.026725
  25 C :   -0.034607
  26 H :    0.021821
  27 H :    0.021037
  28 C :   -0.068435
  29 H :    0.026239
  30 H :    0.018549
  31 H :    0.037283
  32 H :    0.015203
  33 H :    0.031497

  Mayer bond orders larger than 0.100000
B(  0-S ,  1-C ) :   1.1249 B(  0-S ,  4-C ) :   1.1643 B(  1-C ,  2-C ) :   1.6195
B(  1-C , 32-H ) :   0.9703 B(  2-C ,  3-C ) :   1.2522 B(  2-C ,  6-C ) :   1.0222
B(  3-C ,  4-C ) :   1.5783 B(  3-C ,  5-H ) :   0.9906 B(  4-C , 20-C ) :   1.0013
B(  6-C ,  7-H ) :   0.9346 B(  6-C ,  8-H ) :   0.9275 B(  6-C ,  9-C ) :   1.0624
B(  9-C , 10-H ) :   0.9554 B(  9-C , 11-H ) :   0.9520 B(  9-C , 12-C ) :   1.0883
B( 12-C , 13-H ) :   0.9754 B( 12-C , 14-H ) :   0.9723 B( 12-C , 15-H ) :   0.9724
B( 16-S , 17-C ) :   1.1510 B( 16-S , 20-C ) :   1.1654 B( 17-C , 18-C ) :   1.5890
B( 17-C , 20-C ) :   0.1037 B( 17-C , 33-H ) :   0.9713 B( 18-C , 19-C ) :   1.2733
B( 18-C , 21-H ) :   0.9820 B( 19-C , 20-C ) :   1.5458 B( 19-C , 22-C ) :   1.0567
B( 22-C , 23-H ) :   0.9201 B( 22-C , 24-H ) :   0.9223 B( 22-C , 25-C ) :   1.0456
B( 25-C , 26-H ) :   0.9559 B( 25-C , 27-H ) :   0.9538 B( 25-C , 28-C ) :   1.0785
B( 28-C , 29-H ) :   0.9776 B( 28-C , 30-H ) :   0.9758 B( 28-C , 31-H ) :   0.9720

Dispersion correction           -0.014325098
FINAL SINGLE POINT ENERGY     -1339.859224783541

DIPOLE MOMENT
-------------
                                X             Y             Z
Electronic contribution:    -21.78673     -14.27266      11.49613
Nuclear contribution   :     22.13534      14.76591     -11.90719
                        -----------------------------------------
Total Dipole Moment    :      0.34860       0.49325      -0.41106
                        -----------------------------------------
Magnitude (a.u.)       :      0.73061
Magnitude (Debye)      :      1.85706

Rotational constants in cm-1:     0.017358     0.008576     0.006936
Rotational constants in MHz :   520.376809   257.094830   207.933855

                             ****ORCA TERMINATED NORMALLY****
TOTAL RUN TIME: 0 days 0 hours 0 minutes 30 seconds 706 msec
