                         Program Version 4.2.1 -  RELEASE  -
|  1> ! wB97X-D3 SP def2-SVP
|  2> %pal
|  3> nprocs 16
|  4> end
|  5>
|  6> * xyz 0 1
|  7> S 	 4.93405 	 -5.47104 	 91.691
|  8> C 	 5.39987 	 -4.6242 	 93.1712
|  9> C 	 4.23491 	 -4.46131 	 93.9249
| 10> C 	 3.05383 	 -4.93849 	 93.3477
| 11> C 	 3.26692 	 -5.63658 	 92.1649
| 12> H 	 2.10183 	 -4.89582 	 93.778
| 13> C 	 4.1623 	 -3.63937 	 95.1463
| 14> H 	 3.29981 	 -2.97232 	 94.8965
| 15> H 	 5.02584 	 -3.07711 	 95.0927
| 16> C 	 3.99093 	 -4.37895 	 96.4665
| 17> H 	 3.82809 	 -3.75319 	 97.3497
| 18> H 	 3.11393 	 -5.00359 	 96.3395
| 19> C 	 5.18206 	 -5.29443 	 96.6052
| 20> H 	 5.3849 	 -5.90197 	 95.7115
| 21> H 	 6.03304 	 -4.69512 	 96.9395
| 22> H 	 4.96103 	 -6.09073 	 97.3635
| 23> S 	 2.7353 	 -5.46715 	 89.4524
| 24> C 	 1.34625 	 -6.28766 	 88.7004
| 25> C 	 0.541473 	 -6.82681 	 89.7248
| 26> C 	 1.08929 	 -6.61558 	 91.0518
| 27> C 	 2.3079 	 -5.9556 	 91.0691
| 28> H 	 -0.31444 	 -7.41608 	 89.4053
| 29> C 	 0.334954 	 -7.07331 	 92.2903
| 30> H 	 -0.387984 	 -6.30667 	 92.5489
| 31> H 	 1.05605 	 -7.1512 	 93.1506
| 32> C 	 -0.363434 	 -8.45892 	 92.203
| 33> H 	 0.158891 	 -9.2597 	 92.7069
| 34> H 	 -0.346183 	 -8.76274 	 91.1656
| 35> C 	 -1.85806 	 -8.47063 	 92.7017
| 36> H 	 -2.49712 	 -9.26982 	 92.35
| 37> H 	 -2.37938 	 -7.53658 	 92.522
| 38> H 	 -1.81992 	 -8.54409 	 93.7534
| 39> H 	 6.44574 	 -4.405 	 93.443
| 40> H 	 1.09737 	 -6.34809 	 87.6322
| 41> *
| 42>
| 43>                          ****END OF INPUT****

CARTESIAN COORDINATES (ANGSTROEM)
---------------------------------
  S      4.934050   -5.471040   91.691000
  C      5.399870   -4.624200   93.171200
  C      4.234910   -4.461310   93.924900
  C      3.053830   -4.938490   93.347700
  C      3.266920   -5.636580   92.164900
  H      2.101830   -4.895820   93.778000
  C      4.162300   -3.639370   95.146300
  H      3.299810   -2.972320   94.896500
  H      5.025840   -3.077110   95.092700
  C      3.990930   -4.378950   96.466500
  H      3.828090   -3.753190   97.349700
  H      3.113930   -5.003590   96.339500
  C      5.182060   -5.294430   96.605200
  H      5.384900   -5.901970   95.711500
  H      6.033040   -4.695120   96.939500
  H      4.961030   -6.090730   97.363500
  S      2.735300   -5.467150   89.452400
  C      1.346250   -6.287660   88.700400
  C      0.541473   -6.826810   89.724800
  C      1.089290   -6.615580   91.051800
  C      2.307900   -5.955600   91.069100
  H     -0.314440   -7.416080   89.405300
  C      0.334954   -7.073310   92.290300
  H     -0.387984   -6.306670   92.548900
  H      1.056050   -7.151200   93.150600
  C     -0.363434   -8.458920   92.203000
  H      0.158891   -9.259700   92.706900
  H     -0.346183   -8.762740   91.165600
  C     -1.858060   -8.470630   92.701700
  H     -2.497120   -9.269820   92.350000
  H     -2.379380   -7.536580   92.522000
  H     -1.819920   -8.544090   93.753400
  H      6.445740   -4.405000   93.443000
  H      1.097370   -6.348090   87.632200

 Total Charge           Charge          ....    0
 Multiplicity           Mult            ....    1
 Number of Electrons    NEL             ....  134
 Basis Dimension        Dim             ....  322

ORBITAL ENERGIES
----------------

  NO   OCC          E(Eh)            E(eV)
   0   2.0000     -88.966351     -2420.8975
   1   2.0000     -88.965169     -2420.8653
   2   2.0000     -10.335474      -281.2426
   3   2.0000     -10.331114      -281.1239
   4   2.0000     -10.323788      -280.9245
   5   2.0000     -10.321595      -280.8649
   6   2.0000     -10.306470      -280.4533
   7   2.0000     -10.299981      -280.2767
   8   2.0000     -10.298838      -280.2456
   9   2.0000     -10.295962      -280.1674
  10   2.0000     -10.291947      -280.0581
  11   2.0000     -10.286353      -279.9059
  12   2.0000     -10.285314      -279.8776
  13   2.0000     -10.281557      -279.7754
  14   2.0000     -10.276693      -279.6430
  15   2.0000     -10.274767      -279.5906
  16   2.0000      -8.080963      -219.8942
  17   2.0000      -8.079298      -219.8489
  18   2.0000      -6.039421      -164.3410
  19   2.0000      -6.038001      -164.3024
  20   2.0000      -6.035294      -164.2287
  21   2.0000      -6.033716      -164.1858
  22   2.0000      -6.031948      -164.1377
  23   2.0000      -6.030022      -164.0852
  24   2.0000      -1.008629       -27.4462
  25   2.0000      -0.982995       -26.7487
  26   2.0000      -0.922877       -25.1128
  27   2.0000      -0.901943       -24.5431
  28   2.0000      -0.866966       -23.5913
  29   2.0000      -0.852494       -23.1975
  30   2.0000      -0.841496       -22.8983
  31   2.0000      -0.818104       -22.2617
  32   2.0000      -0.779207       -21.2033
  33   2.0000      -0.771114       -20.9831
  34   2.0000      -0.711836       -19.3700
  35   2.0000      -0.702514       -19.1164
  36   2.0000      -0.694743       -18.9049
  37   2.0000      -0.656524       -17.8649
  38   2.0000      -0.643780       -17.5181
  39   2.0000      -0.628017       -17.0892
  40   2.0000      -0.594162       -16.1680
  41   2.0000      -0.573210       -15.5978
  42   2.0000      -0.556050       -15.1309
  43   2.0000      -0.550433       -14.9780
  44   2.0000      -0.547961       -14.9108
  45   2.0000      -0.527689       -14.3592
  46   2.0000      -0.523764       -14.2523
  47   2.0000      -0.515062       -14.0156
  48   2.0000      -0.505764       -13.7625
  49   2.0000      -0.504586       -13.7305
  50   2.0000      -0.494262       -13.4496
  51   2.0000      -0.473980       -12.8977
  52   2.0000      -0.468154       -12.7391
  53   2.0000      -0.462541       -12.5864
  54   2.0000      -0.458356       -12.4725
  55   2.0000      -0.451858       -12.2957
  56   2.0000      -0.444479       -12.0949
  57   2.0000      -0.439710       -11.9651
  58   2.0000      -0.425003       -11.5649
  59   2.0000      -0.424536       -11.5522
  60   2.0000      -0.421456       -11.4684
  61   2.0000      -0.413397       -11.2491
  62   2.0000      -0.408057       -11.1038
  63   2.0000      -0.353642        -9.6231
  64   2.0000      -0.331072        -9.0089
  65   2.0000      -0.327632        -8.9153
  66   2.0000      -0.290683        -7.9099
  67   0.0000       0.021911         0.5962
  68   0.0000       0.071694         1.9509
  69   0.0000       0.109812         2.9881
  70   0.0000       0.121669         3.3108
  71   0.0000       0.126723         3.4483

MULLIKEN ATOMIC CHARGES
-----------------------
   0 S :    0.084499
   1 C :   -0.128948
   2 C :   -0.139436
   3 C :    0.043713
   4 C :   -0.112086
   5 H :   -0.000650
   6 C :    0.098438
   7 H :    0.036382
   8 H :   -0.009107
   9 C :   -0.022274
  10 H :    0.039525
  11 H :    0.014090
  12 C :   -0.090544
  13 H :    0.052277
  14 H :    0.034525
  15 H :    0.032283
  16 S :    0.096899
  17 C :   -0.114764
  18 C :   -0.039574
  19 C :   -0.064723
  20 C :   -0.130699
  21 H :    0.032755
  22 C :    0.061344
  23 H :    0.043988
  24 H :    0.036663
  25 C :   -0.073647
  26 H :    0.033066
  27 H :    0.021943
  28 C :   -0.061989
  29 H :    0.036495
  30 H :    0.026603
  31 H :    0.023119
  32 H :    0.069245
  33 H :    0.070586
Sum of atomic charges:    0.0000000

LOEWDIN ATOMIC CHARGES
----------------------
   0 S :    0.409559
   1 C :   -0.198715
   2 C :   -0.064920
   3 C :   -0.056630
   4 C :   -0.185550
   5 H :    0.023336
   6 C :   -0.030467
   7 H :    0.039169
   8 H :    0.016160
   9 C :   -0.038839
  10 H :    0.027911
  11 H :    0.020787
  12 C :   -0.070996
  13 H :    0.030254
  14 H :    0.024728
  15 H :    0.028726
  16 S :    0.396696
  17 C :   -0.185663
  18 C :   -0.073260
  19 C :   -0.065157
  20 C :   -0.200251
  21 H :    0.033415
  22 C :   -0.033567
  23 H :    0.032175
  24 H :    0.036416
  25 C :   -0.037608
  26 H :    0.025605
  27 H :    0.018979
  28 C :   -0.065601
  29 H :    0.026393
  30 H :    0.022350
  31 H :    0.019213
  32 H :    0.037727
  33 H :    0.037626

  Mayer bond orders larger than 0.100000
B(  0-S ,  1-C ) :   1.1426 B(  0-S ,  4-C ) :   1.1713 B(  1-C ,  2-C ) :   1.5468
B(  1-C ,  4-C ) :   0.1011 B(  1-C , 32-H ) :   0.9701 B(  2-C ,  3-C ) :   1.2898
B(  2-C ,  6-C ) :   1.0122 B(  3-C ,  4-C ) :   1.5166 B(  3-C ,  5-H ) :   0.9979
B(  4-C , 20-C ) :   1.0238 B(  6-C ,  7-H ) :   0.9390 B(  6-C ,  8-H ) :   0.9383
B(  6-C ,  9-C ) :   1.0581 B(  9-C , 10-H ) :   0.9576 B(  9-C , 11-H ) :   0.9534
B(  9-C , 12-C ) :   1.0767 B( 12-C , 13-H ) :   0.9708 B( 12-C , 14-H ) :   0.9768
B( 12-C , 15-H ) :   0.9721 B( 16-S , 17-C ) :   1.1472 B( 16-S , 20-C ) :   1.1365
B( 17-C , 18-C ) :   1.6111 B( 17-C , 33-H ) :   0.9660 B( 18-C , 19-C ) :   1.2316
B( 18-C , 21-H ) :   0.9859 B( 19-C , 20-C ) :   1.6112 B( 19-C , 22-C ) :   1.0509
B( 22-C , 23-H ) :   0.9444 B( 22-C , 24-H ) :   0.9328 B( 22-C , 25-C ) :   1.0321
B( 25-C , 26-H ) :   0.9613 B( 25-C , 27-H ) :   0.9717 B( 25-C , 28-C ) :   1.0630
B( 28-C , 29-H ) :   0.9778 B( 28-C , 30-H ) :   0.9800 B( 28-C , 31-H ) :   0.9794

Dispersion correction           -0.013805434
FINAL SINGLE POINT ENERGY     -1339.868342128845

DIPOLE MOMENT
-------------
                                X             Y             Z
Electronic contribution:     12.49187       6.33824     -23.46840
Nuclear contribution   :    -12.87528      -6.34927      23.94974
                        -----------------------------------------
Total Dipole Moment    :     -0.38341      -0.01103       0.48133
                        -----------------------------------------
Magnitude (a.u.)       :      0.61547
Magnitude (Debye)      :      1.56441

Rotational constants in cm-1:     0.018607     0.008468     0.006198
Rotational constants in MHz :   557.826576   253.868133   185.821664

                             ****ORCA TERMINATED NORMALLY****
TOTAL RUN TIME: 0 days 0 hours 0 minutes 33 seconds 470 msec
