                         Program Version 4.2.1 -  RELEASE  -
|  1> ! wB97X-D3 SP def2-SVP
|  2> %pal
|  3> nprocs 16
|  4> end
|  5>
|  6> * xyz 0 1
|  7> S 	 -36.2614 	 45.2419 	 96.5563
|  8> C 	 -37.1592 	 46.6047 	 97.1828
|  9> C 	 -38.2958 	 46.1803 	 97.8314
| 10> C 	 -38.464 	 44.7515 	 97.7879
| 11> C 	 -37.4498 	 44.155 	 97.0748
| 12> H 	 -39.1724 	 44.1992 	 98.3348
| 13> C 	 -39.2434 	 47.0962 	 98.487
| 14> H 	 -39.1933 	 47.9873 	 97.8649
| 15> H 	 -38.876 	 47.4005 	 99.4593
| 16> C 	 -40.7213 	 46.7408 	 98.4827
| 17> H 	 -40.788 	 45.7574 	 98.935
| 18> H 	 -41.2452 	 47.5722 	 98.9723
| 19> C 	 -41.2445 	 46.6006 	 97.0588
| 20> H 	 -41.2034 	 47.5522 	 96.4909
| 21> H 	 -40.909 	 45.8001 	 96.4054
| 22> H 	 -42.3153 	 46.3795 	 97.1046
| 23> S 	 -35.7517 	 41.9862 	 98.0759
| 24> C 	 -35.9612 	 40.4069 	 97.4815
| 25> C 	 -37.1647 	 40.3997 	 96.7738
| 26> C 	 -37.6816 	 41.6804 	 96.4809
| 27> C 	 -37.0726 	 42.7172 	 97.1115
| 28> H 	 -37.5652 	 39.4496 	 96.5009
| 29> C 	 -38.9952 	 41.8267 	 95.801
| 30> H 	 -38.9925 	 41.2871 	 94.8354
| 31> H 	 -39.1622 	 42.902 	 95.607
| 32> C 	 -40.1801 	 41.446 	 96.6736
| 33> H 	 -40.3559 	 42.3531 	 97.2836
| 34> H 	 -39.7936 	 40.6029 	 97.3382
| 35> C 	 -41.4117 	 41.011 	 95.8864
| 36> H 	 -42.1876 	 40.8843 	 96.564
| 37> H 	 -41.1644 	 40.0664 	 95.5283
| 38> H 	 -41.8151 	 41.6608 	 95.0921
| 39> H 	 -36.7021 	 47.5932 	 97.0938
| 40> H 	 -35.431 	 39.5359 	 97.852
| 41> *
| 42>
| 43>                          ****END OF INPUT****

CARTESIAN COORDINATES (ANGSTROEM)
---------------------------------
  S    -36.261400   45.241900   96.556300
  C    -37.159200   46.604700   97.182800
  C    -38.295800   46.180300   97.831400
  C    -38.464000   44.751500   97.787900
  C    -37.449800   44.155000   97.074800
  H    -39.172400   44.199200   98.334800
  C    -39.243400   47.096200   98.487000
  H    -39.193300   47.987300   97.864900
  H    -38.876000   47.400500   99.459300
  C    -40.721300   46.740800   98.482700
  H    -40.788000   45.757400   98.935000
  H    -41.245200   47.572200   98.972300
  C    -41.244500   46.600600   97.058800
  H    -41.203400   47.552200   96.490900
  H    -40.909000   45.800100   96.405400
  H    -42.315300   46.379500   97.104600
  S    -35.751700   41.986200   98.075900
  C    -35.961200   40.406900   97.481500
  C    -37.164700   40.399700   96.773800
  C    -37.681600   41.680400   96.480900
  C    -37.072600   42.717200   97.111500
  H    -37.565200   39.449600   96.500900
  C    -38.995200   41.826700   95.801000
  H    -38.992500   41.287100   94.835400
  H    -39.162200   42.902000   95.607000
  C    -40.180100   41.446000   96.673600
  H    -40.355900   42.353100   97.283600
  H    -39.793600   40.602900   97.338200
  C    -41.411700   41.011000   95.886400
  H    -42.187600   40.884300   96.564000
  H    -41.164400   40.066400   95.528300
  H    -41.815100   41.660800   95.092100
  H    -36.702100   47.593200   97.093800
  H    -35.431000   39.535900   97.852000

 Total Charge           Charge          ....    0
 Multiplicity           Mult            ....    1
 Number of Electrons    NEL             ....  134
 Basis Dimension        Dim             ....  322

ORBITAL ENERGIES
----------------

  NO   OCC          E(Eh)            E(eV)
   0   2.0000     -88.964150     -2420.8376
   1   2.0000     -88.960483     -2420.7378
   2   2.0000     -10.327164      -281.0164
   3   2.0000     -10.323433      -280.9149
   4   2.0000     -10.315784      -280.7068
   5   2.0000     -10.313781      -280.6523
   6   2.0000     -10.301083      -280.3067
   7   2.0000     -10.294522      -280.1282
   8   2.0000     -10.291122      -280.0357
   9   2.0000     -10.290401      -280.0160
  10   2.0000     -10.288403      -279.9617
  11   2.0000     -10.288014      -279.9511
  12   2.0000     -10.283648      -279.8323
  13   2.0000     -10.280238      -279.7395
  14   2.0000     -10.276981      -279.6509
  15   2.0000     -10.268637      -279.4238
  16   2.0000      -8.080295      -219.8760
  17   2.0000      -8.075430      -219.7436
  18   2.0000      -6.038584      -164.3182
  19   2.0000      -6.034537      -164.2081
  20   2.0000      -6.033939      -164.1918
  21   2.0000      -6.031255      -164.1188
  22   2.0000      -6.029787      -164.0789
  23   2.0000      -6.026265      -163.9830
  24   2.0000      -1.012630       -27.5551
  25   2.0000      -0.991669       -26.9847
  26   2.0000      -0.922434       -25.1007
  27   2.0000      -0.912996       -24.8439
  28   2.0000      -0.870330       -23.6829
  29   2.0000      -0.852566       -23.1995
  30   2.0000      -0.845412       -23.0048
  31   2.0000      -0.817369       -22.2417
  32   2.0000      -0.785562       -21.3762
  33   2.0000      -0.775466       -21.1015
  34   2.0000      -0.710694       -19.3390
  35   2.0000      -0.692034       -18.8312
  36   2.0000      -0.690376       -18.7861
  37   2.0000      -0.656137       -17.8544
  38   2.0000      -0.647718       -17.6253
  39   2.0000      -0.628247       -17.0955
  40   2.0000      -0.598193       -16.2776
  41   2.0000      -0.572334       -15.5740
  42   2.0000      -0.566432       -15.4134
  43   2.0000      -0.560715       -15.2578
  44   2.0000      -0.548558       -14.9270
  45   2.0000      -0.524545       -14.2736
  46   2.0000      -0.521344       -14.1865
  47   2.0000      -0.513455       -13.9718
  48   2.0000      -0.510232       -13.8841
  49   2.0000      -0.502107       -13.6630
  50   2.0000      -0.491330       -13.3698
  51   2.0000      -0.478235       -13.0134
  52   2.0000      -0.471281       -12.8242
  53   2.0000      -0.465799       -12.6750
  54   2.0000      -0.461800       -12.5662
  55   2.0000      -0.452962       -12.3257
  56   2.0000      -0.443631       -12.0718
  57   2.0000      -0.437218       -11.8973
  58   2.0000      -0.430478       -11.7139
  59   2.0000      -0.425256       -11.5718
  60   2.0000      -0.414930       -11.2908
  61   2.0000      -0.411754       -11.2044
  62   2.0000      -0.406054       -11.0493
  63   2.0000      -0.338365        -9.2074
  64   2.0000      -0.330304        -8.9880
  65   2.0000      -0.321106        -8.7377
  66   2.0000      -0.306436        -8.3385
  67   0.0000       0.037893         1.0311
  68   0.0000       0.062996         1.7142
  69   0.0000       0.115636         3.1466
  70   0.0000       0.122667         3.3380
  71   0.0000       0.130279         3.5451

MULLIKEN ATOMIC CHARGES
-----------------------
   0 S :    0.119768
   1 C :   -0.146005
   2 C :   -0.088336
   3 C :    0.042995
   4 C :   -0.167892
   5 H :    0.004592
   6 C :    0.079339
   7 H :    0.010211
   8 H :    0.039935
   9 C :   -0.047712
  10 H :    0.030248
  11 H :    0.042873
  12 C :   -0.085654
  13 H :    0.031429
  14 H :    0.044206
  15 H :    0.024690
  16 S :    0.103465
  17 C :   -0.096328
  18 C :   -0.037512
  19 C :   -0.031386
  20 C :   -0.148036
  21 H :    0.007674
  22 C :    0.051520
  23 H :    0.026175
  24 H :    0.030691
  25 C :   -0.115451
  26 H :    0.022253
  27 H :    0.038592
  28 C :    0.019720
  29 H :    0.012882
  30 H :    0.014707
  31 H :    0.038814
  32 H :    0.058475
  33 H :    0.069056
Sum of atomic charges:    0.0000000

LOEWDIN ATOMIC CHARGES
----------------------
   0 S :    0.442090
   1 C :   -0.196428
   2 C :   -0.060745
   3 C :   -0.053980
   4 C :   -0.206283
   5 H :    0.022925
   6 C :   -0.040481
   7 H :    0.031184
   8 H :    0.032032
   9 C :   -0.036017
  10 H :    0.022374
  11 H :    0.035408
  12 C :   -0.075200
  13 H :    0.027155
  14 H :    0.026741
  15 H :    0.026767
  16 S :    0.406507
  17 C :   -0.197300
  18 C :   -0.075566
  19 C :   -0.066006
  20 C :   -0.197726
  21 H :    0.023632
  22 C :   -0.039278
  23 H :    0.027925
  24 H :    0.031263
  25 C :   -0.039877
  26 H :    0.020236
  27 H :    0.030033
  28 C :   -0.056294
  29 H :    0.019182
  30 H :    0.019167
  31 H :    0.031074
  32 H :    0.030190
  33 H :    0.035297

  Mayer bond orders larger than 0.100000
B(  0-S ,  1-C ) :   1.1491 B(  0-S ,  4-C ) :   1.1907 B(  1-C ,  2-C ) :   1.5948
B(  1-C , 32-H ) :   0.9748 B(  2-C ,  3-C ) :   1.2454 B(  2-C ,  6-C ) :   1.0140
B(  3-C ,  4-C ) :   1.5560 B(  3-C ,  5-H ) :   0.9978 B(  4-C , 20-C ) :   0.9986
B(  6-C ,  7-H ) :   0.9385 B(  6-C ,  8-H ) :   0.9280 B(  6-C ,  9-C ) :   1.0881
B(  9-C , 10-H ) :   0.9479 B(  9-C , 11-H ) :   0.9510 B(  9-C , 12-C ) :   1.0878
B( 12-C , 13-H ) :   0.9724 B( 12-C , 14-H ) :   0.9719 B( 12-C , 15-H ) :   0.9712
B( 16-S , 17-C ) :   1.1864 B( 16-S , 20-C ) :   1.1303 B( 17-C , 18-C ) :   1.5662
B( 17-C , 33-H ) :   0.9673 B( 18-C , 19-C ) :   1.2573 B( 18-C , 21-H ) :   0.9973
B( 19-C , 20-C ) :   1.5914 B( 19-C , 22-C ) :   1.0732 B( 22-C , 23-H ) :   0.9356
B( 22-C , 24-H ) :   0.9239 B( 22-C , 25-C ) :   1.0488 B( 25-C , 26-H ) :   0.9506
B( 25-C , 27-H ) :   0.9623 B( 25-C , 28-C ) :   1.0777 B( 28-C , 29-H ) :   0.9681
B( 28-C , 30-H ) :   0.9731 B( 28-C , 31-H ) :   0.9733

Dispersion correction           -0.015055402
FINAL SINGLE POINT ENERGY     -1339.870575772622

DIPOLE MOMENT
-------------
                                X             Y             Z
Electronic contribution:     29.37676      -2.52870       2.17799
Nuclear contribution   :    -30.01744       2.59792      -1.98800
                        -----------------------------------------
Total Dipole Moment    :     -0.64068       0.06922       0.18999
                        -----------------------------------------
Magnitude (a.u.)       :      0.67183
Magnitude (Debye)      :      1.70766

Rotational constants in cm-1:     0.017492     0.010213     0.007186
Rotational constants in MHz :   524.407246   306.184992   215.437052

                             ****ORCA TERMINATED NORMALLY****
TOTAL RUN TIME: 0 days 0 hours 0 minutes 30 seconds 224 msec
