                         Program Version 4.2.1 -  RELEASE  -
|  1> ! wB97X-D3 SP def2-SVP
|  2> %pal
|  3> nprocs 16
|  4> end
|  5>
|  6> * xyz 0 1
|  7> S 	 -37.2346 	 40.6743 	 96.3362
|  8> C 	 -36.1047 	 40.4928 	 94.9345
|  9> C 	 -35.034 	 39.7274 	 95.2917
| 10> C 	 -35.175 	 39.218 	 96.6402
| 11> C 	 -36.3182 	 39.5961 	 97.283
| 12> H 	 -34.4941 	 38.5999 	 97.1204
| 13> C 	 -33.9125 	 39.4147 	 94.3517
| 14> H 	 -34.0645 	 39.7257 	 93.3676
| 15> H 	 -33.6557 	 38.2942 	 94.3846
| 16> C 	 -32.5417 	 39.9942 	 94.6991
| 17> H 	 -32.6451 	 41.0105 	 94.6485
| 18> H 	 -32.3038 	 39.6056 	 95.6981
| 19> C 	 -31.2868 	 39.6182 	 93.8019
| 20> H 	 -31.2338 	 40.0694 	 92.8427
| 21> H 	 -30.3416 	 39.8855 	 94.3095
| 22> H 	 -31.2497 	 38.587 	 93.5486
| 23> S 	 -37.2854 	 40.6603 	 99.6632
| 24> C 	 -37.3158 	 39.6406 	 101.094
| 25> C 	 -36.9302 	 38.3766 	 100.859
| 26> C 	 -36.5309 	 38.2373 	 99.4861
| 27> C 	 -36.722 	 39.3477 	 98.6904
| 28> H 	 -36.9367 	 37.6724 	 101.658
| 29> C 	 -36.0723 	 36.8635 	 98.997
| 30> H 	 -35.938 	 36.1845 	 99.8795
| 31> H 	 -35.1218 	 36.9693 	 98.5184
| 32> C 	 -37.0367 	 36.1864 	 97.9966
| 33> H 	 -37.4012 	 36.8725 	 97.2308
| 34> H 	 -37.9756 	 35.9464 	 98.4816
| 35> C 	 -36.3808 	 34.9614 	 97.3599
| 36> H 	 -35.9615 	 34.3717 	 98.2275
| 37> H 	 -35.4333 	 35.1609 	 96.8699
| 38> H 	 -37.0274 	 34.3401 	 96.8582
| 39> H 	 -36.2428 	 41.0869 	 94.0602
| 40> H 	 -37.5752 	 39.9761 	 102.078
| 41> *
| 42>
| 43>                          ****END OF INPUT****

CARTESIAN COORDINATES (ANGSTROEM)
---------------------------------
  S    -37.234600   40.674300   96.336200
  C    -36.104700   40.492800   94.934500
  C    -35.034000   39.727400   95.291700
  C    -35.175000   39.218000   96.640200
  C    -36.318200   39.596100   97.283000
  H    -34.494100   38.599900   97.120400
  C    -33.912500   39.414700   94.351700
  H    -34.064500   39.725700   93.367600
  H    -33.655700   38.294200   94.384600
  C    -32.541700   39.994200   94.699100
  H    -32.645100   41.010500   94.648500
  H    -32.303800   39.605600   95.698100
  C    -31.286800   39.618200   93.801900
  H    -31.233800   40.069400   92.842700
  H    -30.341600   39.885500   94.309500
  H    -31.249700   38.587000   93.548600
  S    -37.285400   40.660300   99.663200
  C    -37.315800   39.640600  101.094000
  C    -36.930200   38.376600  100.859000
  C    -36.530900   38.237300   99.486100
  C    -36.722000   39.347700   98.690400
  H    -36.936700   37.672400  101.658000
  C    -36.072300   36.863500   98.997000
  H    -35.938000   36.184500   99.879500
  H    -35.121800   36.969300   98.518400
  C    -37.036700   36.186400   97.996600
  H    -37.401200   36.872500   97.230800
  H    -37.975600   35.946400   98.481600
  C    -36.380800   34.961400   97.359900
  H    -35.961500   34.371700   98.227500
  H    -35.433300   35.160900   96.869900
  H    -37.027400   34.340100   96.858200
  H    -36.242800   41.086900   94.060200
  H    -37.575200   39.976100  102.078000

 Total Charge           Charge          ....    0
 Multiplicity           Mult            ....    1
 Number of Electrons    NEL             ....  134
 Basis Dimension        Dim             ....  322

ORBITAL ENERGIES
----------------

  NO   OCC          E(Eh)            E(eV)
   0   2.0000     -88.966233     -2420.8943
   1   2.0000     -88.962273     -2420.7865
   2   2.0000     -10.331172      -281.1255
   3   2.0000     -10.326909      -281.0095
   4   2.0000     -10.316109      -280.7156
   5   2.0000     -10.313705      -280.6502
   6   2.0000     -10.306331      -280.4495
   7   2.0000     -10.302680      -280.3502
   8   2.0000     -10.292866      -280.0831
   9   2.0000     -10.292020      -280.0601
  10   2.0000     -10.290713      -280.0245
  11   2.0000     -10.290651      -280.0229
  12   2.0000     -10.283481      -279.8277
  13   2.0000     -10.280584      -279.7489
  14   2.0000     -10.278236      -279.6850
  15   2.0000     -10.272278      -279.5229
  16   2.0000      -8.081349      -219.9047
  17   2.0000      -8.077580      -219.8021
  18   2.0000      -6.039943      -164.3552
  19   2.0000      -6.036129      -164.2514
  20   2.0000      -6.035823      -164.2431
  21   2.0000      -6.031999      -164.1390
  22   2.0000      -6.031973      -164.1383
  23   2.0000      -6.028273      -164.0376
  24   2.0000      -1.012167       -27.5425
  25   2.0000      -0.988879       -26.9088
  26   2.0000      -0.915587       -24.9144
  27   2.0000      -0.906483       -24.6667
  28   2.0000      -0.873089       -23.7580
  29   2.0000      -0.850148       -23.1337
  30   2.0000      -0.844294       -22.9744
  31   2.0000      -0.822312       -22.3763
  32   2.0000      -0.787931       -21.4407
  33   2.0000      -0.771428       -20.9916
  34   2.0000      -0.711625       -19.3643
  35   2.0000      -0.701797       -19.0969
  36   2.0000      -0.692988       -18.8572
  37   2.0000      -0.665821       -18.1179
  38   2.0000      -0.647664       -17.6238
  39   2.0000      -0.629180       -17.1209
  40   2.0000      -0.598168       -16.2770
  41   2.0000      -0.578508       -15.7420
  42   2.0000      -0.572478       -15.5779
  43   2.0000      -0.555745       -15.1226
  44   2.0000      -0.531751       -14.4697
  45   2.0000      -0.521165       -14.1816
  46   2.0000      -0.519205       -14.1283
  47   2.0000      -0.514184       -13.9917
  48   2.0000      -0.505792       -13.7633
  49   2.0000      -0.500761       -13.6264
  50   2.0000      -0.494886       -13.4665
  51   2.0000      -0.480087       -13.0638
  52   2.0000      -0.472923       -12.8689
  53   2.0000      -0.470110       -12.7923
  54   2.0000      -0.460764       -12.5380
  55   2.0000      -0.457298       -12.4437
  56   2.0000      -0.444088       -12.0842
  57   2.0000      -0.440371       -11.9831
  58   2.0000      -0.431107       -11.7310
  59   2.0000      -0.425457       -11.5773
  60   2.0000      -0.418136       -11.3781
  61   2.0000      -0.416568       -11.3354
  62   2.0000      -0.407669       -11.0932
  63   2.0000      -0.356122        -9.6906
  64   2.0000      -0.331890        -9.0312
  65   2.0000      -0.329598        -8.9688
  66   2.0000      -0.295072        -8.0293
  67   0.0000       0.030825         0.8388
  68   0.0000       0.076917         2.0930
  69   0.0000       0.104649         2.8476
  70   0.0000       0.116483         3.1697
  71   0.0000       0.138335         3.7643

MULLIKEN ATOMIC CHARGES
-----------------------
   0 S :    0.077895
   1 C :   -0.131354
   2 C :   -0.030846
   3 C :    0.041061
   4 C :   -0.123245
   5 H :   -0.027046
   6 C :    0.068292
   7 H :    0.003805
   8 H :    0.035772
   9 C :   -0.074508
  10 H :    0.015652
  11 H :    0.030989
  12 C :   -0.039845
  13 H :    0.020250
  14 H :    0.041481
  15 H :    0.014741
  16 S :    0.104447
  17 C :   -0.078090
  18 C :   -0.011817
  19 C :   -0.068450
  20 C :   -0.104410
  21 H :    0.010839
  22 C :    0.051426
  23 H :    0.026715
  24 H :    0.013991
  25 C :   -0.062074
  26 H :    0.037625
  27 H :    0.018802
  28 C :   -0.009673
  29 H :    0.010016
  30 H :    0.024893
  31 H :    0.025229
  32 H :    0.044075
  33 H :    0.043365
Sum of atomic charges:    0.0000000

LOEWDIN ATOMIC CHARGES
----------------------
   0 S :    0.390021
   1 C :   -0.169501
   2 C :   -0.053218
   3 C :   -0.060466
   4 C :   -0.190784
   5 H :    0.015951
   6 C :   -0.031121
   7 H :    0.019717
   8 H :    0.040230
   9 C :   -0.028742
  10 H :    0.010143
  11 H :    0.024180
  12 C :   -0.065495
  13 H :    0.019100
  14 H :    0.033993
  15 H :    0.018276
  16 S :    0.408401
  17 C :   -0.170606
  18 C :   -0.067456
  19 C :   -0.055362
  20 C :   -0.208545
  21 H :    0.032197
  22 C :   -0.029613
  23 H :    0.033038
  24 H :    0.020814
  25 C :   -0.039331
  26 H :    0.025009
  27 H :    0.023009
  28 C :   -0.060847
  29 H :    0.029086
  30 H :    0.024863
  31 H :    0.014425
  32 H :    0.022895
  33 H :    0.025738

  Mayer bond orders larger than 0.100000
B(  0-S ,  1-C ) :   1.1127 B(  0-S ,  4-C ) :   1.1557 B(  1-C ,  2-C ) :   1.6246
B(  1-C , 32-H ) :   0.9781 B(  2-C ,  3-C ) :   1.2013 B(  2-C ,  6-C ) :   1.0465
B(  3-C ,  4-C ) :   1.5943 B(  3-C ,  5-H ) :   1.0068 B(  4-C , 20-C ) :   1.0105
B(  6-C ,  7-H ) :   0.9428 B(  6-C ,  8-H ) :   0.9370 B(  6-C ,  9-C ) :   1.0560
B(  9-C , 10-H ) :   0.9586 B(  9-C , 11-H ) :   0.9615 B(  9-C , 12-C ) :   1.0771
B( 12-C , 13-H ) :   0.9756 B( 12-C , 14-H ) :   0.9767 B( 12-C , 15-H ) :   0.9742
B( 16-S , 17-C ) :   1.1526 B( 16-S , 20-C ) :   1.1297 B( 17-C , 18-C ) :   1.6329
B( 17-C , 33-H ) :   0.9646 B( 18-C , 19-C ) :   1.2279 B( 18-C , 21-H ) :   0.9993
B( 19-C , 20-C ) :   1.6193 B( 19-C , 22-C ) :   1.0420 B( 22-C , 23-H ) :   0.9357
B( 22-C , 24-H ) :   0.9343 B( 22-C , 25-C ) :   1.0590 B( 25-C , 26-H ) :   0.9577
B( 25-C , 27-H ) :   0.9511 B( 25-C , 28-C ) :   1.0801 B( 28-C , 29-H ) :   0.9681
B( 28-C , 30-H ) :   0.9737 B( 28-C , 31-H ) :   0.9737

Dispersion correction           -0.014019131
FINAL SINGLE POINT ENERGY     -1339.871093367285

DIPOLE MOMENT
-------------
                                X             Y             Z
Electronic contribution:    -19.16239      18.74040      12.57989
Nuclear contribution   :     19.64017     -19.14568     -12.59119
                        -----------------------------------------
Total Dipole Moment    :      0.47778      -0.40528      -0.01130
                        -----------------------------------------
Magnitude (a.u.)       :      0.62662
Magnitude (Debye)      :      1.59274

Rotational constants in cm-1:     0.018117     0.008329     0.006868
Rotational constants in MHz :   543.148231   249.711971   205.906577

                             ****ORCA TERMINATED NORMALLY****
TOTAL RUN TIME: 0 days 0 hours 0 minutes 29 seconds 676 msec
