                         Program Version 4.2.1 -  RELEASE  -
|  1> ! wB97X-D3 SP def2-SVP
|  2> %pal
|  3> nprocs 16
|  4> end
|  5>
|  6> * xyz 0 1
|  7> S 	 53.8537 	 28.2447 	 42.7848
|  8> C 	 54.6846 	 28.5024 	 44.2641
|  9> C 	 55.1747 	 27.2902 	 44.7176
| 10> C 	 54.8008 	 26.155 	 43.9101
| 11> C 	 54.1912 	 26.5103 	 42.69
| 12> H 	 54.838 	 25.0768 	 44.1909
| 13> C 	 55.8729 	 27.1377 	 46.0385
| 14> H 	 56.6072 	 27.9238 	 46.0809
| 15> H 	 56.2712 	 26.1963 	 45.94
| 16> C 	 54.9603 	 27.4439 	 47.2362
| 17> H 	 55.4142 	 27.0284 	 48.1421
| 18> H 	 54.7779 	 28.488 	 47.3328
| 19> C 	 53.6293 	 26.6501 	 47.1185
| 20> H 	 52.9648 	 27.2977 	 46.5469
| 21> H 	 53.7948 	 25.7014 	 46.5927
| 22> H 	 53.1726 	 26.5021 	 48.0857
| 23> S 	 52.2472 	 26.1255 	 40.7797
| 24> C 	 52.2373 	 24.672 	 39.8287
| 25> C 	 53.3669 	 23.9277 	 40.0772
| 26> C 	 54.3239 	 24.508 	 40.9757
| 27> C 	 53.7771 	 25.6598 	 41.5811
| 28> H 	 53.5956 	 23.0363 	 39.4813
| 29> C 	 55.6622 	 23.8355 	 41.316
| 30> H 	 55.6781 	 22.8312 	 40.8736
| 31> H 	 55.7556 	 23.5263 	 42.3437
| 32> C 	 56.9112 	 24.5043 	 40.8866
| 33> H 	 56.9304 	 25.5249 	 41.2643
| 34> H 	 57.0064 	 24.6236 	 39.7895
| 35> C 	 58.2356 	 23.9366 	 41.4158
| 36> H 	 59.0786 	 24.4881 	 40.991
| 37> H 	 58.3414 	 22.9048 	 41.2282
| 38> H 	 58.3305 	 24.0219 	 42.4797
| 39> H 	 54.8729 	 29.5089 	 44.5844
| 40> H 	 51.4664 	 24.2598 	 39.1626
| 41> *
| 42>
| 43>                          ****END OF INPUT****

CARTESIAN COORDINATES (ANGSTROEM)
---------------------------------
  S     53.853700   28.244700   42.784800
  C     54.684600   28.502400   44.264100
  C     55.174700   27.290200   44.717600
  C     54.800800   26.155000   43.910100
  C     54.191200   26.510300   42.690000
  H     54.838000   25.076800   44.190900
  C     55.872900   27.137700   46.038500
  H     56.607200   27.923800   46.080900
  H     56.271200   26.196300   45.940000
  C     54.960300   27.443900   47.236200
  H     55.414200   27.028400   48.142100
  H     54.777900   28.488000   47.332800
  C     53.629300   26.650100   47.118500
  H     52.964800   27.297700   46.546900
  H     53.794800   25.701400   46.592700
  H     53.172600   26.502100   48.085700
  S     52.247200   26.125500   40.779700
  C     52.237300   24.672000   39.828700
  C     53.366900   23.927700   40.077200
  C     54.323900   24.508000   40.975700
  C     53.777100   25.659800   41.581100
  H     53.595600   23.036300   39.481300
  C     55.662200   23.835500   41.316000
  H     55.678100   22.831200   40.873600
  H     55.755600   23.526300   42.343700
  C     56.911200   24.504300   40.886600
  H     56.930400   25.524900   41.264300
  H     57.006400   24.623600   39.789500
  C     58.235600   23.936600   41.415800
  H     59.078600   24.488100   40.991000
  H     58.341400   22.904800   41.228200
  H     58.330500   24.021900   42.479700
  H     54.872900   29.508900   44.584400
  H     51.466400   24.259800   39.162600

 Total Charge           Charge          ....    0
 Multiplicity           Mult            ....    1
 Number of Electrons    NEL             ....  134
 Basis Dimension        Dim             ....  322

ORBITAL ENERGIES
----------------

  NO   OCC          E(Eh)            E(eV)
   0   2.0000     -88.968536     -2420.9569
   1   2.0000     -88.963548     -2420.8212
   2   2.0000     -10.336856      -281.2801
   3   2.0000     -10.336615      -281.2736
   4   2.0000     -10.319855      -280.8175
   5   2.0000     -10.312518      -280.6179
   6   2.0000     -10.312285      -280.6115
   7   2.0000     -10.301963      -280.3307
   8   2.0000     -10.300857      -280.3006
   9   2.0000     -10.295427      -280.1528
  10   2.0000     -10.292010      -280.0598
  11   2.0000     -10.283205      -279.8202
  12   2.0000     -10.280527      -279.7474
  13   2.0000     -10.280167      -279.7376
  14   2.0000     -10.271335      -279.4972
  15   2.0000     -10.270470      -279.4737
  16   2.0000      -8.082874      -219.9462
  17   2.0000      -8.078654      -219.8314
  18   2.0000      -6.041483      -164.3971
  19   2.0000      -6.037388      -164.2857
  20   2.0000      -6.037156      -164.2794
  21   2.0000      -6.033582      -164.1821
  22   2.0000      -6.032933      -164.1645
  23   2.0000      -6.029574      -164.0730
  24   2.0000      -1.004844       -27.3432
  25   2.0000      -0.984546       -26.7909
  26   2.0000      -0.915224       -24.9045
  27   2.0000      -0.912847       -24.8398
  28   2.0000      -0.868844       -23.6425
  29   2.0000      -0.852281       -23.1917
  30   2.0000      -0.841365       -22.8947
  31   2.0000      -0.814144       -22.1540
  32   2.0000      -0.786557       -21.4033
  33   2.0000      -0.773109       -21.0374
  34   2.0000      -0.708872       -19.2894
  35   2.0000      -0.702374       -19.1126
  36   2.0000      -0.691875       -18.8269
  37   2.0000      -0.661697       -18.0057
  38   2.0000      -0.642277       -17.4772
  39   2.0000      -0.613876       -16.7044
  40   2.0000      -0.596670       -16.2362
  41   2.0000      -0.574442       -15.6314
  42   2.0000      -0.562024       -15.2935
  43   2.0000      -0.549328       -14.9480
  44   2.0000      -0.543783       -14.7971
  45   2.0000      -0.529631       -14.4120
  46   2.0000      -0.521386       -14.1876
  47   2.0000      -0.514037       -13.9877
  48   2.0000      -0.510598       -13.8941
  49   2.0000      -0.501754       -13.6534
  50   2.0000      -0.492596       -13.4042
  51   2.0000      -0.479889       -13.0584
  52   2.0000      -0.475055       -12.9269
  53   2.0000      -0.463969       -12.6252
  54   2.0000      -0.453695       -12.3457
  55   2.0000      -0.446707       -12.1555
  56   2.0000      -0.444426       -12.0935
  57   2.0000      -0.441224       -12.0063
  58   2.0000      -0.431997       -11.7552
  59   2.0000      -0.428974       -11.6730
  60   2.0000      -0.417702       -11.3663
  61   2.0000      -0.404872       -11.0171
  62   2.0000      -0.402745       -10.9593
  63   2.0000      -0.357220        -9.7205
  64   2.0000      -0.335350        -9.1253
  65   2.0000      -0.325180        -8.8486
  66   2.0000      -0.284147        -7.7320
  67   0.0000       0.016677         0.4538
  68   0.0000       0.072736         1.9792
  69   0.0000       0.103319         2.8115
  70   0.0000       0.118686         3.2296
  71   0.0000       0.134577         3.6620

MULLIKEN ATOMIC CHARGES
-----------------------
   0 S :    0.095576
   1 C :   -0.120484
   2 C :   -0.138244
   3 C :   -0.006124
   4 C :   -0.134556
   5 H :    0.041160
   6 C :    0.140228
   7 H :    0.021810
   8 H :   -0.000614
   9 C :   -0.074647
  10 H :    0.031436
  11 H :    0.026784
  12 C :   -0.045786
  13 H :    0.035037
  14 H :    0.028891
  15 H :    0.031561
  16 S :    0.104828
  17 C :   -0.080992
  18 C :   -0.052826
  19 C :   -0.023497
  20 C :   -0.154137
  21 H :    0.025846
  22 C :    0.087626
  23 H :    0.003348
  24 H :    0.015574
  25 C :   -0.086624
  26 H :    0.032641
  27 H :    0.030942
  28 C :   -0.025277
  29 H :    0.036097
  30 H :    0.013094
  31 H :    0.018890
  32 H :    0.055193
  33 H :    0.067247
Sum of atomic charges:    0.0000000

LOEWDIN ATOMIC CHARGES
----------------------
   0 S :    0.410154
   1 C :   -0.206574
   2 C :   -0.062631
   3 C :   -0.077556
   4 C :   -0.189151
   5 H :    0.038453
   6 C :   -0.024462
   7 H :    0.032899
   8 H :    0.017210
   9 C :   -0.031957
  10 H :    0.024901
  11 H :    0.018536
  12 C :   -0.063735
  13 H :    0.026772
  14 H :    0.024802
  15 H :    0.021248
  16 S :    0.399992
  17 C :   -0.196202
  18 C :   -0.075683
  19 C :   -0.049734
  20 C :   -0.179313
  21 H :    0.033295
  22 C :   -0.037199
  23 H :    0.031342
  24 H :    0.028570
  25 C :   -0.045698
  26 H :    0.027041
  27 H :    0.026940
  28 C :   -0.058156
  29 H :    0.032036
  30 H :    0.014018
  31 H :    0.020549
  32 H :    0.028035
  33 H :    0.041257

  Mayer bond orders larger than 0.100000
B(  0-S ,  1-C ) :   1.1502 B(  0-S ,  4-C ) :   1.1642 B(  1-C ,  2-C ) :   1.5615
B(  1-C ,  4-C ) :   0.1043 B(  1-C , 32-H ) :   0.9794 B(  2-C ,  3-C ) :   1.2612
B(  2-C ,  6-C ) :   1.0263 B(  3-C ,  4-C ) :   1.5409 B(  3-C ,  5-H ) :   0.9790
B(  4-C , 20-C ) :   1.0801 B(  6-C ,  7-H ) :   0.9340 B(  6-C ,  8-H ) :   0.9369
B(  6-C ,  9-C ) :   1.0786 B(  9-C , 10-H ) :   0.9615 B(  9-C , 11-H ) :   0.9575
B(  9-C , 12-C ) :   1.0717 B( 12-C , 13-H ) :   0.9709 B( 12-C , 14-H ) :   0.9785
B( 12-C , 15-H ) :   0.9774 B( 16-S , 17-C ) :   1.1445 B( 16-S , 20-C ) :   1.1373
B( 17-C , 18-C ) :   1.6220 B( 17-C , 33-H ) :   0.9620 B( 18-C , 19-C ) :   1.2604
B( 18-C , 21-H ) :   0.9765 B( 19-C , 20-C ) :   1.5645 B( 19-C , 22-C ) :   1.0344
B( 22-C , 23-H ) :   0.9221 B( 22-C , 24-H ) :   0.9359 B( 22-C , 25-C ) :   1.0693
B( 25-C , 26-H ) :   0.9543 B( 25-C , 27-H ) :   0.9523 B( 25-C , 28-C ) :   1.0877
B( 28-C , 29-H ) :   0.9728 B( 28-C , 30-H ) :   0.9748 B( 28-C , 31-H ) :   0.9728

Dispersion correction           -0.014554333
FINAL SINGLE POINT ENERGY     -1339.871938566726

DIPOLE MOMENT
-------------
                                X             Y             Z
Electronic contribution:    -17.63339      10.04467     -14.66428
Nuclear contribution   :     18.01095     -10.42458      14.94349
                        -----------------------------------------
Total Dipole Moment    :      0.37755      -0.37991       0.27922
                        -----------------------------------------
Magnitude (a.u.)       :      0.60402
Magnitude (Debye)      :      1.53530

Rotational constants in cm-1:     0.017869     0.009149     0.007097
Rotational constants in MHz :   535.699979   274.265548   212.760157

                             ****ORCA TERMINATED NORMALLY****
TOTAL RUN TIME: 0 days 0 hours 0 minutes 30 seconds 726 msec
