                         Program Version 4.2.1 -  RELEASE  -
|  1> ! wB97X-D3 SP def2-SVP
|  2> %pal
|  3> nprocs 16
|  4> end
|  5>
|  6> * xyz 0 1
|  7> S 	 -0.839994 	 -14.2847 	 86.0399
|  8> C 	 -0.123493 	 -15.6454 	 86.8646
|  9> C 	 -0.829716 	 -16.8116 	 86.7034
| 10> C 	 -2.07052 	 -16.4832 	 86.0185
| 11> C 	 -2.26553 	 -15.1636 	 85.628
| 12> H 	 -2.88862 	 -17.1788 	 85.9252
| 13> C 	 -0.573832 	 -18.1239 	 87.3916
| 14> H 	 -1.23733 	 -17.9996 	 88.2047
| 15> H 	 0.493506 	 -18.2049 	 87.6746
| 16> C 	 -1.11232 	 -19.4394 	 86.6217
| 17> H 	 -2.18333 	 -19.4131 	 86.5911
| 18> H 	 -0.846645 	 -19.3323 	 85.5389
| 19> C 	 -0.44002 	 -20.6957 	 87.2162
| 20> H 	 -0.474967 	 -20.6269 	 88.2725
| 21> H 	 -0.905566 	 -21.5609 	 86.7689
| 22> H 	 0.62257 	 -20.776 	 86.8893
| 23> S 	 -3.04696 	 -13.4937 	 83.635
| 24> C 	 -4.79829 	 -13.3439 	 83.2919
| 25> C 	 -5.50651 	 -14.066 	 84.2452
| 26> C 	 -4.73623 	 -14.6563 	 85.2414
| 27> C 	 -3.41972 	 -14.5413 	 85.0209
| 28> H 	 -6.54924 	 -14.0641 	 84.0889
| 29> C 	 -5.38783 	 -15.4489 	 86.3078
| 30> H 	 -5.882 	 -14.7782 	 87.0123
| 31> H 	 -4.62715 	 -15.8848 	 86.9302
| 32> C 	 -6.53642 	 -16.4363 	 85.8001
| 33> H 	 -6.15049 	 -17.0636 	 85.0002
| 34> H 	 -7.47306 	 -15.9053 	 85.5264
| 35> C 	 -6.99467 	 -17.2777 	 86.9588
| 36> H 	 -6.13268 	 -17.8322 	 87.3084
| 37> H 	 -7.7715 	 -17.9388 	 86.637
| 38> H 	 -7.47847 	 -16.7655 	 87.8091
| 39> H 	 0.857226 	 -15.5389 	 87.2571
| 40> H 	 -5.23173 	 -13.0585 	 82.3681
| 41> *
| 42>
| 43>                          ****END OF INPUT****

CARTESIAN COORDINATES (ANGSTROEM)
---------------------------------
  S     -0.839994  -14.284700   86.039900
  C     -0.123493  -15.645400   86.864600
  C     -0.829716  -16.811600   86.703400
  C     -2.070520  -16.483200   86.018500
  C     -2.265530  -15.163600   85.628000
  H     -2.888620  -17.178800   85.925200
  C     -0.573832  -18.123900   87.391600
  H     -1.237330  -17.999600   88.204700
  H      0.493506  -18.204900   87.674600
  C     -1.112320  -19.439400   86.621700
  H     -2.183330  -19.413100   86.591100
  H     -0.846645  -19.332300   85.538900
  C     -0.440020  -20.695700   87.216200
  H     -0.474967  -20.626900   88.272500
  H     -0.905566  -21.560900   86.768900
  H      0.622570  -20.776000   86.889300
  S     -3.046960  -13.493700   83.635000
  C     -4.798290  -13.343900   83.291900
  C     -5.506510  -14.066000   84.245200
  C     -4.736230  -14.656300   85.241400
  C     -3.419720  -14.541300   85.020900
  H     -6.549240  -14.064100   84.088900
  C     -5.387830  -15.448900   86.307800
  H     -5.882000  -14.778200   87.012300
  H     -4.627150  -15.884800   86.930200
  C     -6.536420  -16.436300   85.800100
  H     -6.150490  -17.063600   85.000200
  H     -7.473060  -15.905300   85.526400
  C     -6.994670  -17.277700   86.958800
  H     -6.132680  -17.832200   87.308400
  H     -7.771500  -17.938800   86.637000
  H     -7.478470  -16.765500   87.809100
  H      0.857226  -15.538900   87.257100
  H     -5.231730  -13.058500   82.368100

 Total Charge           Charge          ....    0
 Multiplicity           Mult            ....    1
 Number of Electrons    NEL             ....  134
 Basis Dimension        Dim             ....  322

ORBITAL ENERGIES
----------------

  NO   OCC          E(Eh)            E(eV)
   0   2.0000     -88.962724     -2420.7988
   1   2.0000     -88.960466     -2420.7373
   2   2.0000     -10.326479      -280.9978
   3   2.0000     -10.323933      -280.9285
   4   2.0000     -10.315873      -280.7092
   5   2.0000     -10.307329      -280.4767
   6   2.0000     -10.302821      -280.3540
   7   2.0000     -10.297062      -280.1973
   8   2.0000     -10.295361      -280.1510
   9   2.0000     -10.294335      -280.1231
  10   2.0000     -10.294185      -280.1190
  11   2.0000     -10.292790      -280.0810
  12   2.0000     -10.290128      -280.0086
  13   2.0000     -10.287556      -279.9386
  14   2.0000     -10.281934      -279.7856
  15   2.0000     -10.275634      -279.6142
  16   2.0000      -8.076708      -219.7784
  17   2.0000      -8.076036      -219.7601
  18   2.0000      -6.035272      -164.2281
  19   2.0000      -6.034544      -164.2083
  20   2.0000      -6.031428      -164.1235
  21   2.0000      -6.030383      -164.0951
  22   2.0000      -6.027336      -164.0121
  23   2.0000      -6.026799      -163.9975
  24   2.0000      -1.009460       -27.4688
  25   2.0000      -0.985368       -26.8132
  26   2.0000      -0.911184       -24.7946
  27   2.0000      -0.907522       -24.6949
  28   2.0000      -0.872004       -23.7284
  29   2.0000      -0.858884       -23.3714
  30   2.0000      -0.845023       -22.9943
  31   2.0000      -0.814843       -22.1730
  32   2.0000      -0.781288       -21.2599
  33   2.0000      -0.773575       -21.0500
  34   2.0000      -0.713613       -19.4184
  35   2.0000      -0.703462       -19.1422
  36   2.0000      -0.696407       -18.9502
  37   2.0000      -0.663644       -18.0587
  38   2.0000      -0.643085       -17.4992
  39   2.0000      -0.619045       -16.8451
  40   2.0000      -0.597801       -16.2670
  41   2.0000      -0.573751       -15.6126
  42   2.0000      -0.569638       -15.5006
  43   2.0000      -0.562787       -15.3142
  44   2.0000      -0.539944       -14.6926
  45   2.0000      -0.530531       -14.4365
  46   2.0000      -0.513588       -13.9754
  47   2.0000      -0.512059       -13.9338
  48   2.0000      -0.506466       -13.7816
  49   2.0000      -0.504118       -13.7177
  50   2.0000      -0.490231       -13.3399
  51   2.0000      -0.481794       -13.1103
  52   2.0000      -0.471978       -12.8432
  53   2.0000      -0.465257       -12.6603
  54   2.0000      -0.461707       -12.5637
  55   2.0000      -0.449955       -12.2439
  56   2.0000      -0.448619       -12.2075
  57   2.0000      -0.433351       -11.7921
  58   2.0000      -0.432165       -11.7598
  59   2.0000      -0.428080       -11.6487
  60   2.0000      -0.422850       -11.5063
  61   2.0000      -0.418005       -11.3745
  62   2.0000      -0.411130       -11.1874
  63   2.0000      -0.349018        -9.4973
  64   2.0000      -0.331317        -9.0156
  65   2.0000      -0.324684        -8.8351
  66   2.0000      -0.289062        -7.8658
  67   0.0000       0.031422         0.8550
  68   0.0000       0.069960         1.9037
  69   0.0000       0.106379         2.8947
  70   0.0000       0.117669         3.2019
  71   0.0000       0.124179         3.3791

MULLIKEN ATOMIC CHARGES
-----------------------
   0 S :    0.103932
   1 C :   -0.131255
   2 C :   -0.063589
   3 C :    0.003335
   4 C :   -0.147465
   5 H :   -0.002957
   6 C :    0.050239
   7 H :    0.045078
   8 H :    0.038034
   9 C :   -0.121721
  10 H :    0.031500
  11 H :    0.038980
  12 C :   -0.018255
  13 H :    0.034007
  14 H :    0.034086
  15 H :    0.039265
  16 S :    0.085675
  17 C :   -0.075719
  18 C :   -0.051267
  19 C :    0.019024
  20 C :   -0.144323
  21 H :    0.004402
  22 C :    0.070711
  23 H :    0.026175
  24 H :    0.009205
  25 C :   -0.094763
  26 H :    0.044366
  27 H :    0.040976
  28 C :   -0.038649
  29 H :    0.024076
  30 H :    0.026235
  31 H :    0.032670
  32 H :    0.037769
  33 H :    0.050219
Sum of atomic charges:   -0.0000000

LOEWDIN ATOMIC CHARGES
----------------------
   0 S :    0.411424
   1 C :   -0.195675
   2 C :   -0.060921
   3 C :   -0.070929
   4 C :   -0.202163
   5 H :    0.020383
   6 C :   -0.028169
   7 H :    0.035506
   8 H :    0.034688
   9 C :   -0.039691
  10 H :    0.016718
  11 H :    0.028021
  12 C :   -0.060197
  13 H :    0.020416
  14 H :    0.027279
  15 H :    0.033373
  16 S :    0.372569
  17 C :   -0.165832
  18 C :   -0.057943
  19 C :   -0.065787
  20 C :   -0.179269
  21 H :    0.025728
  22 C :   -0.029542
  23 H :    0.036385
  24 H :    0.025072
  25 C :   -0.035091
  26 H :    0.026067
  27 H :    0.030060
  28 C :   -0.067103
  29 H :    0.021403
  30 H :    0.022744
  31 H :    0.028139
  32 H :    0.018131
  33 H :    0.024205

  Mayer bond orders larger than 0.100000
B(  0-S ,  1-C ) :   1.1414 B(  0-S ,  4-C ) :   1.1546 B(  1-C ,  2-C ) :   1.6081
B(  1-C , 32-H ) :   0.9726 B(  2-C ,  3-C ) :   1.2254 B(  2-C ,  6-C ) :   1.0233
B(  3-C ,  4-C ) :   1.5822 B(  3-C ,  5-H ) :   0.9935 B(  4-C , 20-C ) :   1.0303
B(  6-C ,  7-H ) :   0.9332 B(  6-C ,  8-H ) :   0.9494 B(  6-C ,  9-C ) :   1.0478
B(  9-C , 10-H ) :   0.9536 B(  9-C , 11-H ) :   0.9666 B(  9-C , 12-C ) :   1.0776
B( 12-C , 13-H ) :   0.9758 B( 12-C , 14-H ) :   0.9726 B( 12-C , 15-H ) :   0.9755
B( 16-S , 17-C ) :   1.1326 B( 16-S , 20-C ) :   1.1246 B( 17-C , 18-C ) :   1.6410
B( 17-C , 20-C ) :   0.1034 B( 17-C , 33-H ) :   0.9674 B( 18-C , 19-C ) :   1.1977
B( 18-C , 21-H ) :   0.9979 B( 19-C , 20-C ) :   1.6289 B( 19-C , 22-C ) :   1.0632
B( 22-C , 23-H ) :   0.9146 B( 22-C , 24-H ) :   0.9359 B( 22-C , 25-C ) :   1.0552
B( 25-C , 26-H ) :   0.9609 B( 25-C , 27-H ) :   0.9456 B( 25-C , 28-C ) :   1.0953
B( 28-C , 29-H ) :   0.9740 B( 28-C , 30-H ) :   0.9714 B( 28-C , 31-H ) :   0.9721

Dispersion correction           -0.013631188
FINAL SINGLE POINT ENERGY     -1339.866989919357

DIPOLE MOMENT
-------------
                                X             Y             Z
Electronic contribution:     10.45028      27.69010     -12.14561
Nuclear contribution   :    -10.93973     -28.44544      12.42573
                        -----------------------------------------
Total Dipole Moment    :     -0.48946      -0.75534       0.28012
                        -----------------------------------------
Magnitude (a.u.)       :      0.94264
Magnitude (Debye)      :      2.39600

Rotational constants in cm-1:     0.016331     0.009058     0.006406
Rotational constants in MHz :   489.603427   271.542893   192.049489

                             ****ORCA TERMINATED NORMALLY****
TOTAL RUN TIME: 0 days 0 hours 0 minutes 31 seconds 777 msec
