                         Program Version 4.2.1 -  RELEASE  -
|  1> ! wB97X-D3 SP def2-SVP
|  2> %pal
|  3> nprocs 16
|  4> end
|  5>
|  6> * xyz 0 1
|  7> S 	 -55.083 	 44.9881 	 113.486
|  8> C 	 -54.6965 	 45.6317 	 111.891
|  9> C 	 -54.2142 	 44.6011 	 111.089
| 10> C 	 -53.9371 	 43.3631 	 111.797
| 11> C 	 -54.3626 	 43.4275 	 113.087
| 12> H 	 -53.5758 	 42.4076 	 111.462
| 13> C 	 -54.2057 	 44.7561 	 109.628
| 14> H 	 -53.2419 	 44.6147 	 109.267
| 15> H 	 -54.5034 	 45.711 	 109.3
| 16> C 	 -55.0709 	 43.6303 	 108.874
| 17> H 	 -54.8733 	 42.6411 	 109.287
| 18> H 	 -56.1183 	 43.7246 	 109.257
| 19> C 	 -55.0331 	 43.7007 	 107.298
| 20> H 	 -55.392 	 44.5842 	 106.871
| 21> H 	 -53.9846 	 43.5558 	 106.912
| 22> H 	 -55.6683 	 42.8841 	 106.92
| 23> S 	 -53.1892 	 41.9102 	 115.07
| 24> C 	 -54.1455 	 40.6634 	 115.816
| 25> C 	 -55.4345 	 40.5906 	 115.313
| 26> C 	 -55.7119 	 41.6198 	 114.354
| 27> C 	 -54.5691 	 42.3686 	 114.069
| 28> H 	 -56.1507 	 39.8291 	 115.74
| 29> C 	 -56.9327 	 41.7516 	 113.543
| 30> H 	 -56.9425 	 41.0788 	 112.68
| 31> H 	 -56.9755 	 42.767 	 113.08
| 32> C 	 -58.2852 	 41.5359 	 114.302
| 33> H 	 -58.2808 	 40.5156 	 114.65
| 34> H 	 -59.2121 	 41.6217 	 113.688
| 35> C 	 -58.5397 	 42.5779 	 115.442
| 36> H 	 -59.3938 	 42.3847 	 116.084
| 37> H 	 -58.8352 	 43.5273 	 115.023
| 38> H 	 -57.7157 	 42.496 	 116.193
| 39> H 	 -55.0957 	 46.6285 	 111.562
| 40> H 	 -53.8591 	 39.9984 	 116.554
| 41> *
| 42>
| 43>                          ****END OF INPUT****

CARTESIAN COORDINATES (ANGSTROEM)
---------------------------------
  S    -55.083000   44.988100  113.486000
  C    -54.696500   45.631700  111.891000
  C    -54.214200   44.601100  111.089000
  C    -53.937100   43.363100  111.797000
  C    -54.362600   43.427500  113.087000
  H    -53.575800   42.407600  111.462000
  C    -54.205700   44.756100  109.628000
  H    -53.241900   44.614700  109.267000
  H    -54.503400   45.711000  109.300000
  C    -55.070900   43.630300  108.874000
  H    -54.873300   42.641100  109.287000
  H    -56.118300   43.724600  109.257000
  C    -55.033100   43.700700  107.298000
  H    -55.392000   44.584200  106.871000
  H    -53.984600   43.555800  106.912000
  H    -55.668300   42.884100  106.920000
  S    -53.189200   41.910200  115.070000
  C    -54.145500   40.663400  115.816000
  C    -55.434500   40.590600  115.313000
  C    -55.711900   41.619800  114.354000
  C    -54.569100   42.368600  114.069000
  H    -56.150700   39.829100  115.740000
  C    -56.932700   41.751600  113.543000
  H    -56.942500   41.078800  112.680000
  H    -56.975500   42.767000  113.080000
  C    -58.285200   41.535900  114.302000
  H    -58.280800   40.515600  114.650000
  H    -59.212100   41.621700  113.688000
  C    -58.539700   42.577900  115.442000
  H    -59.393800   42.384700  116.084000
  H    -58.835200   43.527300  115.023000
  H    -57.715700   42.496000  116.193000
  H    -55.095700   46.628500  111.562000
  H    -53.859100   39.998400  116.554000

 Total Charge           Charge          ....    0
 Multiplicity           Mult            ....    1
 Number of Electrons    NEL             ....  134
 Basis Dimension        Dim             ....  322

ORBITAL ENERGIES
----------------

  NO   OCC          E(Eh)            E(eV)
   0   2.0000     -88.968237     -2420.9488
   1   2.0000     -88.960384     -2420.7351
   2   2.0000     -10.327668      -281.0301
   3   2.0000     -10.324954      -280.9563
   4   2.0000     -10.318193      -280.7723
   5   2.0000     -10.312875      -280.6276
   6   2.0000     -10.305074      -280.4153
   7   2.0000     -10.304975      -280.4126
   8   2.0000     -10.299360      -280.2598
   9   2.0000     -10.298492      -280.2362
  10   2.0000     -10.296425      -280.1800
  11   2.0000     -10.290675      -280.0235
  12   2.0000     -10.289007      -279.9781
  13   2.0000     -10.285244      -279.8757
  14   2.0000     -10.283000      -279.8147
  15   2.0000     -10.275093      -279.5995
  16   2.0000      -8.082706      -219.9416
  17   2.0000      -8.074793      -219.7263
  18   2.0000      -6.041114      -164.3871
  19   2.0000      -6.037241      -164.2817
  20   2.0000      -6.033607      -164.1828
  21   2.0000      -6.033345      -164.1757
  22   2.0000      -6.029292      -164.0654
  23   2.0000      -6.025565      -163.9640
  24   2.0000      -1.005649       -27.3651
  25   2.0000      -0.982209       -26.7273
  26   2.0000      -0.906598       -24.6698
  27   2.0000      -0.904091       -24.6016
  28   2.0000      -0.866285       -23.5728
  29   2.0000      -0.844941       -22.9920
  30   2.0000      -0.843155       -22.9434
  31   2.0000      -0.820263       -22.3205
  32   2.0000      -0.782880       -21.3033
  33   2.0000      -0.767749       -20.8915
  34   2.0000      -0.713008       -19.4019
  35   2.0000      -0.699475       -19.0337
  36   2.0000      -0.692223       -18.8363
  37   2.0000      -0.656071       -17.8526
  38   2.0000      -0.645056       -17.5529
  39   2.0000      -0.617329       -16.7984
  40   2.0000      -0.598636       -16.2897
  41   2.0000      -0.566836       -15.4244
  42   2.0000      -0.550931       -14.9916
  43   2.0000      -0.548774       -14.9329
  44   2.0000      -0.542302       -14.7568
  45   2.0000      -0.523613       -14.2482
  46   2.0000      -0.518824       -14.1179
  47   2.0000      -0.510581       -13.8936
  48   2.0000      -0.505084       -13.7440
  49   2.0000      -0.497767       -13.5449
  50   2.0000      -0.482463       -13.1285
  51   2.0000      -0.480111       -13.0645
  52   2.0000      -0.472460       -12.8563
  53   2.0000      -0.466518       -12.6946
  54   2.0000      -0.457297       -12.4437
  55   2.0000      -0.454315       -12.3625
  56   2.0000      -0.442159       -12.0317
  57   2.0000      -0.438763       -11.9394
  58   2.0000      -0.434347       -11.8192
  59   2.0000      -0.419901       -11.4261
  60   2.0000      -0.415671       -11.3110
  61   2.0000      -0.414305       -11.2738
  62   2.0000      -0.409002       -11.1295
  63   2.0000      -0.336654        -9.1608
  64   2.0000      -0.333302        -9.0696
  65   2.0000      -0.317708        -8.6453
  66   2.0000      -0.305909        -8.3242
  67   0.0000       0.042561         1.1581
  68   0.0000       0.055473         1.5095
  69   0.0000       0.110647         3.0109
  70   0.0000       0.119575         3.2538
  71   0.0000       0.124326         3.3831

MULLIKEN ATOMIC CHARGES
-----------------------
   0 S :    0.095785
   1 C :   -0.133175
   2 C :   -0.102720
   3 C :    0.072664
   4 C :   -0.183326
   5 H :    0.013367
   6 C :    0.146310
   7 H :    0.007060
   8 H :    0.000494
   9 C :   -0.132041
  10 H :    0.026834
  11 H :    0.027764
  12 C :   -0.034950
  13 H :    0.026414
  14 H :    0.038735
  15 H :    0.039933
  16 S :    0.126041
  17 C :   -0.056463
  18 C :   -0.073424
  19 C :    0.008939
  20 C :   -0.195547
  21 H :    0.044444
  22 C :    0.067104
  23 H :    0.043714
  24 H :    0.029224
  25 C :   -0.095453
  26 H :    0.021107
  27 H :    0.032400
  28 C :   -0.058632
  29 H :    0.018792
  30 H :    0.034357
  31 H :    0.045255
  32 H :    0.073456
  33 H :    0.025539
Sum of atomic charges:    0.0000000

LOEWDIN ATOMIC CHARGES
----------------------
   0 S :    0.392657
   1 C :   -0.203227
   2 C :   -0.057580
   3 C :   -0.055862
   4 C :   -0.184971
   5 H :    0.035018
   6 C :   -0.022771
   7 H :    0.020916
   8 H :    0.022079
   9 C :   -0.041092
  10 H :    0.020492
  11 H :    0.025597
  12 C :   -0.064181
  13 H :    0.016092
  14 H :    0.030984
  15 H :    0.032572
  16 S :    0.412656
  17 C :   -0.177702
  18 C :   -0.077529
  19 C :   -0.054274
  20 C :   -0.204703
  21 H :    0.042476
  22 C :   -0.037316
  23 H :    0.036994
  24 H :    0.031406
  25 C :   -0.043436
  26 H :    0.014646
  27 H :    0.028721
  28 C :   -0.074381
  29 H :    0.024118
  30 H :    0.025896
  31 H :    0.031178
  32 H :    0.039123
  33 H :    0.015401

  Mayer bond orders larger than 0.100000
B(  0-S ,  1-C ) :   1.1206 B(  0-S ,  4-C ) :   1.1548 B(  1-C ,  2-C ) :   1.6294
B(  1-C , 32-H ) :   0.9634 B(  2-C ,  3-C ) :   1.1798 B(  2-C ,  6-C ) :   1.0576
B(  3-C ,  4-C ) :   1.6295 B(  3-C ,  5-H ) :   0.9937 B(  4-C , 20-C ) :   0.9946
B(  6-C ,  7-H ) :   0.9233 B(  6-C ,  8-H ) :   0.9430 B(  6-C ,  9-C ) :   1.0392
B(  9-C , 10-H ) :   0.9592 B(  9-C , 11-H ) :   0.9574 B(  9-C , 12-C ) :   1.0703
B( 12-C , 13-H ) :   0.9784 B( 12-C , 14-H ) :   0.9765 B( 12-C , 15-H ) :   0.9748
B( 16-S , 17-C ) :   1.1569 B( 16-S , 20-C ) :   1.1472 B( 17-C , 18-C ) :   1.6295
B( 17-C , 33-H ) :   0.9713 B( 18-C , 19-C ) :   1.2190 B( 18-C , 21-H ) :   0.9772
B( 19-C , 20-C ) :   1.5952 B( 19-C , 22-C ) :   1.0569 B( 22-C , 23-H ) :   0.9344
B( 22-C , 24-H ) :   0.9228 B( 22-C , 25-C ) :   1.0595 B( 25-C , 26-H ) :   0.9573
B( 25-C , 27-H ) :   0.9599 B( 25-C , 28-C ) :   1.0755 B( 28-C , 29-H ) :   0.9728
B( 28-C , 30-H ) :   0.9759 B( 28-C , 31-H ) :   0.9737

Dispersion correction           -0.014862785
FINAL SINGLE POINT ENERGY     -1339.870561122162

DIPOLE MOMENT
-------------
                                X             Y             Z
Electronic contribution:     16.42557       2.85065      17.58874
Nuclear contribution   :    -16.87564      -3.16053     -18.09130
                        -----------------------------------------
Total Dipole Moment    :     -0.45007      -0.30988      -0.50256
                        -----------------------------------------
Magnitude (a.u.)       :      0.74240
Magnitude (Debye)      :      1.88704

Rotational constants in cm-1:     0.019224     0.008086     0.007312
Rotational constants in MHz :   576.324588   242.419148   219.222315

                             ****ORCA TERMINATED NORMALLY****
TOTAL RUN TIME: 0 days 0 hours 0 minutes 30 seconds 176 msec
