                         Program Version 4.2.1 -  RELEASE  -
|  1> ! wB97X-D3 SP def2-SVP
|  2> %pal
|  3> nprocs 16
|  4> end
|  5>
|  6> * xyz 0 1
|  7> S 	 -0.739865 	 6.31899 	 83.1686
|  8> C 	 0.59896 	 6.91123 	 82.1743
|  9> C 	 0.132262 	 7.49922 	 81.0065
| 10> C 	 -1.30913 	 7.33913 	 80.934
| 11> C 	 -1.97895 	 6.82585 	 81.9799
| 12> H 	 -1.97193 	 7.70331 	 80.2261
| 13> C 	 0.895026 	 8.11155 	 79.8613
| 14> H 	 1.9026 	 8.3744 	 80.2348
| 15> H 	 0.385113 	 9.02765 	 79.507
| 16> C 	 1.25936 	 7.15355 	 78.7779
| 17> H 	 1.56062 	 6.1917 	 79.2742
| 18> H 	 0.365834 	 6.93919 	 78.2075
| 19> C 	 2.41887 	 7.56433 	 77.856
| 20> H 	 2.32789 	 6.88065 	 76.9794
| 21> H 	 2.19712 	 8.59539 	 77.4217
| 22> H 	 3.41869 	 7.51449 	 78.2953
| 23> S 	 -3.79883 	 5.13575 	 82.9793
| 24> C 	 -5.46255 	 5.33374 	 82.6191
| 25> C 	 -5.72845 	 6.60212 	 82.1054
| 26> C 	 -4.55187 	 7.33414 	 81.8318
| 27> C 	 -3.38178 	 6.60053 	 82.1319
| 28> H 	 -6.76384 	 6.87474 	 82.0046
| 29> C 	 -4.64561 	 8.68245 	 81.1494
| 30> H 	 -4.92454 	 8.41839 	 80.1413
| 31> H 	 -3.64365 	 9.0828 	 81.0473
| 32> C 	 -5.72757 	 9.77792 	 81.6233
| 33> H 	 -5.82915 	 9.6833 	 82.7299
| 34> H 	 -6.7553 	 9.61379 	 81.2658
| 35> C 	 -5.48571 	 11.2426 	 81.1376
| 36> H 	 -4.52329 	 11.7158 	 81.4732
| 37> H 	 -6.34232 	 11.9023 	 81.3653
| 38> H 	 -5.48133 	 11.2042 	 80.0844
| 39> H 	 1.66736 	 6.75883 	 82.3213
| 40> H 	 -6.19852 	 4.63504 	 82.9163
| 41> *
| 42>
| 43>                          ****END OF INPUT****

CARTESIAN COORDINATES (ANGSTROEM)
---------------------------------
  S     -0.739865    6.318990   83.168600
  C      0.598960    6.911230   82.174300
  C      0.132262    7.499220   81.006500
  C     -1.309130    7.339130   80.934000
  C     -1.978950    6.825850   81.979900
  H     -1.971930    7.703310   80.226100
  C      0.895026    8.111550   79.861300
  H      1.902600    8.374400   80.234800
  H      0.385113    9.027650   79.507000
  C      1.259360    7.153550   78.777900
  H      1.560620    6.191700   79.274200
  H      0.365834    6.939190   78.207500
  C      2.418870    7.564330   77.856000
  H      2.327890    6.880650   76.979400
  H      2.197120    8.595390   77.421700
  H      3.418690    7.514490   78.295300
  S     -3.798830    5.135750   82.979300
  C     -5.462550    5.333740   82.619100
  C     -5.728450    6.602120   82.105400
  C     -4.551870    7.334140   81.831800
  C     -3.381780    6.600530   82.131900
  H     -6.763840    6.874740   82.004600
  C     -4.645610    8.682450   81.149400
  H     -4.924540    8.418390   80.141300
  H     -3.643650    9.082800   81.047300
  C     -5.727570    9.777920   81.623300
  H     -5.829150    9.683300   82.729900
  H     -6.755300    9.613790   81.265800
  C     -5.485710   11.242600   81.137600
  H     -4.523290   11.715800   81.473200
  H     -6.342320   11.902300   81.365300
  H     -5.481330   11.204200   80.084400
  H      1.667360    6.758830   82.321300
  H     -6.198520    4.635040   82.916300

 Total Charge           Charge          ....    0
 Multiplicity           Mult            ....    1
 Number of Electrons    NEL             ....  134
 Basis Dimension        Dim             ....  322

ORBITAL ENERGIES
----------------

  NO   OCC          E(Eh)            E(eV)
   0   2.0000     -88.966293     -2420.8959
   1   2.0000     -88.961869     -2420.7755
   2   2.0000     -10.328951      -281.0651
   3   2.0000     -10.326491      -280.9981
   4   2.0000     -10.317772      -280.7608
   5   2.0000     -10.315177      -280.6902
   6   2.0000     -10.311795      -280.5982
   7   2.0000     -10.303597      -280.3751
   8   2.0000     -10.301293      -280.3124
   9   2.0000     -10.297899      -280.2201
  10   2.0000     -10.294149      -280.1180
  11   2.0000     -10.292256      -280.0665
  12   2.0000     -10.288149      -279.9548
  13   2.0000     -10.285179      -279.8739
  14   2.0000     -10.285132      -279.8727
  15   2.0000     -10.282588      -279.8035
  16   2.0000      -8.082012      -219.9227
  17   2.0000      -8.075816      -219.7541
  18   2.0000      -6.040344      -164.3661
  19   2.0000      -6.036397      -164.2587
  20   2.0000      -6.034699      -164.2125
  21   2.0000      -6.032881      -164.1630
  22   2.0000      -6.030447      -164.0968
  23   2.0000      -6.026190      -163.9810
  24   2.0000      -1.010254       -27.4904
  25   2.0000      -0.983462       -26.7614
  26   2.0000      -0.917036       -24.9538
  27   2.0000      -0.901958       -24.5435
  28   2.0000      -0.874802       -23.8046
  29   2.0000      -0.855689       -23.2845
  30   2.0000      -0.841299       -22.8929
  31   2.0000      -0.818426       -22.2705
  32   2.0000      -0.783548       -21.3214
  33   2.0000      -0.772625       -21.0242
  34   2.0000      -0.709834       -19.3156
  35   2.0000      -0.701828       -19.0977
  36   2.0000      -0.692512       -18.8442
  37   2.0000      -0.662477       -18.0269
  38   2.0000      -0.644568       -17.5396
  39   2.0000      -0.620042       -16.8722
  40   2.0000      -0.597828       -16.2677
  41   2.0000      -0.575035       -15.6475
  42   2.0000      -0.564201       -15.3527
  43   2.0000      -0.559165       -15.2157
  44   2.0000      -0.529515       -14.4088
  45   2.0000      -0.521021       -14.1777
  46   2.0000      -0.513754       -13.9800
  47   2.0000      -0.513021       -13.9600
  48   2.0000      -0.508617       -13.8402
  49   2.0000      -0.507424       -13.8077
  50   2.0000      -0.486845       -13.2477
  51   2.0000      -0.482663       -13.1339
  52   2.0000      -0.475344       -12.9348
  53   2.0000      -0.468751       -12.7554
  54   2.0000      -0.458802       -12.4846
  55   2.0000      -0.453627       -12.3438
  56   2.0000      -0.443475       -12.0676
  57   2.0000      -0.432869       -11.7790
  58   2.0000      -0.430922       -11.7260
  59   2.0000      -0.421934       -11.4814
  60   2.0000      -0.420551       -11.4438
  61   2.0000      -0.419266       -11.4088
  62   2.0000      -0.409996       -11.1565
  63   2.0000      -0.356384        -9.6977
  64   2.0000      -0.332462        -9.0467
  65   2.0000      -0.324964        -8.8427
  66   2.0000      -0.286202        -7.7880
  67   0.0000       0.024228         0.6593
  68   0.0000       0.073313         1.9950
  69   0.0000       0.104841         2.8529
  70   0.0000       0.122365         3.3297
  71   0.0000       0.135743         3.6938

MULLIKEN ATOMIC CHARGES
-----------------------
   0 S :    0.086309
   1 C :   -0.112284
   2 C :   -0.087564
   3 C :    0.023418
   4 C :   -0.117736
   5 H :   -0.028440
   6 C :    0.082606
   7 H :    0.008332
   8 H :    0.037749
   9 C :   -0.087179
  10 H :    0.033484
  11 H :    0.023300
  12 C :   -0.068808
  13 H :    0.042210
  14 H :    0.035682
  15 H :    0.049933
  16 S :    0.112958
  17 C :   -0.078815
  18 C :   -0.044297
  19 C :   -0.020869
  20 C :   -0.163489
  21 H :    0.019188
  22 C :    0.069858
  23 H :    0.037148
  24 H :    0.023506
  25 C :   -0.096541
  26 H :    0.043328
  27 H :    0.030263
  28 C :   -0.060885
  29 H :    0.048478
  30 H :    0.041689
  31 H :    0.020332
  32 H :    0.050245
  33 H :    0.046888
Sum of atomic charges:   -0.0000000

LOEWDIN ATOMIC CHARGES
----------------------
   0 S :    0.365264
   1 C :   -0.189326
   2 C :   -0.058597
   3 C :   -0.067249
   4 C :   -0.177048
   5 H :    0.015269
   6 C :   -0.038341
   7 H :    0.031275
   8 H :    0.034293
   9 C :   -0.047781
  10 H :    0.030947
  11 H :    0.019954
  12 C :   -0.072480
  13 H :    0.034159
  14 H :    0.030237
  15 H :    0.026214
  16 S :    0.432327
  17 C :   -0.184317
  18 C :   -0.071137
  19 C :   -0.048993
  20 C :   -0.202145
  21 H :    0.032363
  22 C :   -0.034680
  23 H :    0.035159
  24 H :    0.027631
  25 C :   -0.042247
  26 H :    0.025706
  27 H :    0.025709
  28 C :   -0.067396
  29 H :    0.029989
  30 H :    0.032593
  31 H :    0.018130
  32 H :    0.033285
  33 H :    0.021233

  Mayer bond orders larger than 0.100000
B(  0-S ,  1-C ) :   1.1237 B(  0-S ,  4-C ) :   1.0935 B(  1-C ,  2-C ) :   1.6362
B(  1-C , 32-H ) :   0.9631 B(  2-C ,  3-C ) :   1.1878 B(  2-C ,  6-C ) :   1.0449
B(  3-C ,  4-C ) :   1.6411 B(  3-C ,  5-H ) :   0.9988 B(  4-C , 20-C ) :   1.0836
B(  6-C ,  7-H ) :   0.9326 B(  6-C ,  8-H ) :   0.9333 B(  6-C ,  9-C ) :   1.0653
B(  9-C , 10-H ) :   0.9511 B(  9-C , 11-H ) :   0.9533 B(  9-C , 12-C ) :   1.0855
B( 12-C , 13-H ) :   0.9737 B( 12-C , 14-H ) :   0.9722 B( 12-C , 15-H ) :   0.9740
B( 16-S , 17-C ) :   1.1840 B( 16-S , 20-C ) :   1.1475 B( 17-C , 18-C ) :   1.5747
B( 17-C , 20-C ) :   0.1089 B( 17-C , 33-H ) :   0.9734 B( 18-C , 19-C ) :   1.2535
B( 18-C , 21-H ) :   0.9987 B( 19-C , 20-C ) :   1.5338 B( 19-C , 22-C ) :   1.0550
B( 22-C , 23-H ) :   0.9300 B( 22-C , 24-H ) :   0.9352 B( 22-C , 25-C ) :   1.0332
B( 25-C , 26-H ) :   0.9673 B( 25-C , 27-H ) :   0.9534 B( 25-C , 28-C ) :   1.0793
B( 28-C , 29-H ) :   0.9771 B( 28-C , 30-H ) :   0.9751 B( 28-C , 31-H ) :   0.9748

Dispersion correction           -0.013131432
FINAL SINGLE POINT ENERGY     -1339.866874785699

DIPOLE MOMENT
-------------
                                X             Y             Z
Electronic contribution:     -3.19479     -19.78932      20.29365
Nuclear contribution   :      2.91506      20.17216     -20.90078
                        -----------------------------------------
Total Dipole Moment    :     -0.27972       0.38284      -0.60713
                        -----------------------------------------
Magnitude (a.u.)       :      0.77033
Magnitude (Debye)      :      1.95803

Rotational constants in cm-1:     0.016989     0.007794     0.006036
Rotational constants in MHz :   509.316725   233.664610   180.962223

                             ****ORCA TERMINATED NORMALLY****
TOTAL RUN TIME: 0 days 0 hours 0 minutes 32 seconds 302 msec
