                         Program Version 4.2.1 -  RELEASE  -
|  1> ! wB97X-D3 SP def2-SVP
|  2> %pal
|  3> nprocs 16
|  4> end
|  5>
|  6> * xyz 0 1
|  7> S 	 9.4649 	 22.1844 	 44.5955
|  8> C 	 9.36012 	 20.455 	 44.6933
|  9> C 	 10.5533 	 19.8305 	 44.4377
| 10> C 	 11.4382 	 20.7886 	 43.911
| 11> C 	 10.9808 	 22.0838 	 43.7916
| 12> H 	 12.4833 	 20.6677 	 43.627
| 13> C 	 10.8687 	 18.3975 	 44.593
| 14> H 	 11.9624 	 18.3881 	 44.7171
| 15> H 	 10.7414 	 17.768 	 43.6231
| 16> C 	 10.0478 	 17.6927 	 45.6795
| 17> H 	 8.99259 	 17.5406 	 45.3655
| 18> H 	 10.262 	 16.647 	 45.6571
| 19> C 	 10.3671 	 18.2233 	 47.1356
| 20> H 	 11.4256 	 18.2595 	 47.1746
| 21> H 	 9.92982 	 19.2271 	 47.2024
| 22> H 	 10.034 	 17.4767 	 47.8667
| 23> S 	 12.0413 	 24.4854 	 44.4447
| 24> C 	 12.7989 	 25.4605 	 43.2145
| 25> C 	 12.5972 	 24.9757 	 41.9262
| 26> C 	 11.9689 	 23.6963 	 42.0186
| 27> C 	 11.6923 	 23.269 	 43.2839
| 28> H 	 13.0182 	 25.601 	 41.1887
| 29> C 	 11.9797 	 22.8175 	 40.7616
| 30> H 	 11.4315 	 21.8878 	 40.9138
| 31> H 	 13.017 	 22.497 	 40.6372
| 32> C 	 11.6731 	 23.4644 	 39.4896
| 33> H 	 12.4919 	 24.1093 	 39.2598
| 34> H 	 10.8056 	 24.1724 	 39.5383
| 35> C 	 11.535 	 22.4713 	 38.2728
| 36> H 	 10.5183 	 22.1544 	 37.9562
| 37> H 	 12.0342 	 21.5227 	 38.4271
| 38> H 	 11.8855 	 23.0748 	 37.4502
| 39> H 	 8.44373 	 19.8967 	 45.0076
| 40> H 	 13.2539 	 26.3743 	 43.4527
| 41> *
| 42>
| 43>                          ****END OF INPUT****

CARTESIAN COORDINATES (ANGSTROEM)
---------------------------------
  S      9.464900   22.184400   44.595500
  C      9.360120   20.455000   44.693300
  C     10.553300   19.830500   44.437700
  C     11.438200   20.788600   43.911000
  C     10.980800   22.083800   43.791600
  H     12.483300   20.667700   43.627000
  C     10.868700   18.397500   44.593000
  H     11.962400   18.388100   44.717100
  H     10.741400   17.768000   43.623100
  C     10.047800   17.692700   45.679500
  H      8.992590   17.540600   45.365500
  H     10.262000   16.647000   45.657100
  C     10.367100   18.223300   47.135600
  H     11.425600   18.259500   47.174600
  H      9.929820   19.227100   47.202400
  H     10.034000   17.476700   47.866700
  S     12.041300   24.485400   44.444700
  C     12.798900   25.460500   43.214500
  C     12.597200   24.975700   41.926200
  C     11.968900   23.696300   42.018600
  C     11.692300   23.269000   43.283900
  H     13.018200   25.601000   41.188700
  C     11.979700   22.817500   40.761600
  H     11.431500   21.887800   40.913800
  H     13.017000   22.497000   40.637200
  C     11.673100   23.464400   39.489600
  H     12.491900   24.109300   39.259800
  H     10.805600   24.172400   39.538300
  C     11.535000   22.471300   38.272800
  H     10.518300   22.154400   37.956200
  H     12.034200   21.522700   38.427100
  H     11.885500   23.074800   37.450200
  H      8.443730   19.896700   45.007600
  H     13.253900   26.374300   43.452700

 Total Charge           Charge          ....    0
 Multiplicity           Mult            ....    1
 Number of Electrons    NEL             ....  134
 Basis Dimension        Dim             ....  322

ORBITAL ENERGIES
----------------

  NO   OCC          E(Eh)            E(eV)
   0   2.0000     -88.963374     -2420.8165
   1   2.0000     -88.962370     -2420.7892
   2   2.0000     -10.323032      -280.9040
   3   2.0000     -10.320905      -280.8461
   4   2.0000     -10.312984      -280.6306
   5   2.0000     -10.311527      -280.5909
   6   2.0000     -10.303263      -280.3661
   7   2.0000     -10.299557      -280.2652
   8   2.0000     -10.294710      -280.1333
   9   2.0000     -10.292865      -280.0831
  10   2.0000     -10.288849      -279.9738
  11   2.0000     -10.287945      -279.9492
  12   2.0000     -10.282094      -279.7900
  13   2.0000     -10.281858      -279.7836
  14   2.0000     -10.279033      -279.7067
  15   2.0000     -10.278958      -279.7047
  16   2.0000      -8.079003      -219.8409
  17   2.0000      -8.078294      -219.8216
  18   2.0000      -6.037378      -164.2854
  19   2.0000      -6.036626      -164.2649
  20   2.0000      -6.033490      -164.1796
  21   2.0000      -6.032667      -164.1572
  22   2.0000      -6.029748      -164.0778
  23   2.0000      -6.029141      -164.0613
  24   2.0000      -1.013831       -27.5878
  25   2.0000      -0.992269       -27.0010
  26   2.0000      -0.915300       -24.9066
  27   2.0000      -0.912418       -24.8281
  28   2.0000      -0.867451       -23.6045
  29   2.0000      -0.848896       -23.0996
  30   2.0000      -0.846286       -23.0286
  31   2.0000      -0.813057       -22.1244
  32   2.0000      -0.783394       -21.3172
  33   2.0000      -0.775153       -21.0930
  34   2.0000      -0.712900       -19.3990
  35   2.0000      -0.702340       -19.1117
  36   2.0000      -0.695445       -18.9240
  37   2.0000      -0.659795       -17.9539
  38   2.0000      -0.638715       -17.3803
  39   2.0000      -0.613313       -16.6891
  40   2.0000      -0.597818       -16.2675
  41   2.0000      -0.578499       -15.7418
  42   2.0000      -0.563571       -15.3356
  43   2.0000      -0.551186       -14.9985
  44   2.0000      -0.541030       -14.7222
  45   2.0000      -0.527088       -14.3428
  46   2.0000      -0.518196       -14.1008
  47   2.0000      -0.509578       -13.8663
  48   2.0000      -0.501655       -13.6507
  49   2.0000      -0.495748       -13.4900
  50   2.0000      -0.486827       -13.2472
  51   2.0000      -0.479244       -13.0409
  52   2.0000      -0.473231       -12.8773
  53   2.0000      -0.467216       -12.7136
  54   2.0000      -0.459211       -12.4958
  55   2.0000      -0.450020       -12.2457
  56   2.0000      -0.441959       -12.0263
  57   2.0000      -0.440853       -11.9962
  58   2.0000      -0.435193       -11.8422
  59   2.0000      -0.423330       -11.5194
  60   2.0000      -0.415950       -11.3186
  61   2.0000      -0.414008       -11.2657
  62   2.0000      -0.403578       -10.9819
  63   2.0000      -0.340347        -9.2613
  64   2.0000      -0.328722        -8.9450
  65   2.0000      -0.326424        -8.8825
  66   2.0000      -0.297970        -8.1082
  67   0.0000       0.044519         1.2114
  68   0.0000       0.057138         1.5548
  69   0.0000       0.114080         3.1043
  70   0.0000       0.120959         3.2915
  71   0.0000       0.130854         3.5607

MULLIKEN ATOMIC CHARGES
-----------------------
   0 S :    0.121263
   1 C :   -0.151041
   2 C :   -0.051692
   3 C :    0.016131
   4 C :   -0.162734
   5 H :    0.006714
   6 C :    0.033301
   7 H :    0.026055
   8 H :    0.055289
   9 C :   -0.094392
  10 H :    0.026680
  11 H :    0.006528
  12 C :   -0.021071
  13 H :    0.023925
  14 H :    0.053078
  15 H :    0.042271
  16 S :    0.105743
  17 C :   -0.088342
  18 C :   -0.034323
  19 C :    0.013657
  20 C :   -0.176259
  21 H :    0.014915
  22 C :    0.075369
  23 H :    0.025998
  24 H :    0.032091
  25 C :   -0.110112
  26 H :    0.020287
  27 H :    0.034968
  28 C :   -0.038786
  29 H :    0.035191
  30 H :    0.030993
  31 H :    0.030033
  32 H :    0.062697
  33 H :    0.035575
Sum of atomic charges:   -0.0000000

LOEWDIN ATOMIC CHARGES
----------------------
   0 S :    0.422472
   1 C :   -0.202187
   2 C :   -0.076378
   3 C :   -0.064765
   4 C :   -0.208240
   5 H :    0.030555
   6 C :   -0.040379
   7 H :    0.033076
   8 H :    0.046905
   9 C :   -0.053358
  10 H :    0.026581
  11 H :    0.019821
  12 C :   -0.055676
  13 H :    0.021855
  14 H :    0.029481
  15 H :    0.029649
  16 S :    0.418015
  17 C :   -0.167578
  18 C :   -0.067857
  19 C :   -0.049139
  20 C :   -0.214918
  21 H :    0.031358
  22 C :   -0.036678
  23 H :    0.026766
  24 H :    0.036619
  25 C :   -0.046338
  26 H :    0.017266
  27 H :    0.027782
  28 C :   -0.064496
  29 H :    0.029050
  30 H :    0.024148
  31 H :    0.027390
  32 H :    0.035524
  33 H :    0.013674

  Mayer bond orders larger than 0.100000
B(  0-S ,  1-C ) :   1.1560 B(  0-S ,  4-C ) :   1.1548 B(  1-C ,  2-C ) :   1.5905
B(  1-C , 32-H ) :   0.9562 B(  2-C ,  3-C ) :   1.2440 B(  2-C ,  6-C ) :   1.0192
B(  3-C ,  4-C ) :   1.5897 B(  3-C ,  5-H ) :   0.9942 B(  4-C , 20-C ) :   1.0080
B(  6-C ,  7-H ) :   0.9401 B(  6-C ,  8-H ) :   0.9284 B(  6-C ,  9-C ) :   1.0902
B(  9-C , 10-H ) :   0.9455 B(  9-C , 11-H ) :   0.9476 B(  9-C , 12-C ) :   1.0544
B( 12-C , 13-H ) :   0.9749 B( 12-C , 14-H ) :   0.9771 B( 12-C , 15-H ) :   0.9770
B( 16-S , 17-C ) :   1.1721 B( 16-S , 20-C ) :   1.1429 B( 17-C , 18-C ) :   1.6190
B( 17-C , 33-H ) :   0.9716 B( 18-C , 19-C ) :   1.1891 B( 18-C , 21-H ) :   1.0057
B( 19-C , 20-C ) :   1.6327 B( 19-C , 22-C ) :   1.0459 B( 22-C , 23-H ) :   0.9397
B( 22-C , 24-H ) :   0.9311 B( 22-C , 25-C ) :   1.0652 B( 25-C , 26-H ) :   0.9523
B( 25-C , 27-H ) :   0.9606 B( 25-C , 28-C ) :   1.0659 B( 28-C , 29-H ) :   0.9773
B( 28-C , 30-H ) :   0.9762 B( 28-C , 31-H ) :   0.9783

Dispersion correction           -0.013765526
FINAL SINGLE POINT ENERGY     -1339.856548362202

DIPOLE MOMENT
-------------
                                X             Y             Z
Electronic contribution:     -1.77286      18.21596      11.57762
Nuclear contribution   :      2.07952     -18.60650     -11.90970
                        -----------------------------------------
Total Dipole Moment    :      0.30666      -0.39053      -0.33208
                        -----------------------------------------
Magnitude (a.u.)       :      0.59736
Magnitude (Debye)      :      1.51836

Rotational constants in cm-1:     0.020996     0.007626     0.006200
Rotational constants in MHz :   629.435382   228.621138   185.863302

                             ****ORCA TERMINATED NORMALLY****
TOTAL RUN TIME: 0 days 0 hours 0 minutes 35 seconds 613 msec
