                         Program Version 4.2.1 -  RELEASE  -
|  1> ! wB97X-D3 SP def2-SVP
|  2> %pal
|  3> nprocs 16
|  4> end
|  5>
|  6> * xyz 0 1
|  7> S 	 -68.6806 	 46.9395 	 123.698
|  8> C 	 -67.4086 	 48.1115 	 123.689
|  9> C 	 -67.8497 	 49.4318 	 123.834
| 10> C 	 -69.2716 	 49.4033 	 123.834
| 11> C 	 -69.9259 	 48.2081 	 123.678
| 12> H 	 -69.8909 	 50.2536 	 123.823
| 13> C 	 -66.9122 	 50.6942 	 123.894
| 14> H 	 -66.0582 	 50.583 	 124.569
| 15> H 	 -67.426 	 51.5195 	 124.306
| 16> C 	 -66.4042 	 51.1581 	 122.525
| 17> H 	 -65.9417 	 50.3994 	 121.913
| 18> H 	 -67.3594 	 51.4087 	 121.962
| 19> C 	 -65.3628 	 52.2838 	 122.528
| 20> H 	 -65.7827 	 53.1942 	 122.892
| 21> H 	 -64.4653 	 51.9062 	 123.062
| 22> H 	 -64.9062 	 52.5077 	 121.508
| 23> S 	 -71.8717 	 47.2213 	 121.95
| 24> C 	 -73.3815 	 46.8054 	 122.685
| 25> C 	 -73.5638 	 47.2221 	 123.998
| 26> C 	 -72.3924 	 47.9728 	 124.492
| 27> C 	 -71.3383 	 47.9414 	 123.567
| 28> H 	 -74.4748 	 47.1635 	 124.547
| 29> C 	 -72.338 	 48.5175 	 125.832
| 30> H 	 -71.3705 	 48.6113 	 126.199
| 31> H 	 -72.826 	 47.7964 	 126.501
| 32> C 	 -73.0038 	 49.8603 	 125.978
| 33> H 	 -73.0259 	 50.0482 	 127.108
| 34> H 	 -74.0252 	 49.8711 	 125.612
| 35> C 	 -72.3031 	 51.0587 	 125.281
| 36> H 	 -71.2203 	 51.0966 	 125.442
| 37> H 	 -72.7701 	 52.0999 	 125.427
| 38> H 	 -72.3189 	 50.975 	 124.206
| 39> H 	 -66.366 	 47.9 	 123.902
| 40> H 	 -74.1966 	 46.3517 	 122.205
| 41> *
| 42>
| 43>                          ****END OF INPUT****

CARTESIAN COORDINATES (ANGSTROEM)
---------------------------------
  S    -68.680600   46.939500  123.698000
  C    -67.408600   48.111500  123.689000
  C    -67.849700   49.431800  123.834000
  C    -69.271600   49.403300  123.834000
  C    -69.925900   48.208100  123.678000
  H    -69.890900   50.253600  123.823000
  C    -66.912200   50.694200  123.894000
  H    -66.058200   50.583000  124.569000
  H    -67.426000   51.519500  124.306000
  C    -66.404200   51.158100  122.525000
  H    -65.941700   50.399400  121.913000
  H    -67.359400   51.408700  121.962000
  C    -65.362800   52.283800  122.528000
  H    -65.782700   53.194200  122.892000
  H    -64.465300   51.906200  123.062000
  H    -64.906200   52.507700  121.508000
  S    -71.871700   47.221300  121.950000
  C    -73.381500   46.805400  122.685000
  C    -73.563800   47.222100  123.998000
  C    -72.392400   47.972800  124.492000
  C    -71.338300   47.941400  123.567000
  H    -74.474800   47.163500  124.547000
  C    -72.338000   48.517500  125.832000
  H    -71.370500   48.611300  126.199000
  H    -72.826000   47.796400  126.501000
  C    -73.003800   49.860300  125.978000
  H    -73.025900   50.048200  127.108000
  H    -74.025200   49.871100  125.612000
  C    -72.303100   51.058700  125.281000
  H    -71.220300   51.096600  125.442000
  H    -72.770100   52.099900  125.427000
  H    -72.318900   50.975000  124.206000
  H    -66.366000   47.900000  123.902000
  H    -74.196600   46.351700  122.205000

 Total Charge           Charge          ....    0
 Multiplicity           Mult            ....    1
 Number of Electrons    NEL             ....  134
 Basis Dimension        Dim             ....  322

ORBITAL ENERGIES
----------------

  NO   OCC          E(Eh)            E(eV)
   0   2.0000     -88.966277     -2420.8955
   1   2.0000     -88.965668     -2420.8789
   2   2.0000     -10.331703      -281.1399
   3   2.0000     -10.326613      -281.0014
   4   2.0000     -10.317301      -280.7480
   5   2.0000     -10.314407      -280.6693
   6   2.0000     -10.308708      -280.5142
   7   2.0000     -10.306669      -280.4587
   8   2.0000     -10.297826      -280.2181
   9   2.0000     -10.296410      -280.1796
  10   2.0000     -10.294711      -280.1333
  11   2.0000     -10.289737      -279.9980
  12   2.0000     -10.287897      -279.9479
  13   2.0000     -10.284872      -279.8656
  14   2.0000     -10.283694      -279.8335
  15   2.0000     -10.282984      -279.8142
  16   2.0000      -8.080207      -219.8736
  17   2.0000      -8.080093      -219.8705
  18   2.0000      -6.038684      -164.3209
  19   2.0000      -6.038593      -164.3185
  20   2.0000      -6.034941      -164.2191
  21   2.0000      -6.034645      -164.2110
  22   2.0000      -6.031103      -164.1147
  23   2.0000      -6.030701      -164.1037
  24   2.0000      -1.000948       -27.2372
  25   2.0000      -0.977976       -26.6121
  26   2.0000      -0.918419       -24.9914
  27   2.0000      -0.907701       -24.6998
  28   2.0000      -0.868120       -23.6228
  29   2.0000      -0.846971       -23.0473
  30   2.0000      -0.845413       -23.0049
  31   2.0000      -0.812707       -22.1149
  32   2.0000      -0.788360       -21.4524
  33   2.0000      -0.774545       -21.0764
  34   2.0000      -0.709116       -19.2960
  35   2.0000      -0.694607       -18.9012
  36   2.0000      -0.694114       -18.8878
  37   2.0000      -0.660890       -17.9837
  38   2.0000      -0.646493       -17.5920
  39   2.0000      -0.619597       -16.8601
  40   2.0000      -0.604458       -16.4481
  41   2.0000      -0.573188       -15.5972
  42   2.0000      -0.563035       -15.3210
  43   2.0000      -0.550399       -14.9771
  44   2.0000      -0.541517       -14.7354
  45   2.0000      -0.518697       -14.1145
  46   2.0000      -0.516194       -14.0464
  47   2.0000      -0.512982       -13.9590
  48   2.0000      -0.504356       -13.7242
  49   2.0000      -0.494875       -13.4662
  50   2.0000      -0.493437       -13.4271
  51   2.0000      -0.474398       -12.9090
  52   2.0000      -0.467461       -12.7203
  53   2.0000      -0.466046       -12.6818
  54   2.0000      -0.457812       -12.4577
  55   2.0000      -0.447403       -12.1744
  56   2.0000      -0.446189       -12.1414
  57   2.0000      -0.440207       -11.9786
  58   2.0000      -0.432223       -11.7614
  59   2.0000      -0.422595       -11.4994
  60   2.0000      -0.420902       -11.4533
  61   2.0000      -0.415523       -11.3070
  62   2.0000      -0.412530       -11.2255
  63   2.0000      -0.338941        -9.2231
  64   2.0000      -0.333765        -9.0822
  65   2.0000      -0.324205        -8.8221
  66   2.0000      -0.298509        -8.1229
  67   0.0000       0.033279         0.9056
  68   0.0000       0.053218         1.4481
  69   0.0000       0.105173         2.8619
  70   0.0000       0.117371         3.1938
  71   0.0000       0.120357         3.2751

MULLIKEN ATOMIC CHARGES
-----------------------
   0 S :    0.124555
   1 C :   -0.109054
   2 C :   -0.093220
   3 C :    0.060535
   4 C :   -0.167948
   5 H :   -0.028331
   6 C :    0.103815
   7 H :    0.020262
   8 H :    0.007886
   9 C :   -0.101601
  10 H :    0.026403
  11 H :    0.033376
  12 C :   -0.055077
  13 H :    0.033840
  14 H :    0.034459
  15 H :    0.041038
  16 S :    0.105079
  17 C :   -0.049664
  18 C :   -0.030105
  19 C :   -0.022898
  20 C :   -0.200122
  21 H :    0.013356
  22 C :    0.106348
  23 H :    0.011494
  24 H :    0.027453
  25 C :   -0.078497
  26 H :    0.043038
  27 H :    0.028556
  28 C :   -0.087953
  29 H :    0.028868
  30 H :    0.048997
  31 H :    0.033854
  32 H :    0.051530
  33 H :    0.039731
Sum of atomic charges:    0.0000000

LOEWDIN ATOMIC CHARGES
----------------------
   0 S :    0.408988
   1 C :   -0.196159
   2 C :   -0.063138
   3 C :   -0.056062
   4 C :   -0.200856
   5 H :    0.018439
   6 C :   -0.025222
   7 H :    0.027919
   8 H :    0.024674
   9 C :   -0.049705
  10 H :    0.020936
  11 H :    0.029153
  12 C :   -0.069656
  13 H :    0.018193
  14 H :    0.029368
  15 H :    0.036178
  16 S :    0.374794
  17 C :   -0.172071
  18 C :   -0.069262
  19 C :   -0.033854
  20 C :   -0.179169
  21 H :    0.026766
  22 C :   -0.034580
  23 H :    0.025699
  24 H :    0.039642
  25 C :   -0.035250
  26 H :    0.033216
  27 H :    0.022210
  28 C :   -0.080751
  29 H :    0.020649
  30 H :    0.038764
  31 H :    0.021261
  32 H :    0.028979
  33 H :    0.019909

  Mayer bond orders larger than 0.100000
B(  0-S ,  1-C ) :   1.1722 B(  0-S ,  4-C ) :   1.1261 B(  1-C ,  2-C ) :   1.5926
B(  1-C , 32-H ) :   0.9580 B(  2-C ,  3-C ) :   1.2613 B(  2-C ,  6-C ) :   1.0194
B(  3-C ,  4-C ) :   1.5840 B(  3-C ,  5-H ) :   0.9954 B(  4-C , 20-C ) :   1.0616
B(  6-C ,  7-H ) :   0.9430 B(  6-C ,  8-H ) :   0.9389 B(  6-C ,  9-C ) :   1.0541
B(  9-C , 10-H ) :   0.9611 B(  9-C , 11-H ) :   0.9551 B(  9-C , 12-C ) :   1.0790
B( 12-C , 13-H ) :   0.9776 B( 12-C , 14-H ) :   0.9710 B( 12-C , 15-H ) :   0.9740
B( 16-S , 17-C ) :   1.1525 B( 16-S , 20-C ) :   1.1019 B( 17-C , 18-C ) :   1.6376
B( 17-C , 33-H ) :   0.9660 B( 18-C , 19-C ) :   1.2046 B( 18-C , 21-H ) :   0.9859
B( 19-C , 20-C ) :   1.6124 B( 19-C , 22-C ) :   1.0712 B( 22-C , 23-H ) :   0.9234
B( 22-C , 24-H ) :   0.9231 B( 22-C , 25-C ) :   1.0695 B( 25-C , 26-H ) :   0.9549
B( 25-C , 27-H ) :   0.9575 B( 25-C , 28-C ) :   1.0671 B( 28-C , 29-H ) :   0.9699
B( 28-C , 30-H ) :   0.9704 B( 28-C , 31-H ) :   0.9709

Dispersion correction           -0.014733915
FINAL SINGLE POINT ENERGY     -1339.866137992326

DIPOLE MOMENT
-------------
                                X             Y             Z
Electronic contribution:     -7.30826     -24.64983      -7.68532
Nuclear contribution   :      7.23409      25.10485       8.05646
                        -----------------------------------------
Total Dipole Moment    :     -0.07417       0.45502       0.37114
                        -----------------------------------------
Magnitude (a.u.)       :      0.59185
Magnitude (Debye)      :      1.50437

Rotational constants in cm-1:     0.020688     0.007797     0.006616
Rotational constants in MHz :   620.208399   233.758120   198.335444

                             ****ORCA TERMINATED NORMALLY****
TOTAL RUN TIME: 0 days 0 hours 0 minutes 34 seconds 41 msec
