                         Program Version 4.2.1 -  RELEASE  -
|  1> ! wB97X-D3 SP def2-SVP
|  2> %pal
|  3> nprocs 16
|  4> end
|  5>
|  6> * xyz 0 1
|  7> S 	 4.76404 	 -13.8591 	 87.2803
|  8> C 	 3.72423 	 -13.8202 	 88.6956
|  9> C 	 4.03418 	 -14.8174 	 89.6221
| 10> C 	 5.06277 	 -15.6062 	 89.0485
| 11> C 	 5.55166 	 -15.2622 	 87.8535
| 12> H 	 5.55099 	 -16.4314 	 89.5222
| 13> C 	 3.40015 	 -14.8667 	 90.9947
| 14> H 	 2.41152 	 -14.5284 	 90.8088
| 15> H 	 3.99944 	 -14.287 	 91.747
| 16> C 	 3.47871 	 -16.301 	 91.5918
| 17> H 	 3.30121 	 -16.9628 	 90.7937
| 18> H 	 4.52069 	 -16.472 	 91.9648
| 19> C 	 2.58597 	 -16.5202 	 92.8125
| 20> H 	 2.5917 	 -15.7173 	 93.5989
| 21> H 	 1.57979 	 -16.4284 	 92.4153
| 22> H 	 2.73355 	 -17.4711 	 93.3227
| 23> S 	 8.03039 	 -15.2003 	 86.7308
| 24> C 	 8.46901 	 -16.5096 	 85.5923
| 25> C 	 7.47961 	 -17.4643 	 85.501
| 26> C 	 6.38093 	 -17.1937 	 86.3526
| 27> C 	 6.51663 	 -15.9644 	 86.9869
| 28> H 	 7.57402 	 -18.3264 	 84.835
| 29> C 	 5.21084 	 -18.1619 	 86.377
| 30> H 	 4.98294 	 -18.4322 	 87.394
| 31> H 	 5.55014 	 -19.1171 	 86.0064
| 32> C 	 3.97173 	 -17.4931 	 85.5853
| 33> H 	 4.21602 	 -17.3822 	 84.5451
| 34> H 	 3.75502 	 -16.4278 	 85.869
| 35> C 	 2.7552 	 -18.3701 	 85.7395
| 36> H 	 2.00141 	 -18.0934 	 85.1026
| 37> H 	 2.33611 	 -18.298 	 86.7551
| 38> H 	 3.02012 	 -19.3672 	 85.3818
| 39> H 	 2.99619 	 -12.9756 	 88.926
| 40> H 	 9.30319 	 -16.5914 	 84.9909
| 41> *
| 42>
| 43>                          ****END OF INPUT****

CARTESIAN COORDINATES (ANGSTROEM)
---------------------------------
  S      4.764040  -13.859100   87.280300
  C      3.724230  -13.820200   88.695600
  C      4.034180  -14.817400   89.622100
  C      5.062770  -15.606200   89.048500
  C      5.551660  -15.262200   87.853500
  H      5.550990  -16.431400   89.522200
  C      3.400150  -14.866700   90.994700
  H      2.411520  -14.528400   90.808800
  H      3.999440  -14.287000   91.747000
  C      3.478710  -16.301000   91.591800
  H      3.301210  -16.962800   90.793700
  H      4.520690  -16.472000   91.964800
  C      2.585970  -16.520200   92.812500
  H      2.591700  -15.717300   93.598900
  H      1.579790  -16.428400   92.415300
  H      2.733550  -17.471100   93.322700
  S      8.030390  -15.200300   86.730800
  C      8.469010  -16.509600   85.592300
  C      7.479610  -17.464300   85.501000
  C      6.380930  -17.193700   86.352600
  C      6.516630  -15.964400   86.986900
  H      7.574020  -18.326400   84.835000
  C      5.210840  -18.161900   86.377000
  H      4.982940  -18.432200   87.394000
  H      5.550140  -19.117100   86.006400
  C      3.971730  -17.493100   85.585300
  H      4.216020  -17.382200   84.545100
  H      3.755020  -16.427800   85.869000
  C      2.755200  -18.370100   85.739500
  H      2.001410  -18.093400   85.102600
  H      2.336110  -18.298000   86.755100
  H      3.020120  -19.367200   85.381800
  H      2.996190  -12.975600   88.926000
  H      9.303190  -16.591400   84.990900

 Total Charge           Charge          ....    0
 Multiplicity           Mult            ....    1
 Number of Electrons    NEL             ....  134
 Basis Dimension        Dim             ....  322

ORBITAL ENERGIES
----------------

  NO   OCC          E(Eh)            E(eV)
   0   2.0000     -88.968297     -2420.9504
   1   2.0000     -88.963947     -2420.8321
   2   2.0000     -10.321610      -280.8653
   3   2.0000     -10.318202      -280.7726
   4   2.0000     -10.317422      -280.7513
   5   2.0000     -10.311339      -280.5858
   6   2.0000     -10.300908      -280.3020
   7   2.0000     -10.298371      -280.2329
   8   2.0000     -10.297285      -280.2034
   9   2.0000     -10.291986      -280.0592
  10   2.0000     -10.290878      -280.0290
  11   2.0000     -10.287406      -279.9346
  12   2.0000     -10.286268      -279.9036
  13   2.0000     -10.284359      -279.8516
  14   2.0000     -10.282239      -279.7939
  15   2.0000     -10.266305      -279.3604
  16   2.0000      -8.082756      -219.9430
  17   2.0000      -8.079157      -219.8450
  18   2.0000      -6.041252      -164.3908
  19   2.0000      -6.037562      -164.2904
  20   2.0000      -6.037345      -164.2845
  21   2.0000      -6.033518      -164.1804
  22   2.0000      -6.033486      -164.1795
  23   2.0000      -6.030095      -164.0872
  24   2.0000      -1.011456       -27.5231
  25   2.0000      -0.986289       -26.8383
  26   2.0000      -0.914807       -24.8932
  27   2.0000      -0.900746       -24.5106
  28   2.0000      -0.869210       -23.6524
  29   2.0000      -0.851709       -23.1762
  30   2.0000      -0.846522       -23.0350
  31   2.0000      -0.818678       -22.2774
  32   2.0000      -0.782850       -21.3024
  33   2.0000      -0.767577       -20.8868
  34   2.0000      -0.711133       -19.3509
  35   2.0000      -0.699709       -19.0400
  36   2.0000      -0.683660       -18.6033
  37   2.0000      -0.660187       -17.9646
  38   2.0000      -0.644994       -17.5512
  39   2.0000      -0.618766       -16.8375
  40   2.0000      -0.593661       -16.1543
  41   2.0000      -0.581966       -15.8361
  42   2.0000      -0.562634       -15.3101
  43   2.0000      -0.555739       -15.1224
  44   2.0000      -0.526296       -14.3212
  45   2.0000      -0.524934       -14.2842
  46   2.0000      -0.514115       -13.9898
  47   2.0000      -0.508679       -13.8419
  48   2.0000      -0.501323       -13.6417
  49   2.0000      -0.497057       -13.5256
  50   2.0000      -0.490089       -13.3360
  51   2.0000      -0.486556       -13.2399
  52   2.0000      -0.473356       -12.8807
  53   2.0000      -0.463841       -12.6217
  54   2.0000      -0.458394       -12.4735
  55   2.0000      -0.450790       -12.2666
  56   2.0000      -0.442665       -12.0455
  57   2.0000      -0.435817       -11.8592
  58   2.0000      -0.428975       -11.6730
  59   2.0000      -0.425735       -11.5848
  60   2.0000      -0.419543       -11.4163
  61   2.0000      -0.417377       -11.3574
  62   2.0000      -0.414027       -11.2663
  63   2.0000      -0.340448        -9.2640
  64   2.0000      -0.331743        -9.0272
  65   2.0000      -0.324779        -8.8377
  66   2.0000      -0.299720        -8.1558
  67   0.0000       0.041682         1.1342
  68   0.0000       0.064100         1.7442
  69   0.0000       0.112965         3.0739
  70   0.0000       0.126001         3.4287
  71   0.0000       0.132258         3.5989

MULLIKEN ATOMIC CHARGES
-----------------------
   0 S :    0.116442
   1 C :   -0.158313
   2 C :   -0.103827
   3 C :    0.038976
   4 C :   -0.164930
   5 H :   -0.006839
   6 C :    0.100468
   7 H :    0.021656
   8 H :    0.056932
   9 C :   -0.113346
  10 H :    0.026374
  11 H :    0.035934
  12 C :   -0.035250
  13 H :    0.030598
  14 H :    0.021949
  15 H :    0.043569
  16 S :    0.123260
  17 C :   -0.055803
  18 C :   -0.050931
  19 C :   -0.024549
  20 C :   -0.192697
  21 H :    0.024118
  22 C :    0.117461
  23 H :    0.014904
  24 H :    0.005120
  25 C :   -0.096943
  26 H :    0.020654
  27 H :    0.042632
  28 C :    0.010550
  29 H :    0.004531
  30 H :    0.040327
  31 H :    0.019814
  32 H :    0.066785
  33 H :    0.020375
Sum of atomic charges:   -0.0000000

LOEWDIN ATOMIC CHARGES
----------------------
   0 S :    0.421656
   1 C :   -0.204801
   2 C :   -0.067716
   3 C :   -0.068493
   4 C :   -0.212435
   5 H :    0.026992
   6 C :   -0.023898
   7 H :    0.026465
   8 H :    0.044617
   9 C :   -0.041784
  10 H :    0.015727
  11 H :    0.027075
  12 C :   -0.069915
  13 H :    0.029559
  14 H :    0.023420
  15 H :    0.027696
  16 S :    0.413522
  17 C :   -0.167558
  18 C :   -0.067028
  19 C :   -0.054345
  20 C :   -0.216855
  21 H :    0.034943
  22 C :   -0.023296
  23 H :    0.026799
  24 H :    0.026175
  25 C :   -0.033207
  26 H :    0.020704
  27 H :    0.027794
  28 C :   -0.062445
  29 H :    0.012768
  30 H :    0.030484
  31 H :    0.025842
  32 H :    0.038528
  33 H :    0.013013

  Mayer bond orders larger than 0.100000
B(  0-S ,  1-C ) :   1.1553 B(  0-S ,  4-C ) :   1.1516 B(  1-C ,  2-C ) :   1.6072
B(  1-C , 32-H ) :   0.9581 B(  2-C ,  3-C ) :   1.2284 B(  2-C ,  6-C ) :   1.0144
B(  3-C ,  4-C ) :   1.6163 B(  3-C ,  5-H ) :   1.0063 B(  4-C , 20-C ) :   0.9750
B(  6-C ,  7-H ) :   0.9403 B(  6-C ,  8-H ) :   0.9308 B(  6-C ,  9-C ) :   1.0763
B(  9-C , 10-H ) :   0.9637 B(  9-C , 11-H ) :   0.9490 B(  9-C , 12-C ) :   1.0785
B( 12-C , 13-H ) :   0.9723 B( 12-C , 14-H ) :   0.9752 B( 12-C , 15-H ) :   0.9741
B( 16-S , 17-C ) :   1.1393 B( 16-S , 20-C ) :   1.1634 B( 17-C , 18-C ) :   1.6250
B( 17-C , 20-C ) :   0.1026 B( 17-C , 33-H ) :   0.9738 B( 18-C , 19-C ) :   1.2535
B( 18-C , 21-H ) :   0.9820 B( 19-C , 20-C ) :   1.5933 B( 19-C , 22-C ) :   1.0445
B( 22-C , 23-H ) :   0.9332 B( 22-C , 24-H ) :   0.9306 B( 22-C , 25-C ) :   1.0346
B( 25-C , 26-H ) :   0.9549 B( 25-C , 27-H ) :   0.9589 B( 25-C , 28-C ) :   1.0944
B( 28-C , 29-H ) :   0.9680 B( 28-C , 30-H ) :   0.9747 B( 28-C , 31-H ) :   0.9681

Dispersion correction           -0.014563494
FINAL SINGLE POINT ENERGY     -1339.868948906339

DIPOLE MOMENT
-------------
                                X             Y             Z
Electronic contribution:     19.97072      15.81244     -12.21418
Nuclear contribution   :    -20.28781     -16.23487      12.42109
                        -----------------------------------------
Total Dipole Moment    :     -0.31709      -0.42243       0.20691
                        -----------------------------------------
Magnitude (a.u.)       :      0.56728
Magnitude (Debye)      :      1.44192

Rotational constants in cm-1:     0.018410     0.008520     0.007360
Rotational constants in MHz :   551.921417   255.435062   220.637752

                             ****ORCA TERMINATED NORMALLY****
TOTAL RUN TIME: 0 days 0 hours 0 minutes 35 seconds 906 msec
