                         Program Version 4.2.1 -  RELEASE  -
|  1> ! wB97X-D3 SP def2-SVP
|  2> %pal
|  3> nprocs 16
|  4> end
|  5>
|  6> * xyz 0 1
|  7> S 	 -13.5217 	 38.3163 	 32.429
|  8> C 	 -14.8973 	 38.5188 	 33.5199
|  9> C 	 -14.5905 	 39.4087 	 34.583
| 10> C 	 -13.2283 	 39.7821 	 34.5437
| 11> C 	 -12.5162 	 39.2724 	 33.4394
| 12> H 	 -12.7768 	 40.5557 	 35.1846
| 13> C 	 -15.5582 	 40.0607 	 35.4835
| 14> H 	 -16.3376 	 40.4108 	 34.7532
| 15> H 	 -15.1112 	 40.981 	 35.8535
| 16> C 	 -16.1249 	 39.2201 	 36.6695
| 17> H 	 -16.9116 	 39.7971 	 37.023
| 18> H 	 -16.5832 	 38.2816 	 36.426
| 19> C 	 -15.0421 	 38.8841 	 37.7758
| 20> H 	 -15.673 	 38.652 	 38.6396
| 21> H 	 -14.3745 	 38.0811 	 37.5265
| 22> H 	 -14.3905 	 39.736 	 38.0652
| 23> S 	 -10.5002 	 41.1426 	 33.0902
| 24> C 	 -8.83946 	 40.6385 	 33.0855
| 25> C 	 -8.78524 	 39.268 	 32.9245
| 26> C 	 -10.0773 	 38.6471 	 32.8242
| 27> C 	 -11.1266 	 39.5117 	 33.0813
| 28> H 	 -7.80761 	 38.769 	 32.9585
| 29> C 	 -10.072 	 37.1956 	 32.6528
| 30> H 	 -9.19122 	 36.9474 	 32.0727
| 31> H 	 -10.7962 	 36.9831 	 31.8555
| 32> C 	 -10.2214 	 36.3764 	 33.9144
| 33> H 	 -10.3865 	 35.3429 	 33.6266
| 34> H 	 -11.0875 	 36.7126 	 34.4573
| 35> C 	 -8.9897 	 36.5032 	 34.87
| 36> H 	 -8.82382 	 37.6013 	 35.0209
| 37> H 	 -8.07587 	 36.0867 	 34.4503
| 38> H 	 -9.12129 	 36.0164 	 35.8631
| 39> H 	 -15.8794 	 38.1612 	 33.5871
| 40> H 	 -8.02726 	 41.3158 	 33.2038
| 41> *
| 42>
| 43>                          ****END OF INPUT****

CARTESIAN COORDINATES (ANGSTROEM)
---------------------------------
  S    -13.521700   38.316300   32.429000
  C    -14.897300   38.518800   33.519900
  C    -14.590500   39.408700   34.583000
  C    -13.228300   39.782100   34.543700
  C    -12.516200   39.272400   33.439400
  H    -12.776800   40.555700   35.184600
  C    -15.558200   40.060700   35.483500
  H    -16.337600   40.410800   34.753200
  H    -15.111200   40.981000   35.853500
  C    -16.124900   39.220100   36.669500
  H    -16.911600   39.797100   37.023000
  H    -16.583200   38.281600   36.426000
  C    -15.042100   38.884100   37.775800
  H    -15.673000   38.652000   38.639600
  H    -14.374500   38.081100   37.526500
  H    -14.390500   39.736000   38.065200
  S    -10.500200   41.142600   33.090200
  C     -8.839460   40.638500   33.085500
  C     -8.785240   39.268000   32.924500
  C    -10.077300   38.647100   32.824200
  C    -11.126600   39.511700   33.081300
  H     -7.807610   38.769000   32.958500
  C    -10.072000   37.195600   32.652800
  H     -9.191220   36.947400   32.072700
  H    -10.796200   36.983100   31.855500
  C    -10.221400   36.376400   33.914400
  H    -10.386500   35.342900   33.626600
  H    -11.087500   36.712600   34.457300
  C     -8.989700   36.503200   34.870000
  H     -8.823820   37.601300   35.020900
  H     -8.075870   36.086700   34.450300
  H     -9.121290   36.016400   35.863100
  H    -15.879400   38.161200   33.587100
  H     -8.027260   41.315800   33.203800

 Total Charge           Charge          ....    0
 Multiplicity           Mult            ....    1
 Number of Electrons    NEL             ....  134
 Basis Dimension        Dim             ....  322

ORBITAL ENERGIES
----------------

  NO   OCC          E(Eh)            E(eV)
   0   2.0000     -88.974554     -2421.1207
   1   2.0000     -88.961802     -2420.7737
   2   2.0000     -10.330396      -281.1044
   3   2.0000     -10.325644      -280.9751
   4   2.0000     -10.314373      -280.6684
   5   2.0000     -10.310826      -280.5718
   6   2.0000     -10.297894      -280.2199
   7   2.0000     -10.296774      -280.1895
   8   2.0000     -10.294210      -280.1197
   9   2.0000     -10.293957      -280.1128
  10   2.0000     -10.293279      -280.0944
  11   2.0000     -10.287815      -279.9457
  12   2.0000     -10.282221      -279.7935
  13   2.0000     -10.281418      -279.7716
  14   2.0000     -10.281408      -279.7713
  15   2.0000     -10.278943      -279.7042
  16   2.0000      -8.088409      -220.0968
  17   2.0000      -8.076940      -219.7847
  18   2.0000      -6.046981      -164.5467
  19   2.0000      -6.042839      -164.4340
  20   2.0000      -6.039372      -164.3397
  21   2.0000      -6.035473      -164.2336
  22   2.0000      -6.031291      -164.1198
  23   2.0000      -6.027750      -164.0234
  24   2.0000      -1.008156       -27.4333
  25   2.0000      -0.985065       -26.8050
  26   2.0000      -0.913039       -24.8451
  27   2.0000      -0.911553       -24.8046
  28   2.0000      -0.866148       -23.5691
  29   2.0000      -0.849167       -23.1070
  30   2.0000      -0.841358       -22.8945
  31   2.0000      -0.810551       -22.0562
  32   2.0000      -0.783497       -21.3200
  33   2.0000      -0.772512       -21.0211
  34   2.0000      -0.713848       -19.4248
  35   2.0000      -0.711464       -19.3599
  36   2.0000      -0.692352       -18.8399
  37   2.0000      -0.665381       -18.1059
  38   2.0000      -0.629946       -17.1417
  39   2.0000      -0.611919       -16.6512
  40   2.0000      -0.595527       -16.2051
  41   2.0000      -0.575806       -15.6685
  42   2.0000      -0.548119       -14.9151
  43   2.0000      -0.547572       -14.9002
  44   2.0000      -0.546061       -14.8591
  45   2.0000      -0.542405       -14.7596
  46   2.0000      -0.517954       -14.0942
  47   2.0000      -0.507600       -13.8125
  48   2.0000      -0.505080       -13.7439
  49   2.0000      -0.496003       -13.4969
  50   2.0000      -0.487474       -13.2648
  51   2.0000      -0.476107       -12.9555
  52   2.0000      -0.470967       -12.8157
  53   2.0000      -0.462335       -12.5808
  54   2.0000      -0.461424       -12.5560
  55   2.0000      -0.447025       -12.1642
  56   2.0000      -0.442245       -12.0341
  57   2.0000      -0.436238       -11.8706
  58   2.0000      -0.433548       -11.7974
  59   2.0000      -0.429920       -11.6987
  60   2.0000      -0.420473       -11.4417
  61   2.0000      -0.413736       -11.2583
  62   2.0000      -0.406707       -11.0671
  63   2.0000      -0.339893        -9.2490
  64   2.0000      -0.332330        -9.0432
  65   2.0000      -0.327411        -8.9093
  66   2.0000      -0.288958        -7.8630
  67   0.0000       0.024821         0.6754
  68   0.0000       0.071544         1.9468
  69   0.0000       0.107911         2.9364
  70   0.0000       0.116277         3.1641
  71   0.0000       0.127603         3.4723

MULLIKEN ATOMIC CHARGES
-----------------------
   0 S :    0.142013
   1 C :   -0.072767
   2 C :   -0.117675
   3 C :    0.021186
   4 C :   -0.176099
   5 H :    0.019429
   6 C :    0.022493
   7 H :    0.044439
   8 H :    0.023193
   9 C :   -0.022982
  10 H :    0.015697
  11 H :    0.023513
  12 C :   -0.073645
  13 H :    0.037758
  14 H :    0.049539
  15 H :    0.031791
  16 S :    0.100903
  17 C :   -0.088862
  18 C :   -0.051134
  19 C :   -0.056974
  20 C :   -0.139001
  21 H :    0.032143
  22 C :    0.065047
  23 H :    0.007863
  24 H :    0.020002
  25 C :   -0.008491
  26 H :    0.028553
  27 H :    0.034774
  28 C :   -0.088936
  29 H :    0.046026
  30 H :    0.024180
  31 H :    0.043066
  32 H :    0.012674
  33 H :    0.050282
Sum of atomic charges:   -0.0000000

LOEWDIN ATOMIC CHARGES
----------------------
   0 S :    0.438672
   1 C :   -0.203452
   2 C :   -0.062819
   3 C :   -0.069556
   4 C :   -0.208425
   5 H :    0.032109
   6 C :   -0.038016
   7 H :    0.042426
   8 H :    0.031687
   9 C :   -0.028207
  10 H :    0.016024
  11 H :    0.022744
  12 C :   -0.065273
  13 H :    0.030284
  14 H :    0.025747
  15 H :    0.025781
  16 S :    0.412187
  17 C :   -0.184900
  18 C :   -0.075412
  19 C :   -0.059576
  20 C :   -0.205050
  21 H :    0.035474
  22 C :   -0.045544
  23 H :    0.030573
  24 H :    0.030788
  25 C :   -0.029681
  26 H :    0.023727
  27 H :    0.026378
  28 C :   -0.072416
  29 H :    0.031337
  30 H :    0.019165
  31 H :    0.029671
  32 H :    0.018961
  33 H :    0.024592

  Mayer bond orders larger than 0.100000
B(  0-S ,  1-C ) :   1.1438 B(  0-S ,  4-C ) :   1.1771 B(  1-C ,  2-C ) :   1.5796
B(  1-C ,  4-C ) :   0.1110 B(  1-C , 32-H ) :   0.9661 B(  2-C ,  3-C ) :   1.2871
B(  2-C ,  6-C ) :   1.0133 B(  3-C ,  4-C ) :   1.5257 B(  3-C ,  5-H ) :   0.9855
B(  4-C , 20-C ) :   1.0390 B(  6-C ,  7-H ) :   0.9401 B(  6-C ,  8-H ) :   0.9461
B(  6-C ,  9-C ) :   1.0661 B(  9-C , 10-H ) :   0.9581 B(  9-C , 11-H ) :   0.9593
B(  9-C , 12-C ) :   1.0588 B( 12-C , 13-H ) :   0.9762 B( 12-C , 14-H ) :   0.9790
B( 12-C , 15-H ) :   0.9793 B( 16-S , 17-C ) :   1.1640 B( 16-S , 20-C ) :   1.1395
B( 17-C , 18-C ) :   1.5839 B( 17-C , 33-H ) :   0.9743 B( 18-C , 19-C ) :   1.2510
B( 18-C , 21-H ) :   0.9882 B( 19-C , 20-C ) :   1.5630 B( 19-C , 22-C ) :   1.0551
B( 22-C , 23-H ) :   0.9245 B( 22-C , 24-H ) :   0.9213 B( 22-C , 25-C ) :   1.0637
B( 25-C , 26-H ) :   0.9539 B( 25-C , 27-H ) :   0.9563 B( 25-C , 28-C ) :   1.0699
B( 28-C , 29-H ) :   0.9727 B( 28-C , 30-H ) :   0.9757 B( 28-C , 31-H ) :   0.9750

Dispersion correction           -0.015134405
FINAL SINGLE POINT ENERGY     -1339.871058287924

DIPOLE MOMENT
-------------
                                X             Y             Z
Electronic contribution:      2.87402      10.95457     -18.46414
Nuclear contribution   :     -2.94317     -11.06540      18.86037
                        -----------------------------------------
Total Dipole Moment    :     -0.06915      -0.11083       0.39624
                        -----------------------------------------
Magnitude (a.u.)       :      0.41721
Magnitude (Debye)      :      1.06047

Rotational constants in cm-1:     0.020173     0.008187     0.007608
Rotational constants in MHz :   604.779396   245.437485   228.081503

                             ****ORCA TERMINATED NORMALLY****
TOTAL RUN TIME: 0 days 0 hours 0 minutes 34 seconds 913 msec
