                         Program Version 4.2.1 -  RELEASE  -
|  1> ! wB97X-D3 SP def2-SVP
|  2> %pal
|  3> nprocs 16
|  4> end
|  5>
|  6> * xyz 0 1
|  7> S 	 35.2457 	 1.40795 	 73.304
|  8> C 	 33.9044 	 0.390292 	 72.6804
|  9> C 	 32.8072 	 0.398039 	 73.5521
| 10> C 	 33.1423 	 1.0307 	 74.7898
| 11> C 	 34.4329 	 1.51488 	 74.8749
| 12> H 	 32.4452 	 1.19546 	 75.5716
| 13> C 	 31.394 	 0.0369082 	 73.2767
| 14> H 	 30.8107 	 0.238525 	 74.1815
| 15> H 	 31.3612 	 -1.01907 	 73.0971
| 16> C 	 30.5754 	 0.573426 	 72.1435
| 17> H 	 30.9121 	 0.12439 	 71.2279
| 18> H 	 29.5004 	 0.356482 	 72.2978
| 19> C 	 30.5958 	 2.11259 	 72.0354
| 20> H 	 31.5677 	 2.49365 	 71.824
| 21> H 	 29.9908 	 2.30365 	 71.2039
| 22> H 	 30.1644 	 2.57388 	 72.9562
| 23> S 	 35.7162 	 3.91361 	 75.6378
| 24> C 	 36.0081 	 4.10252 	 77.3641
| 25> C 	 35.8055 	 2.94624 	 78.0638
| 26> C 	 35.1657 	 1.97242 	 77.2595
| 27> C 	 35.0386 	 2.29356 	 75.9612
| 28> H 	 35.9706 	 2.98044 	 79.1385
| 29> C 	 34.7024 	 0.676935 	 77.8946
| 30> H 	 35.6028 	 0.162544 	 78.1731
| 31> H 	 34.3299 	 0.0108358 	 77.1414
| 32> C 	 33.7441 	 0.784369 	 79.1459
| 33> H 	 32.847 	 1.26941 	 78.8533
| 34> H 	 34.1283 	 1.44737 	 79.9109
| 35> C 	 33.4228 	 -0.678135 	 79.712
| 36> H 	 34.2653 	 -1.08224 	 80.3052
| 37> H 	 33.1027 	 -1.30287 	 78.8825
| 38> H 	 32.6171 	 -0.501641 	 80.3864
| 39> H 	 33.7775 	 -0.0443532 	 71.6783
| 40> H 	 36.4571 	 4.9323 	 77.7261
| 41> *
| 42>
| 43>                          ****END OF INPUT****

CARTESIAN COORDINATES (ANGSTROEM)
---------------------------------
  S     35.245700    1.407950   73.304000
  C     33.904400    0.390292   72.680400
  C     32.807200    0.398039   73.552100
  C     33.142300    1.030700   74.789800
  C     34.432900    1.514880   74.874900
  H     32.445200    1.195460   75.571600
  C     31.394000    0.036908   73.276700
  H     30.810700    0.238525   74.181500
  H     31.361200   -1.019070   73.097100
  C     30.575400    0.573426   72.143500
  H     30.912100    0.124390   71.227900
  H     29.500400    0.356482   72.297800
  C     30.595800    2.112590   72.035400
  H     31.567700    2.493650   71.824000
  H     29.990800    2.303650   71.203900
  H     30.164400    2.573880   72.956200
  S     35.716200    3.913610   75.637800
  C     36.008100    4.102520   77.364100
  C     35.805500    2.946240   78.063800
  C     35.165700    1.972420   77.259500
  C     35.038600    2.293560   75.961200
  H     35.970600    2.980440   79.138500
  C     34.702400    0.676935   77.894600
  H     35.602800    0.162544   78.173100
  H     34.329900    0.010836   77.141400
  C     33.744100    0.784369   79.145900
  H     32.847000    1.269410   78.853300
  H     34.128300    1.447370   79.910900
  C     33.422800   -0.678135   79.712000
  H     34.265300   -1.082240   80.305200
  H     33.102700   -1.302870   78.882500
  H     32.617100   -0.501641   80.386400
  H     33.777500   -0.044353   71.678300
  H     36.457100    4.932300   77.726100

 Total Charge           Charge          ....    0
 Multiplicity           Mult            ....    1
 Number of Electrons    NEL             ....  134
 Basis Dimension        Dim             ....  322

ORBITAL ENERGIES
----------------

  NO   OCC          E(Eh)            E(eV)
   0   2.0000     -88.969278     -2420.9771
   1   2.0000     -88.962606     -2420.7956
   2   2.0000     -10.331533      -281.1353
   3   2.0000     -10.323229      -280.9094
   4   2.0000     -10.319385      -280.8047
   5   2.0000     -10.310946      -280.5751
   6   2.0000     -10.301860      -280.3279
   7   2.0000     -10.296862      -280.1918
   8   2.0000     -10.291973      -280.0588
   9   2.0000     -10.291089      -280.0348
  10   2.0000     -10.290055      -280.0066
  11   2.0000     -10.284844      -279.8648
  12   2.0000     -10.284779      -279.8631
  13   2.0000     -10.284648      -279.8595
  14   2.0000     -10.282684      -279.8061
  15   2.0000     -10.267980      -279.4059
  16   2.0000      -8.082685      -219.9410
  17   2.0000      -8.077110      -219.7893
  18   2.0000      -6.041399      -164.3948
  19   2.0000      -6.037505      -164.2889
  20   2.0000      -6.035664      -164.2388
  21   2.0000      -6.033182      -164.1712
  22   2.0000      -6.031874      -164.1356
  23   2.0000      -6.027627      -164.0201
  24   2.0000      -1.004636       -27.3375
  25   2.0000      -0.981086       -26.6967
  26   2.0000      -0.917360       -24.9626
  27   2.0000      -0.899907       -24.4877
  28   2.0000      -0.868164       -23.6240
  29   2.0000      -0.850821       -23.1520
  30   2.0000      -0.844102       -22.9692
  31   2.0000      -0.814236       -22.1565
  32   2.0000      -0.785818       -21.3832
  33   2.0000      -0.774103       -21.0644
  34   2.0000      -0.709047       -19.2941
  35   2.0000      -0.706135       -19.2149
  36   2.0000      -0.699186       -19.0258
  37   2.0000      -0.663462       -18.0537
  38   2.0000      -0.633555       -17.2399
  39   2.0000      -0.613854       -16.7038
  40   2.0000      -0.598643       -16.2899
  41   2.0000      -0.579695       -15.7743
  42   2.0000      -0.559087       -15.2135
  43   2.0000      -0.552785       -15.0421
  44   2.0000      -0.548989       -14.9388
  45   2.0000      -0.527710       -14.3597
  46   2.0000      -0.513830       -13.9820
  47   2.0000      -0.509136       -13.8543
  48   2.0000      -0.506329       -13.7779
  49   2.0000      -0.496546       -13.5117
  50   2.0000      -0.489827       -13.3289
  51   2.0000      -0.474603       -12.9146
  52   2.0000      -0.468944       -12.7606
  53   2.0000      -0.463552       -12.6139
  54   2.0000      -0.460944       -12.5429
  55   2.0000      -0.449599       -12.2342
  56   2.0000      -0.444288       -12.0897
  57   2.0000      -0.440657       -11.9909
  58   2.0000      -0.435263       -11.8441
  59   2.0000      -0.426265       -11.5993
  60   2.0000      -0.422031       -11.4840
  61   2.0000      -0.415409       -11.3039
  62   2.0000      -0.411879       -11.2078
  63   2.0000      -0.347491        -9.4557
  64   2.0000      -0.331381        -9.0173
  65   2.0000      -0.328631        -8.9425
  66   2.0000      -0.290689        -7.9101
  67   0.0000       0.029985         0.8159
  68   0.0000       0.061632         1.6771
  69   0.0000       0.101651         2.7661
  70   0.0000       0.123731         3.3669
  71   0.0000       0.129120         3.5135

MULLIKEN ATOMIC CHARGES
-----------------------
   0 S :    0.103923
   1 C :   -0.121753
   2 C :   -0.091117
   3 C :    0.034583
   4 C :   -0.159312
   5 H :    0.001790
   6 C :    0.081715
   7 H :    0.014162
   8 H :    0.028826
   9 C :   -0.084665
  10 H :    0.017634
  11 H :    0.034492
  12 C :   -0.030655
  13 H :    0.034682
  14 H :    0.019061
  15 H :    0.033753
  16 S :    0.086973
  17 C :   -0.054101
  18 C :   -0.026084
  19 C :   -0.033917
  20 C :   -0.136068
  21 H :    0.027943
  22 C :    0.084244
  23 H :    0.021275
  24 H :    0.011607
  25 C :   -0.083030
  26 H :    0.020276
  27 H :    0.025729
  28 C :   -0.045880
  29 H :    0.046640
  30 H :    0.042571
  31 H :    0.028722
  32 H :    0.050323
  33 H :    0.015658
Sum of atomic charges:    0.0000000

LOEWDIN ATOMIC CHARGES
----------------------
   0 S :    0.383671
   1 C :   -0.194356
   2 C :   -0.059703
   3 C :   -0.057313
   4 C :   -0.177114
   5 H :    0.025515
   6 C :   -0.041587
   7 H :    0.031263
   8 H :    0.035542
   9 C :   -0.036490
  10 H :    0.016220
  11 H :    0.032516
  12 C :   -0.058696
  13 H :    0.020660
  14 H :    0.018255
  15 H :    0.029093
  16 S :    0.372077
  17 C :   -0.148364
  18 C :   -0.066925
  19 C :   -0.056768
  20 C :   -0.190930
  21 H :    0.036271
  22 C :   -0.031746
  23 H :    0.031233
  24 H :    0.024463
  25 C :   -0.030353
  26 H :    0.016571
  27 H :    0.019610
  28 C :   -0.059014
  29 H :    0.030272
  30 H :    0.027413
  31 H :    0.022411
  32 H :    0.031961
  33 H :    0.004343

  Mayer bond orders larger than 0.100000
B(  0-S ,  1-C ) :   1.1222 B(  0-S ,  4-C ) :   1.1384 B(  1-C ,  2-C ) :   1.6109
B(  1-C ,  4-C ) :   0.1008 B(  1-C , 32-H ) :   0.9651 B(  2-C ,  3-C ) :   1.2419
B(  2-C ,  6-C ) :   1.0261 B(  3-C ,  4-C ) :   1.5770 B(  3-C ,  5-H ) :   0.9966
B(  4-C , 20-C ) :   1.0341 B(  6-C ,  7-H ) :   0.9408 B(  6-C ,  8-H ) :   0.9216
B(  6-C ,  9-C ) :   1.0894 B(  9-C , 10-H ) :   0.9512 B(  9-C , 11-H ) :   0.9540
B(  9-C , 12-C ) :   1.0834 B( 12-C , 13-H ) :   0.9736 B( 12-C , 14-H ) :   0.9746
B( 12-C , 15-H ) :   0.9765 B( 16-S , 17-C ) :   1.1479 B( 16-S , 20-C ) :   1.1016
B( 17-C , 18-C ) :   1.6426 B( 17-C , 33-H ) :   0.9768 B( 18-C , 19-C ) :   1.1960
B( 18-C , 21-H ) :   0.9910 B( 19-C , 20-C ) :   1.6637 B( 19-C , 22-C ) :   1.0446
B( 22-C , 23-H ) :   0.9299 B( 22-C , 24-H ) :   0.9296 B( 22-C , 25-C ) :   1.0477
B( 25-C , 26-H ) :   0.9601 B( 25-C , 27-H ) :   0.9576 B( 25-C , 28-C ) :   1.0742
B( 28-C , 29-H ) :   0.9783 B( 28-C , 30-H ) :   0.9773 B( 28-C , 31-H ) :   0.9770

Dispersion correction           -0.014159745
FINAL SINGLE POINT ENERGY     -1339.866591191555

DIPOLE MOMENT
-------------
                                X             Y             Z
Electronic contribution:     20.94712      12.01986      -7.53434
Nuclear contribution   :    -21.50033     -12.22651       7.91428
                        -----------------------------------------
Total Dipole Moment    :     -0.55321      -0.20666       0.37994
                        -----------------------------------------
Magnitude (a.u.)       :      0.70221
Magnitude (Debye)      :      1.78487

Rotational constants in cm-1:     0.017661     0.008593     0.006722
Rotational constants in MHz :   529.470456   257.612934   201.511610

                             ****ORCA TERMINATED NORMALLY****
TOTAL RUN TIME: 0 days 0 hours 0 minutes 29 seconds 875 msec
