                         Program Version 4.2.1 -  RELEASE  -
|  1> ! wB97X-D3 SP def2-SVP
|  2> %pal
|  3> nprocs 16
|  4> end
|  5>
|  6> * xyz 0 1
|  7> S 	 0.93267 	 76.1701 	 46.7826
|  8> C 	 1.21129 	 77.609 	 47.6918
|  9> C 	 1.47771 	 77.3301 	 49.0121
| 10> C 	 1.30478 	 75.9295 	 49.3442
| 11> C 	 0.958117 	 75.1807 	 48.2581
| 12> H 	 1.52361 	 75.4752 	 50.3602
| 13> C 	 1.83828 	 78.4151 	 50.0573
| 14> H 	 2.43161 	 79.2421 	 49.6483
| 15> H 	 2.5677 	 78.0267 	 50.7397
| 16> C 	 0.692388 	 79.0392 	 50.8635
| 17> H 	 1.06442 	 79.7781 	 51.5892
| 18> H 	 0.0677587 	 79.6413 	 50.2214
| 19> C 	 -0.208972 	 78.066 	 51.5601
| 20> H 	 0.332717 	 77.4972 	 52.3018
| 21> H 	 -1.02474 	 78.5972 	 51.9907
| 22> H 	 -0.77383 	 77.366 	 50.8114
| 23> S 	 2.31291 	 72.7276 	 48.0017
| 24> C 	 1.37226 	 71.2374 	 48.09
| 25> C 	 0.0534276 	 71.5184 	 48.2318
| 26> C 	 -0.276191 	 72.9082 	 48.3386
| 27> C 	 0.855036 	 73.6988 	 48.1739
| 28> H 	 -0.624104 	 70.678 	 48.2663
| 29> C 	 -1.69343 	 73.4583 	 48.4292
| 30> H 	 -2.38437 	 72.8405 	 47.9085
| 31> H 	 -1.60298 	 74.4932 	 47.9632
| 32> C 	 -2.26035 	 73.6616 	 49.9109
| 33> H 	 -2.86082 	 72.7831 	 50.1554
| 34> H 	 -2.91738 	 74.5481 	 49.9535
| 35> C 	 -1.21385 	 73.9063 	 51.0073
| 36> H 	 -1.71319 	 74.2156 	 52.0408
| 37> H 	 -0.504677 	 74.6358 	 50.703
| 38> H 	 -0.693742 	 72.9704 	 51.3166
| 39> H 	 1.38099 	 78.6436 	 47.2781
| 40> H 	 1.64238 	 70.1717 	 47.9682
| 41> *
| 42>
| 43>                          ****END OF INPUT****

CARTESIAN COORDINATES (ANGSTROEM)
---------------------------------
  S      0.932670   76.170100   46.782600
  C      1.211290   77.609000   47.691800
  C      1.477710   77.330100   49.012100
  C      1.304780   75.929500   49.344200
  C      0.958117   75.180700   48.258100
  H      1.523610   75.475200   50.360200
  C      1.838280   78.415100   50.057300
  H      2.431610   79.242100   49.648300
  H      2.567700   78.026700   50.739700
  C      0.692388   79.039200   50.863500
  H      1.064420   79.778100   51.589200
  H      0.067759   79.641300   50.221400
  C     -0.208972   78.066000   51.560100
  H      0.332717   77.497200   52.301800
  H     -1.024740   78.597200   51.990700
  H     -0.773830   77.366000   50.811400
  S      2.312910   72.727600   48.001700
  C      1.372260   71.237400   48.090000
  C      0.053428   71.518400   48.231800
  C     -0.276191   72.908200   48.338600
  C      0.855036   73.698800   48.173900
  H     -0.624104   70.678000   48.266300
  C     -1.693430   73.458300   48.429200
  H     -2.384370   72.840500   47.908500
  H     -1.602980   74.493200   47.963200
  C     -2.260350   73.661600   49.910900
  H     -2.860820   72.783100   50.155400
  H     -2.917380   74.548100   49.953500
  C     -1.213850   73.906300   51.007300
  H     -1.713190   74.215600   52.040800
  H     -0.504677   74.635800   50.703000
  H     -0.693742   72.970400   51.316600
  H      1.380990   78.643600   47.278100
  H      1.642380   70.171700   47.968200

 Total Charge           Charge          ....    0
 Multiplicity           Mult            ....    1
 Number of Electrons    NEL             ....  134
 Basis Dimension        Dim             ....  322

ORBITAL ENERGIES
----------------

  NO   OCC          E(Eh)            E(eV)
   0   2.0000     -88.968506     -2420.9561
   1   2.0000     -88.967259     -2420.9222
   2   2.0000     -10.332671      -281.1663
   3   2.0000     -10.327251      -281.0188
   4   2.0000     -10.318297      -280.7751
   5   2.0000     -10.316814      -280.7348
   6   2.0000     -10.305320      -280.4220
   7   2.0000     -10.304139      -280.3899
   8   2.0000     -10.304020      -280.3866
   9   2.0000     -10.295179      -280.1461
  10   2.0000     -10.292162      -280.0640
  11   2.0000     -10.288936      -279.9762
  12   2.0000     -10.287819      -279.9458
  13   2.0000     -10.283120      -279.8179
  14   2.0000     -10.279003      -279.7059
  15   2.0000     -10.276042      -279.6253
  16   2.0000      -8.083068      -219.9515
  17   2.0000      -8.081302      -219.9034
  18   2.0000      -6.041626      -164.4010
  19   2.0000      -6.039983      -164.3563
  20   2.0000      -6.037605      -164.2916
  21   2.0000      -6.035911      -164.2455
  22   2.0000      -6.033758      -164.1869
  23   2.0000      -6.031904      -164.1365
  24   2.0000      -1.005110       -27.3504
  25   2.0000      -0.984624       -26.7930
  26   2.0000      -0.909826       -24.7576
  27   2.0000      -0.896967       -24.4077
  28   2.0000      -0.868829       -23.6420
  29   2.0000      -0.846688       -23.0396
  30   2.0000      -0.841018       -22.8853
  31   2.0000      -0.818857       -22.2822
  32   2.0000      -0.782393       -21.2900
  33   2.0000      -0.769529       -20.9400
  34   2.0000      -0.701741       -19.0953
  35   2.0000      -0.695280       -18.9195
  36   2.0000      -0.685653       -18.6576
  37   2.0000      -0.653150       -17.7731
  38   2.0000      -0.639620       -17.4049
  39   2.0000      -0.614171       -16.7125
  40   2.0000      -0.580149       -15.7867
  41   2.0000      -0.573158       -15.5964
  42   2.0000      -0.560100       -15.2411
  43   2.0000      -0.549698       -14.9581
  44   2.0000      -0.542340       -14.7578
  45   2.0000      -0.530197       -14.4274
  46   2.0000      -0.514131       -13.9902
  47   2.0000      -0.509321       -13.8593
  48   2.0000      -0.498573       -13.5668
  49   2.0000      -0.492030       -13.3888
  50   2.0000      -0.490761       -13.3543
  51   2.0000      -0.474861       -12.9216
  52   2.0000      -0.468023       -12.7356
  53   2.0000      -0.463608       -12.6154
  54   2.0000      -0.456796       -12.4300
  55   2.0000      -0.442632       -12.0446
  56   2.0000      -0.439156       -11.9501
  57   2.0000      -0.434641       -11.8272
  58   2.0000      -0.427540       -11.6340
  59   2.0000      -0.426842       -11.6150
  60   2.0000      -0.418054       -11.3758
  61   2.0000      -0.410181       -11.1616
  62   2.0000      -0.408423       -11.1138
  63   2.0000      -0.340513        -9.2658
  64   2.0000      -0.331143        -9.0109
  65   2.0000      -0.320664        -8.7257
  66   2.0000      -0.315616        -8.5883
  67   0.0000       0.047769         1.2999
  68   0.0000       0.050531         1.3750
  69   0.0000       0.110256         3.0002
  70   0.0000       0.122074         3.3218
  71   0.0000       0.127474         3.4687

MULLIKEN ATOMIC CHARGES
-----------------------
   0 S :    0.120161
   1 C :   -0.122363
   2 C :   -0.114022
   3 C :    0.046302
   4 C :   -0.205046
   5 H :    0.058891
   6 C :    0.071321
   7 H :    0.019094
   8 H :    0.014350
   9 C :   -0.056024
  10 H :    0.028425
  11 H :    0.012707
  12 C :   -0.067025
  13 H :    0.030405
  14 H :    0.023842
  15 H :    0.054232
  16 S :    0.120267
  17 C :   -0.094605
  18 C :   -0.039820
  19 C :   -0.025589
  20 C :   -0.178972
  21 H :    0.011631
  22 C :    0.085862
  23 H :    0.025782
  24 H :    0.043185
  25 C :   -0.088441
  26 H :    0.030097
  27 H :    0.036672
  28 C :   -0.059024
  29 H :    0.040492
  30 H :    0.009250
  31 H :    0.035420
  32 H :    0.069983
  33 H :    0.062558
Sum of atomic charges:   -0.0000000

LOEWDIN ATOMIC CHARGES
----------------------
   0 S :    0.408297
   1 C :   -0.208396
   2 C :   -0.067604
   3 C :   -0.060529
   4 C :   -0.194225
   5 H :    0.048427
   6 C :   -0.035748
   7 H :    0.032089
   8 H :    0.025911
   9 C :   -0.044068
  10 H :    0.027240
  11 H :    0.019630
  12 C :   -0.069732
  13 H :    0.019838
  14 H :    0.022339
  15 H :    0.038753
  16 S :    0.398714
  17 C :   -0.189563
  18 C :   -0.075636
  19 C :   -0.052147
  20 C :   -0.205167
  21 H :    0.029410
  22 C :   -0.028850
  23 H :    0.026406
  24 H :    0.040611
  25 C :   -0.041810
  26 H :    0.020960
  27 H :    0.027863
  28 C :   -0.077288
  29 H :    0.036949
  30 H :    0.013768
  31 H :    0.026752
  32 H :    0.044176
  33 H :    0.042631

  Mayer bond orders larger than 0.100000
B(  0-S ,  1-C ) :   1.1414 B(  0-S ,  4-C ) :   1.1434 B(  1-C ,  2-C ) :   1.6368
B(  1-C , 32-H ) :   0.9572 B(  2-C ,  3-C ) :   1.2243 B(  2-C ,  6-C ) :   1.0184
B(  3-C ,  4-C ) :   1.6092 B(  3-C ,  5-H ) :   0.9716 B(  4-C , 20-C ) :   0.9900
B(  6-C ,  7-H ) :   0.9415 B(  6-C ,  8-H ) :   0.9400 B(  6-C ,  9-C ) :   1.0736
B(  9-C , 10-H ) :   0.9505 B(  9-C , 11-H ) :   0.9514 B(  9-C , 12-C ) :   1.0970
B( 12-C , 13-H ) :   0.9763 B( 12-C , 14-H ) :   0.9682 B( 12-C , 15-H ) :   0.9649
B( 16-S , 17-C ) :   1.1333 B( 16-S , 20-C ) :   1.1446 B( 17-C , 18-C ) :   1.6560
B( 17-C , 33-H ) :   0.9585 B( 18-C , 19-C ) :   1.2195 B( 18-C , 21-H ) :   0.9870
B( 19-C , 20-C ) :   1.6065 B( 19-C , 22-C ) :   1.0552 B( 22-C , 23-H ) :   0.9475
B( 22-C , 24-H ) :   0.9240 B( 22-C , 25-C ) :   1.0452 B( 25-C , 26-H ) :   0.9588
B( 25-C , 27-H ) :   0.9598 B( 25-C , 28-C ) :   1.1011 B( 28-C , 29-H ) :   0.9715
B( 28-C , 30-H ) :   0.9673 B( 28-C , 31-H ) :   0.9640

Dispersion correction           -0.016537597
FINAL SINGLE POINT ENERGY     -1339.883476005038

DIPOLE MOMENT
-------------
                                X             Y             Z
Electronic contribution:     13.76328     -10.76717     -20.97220
Nuclear contribution   :    -13.96371      10.92628      21.35171
                        -----------------------------------------
Total Dipole Moment    :     -0.20042       0.15911       0.37950
                        -----------------------------------------
Magnitude (a.u.)       :      0.45772
Magnitude (Debye)      :      1.16343

Rotational constants in cm-1:     0.020059     0.009627     0.007871
Rotational constants in MHz :   601.351201   288.624275   235.961145

                             ****ORCA TERMINATED NORMALLY****
TOTAL RUN TIME: 0 days 0 hours 0 minutes 34 seconds 916 msec
