                         Program Version 4.2.1 -  RELEASE  -
|  1> ! wB97X-D3 SP def2-SVP
|  2> %pal
|  3> nprocs 16
|  4> end
|  5>
|  6> * xyz 0 1
|  7> S 	 -92.3936 	 43.4619 	 114.459
|  8> C 	 -92.383 	 44.4296 	 115.984
|  9> C 	 -93.3476 	 43.9466 	 116.847
| 10> C 	 -93.9434 	 42.7016 	 116.401
| 11> C 	 -93.5328 	 42.3579 	 115.12
| 12> H 	 -94.7381 	 42.0024 	 116.773
| 13> C 	 -93.6436 	 44.5292 	 118.187
| 14> H 	 -94.6529 	 44.9335 	 118.23
| 15> H 	 -92.9818 	 45.4073 	 118.235
| 16> C 	 -93.4204 	 43.5701 	 119.349
| 17> H 	 -94.0248 	 42.6725 	 119.108
| 18> H 	 -92.4752 	 43.1772 	 119.487
| 19> C 	 -93.9113 	 43.9661 	 120.691
| 20> H 	 -94.1284 	 43.0607 	 121.377
| 21> H 	 -93.1222 	 44.5317 	 121.217
| 22> H 	 -94.7868 	 44.6725 	 120.553
| 23> S 	 -95.6445 	 40.7203 	 114.408
| 24> C 	 -95.379 	 39.4785 	 113.194
| 25> C 	 -93.9922 	 39.3419 	 112.956
| 26> C 	 -93.1606 	 40.2946 	 113.659
| 27> C 	 -93.9123 	 41.1624 	 114.401
| 28> H 	 -93.5887 	 38.5327 	 112.41
| 29> C 	 -91.6479 	 40.3215 	 113.572
| 30> H 	 -91.4037 	 41.1525 	 112.883
| 31> H 	 -91.2399 	 39.4691 	 112.986
| 32> C 	 -90.8487 	 40.3441 	 114.878
| 33> H 	 -91.3802 	 41.1446 	 115.569
| 34> H 	 -89.8477 	 40.7408 	 114.865
| 35> C 	 -90.9306 	 39.0565 	 115.698
| 36> H 	 -90.4415 	 38.208 	 115.226
| 37> H 	 -91.9578 	 38.7727 	 115.853
| 38> H 	 -90.6309 	 39.1011 	 116.749
| 39> H 	 -91.9489 	 45.4189 	 116.037
| 40> H 	 -96.1707 	 38.8782 	 112.762
| 41> *
| 42>
| 43>                          ****END OF INPUT****

CARTESIAN COORDINATES (ANGSTROEM)
---------------------------------
  S    -92.393600   43.461900  114.459000
  C    -92.383000   44.429600  115.984000
  C    -93.347600   43.946600  116.847000
  C    -93.943400   42.701600  116.401000
  C    -93.532800   42.357900  115.120000
  H    -94.738100   42.002400  116.773000
  C    -93.643600   44.529200  118.187000
  H    -94.652900   44.933500  118.230000
  H    -92.981800   45.407300  118.235000
  C    -93.420400   43.570100  119.349000
  H    -94.024800   42.672500  119.108000
  H    -92.475200   43.177200  119.487000
  C    -93.911300   43.966100  120.691000
  H    -94.128400   43.060700  121.377000
  H    -93.122200   44.531700  121.217000
  H    -94.786800   44.672500  120.553000
  S    -95.644500   40.720300  114.408000
  C    -95.379000   39.478500  113.194000
  C    -93.992200   39.341900  112.956000
  C    -93.160600   40.294600  113.659000
  C    -93.912300   41.162400  114.401000
  H    -93.588700   38.532700  112.410000
  C    -91.647900   40.321500  113.572000
  H    -91.403700   41.152500  112.883000
  H    -91.239900   39.469100  112.986000
  C    -90.848700   40.344100  114.878000
  H    -91.380200   41.144600  115.569000
  H    -89.847700   40.740800  114.865000
  C    -90.930600   39.056500  115.698000
  H    -90.441500   38.208000  115.226000
  H    -91.957800   38.772700  115.853000
  H    -90.630900   39.101100  116.749000
  H    -91.948900   45.418900  116.037000
  H    -96.170700   38.878200  112.762000

 Total Charge           Charge          ....    0
 Multiplicity           Mult            ....    1
 Number of Electrons    NEL             ....  134
 Basis Dimension        Dim             ....  322

ORBITAL ENERGIES
----------------

  NO   OCC          E(Eh)            E(eV)
   0   2.0000     -88.968229     -2420.9486
   1   2.0000     -88.966297     -2420.8960
   2   2.0000     -10.328160      -281.0435
   3   2.0000     -10.326748      -281.0051
   4   2.0000     -10.325988      -280.9844
   5   2.0000     -10.318699      -280.7861
   6   2.0000     -10.308281      -280.5026
   7   2.0000     -10.306140      -280.4443
   8   2.0000     -10.299003      -280.2501
   9   2.0000     -10.298561      -280.2381
  10   2.0000     -10.297631      -280.2128
  11   2.0000     -10.293095      -280.0894
  12   2.0000     -10.287620      -279.9404
  13   2.0000     -10.285884      -279.8931
  14   2.0000     -10.276845      -279.6472
  15   2.0000     -10.268857      -279.4298
  16   2.0000      -8.082243      -219.9290
  17   2.0000      -8.080433      -219.8797
  18   2.0000      -6.040839      -164.3796
  19   2.0000      -6.039034      -164.3305
  20   2.0000      -6.036894      -164.2722
  21   2.0000      -6.035041      -164.2218
  22   2.0000      -6.032926      -164.1643
  23   2.0000      -6.031104      -164.1147
  24   2.0000      -1.006706       -27.3939
  25   2.0000      -0.980090       -26.6696
  26   2.0000      -0.919739       -25.0274
  27   2.0000      -0.904871       -24.6228
  28   2.0000      -0.872479       -23.7414
  29   2.0000      -0.850095       -23.1323
  30   2.0000      -0.844884       -22.9905
  31   2.0000      -0.811631       -22.0856
  32   2.0000      -0.784398       -21.3446
  33   2.0000      -0.773502       -21.0481
  34   2.0000      -0.709240       -19.2994
  35   2.0000      -0.694849       -18.9078
  36   2.0000      -0.686276       -18.6745
  37   2.0000      -0.674746       -18.3608
  38   2.0000      -0.639200       -17.3935
  39   2.0000      -0.610192       -16.6042
  40   2.0000      -0.593143       -16.1402
  41   2.0000      -0.576817       -15.6960
  42   2.0000      -0.558888       -15.2081
  43   2.0000      -0.551283       -15.0012
  44   2.0000      -0.545862       -14.8536
  45   2.0000      -0.527494       -14.3539
  46   2.0000      -0.517065       -14.0701
  47   2.0000      -0.512423       -13.9437
  48   2.0000      -0.507437       -13.8081
  49   2.0000      -0.496407       -13.5079
  50   2.0000      -0.485901       -13.2220
  51   2.0000      -0.474969       -12.9246
  52   2.0000      -0.472252       -12.8506
  53   2.0000      -0.464400       -12.6370
  54   2.0000      -0.458383       -12.4732
  55   2.0000      -0.451914       -12.2972
  56   2.0000      -0.440577       -11.9887
  57   2.0000      -0.438278       -11.9262
  58   2.0000      -0.433732       -11.8024
  59   2.0000      -0.424043       -11.5388
  60   2.0000      -0.420226       -11.4349
  61   2.0000      -0.403214       -10.9720
  62   2.0000      -0.396334       -10.7848
  63   2.0000      -0.350423        -9.5355
  64   2.0000      -0.332482        -9.0473
  65   2.0000      -0.330041        -8.9809
  66   2.0000      -0.290194        -7.8966
  67   0.0000       0.023017         0.6263
  68   0.0000       0.069467         1.8903
  69   0.0000       0.099320         2.7026
  70   0.0000       0.113694         3.0938
  71   0.0000       0.131057         3.5663

MULLIKEN ATOMIC CHARGES
-----------------------
   0 S :    0.098100
   1 C :   -0.129935
   2 C :   -0.079121
   3 C :   -0.008675
   4 C :   -0.167427
   5 H :    0.037479
   6 C :    0.115768
   7 H :    0.031633
   8 H :    0.008988
   9 C :   -0.065498
  10 H :    0.024596
  11 H :    0.012051
  12 C :   -0.082732
  13 H :    0.052602
  14 H :    0.030982
  15 H :    0.034143
  16 S :    0.096619
  17 C :   -0.093410
  18 C :   -0.013958
  19 C :   -0.042453
  20 C :   -0.151121
  21 H :    0.006259
  22 C :    0.055640
  23 H :    0.049396
  24 H :    0.018518
  25 C :   -0.085370
  26 H :    0.055157
  27 H :    0.030663
  28 C :   -0.040267
  29 H :    0.024134
  30 H :    0.020960
  31 H :    0.030463
  32 H :    0.058582
  33 H :    0.067235
Sum of atomic charges:    0.0000000

LOEWDIN ATOMIC CHARGES
----------------------
   0 S :    0.406048
   1 C :   -0.188257
   2 C :   -0.051633
   3 C :   -0.081459
   4 C :   -0.195195
   5 H :    0.038111
   6 C :   -0.029140
   7 H :    0.034251
   8 H :    0.028287
   9 C :   -0.047292
  10 H :    0.028491
  11 H :    0.017229
  12 C :   -0.073760
  13 H :    0.039040
  14 H :    0.022164
  15 H :    0.028608
  16 S :    0.389954
  17 C :   -0.180039
  18 C :   -0.060967
  19 C :   -0.057451
  20 C :   -0.186206
  21 H :    0.023474
  22 C :   -0.043887
  23 H :    0.036928
  24 H :    0.032573
  25 C :   -0.052699
  26 H :    0.036902
  27 H :    0.023305
  28 C :   -0.072198
  29 H :    0.018823
  30 H :    0.024538
  31 H :    0.029486
  32 H :    0.029834
  33 H :    0.032138

  Mayer bond orders larger than 0.100000
B(  0-S ,  1-C ) :   1.1088 B(  0-S ,  4-C ) :   1.1625 B(  1-C ,  2-C ) :   1.6402
B(  1-C , 32-H ) :   0.9629 B(  2-C ,  3-C ) :   1.1878 B(  2-C ,  6-C ) :   1.0442
B(  3-C ,  4-C ) :   1.5942 B(  3-C ,  5-H ) :   0.9774 B(  4-C , 20-C ) :   1.0372
B(  6-C ,  7-H ) :   0.9219 B(  6-C ,  8-H ) :   0.9353 B(  6-C ,  9-C ) :   1.0623
B(  9-C , 10-H ) :   0.9521 B(  9-C , 11-H ) :   0.9536 B(  9-C , 12-C ) :   1.0864
B( 12-C , 13-H ) :   0.9725 B( 12-C , 14-H ) :   0.9751 B( 12-C , 15-H ) :   0.9716
B( 16-S , 17-C ) :   1.1503 B( 16-S , 20-C ) :   1.1279 B( 17-C , 18-C ) :   1.5938
B( 17-C , 20-C ) :   0.1006 B( 17-C , 33-H ) :   0.9710 B( 18-C , 19-C ) :   1.2370
B( 18-C , 21-H ) :   0.9917 B( 19-C , 20-C ) :   1.5892 B( 19-C , 22-C ) :   1.0379
B( 22-C , 23-H ) :   0.9277 B( 22-C , 24-H ) :   0.9356 B( 22-C , 25-C ) :   1.0525
B( 25-C , 26-H ) :   0.9537 B( 25-C , 27-H ) :   0.9572 B( 25-C , 28-C ) :   1.0704
B( 28-C , 29-H ) :   0.9748 B( 28-C , 30-H ) :   0.9727 B( 28-C , 31-H ) :   0.9726

Dispersion correction           -0.014872211
FINAL SINGLE POINT ENERGY     -1339.869983283996

DIPOLE MOMENT
-------------
                                X             Y             Z
Electronic contribution:     -9.89444       1.85628     -19.81556
Nuclear contribution   :     10.00713      -1.96966      20.03720
                        -----------------------------------------
Total Dipole Moment    :      0.11269      -0.11337       0.22163
                        -----------------------------------------
Magnitude (a.u.)       :      0.27327
Magnitude (Debye)      :      0.69459

Rotational constants in cm-1:     0.019771     0.008429     0.007721
Rotational constants in MHz :   592.709989   252.692414   231.472822

                             ****ORCA TERMINATED NORMALLY****
TOTAL RUN TIME: 0 days 0 hours 0 minutes 34 seconds 511 msec
