                         Program Version 4.2.1 -  RELEASE  -
|  1> ! wB97X-D3 SP def2-SVP
|  2> %pal
|  3> nprocs 16
|  4> end
|  5>
|  6> * xyz 0 1
|  7> S 	 -93.6184 	 56.6802 	 124.242
|  8> C 	 -94.8634 	 56.4331 	 123.033
|  9> C 	 -95.7712 	 55.4592 	 123.345
| 10> C 	 -95.308 	 54.68 	 124.44
| 11> C 	 -94.138 	 55.2029 	 125.052
| 12> H 	 -95.8653 	 53.8941 	 124.9
| 13> C 	 -96.952 	 55.071 	 122.506
| 14> H 	 -97.467 	 55.998 	 122.271
| 15> H 	 -97.5889 	 54.4701 	 123.09
| 16> C 	 -96.6205 	 54.3218 	 121.23
| 17> H 	 -95.7294 	 54.7188 	 120.678
| 18> H 	 -96.1706 	 53.4061 	 121.511
| 19> C 	 -97.8684 	 54.0368 	 120.452
| 20> H 	 -98.7339 	 53.6952 	 121.029
| 21> H 	 -98.1691 	 54.9602 	 119.974
| 22> H 	 -97.761 	 53.2089 	 119.798
| 23> S 	 -92.8666 	 55.7399 	 127.382
| 24> C 	 -92.5022 	 54.4897 	 128.538
| 25> C 	 -92.7476 	 53.2477 	 128
| 26> C 	 -93.3414 	 53.3082 	 126.663
| 27> C 	 -93.4952 	 54.6121 	 126.225
| 28> H 	 -92.4282 	 52.4212 	 128.617
| 29> C 	 -93.6596 	 52.0843 	 125.809
| 30> H 	 -92.779 	 51.462 	 125.816
| 31> H 	 -93.7707 	 52.3789 	 124.754
| 32> C 	 -94.8018 	 51.3003 	 126.409
| 33> H 	 -95.7264 	 51.9287 	 126.675
| 34> H 	 -94.5384 	 50.9102 	 127.338
| 35> C 	 -95.2843 	 50.0944 	 125.547
| 36> H 	 -96.0177 	 49.454 	 126.1
| 37> H 	 -94.4493 	 49.5036 	 125.154
| 38> H 	 -95.7773 	 50.5775 	 124.703
| 39> H 	 -94.9942 	 57.1568 	 122.121
| 40> H 	 -92.0317 	 54.6747 	 129.502
| 41> *
| 42>
| 43>                          ****END OF INPUT****

CARTESIAN COORDINATES (ANGSTROEM)
---------------------------------
  S    -93.618400   56.680200  124.242000
  C    -94.863400   56.433100  123.033000
  C    -95.771200   55.459200  123.345000
  C    -95.308000   54.680000  124.440000
  C    -94.138000   55.202900  125.052000
  H    -95.865300   53.894100  124.900000
  C    -96.952000   55.071000  122.506000
  H    -97.467000   55.998000  122.271000
  H    -97.588900   54.470100  123.090000
  C    -96.620500   54.321800  121.230000
  H    -95.729400   54.718800  120.678000
  H    -96.170600   53.406100  121.511000
  C    -97.868400   54.036800  120.452000
  H    -98.733900   53.695200  121.029000
  H    -98.169100   54.960200  119.974000
  H    -97.761000   53.208900  119.798000
  S    -92.866600   55.739900  127.382000
  C    -92.502200   54.489700  128.538000
  C    -92.747600   53.247700  128.000000
  C    -93.341400   53.308200  126.663000
  C    -93.495200   54.612100  126.225000
  H    -92.428200   52.421200  128.617000
  C    -93.659600   52.084300  125.809000
  H    -92.779000   51.462000  125.816000
  H    -93.770700   52.378900  124.754000
  C    -94.801800   51.300300  126.409000
  H    -95.726400   51.928700  126.675000
  H    -94.538400   50.910200  127.338000
  C    -95.284300   50.094400  125.547000
  H    -96.017700   49.454000  126.100000
  H    -94.449300   49.503600  125.154000
  H    -95.777300   50.577500  124.703000
  H    -94.994200   57.156800  122.121000
  H    -92.031700   54.674700  129.502000

 Total Charge           Charge          ....    0
 Multiplicity           Mult            ....    1
 Number of Electrons    NEL             ....  134
 Basis Dimension        Dim             ....  322

ORBITAL ENERGIES
----------------

  NO   OCC          E(Eh)            E(eV)
   0   2.0000     -88.971574     -2421.0396
   1   2.0000     -88.960024     -2420.7253
   2   2.0000     -10.334314      -281.2110
   3   2.0000     -10.325559      -280.9727
   4   2.0000     -10.319297      -280.8024
   5   2.0000     -10.316493      -280.7260
   6   2.0000     -10.307081      -280.4699
   7   2.0000     -10.297164      -280.2001
   8   2.0000     -10.297047      -280.1969
   9   2.0000     -10.294329      -280.1229
  10   2.0000     -10.291193      -280.0376
  11   2.0000     -10.286509      -279.9102
  12   2.0000     -10.286058      -279.8979
  13   2.0000     -10.282664      -279.8055
  14   2.0000     -10.282365      -279.7974
  15   2.0000     -10.274617      -279.5865
  16   2.0000      -8.085727      -220.0238
  17   2.0000      -8.075743      -219.7521
  18   2.0000      -6.044296      -164.4736
  19   2.0000      -6.040384      -164.3672
  20   2.0000      -6.036406      -164.2590
  21   2.0000      -6.034277      -164.2010
  22   2.0000      -6.030109      -164.0876
  23   2.0000      -6.026429      -163.9875
  24   2.0000      -1.006095       -27.3772
  25   2.0000      -0.983979       -26.7754
  26   2.0000      -0.920489       -25.0478
  27   2.0000      -0.910096       -24.7650
  28   2.0000      -0.871176       -23.7059
  29   2.0000      -0.854194       -23.2438
  30   2.0000      -0.843775       -22.9603
  31   2.0000      -0.812966       -22.1219
  32   2.0000      -0.783047       -21.3078
  33   2.0000      -0.771242       -20.9866
  34   2.0000      -0.709815       -19.3151
  35   2.0000      -0.701982       -19.1019
  36   2.0000      -0.695899       -18.9364
  37   2.0000      -0.662217       -18.0198
  38   2.0000      -0.631626       -17.1874
  39   2.0000      -0.621564       -16.9136
  40   2.0000      -0.593596       -16.1526
  41   2.0000      -0.574423       -15.6308
  42   2.0000      -0.565809       -15.3965
  43   2.0000      -0.560299       -15.2465
  44   2.0000      -0.531118       -14.4525
  45   2.0000      -0.527264       -14.3476
  46   2.0000      -0.519509       -14.1366
  47   2.0000      -0.508509       -13.8372
  48   2.0000      -0.507267       -13.8034
  49   2.0000      -0.498146       -13.5552
  50   2.0000      -0.488190       -13.2843
  51   2.0000      -0.482405       -13.1269
  52   2.0000      -0.468767       -12.7558
  53   2.0000      -0.467183       -12.7127
  54   2.0000      -0.460631       -12.5344
  55   2.0000      -0.450413       -12.2564
  56   2.0000      -0.447361       -12.1733
  57   2.0000      -0.442184       -12.0324
  58   2.0000      -0.438237       -11.9250
  59   2.0000      -0.429909       -11.6984
  60   2.0000      -0.416464       -11.3326
  61   2.0000      -0.413711       -11.2577
  62   2.0000      -0.409848       -11.1525
  63   2.0000      -0.355193        -9.6653
  64   2.0000      -0.334849        -9.1117
  65   2.0000      -0.326415        -8.8822
  66   2.0000      -0.284088        -7.7304
  67   0.0000       0.025597         0.6965
  68   0.0000       0.075448         2.0531
  69   0.0000       0.105606         2.8737
  70   0.0000       0.121919         3.3176
  71   0.0000       0.128178         3.4879

MULLIKEN ATOMIC CHARGES
-----------------------
   0 S :    0.123056
   1 C :   -0.170185
   2 C :   -0.070484
   3 C :    0.005163
   4 C :   -0.126618
   5 H :    0.001996
   6 C :    0.093325
   7 H :    0.022770
   8 H :    0.004665
   9 C :   -0.059719
  10 H :    0.032373
  11 H :   -0.000673
  12 C :   -0.007435
  13 H :    0.021113
  14 H :    0.031684
  15 H :    0.024720
  16 S :    0.086565
  17 C :   -0.101365
  18 C :   -0.032654
  19 C :   -0.052955
  20 C :   -0.135485
  21 H :    0.020442
  22 C :    0.086132
  23 H :    0.022585
  24 H :    0.033972
  25 C :   -0.103880
  26 H :    0.038265
  27 H :    0.010572
  28 C :   -0.045085
  29 H :    0.045881
  30 H :    0.033455
  31 H :    0.026380
  32 H :    0.078791
  33 H :    0.062635
Sum of atomic charges:   -0.0000000

LOEWDIN ATOMIC CHARGES
----------------------
   0 S :    0.402434
   1 C :   -0.210319
   2 C :   -0.066518
   3 C :   -0.058984
   4 C :   -0.188529
   5 H :    0.026341
   6 C :   -0.023056
   7 H :    0.030082
   8 H :    0.023619
   9 C :   -0.044436
  10 H :    0.031895
  11 H :    0.017243
  12 C :   -0.061701
  13 H :    0.028939
  14 H :    0.026331
  15 H :    0.023596
  16 S :    0.401906
  17 C :   -0.187003
  18 C :   -0.072013
  19 C :   -0.054061
  20 C :   -0.198561
  21 H :    0.032871
  22 C :   -0.030807
  23 H :    0.031873
  24 H :    0.032190
  25 C :   -0.044114
  26 H :    0.029853
  27 H :    0.011660
  28 C :   -0.067493
  29 H :    0.031182
  30 H :    0.024048
  31 H :    0.022684
  32 H :    0.046472
  33 H :    0.032374

  Mayer bond orders larger than 0.100000
B(  0-S ,  1-C ) :   1.1360 B(  0-S ,  4-C ) :   1.1512 B(  1-C ,  2-C ) :   1.6087
B(  1-C , 32-H ) :   0.9507 B(  2-C ,  3-C ) :   1.2551 B(  2-C ,  6-C ) :   1.0297
B(  3-C ,  4-C ) :   1.5410 B(  3-C ,  5-H ) :   0.9959 B(  4-C , 20-C ) :   1.0600
B(  6-C ,  7-H ) :   0.9348 B(  6-C ,  8-H ) :   0.9336 B(  6-C ,  9-C ) :   1.0689
B(  9-C , 10-H ) :   0.9544 B(  9-C , 11-H ) :   0.9452 B(  9-C , 12-C ) :   1.0790
B( 12-C , 13-H ) :   0.9688 B( 12-C , 14-H ) :   0.9754 B( 12-C , 15-H ) :   0.9714
B( 16-S , 17-C ) :   1.1495 B( 16-S , 20-C ) :   1.1330 B( 17-C , 18-C ) :   1.6329
B( 17-C , 33-H ) :   0.9669 B( 18-C , 19-C ) :   1.1987 B( 18-C , 21-H ) :   0.9941
B( 19-C , 20-C ) :   1.6135 B( 19-C , 22-C ) :   1.0406 B( 22-C , 23-H ) :   0.9256
B( 22-C , 24-H ) :   0.9424 B( 22-C , 25-C ) :   1.0522 B( 25-C , 26-H ) :   0.9563
B( 25-C , 27-H ) :   0.9533 B( 25-C , 28-C ) :   1.0776 B( 28-C , 29-H ) :   0.9758
B( 28-C , 30-H ) :   0.9726 B( 28-C , 31-H ) :   0.9780

Dispersion correction           -0.014012516
FINAL SINGLE POINT ENERGY     -1339.879703286316

DIPOLE MOMENT
-------------
                                X             Y             Z
Electronic contribution:     18.19510      22.67560      15.06948
Nuclear contribution   :    -18.51397     -23.26763     -15.22542
                        -----------------------------------------
Total Dipole Moment    :     -0.31887      -0.59203      -0.15594
                        -----------------------------------------
Magnitude (a.u.)       :      0.69028
Magnitude (Debye)      :      1.75456

Rotational constants in cm-1:     0.017878     0.009030     0.006245
Rotational constants in MHz :   535.980313   270.726281   187.215249

                             ****ORCA TERMINATED NORMALLY****
TOTAL RUN TIME: 0 days 0 hours 0 minutes 33 seconds 663 msec
