                         Program Version 4.2.1 -  RELEASE  -
|  1> ! wB97X-D3 SP def2-SVP
|  2> %pal
|  3> nprocs 16
|  4> end
|  5>
|  6> * xyz 0 1
|  7> S 	 15.5869 	 -13.5165 	 79.6737
|  8> C 	 15.6983 	 -12.9986 	 78.004
|  9> C 	 14.8156 	 -13.7047 	 77.1802
| 10> C 	 13.913 	 -14.5375 	 77.9595
| 11> C 	 14.1446 	 -14.3866 	 79.3317
| 12> H 	 13.102 	 -15.1755 	 77.6084
| 13> C 	 14.6321 	 -13.5741 	 75.6953
| 14> H 	 13.9035 	 -12.7762 	 75.5565
| 15> H 	 14.2804 	 -14.4975 	 75.2646
| 16> C 	 15.9653 	 -13.2987 	 74.9318
| 17> H 	 16.194 	 -12.2751 	 74.9725
| 18> H 	 16.6951 	 -13.919 	 75.4438
| 19> C 	 16.0019 	 -13.845 	 73.5395
| 20> H 	 15.8405 	 -14.8882 	 73.3535
| 21> H 	 15.2027 	 -13.3776 	 73.0245
| 22> H 	 16.9904 	 -13.743 	 73.0872
| 23> S 	 14.3358 	 -16.2253 	 81.2462
| 24> C 	 12.9008 	 -16.873 	 81.9947
| 25> C 	 11.7695 	 -16.2841 	 81.4271
| 26> C 	 12.0592 	 -15.28 	 80.4531
| 27> C 	 13.3968 	 -15.1165 	 80.3058
| 28> H 	 10.7457 	 -16.6363 	 81.6584
| 29> C 	 10.9873 	 -14.3742 	 79.8005
| 30> H 	 11.468 	 -13.4986 	 79.3296
| 31> H 	 10.3581 	 -14.0366 	 80.6544
| 32> C 	 10.2759 	 -15.1879 	 78.6716
| 33> H 	 9.85579 	 -16.1355 	 79.1005
| 34> H 	 11.07 	 -15.4128 	 78.0254
| 35> C 	 9.28986 	 -14.3375 	 77.9056
| 36> H 	 9.18841 	 -14.846 	 76.9954
| 37> H 	 9.61743 	 -13.3804 	 77.6226
| 38> H 	 8.38684 	 -14.215 	 78.2572
| 39> H 	 16.4516 	 -12.389 	 77.5729
| 40> H 	 12.7887 	 -17.7401 	 82.6761
| 41> *
| 42>
| 43>                          ****END OF INPUT****

CARTESIAN COORDINATES (ANGSTROEM)
---------------------------------
  S     15.586900  -13.516500   79.673700
  C     15.698300  -12.998600   78.004000
  C     14.815600  -13.704700   77.180200
  C     13.913000  -14.537500   77.959500
  C     14.144600  -14.386600   79.331700
  H     13.102000  -15.175500   77.608400
  C     14.632100  -13.574100   75.695300
  H     13.903500  -12.776200   75.556500
  H     14.280400  -14.497500   75.264600
  C     15.965300  -13.298700   74.931800
  H     16.194000  -12.275100   74.972500
  H     16.695100  -13.919000   75.443800
  C     16.001900  -13.845000   73.539500
  H     15.840500  -14.888200   73.353500
  H     15.202700  -13.377600   73.024500
  H     16.990400  -13.743000   73.087200
  S     14.335800  -16.225300   81.246200
  C     12.900800  -16.873000   81.994700
  C     11.769500  -16.284100   81.427100
  C     12.059200  -15.280000   80.453100
  C     13.396800  -15.116500   80.305800
  H     10.745700  -16.636300   81.658400
  C     10.987300  -14.374200   79.800500
  H     11.468000  -13.498600   79.329600
  H     10.358100  -14.036600   80.654400
  C     10.275900  -15.187900   78.671600
  H      9.855790  -16.135500   79.100500
  H     11.070000  -15.412800   78.025400
  C      9.289860  -14.337500   77.905600
  H      9.188410  -14.846000   76.995400
  H      9.617430  -13.380400   77.622600
  H      8.386840  -14.215000   78.257200
  H     16.451600  -12.389000   77.572900
  H     12.788700  -17.740100   82.676100

 Total Charge           Charge          ....    0
 Multiplicity           Mult            ....    1
 Number of Electrons    NEL             ....  134
 Basis Dimension        Dim             ....  322

ORBITAL ENERGIES
----------------

  NO   OCC          E(Eh)            E(eV)
   0   2.0000     -88.969310     -2420.9780
   1   2.0000     -88.962790     -2420.8006
   2   2.0000     -10.323568      -280.9186
   3   2.0000     -10.318044      -280.7683
   4   2.0000     -10.315418      -280.6968
   5   2.0000     -10.310629      -280.5665
   6   2.0000     -10.303315      -280.3674
   7   2.0000     -10.295994      -280.1682
   8   2.0000     -10.295140      -280.1450
   9   2.0000     -10.294707      -280.1332
  10   2.0000     -10.294395      -280.1247
  11   2.0000     -10.291187      -280.0374
  12   2.0000     -10.287224      -279.9296
  13   2.0000     -10.280277      -279.7405
  14   2.0000     -10.271137      -279.4918
  15   2.0000     -10.255850      -279.0759
  16   2.0000      -8.084195      -219.9821
  17   2.0000      -8.078151      -219.8177
  18   2.0000      -6.042659      -164.4291
  19   2.0000      -6.038803      -164.3242
  20   2.0000      -6.036696      -164.2668
  21   2.0000      -6.034888      -164.2177
  22   2.0000      -6.032523      -164.1533
  23   2.0000      -6.028876      -164.0541
  24   2.0000      -1.011589       -27.5267
  25   2.0000      -0.983144       -26.7527
  26   2.0000      -0.917066       -24.9546
  27   2.0000      -0.909819       -24.7574
  28   2.0000      -0.871141       -23.7050
  29   2.0000      -0.857742       -23.3404
  30   2.0000      -0.850197       -23.1350
  31   2.0000      -0.809970       -22.0404
  32   2.0000      -0.785232       -21.3673
  33   2.0000      -0.774283       -21.0693
  34   2.0000      -0.713072       -19.4037
  35   2.0000      -0.704614       -19.1735
  36   2.0000      -0.692403       -18.8412
  37   2.0000      -0.663840       -18.0640
  38   2.0000      -0.638487       -17.3741
  39   2.0000      -0.609002       -16.5718
  40   2.0000      -0.590129       -16.0582
  41   2.0000      -0.579812       -15.7775
  42   2.0000      -0.568525       -15.4704
  43   2.0000      -0.565795       -15.3961
  44   2.0000      -0.535194       -14.5634
  45   2.0000      -0.529200       -14.4003
  46   2.0000      -0.516154       -14.0453
  47   2.0000      -0.513835       -13.9822
  48   2.0000      -0.508302       -13.8316
  49   2.0000      -0.498537       -13.5659
  50   2.0000      -0.497523       -13.5383
  51   2.0000      -0.482197       -13.1212
  52   2.0000      -0.475914       -12.9503
  53   2.0000      -0.467574       -12.7233
  54   2.0000      -0.459950       -12.5159
  55   2.0000      -0.457917       -12.4606
  56   2.0000      -0.445382       -12.1195
  57   2.0000      -0.437447       -11.9035
  58   2.0000      -0.433749       -11.8029
  59   2.0000      -0.430584       -11.7168
  60   2.0000      -0.417978       -11.3738
  61   2.0000      -0.412271       -11.2185
  62   2.0000      -0.410034       -11.1576
  63   2.0000      -0.343489        -9.3468
  64   2.0000      -0.329480        -8.9656
  65   2.0000      -0.327261        -8.9052
  66   2.0000      -0.290505        -7.9050
  67   0.0000       0.033840         0.9208
  68   0.0000       0.070548         1.9197
  69   0.0000       0.106925         2.9096
  70   0.0000       0.127622         3.4728
  71   0.0000       0.134122         3.6496

MULLIKEN ATOMIC CHARGES
-----------------------
   0 S :    0.125089
   1 C :   -0.097919
   2 C :   -0.114122
   3 C :    0.014221
   4 C :   -0.155344
   5 H :    0.020205
   6 C :    0.077960
   7 H :    0.050327
   8 H :    0.016428
   9 C :   -0.078725
  10 H :    0.031088
  11 H :    0.031091
  12 C :   -0.037431
  13 H :    0.020793
  14 H :    0.019261
  15 H :    0.033985
  16 S :    0.105663
  17 C :   -0.095714
  18 C :   -0.056681
  19 C :   -0.052549
  20 C :   -0.150771
  21 H :    0.023874
  22 C :    0.045021
  23 H :    0.035142
  24 H :    0.043192
  25 C :   -0.084601
  26 H :    0.038948
  27 H :   -0.000912
  28 C :    0.088703
  29 H :    0.004438
  30 H :    0.003845
  31 H :   -0.006773
  32 H :    0.034703
  33 H :    0.067564
Sum of atomic charges:   -0.0000000

LOEWDIN ATOMIC CHARGES
----------------------
   0 S :    0.422083
   1 C :   -0.203702
   2 C :   -0.054942
   3 C :   -0.061605
   4 C :   -0.205944
   5 H :    0.030311
   6 C :   -0.029178
   7 H :    0.037133
   8 H :    0.028719
   9 C :   -0.037568
  10 H :    0.017730
  11 H :    0.026944
  12 C :   -0.066384
  13 H :    0.023146
  14 H :    0.019134
  15 H :    0.031072
  16 S :    0.412708
  17 C :   -0.199927
  18 C :   -0.073934
  19 C :   -0.064344
  20 C :   -0.204279
  21 H :    0.032423
  22 C :   -0.026129
  23 H :    0.031175
  24 H :    0.033580
  25 C :   -0.029153
  26 H :    0.030207
  27 H :    0.013868
  28 C :   -0.046607
  29 H :    0.026280
  30 H :    0.023391
  31 H :    0.003929
  32 H :    0.020544
  33 H :    0.039319

  Mayer bond orders larger than 0.100000
B(  0-S ,  1-C ) :   1.1247 B(  0-S ,  4-C ) :   1.1627 B(  1-C ,  2-C ) :   1.6104
B(  1-C , 32-H ) :   0.9704 B(  2-C ,  3-C ) :   1.2365 B(  2-C ,  6-C ) :   1.0298
B(  3-C ,  4-C ) :   1.5495 B(  3-C ,  5-H ) :   0.9909 B(  4-C , 20-C ) :   1.0344
B(  6-C ,  7-H ) :   0.9304 B(  6-C ,  8-H ) :   0.9438 B(  6-C ,  9-C ) :   1.0585
B(  9-C , 10-H ) :   0.9507 B(  9-C , 11-H ) :   0.9636 B(  9-C , 12-C ) :   1.0983
B( 12-C , 13-H ) :   0.9708 B( 12-C , 14-H ) :   0.9725 B( 12-C , 15-H ) :   0.9710
B( 16-S , 17-C ) :   1.1461 B( 16-S , 20-C ) :   1.1445 B( 17-C , 18-C ) :   1.6158
B( 17-C , 33-H ) :   0.9641 B( 18-C , 19-C ) :   1.2384 B( 18-C , 21-H ) :   0.9809
B( 19-C , 20-C ) :   1.6283 B( 19-C , 22-C ) :   1.0265 B( 22-C , 23-H ) :   0.9378
B( 22-C , 24-H ) :   0.9447 B( 22-C , 25-C ) :   1.0557 B( 25-C , 26-H ) :   0.9569
B( 25-C , 27-H ) :   0.9533 B( 25-C , 28-C ) :   1.0892 B( 28-C , 29-H ) :   0.9649
B( 28-C , 30-H ) :   0.9616 B( 28-C , 31-H ) :   0.9692

Dispersion correction           -0.014148079
FINAL SINGLE POINT ENERGY     -1339.855230602039

DIPOLE MOMENT
-------------
                                X             Y             Z
Electronic contribution:     12.83934      -4.12418      26.30074
Nuclear contribution   :    -13.29291       4.05522     -26.94945
                        -----------------------------------------
Total Dipole Moment    :     -0.45357      -0.06896      -0.64871
                        -----------------------------------------
Magnitude (a.u.)       :      0.79454
Magnitude (Debye)      :      2.01957

Rotational constants in cm-1:     0.018433     0.008525     0.006479
Rotational constants in MHz :   552.603866   255.580767   194.224279

                             ****ORCA TERMINATED NORMALLY****
TOTAL RUN TIME: 0 days 0 hours 0 minutes 28 seconds 426 msec
