                         Program Version 4.2.1 -  RELEASE  -
|  1> ! wB97X-D3 SP def2-SVP
|  2> %pal
|  3> nprocs 16
|  4> end
|  5>
|  6> * xyz 0 1
|  7> S 	 -56.2837 	 33.6715 	 99.8986
|  8> C 	 -57.5516 	 33.4946 	 98.7673
|  9> C 	 -57.2813 	 32.6478 	 97.721
| 10> C 	 -55.9448 	 32.1606 	 97.7884
| 11> C 	 -55.2549 	 32.7018 	 98.8682
| 12> H 	 -55.5007 	 31.5607 	 97.0793
| 13> C 	 -58.2144 	 32.2766 	 96.6168
| 14> H 	 -59.2176 	 32.3807 	 97.0431
| 15> H 	 -58.1547 	 31.2354 	 96.3811
| 16> C 	 -58.235 	 33.2114 	 95.3438
| 17> H 	 -58.4749 	 34.2386 	 95.6441
| 18> H 	 -57.2571 	 33.3141 	 94.8488
| 19> C 	 -59.1847 	 32.8147 	 94.2044
| 20> H 	 -59.4126 	 33.5399 	 93.487
| 21> H 	 -58.9945 	 31.8692 	 93.7366
| 22> H 	 -60.0836 	 32.7076 	 94.7607
| 23> S 	 -53.3167 	 31.8678 	 100.649
| 24> C 	 -51.6412 	 31.6379 	 100.123
| 25> C 	 -51.49 	 32.0941 	 98.8228
| 26> C 	 -52.7773 	 32.4571 	 98.2185
| 27> C 	 -53.8322 	 32.4974 	 99.0879
| 28> H 	 -50.6855 	 31.9142 	 98.2763
| 29> C 	 -52.8843 	 32.802 	 96.7559
| 30> H 	 -52.1339 	 33.6273 	 96.5557
| 31> H 	 -53.9259 	 33.1662 	 96.6666
| 32> C 	 -52.6767 	 31.6449 	 95.8522
| 33> H 	 -53.4404 	 30.9141 	 96.1832
| 34> H 	 -51.7012 	 31.1383 	 95.9539
| 35> C 	 -52.9172 	 31.8685 	 94.2835
| 36> H 	 -52.2573 	 32.6176 	 93.7452
| 37> H 	 -54.001 	 32.2459 	 94.2889
| 38> H 	 -52.9814 	 30.8673 	 93.8301
| 39> H 	 -58.5628 	 33.9398 	 98.8781
| 40> H 	 -50.8771 	 31.0664 	 100.58
| 41> *
| 42>
| 43>                          ****END OF INPUT****

CARTESIAN COORDINATES (ANGSTROEM)
---------------------------------
  S    -56.283700   33.671500   99.898600
  C    -57.551600   33.494600   98.767300
  C    -57.281300   32.647800   97.721000
  C    -55.944800   32.160600   97.788400
  C    -55.254900   32.701800   98.868200
  H    -55.500700   31.560700   97.079300
  C    -58.214400   32.276600   96.616800
  H    -59.217600   32.380700   97.043100
  H    -58.154700   31.235400   96.381100
  C    -58.235000   33.211400   95.343800
  H    -58.474900   34.238600   95.644100
  H    -57.257100   33.314100   94.848800
  C    -59.184700   32.814700   94.204400
  H    -59.412600   33.539900   93.487000
  H    -58.994500   31.869200   93.736600
  H    -60.083600   32.707600   94.760700
  S    -53.316700   31.867800  100.649000
  C    -51.641200   31.637900  100.123000
  C    -51.490000   32.094100   98.822800
  C    -52.777300   32.457100   98.218500
  C    -53.832200   32.497400   99.087900
  H    -50.685500   31.914200   98.276300
  C    -52.884300   32.802000   96.755900
  H    -52.133900   33.627300   96.555700
  H    -53.925900   33.166200   96.666600
  C    -52.676700   31.644900   95.852200
  H    -53.440400   30.914100   96.183200
  H    -51.701200   31.138300   95.953900
  C    -52.917200   31.868500   94.283500
  H    -52.257300   32.617600   93.745200
  H    -54.001000   32.245900   94.288900
  H    -52.981400   30.867300   93.830100
  H    -58.562800   33.939800   98.878100
  H    -50.877100   31.066400  100.580000

 Total Charge           Charge          ....    0
 Multiplicity           Mult            ....    1
 Number of Electrons    NEL             ....  134
 Basis Dimension        Dim             ....  322

ORBITAL ENERGIES
----------------

  NO   OCC          E(Eh)            E(eV)
   0   2.0000     -88.972896     -2421.0756
   1   2.0000     -88.961919     -2420.7769
   2   2.0000     -10.331477      -281.1338
   3   2.0000     -10.324567      -280.9458
   4   2.0000     -10.319996      -280.8214
   5   2.0000     -10.314098      -280.6609
   6   2.0000     -10.301430      -280.3162
   7   2.0000     -10.299280      -280.2577
   8   2.0000     -10.295863      -280.1647
   9   2.0000     -10.295048      -280.1425
  10   2.0000     -10.292835      -280.0823
  11   2.0000     -10.292291      -280.0675
  12   2.0000     -10.291410      -280.0435
  13   2.0000     -10.290302      -280.0133
  14   2.0000     -10.287993      -279.9505
  15   2.0000     -10.270135      -279.4646
  16   2.0000      -8.088235      -220.0921
  17   2.0000      -8.076435      -219.7710
  18   2.0000      -6.046666      -164.5382
  19   2.0000      -6.042690      -164.4300
  20   2.0000      -6.039015      -164.3300
  21   2.0000      -6.035143      -164.2246
  22   2.0000      -6.030950      -164.1105
  23   2.0000      -6.027008      -164.0032
  24   2.0000      -1.011159       -27.5150
  25   2.0000      -0.985550       -26.8182
  26   2.0000      -0.911301       -24.7978
  27   2.0000      -0.909692       -24.7540
  28   2.0000      -0.873898       -23.7800
  29   2.0000      -0.860510       -23.4157
  30   2.0000      -0.841052       -22.8862
  31   2.0000      -0.820004       -22.3134
  32   2.0000      -0.784223       -21.3398
  33   2.0000      -0.769901       -20.9501
  34   2.0000      -0.707415       -19.2497
  35   2.0000      -0.703144       -19.1335
  36   2.0000      -0.692832       -18.8529
  37   2.0000      -0.670850       -18.2547
  38   2.0000      -0.647048       -17.6071
  39   2.0000      -0.624959       -17.0060
  40   2.0000      -0.591029       -16.0827
  41   2.0000      -0.575841       -15.6694
  42   2.0000      -0.569170       -15.4879
  43   2.0000      -0.557955       -15.1827
  44   2.0000      -0.531836       -14.4720
  45   2.0000      -0.527860       -14.3638
  46   2.0000      -0.522711       -14.2237
  47   2.0000      -0.510246       -13.8845
  48   2.0000      -0.507658       -13.8141
  49   2.0000      -0.504655       -13.7324
  50   2.0000      -0.494451       -13.4547
  51   2.0000      -0.487838       -13.2748
  52   2.0000      -0.470004       -12.7895
  53   2.0000      -0.463480       -12.6119
  54   2.0000      -0.454720       -12.3736
  55   2.0000      -0.453749       -12.3471
  56   2.0000      -0.447360       -12.1733
  57   2.0000      -0.442430       -12.0391
  58   2.0000      -0.435479       -11.8500
  59   2.0000      -0.432268       -11.7626
  60   2.0000      -0.417488       -11.3604
  61   2.0000      -0.410383       -11.1671
  62   2.0000      -0.406699       -11.0669
  63   2.0000      -0.351496        -9.5647
  64   2.0000      -0.336467        -9.1557
  65   2.0000      -0.325742        -8.8639
  66   2.0000      -0.293086        -7.9753
  67   0.0000       0.032035         0.8717
  68   0.0000       0.066282         1.8036
  69   0.0000       0.109455         2.9784
  70   0.0000       0.120497         3.2789
  71   0.0000       0.123585         3.3629

MULLIKEN ATOMIC CHARGES
-----------------------
   0 S :    0.140971
   1 C :   -0.125450
   2 C :   -0.084668
   3 C :    0.062826
   4 C :   -0.154906
   5 H :   -0.037719
   6 C :    0.078678
   7 H :    0.012573
   8 H :    0.024044
   9 C :   -0.082907
  10 H :    0.024361
  11 H :    0.026515
  12 C :   -0.007011
  13 H :    0.028029
  14 H :    0.029667
  15 H :    0.003700
  16 S :    0.083477
  17 C :   -0.073089
  18 C :    0.052176
  19 C :   -0.108451
  20 C :   -0.106476
  21 H :   -0.034362
  22 C :    0.063697
  23 H :    0.040755
  24 H :    0.031910
  25 C :   -0.116116
  26 H :    0.028585
  27 H :    0.033370
  28 C :   -0.076867
  29 H :    0.060470
  30 H :    0.030965
  31 H :    0.046795
  32 H :    0.052553
  33 H :    0.051907
Sum of atomic charges:    0.0000000

LOEWDIN ATOMIC CHARGES
----------------------
   0 S :    0.431231
   1 C :   -0.211724
   2 C :   -0.065255
   3 C :   -0.044051
   4 C :   -0.192090
   5 H :    0.015647
   6 C :   -0.031120
   7 H :    0.031745
   8 H :    0.028575
   9 C :   -0.037101
  10 H :    0.025382
  11 H :    0.018776
  12 C :   -0.061610
  13 H :    0.022525
  14 H :    0.022845
  15 H :    0.020918
  16 S :    0.383075
  17 C :   -0.163387
  18 C :   -0.049916
  19 C :   -0.052096
  20 C :   -0.197825
  21 H :    0.004122
  22 C :   -0.042907
  23 H :    0.036603
  24 H :    0.033512
  25 C :   -0.048900
  26 H :    0.024748
  27 H :    0.021144
  28 C :   -0.077023
  29 H :    0.033024
  30 H :    0.029823
  31 H :    0.029728
  32 H :    0.034412
  33 H :    0.027170

  Mayer bond orders larger than 0.100000
B(  0-S ,  1-C ) :   1.1448 B(  0-S ,  4-C ) :   1.1600 B(  1-C ,  2-C ) :   1.6189
B(  1-C , 32-H ) :   0.9561 B(  2-C ,  3-C ) :   1.2473 B(  2-C ,  6-C ) :   1.0383
B(  3-C ,  4-C ) :   1.5403 B(  3-C ,  5-H ) :   1.0116 B(  4-C , 20-C ) :   1.0291
B(  6-C ,  7-H ) :   0.9286 B(  6-C ,  8-H ) :   0.9415 B(  6-C ,  9-C ) :   1.0491
B(  9-C , 10-H ) :   0.9548 B(  9-C , 11-H ) :   0.9620 B(  9-C , 12-C ) :   1.0768
B( 12-C , 13-H ) :   0.9731 B( 12-C , 14-H ) :   0.9761 B( 12-C , 15-H ) :   0.9719
B( 16-S , 17-C ) :   1.1474 B( 16-S , 20-C ) :   1.1099 B( 17-C , 18-C ) :   1.6243
B( 17-C , 33-H ) :   0.9705 B( 18-C , 19-C ) :   1.2184 B( 18-C , 21-H ) :   0.9981
B( 19-C , 20-C ) :   1.6402 B( 19-C , 22-C ) :   1.0517 B( 22-C , 23-H ) :   0.9302
B( 22-C , 24-H ) :   0.9285 B( 22-C , 25-C ) :   1.0640 B( 25-C , 26-H ) :   0.9485
B( 25-C , 27-H ) :   0.9548 B( 25-C , 28-C ) :   1.0718 B( 28-C , 29-H ) :   0.9749
B( 28-C , 30-H ) :   0.9743 B( 28-C , 31-H ) :   0.9747

Dispersion correction           -0.014372446
FINAL SINGLE POINT ENERGY     -1339.862473200915

DIPOLE MOMENT
-------------
                                X             Y             Z
Electronic contribution:      7.52279       2.70209      32.89531
Nuclear contribution   :     -7.63432      -2.93261     -33.61308
                        -----------------------------------------
Total Dipole Moment    :     -0.11154      -0.23052      -0.71777
                        -----------------------------------------
Magnitude (a.u.)       :      0.76209
Magnitude (Debye)      :      1.93708

Rotational constants in cm-1:     0.017966     0.009230     0.006414
Rotational constants in MHz :   538.606654   276.703359   192.294773

                             ****ORCA TERMINATED NORMALLY****
TOTAL RUN TIME: 0 days 0 hours 0 minutes 30 seconds 402 msec
