                         Program Version 4.2.1 -  RELEASE  -
|  1> ! wB97X-D3 SP def2-SVP
|  2> %pal
|  3> nprocs 16
|  4> end
|  5>
|  6> * xyz 0 1
|  7> S 	 -3.49851 	 50.3527 	 48.7671
|  8> C 	 -4.35414 	 49.8519 	 50.2228
|  9> C 	 -4.5915 	 50.8789 	 51.087
| 10> C 	 -4.01391 	 52.1062 	 50.6111
| 11> C 	 -3.53557 	 52.0688 	 49.3372
| 12> H 	 -3.89613 	 53.0419 	 51.1506
| 13> C 	 -5.38777 	 50.8346 	 52.3811
| 14> H 	 -5.9161 	 49.9101 	 52.3396
| 15> H 	 -6.07559 	 51.6697 	 52.4192
| 16> C 	 -4.50935 	 50.8173 	 53.6608
| 17> H 	 -3.78447 	 50.1015 	 53.689
| 18> H 	 -4.05684 	 51.7933 	 53.7484
| 19> C 	 -5.24434 	 50.7141 	 54.9144
| 20> H 	 -5.81069 	 49.7853 	 54.944
| 21> H 	 -4.64037 	 50.8237 	 55.8003
| 22> H 	 -5.90991 	 51.5944 	 54.9527
| 23> S 	 -1.43787 	 52.7067 	 47.5801
| 24> C 	 -1.1212 	 54.2699 	 47.0911
| 25> C 	 -2.09088 	 55.1151 	 47.63
| 26> C 	 -3.09638 	 54.4613 	 48.4532
| 27> C 	 -2.8485 	 53.1102 	 48.5304
| 28> H 	 -2.07941 	 56.1814 	 47.3089
| 29> C 	 -4.25329 	 55.2662 	 49.0497
| 30> H 	 -4.11783 	 56.2821 	 48.6051
| 31> H 	 -4.18711 	 55.3332 	 50.1686
| 32> C 	 -5.5701 	 54.6933 	 48.5818
| 33> H 	 -5.66335 	 53.6441 	 48.7807
| 34> H 	 -5.65188 	 54.7789 	 47.5215
| 35> C 	 -6.7891 	 55.4478 	 49.1452
| 36> H 	 -7.73103 	 55.3174 	 48.6071
| 37> H 	 -6.76118 	 56.5302 	 49.0491
| 38> H 	 -7.00379 	 55.1315 	 50.1462
| 39> H 	 -4.72073 	 48.9447 	 50.5039
| 40> H 	 -0.356865 	 54.5252 	 46.3953
| 41> *
| 42>
| 43>                          ****END OF INPUT****

CARTESIAN COORDINATES (ANGSTROEM)
---------------------------------
  S     -3.498510   50.352700   48.767100
  C     -4.354140   49.851900   50.222800
  C     -4.591500   50.878900   51.087000
  C     -4.013910   52.106200   50.611100
  C     -3.535570   52.068800   49.337200
  H     -3.896130   53.041900   51.150600
  C     -5.387770   50.834600   52.381100
  H     -5.916100   49.910100   52.339600
  H     -6.075590   51.669700   52.419200
  C     -4.509350   50.817300   53.660800
  H     -3.784470   50.101500   53.689000
  H     -4.056840   51.793300   53.748400
  C     -5.244340   50.714100   54.914400
  H     -5.810690   49.785300   54.944000
  H     -4.640370   50.823700   55.800300
  H     -5.909910   51.594400   54.952700
  S     -1.437870   52.706700   47.580100
  C     -1.121200   54.269900   47.091100
  C     -2.090880   55.115100   47.630000
  C     -3.096380   54.461300   48.453200
  C     -2.848500   53.110200   48.530400
  H     -2.079410   56.181400   47.308900
  C     -4.253290   55.266200   49.049700
  H     -4.117830   56.282100   48.605100
  H     -4.187110   55.333200   50.168600
  C     -5.570100   54.693300   48.581800
  H     -5.663350   53.644100   48.780700
  H     -5.651880   54.778900   47.521500
  C     -6.789100   55.447800   49.145200
  H     -7.731030   55.317400   48.607100
  H     -6.761180   56.530200   49.049100
  H     -7.003790   55.131500   50.146200
  H     -4.720730   48.944700   50.503900
  H     -0.356865   54.525200   46.395300

 Total Charge           Charge          ....    0
 Multiplicity           Mult            ....    1
 Number of Electrons    NEL             ....  134
 Basis Dimension        Dim             ....  322

ORBITAL ENERGIES
----------------

  NO   OCC          E(Eh)            E(eV)
   0   2.0000     -88.965633     -2420.8779
   1   2.0000     -88.964391     -2420.8442
   2   2.0000     -10.335132      -281.2333
   3   2.0000     -10.328119      -281.0424
   4   2.0000     -10.313811      -280.6531
   5   2.0000     -10.307862      -280.4912
   6   2.0000     -10.305600      -280.4296
   7   2.0000     -10.299675      -280.2684
   8   2.0000     -10.299668      -280.2682
   9   2.0000     -10.297934      -280.2210
  10   2.0000     -10.293742      -280.1070
  11   2.0000     -10.293726      -280.1065
  12   2.0000     -10.277143      -279.6553
  13   2.0000     -10.273149      -279.5466
  14   2.0000     -10.272626      -279.5324
  15   2.0000     -10.272020      -279.5159
  16   2.0000      -8.080784      -219.8893
  17   2.0000      -8.079301      -219.8490
  18   2.0000      -6.039137      -164.3333
  19   2.0000      -6.038078      -164.3045
  20   2.0000      -6.034866      -164.2171
  21   2.0000      -6.034134      -164.1971
  22   2.0000      -6.031786      -164.1332
  23   2.0000      -6.029671      -164.0757
  24   2.0000      -1.009681       -27.4748
  25   2.0000      -0.986514       -26.8444
  26   2.0000      -0.920473       -25.0474
  27   2.0000      -0.913026       -24.8447
  28   2.0000      -0.874122       -23.7861
  29   2.0000      -0.854064       -23.2403
  30   2.0000      -0.844946       -22.9921
  31   2.0000      -0.818788       -22.2803
  32   2.0000      -0.783223       -21.3126
  33   2.0000      -0.775885       -21.1129
  34   2.0000      -0.711021       -19.3479
  35   2.0000      -0.699454       -19.0331
  36   2.0000      -0.694320       -18.8934
  37   2.0000      -0.663918       -18.0661
  38   2.0000      -0.643719       -17.5165
  39   2.0000      -0.620215       -16.8769
  40   2.0000      -0.596298       -16.2261
  41   2.0000      -0.586051       -15.9472
  42   2.0000      -0.567574       -15.4445
  43   2.0000      -0.564569       -15.3627
  44   2.0000      -0.529368       -14.4048
  45   2.0000      -0.523870       -14.2552
  46   2.0000      -0.519666       -14.1408
  47   2.0000      -0.514873       -14.0104
  48   2.0000      -0.507050       -13.7975
  49   2.0000      -0.503192       -13.6926
  50   2.0000      -0.498427       -13.5629
  51   2.0000      -0.485981       -13.2242
  52   2.0000      -0.475146       -12.9294
  53   2.0000      -0.465236       -12.6597
  54   2.0000      -0.462487       -12.5849
  55   2.0000      -0.447736       -12.1835
  56   2.0000      -0.443260       -12.0617
  57   2.0000      -0.431902       -11.7526
  58   2.0000      -0.429970       -11.7001
  59   2.0000      -0.425859       -11.5882
  60   2.0000      -0.419987       -11.4284
  61   2.0000      -0.417651       -11.3649
  62   2.0000      -0.414046       -11.2668
  63   2.0000      -0.357286        -9.7222
  64   2.0000      -0.330295        -8.9878
  65   2.0000      -0.328673        -8.9436
  66   2.0000      -0.292299        -7.9539
  67   0.0000       0.027678         0.7532
  68   0.0000       0.079998         2.1769
  69   0.0000       0.104168         2.8346
  70   0.0000       0.119507         3.2519
  71   0.0000       0.136390         3.7114

MULLIKEN ATOMIC CHARGES
-----------------------
   0 S :    0.087771
   1 C :   -0.043496
   2 C :   -0.108697
   3 C :    0.014172
   4 C :   -0.140600
   5 H :    0.012224
   6 C :    0.097728
   7 H :    0.003712
   8 H :    0.028222
   9 C :   -0.033854
  10 H :    0.007362
  11 H :    0.014148
  12 C :   -0.034440
  13 H :    0.026832
  14 H :    0.032068
  15 H :    0.015855
  16 S :    0.116010
  17 C :   -0.083866
  18 C :   -0.065977
  19 C :   -0.051652
  20 C :   -0.138206
  21 H :    0.031877
  22 C :    0.069465
  23 H :    0.023801
  24 H :    0.047188
  25 C :   -0.066826
  26 H :    0.044983
  27 H :    0.021776
  28 C :   -0.039985
  29 H :    0.020576
  30 H :    0.019753
  31 H :    0.024575
  32 H :   -0.008365
  33 H :    0.055867
Sum of atomic charges:    0.0000000

LOEWDIN ATOMIC CHARGES
----------------------
   0 S :    0.366040
   1 C :   -0.174381
   2 C :   -0.058305
   3 C :   -0.063107
   4 C :   -0.163255
   5 H :    0.031963
   6 C :   -0.017452
   7 H :    0.023901
   8 H :    0.031605
   9 C :   -0.034926
  10 H :    0.011476
  11 H :    0.024011
  12 C :   -0.060306
  13 H :    0.020991
  14 H :    0.026186
  15 H :    0.024346
  16 S :    0.442093
  17 C :   -0.207620
  18 C :   -0.083584
  19 C :   -0.057819
  20 C :   -0.206473
  21 H :    0.034295
  22 C :   -0.028838
  23 H :    0.035945
  24 H :    0.033391
  25 C :   -0.038965
  26 H :    0.025465
  27 H :    0.024473
  28 C :   -0.070421
  29 H :    0.027436
  30 H :    0.023587
  31 H :    0.019488
  32 H :    0.009637
  33 H :    0.029125

  Mayer bond orders larger than 0.100000
B(  0-S ,  1-C ) :   1.1121 B(  0-S ,  4-C ) :   1.1118 B(  1-C ,  2-C ) :   1.6770
B(  1-C , 32-H ) :   0.9649 B(  2-C ,  3-C ) :   1.1876 B(  2-C ,  6-C ) :   1.0270
B(  3-C ,  4-C ) :   1.6362 B(  3-C ,  5-H ) :   0.9866 B(  4-C , 20-C ) :   1.0382
B(  6-C ,  7-H ) :   0.9338 B(  6-C ,  8-H ) :   0.9398 B(  6-C ,  9-C ) :   1.0673
B(  9-C , 10-H ) :   0.9547 B(  9-C , 11-H ) :   0.9513 B(  9-C , 12-C ) :   1.1017
B( 12-C , 13-H ) :   0.9723 B( 12-C , 14-H ) :   0.9709 B( 12-C , 15-H ) :   0.9713
B( 16-S , 17-C ) :   1.1884 B( 16-S , 20-C ) :   1.1533 B( 17-C , 18-C ) :   1.5703
B( 17-C , 33-H ) :   0.9739 B( 18-C , 19-C ) :   1.2724 B( 18-C , 21-H ) :   0.9823
B( 19-C , 20-C ) :   1.5761 B( 19-C , 22-C ) :   1.0307 B( 22-C , 23-H ) :   0.9307
B( 22-C , 24-H ) :   0.9352 B( 22-C , 25-C ) :   1.0681 B( 25-C , 26-H ) :   0.9572
B( 25-C , 27-H ) :   0.9513 B( 25-C , 28-C ) :   1.0869 B( 28-C , 29-H ) :   0.9730
B( 28-C , 30-H ) :   0.9715 B( 28-C , 31-H ) :   0.9762

Dispersion correction           -0.014003088
FINAL SINGLE POINT ENERGY     -1339.873265050351

DIPOLE MOMENT
-------------
                                X             Y             Z
Electronic contribution:     19.51436      -9.14316     -21.05888
Nuclear contribution   :    -19.79773       9.53812      21.45464
                        -----------------------------------------
Total Dipole Moment    :     -0.28336       0.39496       0.39576
                        -----------------------------------------
Magnitude (a.u.)       :      0.62683
Magnitude (Debye)      :      1.59327

Rotational constants in cm-1:     0.018358     0.008459     0.006756
Rotational constants in MHz :   550.357440   253.585513   202.540696

                             ****ORCA TERMINATED NORMALLY****
TOTAL RUN TIME: 0 days 0 hours 0 minutes 34 seconds 72 msec
