                         Program Version 4.2.1 -  RELEASE  -
|  1> ! wB97X-D3 SP def2-SVP
|  2> %pal
|  3> nprocs 16
|  4> end
|  5>
|  6> * xyz 0 1
|  7> S 	 -48.9793 	 66.9031 	 125.493
|  8> C 	 -47.4943 	 66.5861 	 124.683
|  9> C 	 -46.5638 	 65.9856 	 125.524
| 10> C 	 -47.0617 	 65.9215 	 126.848
| 11> C 	 -48.3775 	 66.3365 	 127.006
| 12> H 	 -46.6033 	 65.5468 	 127.732
| 13> C 	 -45.2161 	 65.6518 	 125.092
| 14> H 	 -44.3534 	 66.0247 	 125.726
| 15> H 	 -44.9972 	 66.2037 	 124.194
| 16> C 	 -45.0507 	 64.1437 	 124.809
| 17> H 	 -44.9001 	 63.5527 	 125.718
| 18> H 	 -45.9298 	 63.6861 	 124.276
| 19> C 	 -43.8459 	 63.9264 	 123.977
| 20> H 	 -43.1085 	 64.5581 	 124.506
| 21> H 	 -43.5944 	 62.8555 	 123.94
| 22> H 	 -43.9399 	 64.2154 	 122.908
| 23> S 	 -49.2696 	 67.9779 	 128.996
| 24> C 	 -49.9966 	 67.2773 	 130.424
| 25> C 	 -50.0014 	 65.9493 	 130.4
| 26> C 	 -49.4457 	 65.3874 	 129.21
| 27> C 	 -49.0782 	 66.3741 	 128.258
| 28> H 	 -50.4301 	 65.5704 	 131.299
| 29> C 	 -49.2098 	 63.868 	 129.017
| 30> H 	 -48.4481 	 63.7558 	 128.209
| 31> H 	 -50.0504 	 63.436 	 128.485
| 32> C 	 -48.7112 	 63.1955 	 130.243
| 33> H 	 -49.4512 	 63.2263 	 131.05
| 34> H 	 -47.7874 	 63.7105 	 130.617
| 35> C 	 -48.4745 	 61.719 	 129.906
| 36> H 	 -49.2382 	 61.2826 	 129.271
| 37> H 	 -48.2863 	 61.0292 	 130.724
| 38> H 	 -47.5118 	 61.699 	 129.377
| 39> H 	 -47.4024 	 66.6417 	 123.604
| 40> H 	 -50.5001 	 67.852 	 131.21
| 41> *
| 42>
| 43>                          ****END OF INPUT****

CARTESIAN COORDINATES (ANGSTROEM)
---------------------------------
  S    -48.979300   66.903100  125.493000
  C    -47.494300   66.586100  124.683000
  C    -46.563800   65.985600  125.524000
  C    -47.061700   65.921500  126.848000
  C    -48.377500   66.336500  127.006000
  H    -46.603300   65.546800  127.732000
  C    -45.216100   65.651800  125.092000
  H    -44.353400   66.024700  125.726000
  H    -44.997200   66.203700  124.194000
  C    -45.050700   64.143700  124.809000
  H    -44.900100   63.552700  125.718000
  H    -45.929800   63.686100  124.276000
  C    -43.845900   63.926400  123.977000
  H    -43.108500   64.558100  124.506000
  H    -43.594400   62.855500  123.940000
  H    -43.939900   64.215400  122.908000
  S    -49.269600   67.977900  128.996000
  C    -49.996600   67.277300  130.424000
  C    -50.001400   65.949300  130.400000
  C    -49.445700   65.387400  129.210000
  C    -49.078200   66.374100  128.258000
  H    -50.430100   65.570400  131.299000
  C    -49.209800   63.868000  129.017000
  H    -48.448100   63.755800  128.209000
  H    -50.050400   63.436000  128.485000
  C    -48.711200   63.195500  130.243000
  H    -49.451200   63.226300  131.050000
  H    -47.787400   63.710500  130.617000
  C    -48.474500   61.719000  129.906000
  H    -49.238200   61.282600  129.271000
  H    -48.286300   61.029200  130.724000
  H    -47.511800   61.699000  129.377000
  H    -47.402400   66.641700  123.604000
  H    -50.500100   67.852000  131.210000

 Total Charge           Charge          ....    0
 Multiplicity           Mult            ....    1
 Number of Electrons    NEL             ....  134
 Basis Dimension        Dim             ....  322

ORBITAL ENERGIES
----------------

  NO   OCC          E(Eh)            E(eV)
   0   2.0000     -88.965859     -2420.8841
   1   2.0000     -88.958552     -2420.6853
   2   2.0000     -10.326973      -281.0112
   3   2.0000     -10.323120      -280.9064
   4   2.0000     -10.312189      -280.6089
   5   2.0000     -10.310455      -280.5617
   6   2.0000     -10.310276      -280.5569
   7   2.0000     -10.297953      -280.2215
   8   2.0000     -10.291419      -280.0437
   9   2.0000     -10.290466      -280.0178
  10   2.0000     -10.289310      -279.9864
  11   2.0000     -10.289181      -279.9829
  12   2.0000     -10.285640      -279.8865
  13   2.0000     -10.285563      -279.8844
  14   2.0000     -10.278304      -279.6869
  15   2.0000     -10.276851      -279.6473
  16   2.0000      -8.081443      -219.9073
  17   2.0000      -8.073421      -219.6890
  18   2.0000      -6.039767      -164.3504
  19   2.0000      -6.035652      -164.2384
  20   2.0000      -6.032537      -164.1537
  21   2.0000      -6.031904      -164.1365
  22   2.0000      -6.027942      -164.0286
  23   2.0000      -6.024155      -163.9256
  24   2.0000      -1.009297       -27.4644
  25   2.0000      -0.986482       -26.8435
  26   2.0000      -0.922436       -25.1008
  27   2.0000      -0.913845       -24.8670
  28   2.0000      -0.877741       -23.8845
  29   2.0000      -0.855734       -23.2857
  30   2.0000      -0.843514       -22.9532
  31   2.0000      -0.819156       -22.2904
  32   2.0000      -0.780487       -21.2381
  33   2.0000      -0.766528       -20.8583
  34   2.0000      -0.707967       -19.2648
  35   2.0000      -0.700597       -19.0642
  36   2.0000      -0.691712       -18.8224
  37   2.0000      -0.654023       -17.7969
  38   2.0000      -0.642962       -17.4959
  39   2.0000      -0.621972       -16.9247
  40   2.0000      -0.597792       -16.2668
  41   2.0000      -0.583605       -15.8807
  42   2.0000      -0.568187       -15.4611
  43   2.0000      -0.559279       -15.2188
  44   2.0000      -0.534107       -14.5338
  45   2.0000      -0.528232       -14.3739
  46   2.0000      -0.517614       -14.0850
  47   2.0000      -0.513438       -13.9714
  48   2.0000      -0.512663       -13.9503
  49   2.0000      -0.496414       -13.5081
  50   2.0000      -0.495620       -13.4865
  51   2.0000      -0.476941       -12.9782
  52   2.0000      -0.465963       -12.6795
  53   2.0000      -0.462041       -12.5728
  54   2.0000      -0.456017       -12.4089
  55   2.0000      -0.447372       -12.1736
  56   2.0000      -0.445101       -12.1118
  57   2.0000      -0.437340       -11.9006
  58   2.0000      -0.433419       -11.7939
  59   2.0000      -0.429005       -11.6738
  60   2.0000      -0.413968       -11.2646
  61   2.0000      -0.413318       -11.2470
  62   2.0000      -0.412450       -11.2233
  63   2.0000      -0.340839        -9.2747
  64   2.0000      -0.329235        -8.9589
  65   2.0000      -0.324109        -8.8195
  66   2.0000      -0.300259        -8.1705
  67   0.0000       0.036868         1.0032
  68   0.0000       0.064034         1.7424
  69   0.0000       0.120182         3.2703
  70   0.0000       0.125611         3.4180
  71   0.0000       0.131075         3.5667

MULLIKEN ATOMIC CHARGES
-----------------------
   0 S :    0.129489
   1 C :   -0.121886
   2 C :   -0.060419
   3 C :    0.064841
   4 C :   -0.195173
   5 H :   -0.002134
   6 C :    0.042878
   7 H :    0.041547
   8 H :    0.008570
   9 C :   -0.082467
  10 H :    0.032365
  11 H :    0.035809
  12 C :   -0.058695
  13 H :    0.027324
  14 H :    0.034905
  15 H :    0.039235
  16 S :    0.093452
  17 C :   -0.100830
  18 C :   -0.033646
  19 C :   -0.003918
  20 C :   -0.163312
  21 H :    0.007935
  22 C :    0.060188
  23 H :    0.014822
  24 H :    0.035109
  25 C :   -0.085033
  26 H :    0.033574
  27 H :    0.045336
  28 C :   -0.038438
  29 H :    0.033223
  30 H :    0.029002
  31 H :    0.024255
  32 H :    0.052905
  33 H :    0.059185
Sum of atomic charges:    0.0000000

LOEWDIN ATOMIC CHARGES
----------------------
   0 S :    0.436808
   1 C :   -0.203769
   2 C :   -0.066589
   3 C :   -0.049893
   4 C :   -0.219063
   5 H :    0.026504
   6 C :   -0.040745
   7 H :    0.040318
   8 H :    0.028433
   9 C :   -0.045105
  10 H :    0.025165
  11 H :    0.027678
  12 C :   -0.070246
  13 H :    0.026505
  14 H :    0.026711
  15 H :    0.025646
  16 S :    0.388775
  17 C :   -0.179516
  18 C :   -0.082119
  19 C :   -0.043946
  20 C :   -0.196685
  21 H :    0.033560
  22 C :   -0.037878
  23 H :    0.032661
  24 H :    0.033088
  25 C :   -0.043676
  26 H :    0.020678
  27 H :    0.034126
  28 C :   -0.066362
  29 H :    0.025544
  30 H :    0.023485
  31 H :    0.027394
  32 H :    0.028411
  33 H :    0.034102

  Mayer bond orders larger than 0.100000
B(  0-S ,  1-C ) :   1.1664 B(  0-S ,  4-C ) :   1.1684 B(  1-C ,  2-C ) :   1.5682
B(  1-C , 32-H ) :   0.9655 B(  2-C ,  3-C ) :   1.2540 B(  2-C ,  6-C ) :   1.0481
B(  3-C ,  4-C ) :   1.5488 B(  3-C ,  5-H ) :   1.0021 B(  4-C , 20-C ) :   1.0364
B(  6-C ,  7-H ) :   0.9303 B(  6-C ,  8-H ) :   0.9423 B(  6-C ,  9-C ) :   1.0455
B(  9-C , 10-H ) :   0.9520 B(  9-C , 11-H ) :   0.9576 B(  9-C , 12-C ) :   1.0881
B( 12-C , 13-H ) :   0.9683 B( 12-C , 14-H ) :   0.9716 B( 12-C , 15-H ) :   0.9754
B( 16-S , 17-C ) :   1.1451 B( 16-S , 20-C ) :   1.1432 B( 17-C , 18-C ) :   1.6626
B( 17-C , 33-H ) :   0.9575 B( 18-C , 19-C ) :   1.1931 B( 18-C , 21-H ) :   0.9977
B( 19-C , 20-C ) :   1.6024 B( 19-C , 22-C ) :   1.0244 B( 22-C , 23-H ) :   0.9358
B( 22-C , 24-H ) :   0.9307 B( 22-C , 25-C ) :   1.0628 B( 25-C , 26-H ) :   0.9493
B( 25-C , 27-H ) :   0.9581 B( 25-C , 28-C ) :   1.0767 B( 28-C , 29-H ) :   0.9734
B( 28-C , 30-H ) :   0.9744 B( 28-C , 31-H ) :   0.9741

Dispersion correction           -0.013628900
FINAL SINGLE POINT ENERGY     -1339.874974861815

DIPOLE MOMENT
-------------
                                X             Y             Z
Electronic contribution:    -16.98568      25.13141       1.20668
Nuclear contribution   :     17.31170     -25.72242      -1.07959
                        -----------------------------------------
Total Dipole Moment    :      0.32602      -0.59101       0.12709
                        -----------------------------------------
Magnitude (a.u.)       :      0.68683
Magnitude (Debye)      :      1.74578

Rotational constants in cm-1:     0.017311     0.008616     0.006338
Rotational constants in MHz :   518.984479   258.286868   189.996005

                             ****ORCA TERMINATED NORMALLY****
TOTAL RUN TIME: 0 days 0 hours 0 minutes 34 seconds 725 msec
