                         Program Version 4.2.1 -  RELEASE  -
|  1> ! wB97X-D3 SP def2-SVP
|  2> %pal
|  3> nprocs 16
|  4> end
|  5>
|  6> * xyz 0 1
|  7> S 	 8.19252 	 -17.905 	 85.6938
|  8> C 	 7.03623 	 -19.1285 	 86.2316
|  9> C 	 6.15595 	 -18.6029 	 87.1955
| 10> C 	 6.37763 	 -17.2034 	 87.4121
| 11> C 	 7.39995 	 -16.6545 	 86.6235
| 12> H 	 5.74131 	 -16.5879 	 87.9519
| 13> C 	 5.05228 	 -19.4497 	 87.8229
| 14> H 	 5.47696 	 -20.23 	 88.3745
| 15> H 	 4.61819 	 -19.9298 	 86.9352
| 16> C 	 4.0722 	 -18.8298 	 88.7417
| 17> H 	 3.41173 	 -19.6096 	 89.1379
| 18> H 	 4.52936 	 -18.375 	 89.6781
| 19> C 	 3.0893 	 -17.8372 	 88.1517
| 20> H 	 3.52001 	 -17.2949 	 87.3443
| 21> H 	 2.15371 	 -18.3241 	 87.8306
| 22> H 	 2.84265 	 -17.1238 	 88.9095
| 23> S 	 7.66831 	 -14.6429 	 84.856
| 24> C 	 7.82053 	 -12.9665 	 85.4355
| 25> C 	 7.87159 	 -12.872 	 86.8153
| 26> C 	 7.80215 	 -14.1634 	 87.4105
| 27> C 	 7.63817 	 -15.2355 	 86.4839
| 28> H 	 7.87528 	 -11.9208 	 87.3631
| 29> C 	 7.84792 	 -14.3399 	 88.8857
| 30> H 	 7.38462 	 -15.2748 	 89.233
| 31> H 	 7.25484 	 -13.5393 	 89.325
| 32> C 	 9.29704 	 -14.248 	 89.3867
| 33> H 	 9.18597 	 -14.2677 	 90.4198
| 34> H 	 9.79955 	 -13.3032 	 89.1396
| 35> C 	 10.1078 	 -15.4658 	 88.8615
| 36> H 	 11.0456 	 -15.671 	 89.4239
| 37> H 	 10.3183 	 -15.3874 	 87.8243
| 38> H 	 9.41769 	 -16.2751 	 89.0281
| 39> H 	 6.94958 	 -20.1411 	 85.902
| 40> H 	 7.84092 	 -12.1427 	 84.7643
| 41> *
| 42>
| 43>                          ****END OF INPUT****

CARTESIAN COORDINATES (ANGSTROEM)
---------------------------------
  S      8.192520  -17.905000   85.693800
  C      7.036230  -19.128500   86.231600
  C      6.155950  -18.602900   87.195500
  C      6.377630  -17.203400   87.412100
  C      7.399950  -16.654500   86.623500
  H      5.741310  -16.587900   87.951900
  C      5.052280  -19.449700   87.822900
  H      5.476960  -20.230000   88.374500
  H      4.618190  -19.929800   86.935200
  C      4.072200  -18.829800   88.741700
  H      3.411730  -19.609600   89.137900
  H      4.529360  -18.375000   89.678100
  C      3.089300  -17.837200   88.151700
  H      3.520010  -17.294900   87.344300
  H      2.153710  -18.324100   87.830600
  H      2.842650  -17.123800   88.909500
  S      7.668310  -14.642900   84.856000
  C      7.820530  -12.966500   85.435500
  C      7.871590  -12.872000   86.815300
  C      7.802150  -14.163400   87.410500
  C      7.638170  -15.235500   86.483900
  H      7.875280  -11.920800   87.363100
  C      7.847920  -14.339900   88.885700
  H      7.384620  -15.274800   89.233000
  H      7.254840  -13.539300   89.325000
  C      9.297040  -14.248000   89.386700
  H      9.185970  -14.267700   90.419800
  H      9.799550  -13.303200   89.139600
  C     10.107800  -15.465800   88.861500
  H     11.045600  -15.671000   89.423900
  H     10.318300  -15.387400   87.824300
  H      9.417690  -16.275100   89.028100
  H      6.949580  -20.141100   85.902000
  H      7.840920  -12.142700   84.764300

 Total Charge           Charge          ....    0
 Multiplicity           Mult            ....    1
 Number of Electrons    NEL             ....  134
 Basis Dimension        Dim             ....  322

ORBITAL ENERGIES
----------------

  NO   OCC          E(Eh)            E(eV)
   0   2.0000     -88.970916     -2421.0217
   1   2.0000     -88.965561     -2420.8760
   2   2.0000     -10.330962      -281.1198
   3   2.0000     -10.326209      -280.9904
   4   2.0000     -10.318602      -280.7834
   5   2.0000     -10.313296      -280.6391
   6   2.0000     -10.304200      -280.3915
   7   2.0000     -10.303208      -280.3645
   8   2.0000     -10.298344      -280.2322
   9   2.0000     -10.290660      -280.0231
  10   2.0000     -10.287894      -279.9478
  11   2.0000     -10.287732      -279.9434
  12   2.0000     -10.286992      -279.9233
  13   2.0000     -10.278223      -279.6847
  14   2.0000     -10.270000      -279.4609
  15   2.0000     -10.267131      -279.3828
  16   2.0000      -8.084767      -219.9977
  17   2.0000      -8.080117      -219.8712
  18   2.0000      -6.043370      -164.4485
  19   2.0000      -6.039285      -164.3373
  20   2.0000      -6.038600      -164.3187
  21   2.0000      -6.035604      -164.2371
  22   2.0000      -6.034616      -164.2102
  23   2.0000      -6.030948      -164.1104
  24   2.0000      -1.003597       -27.3093
  25   2.0000      -0.979187       -26.6450
  26   2.0000      -0.919090       -25.0097
  27   2.0000      -0.911155       -24.7938
  28   2.0000      -0.871653       -23.7189
  29   2.0000      -0.846315       -23.0294
  30   2.0000      -0.842699       -22.9310
  31   2.0000      -0.815555       -22.1924
  32   2.0000      -0.787108       -21.4183
  33   2.0000      -0.769723       -20.9452
  34   2.0000      -0.710013       -19.3204
  35   2.0000      -0.695678       -18.9304
  36   2.0000      -0.692050       -18.8316
  37   2.0000      -0.660029       -17.9603
  38   2.0000      -0.639428       -17.3997
  39   2.0000      -0.623310       -16.9611
  40   2.0000      -0.600099       -16.3295
  41   2.0000      -0.566257       -15.4086
  42   2.0000      -0.559405       -15.2222
  43   2.0000      -0.550942       -14.9919
  44   2.0000      -0.545405       -14.8412
  45   2.0000      -0.541518       -14.7354
  46   2.0000      -0.521798       -14.1988
  47   2.0000      -0.510492       -13.8912
  48   2.0000      -0.502831       -13.6827
  49   2.0000      -0.494123       -13.4458
  50   2.0000      -0.492724       -13.4077
  51   2.0000      -0.479389       -13.0448
  52   2.0000      -0.466839       -12.7033
  53   2.0000      -0.461263       -12.5516
  54   2.0000      -0.459425       -12.5016
  55   2.0000      -0.449694       -12.2368
  56   2.0000      -0.443704       -12.0738
  57   2.0000      -0.437985       -11.9182
  58   2.0000      -0.431968       -11.7544
  59   2.0000      -0.429801       -11.6955
  60   2.0000      -0.420634       -11.4460
  61   2.0000      -0.413839       -11.2611
  62   2.0000      -0.409789       -11.1509
  63   2.0000      -0.347902        -9.4669
  64   2.0000      -0.330518        -8.9939
  65   2.0000      -0.326636        -8.8882
  66   2.0000      -0.284017        -7.7285
  67   0.0000       0.024748         0.6734
  68   0.0000       0.069252         1.8845
  69   0.0000       0.111114         3.0236
  70   0.0000       0.119226         3.2443
  71   0.0000       0.134298         3.6544

MULLIKEN ATOMIC CHARGES
-----------------------
   0 S :    0.126782
   1 C :   -0.128235
   2 C :   -0.102676
   3 C :    0.046482
   4 C :   -0.145303
   5 H :   -0.009198
   6 C :    0.113542
   7 H :    0.025179
   8 H :    0.032114
   9 C :   -0.117200
  10 H :    0.028230
  11 H :    0.039025
  12 C :   -0.037651
  13 H :    0.029980
  14 H :    0.035837
  15 H :    0.023307
  16 S :    0.103528
  17 C :   -0.084679
  18 C :   -0.026611
  19 C :   -0.047339
  20 C :   -0.163870
  21 H :    0.032962
  22 C :    0.037440
  23 H :    0.026016
  24 H :    0.020146
  25 C :   -0.045042
  26 H :    0.011844
  27 H :    0.028138
  28 C :   -0.042305
  29 H :    0.039245
  30 H :    0.042803
  31 H :    0.024035
  32 H :    0.037454
  33 H :    0.046019
Sum of atomic charges:   -0.0000000

LOEWDIN ATOMIC CHARGES
----------------------
   0 S :    0.408534
   1 C :   -0.200834
   2 C :   -0.051906
   3 C :   -0.061187
   4 C :   -0.197709
   5 H :    0.016860
   6 C :   -0.034813
   7 H :    0.030684
   8 H :    0.039355
   9 C :   -0.054417
  10 H :    0.032069
  11 H :    0.031306
  12 C :   -0.065733
  13 H :    0.019114
  14 H :    0.028766
  15 H :    0.025041
  16 S :    0.406462
  17 C :   -0.167722
  18 C :   -0.068331
  19 C :   -0.053387
  20 C :   -0.210088
  21 H :    0.039878
  22 C :   -0.034842
  23 H :    0.029331
  24 H :    0.029439
  25 C :   -0.030042
  26 H :    0.013363
  27 H :    0.021502
  28 C :   -0.059414
  29 H :    0.029107
  30 H :    0.021867
  31 H :    0.023593
  32 H :    0.024287
  33 H :    0.019867

  Mayer bond orders larger than 0.100000
B(  0-S ,  1-C ) :   1.1326 B(  0-S ,  4-C ) :   1.1585 B(  1-C ,  2-C ) :   1.5958
B(  1-C ,  4-C ) :   0.1028 B(  1-C , 32-H ) :   0.9747 B(  2-C ,  3-C ) :   1.2753
B(  2-C ,  6-C ) :   0.9947 B(  3-C ,  4-C ) :   1.5354 B(  3-C ,  5-H ) :   0.9909
B(  4-C , 20-C ) :   1.0636 B(  6-C ,  7-H ) :   0.9285 B(  6-C ,  8-H ) :   0.9362
B(  6-C ,  9-C ) :   1.1011 B(  9-C , 10-H ) :   0.9494 B(  9-C , 11-H ) :   0.9539
B(  9-C , 12-C ) :   1.0679 B( 12-C , 13-H ) :   0.9804 B( 12-C , 14-H ) :   0.9763
B( 12-C , 15-H ) :   0.9742 B( 16-S , 17-C ) :   1.1602 B( 16-S , 20-C ) :   1.1446
B( 17-C , 18-C ) :   1.5873 B( 17-C , 20-C ) :   0.1036 B( 17-C , 33-H ) :   0.9724
B( 18-C , 19-C ) :   1.2593 B( 18-C , 21-H ) :   0.9864 B( 19-C , 20-C ) :   1.5505
B( 19-C , 22-C ) :   1.0540 B( 22-C , 23-H ) :   0.9380 B( 22-C , 24-H ) :   0.9265
B( 22-C , 25-C ) :   1.0777 B( 25-C , 26-H ) :   0.9545 B( 25-C , 27-H ) :   0.9579
B( 25-C , 28-C ) :   1.0617 B( 28-C , 29-H ) :   0.9751 B( 28-C , 30-H ) :   0.9758
B( 28-C , 31-H ) :   0.9752

Dispersion correction           -0.015390937
FINAL SINGLE POINT ENERGY     -1339.878822586678

DIPOLE MOMENT
-------------
                                X             Y             Z
Electronic contribution:      9.04774       2.85671     -20.64419
Nuclear contribution   :     -9.48930      -2.82404      21.17232
                        -----------------------------------------
Total Dipole Moment    :     -0.44156       0.03267       0.52812
                        -----------------------------------------
Magnitude (a.u.)       :      0.68917
Magnitude (Debye)      :      1.75173

Rotational constants in cm-1:     0.018719     0.008925     0.008308
Rotational constants in MHz :   561.174512   267.558848   249.077487

                             ****ORCA TERMINATED NORMALLY****
TOTAL RUN TIME: 0 days 0 hours 0 minutes 35 seconds 821 msec
