                         Program Version 4.2.1 -  RELEASE  -
|  1> ! wB97X-D3 SP def2-SVP
|  2> %pal
|  3> nprocs 16
|  4> end
|  5>
|  6> * xyz 0 1
|  7> S 	 -48.452 	 -0.975613 	 96.355
|  8> C 	 -49.9088 	 -1.68245 	 95.6075
|  9> C 	 -50.958 	 -0.835649 	 95.5933
| 10> C 	 -50.7207 	 0.376346 	 96.311
| 11> C 	 -49.368 	 0.469067 	 96.6374
| 12> H 	 -51.407 	 1.15962 	 96.4873
| 13> C 	 -52.3513 	 -0.997055 	 95.0123
| 14> H 	 -52.2345 	 -1.71963 	 94.2181
| 15> H 	 -52.6397 	 -0.0863749 	 94.4299
| 16> C 	 -53.3424 	 -1.41983 	 96.0705
| 17> H 	 -54.3044 	 -1.72075 	 95.6432
| 18> H 	 -52.9753 	 -2.31256 	 96.5263
| 19> C 	 -53.611 	 -0.421358 	 97.205
| 20> H 	 -53.8445 	 0.62741 	 96.8272
| 21> H 	 -54.5122 	 -0.722277 	 97.753
| 22> H 	 -52.8526 	 -0.48664 	 97.9493
| 23> S 	 -48.0095 	 1.52171 	 98.8286
| 24> C 	 -47.4609 	 3.19679 	 98.7322
| 25> C 	 -47.9894 	 3.8399 	 97.6786
| 26> C 	 -48.7246 	 2.96603 	 96.8483
| 27> C 	 -48.6733 	 1.64346 	 97.1896
| 28> H 	 -47.9144 	 4.92541 	 97.6486
| 29> C 	 -49.4226 	 3.48166 	 95.6005
| 30> H 	 -49.668 	 4.55052 	 95.7092
| 31> H 	 -50.4425 	 2.98822 	 95.4832
| 32> C 	 -48.5621 	 3.51495 	 94.3301
| 33> H 	 -48.3701 	 2.51272 	 94.0704
| 34> H 	 -47.5811 	 3.79043 	 94.6198
| 35> C 	 -49.1557 	 4.3124 	 93.0693
| 36> H 	 -49.9809 	 3.74673 	 92.5479
| 37> H 	 -48.3436 	 4.60883 	 92.4323
| 38> H 	 -49.5056 	 5.23514 	 93.4751
| 39> H 	 -49.9368 	 -2.64194 	 95.1017
| 40> H 	 -46.8538 	 3.66544 	 99.4354
| 41> *
| 42>
| 43>                          ****END OF INPUT****

CARTESIAN COORDINATES (ANGSTROEM)
---------------------------------
  S    -48.452000   -0.975613   96.355000
  C    -49.908800   -1.682450   95.607500
  C    -50.958000   -0.835649   95.593300
  C    -50.720700    0.376346   96.311000
  C    -49.368000    0.469067   96.637400
  H    -51.407000    1.159620   96.487300
  C    -52.351300   -0.997055   95.012300
  H    -52.234500   -1.719630   94.218100
  H    -52.639700   -0.086375   94.429900
  C    -53.342400   -1.419830   96.070500
  H    -54.304400   -1.720750   95.643200
  H    -52.975300   -2.312560   96.526300
  C    -53.611000   -0.421358   97.205000
  H    -53.844500    0.627410   96.827200
  H    -54.512200   -0.722277   97.753000
  H    -52.852600   -0.486640   97.949300
  S    -48.009500    1.521710   98.828600
  C    -47.460900    3.196790   98.732200
  C    -47.989400    3.839900   97.678600
  C    -48.724600    2.966030   96.848300
  C    -48.673300    1.643460   97.189600
  H    -47.914400    4.925410   97.648600
  C    -49.422600    3.481660   95.600500
  H    -49.668000    4.550520   95.709200
  H    -50.442500    2.988220   95.483200
  C    -48.562100    3.514950   94.330100
  H    -48.370100    2.512720   94.070400
  H    -47.581100    3.790430   94.619800
  C    -49.155700    4.312400   93.069300
  H    -49.980900    3.746730   92.547900
  H    -48.343600    4.608830   92.432300
  H    -49.505600    5.235140   93.475100
  H    -49.936800   -2.641940   95.101700
  H    -46.853800    3.665440   99.435400

 Total Charge           Charge          ....    0
 Multiplicity           Mult            ....    1
 Number of Electrons    NEL             ....  134
 Basis Dimension        Dim             ....  322

ORBITAL ENERGIES
----------------

  NO   OCC          E(Eh)            E(eV)
   0   2.0000     -88.968033     -2420.9433
   1   2.0000     -88.960258     -2420.7317
   2   2.0000     -10.328820      -281.0615
   3   2.0000     -10.322596      -280.8921
   4   2.0000     -10.312170      -280.6084
   5   2.0000     -10.309551      -280.5372
   6   2.0000     -10.299314      -280.2586
   7   2.0000     -10.296337      -280.1776
   8   2.0000     -10.293438      -280.0987
   9   2.0000     -10.291045      -280.0336
  10   2.0000     -10.290293      -280.0131
  11   2.0000     -10.288774      -279.9718
  12   2.0000     -10.284734      -279.8618
  13   2.0000     -10.282670      -279.8057
  14   2.0000     -10.280625      -279.7500
  15   2.0000     -10.277036      -279.6524
  16   2.0000      -8.082561      -219.9377
  17   2.0000      -8.074871      -219.7284
  18   2.0000      -6.041081      -164.3862
  19   2.0000      -6.037257      -164.2821
  20   2.0000      -6.033430      -164.1780
  21   2.0000      -6.033162      -164.1707
  22   2.0000      -6.029628      -164.0745
  23   2.0000      -6.025360      -163.9584
  24   2.0000      -1.007533       -27.4164
  25   2.0000      -0.986714       -26.8498
  26   2.0000      -0.916166       -24.9301
  27   2.0000      -0.900239       -24.4968
  28   2.0000      -0.869748       -23.6671
  29   2.0000      -0.847311       -23.0565
  30   2.0000      -0.841266       -22.8920
  31   2.0000      -0.816181       -22.2094
  32   2.0000      -0.786435       -21.4000
  33   2.0000      -0.771899       -21.0044
  34   2.0000      -0.708355       -19.2753
  35   2.0000      -0.702187       -19.1075
  36   2.0000      -0.695313       -18.9204
  37   2.0000      -0.662952       -18.0398
  38   2.0000      -0.641299       -17.4506
  39   2.0000      -0.618871       -16.8403
  40   2.0000      -0.595335       -16.1999
  41   2.0000      -0.575532       -15.6610
  42   2.0000      -0.556578       -15.1453
  43   2.0000      -0.546799       -14.8791
  44   2.0000      -0.544726       -14.8227
  45   2.0000      -0.520515       -14.1639
  46   2.0000      -0.518066       -14.0973
  47   2.0000      -0.507443       -13.8082
  48   2.0000      -0.503086       -13.6897
  49   2.0000      -0.495361       -13.4795
  50   2.0000      -0.488802       -13.3010
  51   2.0000      -0.478846       -13.0301
  52   2.0000      -0.471631       -12.8337
  53   2.0000      -0.464589       -12.6421
  54   2.0000      -0.459281       -12.4977
  55   2.0000      -0.448385       -12.2012
  56   2.0000      -0.442757       -12.0480
  57   2.0000      -0.440212       -11.9788
  58   2.0000      -0.437175       -11.8961
  59   2.0000      -0.424333       -11.5467
  60   2.0000      -0.418427       -11.3860
  61   2.0000      -0.414413       -11.2768
  62   2.0000      -0.406264       -11.0550
  63   2.0000      -0.340167        -9.2564
  64   2.0000      -0.334562        -9.1039
  65   2.0000      -0.326647        -8.8885
  66   2.0000      -0.298536        -8.1236
  67   0.0000       0.032322         0.8795
  68   0.0000       0.069790         1.8991
  69   0.0000       0.106646         2.9020
  70   0.0000       0.109879         2.9900
  71   0.0000       0.131842         3.5876

MULLIKEN ATOMIC CHARGES
-----------------------
   0 S :    0.118553
   1 C :   -0.121314
   2 C :   -0.110091
   3 C :    0.051304
   4 C :   -0.164977
   5 H :    0.007200
   6 C :    0.075822
   7 H :    0.008309
   8 H :    0.036554
   9 C :   -0.036022
  10 H :    0.027743
  11 H :    0.015301
  12 C :   -0.067326
  13 H :    0.040662
  14 H :    0.028824
  15 H :    0.043273
  16 S :    0.085872
  17 C :   -0.057497
  18 C :   -0.028721
  19 C :   -0.044577
  20 C :   -0.128016
  21 H :    0.024257
  22 C :    0.039655
  23 H :    0.005009
  24 H :    0.026488
  25 C :   -0.032562
  26 H :    0.010268
  27 H :    0.005565
  28 C :   -0.036214
  29 H :    0.055972
  30 H :    0.035809
  31 H :    0.016206
  32 H :    0.040618
  33 H :    0.028052
Sum of atomic charges:    0.0000000

LOEWDIN ATOMIC CHARGES
----------------------
   0 S :    0.402390
   1 C :   -0.191772
   2 C :   -0.060823
   3 C :   -0.049634
   4 C :   -0.191740
   5 H :    0.025220
   6 C :   -0.032285
   7 H :    0.026549
   8 H :    0.034612
   9 C :   -0.038463
  10 H :    0.024115
  11 H :    0.024779
  12 C :   -0.069046
  13 H :    0.029615
  14 H :    0.029399
  15 H :    0.023513
  16 S :    0.379548
  17 C :   -0.158796
  18 C :   -0.072695
  19 C :   -0.058147
  20 C :   -0.195136
  21 H :    0.038084
  22 C :   -0.038265
  23 H :    0.024854
  24 H :    0.030911
  25 C :   -0.036830
  26 H :    0.016777
  27 H :    0.019345
  28 C :   -0.061493
  29 H :    0.036236
  30 H :    0.027353
  31 H :    0.017522
  32 H :    0.027953
  33 H :    0.016351

  Mayer bond orders larger than 0.100000
B(  0-S ,  1-C ) :   1.1078 B(  0-S ,  4-C ) :   1.1655 B(  1-C ,  2-C ) :   1.6746
B(  1-C , 32-H ) :   0.9627 B(  2-C ,  3-C ) :   1.2088 B(  2-C ,  6-C ) :   1.0099
B(  3-C ,  4-C ) :   1.5814 B(  3-C ,  5-H ) :   0.9929 B(  4-C , 20-C ) :   1.0080
B(  6-C ,  7-H ) :   0.9327 B(  6-C ,  8-H ) :   0.9455 B(  6-C ,  9-C ) :   1.0731
B(  9-C , 10-H ) :   0.9579 B(  9-C , 11-H ) :   0.9454 B(  9-C , 12-C ) :   1.0948
B( 12-C , 13-H ) :   0.9711 B( 12-C , 14-H ) :   0.9680 B( 12-C , 15-H ) :   0.9674
B( 16-S , 17-C ) :   1.1444 B( 16-S , 20-C ) :   1.1263 B( 17-C , 18-C ) :   1.6373
B( 17-C , 33-H ) :   0.9721 B( 18-C , 19-C ) :   1.2192 B( 18-C , 21-H ) :   0.9927
B( 19-C , 20-C ) :   1.6288 B( 19-C , 22-C ) :   1.0568 B( 22-C , 23-H ) :   0.9308
B( 22-C , 24-H ) :   0.9317 B( 22-C , 25-C ) :   1.0609 B( 25-C , 26-H ) :   0.9519
B( 25-C , 27-H ) :   0.9499 B( 25-C , 28-C ) :   1.0642 B( 28-C , 29-H ) :   0.9775
B( 28-C , 30-H ) :   0.9759 B( 28-C , 31-H ) :   0.9772

Dispersion correction           -0.014729625
FINAL SINGLE POINT ENERGY     -1339.868159780745

DIPOLE MOMENT
-------------
                                X             Y             Z
Electronic contribution:     18.64847      -8.10087      14.82675
Nuclear contribution   :    -19.16069       8.39631     -15.12549
                        -----------------------------------------
Total Dipole Moment    :     -0.51222       0.29544      -0.29874
                        -----------------------------------------
Magnitude (a.u.)       :      0.66250
Magnitude (Debye)      :      1.68393

Rotational constants in cm-1:     0.016745     0.009353     0.007743
Rotational constants in MHz :   502.010510   280.407145   232.138466

                             ****ORCA TERMINATED NORMALLY****
TOTAL RUN TIME: 0 days 0 hours 0 minutes 31 seconds 62 msec
