                         Program Version 4.2.1 -  RELEASE  -
|  1> ! wB97X-D3 SP def2-SVP
|  2> %pal
|  3> nprocs 16
|  4> end
|  5>
|  6> * xyz 0 1
|  7> S 	 -50.4363 	 6.5995 	 95.6743
|  8> C 	 -50.4246 	 5.76872 	 97.2231
|  9> C 	 -50.0845 	 4.39087 	 97.0663
| 10> C 	 -49.9361 	 4.06302 	 95.6734
| 11> C 	 -50.0341 	 5.15233 	 94.8264
| 12> H 	 -49.7476 	 3.06 	 95.2868
| 13> C 	 -49.8824 	 3.45965 	 98.1651
| 14> H 	 -49.3516 	 4.03671 	 98.9133
| 15> H 	 -49.2053 	 2.64265 	 97.9301
| 16> C 	 -51.1496 	 2.80223 	 98.7329
| 17> H 	 -50.9562 	 2.28432 	 99.6339
| 18> H 	 -51.8276 	 3.60483 	 99.0147
| 19> C 	 -51.9006 	 1.98273 	 97.6358
| 20> H 	 -51.8662 	 2.41192 	 96.6622
| 21> H 	 -51.5133 	 0.953606 	 97.6438
| 22> H 	 -52.9373 	 1.84006 	 98.0432
| 23> S 	 -51.1792 	 5.76239 	 92.4112
| 24> C 	 -50.2473 	 5.63718 	 90.8805
| 25> C 	 -49.0106 	 5.22975 	 91.2384
| 26> C 	 -48.821 	 4.8499 	 92.5921
| 27> C 	 -49.8538 	 5.21594 	 93.395
| 28> H 	 -48.2869 	 5.18021 	 90.4225
| 29> C 	 -47.6061 	 4.07947 	 93.0178
| 30> H 	 -47.1778 	 3.6934 	 92.1125
| 31> H 	 -47.9873 	 3.19924 	 93.6289
| 32> C 	 -46.5888 	 4.7215 	 93.9391
| 33> H 	 -45.7839 	 3.97885 	 94.062
| 34> H 	 -47.0313 	 4.87427 	 94.9544
| 35> C 	 -46.0911 	 6.03353 	 93.3873
| 36> H 	 -46.8291 	 6.50871 	 92.8138
| 37> H 	 -45.1166 	 5.9252 	 92.8555
| 38> H 	 -45.8863 	 6.73303 	 94.2015
| 39> H 	 -50.6349 	 6.29171 	 98.1304
| 40> H 	 -50.7309 	 5.96125 	 89.9379
| 41> *
| 42>
| 43>                          ****END OF INPUT****

CARTESIAN COORDINATES (ANGSTROEM)
---------------------------------
  S    -50.436300    6.599500   95.674300
  C    -50.424600    5.768720   97.223100
  C    -50.084500    4.390870   97.066300
  C    -49.936100    4.063020   95.673400
  C    -50.034100    5.152330   94.826400
  H    -49.747600    3.060000   95.286800
  C    -49.882400    3.459650   98.165100
  H    -49.351600    4.036710   98.913300
  H    -49.205300    2.642650   97.930100
  C    -51.149600    2.802230   98.732900
  H    -50.956200    2.284320   99.633900
  H    -51.827600    3.604830   99.014700
  C    -51.900600    1.982730   97.635800
  H    -51.866200    2.411920   96.662200
  H    -51.513300    0.953606   97.643800
  H    -52.937300    1.840060   98.043200
  S    -51.179200    5.762390   92.411200
  C    -50.247300    5.637180   90.880500
  C    -49.010600    5.229750   91.238400
  C    -48.821000    4.849900   92.592100
  C    -49.853800    5.215940   93.395000
  H    -48.286900    5.180210   90.422500
  C    -47.606100    4.079470   93.017800
  H    -47.177800    3.693400   92.112500
  H    -47.987300    3.199240   93.628900
  C    -46.588800    4.721500   93.939100
  H    -45.783900    3.978850   94.062000
  H    -47.031300    4.874270   94.954400
  C    -46.091100    6.033530   93.387300
  H    -46.829100    6.508710   92.813800
  H    -45.116600    5.925200   92.855500
  H    -45.886300    6.733030   94.201500
  H    -50.634900    6.291710   98.130400
  H    -50.730900    5.961250   89.937900

 Total Charge           Charge          ....    0
 Multiplicity           Mult            ....    1
 Number of Electrons    NEL             ....  134
 Basis Dimension        Dim             ....  322

ORBITAL ENERGIES
----------------

  NO   OCC          E(Eh)            E(eV)
   0   2.0000     -88.969573     -2420.9852
   1   2.0000     -88.957073     -2420.6450
   2   2.0000     -10.328292      -281.0471
   3   2.0000     -10.321706      -280.8679
   4   2.0000     -10.321576      -280.8643
   5   2.0000     -10.318173      -280.7718
   6   2.0000     -10.306315      -280.4491
   7   2.0000     -10.297837      -280.2184
   8   2.0000     -10.297487      -280.2089
   9   2.0000     -10.293487      -280.1000
  10   2.0000     -10.287966      -279.9498
  11   2.0000     -10.285895      -279.8934
  12   2.0000     -10.283388      -279.8252
  13   2.0000     -10.281538      -279.7749
  14   2.0000     -10.278309      -279.6870
  15   2.0000     -10.265763      -279.3456
  16   2.0000      -8.084405      -219.9878
  17   2.0000      -8.072025      -219.6510
  18   2.0000      -6.042831      -164.4338
  19   2.0000      -6.038761      -164.3230
  20   2.0000      -6.035387      -164.2312
  21   2.0000      -6.030614      -164.1014
  22   2.0000      -6.026434      -163.9876
  23   2.0000      -6.022730      -163.8868
  24   2.0000      -1.011170       -27.5153
  25   2.0000      -0.986057       -26.8320
  26   2.0000      -0.918201       -24.9855
  27   2.0000      -0.910501       -24.7760
  28   2.0000      -0.870474       -23.6868
  29   2.0000      -0.848654       -23.0930
  30   2.0000      -0.842534       -22.9265
  31   2.0000      -0.818091       -22.2614
  32   2.0000      -0.782925       -21.3045
  33   2.0000      -0.773119       -21.0376
  34   2.0000      -0.708004       -19.2658
  35   2.0000      -0.706930       -19.2365
  36   2.0000      -0.686479       -18.6800
  37   2.0000      -0.665025       -18.0963
  38   2.0000      -0.645189       -17.5565
  39   2.0000      -0.616181       -16.7671
  40   2.0000      -0.587528       -15.9874
  41   2.0000      -0.576573       -15.6894
  42   2.0000      -0.559801       -15.2330
  43   2.0000      -0.554570       -15.0906
  44   2.0000      -0.550599       -14.9826
  45   2.0000      -0.539855       -14.6902
  46   2.0000      -0.515013       -14.0142
  47   2.0000      -0.508945       -13.8491
  48   2.0000      -0.508417       -13.8347
  49   2.0000      -0.499474       -13.5914
  50   2.0000      -0.491461       -13.3733
  51   2.0000      -0.483003       -13.1432
  52   2.0000      -0.472731       -12.8637
  53   2.0000      -0.467258       -12.7147
  54   2.0000      -0.457829       -12.4582
  55   2.0000      -0.447908       -12.1882
  56   2.0000      -0.437938       -11.9169
  57   2.0000      -0.433267       -11.7898
  58   2.0000      -0.425859       -11.5882
  59   2.0000      -0.422912       -11.5080
  60   2.0000      -0.419072       -11.4035
  61   2.0000      -0.412590       -11.2272
  62   2.0000      -0.405791       -11.0421
  63   2.0000      -0.345915        -9.4128
  64   2.0000      -0.331420        -9.0184
  65   2.0000      -0.324816        -8.8387
  66   2.0000      -0.295897        -8.0518
  67   0.0000       0.030874         0.8401
  68   0.0000       0.063974         1.7408
  69   0.0000       0.111982         3.0472
  70   0.0000       0.120511         3.2793
  71   0.0000       0.129425         3.5218

MULLIKEN ATOMIC CHARGES
-----------------------
   0 S :    0.128796
   1 C :   -0.120027
   2 C :   -0.101988
   3 C :    0.035019
   4 C :   -0.168165
   5 H :    0.021478
   6 C :    0.064012
   7 H :    0.025023
   8 H :    0.019538
   9 C :   -0.042889
  10 H :    0.022944
  11 H :    0.017459
  12 C :   -0.074533
  13 H :    0.052471
  14 H :    0.029231
  15 H :    0.039033
  16 S :    0.075551
  17 C :   -0.118179
  18 C :   -0.028315
  19 C :   -0.045239
  20 C :   -0.147533
  21 H :    0.023736
  22 C :    0.070946
  23 H :    0.012124
  24 H :    0.028597
  25 C :   -0.072125
  26 H :    0.030804
  27 H :    0.043733
  28 C :   -0.034319
  29 H :    0.027688
  30 H :    0.035162
  31 H :    0.024205
  32 H :    0.045399
  33 H :    0.080362
Sum of atomic charges:   -0.0000000

LOEWDIN ATOMIC CHARGES
----------------------
   0 S :    0.428997
   1 C :   -0.194665
   2 C :   -0.055770
   3 C :   -0.065581
   4 C :   -0.203287
   5 H :    0.032541
   6 C :   -0.041583
   7 H :    0.034012
   8 H :    0.029898
   9 C :   -0.031681
  10 H :    0.018443
  11 H :    0.020110
  12 C :   -0.066013
  13 H :    0.023727
  14 H :    0.025044
  15 H :    0.034182
  16 S :    0.380086
  17 C :   -0.170691
  18 C :   -0.075658
  19 C :   -0.067140
  20 C :   -0.201857
  21 H :    0.033777
  22 C :   -0.033332
  23 H :    0.025504
  24 H :    0.039127
  25 C :   -0.045448
  26 H :    0.027162
  27 H :    0.029921
  28 C :   -0.068801
  29 H :    0.018215
  30 H :    0.030396
  31 H :    0.028524
  32 H :    0.021702
  33 H :    0.040138

  Mayer bond orders larger than 0.100000
B(  0-S ,  1-C ) :   1.1529 B(  0-S ,  4-C ) :   1.1784 B(  1-C ,  2-C ) :   1.5632
B(  1-C ,  4-C ) :   0.1079 B(  1-C , 32-H ) :   0.9754 B(  2-C ,  3-C ) :   1.2491
B(  2-C ,  6-C ) :   1.0398 B(  3-C ,  4-C ) :   1.5555 B(  3-C ,  5-H ) :   0.9900
B(  4-C , 20-C ) :   1.0201 B(  6-C ,  7-H ) :   0.9311 B(  6-C ,  8-H ) :   0.9407
B(  6-C ,  9-C ) :   1.0722 B(  9-C , 10-H ) :   0.9571 B(  9-C , 11-H ) :   0.9599
B(  9-C , 12-C ) :   1.0641 B( 12-C , 13-H ) :   0.9758 B( 12-C , 14-H ) :   0.9766
B( 12-C , 15-H ) :   0.9753 B( 16-S , 17-C ) :   1.1360 B( 16-S , 20-C ) :   1.1478
B( 17-C , 18-C ) :   1.6095 B( 17-C , 20-C ) :   0.1013 B( 17-C , 33-H ) :   0.9699
B( 18-C , 19-C ) :   1.2179 B( 18-C , 21-H ) :   0.9885 B( 19-C , 20-C ) :   1.6064
B( 19-C , 22-C ) :   1.0449 B( 22-C , 23-H ) :   0.9314 B( 22-C , 24-H ) :   0.9294
B( 22-C , 25-C ) :   1.0794 B( 25-C , 26-H ) :   0.9542 B( 25-C , 27-H ) :   0.9554
B( 25-C , 28-C ) :   1.0719 B( 28-C , 29-H ) :   0.9767 B( 28-C , 30-H ) :   0.9748
B( 28-C , 31-H ) :   0.9732

Dispersion correction           -0.015404130
FINAL SINGLE POINT ENERGY     -1339.881694885309

DIPOLE MOMENT
-------------
                                X             Y             Z
Electronic contribution:    -11.32229      14.07110     -11.20807
Nuclear contribution   :     11.68220     -14.45986      11.41579
                        -----------------------------------------
Total Dipole Moment    :      0.35991      -0.38876       0.20772
                        -----------------------------------------
Magnitude (a.u.)       :      0.56905
Magnitude (Debye)      :      1.44641

Rotational constants in cm-1:     0.020822     0.008708     0.007739
Rotational constants in MHz :   624.216111   261.045969   232.013105

                             ****ORCA TERMINATED NORMALLY****
TOTAL RUN TIME: 0 days 0 hours 0 minutes 30 seconds 192 msec
