                         Program Version 4.2.1 -  RELEASE  -
|  1> ! wB97X-D3 SP def2-SVP
|  2> %pal
|  3> nprocs 16
|  4> end
|  5>
|  6> * xyz 0 1
|  7> S 	 -95.9869 	 40.4588 	 123.42
|  8> C 	 -95.3191 	 39.7042 	 124.874
|  9> C 	 -94.6615 	 38.5821 	 124.477
| 10> C 	 -94.5252 	 38.4264 	 123.078
| 11> C 	 -95.0049 	 39.4535 	 122.349
| 12> H 	 -93.9123 	 37.8211 	 122.42
| 13> C 	 -93.8753 	 37.7226 	 125.447
| 14> H 	 -94.0527 	 36.7197 	 125.18
| 15> H 	 -94.2822 	 37.9915 	 126.378
| 16> C 	 -92.3232 	 37.875 	 125.457
| 17> H 	 -91.8288 	 37.3975 	 126.28
| 18> H 	 -91.9562 	 37.2599 	 124.623
| 19> C 	 -91.8667 	 39.3366 	 125.595
| 20> H 	 -92.0208 	 39.7981 	 124.622
| 21> H 	 -92.3867 	 39.9908 	 126.335
| 22> H 	 -90.7584 	 39.3562 	 125.757
| 23> S 	 -96.289 	 38.9195 	 120.082
| 24> C 	 -95.3874 	 38.9134 	 118.61
| 25> C 	 -94.2361 	 39.6772 	 118.683
| 26> C 	 -93.9603 	 40.0447 	 120.07
| 27> C 	 -94.9074 	 39.5519 	 120.94
| 28> H 	 -93.6409 	 39.9009 	 117.81
| 29> C 	 -92.7382 	 40.7447 	 120.496
| 30> H 	 -91.9637 	 40.1234 	 119.89
| 31> H 	 -92.5684 	 40.4938 	 121.583
| 32> C 	 -92.7092 	 42.186 	 120.11
| 33> H 	 -92.6684 	 42.2192 	 119.033
| 34> H 	 -91.7785 	 42.6626 	 120.486
| 35> C 	 -93.9677 	 42.9995 	 120.462
| 36> H 	 -94.136 	 43.7496 	 119.708
| 37> H 	 -94.1161 	 43.4162 	 121.527
| 38> H 	 -94.7943 	 42.292 	 120.349
| 39> H 	 -95.3691 	 39.9949 	 125.916
| 40> H 	 -95.6432 	 38.5281 	 117.644
| 41> *
| 42>
| 43>                          ****END OF INPUT****

CARTESIAN COORDINATES (ANGSTROEM)
---------------------------------
  S    -95.986900   40.458800  123.420000
  C    -95.319100   39.704200  124.874000
  C    -94.661500   38.582100  124.477000
  C    -94.525200   38.426400  123.078000
  C    -95.004900   39.453500  122.349000
  H    -93.912300   37.821100  122.420000
  C    -93.875300   37.722600  125.447000
  H    -94.052700   36.719700  125.180000
  H    -94.282200   37.991500  126.378000
  C    -92.323200   37.875000  125.457000
  H    -91.828800   37.397500  126.280000
  H    -91.956200   37.259900  124.623000
  C    -91.866700   39.336600  125.595000
  H    -92.020800   39.798100  124.622000
  H    -92.386700   39.990800  126.335000
  H    -90.758400   39.356200  125.757000
  S    -96.289000   38.919500  120.082000
  C    -95.387400   38.913400  118.610000
  C    -94.236100   39.677200  118.683000
  C    -93.960300   40.044700  120.070000
  C    -94.907400   39.551900  120.940000
  H    -93.640900   39.900900  117.810000
  C    -92.738200   40.744700  120.496000
  H    -91.963700   40.123400  119.890000
  H    -92.568400   40.493800  121.583000
  C    -92.709200   42.186000  120.110000
  H    -92.668400   42.219200  119.033000
  H    -91.778500   42.662600  120.486000
  C    -93.967700   42.999500  120.462000
  H    -94.136000   43.749600  119.708000
  H    -94.116100   43.416200  121.527000
  H    -94.794300   42.292000  120.349000
  H    -95.369100   39.994900  125.916000
  H    -95.643200   38.528100  117.644000

 Total Charge           Charge          ....    0
 Multiplicity           Mult            ....    1
 Number of Electrons    NEL             ....  134
 Basis Dimension        Dim             ....  322

ORBITAL ENERGIES
----------------

  NO   OCC          E(Eh)            E(eV)
   0   2.0000     -88.964499     -2420.8471
   1   2.0000     -88.961041     -2420.7530
   2   2.0000     -10.322480      -280.8890
   3   2.0000     -10.319533      -280.8088
   4   2.0000     -10.317435      -280.7517
   5   2.0000     -10.314564      -280.6736
   6   2.0000     -10.305230      -280.4196
   7   2.0000     -10.297430      -280.2073
   8   2.0000     -10.297034      -280.1965
   9   2.0000     -10.295118      -280.1444
  10   2.0000     -10.287567      -279.9389
  11   2.0000     -10.286697      -279.9153
  12   2.0000     -10.286442      -279.9083
  13   2.0000     -10.282273      -279.7949
  14   2.0000     -10.281160      -279.7646
  15   2.0000     -10.274634      -279.5870
  16   2.0000      -8.080111      -219.8710
  17   2.0000      -8.075447      -219.7441
  18   2.0000      -6.038707      -164.3216
  19   2.0000      -6.034645      -164.2110
  20   2.0000      -6.034139      -164.1973
  21   2.0000      -6.030553      -164.0997
  22   2.0000      -6.030003      -164.0847
  23   2.0000      -6.025989      -163.9755
  24   2.0000      -1.014789       -27.6138
  25   2.0000      -0.989560       -26.9273
  26   2.0000      -0.918142       -24.9839
  27   2.0000      -0.910887       -24.7865
  28   2.0000      -0.877243       -23.8710
  29   2.0000      -0.846611       -23.0375
  30   2.0000      -0.841902       -22.9093
  31   2.0000      -0.820843       -22.3363
  32   2.0000      -0.782613       -21.2960
  33   2.0000      -0.772771       -21.0282
  34   2.0000      -0.716160       -19.4877
  35   2.0000      -0.698089       -18.9960
  36   2.0000      -0.693791       -18.8790
  37   2.0000      -0.662686       -18.0326
  38   2.0000      -0.645878       -17.5752
  39   2.0000      -0.613348       -16.6900
  40   2.0000      -0.590331       -16.0637
  41   2.0000      -0.563113       -15.3231
  42   2.0000      -0.556281       -15.1372
  43   2.0000      -0.554122       -15.0784
  44   2.0000      -0.549513       -14.9530
  45   2.0000      -0.540276       -14.7016
  46   2.0000      -0.521678       -14.1956
  47   2.0000      -0.517716       -14.0878
  48   2.0000      -0.511573       -13.9206
  49   2.0000      -0.496409       -13.5080
  50   2.0000      -0.487004       -13.2520
  51   2.0000      -0.476891       -12.9769
  52   2.0000      -0.468806       -12.7569
  53   2.0000      -0.460426       -12.5288
  54   2.0000      -0.458233       -12.4692
  55   2.0000      -0.447356       -12.1732
  56   2.0000      -0.444057       -12.0834
  57   2.0000      -0.440215       -11.9789
  58   2.0000      -0.432506       -11.7691
  59   2.0000      -0.420578       -11.4445
  60   2.0000      -0.415149       -11.2968
  61   2.0000      -0.413788       -11.2598
  62   2.0000      -0.399014       -10.8577
  63   2.0000      -0.338030        -9.1983
  64   2.0000      -0.325420        -8.8551
  65   2.0000      -0.323481        -8.8024
  66   2.0000      -0.309572        -8.4239
  67   0.0000       0.042284         1.1506
  68   0.0000       0.048948         1.3319
  69   0.0000       0.106756         2.9050
  70   0.0000       0.119960         3.2643
  71   0.0000       0.125698         3.4204

MULLIKEN ATOMIC CHARGES
-----------------------
   0 S :    0.096633
   1 C :   -0.112300
   2 C :   -0.090863
   3 C :    0.058331
   4 C :   -0.184844
   5 H :    0.012227
   6 C :    0.132062
   7 H :    0.017214
   8 H :   -0.002066
   9 C :   -0.071678
  10 H :    0.023417
  11 H :    0.027284
  12 C :   -0.077285
  13 H :    0.038051
  14 H :    0.042751
  15 H :    0.038702
  16 S :    0.126817
  17 C :   -0.059342
  18 C :   -0.052160
  19 C :   -0.048107
  20 C :   -0.212842
  21 H :    0.021186
  22 C :    0.034333
  23 H :    0.041910
  24 H :    0.046708
  25 C :   -0.041944
  26 H :    0.016788
  27 H :    0.039635
  28 C :   -0.067462
  29 H :    0.030362
  30 H :    0.052636
  31 H :    0.032916
  32 H :    0.047046
  33 H :    0.043883
Sum of atomic charges:    0.0000000

LOEWDIN ATOMIC CHARGES
----------------------
   0 S :    0.375405
   1 C :   -0.185722
   2 C :   -0.066402
   3 C :   -0.061560
   4 C :   -0.192653
   5 H :    0.036140
   6 C :   -0.018718
   7 H :    0.026413
   8 H :    0.018314
   9 C :   -0.043165
  10 H :    0.021894
  11 H :    0.026245
  12 C :   -0.073555
  13 H :    0.024085
  14 H :    0.030535
  15 H :    0.030487
  16 S :    0.417327
  17 C :   -0.180317
  18 C :   -0.073795
  19 C :   -0.050933
  20 C :   -0.211069
  21 H :    0.031214
  22 C :   -0.044222
  23 H :    0.044277
  24 H :    0.036240
  25 C :   -0.042787
  26 H :    0.024555
  27 H :    0.029575
  28 C :   -0.075253
  29 H :    0.023912
  30 H :    0.036104
  31 H :    0.026526
  32 H :    0.033935
  33 H :    0.026968

  Mayer bond orders larger than 0.100000
B(  0-S ,  1-C ) :   1.1177 B(  0-S ,  4-C ) :   1.1133 B(  1-C ,  2-C ) :   1.6352
B(  1-C , 32-H ) :   0.9698 B(  2-C ,  3-C ) :   1.1737 B(  2-C ,  6-C ) :   1.0368
B(  3-C ,  4-C ) :   1.6346 B(  3-C ,  5-H ) :   0.9930 B(  4-C , 20-C ) :   1.0539
B(  6-C ,  7-H ) :   0.9360 B(  6-C ,  8-H ) :   0.9376 B(  6-C ,  9-C ) :   1.0718
B(  9-C , 10-H ) :   0.9601 B(  9-C , 11-H ) :   0.9553 B(  9-C , 12-C ) :   1.0627
B( 12-C , 13-H ) :   0.9735 B( 12-C , 14-H ) :   0.9756 B( 12-C , 15-H ) :   0.9748
B( 16-S , 17-C ) :   1.1539 B( 16-S , 20-C ) :   1.1286 B( 17-C , 18-C ) :   1.6403
B( 17-C , 33-H ) :   0.9665 B( 18-C , 19-C ) :   1.1928 B( 18-C , 21-H ) :   0.9917
B( 19-C , 20-C ) :   1.6153 B( 19-C , 22-C ) :   1.0368 B( 22-C , 23-H ) :   0.9384
B( 22-C , 24-H ) :   0.9347 B( 22-C , 25-C ) :   1.0679 B( 25-C , 26-H ) :   0.9510
B( 25-C , 27-H ) :   0.9546 B( 25-C , 28-C ) :   1.0722 B( 28-C , 29-H ) :   0.9752
B( 28-C , 30-H ) :   0.9732 B( 28-C , 31-H ) :   0.9686

Dispersion correction           -0.016013684
FINAL SINGLE POINT ENERGY     -1339.848110218136

DIPOLE MOMENT
-------------
                                X             Y             Z
Electronic contribution:    -20.56047      -5.12283      -7.37241
Nuclear contribution   :     21.21200       4.97004       7.25476
                        -----------------------------------------
Total Dipole Moment    :      0.65154      -0.15279      -0.11766
                        -----------------------------------------
Magnitude (a.u.)       :      0.67948
Magnitude (Debye)      :      1.72709

Rotational constants in cm-1:     0.020194     0.009172     0.008179
Rotational constants in MHz :   605.409797   274.959125   245.186146

                             ****ORCA TERMINATED NORMALLY****
TOTAL RUN TIME: 0 days 0 hours 0 minutes 34 seconds 735 msec
