                         Program Version 4.2.1 -  RELEASE  -
|  1> ! wB97X-D3 SP def2-SVP
|  2> %pal
|  3> nprocs 16
|  4> end
|  5>
|  6> * xyz 0 1
|  7> S 	 -86.2065 	 51.048 	 134.149
|  8> C 	 -86.1859 	 49.3124 	 134.275
|  9> C 	 -86.1035 	 48.6796 	 133.065
| 10> C 	 -86.2652 	 49.6025 	 131.997
| 11> C 	 -86.2803 	 50.9369 	 132.414
| 12> H 	 -86.3554 	 49.3902 	 130.937
| 13> C 	 -86.1554 	 47.2009 	 132.746
| 14> H 	 -86.2361 	 47.0706 	 131.704
| 15> H 	 -87.1043 	 46.9265 	 133.285
| 16> C 	 -85.0677 	 46.4382 	 133.504
| 17> H 	 -85.0964 	 46.7143 	 134.534
| 18> H 	 -85.2679 	 45.4071 	 133.473
| 19> C 	 -83.6195 	 46.5519 	 133.033
| 20> H 	 -83.4979 	 46.4166 	 131.951
| 21> H 	 -83.0317 	 47.3985 	 133.37
| 22> H 	 -83.1204 	 45.6922 	 133.497
| 23> S 	 -85.0281 	 53.1746 	 131.701
| 24> C 	 -85.6476 	 54.3444 	 130.621
| 25> C 	 -86.8743 	 53.9019 	 130.105
| 26> C 	 -87.2314 	 52.6467 	 130.68
| 27> C 	 -86.4013 	 52.1686 	 131.605
| 28> H 	 -87.3107 	 54.4572 	 129.276
| 29> C 	 -88.6042 	 52.1379 	 130.375
| 30> H 	 -88.6884 	 51.0696 	 130.612
| 31> H 	 -88.9234 	 52.2588 	 129.349
| 32> C 	 -89.5988 	 52.8974 	 131.325
| 33> H 	 -89.5305 	 54.0786 	 131.266
| 34> H 	 -89.4598 	 52.7182 	 132.425
| 35> C 	 -90.9985 	 52.5803 	 130.998
| 36> H 	 -91.5468 	 53.3755 	 131.465
| 37> H 	 -91.4131 	 51.643 	 131.346
| 38> H 	 -91.2014 	 52.6701 	 129.935
| 39> H 	 -85.9224 	 48.7444 	 135.168
| 40> H 	 -85.2125 	 55.2357 	 130.278
| 41> *
| 42>
| 43>                          ****END OF INPUT****

CARTESIAN COORDINATES (ANGSTROEM)
---------------------------------
  S    -86.206500   51.048000  134.149000
  C    -86.185900   49.312400  134.275000
  C    -86.103500   48.679600  133.065000
  C    -86.265200   49.602500  131.997000
  C    -86.280300   50.936900  132.414000
  H    -86.355400   49.390200  130.937000
  C    -86.155400   47.200900  132.746000
  H    -86.236100   47.070600  131.704000
  H    -87.104300   46.926500  133.285000
  C    -85.067700   46.438200  133.504000
  H    -85.096400   46.714300  134.534000
  H    -85.267900   45.407100  133.473000
  C    -83.619500   46.551900  133.033000
  H    -83.497900   46.416600  131.951000
  H    -83.031700   47.398500  133.370000
  H    -83.120400   45.692200  133.497000
  S    -85.028100   53.174600  131.701000
  C    -85.647600   54.344400  130.621000
  C    -86.874300   53.901900  130.105000
  C    -87.231400   52.646700  130.680000
  C    -86.401300   52.168600  131.605000
  H    -87.310700   54.457200  129.276000
  C    -88.604200   52.137900  130.375000
  H    -88.688400   51.069600  130.612000
  H    -88.923400   52.258800  129.349000
  C    -89.598800   52.897400  131.325000
  H    -89.530500   54.078600  131.266000
  H    -89.459800   52.718200  132.425000
  C    -90.998500   52.580300  130.998000
  H    -91.546800   53.375500  131.465000
  H    -91.413100   51.643000  131.346000
  H    -91.201400   52.670100  129.935000
  H    -85.922400   48.744400  135.168000
  H    -85.212500   55.235700  130.278000

 Total Charge           Charge          ....    0
 Multiplicity           Mult            ....    1
 Number of Electrons    NEL             ....  134
 Basis Dimension        Dim             ....  322

ORBITAL ENERGIES
----------------

  NO   OCC          E(Eh)            E(eV)
   0   2.0000     -88.968149     -2420.9464
   1   2.0000     -88.958917     -2420.6952
   2   2.0000     -10.329928      -281.0916
   3   2.0000     -10.315594      -280.7016
   4   2.0000     -10.309530      -280.5366
   5   2.0000     -10.308510      -280.5088
   6   2.0000     -10.296344      -280.1778
   7   2.0000     -10.293724      -280.1065
   8   2.0000     -10.292828      -280.0821
   9   2.0000     -10.292434      -280.0714
  10   2.0000     -10.290348      -280.0146
  11   2.0000     -10.290322      -280.0139
  12   2.0000     -10.287968      -279.9498
  13   2.0000     -10.282073      -279.7894
  14   2.0000     -10.274981      -279.5964
  15   2.0000     -10.264705      -279.3168
  16   2.0000      -8.082910      -219.9472
  17   2.0000      -8.075401      -219.7428
  18   2.0000      -6.041380      -164.3943
  19   2.0000      -6.037397      -164.2859
  20   2.0000      -6.033797      -164.1880
  21   2.0000      -6.033737      -164.1863
  22   2.0000      -6.029502      -164.0711
  23   2.0000      -6.026307      -163.9841
  24   2.0000      -1.015087       -27.6219
  25   2.0000      -0.990875       -26.9631
  26   2.0000      -0.916344       -24.9350
  27   2.0000      -0.909919       -24.7602
  28   2.0000      -0.868394       -23.6302
  29   2.0000      -0.855817       -23.2880
  30   2.0000      -0.849756       -23.1230
  31   2.0000      -0.813937       -22.1484
  32   2.0000      -0.783837       -21.3293
  33   2.0000      -0.772103       -21.0100
  34   2.0000      -0.709820       -19.3152
  35   2.0000      -0.696739       -18.9592
  36   2.0000      -0.684857       -18.6359
  37   2.0000      -0.669410       -18.2156
  38   2.0000      -0.637767       -17.3545
  39   2.0000      -0.611960       -16.6523
  40   2.0000      -0.594818       -16.1858
  41   2.0000      -0.581778       -15.8310
  42   2.0000      -0.558721       -15.2036
  43   2.0000      -0.549095       -14.9416
  44   2.0000      -0.547091       -14.8871
  45   2.0000      -0.526929       -14.3385
  46   2.0000      -0.520581       -14.1657
  47   2.0000      -0.516967       -14.0674
  48   2.0000      -0.506396       -13.7797
  49   2.0000      -0.498809       -13.5733
  50   2.0000      -0.488161       -13.2835
  51   2.0000      -0.479924       -13.0594
  52   2.0000      -0.475242       -12.9320
  53   2.0000      -0.466253       -12.6874
  54   2.0000      -0.460135       -12.5209
  55   2.0000      -0.442939       -12.0530
  56   2.0000      -0.440688       -11.9917
  57   2.0000      -0.434988       -11.8366
  58   2.0000      -0.430824       -11.7233
  59   2.0000      -0.428971       -11.6729
  60   2.0000      -0.417262       -11.3543
  61   2.0000      -0.412486       -11.2243
  62   2.0000      -0.405837       -11.0434
  63   2.0000      -0.338673        -9.2158
  64   2.0000      -0.330889        -9.0039
  65   2.0000      -0.323319        -8.7980
  66   2.0000      -0.300070        -8.1653
  67   0.0000       0.040187         1.0935
  68   0.0000       0.068510         1.8643
  69   0.0000       0.119267         3.2454
  70   0.0000       0.122299         3.3279
  71   0.0000       0.134015         3.6467

MULLIKEN ATOMIC CHARGES
-----------------------
   0 S :    0.127938
   1 C :   -0.120175
   2 C :   -0.104631
   3 C :    0.038370
   4 C :   -0.170884
   5 H :    0.010992
   6 C :    0.093945
   7 H :    0.012996
   8 H :    0.050109
   9 C :   -0.051251
  10 H :    0.013521
  11 H :    0.014345
  12 C :   -0.054520
  13 H :    0.031490
  14 H :    0.041234
  15 H :    0.024491
  16 S :    0.112852
  17 C :   -0.065861
  18 C :   -0.066524
  19 C :   -0.022249
  20 C :   -0.149540
  21 H :    0.025308
  22 C :    0.085945
  23 H :    0.021996
  24 H :    0.017929
  25 C :   -0.149452
  26 H :    0.040271
  27 H :    0.041547
  28 C :    0.000688
  29 H :    0.019110
  30 H :    0.031592
  31 H :    0.015649
  32 H :    0.048288
  33 H :    0.034480
Sum of atomic charges:    0.0000000

LOEWDIN ATOMIC CHARGES
----------------------
   0 S :    0.423193
   1 C :   -0.214679
   2 C :   -0.062552
   3 C :   -0.062971
   4 C :   -0.198744
   5 H :    0.031295
   6 C :   -0.022461
   7 H :    0.021796
   8 H :    0.049635
   9 C :   -0.037131
  10 H :    0.021711
  11 H :    0.018713
  12 C :   -0.068174
  13 H :    0.025322
  14 H :    0.024899
  15 H :    0.029502
  16 S :    0.442713
  17 C :   -0.190281
  18 C :   -0.072250
  19 C :   -0.064884
  20 C :   -0.221047
  21 H :    0.033909
  22 C :   -0.027876
  23 H :    0.030046
  24 H :    0.026288
  25 C :   -0.046694
  26 H :    0.033172
  27 H :    0.031555
  28 C :   -0.070199
  29 H :    0.026585
  30 H :    0.021582
  31 H :    0.020531
  32 H :    0.027033
  33 H :    0.020464

  Mayer bond orders larger than 0.100000
B(  0-S ,  1-C ) :   1.1392 B(  0-S ,  4-C ) :   1.1745 B(  1-C ,  2-C ) :   1.6253
B(  1-C ,  4-C ) :   0.1057 B(  1-C , 32-H ) :   0.9539 B(  2-C ,  3-C ) :   1.2356
B(  2-C ,  6-C ) :   1.0059 B(  3-C ,  4-C ) :   1.5792 B(  3-C ,  5-H ) :   0.9973
B(  4-C , 20-C ) :   0.9754 B(  6-C ,  7-H ) :   0.9498 B(  6-C ,  8-H ) :   0.9354
B(  6-C ,  9-C ) :   1.0752 B(  9-C , 10-H ) :   0.9525 B(  9-C , 11-H ) :   0.9564
B(  9-C , 12-C ) :   1.0753 B( 12-C , 13-H ) :   0.9758 B( 12-C , 14-H ) :   0.9770
B( 12-C , 15-H ) :   0.9739 B( 16-S , 17-C ) :   1.1778 B( 16-S , 20-C ) :   1.1519
B( 17-C , 18-C ) :   1.5891 B( 17-C , 33-H ) :   0.9750 B( 18-C , 19-C ) :   1.2276
B( 18-C , 21-H ) :   0.9951 B( 19-C , 20-C ) :   1.6347 B( 19-C , 22-C ) :   1.0714
B( 22-C , 23-H ) :   0.9307 B( 22-C , 24-H ) :   0.9364 B( 22-C , 25-C ) :   1.0509
B( 25-C , 26-H ) :   0.9621 B( 25-C , 27-H ) :   0.9520 B( 25-C , 28-C ) :   1.0868
B( 28-C , 29-H ) :   0.9694 B( 28-C , 30-H ) :   0.9719 B( 28-C , 31-H ) :   0.9696

Dispersion correction           -0.013933530
FINAL SINGLE POINT ENERGY     -1339.866699465676

DIPOLE MOMENT
-------------
                                X             Y             Z
Electronic contribution:     10.72693      15.29162       4.57198
Nuclear contribution   :    -10.97369     -15.70458      -4.87805
                        -----------------------------------------
Total Dipole Moment    :     -0.24676      -0.41296      -0.30607
                        -----------------------------------------
Magnitude (a.u.)       :      0.57018
Magnitude (Debye)      :      1.44928

Rotational constants in cm-1:     0.021474     0.007749     0.006675
Rotational constants in MHz :   643.765192   232.322836   200.125511

                             ****ORCA TERMINATED NORMALLY****
TOTAL RUN TIME: 0 days 0 hours 0 minutes 34 seconds 940 msec
