                         Program Version 4.2.1 -  RELEASE  -
|  1> ! wB97X-D3 SP def2-SVP
|  2> %pal
|  3> nprocs 16
|  4> end
|  5>
|  6> * xyz 0 1
|  7> S 	 -54.7133 	 24.7321 	 92.6542
|  8> C 	 -53.0036 	 24.2753 	 92.7977
|  9> C 	 -52.266 	 25.4112 	 92.9884
| 10> C 	 -53.0062 	 26.6198 	 92.9664
| 11> C 	 -54.3632 	 26.4149 	 92.8338
| 12> H 	 -52.5747 	 27.6066 	 92.8921
| 13> C 	 -50.7516 	 25.3944 	 93.2124
| 14> H 	 -50.4054 	 26.3498 	 92.8671
| 15> H 	 -50.3605 	 24.7003 	 92.4903
| 16> C 	 -50.223 	 24.9834 	 94.6156
| 17> H 	 -50.6636 	 25.5226 	 95.3815
| 18> H 	 -50.574 	 23.9773 	 94.7373
| 19> C 	 -48.7289 	 24.8581 	 94.6184
| 20> H 	 -48.3792 	 24.4391 	 95.5812
| 21> H 	 -48.3163 	 24.3519 	 93.7617
| 22> H 	 -48.3666 	 25.8754 	 94.4757
| 23> S 	 -56.7721 	 27.3349 	 91.7977
| 24> C 	 -57.2429 	 28.9663 	 92.1988
| 25> C 	 -56.3889 	 29.5628 	 93.1381
| 26> C 	 -55.2536 	 28.7521 	 93.3819
| 27> C 	 -55.3377 	 27.4691 	 92.7842
| 28> H 	 -56.7098 	 30.5067 	 93.5379
| 29> C 	 -54.2822 	 29.2602 	 94.4863
| 30> H 	 -53.7466 	 28.3436 	 94.9179
| 31> H 	 -54.8334 	 29.582 	 95.3477
| 32> C 	 -53.306 	 30.3163 	 94.0421
| 33> H 	 -53.8929 	 30.9569 	 93.3054
| 34> H 	 -52.5528 	 29.8638 	 93.4784
| 35> C 	 -52.6517 	 31.0419 	 95.186
| 36> H 	 -51.9458 	 31.8697 	 94.8863
| 37> H 	 -52.1342 	 30.2958 	 95.844
| 38> H 	 -53.3761 	 31.552 	 95.7651
| 39> H 	 -52.491 	 23.3337 	 93.0152
| 40> H 	 -58.1398 	 29.4448 	 91.8374
| 41> *
| 42>
| 43>                          ****END OF INPUT****

CARTESIAN COORDINATES (ANGSTROEM)
---------------------------------
  S    -54.713300   24.732100   92.654200
  C    -53.003600   24.275300   92.797700
  C    -52.266000   25.411200   92.988400
  C    -53.006200   26.619800   92.966400
  C    -54.363200   26.414900   92.833800
  H    -52.574700   27.606600   92.892100
  C    -50.751600   25.394400   93.212400
  H    -50.405400   26.349800   92.867100
  H    -50.360500   24.700300   92.490300
  C    -50.223000   24.983400   94.615600
  H    -50.663600   25.522600   95.381500
  H    -50.574000   23.977300   94.737300
  C    -48.728900   24.858100   94.618400
  H    -48.379200   24.439100   95.581200
  H    -48.316300   24.351900   93.761700
  H    -48.366600   25.875400   94.475700
  S    -56.772100   27.334900   91.797700
  C    -57.242900   28.966300   92.198800
  C    -56.388900   29.562800   93.138100
  C    -55.253600   28.752100   93.381900
  C    -55.337700   27.469100   92.784200
  H    -56.709800   30.506700   93.537900
  C    -54.282200   29.260200   94.486300
  H    -53.746600   28.343600   94.917900
  H    -54.833400   29.582000   95.347700
  C    -53.306000   30.316300   94.042100
  H    -53.892900   30.956900   93.305400
  H    -52.552800   29.863800   93.478400
  C    -52.651700   31.041900   95.186000
  H    -51.945800   31.869700   94.886300
  H    -52.134200   30.295800   95.844000
  H    -53.376100   31.552000   95.765100
  H    -52.491000   23.333700   93.015200
  H    -58.139800   29.444800   91.837400

 Total Charge           Charge          ....    0
 Multiplicity           Mult            ....    1
 Number of Electrons    NEL             ....  134
 Basis Dimension        Dim             ....  322

ORBITAL ENERGIES
----------------

  NO   OCC          E(Eh)            E(eV)
   0   2.0000     -88.971977     -2421.0506
   1   2.0000     -88.969071     -2420.9715
   2   2.0000     -10.331917      -281.1458
   3   2.0000     -10.328808      -281.0611
   4   2.0000     -10.319250      -280.8011
   5   2.0000     -10.311094      -280.5791
   6   2.0000     -10.309068      -280.5240
   7   2.0000     -10.296308      -280.1768
   8   2.0000     -10.295247      -280.1479
   9   2.0000     -10.293019      -280.0873
  10   2.0000     -10.288287      -279.9585
  11   2.0000     -10.287631      -279.9407
  12   2.0000     -10.283401      -279.8256
  13   2.0000     -10.282262      -279.7946
  14   2.0000     -10.279356      -279.7155
  15   2.0000     -10.277911      -279.6762
  16   2.0000      -8.086611      -220.0479
  17   2.0000      -8.083387      -219.9601
  18   2.0000      -6.045037      -164.4938
  19   2.0000      -6.042107      -164.4141
  20   2.0000      -6.041086      -164.3863
  21   2.0000      -6.037928      -164.3004
  22   2.0000      -6.037530      -164.2896
  23   2.0000      -6.033967      -164.1926
  24   2.0000      -1.009802       -27.4781
  25   2.0000      -0.985197       -26.8086
  26   2.0000      -0.915756       -24.9190
  27   2.0000      -0.913722       -24.8637
  28   2.0000      -0.874661       -23.8007
  29   2.0000      -0.856162       -23.2973
  30   2.0000      -0.848601       -23.0916
  31   2.0000      -0.813108       -22.1258
  32   2.0000      -0.782334       -21.2884
  33   2.0000      -0.771173       -20.9847
  34   2.0000      -0.710111       -19.3231
  35   2.0000      -0.708770       -19.2866
  36   2.0000      -0.695649       -18.9296
  37   2.0000      -0.664952       -18.0943
  38   2.0000      -0.632400       -17.2085
  39   2.0000      -0.621772       -16.9193
  40   2.0000      -0.596358       -16.2277
  41   2.0000      -0.571287       -15.5455
  42   2.0000      -0.567494       -15.4423
  43   2.0000      -0.562360       -15.3026
  44   2.0000      -0.531945       -14.4750
  45   2.0000      -0.524745       -14.2790
  46   2.0000      -0.519909       -14.1474
  47   2.0000      -0.517584       -14.0842
  48   2.0000      -0.506016       -13.7694
  49   2.0000      -0.503186       -13.6924
  50   2.0000      -0.497248       -13.5308
  51   2.0000      -0.478869       -13.0307
  52   2.0000      -0.472400       -12.8546
  53   2.0000      -0.466927       -12.7057
  54   2.0000      -0.459183       -12.4950
  55   2.0000      -0.450212       -12.2509
  56   2.0000      -0.447208       -12.1691
  57   2.0000      -0.440375       -11.9832
  58   2.0000      -0.435262       -11.8441
  59   2.0000      -0.424934       -11.5630
  60   2.0000      -0.423745       -11.5307
  61   2.0000      -0.411701       -11.2030
  62   2.0000      -0.410009       -11.1569
  63   2.0000      -0.357742        -9.7347
  64   2.0000      -0.337437        -9.1821
  65   2.0000      -0.331381        -9.0173
  66   2.0000      -0.282447        -7.6858
  67   0.0000       0.019487         0.5303
  68   0.0000       0.079102         2.1525
  69   0.0000       0.104364         2.8399
  70   0.0000       0.119500         3.2518
  71   0.0000       0.130392         3.5481

MULLIKEN ATOMIC CHARGES
-----------------------
   0 S :    0.105815
   1 C :   -0.106602
   2 C :   -0.115502
   3 C :    0.001350
   4 C :   -0.111509
   5 H :    0.003132
   6 C :    0.055392
   7 H :    0.004953
   8 H :    0.015612
   9 C :   -0.012767
  10 H :    0.018333
  11 H :    0.005478
  12 C :   -0.028565
  13 H :    0.045822
  14 H :    0.024816
  15 H :    0.018055
  16 S :    0.120778
  17 C :   -0.103255
  18 C :   -0.023354
  19 C :   -0.031195
  20 C :   -0.128914
  21 H :    0.020721
  22 C :   -0.001083
  23 H :    0.033329
  24 H :    0.022270
  25 C :   -0.042998
  26 H :    0.034140
  27 H :    0.014608
  28 C :   -0.046209
  29 H :    0.044266
  30 H :    0.038412
  31 H :    0.018491
  32 H :    0.051108
  33 H :    0.055071
Sum of atomic charges:   -0.0000000

LOEWDIN ATOMIC CHARGES
----------------------
   0 S :    0.404496
   1 C :   -0.206072
   2 C :   -0.061450
   3 C :   -0.071506
   4 C :   -0.190280
   5 H :    0.030152
   6 C :   -0.026785
   7 H :    0.021196
   8 H :    0.028127
   9 C :   -0.030699
  10 H :    0.016084
  11 H :    0.019804
  12 C :   -0.061826
  13 H :    0.031686
  14 H :    0.024417
  15 H :    0.023838
  16 S :    0.417479
  17 C :   -0.185764
  18 C :   -0.065993
  19 C :   -0.052964
  20 C :   -0.200182
  21 H :    0.033344
  22 C :   -0.035250
  23 H :    0.033450
  24 H :    0.025178
  25 C :   -0.046132
  26 H :    0.030464
  27 H :    0.013127
  28 C :   -0.066414
  29 H :    0.034543
  30 H :    0.032693
  31 H :    0.016815
  32 H :    0.037826
  33 H :    0.026600

  Mayer bond orders larger than 0.100000
B(  0-S ,  1-C ) :   1.1085 B(  0-S ,  4-C ) :   1.1513 B(  1-C ,  2-C ) :   1.6361
B(  1-C , 32-H ) :   0.9608 B(  2-C ,  3-C ) :   1.2548 B(  2-C ,  6-C ) :   1.0154
B(  3-C ,  4-C ) :   1.5449 B(  3-C ,  5-H ) :   0.9926 B(  4-C , 20-C ) :   1.0867
B(  6-C ,  7-H ) :   0.9415 B(  6-C ,  8-H ) :   0.9387 B(  6-C ,  9-C ) :   1.0593
B(  9-C , 10-H ) :   0.9580 B(  9-C , 11-H ) :   0.9496 B(  9-C , 12-C ) :   1.0815
B( 12-C , 13-H ) :   0.9726 B( 12-C , 14-H ) :   0.9714 B( 12-C , 15-H ) :   0.9741
B( 16-S , 17-C ) :   1.1677 B( 16-S , 20-C ) :   1.1401 B( 17-C , 18-C ) :   1.5873
B( 17-C , 20-C ) :   0.1043 B( 17-C , 33-H ) :   0.9677 B( 18-C , 19-C ) :   1.2541
B( 18-C , 21-H ) :   0.9948 B( 19-C , 20-C ) :   1.5589 B( 19-C , 22-C ) :   1.0256
B( 22-C , 23-H ) :   0.9317 B( 22-C , 24-H ) :   0.9523 B( 22-C , 25-C ) :   1.0497
B( 25-C , 26-H ) :   0.9559 B( 25-C , 27-H ) :   0.9441 B( 25-C , 28-C ) :   1.0842
B( 28-C , 29-H ) :   0.9723 B( 28-C , 30-H ) :   0.9695 B( 28-C , 31-H ) :   0.9751

Dispersion correction           -0.013769758
FINAL SINGLE POINT ENERGY     -1339.873750584428

DIPOLE MOMENT
-------------
                                X             Y             Z
Electronic contribution:    -28.09469     -10.43405     -14.67950
Nuclear contribution   :     28.51030      10.86490      15.04312
                        -----------------------------------------
Total Dipole Moment    :      0.41560       0.43085       0.36362
                        -----------------------------------------
Magnitude (a.u.)       :      0.70041
Magnitude (Debye)      :      1.78030

Rotational constants in cm-1:     0.017404     0.009007     0.006133
Rotational constants in MHz :   521.750542   270.023443   183.869358

                             ****ORCA TERMINATED NORMALLY****
TOTAL RUN TIME: 0 days 0 hours 0 minutes 28 seconds 508 msec
