                         Program Version 4.2.1 -  RELEASE  -
|  1> ! wB97X-D3 SP def2-SVP
|  2> %pal
|  3> nprocs 16
|  4> end
|  5>
|  6> * xyz 0 1
|  7> S 	 -44.4628 	 25.766 	 83.653
|  8> C 	 -44.8778 	 24.0072 	 83.542
|  9> C 	 -43.7808 	 23.2546 	 83.2685
| 10> C 	 -42.6123 	 24.0313 	 83.1404
| 11> C 	 -42.8474 	 25.3745 	 83.1668
| 12> H 	 -41.6534 	 23.5828 	 82.9546
| 13> C 	 -43.9332 	 21.7908 	 83.1019
| 14> H 	 -43.1344 	 21.4143 	 82.3559
| 15> H 	 -44.9295 	 21.5255 	 82.721
| 16> C 	 -43.9767 	 21.0394 	 84.4334
| 17> H 	 -44.1108 	 19.9265 	 84.2299
| 18> H 	 -43.0521 	 21.1011 	 84.9961
| 19> C 	 -44.9477 	 21.5721 	 85.4754
| 20> H 	 -45.0818 	 20.9704 	 86.3272
| 21> H 	 -44.7467 	 22.6434 	 85.8691
| 22> H 	 -45.9207 	 21.7186 	 85.0317
| 23> S 	 -42.5437 	 27.9704 	 82.3198
| 24> C 	 -40.9654 	 28.6747 	 82.2007
| 25> C 	 -40.0389 	 27.7394 	 82.4075
| 26> C 	 -40.5737 	 26.4517 	 82.7806
| 27> C 	 -41.9358 	 26.4011 	 82.7635
| 28> H 	 -38.9585 	 27.9297 	 82.3195
| 29> C 	 -39.6532 	 25.2914 	 82.9919
| 30> H 	 -39.975 	 24.6286 	 83.8184
| 31> H 	 -38.7102 	 25.7792 	 83.3515
| 32> C 	 -39.3063 	 24.326 	 81.7888
| 33> H 	 -38.7296 	 24.8332 	 81.0614
| 34> H 	 -40.29 	 24.0437 	 81.4311
| 35> C 	 -38.6125 	 23.0373 	 82.2292
| 36> H 	 -38.5846 	 22.2513 	 81.4322
| 37> H 	 -39.1629 	 22.7546 	 83.0702
| 38> H 	 -37.5402 	 23.1041 	 82.6521
| 39> H 	 -45.848 	 23.5774 	 83.7516
| 40> H 	 -40.8016 	 29.7816 	 82.0989
| 41> *
| 42>
| 43>                          ****END OF INPUT****

CARTESIAN COORDINATES (ANGSTROEM)
---------------------------------
  S    -44.462800   25.766000   83.653000
  C    -44.877800   24.007200   83.542000
  C    -43.780800   23.254600   83.268500
  C    -42.612300   24.031300   83.140400
  C    -42.847400   25.374500   83.166800
  H    -41.653400   23.582800   82.954600
  C    -43.933200   21.790800   83.101900
  H    -43.134400   21.414300   82.355900
  H    -44.929500   21.525500   82.721000
  C    -43.976700   21.039400   84.433400
  H    -44.110800   19.926500   84.229900
  H    -43.052100   21.101100   84.996100
  C    -44.947700   21.572100   85.475400
  H    -45.081800   20.970400   86.327200
  H    -44.746700   22.643400   85.869100
  H    -45.920700   21.718600   85.031700
  S    -42.543700   27.970400   82.319800
  C    -40.965400   28.674700   82.200700
  C    -40.038900   27.739400   82.407500
  C    -40.573700   26.451700   82.780600
  C    -41.935800   26.401100   82.763500
  H    -38.958500   27.929700   82.319500
  C    -39.653200   25.291400   82.991900
  H    -39.975000   24.628600   83.818400
  H    -38.710200   25.779200   83.351500
  C    -39.306300   24.326000   81.788800
  H    -38.729600   24.833200   81.061400
  H    -40.290000   24.043700   81.431100
  C    -38.612500   23.037300   82.229200
  H    -38.584600   22.251300   81.432200
  H    -39.162900   22.754600   83.070200
  H    -37.540200   23.104100   82.652100
  H    -45.848000   23.577400   83.751600
  H    -40.801600   29.781600   82.098900

 Total Charge           Charge          ....    0
 Multiplicity           Mult            ....    1
 Number of Electrons    NEL             ....  134
 Basis Dimension        Dim             ....  322

ORBITAL ENERGIES
----------------

  NO   OCC          E(Eh)            E(eV)
   0   2.0000     -88.967870     -2420.9388
   1   2.0000     -88.960679     -2420.7431
   2   2.0000     -10.329066      -281.0682
   3   2.0000     -10.322789      -280.8974
   4   2.0000     -10.316758      -280.7333
   5   2.0000     -10.312539      -280.6185
   6   2.0000     -10.300991      -280.3042
   7   2.0000     -10.298172      -280.2275
   8   2.0000     -10.296018      -280.1689
   9   2.0000     -10.295512      -280.1551
  10   2.0000     -10.292081      -280.0618
  11   2.0000     -10.292011      -280.0599
  12   2.0000     -10.291775      -280.0534
  13   2.0000     -10.288465      -279.9634
  14   2.0000     -10.285809      -279.8911
  15   2.0000     -10.278725      -279.6983
  16   2.0000      -8.082121      -219.9257
  17   2.0000      -8.076476      -219.7721
  18   2.0000      -6.040718      -164.3763
  19   2.0000      -6.036863      -164.2714
  20   2.0000      -6.035074      -164.2227
  21   2.0000      -6.032646      -164.1566
  22   2.0000      -6.030813      -164.1068
  23   2.0000      -6.027084      -164.0053
  24   2.0000      -1.016741       -27.6669
  25   2.0000      -0.991501       -26.9801
  26   2.0000      -0.921464       -25.0743
  27   2.0000      -0.909571       -24.7507
  28   2.0000      -0.873861       -23.7790
  29   2.0000      -0.856734       -23.3129
  30   2.0000      -0.845957       -23.0196
  31   2.0000      -0.819463       -22.2987
  32   2.0000      -0.786399       -21.3990
  33   2.0000      -0.772773       -21.0282
  34   2.0000      -0.713740       -19.4218
  35   2.0000      -0.698952       -19.0195
  36   2.0000      -0.694587       -18.9007
  37   2.0000      -0.665781       -18.1168
  38   2.0000      -0.638227       -17.3670
  39   2.0000      -0.629887       -17.1401
  40   2.0000      -0.599710       -16.3189
  41   2.0000      -0.571598       -15.5540
  42   2.0000      -0.568266       -15.4633
  43   2.0000      -0.553608       -15.0644
  44   2.0000      -0.540864       -14.7177
  45   2.0000      -0.524533       -14.2733
  46   2.0000      -0.524009       -14.2590
  47   2.0000      -0.519532       -14.1372
  48   2.0000      -0.502688       -13.6788
  49   2.0000      -0.498538       -13.5659
  50   2.0000      -0.493350       -13.4247
  51   2.0000      -0.475915       -12.9503
  52   2.0000      -0.474010       -12.8985
  53   2.0000      -0.464121       -12.6294
  54   2.0000      -0.461827       -12.5669
  55   2.0000      -0.455514       -12.3952
  56   2.0000      -0.450501       -12.2587
  57   2.0000      -0.444895       -12.1062
  58   2.0000      -0.430668       -11.7191
  59   2.0000      -0.424907       -11.5623
  60   2.0000      -0.417712       -11.3665
  61   2.0000      -0.411865       -11.2074
  62   2.0000      -0.407930       -11.1003
  63   2.0000      -0.362878        -9.8744
  64   2.0000      -0.335812        -9.1379
  65   2.0000      -0.328240        -8.9319
  66   2.0000      -0.285635        -7.7725
  67   0.0000       0.019940         0.5426
  68   0.0000       0.082863         2.2548
  69   0.0000       0.103680         2.8213
  70   0.0000       0.119051         3.2396
  71   0.0000       0.132189         3.5970

MULLIKEN ATOMIC CHARGES
-----------------------
   0 S :    0.105349
   1 C :   -0.131959
   2 C :   -0.055875
   3 C :    0.002252
   4 C :   -0.085670
   5 H :   -0.025734
   6 C :    0.044754
   7 H :    0.047048
   8 H :    0.031722
   9 C :   -0.072794
  10 H :    0.044964
  11 H :    0.023186
  12 C :   -0.068859
  13 H :    0.031174
  14 H :    0.057658
  15 H :    0.003248
  16 S :    0.083926
  17 C :   -0.103739
  18 C :   -0.013287
  19 C :   -0.065528
  20 C :   -0.102212
  21 H :    0.023922
  22 C :   -0.010853
  23 H :    0.027704
  24 H :    0.022295
  25 C :   -0.022637
  26 H :    0.024360
  27 H :    0.026271
  28 C :   -0.059593
  29 H :    0.050757
  30 H :    0.008731
  31 H :    0.039803
  32 H :    0.038551
  33 H :    0.081065
Sum of atomic charges:   -0.0000000

LOEWDIN ATOMIC CHARGES
----------------------
   0 S :    0.384902
   1 C :   -0.171035
   2 C :   -0.064677
   3 C :   -0.064285
   4 C :   -0.179940
   5 H :    0.026935
   6 C :   -0.035857
   7 H :    0.042431
   8 H :    0.035220
   9 C :   -0.046753
  10 H :    0.032594
  11 H :    0.021049
  12 C :   -0.070885
  13 H :    0.021265
  14 H :    0.040113
  15 H :    0.012057
  16 S :    0.401957
  17 C :   -0.192796
  18 C :   -0.074393
  19 C :   -0.066834
  20 C :   -0.192448
  21 H :    0.035624
  22 C :   -0.041502
  23 H :    0.027887
  24 H :    0.031838
  25 C :   -0.030741
  26 H :    0.018004
  27 H :    0.022202
  28 C :   -0.070686
  29 H :    0.033483
  30 H :    0.011599
  31 H :    0.034172
  32 H :    0.023875
  33 H :    0.045628

  Mayer bond orders larger than 0.100000
B(  0-S ,  1-C ) :   1.1015 B(  0-S ,  4-C ) :   1.1396 B(  1-C ,  2-C ) :   1.6279
B(  1-C , 32-H ) :   0.9662 B(  2-C ,  3-C ) :   1.2446 B(  2-C ,  6-C ) :   1.0279
B(  3-C ,  4-C ) :   1.5453 B(  3-C ,  5-H ) :   0.9971 B(  4-C , 20-C ) :   1.0987
B(  6-C ,  7-H ) :   0.9400 B(  6-C ,  8-H ) :   0.9418 B(  6-C ,  9-C ) :   1.0611
B(  9-C , 10-H ) :   0.9578 B(  9-C , 11-H ) :   0.9524 B(  9-C , 12-C ) :   1.0815
B( 12-C , 13-H ) :   0.9694 B( 12-C , 14-H ) :   0.9624 B( 12-C , 15-H ) :   0.9705
B( 16-S , 17-C ) :   1.1456 B( 16-S , 20-C ) :   1.1182 B( 17-C , 18-C ) :   1.6151
B( 17-C , 33-H ) :   0.9605 B( 18-C , 19-C ) :   1.2456 B( 18-C , 21-H ) :   0.9879
B( 19-C , 20-C ) :   1.5902 B( 19-C , 22-C ) :   1.0686 B( 22-C , 23-H ) :   0.9272
B( 22-C , 24-H ) :   0.9269 B( 22-C , 25-C ) :   1.0565 B( 25-C , 26-H ) :   0.9552
B( 25-C , 27-H ) :   0.9505 B( 25-C , 28-C ) :   1.0724 B( 28-C , 29-H ) :   0.9737
B( 28-C , 30-H ) :   0.9718 B( 28-C , 31-H ) :   0.9727

Dispersion correction           -0.014677317
FINAL SINGLE POINT ENERGY     -1339.870686270582

DIPOLE MOMENT
-------------
                                X             Y             Z
Electronic contribution:    -10.36629      26.73333      -3.73134
Nuclear contribution   :     10.76657     -27.25124       3.78099
                        -----------------------------------------
Total Dipole Moment    :      0.40028      -0.51792       0.04965
                        -----------------------------------------
Magnitude (a.u.)       :      0.65645
Magnitude (Debye)      :      1.66856

Rotational constants in cm-1:     0.019306     0.009587     0.006739
Rotational constants in MHz :   578.793977   287.414196   202.018210

                             ****ORCA TERMINATED NORMALLY****
TOTAL RUN TIME: 0 days 0 hours 0 minutes 31 seconds 726 msec
