                         Program Version 4.2.1 -  RELEASE  -
|  1> ! wB97X-D3 SP def2-SVP
|  2> %pal
|  3> nprocs 16
|  4> end
|  5>
|  6> * xyz 0 1
|  7> S 	 -27.0889 	 -3.20343 	 104.313
|  8> C 	 -26.9093 	 -3.43603 	 106.075
|  9> C 	 -26.6302 	 -2.22438 	 106.684
| 10> C 	 -26.3737 	 -1.18307 	 105.756
| 11> C 	 -26.7312 	 -1.4651 	 104.459
| 12> H 	 -25.9326 	 -0.17883 	 105.967
| 13> C 	 -26.3795 	 -1.96443 	 108.154
| 14> H 	 -26.6763 	 -2.83722 	 108.733
| 15> H 	 -26.9815 	 -1.09085 	 108.485
| 16> C 	 -24.847 	 -1.8313 	 108.395
| 17> H 	 -24.437 	 -1.16246 	 107.708
| 18> H 	 -24.7268 	 -1.33861 	 109.394
| 19> C 	 -24.0024 	 -3.12211 	 108.498
| 20> H 	 -23.8688 	 -3.65507 	 107.51
| 21> H 	 -23.0238 	 -2.89197 	 109.055
| 22> H 	 -24.5429 	 -3.75619 	 109.158
| 23> S 	 -26.1314 	 -1.26076 	 101.853
| 24> C 	 -26.2292 	 0.288932 	 101.051
| 25> C 	 -26.8802 	 1.18963 	 101.907
| 26> C 	 -27.2257 	 0.706331 	 103.189
| 27> C 	 -26.693 	 -0.57973 	 103.299
| 28> H 	 -27.0828 	 2.18965 	 101.555
| 29> C 	 -27.7806 	 1.64166 	 104.324
| 30> H 	 -26.9985 	 1.87759 	 105.052
| 31> H 	 -28.4147 	 1.00174 	 104.983
| 32> C 	 -28.5621 	 2.88825 	 103.85
| 33> H 	 -29.5622 	 2.54739 	 103.502
| 34> H 	 -28.1144 	 3.53328 	 103.026
| 35> C 	 -28.7314 	 3.93206 	 104.95
| 36> H 	 -28.8746 	 3.58056 	 106.002
| 37> H 	 -29.5142 	 4.58907 	 104.591
| 38> H 	 -27.7923 	 4.51557 	 105.061
| 39> H 	 -27.1505 	 -4.28458 	 106.643
| 40> H 	 -25.7135 	 0.598616 	 100.13
| 41> *
| 42>
| 43>                          ****END OF INPUT****

CARTESIAN COORDINATES (ANGSTROEM)
---------------------------------
  S    -27.088900   -3.203430  104.313000
  C    -26.909300   -3.436030  106.075000
  C    -26.630200   -2.224380  106.684000
  C    -26.373700   -1.183070  105.756000
  C    -26.731200   -1.465100  104.459000
  H    -25.932600   -0.178830  105.967000
  C    -26.379500   -1.964430  108.154000
  H    -26.676300   -2.837220  108.733000
  H    -26.981500   -1.090850  108.485000
  C    -24.847000   -1.831300  108.395000
  H    -24.437000   -1.162460  107.708000
  H    -24.726800   -1.338610  109.394000
  C    -24.002400   -3.122110  108.498000
  H    -23.868800   -3.655070  107.510000
  H    -23.023800   -2.891970  109.055000
  H    -24.542900   -3.756190  109.158000
  S    -26.131400   -1.260760  101.853000
  C    -26.229200    0.288932  101.051000
  C    -26.880200    1.189630  101.907000
  C    -27.225700    0.706331  103.189000
  C    -26.693000   -0.579730  103.299000
  H    -27.082800    2.189650  101.555000
  C    -27.780600    1.641660  104.324000
  H    -26.998500    1.877590  105.052000
  H    -28.414700    1.001740  104.983000
  C    -28.562100    2.888250  103.850000
  H    -29.562200    2.547390  103.502000
  H    -28.114400    3.533280  103.026000
  C    -28.731400    3.932060  104.950000
  H    -28.874600    3.580560  106.002000
  H    -29.514200    4.589070  104.591000
  H    -27.792300    4.515570  105.061000
  H    -27.150500   -4.284580  106.643000
  H    -25.713500    0.598616  100.130000

 Total Charge           Charge          ....    0
 Multiplicity           Mult            ....    1
 Number of Electrons    NEL             ....  134
 Basis Dimension        Dim             ....  322

ORBITAL ENERGIES
----------------

  NO   OCC          E(Eh)            E(eV)
   0   2.0000     -88.968734     -2420.9623
   1   2.0000     -88.964429     -2420.8452
   2   2.0000     -10.330041      -281.0947
   3   2.0000     -10.325020      -280.9581
   4   2.0000     -10.317852      -280.7630
   5   2.0000     -10.312082      -280.6060
   6   2.0000     -10.307346      -280.4771
   7   2.0000     -10.305346      -280.4227
   8   2.0000     -10.299502      -280.2637
   9   2.0000     -10.299180      -280.2549
  10   2.0000     -10.296236      -280.1748
  11   2.0000     -10.293465      -280.0994
  12   2.0000     -10.292887      -280.0837
  13   2.0000     -10.285693      -279.8879
  14   2.0000     -10.285427      -279.8807
  15   2.0000     -10.284262      -279.8490
  16   2.0000      -8.084447      -219.9890
  17   2.0000      -8.078110      -219.8165
  18   2.0000      -6.042790      -164.4327
  19   2.0000      -6.038817      -164.3246
  20   2.0000      -6.036863      -164.2714
  21   2.0000      -6.035311      -164.2292
  22   2.0000      -6.032867      -164.1627
  23   2.0000      -6.028569      -164.0457
  24   2.0000      -1.010783       -27.5048
  25   2.0000      -0.982715       -26.7410
  26   2.0000      -0.909589       -24.7512
  27   2.0000      -0.906673       -24.6718
  28   2.0000      -0.866127       -23.5685
  29   2.0000      -0.856219       -23.2989
  30   2.0000      -0.840374       -22.8678
  31   2.0000      -0.811952       -22.0943
  32   2.0000      -0.782420       -21.2907
  33   2.0000      -0.772436       -21.0191
  34   2.0000      -0.705232       -19.1903
  35   2.0000      -0.699505       -19.0345
  36   2.0000      -0.693456       -18.8699
  37   2.0000      -0.655006       -17.8236
  38   2.0000      -0.639584       -17.4040
  39   2.0000      -0.619501       -16.8575
  40   2.0000      -0.598829       -16.2950
  41   2.0000      -0.564803       -15.3691
  42   2.0000      -0.560704       -15.2575
  43   2.0000      -0.548767       -14.9327
  44   2.0000      -0.536706       -14.6045
  45   2.0000      -0.532173       -14.4812
  46   2.0000      -0.516673       -14.0594
  47   2.0000      -0.513041       -13.9606
  48   2.0000      -0.502137       -13.6638
  49   2.0000      -0.498190       -13.5564
  50   2.0000      -0.485661       -13.2155
  51   2.0000      -0.476870       -12.9763
  52   2.0000      -0.468528       -12.7493
  53   2.0000      -0.462716       -12.5911
  54   2.0000      -0.457622       -12.4525
  55   2.0000      -0.451378       -12.2826
  56   2.0000      -0.442397       -12.0382
  57   2.0000      -0.440277       -11.9805
  58   2.0000      -0.436906       -11.8888
  59   2.0000      -0.427301       -11.6274
  60   2.0000      -0.426567       -11.6075
  61   2.0000      -0.412087       -11.2135
  62   2.0000      -0.407816       -11.0972
  63   2.0000      -0.350266        -9.5312
  64   2.0000      -0.334159        -9.0929
  65   2.0000      -0.327367        -8.9081
  66   2.0000      -0.285791        -7.7768
  67   0.0000       0.025092         0.6828
  68   0.0000       0.073041         1.9876
  69   0.0000       0.100515         2.7352
  70   0.0000       0.120624         3.2823
  71   0.0000       0.137825         3.7504

MULLIKEN ATOMIC CHARGES
-----------------------
   0 S :    0.087697
   1 C :   -0.094052
   2 C :   -0.092202
   3 C :   -0.025953
   4 C :   -0.123791
   5 H :    0.032687
   6 C :    0.071153
   7 H :    0.011125
   8 H :    0.046934
   9 C :   -0.079897
  10 H :    0.018467
  11 H :    0.027158
  12 C :   -0.065363
  13 H :    0.059285
  14 H :    0.051470
  15 H :    0.013468
  16 S :    0.124316
  17 C :   -0.101767
  18 C :   -0.050830
  19 C :   -0.001982
  20 C :   -0.168968
  21 H :    0.010771
  22 C :    0.052338
  23 H :    0.035232
  24 H :    0.036532
  25 C :   -0.107402
  26 H :    0.045697
  27 H :    0.049461
  28 C :   -0.070412
  29 H :    0.035729
  30 H :    0.041109
  31 H :    0.034037
  32 H :    0.029179
  33 H :    0.068775
Sum of atomic charges:   -0.0000000

LOEWDIN ATOMIC CHARGES
----------------------
   0 S :    0.366968
   1 C :   -0.186350
   2 C :   -0.061896
   3 C :   -0.077197
   4 C :   -0.174662
   5 H :    0.037246
   6 C :   -0.029964
   7 H :    0.025524
   8 H :    0.037565
   9 C :   -0.038439
  10 H :    0.010731
  11 H :    0.027877
  12 C :   -0.069482
  13 H :    0.034270
  14 H :    0.040000
  15 H :    0.015194
  16 S :    0.438688
  17 C :   -0.203283
  18 C :   -0.065279
  19 C :   -0.057374
  20 C :   -0.212683
  21 H :    0.025173
  22 C :   -0.033873
  23 H :    0.029341
  24 H :    0.039825
  25 C :   -0.048641
  26 H :    0.029226
  27 H :    0.034472
  28 C :   -0.072195
  29 H :    0.025930
  30 H :    0.028995
  31 H :    0.026854
  32 H :    0.019938
  33 H :    0.037502

  Mayer bond orders larger than 0.100000
B(  0-S ,  1-C ) :   1.1107 B(  0-S ,  4-C ) :   1.1298 B(  1-C ,  2-C ) :   1.6383
B(  1-C , 32-H ) :   0.9702 B(  2-C ,  3-C ) :   1.2078 B(  2-C ,  6-C ) :   1.0361
B(  3-C ,  4-C ) :   1.6141 B(  3-C ,  5-H ) :   0.9797 B(  4-C , 20-C ) :   1.0507
B(  6-C ,  7-H ) :   0.9407 B(  6-C ,  8-H ) :   0.9415 B(  6-C ,  9-C ) :   1.0584
B(  9-C , 10-H ) :   0.9614 B(  9-C , 11-H ) :   0.9543 B(  9-C , 12-C ) :   1.0718
B( 12-C , 13-H ) :   0.9746 B( 12-C , 14-H ) :   0.9742 B( 12-C , 15-H ) :   0.9730
B( 16-S , 17-C ) :   1.1509 B( 16-S , 20-C ) :   1.1798 B( 17-C , 18-C ) :   1.5876
B( 17-C , 20-C ) :   0.1051 B( 17-C , 33-H ) :   0.9660 B( 18-C , 19-C ) :   1.2743
B( 18-C , 21-H ) :   0.9842 B( 19-C , 20-C ) :   1.5416 B( 19-C , 22-C ) :   1.0230
B( 22-C , 23-H ) :   0.9475 B( 22-C , 24-H ) :   0.9230 B( 22-C , 25-C ) :   1.0555
B( 25-C , 26-H ) :   0.9601 B( 25-C , 27-H ) :   0.9527 B( 25-C , 28-C ) :   1.0741
B( 28-C , 29-H ) :   0.9750 B( 28-C , 30-H ) :   0.9736 B( 28-C , 31-H ) :   0.9769

Dispersion correction           -0.013787572
FINAL SINGLE POINT ENERGY     -1339.868933716483

DIPOLE MOMENT
-------------
                                X             Y             Z
Electronic contribution:     -0.73215     -16.06878     -21.80561
Nuclear contribution   :      0.78736      16.73046      22.30465
                        -----------------------------------------
Total Dipole Moment    :      0.05521       0.66168       0.49904
                        -----------------------------------------
Magnitude (a.u.)       :      0.83061
Magnitude (Debye)      :      2.11124

Rotational constants in cm-1:     0.017489     0.008492     0.006457
Rotational constants in MHz :   524.314815   254.581700   193.577203

                             ****ORCA TERMINATED NORMALLY****
TOTAL RUN TIME: 0 days 0 hours 0 minutes 30 seconds 279 msec
