                         Program Version 4.2.1 -  RELEASE  -
|  1> ! wB97X-D3 SP def2-SVP
|  2> %pal
|  3> nprocs 16
|  4> end
|  5>
|  6> * xyz 0 1
|  7> S 	 30.4323 	 31.3558 	 57.651
|  8> C 	 31.8215 	 30.3539 	 57.7328
|  9> C 	 32.9673 	 31.043 	 57.2561
| 10> C 	 32.7354 	 32.47 	 57.1929
| 11> C 	 31.4417 	 32.7772 	 57.4163
| 12> H 	 33.4568 	 33.2736 	 57.0989
| 13> C 	 34.3448 	 30.39 	 57.1606
| 14> H 	 34.8944 	 31.0009 	 56.4437
| 15> H 	 34.4748 	 29.3476 	 56.7839
| 16> C 	 35.2355 	 30.5011 	 58.3958
| 17> H 	 34.8949 	 31.3924 	 58.9847
| 18> H 	 34.9905 	 29.7996 	 59.1488
| 19> C 	 36.7548 	 30.5946 	 58.0362
| 20> H 	 37.1169 	 31.534 	 57.7021
| 21> H 	 37.3017 	 30.2827 	 58.9394
| 22> H 	 37.0911 	 29.739 	 57.3765
| 23> S 	 29.4442 	 34.3275 	 56.3908
| 24> C 	 29.4641 	 36.0552 	 56.6509
| 25> C 	 30.4959 	 36.4303 	 57.5175
| 26> C 	 31.3112 	 35.3365 	 57.9567
| 27> C 	 30.9444 	 34.1547 	 57.3506
| 28> H 	 30.669 	 37.4962 	 57.7281
| 29> C 	 32.5501 	 35.585 	 58.8431
| 30> H 	 33.2069 	 34.6806 	 59.0005
| 31> H 	 32.134 	 35.9155 	 59.8597
| 32> C 	 33.4082 	 36.7316 	 58.3676
| 33> H 	 34.1064 	 37.0871 	 59.1622
| 34> H 	 32.7564 	 37.5652 	 58.27
| 35> C 	 34.1841 	 36.3566 	 57.0273
| 36> H 	 33.4991 	 36.035 	 56.2556
| 37> H 	 35.042 	 35.7101 	 57.1658
| 38> H 	 34.6813 	 37.2701 	 56.8807
| 39> H 	 31.8629 	 29.3285 	 57.8054
| 40> H 	 28.6869 	 36.7082 	 56.3462
| 41> *
| 42>
| 43>                          ****END OF INPUT****

CARTESIAN COORDINATES (ANGSTROEM)
---------------------------------
  S     30.432300   31.355800   57.651000
  C     31.821500   30.353900   57.732800
  C     32.967300   31.043000   57.256100
  C     32.735400   32.470000   57.192900
  C     31.441700   32.777200   57.416300
  H     33.456800   33.273600   57.098900
  C     34.344800   30.390000   57.160600
  H     34.894400   31.000900   56.443700
  H     34.474800   29.347600   56.783900
  C     35.235500   30.501100   58.395800
  H     34.894900   31.392400   58.984700
  H     34.990500   29.799600   59.148800
  C     36.754800   30.594600   58.036200
  H     37.116900   31.534000   57.702100
  H     37.301700   30.282700   58.939400
  H     37.091100   29.739000   57.376500
  S     29.444200   34.327500   56.390800
  C     29.464100   36.055200   56.650900
  C     30.495900   36.430300   57.517500
  C     31.311200   35.336500   57.956700
  C     30.944400   34.154700   57.350600
  H     30.669000   37.496200   57.728100
  C     32.550100   35.585000   58.843100
  H     33.206900   34.680600   59.000500
  H     32.134000   35.915500   59.859700
  C     33.408200   36.731600   58.367600
  H     34.106400   37.087100   59.162200
  H     32.756400   37.565200   58.270000
  C     34.184100   36.356600   57.027300
  H     33.499100   36.035000   56.255600
  H     35.042000   35.710100   57.165800
  H     34.681300   37.270100   56.880700
  H     31.862900   29.328500   57.805400
  H     28.686900   36.708200   56.346200

 Total Charge           Charge          ....    0
 Multiplicity           Mult            ....    1
 Number of Electrons    NEL             ....  134
 Basis Dimension        Dim             ....  322

ORBITAL ENERGIES
----------------

  NO   OCC          E(Eh)            E(eV)
   0   2.0000     -88.968901     -2420.9669
   1   2.0000     -88.964434     -2420.8453
   2   2.0000     -10.329276      -281.0739
   3   2.0000     -10.325809      -280.9795
   4   2.0000     -10.317691      -280.7586
   5   2.0000     -10.309249      -280.5289
   6   2.0000     -10.307596      -280.4839
   7   2.0000     -10.307464      -280.4804
   8   2.0000     -10.301084      -280.3068
   9   2.0000     -10.298732      -280.2427
  10   2.0000     -10.293399      -280.0976
  11   2.0000     -10.292297      -280.0676
  12   2.0000     -10.289978      -280.0045
  13   2.0000     -10.286092      -279.8988
  14   2.0000     -10.285276      -279.8766
  15   2.0000     -10.276646      -279.6418
  16   2.0000      -8.083817      -219.9718
  17   2.0000      -8.078887      -219.8377
  18   2.0000      -6.042385      -164.4216
  19   2.0000      -6.038385      -164.3128
  20   2.0000      -6.037398      -164.2859
  21   2.0000      -6.034415      -164.2048
  22   2.0000      -6.033502      -164.1799
  23   2.0000      -6.029602      -164.0738
  24   2.0000      -1.007029       -27.4027
  25   2.0000      -0.982511       -26.7355
  26   2.0000      -0.909803       -24.7570
  27   2.0000      -0.907352       -24.6903
  28   2.0000      -0.870364       -23.6838
  29   2.0000      -0.849589       -23.1185
  30   2.0000      -0.842603       -22.9284
  31   2.0000      -0.812661       -22.1136
  32   2.0000      -0.784741       -21.3539
  33   2.0000      -0.772637       -21.0245
  34   2.0000      -0.706964       -19.2375
  35   2.0000      -0.704176       -19.1616
  36   2.0000      -0.695887       -18.9360
  37   2.0000      -0.658558       -17.9203
  38   2.0000      -0.647049       -17.6071
  39   2.0000      -0.619113       -16.8469
  40   2.0000      -0.598946       -16.2981
  41   2.0000      -0.565237       -15.3809
  42   2.0000      -0.558742       -15.2041
  43   2.0000      -0.556236       -15.1360
  44   2.0000      -0.535829       -14.5806
  45   2.0000      -0.520856       -14.1732
  46   2.0000      -0.513389       -13.9700
  47   2.0000      -0.509338       -13.8598
  48   2.0000      -0.503224       -13.6934
  49   2.0000      -0.500151       -13.6098
  50   2.0000      -0.491428       -13.3724
  51   2.0000      -0.483597       -13.1594
  52   2.0000      -0.475349       -12.9349
  53   2.0000      -0.467325       -12.7165
  54   2.0000      -0.462877       -12.5955
  55   2.0000      -0.453553       -12.3418
  56   2.0000      -0.450630       -12.2623
  57   2.0000      -0.434221       -11.8157
  58   2.0000      -0.428793       -11.6680
  59   2.0000      -0.425312       -11.5733
  60   2.0000      -0.419310       -11.4100
  61   2.0000      -0.409584       -11.1453
  62   2.0000      -0.406278       -11.0554
  63   2.0000      -0.351750        -9.5716
  64   2.0000      -0.331610        -9.0236
  65   2.0000      -0.327207        -8.9038
  66   2.0000      -0.290055        -7.8928
  67   0.0000       0.032119         0.8740
  68   0.0000       0.064517         1.7556
  69   0.0000       0.106365         2.8943
  70   0.0000       0.119262         3.2453
  71   0.0000       0.123313         3.3555

MULLIKEN ATOMIC CHARGES
-----------------------
   0 S :    0.126549
   1 C :   -0.061091
   2 C :   -0.095897
   3 C :    0.014417
   4 C :   -0.115709
   5 H :    0.011652
   6 C :    0.045330
   7 H :    0.017407
   8 H :    0.037439
   9 C :   -0.070862
  10 H :    0.023373
  11 H :    0.013807
  12 C :   -0.061319
  13 H :    0.044164
  14 H :    0.028461
  15 H :    0.035971
  16 S :    0.090133
  17 C :   -0.074988
  18 C :   -0.066194
  19 C :   -0.012891
  20 C :   -0.184121
  21 H :    0.035163
  22 C :    0.035113
  23 H :    0.039142
  24 H :    0.042956
  25 C :   -0.095920
  26 H :    0.032184
  27 H :    0.014277
  28 C :   -0.030969
  29 H :    0.062434
  30 H :    0.029670
  31 H :    0.020881
  32 H :    0.020047
  33 H :    0.049390
Sum of atomic charges:   -0.0000000

LOEWDIN ATOMIC CHARGES
----------------------
   0 S :    0.414932
   1 C :   -0.196543
   2 C :   -0.053105
   3 C :   -0.059157
   4 C :   -0.192227
   5 H :    0.033374
   6 C :   -0.043692
   7 H :    0.030698
   8 H :    0.034084
   9 C :   -0.046930
  10 H :    0.028680
  11 H :    0.016479
  12 C :   -0.070240
  13 H :    0.020985
  14 H :    0.031289
  15 H :    0.032601
  16 S :    0.385185
  17 C :   -0.179142
  18 C :   -0.074251
  19 C :   -0.061093
  20 C :   -0.176436
  21 H :    0.034426
  22 C :   -0.038242
  23 H :    0.032259
  24 H :    0.040883
  25 C :   -0.040168
  26 H :    0.029196
  27 H :    0.013732
  28 C :   -0.063108
  29 H :    0.030489
  30 H :    0.025064
  31 H :    0.024152
  32 H :    0.012829
  33 H :    0.022995

  Mayer bond orders larger than 0.100000
B(  0-S ,  1-C ) :   1.1405 B(  0-S ,  4-C ) :   1.1352 B(  1-C ,  2-C ) :   1.6041
B(  1-C , 32-H ) :   0.9753 B(  2-C ,  3-C ) :   1.2069 B(  2-C ,  6-C ) :   1.0456
B(  3-C ,  4-C ) :   1.6005 B(  3-C ,  5-H ) :   0.9952 B(  4-C , 20-C ) :   1.0382
B(  6-C ,  7-H ) :   0.9405 B(  6-C ,  8-H ) :   0.9448 B(  6-C ,  9-C ) :   1.0464
B(  9-C , 10-H ) :   0.9539 B(  9-C , 11-H ) :   0.9561 B(  9-C , 12-C ) :   1.0685
B( 12-C , 13-H ) :   0.9773 B( 12-C , 14-H ) :   0.9715 B( 12-C , 15-H ) :   0.9751
B( 16-S , 17-C ) :   1.1505 B( 16-S , 20-C ) :   1.1281 B( 17-C , 18-C ) :   1.6274
B( 17-C , 33-H ) :   0.9703 B( 18-C , 19-C ) :   1.2132 B( 18-C , 21-H ) :   0.9810
B( 19-C , 20-C ) :   1.6244 B( 19-C , 22-C ) :   1.0303 B( 22-C , 23-H ) :   0.9470
B( 22-C , 24-H ) :   0.9279 B( 22-C , 25-C ) :   1.0807 B( 25-C , 26-H ) :   0.9520
B( 25-C , 27-H ) :   0.9541 B( 25-C , 28-C ) :   1.0620 B( 28-C , 29-H ) :   0.9749
B( 28-C , 30-H ) :   0.9719 B( 28-C , 31-H ) :   0.9713

Dispersion correction           -0.014622868
FINAL SINGLE POINT ENERGY     -1339.857352141757

DIPOLE MOMENT
-------------
                                X             Y             Z
Electronic contribution:    -30.87058      -3.78032      -5.51616
Nuclear contribution   :     31.55564       4.06807       5.73603
                        -----------------------------------------
Total Dipole Moment    :      0.68506       0.28775       0.21987
                        -----------------------------------------
Magnitude (a.u.)       :      0.77489
Magnitude (Debye)      :      1.96961

Rotational constants in cm-1:     0.018266     0.009335     0.006623
Rotational constants in MHz :   547.589745   279.855665   198.538382

                             ****ORCA TERMINATED NORMALLY****
TOTAL RUN TIME: 0 days 0 hours 0 minutes 35 seconds 572 msec
