                         Program Version 4.2.1 -  RELEASE  -
|  1> ! wB97X-D3 SP def2-SVP
|  2> %pal
|  3> nprocs 16
|  4> end
|  5>
|  6> * xyz 0 1
|  7> S 	 -3.40087 	 -11.4138 	 94.6118
|  8> C 	 -5.1116 	 -11.8889 	 94.8875
|  9> C 	 -5.47198 	 -12.959 	 94.1584
| 10> C 	 -4.3941 	 -13.3786 	 93.3087
| 11> C 	 -3.22028 	 -12.6412 	 93.4091
| 12> H 	 -4.52196 	 -14.035 	 92.464
| 13> C 	 -6.90257 	 -13.5632 	 93.9798
| 14> H 	 -7.66261 	 -12.832 	 94.3346
| 15> H 	 -6.91406 	 -14.3811 	 94.6425
| 16> C 	 -7.22841 	 -14.2954 	 92.6303
| 17> H 	 -6.65771 	 -15.1625 	 92.5043
| 18> H 	 -8.23804 	 -14.7441 	 92.7313
| 19> C 	 -7.26908 	 -13.4074 	 91.3901
| 20> H 	 -7.83639 	 -12.431 	 91.4453
| 21> H 	 -6.33837 	 -13.4146 	 90.8013
| 22> H 	 -7.81426 	 -13.9577 	 90.749
| 23> S 	 -1.48738 	 -11.4106 	 91.6876
| 24> C 	 -0.411111 	 -12.4856 	 90.6255
| 25> C 	 -0.608218 	 -13.7721 	 90.9758
| 26> C 	 -1.50064 	 -13.9615 	 92.0745
| 27> C 	 -2.05815 	 -12.7895 	 92.5198
| 28> H 	 -0.210483 	 -14.5912 	 90.457
| 29> C 	 -1.76176 	 -15.3858 	 92.6567
| 30> H 	 -1.94549 	 -15.9191 	 91.7849
| 31> H 	 -2.69025 	 -15.4644 	 93.2927
| 32> C 	 -0.523144 	 -16.0911 	 93.3409
| 33> H 	 -0.227511 	 -15.579 	 94.2796
| 34> H 	 0.282685 	 -15.927 	 92.6296
| 35> C 	 -0.682941 	 -17.6581 	 93.4189
| 36> H 	 -1.06397 	 -17.9634 	 92.4333
| 37> H 	 -1.50443 	 -17.9445 	 94.0783
| 38> H 	 0.164058 	 -18.2415 	 93.7205
| 39> H 	 -5.6026 	 -11.5083 	 95.738
| 40> H 	 0.0415874 	 -12.1273 	 89.762
| 41> *
| 42>
| 43>                          ****END OF INPUT****

CARTESIAN COORDINATES (ANGSTROEM)
---------------------------------
  S     -3.400870  -11.413800   94.611800
  C     -5.111600  -11.888900   94.887500
  C     -5.471980  -12.959000   94.158400
  C     -4.394100  -13.378600   93.308700
  C     -3.220280  -12.641200   93.409100
  H     -4.521960  -14.035000   92.464000
  C     -6.902570  -13.563200   93.979800
  H     -7.662610  -12.832000   94.334600
  H     -6.914060  -14.381100   94.642500
  C     -7.228410  -14.295400   92.630300
  H     -6.657710  -15.162500   92.504300
  H     -8.238040  -14.744100   92.731300
  C     -7.269080  -13.407400   91.390100
  H     -7.836390  -12.431000   91.445300
  H     -6.338370  -13.414600   90.801300
  H     -7.814260  -13.957700   90.749000
  S     -1.487380  -11.410600   91.687600
  C     -0.411111  -12.485600   90.625500
  C     -0.608218  -13.772100   90.975800
  C     -1.500640  -13.961500   92.074500
  C     -2.058150  -12.789500   92.519800
  H     -0.210483  -14.591200   90.457000
  C     -1.761760  -15.385800   92.656700
  H     -1.945490  -15.919100   91.784900
  H     -2.690250  -15.464400   93.292700
  C     -0.523144  -16.091100   93.340900
  H     -0.227511  -15.579000   94.279600
  H      0.282685  -15.927000   92.629600
  C     -0.682941  -17.658100   93.418900
  H     -1.063970  -17.963400   92.433300
  H     -1.504430  -17.944500   94.078300
  H      0.164058  -18.241500   93.720500
  H     -5.602600  -11.508300   95.738000
  H      0.041587  -12.127300   89.762000

 Total Charge           Charge          ....    0
 Multiplicity           Mult            ....    1
 Number of Electrons    NEL             ....  134
 Basis Dimension        Dim             ....  322

ORBITAL ENERGIES
----------------

  NO   OCC          E(Eh)            E(eV)
   0   2.0000     -88.963007     -2420.8065
   1   2.0000     -88.962590     -2420.7951
   2   2.0000     -10.328641      -281.0566
   3   2.0000     -10.324742      -280.9505
   4   2.0000     -10.318928      -280.7923
   5   2.0000     -10.308540      -280.5096
   6   2.0000     -10.301140      -280.3083
   7   2.0000     -10.300928      -280.3025
   8   2.0000     -10.297061      -280.1973
   9   2.0000     -10.293819      -280.1091
  10   2.0000     -10.292661      -280.0775
  11   2.0000     -10.292596      -280.0758
  12   2.0000     -10.292349      -280.0691
  13   2.0000     -10.289215      -279.9838
  14   2.0000     -10.281298      -279.7683
  15   2.0000     -10.271635      -279.5054
  16   2.0000      -8.077436      -219.7982
  17   2.0000      -8.077282      -219.7940
  18   2.0000      -6.036076      -164.2500
  19   2.0000      -6.035773      -164.2417
  20   2.0000      -6.032052      -164.1405
  21   2.0000      -6.031830      -164.1344
  22   2.0000      -6.028046      -164.0315
  23   2.0000      -6.027972      -164.0295
  24   2.0000      -1.005947       -27.3732
  25   2.0000      -0.981955       -26.7203
  26   2.0000      -0.908435       -24.7198
  27   2.0000      -0.897032       -24.4095
  28   2.0000      -0.875212       -23.8157
  29   2.0000      -0.845282       -23.0013
  30   2.0000      -0.843775       -22.9603
  31   2.0000      -0.815272       -22.1847
  32   2.0000      -0.790396       -21.5078
  33   2.0000      -0.771865       -21.0035
  34   2.0000      -0.709848       -19.3159
  35   2.0000      -0.699797       -19.0424
  36   2.0000      -0.698267       -19.0008
  37   2.0000      -0.668462       -18.1898
  38   2.0000      -0.639980       -17.4147
  39   2.0000      -0.619442       -16.8559
  40   2.0000      -0.596512       -16.2319
  41   2.0000      -0.565398       -15.3853
  42   2.0000      -0.559034       -15.2121
  43   2.0000      -0.553838       -15.0707
  44   2.0000      -0.530761       -14.4427
  45   2.0000      -0.524902       -14.2833
  46   2.0000      -0.522588       -14.2203
  47   2.0000      -0.515036       -14.0148
  48   2.0000      -0.503776       -13.7084
  49   2.0000      -0.499899       -13.6029
  50   2.0000      -0.486656       -13.2426
  51   2.0000      -0.476524       -12.9669
  52   2.0000      -0.466323       -12.6893
  53   2.0000      -0.462602       -12.5880
  54   2.0000      -0.460779       -12.5384
  55   2.0000      -0.450698       -12.2641
  56   2.0000      -0.446275       -12.1438
  57   2.0000      -0.438379       -11.9289
  58   2.0000      -0.433096       -11.7851
  59   2.0000      -0.422116       -11.4863
  60   2.0000      -0.419970       -11.4280
  61   2.0000      -0.416162       -11.3243
  62   2.0000      -0.409431       -11.1412
  63   2.0000      -0.355726        -9.6798
  64   2.0000      -0.330263        -8.9869
  65   2.0000      -0.326920        -8.8960
  66   2.0000      -0.291967        -7.9448
  67   0.0000       0.030565         0.8317
  68   0.0000       0.074106         2.0165
  69   0.0000       0.101123         2.7517
  70   0.0000       0.124971         3.4006
  71   0.0000       0.132600         3.6082

MULLIKEN ATOMIC CHARGES
-----------------------
   0 S :    0.089605
   1 C :   -0.142870
   2 C :   -0.053320
   3 C :    0.007519
   4 C :   -0.142367
   5 H :    0.012940
   6 C :    0.094083
   7 H :    0.038200
   8 H :    0.021506
   9 C :   -0.096878
  10 H :    0.015980
  11 H :    0.027514
  12 C :    0.000693
  13 H :    0.050354
  14 H :    0.032464
  15 H :   -0.010643
  16 S :    0.081026
  17 C :   -0.070994
  18 C :    0.008055
  19 C :   -0.072030
  20 C :   -0.123463
  21 H :    0.004875
  22 C :    0.069583
  23 H :   -0.000983
  24 H :    0.043333
  25 C :   -0.073202
  26 H :    0.047253
  27 H :    0.019800
  28 C :   -0.045795
  29 H :    0.018813
  30 H :    0.027048
  31 H :    0.043836
  32 H :    0.037901
  33 H :    0.040163
Sum of atomic charges:   -0.0000000

LOEWDIN ATOMIC CHARGES
----------------------
   0 S :    0.388102
   1 C :   -0.176373
   2 C :   -0.059264
   3 C :   -0.067445
   4 C :   -0.192127
   5 H :    0.025621
   6 C :   -0.025018
   7 H :    0.035299
   8 H :    0.028409
   9 C :   -0.037348
  10 H :    0.018216
  11 H :    0.032621
  12 C :   -0.073478
  13 H :    0.040371
  14 H :    0.031919
  15 H :    0.012129
  16 S :    0.377288
  17 C :   -0.140729
  18 C :   -0.054271
  19 C :   -0.063323
  20 C :   -0.202706
  21 H :    0.025658
  22 C :   -0.028127
  23 H :    0.016660
  24 H :    0.034635
  25 C :   -0.036766
  26 H :    0.027937
  27 H :    0.019919
  28 C :   -0.066853
  29 H :    0.025156
  30 H :    0.024009
  31 H :    0.025009
  32 H :    0.017605
  33 H :    0.017264

  Mayer bond orders larger than 0.100000
B(  0-S ,  1-C ) :   1.1168 B(  0-S ,  4-C ) :   1.1572 B(  1-C ,  2-C ) :   1.6508
B(  1-C , 32-H ) :   0.9712 B(  2-C ,  3-C ) :   1.2429 B(  2-C ,  6-C ) :   0.9928
B(  3-C ,  4-C ) :   1.5858 B(  3-C ,  5-H ) :   0.9785 B(  4-C , 20-C ) :   1.0133
B(  6-C ,  7-H ) :   0.9540 B(  6-C ,  8-H ) :   0.9246 B(  6-C ,  9-C ) :   1.0898
B(  9-C , 10-H ) :   0.9424 B(  9-C , 11-H ) :   0.9554 B(  9-C , 12-C ) :   1.0807
B( 12-C , 13-H ) :   0.9733 B( 12-C , 14-H ) :   0.9687 B( 12-C , 15-H ) :   0.9612
B( 16-S , 17-C ) :   1.1136 B( 16-S , 20-C ) :   1.1426 B( 17-C , 18-C ) :   1.6296
B( 17-C , 33-H ) :   0.9799 B( 18-C , 19-C ) :   1.2315 B( 18-C , 21-H ) :   0.9899
B( 19-C , 20-C ) :   1.6285 B( 19-C , 22-C ) :   1.0254 B( 22-C , 23-H ) :   0.9270
B( 22-C , 24-H ) :   0.9399 B( 22-C , 25-C ) :   1.0573 B( 25-C , 26-H ) :   0.9602
B( 25-C , 27-H ) :   0.9579 B( 25-C , 28-C ) :   1.0627 B( 28-C , 29-H ) :   0.9735
B( 28-C , 30-H ) :   0.9782 B( 28-C , 31-H ) :   0.9781

Dispersion correction           -0.014038661
FINAL SINGLE POINT ENERGY     -1339.849059070746

DIPOLE MOMENT
-------------
                                X             Y             Z
Electronic contribution:     10.62540      24.26804       3.53955
Nuclear contribution   :    -11.10537     -25.07236      -3.89040
                        -----------------------------------------
Total Dipole Moment    :     -0.47997      -0.80433      -0.35085
                        -----------------------------------------
Magnitude (a.u.)       :      1.00020
Magnitude (Debye)      :      2.54231

Rotational constants in cm-1:     0.015552     0.009111     0.007588
Rotational constants in MHz :   466.245788   273.146004   227.470805

                             ****ORCA TERMINATED NORMALLY****
TOTAL RUN TIME: 0 days 0 hours 0 minutes 33 seconds 664 msec
