                         Program Version 4.2.1 -  RELEASE  -
|  1> ! wB97X-D3 SP def2-SVP
|  2> %pal
|  3> nprocs 16
|  4> end
|  5>
|  6> * xyz 0 1
|  7> S 	 -3.46104 	 40.8521 	 34.545
|  8> C 	 -3.99151 	 39.3858 	 35.3801
|  9> C 	 -4.2563 	 39.654 	 36.7556
| 10> C 	 -4.18969 	 41.0334 	 37.0543
| 11> C 	 -3.77592 	 41.8259 	 35.9448
| 12> H 	 -4.41377 	 41.4566 	 38.0502
| 13> C 	 -4.91573 	 38.6489 	 37.6929
| 14> H 	 -4.6642 	 37.6332 	 37.2153
| 15> H 	 -5.98823 	 38.7929 	 37.5187
| 16> C 	 -4.65142 	 38.7716 	 39.2117
| 17> H 	 -3.6436 	 39.0544 	 39.535
| 18> H 	 -5.35843 	 39.507 	 39.6194
| 19> C 	 -5.05757 	 37.5412 	 39.9476
| 20> H 	 -5.18985 	 37.7309 	 41.0944
| 21> H 	 -6.05697 	 37.2327 	 39.5267
| 22> H 	 -4.25948 	 36.8348 	 39.9039
| 23> S 	 -3.05562 	 44.1135 	 37.3523
| 24> C 	 -3.03305 	 45.6472 	 36.4174
| 25> C 	 -3.61593 	 45.5471 	 35.1657
| 26> C 	 -4.0606 	 44.1916 	 34.8562
| 27> C 	 -3.72725 	 43.305 	 35.8957
| 28> H 	 -3.80539 	 46.3662 	 34.5252
| 29> C 	 -4.67397 	 43.8419 	 33.4942
| 30> H 	 -5.46631 	 44.5699 	 33.3168
| 31> H 	 -5.11321 	 42.8357 	 33.5939
| 32> C 	 -3.66725 	 43.8764 	 32.3461
| 33> H 	 -2.82669 	 43.1984 	 32.3894
| 34> H 	 -3.23844 	 44.888 	 32.3788
| 35> C 	 -4.3695 	 43.7286 	 30.9157
| 36> H 	 -3.88966 	 43.8925 	 29.983
| 37> H 	 -5.03005 	 44.6078 	 31.0147
| 38> H 	 -4.8745 	 42.7872 	 30.8627
| 39> H 	 -4.19838 	 38.4628 	 34.902
| 40> H 	 -2.70617 	 46.6089 	 36.8575
| 41> *
| 42>
| 43>                          ****END OF INPUT****

CARTESIAN COORDINATES (ANGSTROEM)
---------------------------------
  S     -3.461040   40.852100   34.545000
  C     -3.991510   39.385800   35.380100
  C     -4.256300   39.654000   36.755600
  C     -4.189690   41.033400   37.054300
  C     -3.775920   41.825900   35.944800
  H     -4.413770   41.456600   38.050200
  C     -4.915730   38.648900   37.692900
  H     -4.664200   37.633200   37.215300
  H     -5.988230   38.792900   37.518700
  C     -4.651420   38.771600   39.211700
  H     -3.643600   39.054400   39.535000
  H     -5.358430   39.507000   39.619400
  C     -5.057570   37.541200   39.947600
  H     -5.189850   37.730900   41.094400
  H     -6.056970   37.232700   39.526700
  H     -4.259480   36.834800   39.903900
  S     -3.055620   44.113500   37.352300
  C     -3.033050   45.647200   36.417400
  C     -3.615930   45.547100   35.165700
  C     -4.060600   44.191600   34.856200
  C     -3.727250   43.305000   35.895700
  H     -3.805390   46.366200   34.525200
  C     -4.673970   43.841900   33.494200
  H     -5.466310   44.569900   33.316800
  H     -5.113210   42.835700   33.593900
  C     -3.667250   43.876400   32.346100
  H     -2.826690   43.198400   32.389400
  H     -3.238440   44.888000   32.378800
  C     -4.369500   43.728600   30.915700
  H     -3.889660   43.892500   29.983000
  H     -5.030050   44.607800   31.014700
  H     -4.874500   42.787200   30.862700
  H     -4.198380   38.462800   34.902000
  H     -2.706170   46.608900   36.857500

 Total Charge           Charge          ....    0
 Multiplicity           Mult            ....    1
 Number of Electrons    NEL             ....  134
 Basis Dimension        Dim             ....  322

ORBITAL ENERGIES
----------------

  NO   OCC          E(Eh)            E(eV)
   0   2.0000     -88.973169     -2421.0830
   1   2.0000     -88.968364     -2420.9523
   2   2.0000     -10.334491      -281.2158
   3   2.0000     -10.334253      -281.2093
   4   2.0000     -10.326073      -280.9867
   5   2.0000     -10.314597      -280.6744
   6   2.0000     -10.310231      -280.5556
   7   2.0000     -10.304988      -280.4130
   8   2.0000     -10.302432      -280.3434
   9   2.0000     -10.298162      -280.2272
  10   2.0000     -10.297173      -280.2003
  11   2.0000     -10.296750      -280.1888
  12   2.0000     -10.289868      -280.0015
  13   2.0000     -10.288419      -279.9621
  14   2.0000     -10.285357      -279.8788
  15   2.0000     -10.276172      -279.6288
  16   2.0000      -8.086774      -220.0523
  17   2.0000      -8.081646      -219.9128
  18   2.0000      -6.045203      -164.4983
  19   2.0000      -6.041322      -164.3927
  20   2.0000      -6.040360      -164.3666
  21   2.0000      -6.037823      -164.2975
  22   2.0000      -6.036600      -164.2642
  23   2.0000      -6.032040      -164.1402
  24   2.0000      -0.997393       -27.1405
  25   2.0000      -0.973790       -26.4982
  26   2.0000      -0.913732       -24.8639
  27   2.0000      -0.904958       -24.6252
  28   2.0000      -0.866490       -23.5784
  29   2.0000      -0.851851       -23.1800
  30   2.0000      -0.841679       -22.9033
  31   2.0000      -0.808806       -22.0087
  32   2.0000      -0.780625       -21.2419
  33   2.0000      -0.765479       -20.8297
  34   2.0000      -0.705875       -19.2078
  35   2.0000      -0.696598       -18.9554
  36   2.0000      -0.684326       -18.6215
  37   2.0000      -0.667704       -18.1692
  38   2.0000      -0.631746       -17.1907
  39   2.0000      -0.613562       -16.6959
  40   2.0000      -0.593594       -16.1525
  41   2.0000      -0.578445       -15.7403
  42   2.0000      -0.569276       -15.4908
  43   2.0000      -0.557412       -15.1680
  44   2.0000      -0.527079       -14.3426
  45   2.0000      -0.521753       -14.1976
  46   2.0000      -0.518131       -14.0991
  47   2.0000      -0.512976       -13.9588
  48   2.0000      -0.504872       -13.7383
  49   2.0000      -0.492003       -13.3881
  50   2.0000      -0.483744       -13.1633
  51   2.0000      -0.474353       -12.9078
  52   2.0000      -0.470067       -12.7912
  53   2.0000      -0.465872       -12.6770
  54   2.0000      -0.461584       -12.5603
  55   2.0000      -0.451428       -12.2840
  56   2.0000      -0.443408       -12.0658
  57   2.0000      -0.435996       -11.8640
  58   2.0000      -0.431836       -11.7508
  59   2.0000      -0.424154       -11.5418
  60   2.0000      -0.421239       -11.4625
  61   2.0000      -0.412546       -11.2260
  62   2.0000      -0.408873       -11.1260
  63   2.0000      -0.347400        -9.4532
  64   2.0000      -0.332667        -9.0523
  65   2.0000      -0.330910        -9.0045
  66   2.0000      -0.282591        -7.6897
  67   0.0000       0.019094         0.5196
  68   0.0000       0.073942         2.0121
  69   0.0000       0.095158         2.5894
  70   0.0000       0.114314         3.1106
  71   0.0000       0.124453         3.3865

MULLIKEN ATOMIC CHARGES
-----------------------
   0 S :    0.120643
   1 C :   -0.129943
   2 C :   -0.061826
   3 C :   -0.009358
   4 C :   -0.139652
   5 H :    0.030631
   6 C :    0.006091
   7 H :    0.036044
   8 H :    0.053066
   9 C :   -0.065430
  10 H :    0.037564
  11 H :    0.031879
  12 C :   -0.080322
  13 H :    0.041948
  14 H :    0.040339
  15 H :    0.033913
  16 S :    0.093172
  17 C :   -0.094046
  18 C :   -0.009229
  19 C :   -0.065606
  20 C :   -0.135999
  21 H :    0.010547
  22 C :    0.061926
  23 H :    0.028970
  24 H :    0.033358
  25 C :   -0.076859
  26 H :    0.034092
  27 H :    0.022073
  28 C :   -0.046546
  29 H :    0.033038
  30 H :    0.021216
  31 H :    0.036665
  32 H :    0.038878
  33 H :    0.068763
Sum of atomic charges:    0.0000000

LOEWDIN ATOMIC CHARGES
----------------------
   0 S :    0.432610
   1 C :   -0.204316
   2 C :   -0.058485
   3 C :   -0.075788
   4 C :   -0.196658
   5 H :    0.033901
   6 C :   -0.038300
   7 H :    0.035999
   8 H :    0.040374
   9 C :   -0.051235
  10 H :    0.025921
  11 H :    0.028473
  12 C :   -0.067522
  13 H :    0.034898
  14 H :    0.030552
  15 H :    0.018123
  16 S :    0.367329
  17 C :   -0.169395
  18 C :   -0.062490
  19 C :   -0.051739
  20 C :   -0.180643
  21 H :    0.025669
  22 C :   -0.034170
  23 H :    0.032889
  24 H :    0.023801
  25 C :   -0.036296
  26 H :    0.017008
  27 H :    0.022369
  28 C :   -0.067167
  29 H :    0.021576
  30 H :    0.027696
  31 H :    0.021944
  32 H :    0.019116
  33 H :    0.033955

  Mayer bond orders larger than 0.100000
B(  0-S ,  1-C ) :   1.1433 B(  0-S ,  4-C ) :   1.1770 B(  1-C ,  2-C ) :   1.5569
B(  1-C ,  4-C ) :   0.1075 B(  1-C , 32-H ) :   0.9747 B(  2-C ,  3-C ) :   1.2962
B(  2-C ,  6-C ) :   1.0252 B(  3-C ,  4-C ) :   1.5078 B(  3-C ,  5-H ) :   0.9818
B(  4-C , 20-C ) :   1.0495 B(  6-C ,  7-H ) :   0.9509 B(  6-C ,  8-H ) :   0.9330
B(  6-C ,  9-C ) :   1.0510 B(  9-C , 10-H ) :   0.9650 B(  9-C , 11-H ) :   0.9454
B(  9-C , 12-C ) :   1.0884 B( 12-C , 13-H ) :   0.9744 B( 12-C , 14-H ) :   0.9690
B( 12-C , 15-H ) :   0.9775 B( 16-S , 17-C ) :   1.1269 B( 16-S , 20-C ) :   1.1194
B( 17-C , 18-C ) :   1.6431 B( 17-C , 33-H ) :   0.9623 B( 18-C , 19-C ) :   1.2016
B( 18-C , 21-H ) :   0.9905 B( 19-C , 20-C ) :   1.6118 B( 19-C , 22-C ) :   1.0475
B( 22-C , 23-H ) :   0.9301 B( 22-C , 24-H ) :   0.9276 B( 22-C , 25-C ) :   1.0558
B( 25-C , 26-H ) :   0.9595 B( 25-C , 27-H ) :   0.9605 B( 25-C , 28-C ) :   1.0524
B( 28-C , 29-H ) :   0.9798 B( 28-C , 30-H ) :   0.9799 B( 28-C , 31-H ) :   0.9802

Dispersion correction           -0.013729456
FINAL SINGLE POINT ENERGY     -1339.865074645335

DIPOLE MOMENT
-------------
                                X             Y             Z
Electronic contribution:      8.85268       9.62126       2.35761
Nuclear contribution   :     -9.22916      -9.60412      -2.38939
                        -----------------------------------------
Total Dipole Moment    :     -0.37649       0.01714      -0.03178
                        -----------------------------------------
Magnitude (a.u.)       :      0.37821
Magnitude (Debye)      :      0.96134

Rotational constants in cm-1:     0.021577     0.007582     0.005868
Rotational constants in MHz :   646.874820   227.298628   175.914475

                             ****ORCA TERMINATED NORMALLY****
TOTAL RUN TIME: 0 days 0 hours 0 minutes 34 seconds 391 msec
