                         Program Version 4.2.1 -  RELEASE  -
|  1> ! wB97X-D3 SP def2-SVP
|  2> %pal
|  3> nprocs 16
|  4> end
|  5>
|  6> * xyz 0 1
|  7> S 	 -39.0476 	 26.8433 	 77.8874
|  8> C 	 -40.2654 	 28.0054 	 78.3607
|  9> C 	 -41.4328 	 27.3503 	 78.6454
| 10> C 	 -41.4776 	 25.9809 	 78.1173
| 11> C 	 -40.2856 	 25.5404 	 77.5895
| 12> H 	 -42.2921 	 25.2862 	 78.1757
| 13> C 	 -42.6348 	 27.9634 	 79.332
| 14> H 	 -42.5888 	 27.7114 	 80.4075
| 15> H 	 -43.5503 	 27.4843 	 78.9843
| 16> C 	 -42.7345 	 29.5087 	 79.2003
| 17> H 	 -42.0248 	 30.1095 	 79.7809
| 18> H 	 -42.6399 	 29.723 	 78.1482
| 19> C 	 -44.1348 	 30.0488 	 79.5171
| 20> H 	 -44.4778 	 29.8303 	 80.514
| 21> H 	 -44.095 	 31.0716 	 79.2271
| 22> H 	 -44.9178 	 29.5496 	 78.845
| 23> S 	 -39.4284 	 23.713 	 75.6536
| 24> C 	 -39.1309 	 22.094 	 76.1001
| 25> C 	 -39.4363 	 21.8617 	 77.4312
| 26> C 	 -39.7761 	 23.0585 	 78.1836
| 27> C 	 -39.9541 	 24.1438 	 77.3068
| 28> H 	 -39.2543 	 20.8627 	 77.7778
| 29> C 	 -40.0453 	 22.9473 	 79.6338
| 30> H 	 -39.7 	 21.9324 	 79.8336
| 31> H 	 -41.1148 	 22.936 	 79.8574
| 32> C 	 -39.1611 	 23.9042 	 80.5186
| 33> H 	 -39.2479 	 24.9536 	 80.1737
| 34> H 	 -38.0666 	 23.7271 	 80.2087
| 35> C 	 -39.4337 	 23.8456 	 82.1018
| 36> H 	 -40.3262 	 24.3986 	 82.4492
| 37> H 	 -38.4543 	 24.2466 	 82.5166
| 38> H 	 -39.455 	 22.8283 	 82.5022
| 39> H 	 -40.0028 	 29.0344 	 78.5881
| 40> H 	 -38.9166 	 21.3176 	 75.4243
| 41> *
| 42>
| 43>                          ****END OF INPUT****

CARTESIAN COORDINATES (ANGSTROEM)
---------------------------------
  S    -39.047600   26.843300   77.887400
  C    -40.265400   28.005400   78.360700
  C    -41.432800   27.350300   78.645400
  C    -41.477600   25.980900   78.117300
  C    -40.285600   25.540400   77.589500
  H    -42.292100   25.286200   78.175700
  C    -42.634800   27.963400   79.332000
  H    -42.588800   27.711400   80.407500
  H    -43.550300   27.484300   78.984300
  C    -42.734500   29.508700   79.200300
  H    -42.024800   30.109500   79.780900
  H    -42.639900   29.723000   78.148200
  C    -44.134800   30.048800   79.517100
  H    -44.477800   29.830300   80.514000
  H    -44.095000   31.071600   79.227100
  H    -44.917800   29.549600   78.845000
  S    -39.428400   23.713000   75.653600
  C    -39.130900   22.094000   76.100100
  C    -39.436300   21.861700   77.431200
  C    -39.776100   23.058500   78.183600
  C    -39.954100   24.143800   77.306800
  H    -39.254300   20.862700   77.777800
  C    -40.045300   22.947300   79.633800
  H    -39.700000   21.932400   79.833600
  H    -41.114800   22.936000   79.857400
  C    -39.161100   23.904200   80.518600
  H    -39.247900   24.953600   80.173700
  H    -38.066600   23.727100   80.208700
  C    -39.433700   23.845600   82.101800
  H    -40.326200   24.398600   82.449200
  H    -38.454300   24.246600   82.516600
  H    -39.455000   22.828300   82.502200
  H    -40.002800   29.034400   78.588100
  H    -38.916600   21.317600   75.424300

 Total Charge           Charge          ....    0
 Multiplicity           Mult            ....    1
 Number of Electrons    NEL             ....  134
 Basis Dimension        Dim             ....  322

ORBITAL ENERGIES
----------------

  NO   OCC          E(Eh)            E(eV)
   0   2.0000     -88.963795     -2420.8279
   1   2.0000     -88.959458     -2420.7099
   2   2.0000     -10.331272      -281.1282
   3   2.0000     -10.329008      -281.0666
   4   2.0000     -10.315387      -280.6960
   5   2.0000     -10.312432      -280.6155
   6   2.0000     -10.308949      -280.5208
   7   2.0000     -10.304324      -280.3949
   8   2.0000     -10.297518      -280.2097
   9   2.0000     -10.297051      -280.1970
  10   2.0000     -10.295088      -280.1436
  11   2.0000     -10.292511      -280.0735
  12   2.0000     -10.291421      -280.0438
  13   2.0000     -10.289100      -279.9806
  14   2.0000     -10.288527      -279.9651
  15   2.0000     -10.280254      -279.7399
  16   2.0000      -8.078868      -219.8372
  17   2.0000      -8.073151      -219.6816
  18   2.0000      -6.037217      -164.2810
  19   2.0000      -6.033235      -164.1727
  20   2.0000      -6.031905      -164.1365
  21   2.0000      -6.029866      -164.0810
  22   2.0000      -6.027930      -164.0283
  23   2.0000      -6.023539      -163.9088
  24   2.0000      -0.999628       -27.2013
  25   2.0000      -0.979859       -26.6633
  26   2.0000      -0.909226       -24.7413
  27   2.0000      -0.901560       -24.5327
  28   2.0000      -0.868753       -23.6400
  29   2.0000      -0.844964       -22.9927
  30   2.0000      -0.840965       -22.8838
  31   2.0000      -0.813840       -22.1457
  32   2.0000      -0.779680       -21.2162
  33   2.0000      -0.766189       -20.8491
  34   2.0000      -0.709675       -19.3112
  35   2.0000      -0.701171       -19.0798
  36   2.0000      -0.685590       -18.6559
  37   2.0000      -0.659786       -17.9537
  38   2.0000      -0.644711       -17.5435
  39   2.0000      -0.609956       -16.5977
  40   2.0000      -0.591102       -16.0847
  41   2.0000      -0.570527       -15.5248
  42   2.0000      -0.566686       -15.4203
  43   2.0000      -0.550462       -14.9788
  44   2.0000      -0.532469       -14.4892
  45   2.0000      -0.521328       -14.1861
  46   2.0000      -0.516428       -14.0527
  47   2.0000      -0.510276       -13.8853
  48   2.0000      -0.507297       -13.8042
  49   2.0000      -0.495688       -13.4883
  50   2.0000      -0.489278       -13.3139
  51   2.0000      -0.481907       -13.1133
  52   2.0000      -0.473346       -12.8804
  53   2.0000      -0.461282       -12.5521
  54   2.0000      -0.454365       -12.3639
  55   2.0000      -0.445736       -12.1291
  56   2.0000      -0.441699       -12.0192
  57   2.0000      -0.430864       -11.7244
  58   2.0000      -0.429632       -11.6909
  59   2.0000      -0.427541       -11.6340
  60   2.0000      -0.418178       -11.3792
  61   2.0000      -0.414257       -11.2725
  62   2.0000      -0.406438       -11.0597
  63   2.0000      -0.332847        -9.0572
  64   2.0000      -0.329032        -8.9534
  65   2.0000      -0.321041        -8.7360
  66   2.0000      -0.306034        -8.3276
  67   0.0000       0.033234         0.9043
  68   0.0000       0.057441         1.5630
  69   0.0000       0.107709         2.9309
  70   0.0000       0.122933         3.3452
  71   0.0000       0.123693         3.3659

MULLIKEN ATOMIC CHARGES
-----------------------
   0 S :    0.081186
   1 C :   -0.116595
   2 C :   -0.095990
   3 C :    0.043338
   4 C :   -0.119888
   5 H :    0.009492
   6 C :    0.079682
   7 H :    0.041331
   8 H :    0.018481
   9 C :   -0.113567
  10 H :    0.041079
  11 H :    0.032336
  12 C :   -0.047319
  13 H :    0.031692
  14 H :    0.034647
  15 H :    0.030067
  16 S :    0.114395
  17 C :   -0.073685
  18 C :   -0.042311
  19 C :   -0.036216
  20 C :   -0.207424
  21 H :    0.016098
  22 C :    0.107215
  23 H :    0.007568
  24 H :    0.043239
  25 C :   -0.136086
  26 H :    0.048933
  27 H :    0.038534
  28 C :   -0.062246
  29 H :    0.054692
  30 H :    0.044183
  31 H :    0.030530
  32 H :    0.057813
  33 H :    0.044795
Sum of atomic charges:    0.0000000

LOEWDIN ATOMIC CHARGES
----------------------
   0 S :    0.367744
   1 C :   -0.190420
   2 C :   -0.065198
   3 C :   -0.049559
   4 C :   -0.178811
   5 H :    0.029740
   6 C :   -0.034188
   7 H :    0.037224
   8 H :    0.028545
   9 C :   -0.043463
  10 H :    0.024970
  11 H :    0.025372
  12 C :   -0.062170
  13 H :    0.018919
  14 H :    0.024164
  15 H :    0.029799
  16 S :    0.415329
  17 C :   -0.187695
  18 C :   -0.076345
  19 C :   -0.042533
  20 C :   -0.201543
  21 H :    0.027989
  22 C :   -0.037976
  23 H :    0.030944
  24 H :    0.034025
  25 C :   -0.047805
  26 H :    0.021894
  27 H :    0.033486
  28 C :   -0.075755
  29 H :    0.030110
  30 H :    0.038041
  31 H :    0.022028
  32 H :    0.030945
  33 H :    0.022194

  Mayer bond orders larger than 0.100000
B(  0-S ,  1-C ) :   1.1211 B(  0-S ,  4-C ) :   1.1157 B(  1-C ,  2-C ) :   1.6345
B(  1-C , 32-H ) :   0.9676 B(  2-C ,  3-C ) :   1.1990 B(  2-C ,  6-C ) :   1.0269
B(  3-C ,  4-C ) :   1.6162 B(  3-C ,  5-H ) :   1.0002 B(  4-C , 20-C ) :   1.0447
B(  6-C ,  7-H ) :   0.9227 B(  6-C ,  8-H ) :   0.9484 B(  6-C ,  9-C ) :   1.0739
B(  9-C , 10-H ) :   0.9488 B(  9-C , 11-H ) :   0.9606 B(  9-C , 12-C ) :   1.0890
B( 12-C , 13-H ) :   0.9763 B( 12-C , 14-H ) :   0.9742 B( 12-C , 15-H ) :   0.9748
B( 16-S , 17-C ) :   1.1787 B( 16-S , 20-C ) :   1.1365 B( 17-C , 18-C ) :   1.6143
B( 17-C , 33-H ) :   0.9674 B( 18-C , 19-C ) :   1.2396 B( 18-C , 21-H ) :   0.9851
B( 19-C , 20-C ) :   1.5697 B( 19-C , 22-C ) :   1.0421 B( 22-C , 23-H ) :   0.9255
B( 22-C , 24-H ) :   0.9377 B( 22-C , 25-C ) :   1.0388 B( 25-C , 26-H ) :   0.9598
B( 25-C , 27-H ) :   0.9592 B( 25-C , 28-C ) :   1.0582 B( 28-C , 29-H ) :   0.9772
B( 28-C , 30-H ) :   0.9762 B( 28-C , 31-H ) :   0.9776

Dispersion correction           -0.014480120
FINAL SINGLE POINT ENERGY     -1339.869734279829

DIPOLE MOMENT
-------------
                                X             Y             Z
Electronic contribution:     13.31518      -8.65768     -22.29124
Nuclear contribution   :    -13.72196       8.53807      22.86972
                        -----------------------------------------
Total Dipole Moment    :     -0.40678      -0.11961       0.57847
                        -----------------------------------------
Magnitude (a.u.)       :      0.71723
Magnitude (Debye)      :      1.82305

Rotational constants in cm-1:     0.020431     0.007723     0.006522
Rotational constants in MHz :   612.495219   231.526985   195.539531

                             ****ORCA TERMINATED NORMALLY****
TOTAL RUN TIME: 0 days 0 hours 0 minutes 29 seconds 827 msec
