                         Program Version 4.2.1 -  RELEASE  -
|  1> ! wB97X-D3 SP def2-SVP
|  2> %pal
|  3> nprocs 16
|  4> end
|  5>
|  6> * xyz 0 1
|  7> S 	 -12.6334 	 36.1283 	 55.2115
|  8> C 	 -11.544 	 37.3692 	 55.6857
|  9> C 	 -11.8928 	 38.5989 	 55.2158
| 10> C 	 -13.0076 	 38.4448 	 54.2959
| 11> C 	 -13.4791 	 37.1902 	 54.2275
| 12> H 	 -13.4808 	 39.2299 	 53.6635
| 13> C 	 -11.1727 	 39.9835 	 55.4025
| 14> H 	 -10.4219 	 40.078 	 54.5957
| 15> H 	 -10.5606 	 39.9521 	 56.3223
| 16> C 	 -12.088 	 41.1965 	 55.4018
| 17> H 	 -11.5423 	 42.0989 	 55.438
| 18> H 	 -12.5054 	 41.2968 	 54.3838
| 19> C 	 -13.0186 	 41.2195 	 56.5658
| 20> H 	 -13.747 	 42.0476 	 56.6716
| 21> H 	 -13.6959 	 40.4052 	 56.3864
| 22> H 	 -12.5984 	 41.0609 	 57.5758
| 23> S 	 -16.2029 	 37.3886 	 53.9063
| 24> C 	 -17.0469 	 36.2846 	 52.8629
| 25> C 	 -16.1766 	 35.4293 	 52.2273
| 26> C 	 -14.7917 	 35.7355 	 52.4894
| 27> C 	 -14.6296 	 36.7483 	 53.455
| 28> H 	 -16.4468 	 34.6897 	 51.459
| 29> C 	 -13.7007 	 34.9686 	 51.7804
| 30> H 	 -12.8891 	 34.8952 	 52.4492
| 31> H 	 -13.3693 	 35.6146 	 50.9135
| 32> C 	 -14.1049 	 33.5627 	 51.2827
| 33> H 	 -14.6005 	 33.5016 	 50.3675
| 34> H 	 -14.8436 	 33.1247 	 52.0096
| 35> C 	 -12.8312 	 32.6524 	 51.433
| 36> H 	 -12.0495 	 32.76 	 50.6382
| 37> H 	 -13.0358 	 31.6102 	 51.5263
| 38> H 	 -12.1958 	 32.8917 	 52.2986
| 39> H 	 -10.7671 	 37.3026 	 56.4033
| 40> H 	 -18.0957 	 36.2665 	 52.9336
| 41> *
| 42>
| 43>                          ****END OF INPUT****

CARTESIAN COORDINATES (ANGSTROEM)
---------------------------------
  S    -12.633400   36.128300   55.211500
  C    -11.544000   37.369200   55.685700
  C    -11.892800   38.598900   55.215800
  C    -13.007600   38.444800   54.295900
  C    -13.479100   37.190200   54.227500
  H    -13.480800   39.229900   53.663500
  C    -11.172700   39.983500   55.402500
  H    -10.421900   40.078000   54.595700
  H    -10.560600   39.952100   56.322300
  C    -12.088000   41.196500   55.401800
  H    -11.542300   42.098900   55.438000
  H    -12.505400   41.296800   54.383800
  C    -13.018600   41.219500   56.565800
  H    -13.747000   42.047600   56.671600
  H    -13.695900   40.405200   56.386400
  H    -12.598400   41.060900   57.575800
  S    -16.202900   37.388600   53.906300
  C    -17.046900   36.284600   52.862900
  C    -16.176600   35.429300   52.227300
  C    -14.791700   35.735500   52.489400
  C    -14.629600   36.748300   53.455000
  H    -16.446800   34.689700   51.459000
  C    -13.700700   34.968600   51.780400
  H    -12.889100   34.895200   52.449200
  H    -13.369300   35.614600   50.913500
  C    -14.104900   33.562700   51.282700
  H    -14.600500   33.501600   50.367500
  H    -14.843600   33.124700   52.009600
  C    -12.831200   32.652400   51.433000
  H    -12.049500   32.760000   50.638200
  H    -13.035800   31.610200   51.526300
  H    -12.195800   32.891700   52.298600
  H    -10.767100   37.302600   56.403300
  H    -18.095700   36.266500   52.933600

 Total Charge           Charge          ....    0
 Multiplicity           Mult            ....    1
 Number of Electrons    NEL             ....  134
 Basis Dimension        Dim             ....  322

ORBITAL ENERGIES
----------------

  NO   OCC          E(Eh)            E(eV)
   0   2.0000     -88.965174     -2420.8654
   1   2.0000     -88.961740     -2420.7720
   2   2.0000     -10.323669      -280.9213
   3   2.0000     -10.317068      -280.7417
   4   2.0000     -10.314658      -280.6761
   5   2.0000     -10.305331      -280.4223
   6   2.0000     -10.303148      -280.3629
   7   2.0000     -10.302742      -280.3519
   8   2.0000     -10.300236      -280.2837
   9   2.0000     -10.294882      -280.1380
  10   2.0000     -10.291365      -280.0423
  11   2.0000     -10.290144      -280.0091
  12   2.0000     -10.289032      -279.9788
  13   2.0000     -10.283170      -279.8193
  14   2.0000     -10.279519      -279.7199
  15   2.0000     -10.272820      -279.5376
  16   2.0000      -8.081668      -219.9134
  17   2.0000      -8.076791      -219.7807
  18   2.0000      -6.040017      -164.3572
  19   2.0000      -6.035983      -164.2474
  20   2.0000      -6.035192      -164.2259
  21   2.0000      -6.032421      -164.1505
  22   2.0000      -6.031136      -164.1156
  23   2.0000      -6.027779      -164.0242
  24   2.0000      -1.016062       -27.6484
  25   2.0000      -0.986405       -26.8415
  26   2.0000      -0.914853       -24.8944
  27   2.0000      -0.907689       -24.6995
  28   2.0000      -0.872971       -23.7548
  29   2.0000      -0.847799       -23.0698
  30   2.0000      -0.842497       -22.9255
  31   2.0000      -0.813053       -22.1243
  32   2.0000      -0.784525       -21.3480
  33   2.0000      -0.770467       -20.9655
  34   2.0000      -0.716306       -19.4917
  35   2.0000      -0.707138       -19.2422
  36   2.0000      -0.692218       -18.8362
  37   2.0000      -0.658261       -17.9122
  38   2.0000      -0.636962       -17.3326
  39   2.0000      -0.618272       -16.8240
  40   2.0000      -0.603941       -16.4341
  41   2.0000      -0.567135       -15.4325
  42   2.0000      -0.562775       -15.3139
  43   2.0000      -0.556849       -15.1526
  44   2.0000      -0.540215       -14.7000
  45   2.0000      -0.526905       -14.3378
  46   2.0000      -0.515915       -14.0387
  47   2.0000      -0.507546       -13.8110
  48   2.0000      -0.502875       -13.6839
  49   2.0000      -0.490819       -13.3559
  50   2.0000      -0.481994       -13.1157
  51   2.0000      -0.474831       -12.9208
  52   2.0000      -0.473544       -12.8858
  53   2.0000      -0.469420       -12.7736
  54   2.0000      -0.459212       -12.4958
  55   2.0000      -0.448415       -12.2020
  56   2.0000      -0.444881       -12.1058
  57   2.0000      -0.441376       -12.0104
  58   2.0000      -0.438765       -11.9394
  59   2.0000      -0.427907       -11.6439
  60   2.0000      -0.425446       -11.5770
  61   2.0000      -0.410050       -11.1580
  62   2.0000      -0.405490       -11.0340
  63   2.0000      -0.341601        -9.2954
  64   2.0000      -0.331286        -9.0148
  65   2.0000      -0.325791        -8.8652
  66   2.0000      -0.298954        -8.1350
  67   0.0000       0.041338         1.1249
  68   0.0000       0.071424         1.9435
  69   0.0000       0.115121         3.1326
  70   0.0000       0.123195         3.3523
  71   0.0000       0.137576         3.7436

MULLIKEN ATOMIC CHARGES
-----------------------
   0 S :    0.136162
   1 C :   -0.110117
   2 C :   -0.089699
   3 C :   -0.009766
   4 C :   -0.148594
   5 H :    0.023850
   6 C :    0.054997
   7 H :    0.047847
   8 H :    0.019633
   9 C :   -0.042632
  10 H :    0.012319
  11 H :    0.027754
  12 C :   -0.049895
  13 H :    0.032368
  14 H :    0.023083
  15 H :    0.036621
  16 S :    0.103269
  17 C :   -0.076836
  18 C :   -0.022853
  19 C :   -0.092785
  20 C :   -0.166246
  21 H :    0.031881
  22 C :    0.117701
  23 H :    0.002147
  24 H :    0.055782
  25 C :   -0.088661
  26 H :    0.030953
  27 H :    0.044396
  28 C :   -0.068190
  29 H :    0.031203
  30 H :    0.028713
  31 H :    0.032342
  32 H :    0.024820
  33 H :    0.048431
Sum of atomic charges:    0.0000000

LOEWDIN ATOMIC CHARGES
----------------------
   0 S :    0.450065
   1 C :   -0.205263
   2 C :   -0.059077
   3 C :   -0.074028
   4 C :   -0.223647
   5 H :    0.036239
   6 C :   -0.025917
   7 H :    0.037866
   8 H :    0.028254
   9 C :   -0.048341
  10 H :    0.020421
  11 H :    0.029172
  12 C :   -0.073225
  13 H :    0.029597
  14 H :    0.024807
  15 H :    0.030912
  16 S :    0.411711
  17 C :   -0.177138
  18 C :   -0.077256
  19 C :   -0.054384
  20 C :   -0.207238
  21 H :    0.036092
  22 C :   -0.029036
  23 H :    0.016920
  24 H :    0.046856
  25 C :   -0.038209
  26 H :    0.016056
  27 H :    0.033402
  28 C :   -0.070776
  29 H :    0.027788
  30 H :    0.019197
  31 H :    0.028773
  32 H :    0.020998
  33 H :    0.018409

  Mayer bond orders larger than 0.100000
B(  0-S ,  1-C ) :   1.1407 B(  0-S ,  4-C ) :   1.1566 B(  1-C ,  2-C ) :   1.6556
B(  1-C , 32-H ) :   0.9668 B(  2-C ,  3-C ) :   1.2034 B(  2-C ,  6-C ) :   0.9992
B(  3-C ,  4-C ) :   1.6148 B(  3-C ,  5-H ) :   0.9886 B(  4-C , 20-C ) :   1.0164
B(  6-C ,  7-H ) :   0.9425 B(  6-C ,  8-H ) :   0.9432 B(  6-C ,  9-C ) :   1.0856
B(  9-C , 10-H ) :   0.9493 B(  9-C , 11-H ) :   0.9448 B(  9-C , 12-C ) :   1.0681
B( 12-C , 13-H ) :   0.9727 B( 12-C , 14-H ) :   0.9715 B( 12-C , 15-H ) :   0.9733
B( 16-S , 17-C ) :   1.1737 B( 16-S , 20-C ) :   1.1468 B( 17-C , 18-C ) :   1.5651
B( 17-C , 33-H ) :   0.9741 B( 18-C , 19-C ) :   1.2714 B( 18-C , 21-H ) :   0.9802
B( 19-C , 20-C ) :   1.5774 B( 19-C , 22-C ) :   1.0401 B( 22-C , 23-H ) :   0.9341
B( 22-C , 24-H ) :   0.9184 B( 22-C , 25-C ) :   1.0616 B( 25-C , 26-H ) :   0.9535
B( 25-C , 27-H ) :   0.9626 B( 25-C , 28-C ) :   1.0629 B( 28-C , 29-H ) :   0.9756
B( 28-C , 30-H ) :   0.9791 B( 28-C , 31-H ) :   0.9784

Dispersion correction           -0.014198827
FINAL SINGLE POINT ENERGY     -1339.874506610593

DIPOLE MOMENT
-------------
                                X             Y             Z
Electronic contribution:     -9.56542      -2.32462       4.46544
Nuclear contribution   :      9.75771       2.39773      -4.66623
                        -----------------------------------------
Total Dipole Moment    :      0.19229       0.07310      -0.20078
                        -----------------------------------------
Magnitude (a.u.)       :      0.28746
Magnitude (Debye)      :      0.73067

Rotational constants in cm-1:     0.022298     0.008057     0.006489
Rotational constants in MHz :   668.476410   241.552041   194.537674

                             ****ORCA TERMINATED NORMALLY****
TOTAL RUN TIME: 0 days 0 hours 0 minutes 32 seconds 86 msec
