                         Program Version 4.2.1 -  RELEASE  -
|  1> ! wB97X-D3 SP def2-SVP
|  2> %pal
|  3> nprocs 16
|  4> end
|  5>
|  6> * xyz 0 1
|  7> S 	 57.5386 	 15.7772 	 56.9303
|  8> C 	 58.0832 	 17.2734 	 57.642
|  9> C 	 58.6114 	 17.0182 	 58.8626
| 10> C 	 58.8728 	 15.636 	 59.1373
| 11> C 	 58.3339 	 14.8213 	 58.1783
| 12> H 	 59.4949 	 15.2991 	 59.9578
| 13> C 	 59.17 	 18.0513 	 59.7703
| 14> H 	 58.8053 	 18.9771 	 59.3763
| 15> H 	 60.2205 	 18.0891 	 59.672
| 16> C 	 58.6798 	 17.9508 	 61.2129
| 17> H 	 58.3903 	 18.9434 	 61.6551
| 18> H 	 57.6962 	 17.4407 	 61.3433
| 19> C 	 59.6573 	 17.1887 	 62.1253
| 20> H 	 60.3517 	 16.4735 	 61.623
| 21> H 	 60.2991 	 17.9057 	 62.5307
| 22> H 	 59.2146 	 16.6225 	 62.9542
| 23> S 	 57.0213 	 12.3687 	 58.1489
| 24> C 	 57.9977 	 10.9261 	 58.3566
| 25> C 	 59.3529 	 11.1959 	 58.2488
| 26> C 	 59.6359 	 12.607 	 58.0506
| 27> C 	 58.4974 	 13.3887 	 58.0462
| 28> H 	 60.1747 	 10.5007 	 58.3046
| 29> C 	 61.0768 	 13.1087 	 57.9881
| 30> H 	 61.6027 	 12.8405 	 58.9287
| 31> H 	 61.0742 	 14.2047 	 58.0677
| 32> C 	 61.9273 	 12.6456 	 56.7573
| 33> H 	 61.8858 	 11.58 	 56.5872
| 34> H 	 62.9217 	 12.8341 	 57.0174
| 35> C 	 61.5879 	 13.255 	 55.4238
| 36> H 	 62.3477 	 13.8299 	 54.8809
| 37> H 	 60.6425 	 13.846 	 55.5007
| 38> H 	 61.3672 	 12.4705 	 54.723
| 39> H 	 58.0428 	 18.2481 	 57.1531
| 40> H 	 57.4909 	 9.99824 	 58.5743
| 41> *
| 42>
| 43>                          ****END OF INPUT****

CARTESIAN COORDINATES (ANGSTROEM)
---------------------------------
  S     57.538600   15.777200   56.930300
  C     58.083200   17.273400   57.642000
  C     58.611400   17.018200   58.862600
  C     58.872800   15.636000   59.137300
  C     58.333900   14.821300   58.178300
  H     59.494900   15.299100   59.957800
  C     59.170000   18.051300   59.770300
  H     58.805300   18.977100   59.376300
  H     60.220500   18.089100   59.672000
  C     58.679800   17.950800   61.212900
  H     58.390300   18.943400   61.655100
  H     57.696200   17.440700   61.343300
  C     59.657300   17.188700   62.125300
  H     60.351700   16.473500   61.623000
  H     60.299100   17.905700   62.530700
  H     59.214600   16.622500   62.954200
  S     57.021300   12.368700   58.148900
  C     57.997700   10.926100   58.356600
  C     59.352900   11.195900   58.248800
  C     59.635900   12.607000   58.050600
  C     58.497400   13.388700   58.046200
  H     60.174700   10.500700   58.304600
  C     61.076800   13.108700   57.988100
  H     61.602700   12.840500   58.928700
  H     61.074200   14.204700   58.067700
  C     61.927300   12.645600   56.757300
  H     61.885800   11.580000   56.587200
  H     62.921700   12.834100   57.017400
  C     61.587900   13.255000   55.423800
  H     62.347700   13.829900   54.880900
  H     60.642500   13.846000   55.500700
  H     61.367200   12.470500   54.723000
  H     58.042800   18.248100   57.153100
  H     57.490900    9.998240   58.574300

 Total Charge           Charge          ....    0
 Multiplicity           Mult            ....    1
 Number of Electrons    NEL             ....  134
 Basis Dimension        Dim             ....  322

ORBITAL ENERGIES
----------------

  NO   OCC          E(Eh)            E(eV)
   0   2.0000     -88.961546     -2420.7667
   1   2.0000     -88.961276     -2420.7594
   2   2.0000     -10.327379      -281.0223
   3   2.0000     -10.326543      -280.9995
   4   2.0000     -10.321817      -280.8709
   5   2.0000     -10.311851      -280.5997
   6   2.0000     -10.305043      -280.4145
   7   2.0000     -10.297332      -280.2046
   8   2.0000     -10.296796      -280.1901
   9   2.0000     -10.293627      -280.1038
  10   2.0000     -10.292149      -280.0636
  11   2.0000     -10.292007      -280.0598
  12   2.0000     -10.283175      -279.8194
  13   2.0000     -10.280106      -279.7359
  14   2.0000     -10.276985      -279.6510
  15   2.0000     -10.269621      -279.4506
  16   2.0000      -8.076296      -219.7672
  17   2.0000      -8.076066      -219.7609
  18   2.0000      -6.034897      -164.2179
  19   2.0000      -6.034680      -164.2120
  20   2.0000      -6.030772      -164.1056
  21   2.0000      -6.030658      -164.1026
  22   2.0000      -6.026919      -164.0008
  23   2.0000      -6.026676      -163.9942
  24   2.0000      -1.005470       -27.3602
  25   2.0000      -0.981271       -26.7017
  26   2.0000      -0.914600       -24.8875
  27   2.0000      -0.904081       -24.6013
  28   2.0000      -0.870633       -23.6911
  29   2.0000      -0.849341       -23.1118
  30   2.0000      -0.843217       -22.9451
  31   2.0000      -0.815864       -22.2008
  32   2.0000      -0.783919       -21.3315
  33   2.0000      -0.772131       -21.0107
  34   2.0000      -0.708155       -19.2699
  35   2.0000      -0.700045       -19.0492
  36   2.0000      -0.695637       -18.9292
  37   2.0000      -0.660884       -17.9836
  38   2.0000      -0.642824       -17.4921
  39   2.0000      -0.622422       -16.9370
  40   2.0000      -0.600535       -16.3414
  41   2.0000      -0.567702       -15.4480
  42   2.0000      -0.552284       -15.0284
  43   2.0000      -0.545807       -14.8522
  44   2.0000      -0.537741       -14.6327
  45   2.0000      -0.534674       -14.5492
  46   2.0000      -0.523344       -14.2409
  47   2.0000      -0.513611       -13.9761
  48   2.0000      -0.509518       -13.8647
  49   2.0000      -0.499275       -13.5860
  50   2.0000      -0.488670       -13.2974
  51   2.0000      -0.486226       -13.2309
  52   2.0000      -0.474846       -12.9212
  53   2.0000      -0.460156       -12.5215
  54   2.0000      -0.453074       -12.3288
  55   2.0000      -0.446594       -12.1524
  56   2.0000      -0.440279       -11.9806
  57   2.0000      -0.437093       -11.8939
  58   2.0000      -0.431791       -11.7496
  59   2.0000      -0.423525       -11.5247
  60   2.0000      -0.418106       -11.3772
  61   2.0000      -0.410836       -11.1794
  62   2.0000      -0.403758       -10.9868
  63   2.0000      -0.343358        -9.3432
  64   2.0000      -0.329912        -8.9774
  65   2.0000      -0.327166        -8.9026
  66   2.0000      -0.296091        -8.0570
  67   0.0000       0.039507         1.0750
  68   0.0000       0.059787         1.6269
  69   0.0000       0.115778         3.1505
  70   0.0000       0.119186         3.2432
  71   0.0000       0.127630         3.4730

MULLIKEN ATOMIC CHARGES
-----------------------
   0 S :    0.101249
   1 C :   -0.132070
   2 C :   -0.098436
   3 C :    0.042606
   4 C :   -0.143581
   5 H :    0.013610
   6 C :    0.115920
   7 H :   -0.003895
   8 H :    0.034185
   9 C :   -0.102649
  10 H :    0.036108
  11 H :    0.038438
  12 C :   -0.054830
  13 H :    0.028506
  14 H :    0.019860
  15 H :    0.039449
  16 S :    0.088681
  17 C :   -0.090284
  18 C :   -0.004416
  19 C :   -0.033889
  20 C :   -0.160967
  21 H :    0.015901
  22 C :    0.027684
  23 H :    0.032408
  24 H :    0.027546
  25 C :   -0.030968
  26 H :    0.022436
  27 H :    0.012779
  28 C :   -0.057535
  29 H :    0.035318
  30 H :    0.042137
  31 H :    0.018542
  32 H :    0.055636
  33 H :    0.064522
Sum of atomic charges:    0.0000000

LOEWDIN ATOMIC CHARGES
----------------------
   0 S :    0.392831
   1 C :   -0.196154
   2 C :   -0.064850
   3 C :   -0.055534
   4 C :   -0.187419
   5 H :    0.032931
   6 C :   -0.026850
   7 H :    0.026804
   8 H :    0.028191
   9 C :   -0.047081
  10 H :    0.030305
  11 H :    0.031131
  12 C :   -0.070001
  13 H :    0.024311
  14 H :    0.018087
  15 H :    0.028823
  16 S :    0.377658
  17 C :   -0.172445
  18 C :   -0.067026
  19 C :   -0.054135
  20 C :   -0.189086
  21 H :    0.029175
  22 C :   -0.032987
  23 H :    0.034883
  24 H :    0.030586
  25 C :   -0.038852
  26 H :    0.023756
  27 H :    0.018564
  28 C :   -0.073564
  29 H :    0.027353
  30 H :    0.033850
  31 H :    0.024731
  32 H :    0.034454
  33 H :    0.027561

  Mayer bond orders larger than 0.100000
B(  0-S ,  1-C ) :   1.1207 B(  0-S ,  4-C ) :   1.1472 B(  1-C ,  2-C ) :   1.6404
B(  1-C , 32-H ) :   0.9689 B(  2-C ,  3-C ) :   1.1983 B(  2-C ,  6-C ) :   1.0448
B(  3-C ,  4-C ) :   1.5988 B(  3-C ,  5-H ) :   1.0001 B(  4-C , 20-C ) :   1.0156
B(  6-C ,  7-H ) :   0.9270 B(  6-C ,  8-H ) :   0.9452 B(  6-C ,  9-C ) :   1.0421
B(  9-C , 10-H ) :   0.9642 B(  9-C , 11-H ) :   0.9656 B(  9-C , 12-C ) :   1.0535
B( 12-C , 13-H ) :   0.9752 B( 12-C , 14-H ) :   0.9743 B( 12-C , 15-H ) :   0.9784
B( 16-S , 17-C ) :   1.1529 B( 16-S , 20-C ) :   1.1198 B( 17-C , 18-C ) :   1.5978
B( 17-C , 33-H ) :   0.9726 B( 18-C , 19-C ) :   1.2203 B( 18-C , 21-H ) :   0.9917
B( 19-C , 20-C ) :   1.6308 B( 19-C , 22-C ) :   1.0435 B( 22-C , 23-H ) :   0.9373
B( 22-C , 24-H ) :   0.9372 B( 22-C , 25-C ) :   1.0737 B( 25-C , 26-H ) :   0.9671
B( 25-C , 27-H ) :   0.9544 B( 25-C , 28-C ) :   1.0564 B( 28-C , 29-H ) :   0.9776
B( 28-C , 30-H ) :   0.9780 B( 28-C , 31-H ) :   0.9780

Dispersion correction           -0.014735804
FINAL SINGLE POINT ENERGY     -1339.874048182933

DIPOLE MOMENT
-------------
                                X             Y             Z
Electronic contribution:    -19.81552      -7.92842      -8.25245
Nuclear contribution   :     20.51319       8.12102       8.64033
                        -----------------------------------------
Total Dipole Moment    :      0.69768       0.19260       0.38788
                        -----------------------------------------
Magnitude (a.u.)       :      0.82116
Magnitude (Debye)      :      2.08721

Rotational constants in cm-1:     0.017802     0.008518     0.008041
Rotational constants in MHz :   533.701947   255.367797   241.070337

                             ****ORCA TERMINATED NORMALLY****
TOTAL RUN TIME: 0 days 0 hours 0 minutes 30 seconds 968 msec
