                         Program Version 4.2.1 -  RELEASE  -
|  1> ! wB97X-D3 SP def2-SVP
|  2> %pal
|  3> nprocs 16
|  4> end
|  5>
|  6> * xyz 0 1
|  7> S 	 -40.8933 	 19.6626 	 86.4842
|  8> C 	 -40.2241 	 18.1325 	 87.0098
|  9> C 	 -40.9068 	 17.1273 	 86.3793
| 10> C 	 -42.0204 	 17.546 	 85.645
| 11> C 	 -42.2432 	 18.8985 	 85.7622
| 12> H 	 -42.7152 	 16.9817 	 85.0241
| 13> C 	 -40.5532 	 15.6331 	 86.4821
| 14> H 	 -39.4694 	 15.5082 	 86.4848
| 15> H 	 -40.8844 	 15.0387 	 85.621
| 16> C 	 -40.9787 	 14.9417 	 87.8233
| 17> H 	 -40.5576 	 13.9172 	 87.9261
| 18> H 	 -40.5376 	 15.4127 	 88.6274
| 19> C 	 -42.5059 	 14.7325 	 87.971
| 20> H 	 -42.9199 	 14.3525 	 87.0159
| 21> H 	 -42.5867 	 13.9119 	 88.6751
| 22> H 	 -43.0635 	 15.6419 	 88.293
| 23> S 	 -44.8089 	 19.7827 	 85.4558
| 24> C 	 -45.2071 	 20.9304 	 84.1907
| 25> C 	 -44.1598 	 20.9994 	 83.3105
| 26> C 	 -42.9309 	 20.445 	 83.7981
| 27> C 	 -43.1826 	 19.5862 	 84.8814
| 28> H 	 -44.2994 	 21.5054 	 82.3976
| 29> C 	 -41.5537 	 20.5895 	 83.0399
| 30> H 	 -40.7141 	 20.2562 	 83.5968
| 31> H 	 -41.4635 	 21.6868 	 82.9543
| 32> C 	 -41.7156 	 20.1471 	 81.5065
| 33> H 	 -42.6693 	 20.4972 	 81.1132
| 34> H 	 -41.7606 	 19.0549 	 81.463
| 35> C 	 -40.5144 	 20.489 	 80.6654
| 36> H 	 -40.4517 	 21.5418 	 80.5548
| 37> H 	 -40.6383 	 20.0502 	 79.5869
| 38> H 	 -39.5502 	 20.101 	 81.0772
| 39> H 	 -39.3457 	 18.0243 	 87.554
| 40> H 	 -46.1879 	 21.1435 	 83.7715
| 41> *
| 42>
| 43>                          ****END OF INPUT****

CARTESIAN COORDINATES (ANGSTROEM)
---------------------------------
  S    -40.893300   19.662600   86.484200
  C    -40.224100   18.132500   87.009800
  C    -40.906800   17.127300   86.379300
  C    -42.020400   17.546000   85.645000
  C    -42.243200   18.898500   85.762200
  H    -42.715200   16.981700   85.024100
  C    -40.553200   15.633100   86.482100
  H    -39.469400   15.508200   86.484800
  H    -40.884400   15.038700   85.621000
  C    -40.978700   14.941700   87.823300
  H    -40.557600   13.917200   87.926100
  H    -40.537600   15.412700   88.627400
  C    -42.505900   14.732500   87.971000
  H    -42.919900   14.352500   87.015900
  H    -42.586700   13.911900   88.675100
  H    -43.063500   15.641900   88.293000
  S    -44.808900   19.782700   85.455800
  C    -45.207100   20.930400   84.190700
  C    -44.159800   20.999400   83.310500
  C    -42.930900   20.445000   83.798100
  C    -43.182600   19.586200   84.881400
  H    -44.299400   21.505400   82.397600
  C    -41.553700   20.589500   83.039900
  H    -40.714100   20.256200   83.596800
  H    -41.463500   21.686800   82.954300
  C    -41.715600   20.147100   81.506500
  H    -42.669300   20.497200   81.113200
  H    -41.760600   19.054900   81.463000
  C    -40.514400   20.489000   80.665400
  H    -40.451700   21.541800   80.554800
  H    -40.638300   20.050200   79.586900
  H    -39.550200   20.101000   81.077200
  H    -39.345700   18.024300   87.554000
  H    -46.187900   21.143500   83.771500

 Total Charge           Charge          ....    0
 Multiplicity           Mult            ....    1
 Number of Electrons    NEL             ....  134
 Basis Dimension        Dim             ....  322

ORBITAL ENERGIES
----------------

  NO   OCC          E(Eh)            E(eV)
   0   2.0000     -88.968097     -2420.9450
   1   2.0000     -88.962340     -2420.7883
   2   2.0000     -10.324640      -280.9477
   3   2.0000     -10.321971      -280.8751
   4   2.0000     -10.312471      -280.6166
   5   2.0000     -10.311535      -280.5911
   6   2.0000     -10.308192      -280.5002
   7   2.0000     -10.300617      -280.2940
   8   2.0000     -10.298503      -280.2365
   9   2.0000     -10.293793      -280.1084
  10   2.0000     -10.290784      -280.0265
  11   2.0000     -10.290720      -280.0247
  12   2.0000     -10.290582      -280.0210
  13   2.0000     -10.284600      -279.8582
  14   2.0000     -10.283232      -279.8210
  15   2.0000     -10.277608      -279.6679
  16   2.0000      -8.083160      -219.9540
  17   2.0000      -8.077246      -219.7930
  18   2.0000      -6.041527      -164.3983
  19   2.0000      -6.037630      -164.2923
  20   2.0000      -6.035872      -164.2444
  21   2.0000      -6.034020      -164.1940
  22   2.0000      -6.031632      -164.1290
  23   2.0000      -6.027952      -164.0289
  24   2.0000      -1.013754       -27.5857
  25   2.0000      -0.988195       -26.8901
  26   2.0000      -0.905510       -24.6402
  27   2.0000      -0.900556       -24.5054
  28   2.0000      -0.871931       -23.7265
  29   2.0000      -0.849713       -23.1219
  30   2.0000      -0.845019       -22.9941
  31   2.0000      -0.817487       -22.2450
  32   2.0000      -0.780575       -21.2405
  33   2.0000      -0.768678       -20.9168
  34   2.0000      -0.706448       -19.2234
  35   2.0000      -0.698372       -19.0037
  36   2.0000      -0.696733       -18.9591
  37   2.0000      -0.658471       -17.9179
  38   2.0000      -0.646797       -17.6002
  39   2.0000      -0.613524       -16.6948
  40   2.0000      -0.590362       -16.0646
  41   2.0000      -0.575303       -15.6548
  42   2.0000      -0.561872       -15.2893
  43   2.0000      -0.546072       -14.8594
  44   2.0000      -0.542439       -14.7605
  45   2.0000      -0.523086       -14.2339
  46   2.0000      -0.516685       -14.0597
  47   2.0000      -0.513604       -13.9759
  48   2.0000      -0.501635       -13.6502
  49   2.0000      -0.497117       -13.5272
  50   2.0000      -0.486158       -13.2290
  51   2.0000      -0.478086       -13.0094
  52   2.0000      -0.474603       -12.9146
  53   2.0000      -0.468920       -12.7600
  54   2.0000      -0.459196       -12.4953
  55   2.0000      -0.452202       -12.3050
  56   2.0000      -0.440872       -11.9967
  57   2.0000      -0.434326       -11.8186
  58   2.0000      -0.432175       -11.7601
  59   2.0000      -0.421942       -11.4816
  60   2.0000      -0.416656       -11.3378
  61   2.0000      -0.414583       -11.2814
  62   2.0000      -0.411328       -11.1928
  63   2.0000      -0.340396        -9.2627
  64   2.0000      -0.333689        -9.0801
  65   2.0000      -0.321231        -8.7412
  66   2.0000      -0.305640        -8.3169
  67   0.0000       0.036416         0.9909
  68   0.0000       0.058554         1.5933
  69   0.0000       0.104922         2.8551
  70   0.0000       0.122972         3.3462
  71   0.0000       0.128770         3.5040

MULLIKEN ATOMIC CHARGES
-----------------------
   0 S :    0.113439
   1 C :   -0.097995
   2 C :   -0.042352
   3 C :    0.009636
   4 C :   -0.117396
   5 H :    0.021133
   6 C :    0.053376
   7 H :    0.018795
   8 H :    0.027777
   9 C :   -0.063170
  10 H :    0.023505
  11 H :    0.006638
  12 C :   -0.058932
  13 H :    0.025491
  14 H :    0.028687
  15 H :    0.057696
  16 S :    0.098507
  17 C :   -0.071265
  18 C :   -0.057988
  19 C :   -0.053728
  20 C :   -0.184313
  21 H :    0.009813
  22 C :    0.087713
  23 H :    0.021855
  24 H :    0.028226
  25 C :   -0.081272
  26 H :    0.029583
  27 H :    0.032622
  28 C :   -0.066938
  29 H :    0.024486
  30 H :    0.045831
  31 H :    0.043567
  32 H :    0.024561
  33 H :    0.062413
Sum of atomic charges:    0.0000000

LOEWDIN ATOMIC CHARGES
----------------------
   0 S :    0.433716
   1 C :   -0.183102
   2 C :   -0.062878
   3 C :   -0.057628
   4 C :   -0.213631
   5 H :    0.036177
   6 C :   -0.031261
   7 H :    0.028370
   8 H :    0.029324
   9 C :   -0.036549
  10 H :    0.027222
  11 H :    0.010085
  12 C :   -0.069039
  13 H :    0.024918
  14 H :    0.024750
  15 H :    0.031282
  16 S :    0.410737
  17 C :   -0.197962
  18 C :   -0.064504
  19 C :   -0.054046
  20 C :   -0.207187
  21 H :    0.021841
  22 C :   -0.023554
  23 H :    0.017808
  24 H :    0.033703
  25 C :   -0.040210
  26 H :    0.023132
  27 H :    0.024720
  28 C :   -0.071652
  29 H :    0.014690
  30 H :    0.038253
  31 H :    0.030934
  32 H :    0.017028
  33 H :    0.034515

  Mayer bond orders larger than 0.100000
B(  0-S ,  1-C ) :   1.1476 B(  0-S ,  4-C ) :   1.1731 B(  1-C ,  2-C ) :   1.5787
B(  1-C , 32-H ) :   0.9842 B(  2-C ,  3-C ) :   1.2622 B(  2-C ,  6-C ) :   1.0190
B(  3-C ,  4-C ) :   1.5426 B(  3-C ,  5-H ) :   1.0009 B(  4-C , 20-C ) :   0.9949
B(  6-C ,  7-H ) :   0.9380 B(  6-C ,  8-H ) :   0.9503 B(  6-C ,  9-C ) :   1.0787
B(  9-C , 10-H ) :   0.9591 B(  9-C , 11-H ) :   0.9551 B(  9-C , 12-C ) :   1.0686
B( 12-C , 13-H ) :   0.9753 B( 12-C , 14-H ) :   0.9778 B( 12-C , 15-H ) :   0.9767
B( 16-S , 17-C ) :   1.1475 B( 16-S , 20-C ) :   1.1542 B( 17-C , 18-C ) :   1.6403
B( 17-C , 33-H ) :   0.9539 B( 18-C , 19-C ) :   1.2332 B( 18-C , 21-H ) :   0.9847
B( 19-C , 20-C ) :   1.5994 B( 19-C , 22-C ) :   1.0265 B( 22-C , 23-H ) :   0.9459
B( 22-C , 24-H ) :   0.9361 B( 22-C , 25-C ) :   1.0434 B( 25-C , 26-H ) :   0.9567
B( 25-C , 27-H ) :   0.9569 B( 25-C , 28-C ) :   1.0849 B( 28-C , 29-H ) :   0.9767
B( 28-C , 30-H ) :   0.9711 B( 28-C , 31-H ) :   0.9726

Dispersion correction           -0.014192351
FINAL SINGLE POINT ENERGY     -1339.860289564661

DIPOLE MOMENT
-------------
                                X             Y             Z
Electronic contribution:     -9.28331      13.24682       9.71091
Nuclear contribution   :      9.66258     -13.59550     -10.18983
                        -----------------------------------------
Total Dipole Moment    :      0.37927      -0.34868      -0.47892
                        -----------------------------------------
Magnitude (a.u.)       :      0.70341
Magnitude (Debye)      :      1.78794

Rotational constants in cm-1:     0.019165     0.008168     0.006807
Rotational constants in MHz :   574.556333   244.868288   204.082815

                             ****ORCA TERMINATED NORMALLY****
TOTAL RUN TIME: 0 days 0 hours 0 minutes 31 seconds 812 msec
