                         Program Version 4.2.1 -  RELEASE  -
|  1> ! wB97X-D3 SP def2-SVP
|  2> %pal
|  3> nprocs 16
|  4> end
|  5>
|  6> * xyz 0 1
|  7> S 	 33.5408 	 29.1348 	 55.2217
|  8> C 	 34.1961 	 30.3166 	 54.0641
|  9> C 	 34.8321 	 29.7676 	 52.9799
| 10> C 	 34.8711 	 28.3518 	 53.0682
| 11> C 	 34.2079 	 27.8818 	 54.2101
| 12> H 	 35.3665 	 27.6792 	 52.4268
| 13> C 	 35.5008 	 30.5905 	 51.9205
| 14> H 	 34.6909 	 31.3015 	 51.5778
| 15> H 	 35.8551 	 29.9666 	 51.133
| 16> C 	 36.7715 	 31.43 	 52.315
| 17> H 	 37.6136 	 30.7718 	 52.646
| 18> H 	 37.1249 	 31.8914 	 51.4399
| 19> C 	 36.4527 	 32.6036 	 53.3088
| 20> H 	 35.5513 	 33.0346 	 53.0355
| 21> H 	 36.4301 	 32.3081 	 54.3129
| 22> H 	 37.281 	 33.3543 	 53.3768
| 23> S 	 35.5643 	 25.5303 	 54.8695
| 24> C 	 34.6337 	 24.0911 	 55.2736
| 25> C 	 33.2913 	 24.3951 	 55.2436
| 26> C 	 32.9701 	 25.7399 	 54.9396
| 27> C 	 34.0763 	 26.4782 	 54.592
| 28> H 	 32.5811 	 23.6815 	 55.5402
| 29> C 	 31.5339 	 26.1971 	 54.7008
| 30> H 	 31.3324 	 27.2029 	 55.1654
| 31> H 	 30.7115 	 25.4786 	 55.0604
| 32> C 	 31.2244 	 26.3951 	 53.2469
| 33> H 	 31.1729 	 25.396 	 52.8293
| 34> H 	 32.0576 	 26.8963 	 52.7329
| 35> C 	 29.8533 	 27.2952 	 53.0579
| 36> H 	 29.9604 	 27.7857 	 52.1046
| 37> H 	 29.7929 	 28.0561 	 53.7952
| 38> H 	 28.9925 	 26.6746 	 53.0079
| 39> H 	 34.0209 	 31.4625 	 54.2176
| 40> H 	 35.0491 	 23.1768 	 55.6042
| 41> *
| 42>
| 43>                          ****END OF INPUT****

CARTESIAN COORDINATES (ANGSTROEM)
---------------------------------
  S     33.540800   29.134800   55.221700
  C     34.196100   30.316600   54.064100
  C     34.832100   29.767600   52.979900
  C     34.871100   28.351800   53.068200
  C     34.207900   27.881800   54.210100
  H     35.366500   27.679200   52.426800
  C     35.500800   30.590500   51.920500
  H     34.690900   31.301500   51.577800
  H     35.855100   29.966600   51.133000
  C     36.771500   31.430000   52.315000
  H     37.613600   30.771800   52.646000
  H     37.124900   31.891400   51.439900
  C     36.452700   32.603600   53.308800
  H     35.551300   33.034600   53.035500
  H     36.430100   32.308100   54.312900
  H     37.281000   33.354300   53.376800
  S     35.564300   25.530300   54.869500
  C     34.633700   24.091100   55.273600
  C     33.291300   24.395100   55.243600
  C     32.970100   25.739900   54.939600
  C     34.076300   26.478200   54.592000
  H     32.581100   23.681500   55.540200
  C     31.533900   26.197100   54.700800
  H     31.332400   27.202900   55.165400
  H     30.711500   25.478600   55.060400
  C     31.224400   26.395100   53.246900
  H     31.172900   25.396000   52.829300
  H     32.057600   26.896300   52.732900
  C     29.853300   27.295200   53.057900
  H     29.960400   27.785700   52.104600
  H     29.792900   28.056100   53.795200
  H     28.992500   26.674600   53.007900
  H     34.020900   31.462500   54.217600
  H     35.049100   23.176800   55.604200

 Total Charge           Charge          ....    0
 Multiplicity           Mult            ....    1
 Number of Electrons    NEL             ....  134
 Basis Dimension        Dim             ....  322

ORBITAL ENERGIES
----------------

  NO   OCC          E(Eh)            E(eV)
   0   2.0000     -88.972231     -2421.0575
   1   2.0000     -88.963930     -2420.8316
   2   2.0000     -10.330245      -281.1003
   3   2.0000     -10.325356      -280.9672
   4   2.0000     -10.320561      -280.8367
   5   2.0000     -10.315108      -280.6884
   6   2.0000     -10.300323      -280.2860
   7   2.0000     -10.299521      -280.2642
   8   2.0000     -10.296989      -280.1953
   9   2.0000     -10.294549      -280.1289
  10   2.0000     -10.293815      -280.1090
  11   2.0000     -10.291421      -280.0438
  12   2.0000     -10.287828      -279.9460
  13   2.0000     -10.281871      -279.7839
  14   2.0000     -10.273610      -279.5591
  15   2.0000     -10.273535      -279.5571
  16   2.0000      -8.086164      -220.0357
  17   2.0000      -8.077942      -219.8120
  18   2.0000      -6.044615      -164.4823
  19   2.0000      -6.040875      -164.3806
  20   2.0000      -6.036957      -164.2739
  21   2.0000      -6.036513      -164.2619
  22   2.0000      -6.032523      -164.1533
  23   2.0000      -6.028716      -164.0497
  24   2.0000      -1.004760       -27.3409
  25   2.0000      -0.982307       -26.7299
  26   2.0000      -0.909716       -24.7546
  27   2.0000      -0.901804       -24.5393
  28   2.0000      -0.864166       -23.5151
  29   2.0000      -0.852052       -23.1855
  30   2.0000      -0.838931       -22.8285
  31   2.0000      -0.809821       -22.0363
  32   2.0000      -0.785543       -21.3757
  33   2.0000      -0.772521       -21.0214
  34   2.0000      -0.711492       -19.3607
  35   2.0000      -0.699804       -19.0426
  36   2.0000      -0.685428       -18.6514
  37   2.0000      -0.666106       -18.1257
  38   2.0000      -0.638440       -17.3728
  39   2.0000      -0.612742       -16.6736
  40   2.0000      -0.596521       -16.2322
  41   2.0000      -0.566147       -15.4056
  42   2.0000      -0.562852       -15.3160
  43   2.0000      -0.557528       -15.1711
  44   2.0000      -0.534148       -14.5349
  45   2.0000      -0.521059       -14.1787
  46   2.0000      -0.513144       -13.9634
  47   2.0000      -0.508008       -13.8236
  48   2.0000      -0.505785       -13.7631
  49   2.0000      -0.492091       -13.3905
  50   2.0000      -0.483104       -13.1459
  51   2.0000      -0.479466       -13.0469
  52   2.0000      -0.472842       -12.8667
  53   2.0000      -0.466611       -12.6971
  54   2.0000      -0.460693       -12.5361
  55   2.0000      -0.453566       -12.3422
  56   2.0000      -0.441535       -12.0148
  57   2.0000      -0.434814       -11.8319
  58   2.0000      -0.433737       -11.8026
  59   2.0000      -0.427147       -11.6232
  60   2.0000      -0.420678       -11.4472
  61   2.0000      -0.413716       -11.2578
  62   2.0000      -0.409442       -11.1415
  63   2.0000      -0.338380        -9.2078
  64   2.0000      -0.336486        -9.1563
  65   2.0000      -0.330614        -8.9965
  66   2.0000      -0.292957        -7.9718
  67   0.0000       0.028436         0.7738
  68   0.0000       0.066179         1.8008
  69   0.0000       0.105713         2.8766
  70   0.0000       0.110177         2.9981
  71   0.0000       0.132411         3.6031

MULLIKEN ATOMIC CHARGES
-----------------------
   0 S :    0.130761
   1 C :   -0.177576
   2 C :   -0.042919
   3 C :    0.036907
   4 C :   -0.164299
   5 H :   -0.003219
   6 C :    0.040148
   7 H :    0.047099
   8 H :    0.017442
   9 C :   -0.054080
  10 H :    0.037888
  11 H :    0.021434
  12 C :   -0.038144
  13 H :    0.015312
  14 H :    0.028532
  15 H :    0.032793
  16 S :    0.100446
  17 C :   -0.077111
  18 C :   -0.019092
  19 C :    0.012537
  20 C :   -0.177429
  21 H :   -0.000822
  22 C :    0.015196
  23 H :    0.025028
  24 H :    0.037272
  25 C :   -0.099106
  26 H :    0.023863
  27 H :    0.041831
  28 C :   -0.022795
  29 H :    0.028654
  30 H :    0.027643
  31 H :    0.033234
  32 H :    0.077543
  33 H :    0.045027
Sum of atomic charges:   -0.0000000

LOEWDIN ATOMIC CHARGES
----------------------
   0 S :    0.411221
   1 C :   -0.201793
   2 C :   -0.068886
   3 C :   -0.053179
   4 C :   -0.192933
   5 H :    0.025108
   6 C :   -0.031258
   7 H :    0.041509
   8 H :    0.026846
   9 C :   -0.028746
  10 H :    0.029981
  11 H :    0.017222
  12 C :   -0.062547
  13 H :    0.011262
  14 H :    0.018520
  15 H :    0.033366
  16 S :    0.388646
  17 C :   -0.174263
  18 C :   -0.064701
  19 C :   -0.062010
  20 C :   -0.188663
  21 H :    0.023178
  22 C :   -0.045837
  23 H :    0.023417
  24 H :    0.037468
  25 C :   -0.037360
  26 H :    0.020551
  27 H :    0.023726
  28 C :   -0.054120
  29 H :    0.027019
  30 H :    0.019307
  31 H :    0.020297
  32 H :    0.044183
  33 H :    0.023469

  Mayer bond orders larger than 0.100000
B(  0-S ,  1-C ) :   1.1287 B(  0-S ,  4-C ) :   1.1620 B(  1-C ,  2-C ) :   1.6237
B(  1-C , 32-H ) :   0.9474 B(  2-C ,  3-C ) :   1.2355 B(  2-C ,  6-C ) :   1.0189
B(  3-C ,  4-C ) :   1.5529 B(  3-C ,  5-H ) :   1.0048 B(  4-C , 20-C ) :   1.0451
B(  6-C ,  7-H ) :   0.9392 B(  6-C ,  8-H ) :   0.9394 B(  6-C ,  9-C ) :   1.0806
B(  9-C , 10-H ) :   0.9562 B(  9-C , 11-H ) :   0.9565 B(  9-C , 12-C ) :   1.0719
B( 12-C , 13-H ) :   0.9749 B( 12-C , 14-H ) :   0.9734 B( 12-C , 15-H ) :   0.9716
B( 16-S , 17-C ) :   1.1466 B( 16-S , 20-C ) :   1.1387 B( 17-C , 18-C ) :   1.5989
B( 17-C , 20-C ) :   0.1018 B( 17-C , 33-H ) :   0.9745 B( 18-C , 19-C ) :   1.2524
B( 18-C , 21-H ) :   0.9949 B( 19-C , 20-C ) :   1.5738 B( 19-C , 22-C ) :   1.0479
B( 22-C , 23-H ) :   0.9297 B( 22-C , 24-H ) :   0.9451 B( 22-C , 25-C ) :   1.0559
B( 25-C , 26-H ) :   0.9568 B( 25-C , 27-H ) :   0.9629 B( 25-C , 28-C ) :   1.0547
B( 28-C , 29-H ) :   0.9788 B( 28-C , 30-H ) :   0.9795 B( 28-C , 31-H ) :   0.9804

Dispersion correction           -0.014966005
FINAL SINGLE POINT ENERGY     -1339.870339366877

DIPOLE MOMENT
-------------
                                X             Y             Z
Electronic contribution:      6.65882     -13.65948      12.21111
Nuclear contribution   :     -6.71787      13.83963     -12.52049
                        -----------------------------------------
Total Dipole Moment    :     -0.05906       0.18015      -0.30937
                        -----------------------------------------
Magnitude (a.u.)       :      0.36284
Magnitude (Debye)      :      0.92228

Rotational constants in cm-1:     0.020900     0.008423     0.006851
Rotational constants in MHz :   626.552543   252.517749   205.398843

                             ****ORCA TERMINATED NORMALLY****
TOTAL RUN TIME: 0 days 0 hours 0 minutes 35 seconds 48 msec
