                         Program Version 4.2.1 -  RELEASE  -
|  1> ! wB97X-D3 SP def2-SVP
|  2> %pal
|  3> nprocs 16
|  4> end
|  5>
|  6> * xyz 0 1
|  7> S 	 -31.453 	 69.3523 	 108.008
|  8> C 	 -33.1104 	 69.0375 	 107.924
|  9> C 	 -33.8479 	 70.2184 	 107.869
| 10> C 	 -33.0445 	 71.4118 	 107.835
| 11> C 	 -31.7095 	 71.108 	 107.982
| 12> H 	 -33.4489 	 72.4034 	 107.767
| 13> C 	 -35.3387 	 70.399 	 107.599
| 14> H 	 -35.6087 	 71.2831 	 108.069
| 15> H 	 -35.9192 	 69.528 	 108.025
| 16> C 	 -35.8036 	 70.4883 	 106.122
| 17> H 	 -35.2527 	 71.3443 	 105.61
| 18> H 	 -35.4436 	 69.5529 	 105.643
| 19> C 	 -37.417 	 70.6501 	 105.989
| 20> H 	 -37.8359 	 71.5715 	 106.222
| 21> H 	 -37.8584 	 70.411 	 105.004
| 22> H 	 -37.8667 	 69.8958 	 106.651
| 23> S 	 -29.932 	 72.0582 	 109.784
| 24> C 	 -28.9622 	 73.4768 	 109.379
| 25> C 	 -29.1783 	 73.9132 	 108.058
| 26> C 	 -30.1504 	 73.1218 	 107.407
| 27> C 	 -30.6399 	 72.0721 	 108.197
| 28> H 	 -28.6573 	 74.7808 	 107.7
| 29> C 	 -30.6971 	 73.3836 	 106.047
| 30> H 	 -30.897 	 72.433 	 105.55
| 31> H 	 -29.92 	 73.8869 	 105.471
| 32> C 	 -31.8693 	 74.4351 	 105.997
| 33> H 	 -31.4134 	 75.3661 	 106.308
| 34> H 	 -32.6449 	 74.1135 	 106.705
| 35> C 	 -32.4616 	 74.6357 	 104.528
| 36> H 	 -31.6864 	 74.9428 	 103.842
| 37> H 	 -33.1714 	 75.4913 	 104.499
| 38> H 	 -32.8518 	 73.7012 	 104.247
| 39> H 	 -33.5892 	 68.117 	 107.793
| 40> H 	 -28.2982 	 73.9913 	 110.057
| 41> *
| 42>
| 43>                          ****END OF INPUT****

CARTESIAN COORDINATES (ANGSTROEM)
---------------------------------
  S    -31.453000   69.352300  108.008000
  C    -33.110400   69.037500  107.924000
  C    -33.847900   70.218400  107.869000
  C    -33.044500   71.411800  107.835000
  C    -31.709500   71.108000  107.982000
  H    -33.448900   72.403400  107.767000
  C    -35.338700   70.399000  107.599000
  H    -35.608700   71.283100  108.069000
  H    -35.919200   69.528000  108.025000
  C    -35.803600   70.488300  106.122000
  H    -35.252700   71.344300  105.610000
  H    -35.443600   69.552900  105.643000
  C    -37.417000   70.650100  105.989000
  H    -37.835900   71.571500  106.222000
  H    -37.858400   70.411000  105.004000
  H    -37.866700   69.895800  106.651000
  S    -29.932000   72.058200  109.784000
  C    -28.962200   73.476800  109.379000
  C    -29.178300   73.913200  108.058000
  C    -30.150400   73.121800  107.407000
  C    -30.639900   72.072100  108.197000
  H    -28.657300   74.780800  107.700000
  C    -30.697100   73.383600  106.047000
  H    -30.897000   72.433000  105.550000
  H    -29.920000   73.886900  105.471000
  C    -31.869300   74.435100  105.997000
  H    -31.413400   75.366100  106.308000
  H    -32.644900   74.113500  106.705000
  C    -32.461600   74.635700  104.528000
  H    -31.686400   74.942800  103.842000
  H    -33.171400   75.491300  104.499000
  H    -32.851800   73.701200  104.247000
  H    -33.589200   68.117000  107.793000
  H    -28.298200   73.991300  110.057000

 Total Charge           Charge          ....    0
 Multiplicity           Mult            ....    1
 Number of Electrons    NEL             ....  134
 Basis Dimension        Dim             ....  322

ORBITAL ENERGIES
----------------

  NO   OCC          E(Eh)            E(eV)
   0   2.0000     -88.970001     -2420.9968
   1   2.0000     -88.967448     -2420.9273
   2   2.0000     -10.330051      -281.0950
   3   2.0000     -10.322581      -280.8917
   4   2.0000     -10.319004      -280.7944
   5   2.0000     -10.309736      -280.5422
   6   2.0000     -10.302296      -280.3397
   7   2.0000     -10.301241      -280.3110
   8   2.0000     -10.300143      -280.2811
   9   2.0000     -10.295540      -280.1559
  10   2.0000     -10.294525      -280.1283
  11   2.0000     -10.292688      -280.0783
  12   2.0000     -10.290627      -280.0222
  13   2.0000     -10.288123      -279.9541
  14   2.0000     -10.283842      -279.8376
  15   2.0000     -10.280751      -279.7535
  16   2.0000      -8.085141      -220.0079
  17   2.0000      -8.081949      -219.9210
  18   2.0000      -6.043599      -164.4547
  19   2.0000      -6.040298      -164.3649
  20   2.0000      -6.039523      -164.3438
  21   2.0000      -6.036458      -164.2604
  22   2.0000      -6.035987      -164.2476
  23   2.0000      -6.032921      -164.1641
  24   2.0000      -1.008107       -27.4320
  25   2.0000      -0.984743       -26.7962
  26   2.0000      -0.903786       -24.5933
  27   2.0000      -0.901839       -24.5403
  28   2.0000      -0.870781       -23.6952
  29   2.0000      -0.849177       -23.1073
  30   2.0000      -0.844722       -22.9861
  31   2.0000      -0.812977       -22.1222
  32   2.0000      -0.780517       -21.2390
  33   2.0000      -0.768931       -20.9237
  34   2.0000      -0.705929       -19.2093
  35   2.0000      -0.702567       -19.1178
  36   2.0000      -0.695422       -18.9234
  37   2.0000      -0.666101       -18.1255
  38   2.0000      -0.646313       -17.5871
  39   2.0000      -0.619440       -16.8558
  40   2.0000      -0.590019       -16.0552
  41   2.0000      -0.570734       -15.5305
  42   2.0000      -0.567950       -15.4547
  43   2.0000      -0.556680       -15.1480
  44   2.0000      -0.527151       -14.3445
  45   2.0000      -0.518808       -14.1175
  46   2.0000      -0.513524       -13.9737
  47   2.0000      -0.508790       -13.8449
  48   2.0000      -0.499909       -13.6032
  49   2.0000      -0.497986       -13.5509
  50   2.0000      -0.497127       -13.5275
  51   2.0000      -0.475623       -12.9424
  52   2.0000      -0.472220       -12.8497
  53   2.0000      -0.469685       -12.7808
  54   2.0000      -0.458067       -12.4646
  55   2.0000      -0.451721       -12.2919
  56   2.0000      -0.447856       -12.1868
  57   2.0000      -0.434048       -11.8111
  58   2.0000      -0.433504       -11.7963
  59   2.0000      -0.425841       -11.5877
  60   2.0000      -0.423870       -11.5341
  61   2.0000      -0.420766       -11.4496
  62   2.0000      -0.417779       -11.3684
  63   2.0000      -0.347986        -9.4692
  64   2.0000      -0.331008        -9.0072
  65   2.0000      -0.323856        -8.8126
  66   2.0000      -0.295167        -8.0319
  67   0.0000       0.036506         0.9934
  68   0.0000       0.059378         1.6158
  69   0.0000       0.115607         3.1458
  70   0.0000       0.120920         3.2904
  71   0.0000       0.126886         3.4527

MULLIKEN ATOMIC CHARGES
-----------------------
   0 S :    0.134808
   1 C :   -0.081594
   2 C :   -0.101755
   3 C :    0.045940
   4 C :   -0.165530
   5 H :    0.012170
   6 C :    0.058273
   7 H :    0.009242
   8 H :    0.027670
   9 C :   -0.088032
  10 H :    0.037858
  11 H :    0.033102
  12 C :   -0.043619
  13 H :    0.025305
  14 H :    0.035668
  15 H :    0.025294
  16 S :    0.122442
  17 C :   -0.100717
  18 C :   -0.035968
  19 C :   -0.010876
  20 C :   -0.175651
  21 H :    0.015643
  22 C :    0.052786
  23 H :    0.037704
  24 H :    0.009984
  25 C :   -0.081443
  26 H :    0.023715
  27 H :    0.027579
  28 C :   -0.029349
  29 H :    0.025639
  30 H :    0.042721
  31 H :    0.031750
  32 H :    0.025624
  33 H :    0.053618
Sum of atomic charges:   -0.0000000

LOEWDIN ATOMIC CHARGES
----------------------
   0 S :    0.429088
   1 C :   -0.209529
   2 C :   -0.063634
   3 C :   -0.050396
   4 C :   -0.194880
   5 H :    0.029505
   6 C :   -0.034701
   7 H :    0.017518
   8 H :    0.032661
   9 C :   -0.038614
  10 H :    0.025860
  11 H :    0.025111
  12 C :   -0.067685
  13 H :    0.015035
  14 H :    0.031061
  15 H :    0.026589
  16 S :    0.417686
  17 C :   -0.181300
  18 C :   -0.067618
  19 C :   -0.057059
  20 C :   -0.208854
  21 H :    0.031647
  22 C :   -0.036139
  23 H :    0.030908
  24 H :    0.028496
  25 C :   -0.029060
  26 H :    0.020285
  27 H :    0.017232
  28 C :   -0.059675
  29 H :    0.023329
  30 H :    0.031553
  31 H :    0.018504
  32 H :    0.021084
  33 H :    0.025990

  Mayer bond orders larger than 0.100000
B(  0-S ,  1-C ) :   1.1493 B(  0-S ,  4-C ) :   1.1549 B(  1-C ,  2-C ) :   1.5963
B(  1-C , 32-H ) :   0.9742 B(  2-C ,  3-C ) :   1.2477 B(  2-C ,  6-C ) :   1.0416
B(  3-C ,  4-C ) :   1.5616 B(  3-C ,  5-H ) :   0.9929 B(  4-C , 20-C ) :   1.0255
B(  6-C ,  7-H ) :   0.9365 B(  6-C ,  8-H ) :   0.9406 B(  6-C ,  9-C ) :   1.0574
B(  9-C , 10-H ) :   0.9587 B(  9-C , 11-H ) :   0.9594 B(  9-C , 12-C ) :   1.0518
B( 12-C , 13-H ) :   0.9814 B( 12-C , 14-H ) :   0.9785 B( 12-C , 15-H ) :   0.9765
B( 16-S , 17-C ) :   1.1679 B( 16-S , 20-C ) :   1.1576 B( 17-C , 18-C ) :   1.5862
B( 17-C , 20-C ) :   0.1078 B( 17-C , 33-H ) :   0.9681 B( 18-C , 19-C ) :   1.2533
B( 18-C , 21-H ) :   0.9953 B( 19-C , 20-C ) :   1.5717 B( 19-C , 22-C ) :   1.0660
B( 22-C , 23-H ) :   0.9329 B( 22-C , 24-H ) :   0.9284 B( 22-C , 25-C ) :   1.0487
B( 25-C , 26-H ) :   0.9561 B( 25-C , 27-H ) :   0.9598 B( 25-C , 28-C ) :   1.0734
B( 28-C , 29-H ) :   0.9746 B( 28-C , 30-H ) :   0.9762 B( 28-C , 31-H ) :   0.9789

Dispersion correction           -0.014496832
FINAL SINGLE POINT ENERGY     -1339.878042861005

DIPOLE MOMENT
-------------
                                X             Y             Z
Electronic contribution:     23.24485     -10.89707      19.71124
Nuclear contribution   :    -23.62865      11.30166     -20.08036
                        -----------------------------------------
Total Dipole Moment    :     -0.38380       0.40459      -0.36912
                        -----------------------------------------
Magnitude (a.u.)       :      0.66876
Magnitude (Debye)      :      1.69986

Rotational constants in cm-1:     0.017801     0.009105     0.006652
Rotational constants in MHz :   533.650426   272.947739   199.413453

                             ****ORCA TERMINATED NORMALLY****
TOTAL RUN TIME: 0 days 0 hours 0 minutes 28 seconds 806 msec
