                         Program Version 4.2.1 -  RELEASE  -
|  1> ! wB97X-D3 SP def2-SVP
|  2> %pal
|  3> nprocs 16
|  4> end
|  5>
|  6> * xyz 0 1
|  7> S 	 36.5287 	 3.16921 	 72.8335
|  8> C 	 35.8268 	 4.33005 	 71.7447
|  9> C 	 34.5185 	 3.98625 	 71.4593
| 10> C 	 34.1903 	 2.65765 	 71.8376
| 11> C 	 35.1579 	 2.11592 	 72.6607
| 12> H 	 33.2709 	 2.09853 	 71.6041
| 13> C 	 33.6166 	 4.73922 	 70.5781
| 14> H 	 32.7019 	 4.19601 	 70.6066
| 15> H 	 34.0345 	 4.79856 	 69.6062
| 16> C 	 33.3506 	 6.19735 	 71.1321
| 17> H 	 34.2456 	 6.78825 	 70.9722
| 18> H 	 32.5533 	 6.58101 	 70.4711
| 19> C 	 33.0065 	 6.22295 	 72.6681
| 20> H 	 33.8583 	 6.03398 	 73.2915
| 21> H 	 32.5378 	 7.17381 	 72.9464
| 22> H 	 32.2293 	 5.35782 	 72.8687
| 23> S 	 34.6704 	 -0.607485 	 72.412
| 24> C 	 34.9288 	 -1.60468 	 73.7903
| 25> C 	 35.2037 	 -0.898318 	 74.8991
| 26> C 	 35.3391 	 0.4817 	 74.6357
| 27> C 	 34.9787 	 0.845612 	 73.3648
| 28> H 	 35.4269 	 -1.44567 	 75.7814
| 29> C 	 35.8622 	 1.40261 	 75.6981
| 30> H 	 35.6035 	 2.43591 	 75.4918
| 31> H 	 36.9087 	 1.4659 	 75.6681
| 32> C 	 35.5863 	 1.13794 	 77.1333
| 33> H 	 36.0898 	 1.94506 	 77.7401
| 34> H 	 35.9712 	 0.142456 	 77.417
| 35> C 	 34.1182 	 1.31118 	 77.5325
| 36> H 	 34.0272 	 0.974597 	 78.5703
| 37> H 	 33.5354 	 0.62329 	 76.864
| 38> H 	 33.7523 	 2.33647 	 77.4134
| 39> H 	 36.3495 	 5.27781 	 71.3594
| 40> H 	 34.8351 	 -2.63894 	 73.917
| 41> *
| 42>
| 43>                          ****END OF INPUT****

CARTESIAN COORDINATES (ANGSTROEM)
---------------------------------
  S     36.528700    3.169210   72.833500
  C     35.826800    4.330050   71.744700
  C     34.518500    3.986250   71.459300
  C     34.190300    2.657650   71.837600
  C     35.157900    2.115920   72.660700
  H     33.270900    2.098530   71.604100
  C     33.616600    4.739220   70.578100
  H     32.701900    4.196010   70.606600
  H     34.034500    4.798560   69.606200
  C     33.350600    6.197350   71.132100
  H     34.245600    6.788250   70.972200
  H     32.553300    6.581010   70.471100
  C     33.006500    6.222950   72.668100
  H     33.858300    6.033980   73.291500
  H     32.537800    7.173810   72.946400
  H     32.229300    5.357820   72.868700
  S     34.670400   -0.607485   72.412000
  C     34.928800   -1.604680   73.790300
  C     35.203700   -0.898318   74.899100
  C     35.339100    0.481700   74.635700
  C     34.978700    0.845612   73.364800
  H     35.426900   -1.445670   75.781400
  C     35.862200    1.402610   75.698100
  H     35.603500    2.435910   75.491800
  H     36.908700    1.465900   75.668100
  C     35.586300    1.137940   77.133300
  H     36.089800    1.945060   77.740100
  H     35.971200    0.142456   77.417000
  C     34.118200    1.311180   77.532500
  H     34.027200    0.974597   78.570300
  H     33.535400    0.623290   76.864000
  H     33.752300    2.336470   77.413400
  H     36.349500    5.277810   71.359400
  H     34.835100   -2.638940   73.917000

 Total Charge           Charge          ....    0
 Multiplicity           Mult            ....    1
 Number of Electrons    NEL             ....  134
 Basis Dimension        Dim             ....  322

ORBITAL ENERGIES
----------------

  NO   OCC          E(Eh)            E(eV)
   0   2.0000     -88.970410     -2421.0079
   1   2.0000     -88.965117     -2420.8639
   2   2.0000     -10.327216      -281.0178
   3   2.0000     -10.322787      -280.8973
   4   2.0000     -10.317434      -280.7517
   5   2.0000     -10.306585      -280.4564
   6   2.0000     -10.297294      -280.2036
   7   2.0000     -10.294645      -280.1315
   8   2.0000     -10.292394      -280.0703
   9   2.0000     -10.291638      -280.0497
  10   2.0000     -10.285429      -279.8808
  11   2.0000     -10.285166      -279.8736
  12   2.0000     -10.282905      -279.8121
  13   2.0000     -10.281833      -279.7829
  14   2.0000     -10.276771      -279.6452
  15   2.0000     -10.274820      -279.5921
  16   2.0000      -8.084763      -219.9976
  17   2.0000      -8.080058      -219.8696
  18   2.0000      -6.043258      -164.4454
  19   2.0000      -6.039236      -164.3360
  20   2.0000      -6.038661      -164.3203
  21   2.0000      -6.035661      -164.2387
  22   2.0000      -6.034605      -164.2100
  23   2.0000      -6.030640      -164.1021
  24   2.0000      -1.012428       -27.5496
  25   2.0000      -0.992025       -26.9944
  26   2.0000      -0.916207       -24.9312
  27   2.0000      -0.911779       -24.8108
  28   2.0000      -0.870100       -23.6766
  29   2.0000      -0.849803       -23.1243
  30   2.0000      -0.843324       -22.9480
  31   2.0000      -0.815081       -22.1795
  32   2.0000      -0.784542       -21.3485
  33   2.0000      -0.773959       -21.0605
  34   2.0000      -0.706767       -19.2321
  35   2.0000      -0.700753       -19.0685
  36   2.0000      -0.689298       -18.7568
  37   2.0000      -0.656054       -17.8521
  38   2.0000      -0.637489       -17.3470
  39   2.0000      -0.609980       -16.5984
  40   2.0000      -0.602144       -16.3852
  41   2.0000      -0.575496       -15.6600
  42   2.0000      -0.557173       -15.1614
  43   2.0000      -0.554454       -15.0875
  44   2.0000      -0.539855       -14.6902
  45   2.0000      -0.538671       -14.6580
  46   2.0000      -0.520189       -14.1551
  47   2.0000      -0.509937       -13.8761
  48   2.0000      -0.499552       -13.5935
  49   2.0000      -0.495278       -13.4772
  50   2.0000      -0.494599       -13.4587
  51   2.0000      -0.475445       -12.9375
  52   2.0000      -0.471544       -12.8314
  53   2.0000      -0.468328       -12.7439
  54   2.0000      -0.464354       -12.6357
  55   2.0000      -0.445761       -12.1298
  56   2.0000      -0.441046       -12.0015
  57   2.0000      -0.436258       -11.8712
  58   2.0000      -0.428708       -11.6657
  59   2.0000      -0.424384       -11.5481
  60   2.0000      -0.418296       -11.3824
  61   2.0000      -0.416677       -11.3383
  62   2.0000      -0.405839       -11.0435
  63   2.0000      -0.352037        -9.5794
  64   2.0000      -0.333035        -9.0623
  65   2.0000      -0.327772        -8.9191
  66   2.0000      -0.289701        -7.8832
  67   0.0000       0.033113         0.9010
  68   0.0000       0.071304         1.9403
  69   0.0000       0.112916         3.0726
  70   0.0000       0.116777         3.1777
  71   0.0000       0.129545         3.5251

MULLIKEN ATOMIC CHARGES
-----------------------
   0 S :    0.124433
   1 C :   -0.158057
   2 C :   -0.108232
   3 C :   -0.006451
   4 C :   -0.127281
   5 H :    0.028745
   6 C :    0.100210
   7 H :    0.008703
   8 H :    0.039705
   9 C :   -0.097586
  10 H :    0.026470
  11 H :    0.038188
  12 C :   -0.070427
  13 H :    0.046034
  14 H :    0.043112
  15 H :    0.037819
  16 S :    0.107109
  17 C :   -0.043142
  18 C :   -0.048003
  19 C :   -0.050668
  20 C :   -0.136895
  21 H :    0.005728
  22 C :    0.101745
  23 H :    0.007622
  24 H :    0.021850
  25 C :   -0.114553
  26 H :    0.034274
  27 H :    0.030211
  28 C :   -0.054683
  29 H :    0.035893
  30 H :    0.034899
  31 H :    0.037041
  32 H :    0.080034
  33 H :    0.026155
Sum of atomic charges:   -0.0000000

LOEWDIN ATOMIC CHARGES
----------------------
   0 S :    0.428030
   1 C :   -0.219819
   2 C :   -0.066884
   3 C :   -0.066753
   4 C :   -0.194893
   5 H :    0.037031
   6 C :   -0.027007
   7 H :    0.024022
   8 H :    0.031928
   9 C :   -0.037847
  10 H :    0.017140
  11 H :    0.026036
  12 C :   -0.070475
  13 H :    0.023355
  14 H :    0.026340
  15 H :    0.035182
  16 S :    0.410839
  17 C :   -0.179420
  18 C :   -0.073686
  19 C :   -0.056901
  20 C :   -0.192536
  21 H :    0.028345
  22 C :   -0.043520
  23 H :    0.024026
  24 H :    0.029706
  25 C :   -0.045539
  26 H :    0.033527
  27 H :    0.020579
  28 C :   -0.068346
  29 H :    0.025814
  30 H :    0.026793
  31 H :    0.025702
  32 H :    0.046516
  33 H :    0.022717

  Mayer bond orders larger than 0.100000
B(  0-S ,  1-C ) :   1.1353 B(  0-S ,  4-C ) :   1.1593 B(  1-C ,  2-C ) :   1.5784
B(  1-C , 32-H ) :   0.9611 B(  2-C ,  3-C ) :   1.2586 B(  2-C ,  6-C ) :   1.0345
B(  3-C ,  4-C ) :   1.5374 B(  3-C ,  5-H ) :   0.9913 B(  4-C , 20-C ) :   1.0352
B(  6-C ,  7-H ) :   0.9348 B(  6-C ,  8-H ) :   0.9406 B(  6-C ,  9-C ) :   1.0679
B(  9-C , 10-H ) :   0.9568 B(  9-C , 11-H ) :   0.9625 B(  9-C , 12-C ) :   1.0684
B( 12-C , 13-H ) :   0.9692 B( 12-C , 14-H ) :   0.9758 B( 12-C , 15-H ) :   0.9781
B( 16-S , 17-C ) :   1.1537 B( 16-S , 20-C ) :   1.1205 B( 17-C , 18-C ) :   1.6482
B( 17-C , 33-H ) :   0.9591 B( 18-C , 19-C ) :   1.2162 B( 18-C , 21-H ) :   0.9947
B( 19-C , 20-C ) :   1.6207 B( 19-C , 22-C ) :   1.0375 B( 22-C , 23-H ) :   0.9227
B( 22-C , 24-H ) :   0.9160 B( 22-C , 25-C ) :   1.0984 B( 25-C , 26-H ) :   0.9488
B( 25-C , 27-H ) :   0.9455 B( 25-C , 28-C ) :   1.0841 B( 28-C , 29-H ) :   0.9747
B( 28-C , 30-H ) :   0.9750 B( 28-C , 31-H ) :   0.9734

Dispersion correction           -0.014791818
FINAL SINGLE POINT ENERGY     -1339.875499439269

DIPOLE MOMENT
-------------
                                X             Y             Z
Electronic contribution:      9.60550     -14.73718     -11.92895
Nuclear contribution   :     -9.63967      14.95863      12.06938
                        -----------------------------------------
Total Dipole Moment    :     -0.03418       0.22145       0.14042
                        -----------------------------------------
Magnitude (a.u.)       :      0.26443
Magnitude (Debye)      :      0.67214

Rotational constants in cm-1:     0.020942     0.008356     0.007130
Rotational constants in MHz :   627.836845   250.505623   213.752458

                             ****ORCA TERMINATED NORMALLY****
TOTAL RUN TIME: 0 days 0 hours 0 minutes 31 seconds 2 msec
