                         Program Version 4.2.1 -  RELEASE  -
|  1> ! wB97X-D3 SP def2-SVP
|  2> %pal
|  3> nprocs 16
|  4> end
|  5>
|  6> * xyz 0 1
|  7> S 	 30.3211 	 -9.93072 	 82.1555
|  8> C 	 31.5827 	 -9.25241 	 81.1336
|  9> C 	 31.0182 	 -8.47071 	 80.1172
| 10> C 	 29.572 	 -8.47357 	 80.2112
| 11> C 	 29.0461 	 -9.16143 	 81.268
| 12> H 	 28.8712 	 -8.04488 	 79.4974
| 13> C 	 31.8178 	 -7.69689 	 79.1445
| 14> H 	 31.2433 	 -7.6656 	 78.2353
| 15> H 	 32.7451 	 -8.2118 	 78.9406
| 16> C 	 32.1834 	 -6.28583 	 79.6588
| 17> H 	 33.0412 	 -6.33254 	 80.424
| 18> H 	 32.7918 	 -5.76565 	 78.9751
| 19> C 	 31.0318 	 -5.4092 	 80.1005
| 20> H 	 30.3344 	 -5.42156 	 79.2181
| 21> H 	 30.4474 	 -5.93085 	 80.9612
| 22> H 	 31.4852 	 -4.47098 	 80.4037
| 23> S 	 26.918 	 -10.8733 	 80.8307
| 24> C 	 25.3184 	 -10.1578 	 81.1741
| 25> C 	 25.3782 	 -8.89204 	 81.5915
| 26> C 	 26.6698 	 -8.30942 	 81.6272
| 27> C 	 27.6267 	 -9.29475 	 81.4085
| 28> H 	 24.4533 	 -8.36022 	 81.7652
| 29> C 	 26.9361 	 -6.90382 	 82.1241
| 30> H 	 26.0078 	 -6.36294 	 82.2136
| 31> H 	 27.635 	 -6.44044 	 81.3763
| 32> C 	 27.4598 	 -6.73548 	 83.5579
| 33> H 	 27.539 	 -5.62705 	 83.574
| 34> H 	 28.4253 	 -7.19714 	 83.7458
| 35> C 	 26.341 	 -7.15907 	 84.6073
| 36> H 	 26.502 	 -6.60594 	 85.5509
| 37> H 	 26.2299 	 -8.17002 	 84.8158
| 38> H 	 25.3643 	 -6.84816 	 84.3211
| 39> H 	 32.6289 	 -9.15115 	 81.4077
| 40> H 	 24.3265 	 -10.6987 	 81.1654
| 41> *
| 42>
| 43>                          ****END OF INPUT****

CARTESIAN COORDINATES (ANGSTROEM)
---------------------------------
  S     30.321100   -9.930720   82.155500
  C     31.582700   -9.252410   81.133600
  C     31.018200   -8.470710   80.117200
  C     29.572000   -8.473570   80.211200
  C     29.046100   -9.161430   81.268000
  H     28.871200   -8.044880   79.497400
  C     31.817800   -7.696890   79.144500
  H     31.243300   -7.665600   78.235300
  H     32.745100   -8.211800   78.940600
  C     32.183400   -6.285830   79.658800
  H     33.041200   -6.332540   80.424000
  H     32.791800   -5.765650   78.975100
  C     31.031800   -5.409200   80.100500
  H     30.334400   -5.421560   79.218100
  H     30.447400   -5.930850   80.961200
  H     31.485200   -4.470980   80.403700
  S     26.918000  -10.873300   80.830700
  C     25.318400  -10.157800   81.174100
  C     25.378200   -8.892040   81.591500
  C     26.669800   -8.309420   81.627200
  C     27.626700   -9.294750   81.408500
  H     24.453300   -8.360220   81.765200
  C     26.936100   -6.903820   82.124100
  H     26.007800   -6.362940   82.213600
  H     27.635000   -6.440440   81.376300
  C     27.459800   -6.735480   83.557900
  H     27.539000   -5.627050   83.574000
  H     28.425300   -7.197140   83.745800
  C     26.341000   -7.159070   84.607300
  H     26.502000   -6.605940   85.550900
  H     26.229900   -8.170020   84.815800
  H     25.364300   -6.848160   84.321100
  H     32.628900   -9.151150   81.407700
  H     24.326500  -10.698700   81.165400

 Total Charge           Charge          ....    0
 Multiplicity           Mult            ....    1
 Number of Electrons    NEL             ....  134
 Basis Dimension        Dim             ....  322

ORBITAL ENERGIES
----------------

  NO   OCC          E(Eh)            E(eV)
   0   2.0000     -88.966991     -2420.9149
   1   2.0000     -88.964451     -2420.8458
   2   2.0000     -10.327685      -281.0306
   3   2.0000     -10.322230      -280.8822
   4   2.0000     -10.316420      -280.7241
   5   2.0000     -10.314817      -280.6805
   6   2.0000     -10.302356      -280.3414
   7   2.0000     -10.302110      -280.3347
   8   2.0000     -10.293788      -280.1082
   9   2.0000     -10.292551      -280.0745
  10   2.0000     -10.292162      -280.0640
  11   2.0000     -10.289613      -279.9946
  12   2.0000     -10.287537      -279.9381
  13   2.0000     -10.287406      -279.9345
  14   2.0000     -10.285965      -279.8953
  15   2.0000     -10.272824      -279.5377
  16   2.0000      -8.081474      -219.9081
  17   2.0000      -8.077760      -219.8070
  18   2.0000      -6.040090      -164.3592
  19   2.0000      -6.036418      -164.2593
  20   2.0000      -6.035852      -164.2439
  21   2.0000      -6.032733      -164.1590
  22   2.0000      -6.032302      -164.1473
  23   2.0000      -6.028184      -164.0352
  24   2.0000      -1.005022       -27.3480
  25   2.0000      -0.980293       -26.6751
  26   2.0000      -0.916899       -24.9501
  27   2.0000      -0.905820       -24.6486
  28   2.0000      -0.872111       -23.7313
  29   2.0000      -0.846630       -23.0380
  30   2.0000      -0.842167       -22.9165
  31   2.0000      -0.813288       -22.1307
  32   2.0000      -0.785705       -21.3801
  33   2.0000      -0.773004       -21.0345
  34   2.0000      -0.712816       -19.3967
  35   2.0000      -0.702110       -19.1054
  36   2.0000      -0.688377       -18.7317
  37   2.0000      -0.655159       -17.8278
  38   2.0000      -0.639769       -17.4090
  39   2.0000      -0.608854       -16.5677
  40   2.0000      -0.592566       -16.1245
  41   2.0000      -0.569173       -15.4880
  42   2.0000      -0.560853       -15.2616
  43   2.0000      -0.556792       -15.1511
  44   2.0000      -0.542287       -14.7564
  45   2.0000      -0.534508       -14.5447
  46   2.0000      -0.515113       -14.0169
  47   2.0000      -0.509881       -13.8746
  48   2.0000      -0.499527       -13.5928
  49   2.0000      -0.491475       -13.3737
  50   2.0000      -0.486177       -13.2295
  51   2.0000      -0.479464       -13.0469
  52   2.0000      -0.468447       -12.7471
  53   2.0000      -0.462946       -12.5974
  54   2.0000      -0.458677       -12.4812
  55   2.0000      -0.446114       -12.1394
  56   2.0000      -0.443425       -12.0662
  57   2.0000      -0.435941       -11.8626
  58   2.0000      -0.430728       -11.7207
  59   2.0000      -0.428717       -11.6660
  60   2.0000      -0.427585       -11.6352
  61   2.0000      -0.417538       -11.3618
  62   2.0000      -0.400933       -10.9099
  63   2.0000      -0.340186        -9.2569
  64   2.0000      -0.329183        -8.9575
  65   2.0000      -0.325059        -8.8453
  66   2.0000      -0.300433        -8.1752
  67   0.0000       0.035064         0.9541
  68   0.0000       0.056202         1.5293
  69   0.0000       0.105157         2.8615
  70   0.0000       0.122409         3.3309
  71   0.0000       0.127281         3.4635

MULLIKEN ATOMIC CHARGES
-----------------------
   0 S :    0.113108
   1 C :   -0.117648
   2 C :   -0.112110
   3 C :    0.016517
   4 C :   -0.166370
   5 H :    0.019417
   6 C :    0.104513
   7 H :    0.023776
   8 H :    0.022012
   9 C :   -0.087010
  10 H :    0.014142
  11 H :    0.009045
  12 C :   -0.067424
  13 H :    0.037724
  14 H :    0.067366
  15 H :    0.046255
  16 S :    0.094769
  17 C :   -0.096759
  18 C :   -0.031955
  19 C :   -0.017197
  20 C :   -0.175778
  21 H :    0.012565
  22 C :    0.054144
  23 H :    0.012251
  24 H :    0.040581
  25 C :   -0.057720
  26 H :    0.036226
  27 H :    0.044256
  28 C :   -0.037959
  29 H :    0.032945
  30 H :    0.036495
  31 H :    0.002439
  32 H :    0.058189
  33 H :    0.069195
Sum of atomic charges:    0.0000000

LOEWDIN ATOMIC CHARGES
----------------------
   0 S :    0.409980
   1 C :   -0.199670
   2 C :   -0.059493
   3 C :   -0.061946
   4 C :   -0.215439
   5 H :    0.031846
   6 C :   -0.031576
   7 H :    0.029714
   8 H :    0.034349
   9 C :   -0.050336
  10 H :    0.025810
  11 H :    0.014967
  12 C :   -0.071564
  13 H :    0.029807
  14 H :    0.037712
  15 H :    0.029516
  16 S :    0.355955
  17 C :   -0.178671
  18 C :   -0.078153
  19 C :   -0.051782
  20 C :   -0.169291
  21 H :    0.031680
  22 C :   -0.035612
  23 H :    0.027775
  24 H :    0.037230
  25 C :   -0.027017
  26 H :    0.031239
  27 H :    0.023058
  28 C :   -0.062323
  29 H :    0.031510
  30 H :    0.018996
  31 H :    0.017036
  32 H :    0.031967
  33 H :    0.042726

  Mayer bond orders larger than 0.100000
B(  0-S ,  1-C ) :   1.1395 B(  0-S ,  4-C ) :   1.1417 B(  1-C ,  2-C ) :   1.6031
B(  1-C , 32-H ) :   0.9631 B(  2-C ,  3-C ) :   1.2273 B(  2-C ,  6-C ) :   1.0402
B(  3-C ,  4-C ) :   1.5810 B(  3-C ,  5-H ) :   0.9918 B(  4-C , 20-C ) :   1.0393
B(  6-C ,  7-H ) :   0.9365 B(  6-C ,  8-H ) :   0.9320 B(  6-C ,  9-C ) :   1.0746
B(  9-C , 10-H ) :   0.9476 B(  9-C , 11-H ) :   0.9511 B(  9-C , 12-C ) :   1.0724
B( 12-C , 13-H ) :   0.9729 B( 12-C , 14-H ) :   0.9668 B( 12-C , 15-H ) :   0.9686
B( 16-S , 17-C ) :   1.1180 B( 16-S , 20-C ) :   1.1207 B( 17-C , 18-C ) :   1.6865
B( 17-C , 33-H ) :   0.9509 B( 18-C , 19-C ) :   1.2032 B( 18-C , 21-H ) :   0.9825
B( 19-C , 20-C ) :   1.6218 B( 19-C , 22-C ) :   1.0508 B( 22-C , 23-H ) :   0.9371
B( 22-C , 24-H ) :   0.9224 B( 22-C , 25-C ) :   1.0738 B( 25-C , 26-H ) :   0.9573
B( 25-C , 27-H ) :   0.9586 B( 25-C , 28-C ) :   1.0601 B( 28-C , 29-H ) :   0.9762
B( 28-C , 30-H ) :   0.9795 B( 28-C , 31-H ) :   0.9731

Dispersion correction           -0.015955868
FINAL SINGLE POINT ENERGY     -1339.863681391076

DIPOLE MOMENT
-------------
                                X             Y             Z
Electronic contribution:     -3.21407     -24.43410      -2.43675
Nuclear contribution   :      3.22622      25.18449       2.31835
                        -----------------------------------------
Total Dipole Moment    :      0.01215       0.75038      -0.11840
                        -----------------------------------------
Magnitude (a.u.)       :      0.75976
Magnitude (Debye)      :      1.93116

Rotational constants in cm-1:     0.019203     0.009426     0.007881
Rotational constants in MHz :   575.677802   282.579989   236.275658

                             ****ORCA TERMINATED NORMALLY****
TOTAL RUN TIME: 0 days 0 hours 0 minutes 30 seconds 183 msec
