                         Program Version 4.2.1 -  RELEASE  -
|  1> ! wB97X-D3 SP def2-SVP
|  2> %pal
|  3> nprocs 16
|  4> end
|  5>
|  6> * xyz 0 1
|  7> S 	 38.0072 	 15.7698 	 78.4294
|  8> C 	 37.6644 	 14.1664 	 77.8765
|  9> C 	 37.9767 	 13.9796 	 76.4652
| 10> C 	 38.5803 	 15.1863 	 75.9708
| 11> C 	 38.6458 	 16.1768 	 76.8764
| 12> H 	 38.9337 	 15.3397 	 74.9803
| 13> C 	 37.5379 	 12.7419 	 75.6434
| 14> H 	 36.5163 	 12.5927 	 76.0185
| 15> H 	 38.1817 	 11.8764 	 76.0438
| 16> C 	 37.6216 	 12.8809 	 74.099
| 17> H 	 37.3021 	 13.9045 	 73.7957
| 18> H 	 38.6492 	 12.7839 	 73.905
| 19> C 	 36.8482 	 11.891 	 73.2512
| 20> H 	 37.1968 	 10.8302 	 73.4397
| 21> H 	 35.7635 	 11.9449 	 73.4891
| 22> H 	 37.1058 	 12.1481 	 72.1736
| 23> S 	 38.5765 	 18.6998 	 75.8127
| 24> C 	 39.8446 	 19.8265 	 76.1394
| 25> C 	 40.6298 	 19.341 	 77.1652
| 26> C 	 40.4123 	 17.9277 	 77.3856
| 27> C 	 39.2689 	 17.4803 	 76.7763
| 28> H 	 41.5303 	 19.9774 	 77.5354
| 29> C 	 41.2351 	 17.006 	 78.2766
| 30> H 	 40.6592 	 16.5103 	 79.0452
| 31> H 	 41.9969 	 17.5611 	 78.8292
| 32> C 	 42.0822 	 15.8753 	 77.6066
| 33> H 	 42.7452 	 16.1887 	 76.8388
| 34> H 	 41.4192 	 15.2193 	 77.07
| 35> C 	 42.9739 	 15.1156 	 78.6732
| 36> H 	 42.3277 	 14.795 	 79.4723
| 37> H 	 43.7563 	 15.7483 	 79.1554
| 38> H 	 43.447 	 14.184 	 78.2332
| 39> H 	 37.0308 	 13.5656 	 78.412
| 40> H 	 39.8181 	 20.8167 	 75.7072
| 41> *
| 42>
| 43>                          ****END OF INPUT****

CARTESIAN COORDINATES (ANGSTROEM)
---------------------------------
  S     38.007200   15.769800   78.429400
  C     37.664400   14.166400   77.876500
  C     37.976700   13.979600   76.465200
  C     38.580300   15.186300   75.970800
  C     38.645800   16.176800   76.876400
  H     38.933700   15.339700   74.980300
  C     37.537900   12.741900   75.643400
  H     36.516300   12.592700   76.018500
  H     38.181700   11.876400   76.043800
  C     37.621600   12.880900   74.099000
  H     37.302100   13.904500   73.795700
  H     38.649200   12.783900   73.905000
  C     36.848200   11.891000   73.251200
  H     37.196800   10.830200   73.439700
  H     35.763500   11.944900   73.489100
  H     37.105800   12.148100   72.173600
  S     38.576500   18.699800   75.812700
  C     39.844600   19.826500   76.139400
  C     40.629800   19.341000   77.165200
  C     40.412300   17.927700   77.385600
  C     39.268900   17.480300   76.776300
  H     41.530300   19.977400   77.535400
  C     41.235100   17.006000   78.276600
  H     40.659200   16.510300   79.045200
  H     41.996900   17.561100   78.829200
  C     42.082200   15.875300   77.606600
  H     42.745200   16.188700   76.838800
  H     41.419200   15.219300   77.070000
  C     42.973900   15.115600   78.673200
  H     42.327700   14.795000   79.472300
  H     43.756300   15.748300   79.155400
  H     43.447000   14.184000   78.233200
  H     37.030800   13.565600   78.412000
  H     39.818100   20.816700   75.707200

 Total Charge           Charge          ....    0
 Multiplicity           Mult            ....    1
 Number of Electrons    NEL             ....  134
 Basis Dimension        Dim             ....  322

ORBITAL ENERGIES
----------------

  NO   OCC          E(Eh)            E(eV)
   0   2.0000     -88.968020     -2420.9429
   1   2.0000     -88.960925     -2420.7498
   2   2.0000     -10.320796      -280.8431
   3   2.0000     -10.315299      -280.6935
   4   2.0000     -10.315111      -280.6884
   5   2.0000     -10.313005      -280.6311
   6   2.0000     -10.311270      -280.5839
   7   2.0000     -10.305200      -280.4188
   8   2.0000     -10.303310      -280.3673
   9   2.0000     -10.301083      -280.3067
  10   2.0000     -10.292845      -280.0825
  11   2.0000     -10.291553      -280.0474
  12   2.0000     -10.289715      -279.9974
  13   2.0000     -10.286504      -279.9100
  14   2.0000     -10.281680      -279.7787
  15   2.0000     -10.278830      -279.7012
  16   2.0000      -8.083019      -219.9501
  17   2.0000      -8.077233      -219.7927
  18   2.0000      -6.041236      -164.3904
  19   2.0000      -6.037451      -164.2874
  20   2.0000      -6.035542      -164.2354
  21   2.0000      -6.034117      -164.1967
  22   2.0000      -6.031431      -164.1236
  23   2.0000      -6.028203      -164.0358
  24   2.0000      -1.014231       -27.5986
  25   2.0000      -0.987076       -26.8597
  26   2.0000      -0.909729       -24.7550
  27   2.0000      -0.897541       -24.4233
  28   2.0000      -0.869450       -23.6589
  29   2.0000      -0.853651       -23.2290
  30   2.0000      -0.842019       -22.9125
  31   2.0000      -0.817368       -22.2417
  32   2.0000      -0.777172       -21.1479
  33   2.0000      -0.765149       -20.8208
  34   2.0000      -0.707968       -19.2648
  35   2.0000      -0.697958       -18.9924
  36   2.0000      -0.684488       -18.6259
  37   2.0000      -0.663092       -18.0436
  38   2.0000      -0.643669       -17.5151
  39   2.0000      -0.620787       -16.8925
  40   2.0000      -0.594734       -16.1835
  41   2.0000      -0.572732       -15.5848
  42   2.0000      -0.560051       -15.2398
  43   2.0000      -0.554228       -15.0813
  44   2.0000      -0.530455       -14.4344
  45   2.0000      -0.516753       -14.0616
  46   2.0000      -0.510048       -13.8791
  47   2.0000      -0.505714       -13.7612
  48   2.0000      -0.501715       -13.6524
  49   2.0000      -0.501282       -13.6406
  50   2.0000      -0.484634       -13.1876
  51   2.0000      -0.477574       -12.9955
  52   2.0000      -0.475169       -12.9300
  53   2.0000      -0.464564       -12.6414
  54   2.0000      -0.456050       -12.4097
  55   2.0000      -0.455303       -12.3894
  56   2.0000      -0.441333       -12.0093
  57   2.0000      -0.434790       -11.8312
  58   2.0000      -0.431111       -11.7311
  59   2.0000      -0.424273       -11.5450
  60   2.0000      -0.423741       -11.5306
  61   2.0000      -0.416519       -11.3341
  62   2.0000      -0.411132       -11.1875
  63   2.0000      -0.341475        -9.2920
  64   2.0000      -0.332195        -9.0395
  65   2.0000      -0.321666        -8.7530
  66   2.0000      -0.299537        -8.1508
  67   0.0000       0.038442         1.0461
  68   0.0000       0.064498         1.7551
  69   0.0000       0.116326         3.1654
  70   0.0000       0.118481         3.2240
  71   0.0000       0.132732         3.6118

MULLIKEN ATOMIC CHARGES
-----------------------
   0 S :    0.131860
   1 C :   -0.092949
   2 C :   -0.121666
   3 C :    0.054537
   4 C :   -0.177342
   5 H :    0.000862
   6 C :    0.038311
   7 H :    0.033958
   8 H :    0.057442
   9 C :   -0.084469
  10 H :    0.040406
  11 H :    0.026211
  12 C :   -0.067080
  13 H :    0.038466
  14 H :    0.047144
  15 H :    0.051829
  16 S :    0.114037
  17 C :   -0.112506
  18 C :   -0.046053
  19 C :   -0.032978
  20 C :   -0.150853
  21 H :    0.056379
  22 C :    0.064760
  23 H :    0.023246
  24 H :    0.006028
  25 C :   -0.051097
  26 H :    0.017103
  27 H :    0.025999
  28 C :   -0.085283
  29 H :    0.025741
  30 H :    0.040340
  31 H :    0.045832
  32 H :    0.017853
  33 H :    0.063931
Sum of atomic charges:   -0.0000000

LOEWDIN ATOMIC CHARGES
----------------------
   0 S :    0.445939
   1 C :   -0.200140
   2 C :   -0.050415
   3 C :   -0.061783
   4 C :   -0.200320
   5 H :    0.029160
   6 C :   -0.039520
   7 H :    0.031760
   8 H :    0.044859
   9 C :   -0.048358
  10 H :    0.029375
  11 H :    0.019837
  12 C :   -0.069897
  13 H :    0.029027
  14 H :    0.028962
  15 H :    0.038294
  16 S :    0.432835
  17 C :   -0.195024
  18 C :   -0.080233
  19 C :   -0.062592
  20 C :   -0.224680
  21 H :    0.048449
  22 C :   -0.035912
  23 H :    0.019910
  24 H :    0.026846
  25 C :   -0.033655
  26 H :    0.016592
  27 H :    0.019782
  28 C :   -0.071328
  29 H :    0.019511
  30 H :    0.027285
  31 H :    0.033782
  32 H :    0.002708
  33 H :    0.028946

  Mayer bond orders larger than 0.100000
B(  0-S ,  1-C ) :   1.1695 B(  0-S ,  4-C ) :   1.1778 B(  1-C ,  2-C ) :   1.5744
B(  1-C ,  4-C ) :   0.1094 B(  1-C , 32-H ) :   0.9802 B(  2-C ,  3-C ) :   1.2554
B(  2-C ,  6-C ) :   0.9918 B(  3-C ,  4-C ) :   1.5857 B(  3-C ,  5-H ) :   0.9987
B(  4-C , 20-C ) :   0.9797 B(  6-C ,  7-H ) :   0.9469 B(  6-C ,  8-H ) :   0.9363
B(  6-C ,  9-C ) :   1.0688 B(  9-C , 10-H ) :   0.9551 B(  9-C , 11-H ) :   0.9482
B(  9-C , 12-C ) :   1.0906 B( 12-C , 13-H ) :   0.9729 B( 12-C , 14-H ) :   0.9749
B( 12-C , 15-H ) :   0.9715 B( 16-S , 17-C ) :   1.1715 B( 16-S , 20-C ) :   1.1642
B( 17-C , 18-C ) :   1.5913 B( 17-C , 33-H ) :   0.9700 B( 18-C , 19-C ) :   1.2556
B( 18-C , 21-H ) :   0.9704 B( 19-C , 20-C ) :   1.5908 B( 19-C , 22-C ) :   1.0507
B( 22-C , 23-H ) :   0.9323 B( 22-C , 24-H ) :   0.9357 B( 22-C , 25-C ) :   1.0528
B( 25-C , 26-H ) :   0.9559 B( 25-C , 27-H ) :   0.9562 B( 25-C , 28-C ) :   1.0736
B( 28-C , 29-H ) :   0.9773 B( 28-C , 30-H ) :   0.9762 B( 28-C , 31-H ) :   0.9751

Dispersion correction           -0.014478891
FINAL SINGLE POINT ENERGY     -1339.872960289015

DIPOLE MOMENT
-------------
                                X             Y             Z
Electronic contribution:     -9.47409      20.66524       5.94507
Nuclear contribution   :      9.57268     -20.99804      -6.17077
                        -----------------------------------------
Total Dipole Moment    :      0.09859      -0.33280      -0.22570
                        -----------------------------------------
Magnitude (a.u.)       :      0.41402
Magnitude (Debye)      :      1.05236

Rotational constants in cm-1:     0.017947     0.008466     0.007164
Rotational constants in MHz :   538.030596   253.805554   214.757992

                             ****ORCA TERMINATED NORMALLY****
TOTAL RUN TIME: 0 days 0 hours 0 minutes 29 seconds 591 msec
