                         Program Version 4.2.1 -  RELEASE  -
|  1> ! wB97X-D3 SP def2-SVP
|  2> %pal
|  3> nprocs 16
|  4> end
|  5>
|  6> * xyz 0 1
|  7> S 	 -8.88303 	 51.4969 	 44.3702
|  8> C 	 -10.5061 	 51.4773 	 43.6632
|  9> C 	 -11.0792 	 50.2298 	 43.5504
| 10> C 	 -10.1708 	 49.2728 	 44.1427
| 11> C 	 -9.02851 	 49.8147 	 44.7797
| 12> H 	 -10.5337 	 48.3153 	 44.3433
| 13> C 	 -12.5037 	 49.9081 	 43.0164
| 14> H 	 -12.5401 	 48.9684 	 42.4016
| 15> H 	 -12.8431 	 50.7123 	 42.4195
| 16> C 	 -13.499 	 49.7211 	 44.202
| 17> H 	 -14.2272 	 49.0481 	 43.8433
| 18> H 	 -12.8984 	 49.2062 	 45.0336
| 19> C 	 -14.1185 	 51.0049 	 44.7655
| 20> H 	 -13.4416 	 51.7793 	 45.1386
| 21> H 	 -14.8161 	 51.5098 	 44.0978
| 22> H 	 -14.6589 	 50.6691 	 45.7614
| 23> S 	 -6.48684 	 48.9224 	 45.2394
| 24> C 	 -6.12371 	 48.0773 	 46.7158
| 25> C 	 -7.2852 	 47.9164 	 47.442
| 26> C 	 -8.47245 	 48.2952 	 46.8116
| 27> C 	 -8.15744 	 48.9982 	 45.6265
| 28> H 	 -7.01597 	 47.6828 	 48.467
| 29> C 	 -9.79553 	 48.313 	 47.4494
| 30> H 	 -9.94241 	 47.3471 	 48.0062
| 31> H 	 -10.4886 	 48.1341 	 46.6495
| 32> C 	 -10.1008 	 49.4744 	 48.4136
| 33> H 	 -10.1984 	 50.3207 	 47.7595
| 34> H 	 -9.25178 	 49.6103 	 49.1097
| 35> C 	 -11.4135 	 49.2398 	 49.1751
| 36> H 	 -11.1466 	 48.6813 	 50.2004
| 37> H 	 -12.0962 	 48.5831 	 48.6849
| 38> H 	 -11.9696 	 50.182 	 49.2375
| 39> H 	 -10.9668 	 52.3619 	 43.3203
| 40> H 	 -5.17159 	 47.7838 	 47.0999
| 41> *
| 42>
| 43>                          ****END OF INPUT****

CARTESIAN COORDINATES (ANGSTROEM)
---------------------------------
  S     -8.883030   51.496900   44.370200
  C    -10.506100   51.477300   43.663200
  C    -11.079200   50.229800   43.550400
  C    -10.170800   49.272800   44.142700
  C     -9.028510   49.814700   44.779700
  H    -10.533700   48.315300   44.343300
  C    -12.503700   49.908100   43.016400
  H    -12.540100   48.968400   42.401600
  H    -12.843100   50.712300   42.419500
  C    -13.499000   49.721100   44.202000
  H    -14.227200   49.048100   43.843300
  H    -12.898400   49.206200   45.033600
  C    -14.118500   51.004900   44.765500
  H    -13.441600   51.779300   45.138600
  H    -14.816100   51.509800   44.097800
  H    -14.658900   50.669100   45.761400
  S     -6.486840   48.922400   45.239400
  C     -6.123710   48.077300   46.715800
  C     -7.285200   47.916400   47.442000
  C     -8.472450   48.295200   46.811600
  C     -8.157440   48.998200   45.626500
  H     -7.015970   47.682800   48.467000
  C     -9.795530   48.313000   47.449400
  H     -9.942410   47.347100   48.006200
  H    -10.488600   48.134100   46.649500
  C    -10.100800   49.474400   48.413600
  H    -10.198400   50.320700   47.759500
  H     -9.251780   49.610300   49.109700
  C    -11.413500   49.239800   49.175100
  H    -11.146600   48.681300   50.200400
  H    -12.096200   48.583100   48.684900
  H    -11.969600   50.182000   49.237500
  H    -10.966800   52.361900   43.320300
  H     -5.171590   47.783800   47.099900

 Total Charge           Charge          ....    0
 Multiplicity           Mult            ....    1
 Number of Electrons    NEL             ....  134
 Basis Dimension        Dim             ....  322

ORBITAL ENERGIES
----------------

  NO   OCC          E(Eh)            E(eV)
   0   2.0000     -88.971019     -2421.0245
   1   2.0000     -88.965271     -2420.8681
   2   2.0000     -10.332338      -281.1572
   3   2.0000     -10.326092      -280.9872
   4   2.0000     -10.312567      -280.6192
   5   2.0000     -10.309609      -280.5387
   6   2.0000     -10.304986      -280.4129
   7   2.0000     -10.300848      -280.3003
   8   2.0000     -10.299939      -280.2756
   9   2.0000     -10.294565      -280.1294
  10   2.0000     -10.291665      -280.0504
  11   2.0000     -10.290268      -280.0124
  12   2.0000     -10.287682      -279.9420
  13   2.0000     -10.286258      -279.9033
  14   2.0000     -10.286149      -279.9003
  15   2.0000     -10.285749      -279.8895
  16   2.0000      -8.085332      -220.0131
  17   2.0000      -8.080602      -219.8844
  18   2.0000      -6.043905      -164.4630
  19   2.0000      -6.039966      -164.3558
  20   2.0000      -6.038885      -164.3264
  21   2.0000      -6.035987      -164.2476
  22   2.0000      -6.034916      -164.2184
  23   2.0000      -6.031685      -164.1305
  24   2.0000      -1.008443       -27.4411
  25   2.0000      -0.984304       -26.7843
  26   2.0000      -0.911250       -24.7964
  27   2.0000      -0.909571       -24.7507
  28   2.0000      -0.867988       -23.6192
  29   2.0000      -0.852827       -23.2066
  30   2.0000      -0.845058       -22.9952
  31   2.0000      -0.811366       -22.0784
  32   2.0000      -0.784812       -21.3558
  33   2.0000      -0.770681       -20.9713
  34   2.0000      -0.710051       -19.3215
  35   2.0000      -0.698852       -19.0167
  36   2.0000      -0.694783       -18.9060
  37   2.0000      -0.656311       -17.8591
  38   2.0000      -0.639684       -17.4067
  39   2.0000      -0.625240       -17.0136
  40   2.0000      -0.594657       -16.1814
  41   2.0000      -0.574051       -15.6207
  42   2.0000      -0.564626       -15.3642
  43   2.0000      -0.543622       -14.7927
  44   2.0000      -0.539681       -14.6855
  45   2.0000      -0.525823       -14.3084
  46   2.0000      -0.519690       -14.1415
  47   2.0000      -0.515625       -14.0309
  48   2.0000      -0.499920       -13.6035
  49   2.0000      -0.496545       -13.5117
  50   2.0000      -0.490751       -13.3540
  51   2.0000      -0.482279       -13.1235
  52   2.0000      -0.468263       -12.7421
  53   2.0000      -0.467365       -12.7176
  54   2.0000      -0.457528       -12.4500
  55   2.0000      -0.445634       -12.1263
  56   2.0000      -0.442083       -12.0297
  57   2.0000      -0.434147       -11.8137
  58   2.0000      -0.430632       -11.7181
  59   2.0000      -0.426409       -11.6032
  60   2.0000      -0.423610       -11.5270
  61   2.0000      -0.420103       -11.4316
  62   2.0000      -0.409951       -11.1553
  63   2.0000      -0.340119        -9.2551
  64   2.0000      -0.332967        -9.0605
  65   2.0000      -0.329860        -8.9760
  66   2.0000      -0.290455        -7.9037
  67   0.0000       0.029824         0.8115
  68   0.0000       0.067299         1.8313
  69   0.0000       0.113459         3.0874
  70   0.0000       0.118062         3.2126
  71   0.0000       0.124672         3.3925

MULLIKEN ATOMIC CHARGES
-----------------------
   0 S :    0.126453
   1 C :   -0.120391
   2 C :   -0.092416
   3 C :    0.057122
   4 C :   -0.155515
   5 H :   -0.008167
   6 C :    0.078456
   7 H :    0.043898
   8 H :    0.013196
   9 C :   -0.072603
  10 H :    0.026340
  11 H :    0.040200
  12 C :   -0.086027
  13 H :    0.038381
  14 H :    0.039681
  15 H :    0.045477
  16 S :    0.120060
  17 C :   -0.100179
  18 C :   -0.060669
  19 C :   -0.008135
  20 C :   -0.182137
  21 H :    0.021516
  22 C :    0.064367
  23 H :    0.014928
  24 H :   -0.002121
  25 C :   -0.030935
  26 H :    0.030205
  27 H :    0.038100
  28 C :   -0.066076
  29 H :    0.053426
  30 H :    0.021411
  31 H :    0.041927
  32 H :    0.026617
  33 H :    0.043609
Sum of atomic charges:   -0.0000000

LOEWDIN ATOMIC CHARGES
----------------------
   0 S :    0.405161
   1 C :   -0.185114
   2 C :   -0.057826
   3 C :   -0.054176
   4 C :   -0.203969
   5 H :    0.013407
   6 C :   -0.025521
   7 H :    0.039438
   8 H :    0.022082
   9 C :   -0.041219
  10 H :    0.018700
  11 H :    0.032899
  12 C :   -0.077102
  13 H :    0.025513
  14 H :    0.022791
  15 H :    0.041412
  16 S :    0.428788
  17 C :   -0.195580
  18 C :   -0.072332
  19 C :   -0.060401
  20 C :   -0.203971
  21 H :    0.034982
  22 C :   -0.042550
  23 H :    0.032580
  24 H :    0.024644
  25 C :   -0.033758
  26 H :    0.024180
  27 H :    0.029899
  28 C :   -0.073405
  29 H :    0.042939
  30 H :    0.017006
  31 H :    0.030616
  32 H :    0.014524
  33 H :    0.025364

  Mayer bond orders larger than 0.100000
B(  0-S ,  1-C ) :   1.1352 B(  0-S ,  4-C ) :   1.1438 B(  1-C ,  2-C ) :   1.6232
B(  1-C , 32-H ) :   0.9679 B(  2-C ,  3-C ) :   1.2498 B(  2-C ,  6-C ) :   1.0275
B(  3-C ,  4-C ) :   1.5608 B(  3-C ,  5-H ) :   0.9876 B(  4-C , 20-C ) :   1.0505
B(  6-C ,  7-H ) :   0.9462 B(  6-C ,  8-H ) :   0.9421 B(  6-C ,  9-C ) :   1.0518
B(  9-C , 10-H ) :   0.9563 B(  9-C , 11-H ) :   0.9606 B(  9-C , 12-C ) :   1.0749
B( 12-C , 13-H ) :   0.9750 B( 12-C , 14-H ) :   0.9757 B( 12-C , 15-H ) :   0.9725
B( 16-S , 17-C ) :   1.1503 B( 16-S , 20-C ) :   1.1830 B( 17-C , 18-C ) :   1.6128
B( 17-C , 20-C ) :   0.1062 B( 17-C , 33-H ) :   0.9700 B( 18-C , 19-C ) :   1.2486
B( 18-C , 21-H ) :   0.9894 B( 19-C , 20-C ) :   1.5312 B( 19-C , 22-C ) :   1.0718
B( 22-C , 23-H ) :   0.9221 B( 22-C , 24-H ) :   0.9097 B( 22-C , 25-C ) :   1.0541
B( 25-C , 26-H ) :   0.9564 B( 25-C , 27-H ) :   0.9601 B( 25-C , 28-C ) :   1.0692
B( 28-C , 29-H ) :   0.9745 B( 28-C , 30-H ) :   0.9760 B( 28-C , 31-H ) :   0.9750

Dispersion correction           -0.015221768
FINAL SINGLE POINT ENERGY     -1339.856618963942

DIPOLE MOMENT
-------------
                                X             Y             Z
Electronic contribution:     28.71370       2.10557     -11.48395
Nuclear contribution   :    -29.36091      -2.17532      11.75788
                        -----------------------------------------
Total Dipole Moment    :     -0.64721      -0.06974       0.27393
                        -----------------------------------------
Magnitude (a.u.)       :      0.70625
Magnitude (Debye)      :      1.79513

Rotational constants in cm-1:     0.018704     0.009672     0.007310
Rotational constants in MHz :   560.746074   289.973569   219.159914

                             ****ORCA TERMINATED NORMALLY****
TOTAL RUN TIME: 0 days 0 hours 0 minutes 35 seconds 128 msec
