                         Program Version 4.2.1 -  RELEASE  -
|  1> ! wB97X-D3 SP def2-SVP
|  2> %pal
|  3> nprocs 16
|  4> end
|  5>
|  6> * xyz 0 1
|  7> S 	 -11.5772 	 58.3258 	 57.2558
|  8> C 	 -11.6222 	 57.8021 	 55.5179
|  9> C 	 -11.6967 	 58.9322 	 54.7297
| 10> C 	 -11.8246 	 60.2013 	 55.5122
| 11> C 	 -11.9548 	 59.9957 	 56.8557
| 12> H 	 -11.7874 	 61.1764 	 55.0411
| 13> C 	 -11.6243 	 58.9649 	 53.2597
| 14> H 	 -12.5842 	 58.8492 	 52.7446
| 15> H 	 -11.1821 	 58.0985 	 52.991
| 16> C 	 -10.8788 	 60.1968 	 52.5671
| 17> H 	 -10.6476 	 59.8351 	 51.5732
| 18> H 	 -11.4417 	 61.1331 	 52.4392
| 19> C 	 -9.56629 	 60.4593 	 53.1563
| 20> H 	 -8.87148 	 59.6737 	 52.9294
| 21> H 	 -9.18087 	 61.3858 	 52.7386
| 22> H 	 -9.59955 	 60.6322 	 54.2315
| 23> S 	 -11.0864 	 60.8956 	 59.3063
| 24> C 	 -11.877 	 62.3598 	 59.9738
| 25> C 	 -13.0253 	 62.6959 	 59.2438
| 26> C 	 -13.1713 	 61.8388 	 58.1126
| 27> C 	 -12.1528 	 60.9542 	 57.9106
| 28> H 	 -13.7098 	 63.4899 	 59.5517
| 29> C 	 -14.3738 	 62.0467 	 57.2103
| 30> H 	 -15.2008 	 61.553 	 57.6818
| 31> H 	 -14.0678 	 61.5509 	 56.3029
| 32> C 	 -14.6724 	 63.5639 	 56.9234
| 33> H 	 -15.0793 	 63.963 	 57.8131
| 34> H 	 -15.5352 	 63.6616 	 56.1685
| 35> C 	 -13.4063 	 64.3376 	 56.4463
| 36> H 	 -12.7381 	 64.5501 	 57.2878
| 37> H 	 -13.6137 	 65.2955 	 55.9696
| 38> H 	 -12.9903 	 63.6887 	 55.6728
| 39> H 	 -11.497 	 56.8436 	 55.2137
| 40> H 	 -11.6775 	 62.6595 	 61.0102
| 41> *
| 42>
| 43>                          ****END OF INPUT****

CARTESIAN COORDINATES (ANGSTROEM)
---------------------------------
  S    -11.577200   58.325800   57.255800
  C    -11.622200   57.802100   55.517900
  C    -11.696700   58.932200   54.729700
  C    -11.824600   60.201300   55.512200
  C    -11.954800   59.995700   56.855700
  H    -11.787400   61.176400   55.041100
  C    -11.624300   58.964900   53.259700
  H    -12.584200   58.849200   52.744600
  H    -11.182100   58.098500   52.991000
  C    -10.878800   60.196800   52.567100
  H    -10.647600   59.835100   51.573200
  H    -11.441700   61.133100   52.439200
  C     -9.566290   60.459300   53.156300
  H     -8.871480   59.673700   52.929400
  H     -9.180870   61.385800   52.738600
  H     -9.599550   60.632200   54.231500
  S    -11.086400   60.895600   59.306300
  C    -11.877000   62.359800   59.973800
  C    -13.025300   62.695900   59.243800
  C    -13.171300   61.838800   58.112600
  C    -12.152800   60.954200   57.910600
  H    -13.709800   63.489900   59.551700
  C    -14.373800   62.046700   57.210300
  H    -15.200800   61.553000   57.681800
  H    -14.067800   61.550900   56.302900
  C    -14.672400   63.563900   56.923400
  H    -15.079300   63.963000   57.813100
  H    -15.535200   63.661600   56.168500
  C    -13.406300   64.337600   56.446300
  H    -12.738100   64.550100   57.287800
  H    -13.613700   65.295500   55.969600
  H    -12.990300   63.688700   55.672800
  H    -11.497000   56.843600   55.213700
  H    -11.677500   62.659500   61.010200

 Total Charge           Charge          ....    0
 Multiplicity           Mult            ....    1
 Number of Electrons    NEL             ....  134
 Basis Dimension        Dim             ....  322

ORBITAL ENERGIES
----------------

  NO   OCC          E(Eh)            E(eV)
   0   2.0000     -88.965128     -2420.8642
   1   2.0000     -88.960259     -2420.7317
   2   2.0000     -10.330734      -281.1136
   3   2.0000     -10.325151      -280.9616
   4   2.0000     -10.323744      -280.9234
   5   2.0000     -10.313350      -280.6405
   6   2.0000     -10.306136      -280.4442
   7   2.0000     -10.300109      -280.2802
   8   2.0000     -10.299609      -280.2666
   9   2.0000     -10.297973      -280.2221
  10   2.0000     -10.293102      -280.0896
  11   2.0000     -10.287489      -279.9368
  12   2.0000     -10.287149      -279.9276
  13   2.0000     -10.284583      -279.8577
  14   2.0000     -10.279572      -279.7214
  15   2.0000     -10.266566      -279.3675
  16   2.0000      -8.079291      -219.8487
  17   2.0000      -8.074364      -219.7146
  18   2.0000      -6.037860      -164.2985
  19   2.0000      -6.034030      -164.1943
  20   2.0000      -6.033220      -164.1723
  21   2.0000      -6.029861      -164.0809
  22   2.0000      -6.029101      -164.0602
  23   2.0000      -6.024648      -163.9390
  24   2.0000      -1.004683       -27.3388
  25   2.0000      -0.977233       -26.5919
  26   2.0000      -0.917117       -24.9560
  27   2.0000      -0.904924       -24.6242
  28   2.0000      -0.874787       -23.8042
  29   2.0000      -0.844955       -22.9924
  30   2.0000      -0.839532       -22.8448
  31   2.0000      -0.819565       -22.3015
  32   2.0000      -0.784167       -21.3383
  33   2.0000      -0.773686       -21.0531
  34   2.0000      -0.709551       -19.3079
  35   2.0000      -0.699013       -19.0211
  36   2.0000      -0.697937       -18.9918
  37   2.0000      -0.660811       -17.9816
  38   2.0000      -0.645404       -17.5623
  39   2.0000      -0.624994       -17.0069
  40   2.0000      -0.590994       -16.0818
  41   2.0000      -0.566513       -15.4156
  42   2.0000      -0.561312       -15.2741
  43   2.0000      -0.557468       -15.1695
  44   2.0000      -0.537769       -14.6335
  45   2.0000      -0.535121       -14.5614
  46   2.0000      -0.526478       -14.3262
  47   2.0000      -0.521899       -14.2016
  48   2.0000      -0.508352       -13.8330
  49   2.0000      -0.497465       -13.5367
  50   2.0000      -0.489315       -13.3149
  51   2.0000      -0.475566       -12.9408
  52   2.0000      -0.467251       -12.7145
  53   2.0000      -0.464726       -12.6458
  54   2.0000      -0.456920       -12.4334
  55   2.0000      -0.446327       -12.1452
  56   2.0000      -0.442233       -12.0338
  57   2.0000      -0.438951       -11.9445
  58   2.0000      -0.431873       -11.7519
  59   2.0000      -0.424777       -11.5588
  60   2.0000      -0.421942       -11.4816
  61   2.0000      -0.412843       -11.2340
  62   2.0000      -0.408354       -11.1119
  63   2.0000      -0.347158        -9.4466
  64   2.0000      -0.331098        -9.0096
  65   2.0000      -0.321077        -8.7370
  66   2.0000      -0.294873        -8.0239
  67   0.0000       0.026942         0.7331
  68   0.0000       0.063887         1.7385
  69   0.0000       0.097978         2.6661
  70   0.0000       0.115523         3.1435
  71   0.0000       0.130563         3.5528

MULLIKEN ATOMIC CHARGES
-----------------------
   0 S :    0.074288
   1 C :   -0.078565
   2 C :   -0.121043
   3 C :    0.035492
   4 C :   -0.137385
   5 H :    0.023629
   6 C :    0.138798
   7 H :    0.040117
   8 H :   -0.025299
   9 C :   -0.102583
  10 H :    0.024672
  11 H :    0.039831
  12 C :   -0.036754
  13 H :    0.027180
  14 H :    0.023228
  15 H :    0.037786
  16 S :    0.090354
  17 C :   -0.096498
  18 C :   -0.038329
  19 C :   -0.085752
  20 C :   -0.140531
  21 H :    0.033115
  22 C :    0.125344
  23 H :    0.042020
  24 H :    0.014488
  25 C :   -0.116502
  26 H :    0.016153
  27 H :    0.042374
  28 C :   -0.037942
  29 H :    0.048181
  30 H :    0.034609
  31 H :    0.029043
  32 H :    0.006557
  33 H :    0.069924
Sum of atomic charges:   -0.0000000

LOEWDIN ATOMIC CHARGES
----------------------
   0 S :    0.361223
   1 C :   -0.159135
   2 C :   -0.049892
   3 C :   -0.063993
   4 C :   -0.178959
   5 H :    0.030425
   6 C :   -0.031987
   7 H :    0.039877
   8 H :    0.015509
   9 C :   -0.042066
  10 H :    0.029048
  11 H :    0.024800
  12 C :   -0.065741
  13 H :    0.023909
  14 H :    0.027174
  15 H :    0.024895
  16 S :    0.381783
  17 C :   -0.170287
  18 C :   -0.067583
  19 C :   -0.054436
  20 C :   -0.200548
  21 H :    0.036600
  22 C :   -0.024075
  23 H :    0.034347
  24 H :    0.025019
  25 C :   -0.041868
  26 H :    0.008626
  27 H :    0.032769
  28 C :   -0.065874
  29 H :    0.030189
  30 H :    0.025954
  31 H :    0.026039
  32 H :    0.007241
  33 H :    0.031015

  Mayer bond orders larger than 0.100000
B(  0-S ,  1-C ) :   1.0948 B(  0-S ,  4-C ) :   1.1270 B(  1-C ,  2-C ) :   1.6472
B(  1-C , 32-H ) :   0.9884 B(  2-C ,  3-C ) :   1.1765 B(  2-C ,  6-C ) :   1.0414
B(  3-C ,  4-C ) :   1.6152 B(  3-C ,  5-H ) :   0.9878 B(  4-C , 20-C ) :   1.0441
B(  6-C ,  7-H ) :   0.9246 B(  6-C ,  8-H ) :   0.9193 B(  6-C ,  9-C ) :   1.0663
B(  9-C , 10-H ) :   0.9522 B(  9-C , 11-H ) :   0.9563 B(  9-C , 12-C ) :   1.0935
B( 12-C , 13-H ) :   0.9744 B( 12-C , 14-H ) :   0.9677 B( 12-C , 15-H ) :   0.9686
B( 16-S , 17-C ) :   1.1500 B( 16-S , 20-C ) :   1.1166 B( 17-C , 18-C ) :   1.6019
B( 17-C , 33-H ) :   0.9624 B( 18-C , 19-C ) :   1.2340 B( 18-C , 21-H ) :   0.9868
B( 19-C , 20-C ) :   1.6243 B( 19-C , 22-C ) :   1.0243 B( 22-C , 23-H ) :   0.9305
B( 22-C , 24-H ) :   0.9317 B( 22-C , 25-C ) :   1.0665 B( 25-C , 26-H ) :   0.9527
B( 25-C , 27-H ) :   0.9591 B( 25-C , 28-C ) :   1.0691 B( 28-C , 29-H ) :   0.9676
B( 28-C , 30-H ) :   0.9740 B( 28-C , 31-H ) :   0.9775

Dispersion correction           -0.015088113
FINAL SINGLE POINT ENERGY     -1339.860235497004

DIPOLE MOMENT
-------------
                                X             Y             Z
Electronic contribution:      4.21473     -14.17741      21.45506
Nuclear contribution   :     -4.51729      14.52428     -21.98243
                        -----------------------------------------
Total Dipole Moment    :     -0.30257       0.34687      -0.52738
                        -----------------------------------------
Magnitude (a.u.)       :      0.69999
Magnitude (Debye)      :      1.77924

Rotational constants in cm-1:     0.018666     0.009534     0.007502
Rotational constants in MHz :   559.585146   285.833352   224.894823

                             ****ORCA TERMINATED NORMALLY****
TOTAL RUN TIME: 0 days 0 hours 0 minutes 33 seconds 365 msec
