                         Program Version 4.2.1 -  RELEASE  -
|  1> ! wB97X-D3 SP def2-SVP
|  2> %pal
|  3> nprocs 16
|  4> end
|  5>
|  6> * xyz 0 1
|  7> S 	 -63.7825 	 60.2552 	 125.183
|  8> C 	 -62.6739 	 61.5984 	 124.892
|  9> C 	 -63.2895 	 62.7471 	 124.486
| 10> C 	 -64.697 	 62.511 	 124.374
| 11> C 	 -65.1333 	 61.2725 	 124.773
| 12> H 	 -65.3797 	 63.2547 	 124.053
| 13> C 	 -62.5792 	 63.9861 	 123.903
| 14> H 	 -63.1666 	 64.3128 	 123.016
| 15> H 	 -61.5885 	 63.7711 	 123.481
| 16> C 	 -62.4545 	 65.1943 	 124.826
| 17> H 	 -63.3978 	 65.3603 	 125.335
| 18> H 	 -61.8982 	 64.9114 	 125.707
| 19> C 	 -61.7374 	 66.5129 	 124.359
| 20> H 	 -62.469 	 67.0722 	 123.739
| 21> H 	 -61.5758 	 67.1393 	 125.209
| 22> H 	 -60.7922 	 66.3509 	 123.882
| 23> S 	 -67.2707 	 60.7779 	 126.292
| 24> C 	 -68.7617 	 60.1299 	 125.769
| 25> C 	 -68.5432 	 59.6575 	 124.517
| 26> C 	 -67.3823 	 60.2305 	 123.88
| 27> C 	 -66.4988 	 60.7675 	 124.779
| 28> H 	 -69.2307 	 59.0046 	 123.972
| 29> C 	 -66.9985 	 59.8287 	 122.473
| 30> H 	 -66.0696 	 60.3772 	 122.257
| 31> H 	 -67.7767 	 60.1685 	 121.745
| 32> C 	 -66.6991 	 58.3052 	 122.303
| 33> H 	 -67.63 	 57.7329 	 122.649
| 34> H 	 -65.9158 	 58.0666 	 123.017
| 35> C 	 -66.2977 	 57.9827 	 120.89
| 36> H 	 -67.0735 	 58.143 	 120.115
| 37> H 	 -65.9428 	 56.9269 	 120.824
| 38> H 	 -65.4405 	 58.4931 	 120.488
| 39> H 	 -61.6104 	 61.5005 	 125.005
| 40> H 	 -69.5751 	 59.8165 	 126.434
| 41> *
| 42>
| 43>                          ****END OF INPUT****

CARTESIAN COORDINATES (ANGSTROEM)
---------------------------------
  S    -63.782500   60.255200  125.183000
  C    -62.673900   61.598400  124.892000
  C    -63.289500   62.747100  124.486000
  C    -64.697000   62.511000  124.374000
  C    -65.133300   61.272500  124.773000
  H    -65.379700   63.254700  124.053000
  C    -62.579200   63.986100  123.903000
  H    -63.166600   64.312800  123.016000
  H    -61.588500   63.771100  123.481000
  C    -62.454500   65.194300  124.826000
  H    -63.397800   65.360300  125.335000
  H    -61.898200   64.911400  125.707000
  C    -61.737400   66.512900  124.359000
  H    -62.469000   67.072200  123.739000
  H    -61.575800   67.139300  125.209000
  H    -60.792200   66.350900  123.882000
  S    -67.270700   60.777900  126.292000
  C    -68.761700   60.129900  125.769000
  C    -68.543200   59.657500  124.517000
  C    -67.382300   60.230500  123.880000
  C    -66.498800   60.767500  124.779000
  H    -69.230700   59.004600  123.972000
  C    -66.998500   59.828700  122.473000
  H    -66.069600   60.377200  122.257000
  H    -67.776700   60.168500  121.745000
  C    -66.699100   58.305200  122.303000
  H    -67.630000   57.732900  122.649000
  H    -65.915800   58.066600  123.017000
  C    -66.297700   57.982700  120.890000
  H    -67.073500   58.143000  120.115000
  H    -65.942800   56.926900  120.824000
  H    -65.440500   58.493100  120.488000
  H    -61.610400   61.500500  125.005000
  H    -69.575100   59.816500  126.434000

 Total Charge           Charge          ....    0
 Multiplicity           Mult            ....    1
 Number of Electrons    NEL             ....  134
 Basis Dimension        Dim             ....  322

ORBITAL ENERGIES
----------------

  NO   OCC          E(Eh)            E(eV)
   0   2.0000     -88.969412     -2420.9808
   1   2.0000     -88.954807     -2420.5834
   2   2.0000     -10.329463      -281.0790
   3   2.0000     -10.320319      -280.8301
   4   2.0000     -10.316257      -280.7196
   5   2.0000     -10.312746      -280.6241
   6   2.0000     -10.304361      -280.3959
   7   2.0000     -10.300713      -280.2966
   8   2.0000     -10.297564      -280.2110
   9   2.0000     -10.293465      -280.0994
  10   2.0000     -10.291151      -280.0365
  11   2.0000     -10.291058      -280.0339
  12   2.0000     -10.289014      -279.9783
  13   2.0000     -10.284255      -279.8488
  14   2.0000     -10.282193      -279.7927
  15   2.0000     -10.277716      -279.6709
  16   2.0000      -8.084088      -219.9792
  17   2.0000      -8.071928      -219.6483
  18   2.0000      -6.042612      -164.4278
  19   2.0000      -6.038653      -164.3201
  20   2.0000      -6.034781      -164.2147
  21   2.0000      -6.030382      -164.0950
  22   2.0000      -6.025945      -163.9743
  23   2.0000      -6.022702      -163.8861
  24   2.0000      -1.017360       -27.6838
  25   2.0000      -0.992608       -27.0102
  26   2.0000      -0.908412       -24.7191
  27   2.0000      -0.905292       -24.6343
  28   2.0000      -0.874159       -23.7871
  29   2.0000      -0.849549       -23.1174
  30   2.0000      -0.846341       -23.0301
  31   2.0000      -0.818325       -22.2677
  32   2.0000      -0.785848       -21.3840
  33   2.0000      -0.769106       -20.9284
  34   2.0000      -0.705826       -19.2065
  35   2.0000      -0.700215       -19.0538
  36   2.0000      -0.695627       -18.9290
  37   2.0000      -0.659750       -17.9527
  38   2.0000      -0.648458       -17.6455
  39   2.0000      -0.623753       -16.9732
  40   2.0000      -0.595623       -16.2077
  41   2.0000      -0.571724       -15.5574
  42   2.0000      -0.559024       -15.2118
  43   2.0000      -0.555208       -15.1080
  44   2.0000      -0.526074       -14.3152
  45   2.0000      -0.521170       -14.1817
  46   2.0000      -0.516866       -14.0646
  47   2.0000      -0.510418       -13.8892
  48   2.0000      -0.506682       -13.7875
  49   2.0000      -0.501317       -13.6415
  50   2.0000      -0.500403       -13.6166
  51   2.0000      -0.478641       -13.0245
  52   2.0000      -0.473651       -12.8887
  53   2.0000      -0.468350       -12.7444
  54   2.0000      -0.461651       -12.5622
  55   2.0000      -0.451771       -12.2933
  56   2.0000      -0.444399       -12.0927
  57   2.0000      -0.438913       -11.9434
  58   2.0000      -0.432695       -11.7742
  59   2.0000      -0.429305       -11.6820
  60   2.0000      -0.414592       -11.2816
  61   2.0000      -0.407976       -11.1016
  62   2.0000      -0.403638       -10.9835
  63   2.0000      -0.337771        -9.1912
  64   2.0000      -0.331695        -9.0259
  65   2.0000      -0.319456        -8.6928
  66   2.0000      -0.315464        -8.5842
  67   0.0000       0.048624         1.3231
  68   0.0000       0.057350         1.5606
  69   0.0000       0.107695         2.9305
  70   0.0000       0.116815         3.1787
  71   0.0000       0.132886         3.6160

MULLIKEN ATOMIC CHARGES
-----------------------
   0 S :    0.121375
   1 C :   -0.125983
   2 C :   -0.049312
   3 C :    0.061537
   4 C :   -0.162552
   5 H :   -0.001428
   6 C :    0.063390
   7 H :    0.029905
   8 H :    0.021806
   9 C :   -0.094254
  10 H :    0.017628
  11 H :    0.011764
  12 C :   -0.025465
  13 H :    0.036086
  14 H :    0.029999
  15 H :    0.035934
  16 S :    0.098783
  17 C :   -0.081065
  18 C :   -0.052307
  19 C :   -0.044048
  20 C :   -0.156470
  21 H :    0.026471
  22 C :    0.024983
  23 H :    0.027637
  24 H :    0.031738
  25 C :   -0.077356
  26 H :    0.036393
  27 H :    0.030085
  28 C :   -0.038231
  29 H :    0.033142
  30 H :    0.033403
  31 H :    0.022354
  32 H :    0.042939
  33 H :    0.071117
Sum of atomic charges:   -0.0000000

LOEWDIN ATOMIC CHARGES
----------------------
   0 S :    0.406147
   1 C :   -0.176555
   2 C :   -0.064334
   3 C :   -0.046639
   4 C :   -0.206969
   5 H :    0.026932
   6 C :   -0.029620
   7 H :    0.034025
   8 H :    0.029351
   9 C :   -0.052868
  10 H :    0.023289
  11 H :    0.020187
  12 C :   -0.059027
  13 H :    0.028232
  14 H :    0.026891
  15 H :    0.023338
  16 S :    0.441389
  17 C :   -0.201674
  18 C :   -0.073442
  19 C :   -0.066252
  20 C :   -0.218730
  21 H :    0.029086
  22 C :   -0.037641
  23 H :    0.029574
  24 H :    0.030360
  25 C :   -0.041313
  26 H :    0.029497
  27 H :    0.025105
  28 C :   -0.074461
  29 H :    0.028076
  30 H :    0.032227
  31 H :    0.023494
  32 H :    0.024175
  33 H :    0.038149

  Mayer bond orders larger than 0.100000
B(  0-S ,  1-C ) :   1.1439 B(  0-S ,  4-C ) :   1.1442 B(  1-C ,  2-C ) :   1.6301
B(  1-C , 32-H ) :   0.9669 B(  2-C ,  3-C ) :   1.2320 B(  2-C ,  6-C ) :   1.0105
B(  3-C ,  4-C ) :   1.6084 B(  3-C ,  5-H ) :   1.0010 B(  4-C , 20-C ) :   0.9874
B(  6-C ,  7-H ) :   0.9466 B(  6-C ,  8-H ) :   0.9467 B(  6-C ,  9-C ) :   1.0541
B(  9-C , 10-H ) :   0.9545 B(  9-C , 11-H ) :   0.9541 B(  9-C , 12-C ) :   1.0774
B( 12-C , 13-H ) :   0.9776 B( 12-C , 14-H ) :   0.9744 B( 12-C , 15-H ) :   0.9751
B( 16-S , 17-C ) :   1.1675 B( 16-S , 20-C ) :   1.1753 B( 17-C , 18-C ) :   1.5892
B( 17-C , 33-H ) :   0.9673 B( 18-C , 19-C ) :   1.2443 B( 18-C , 21-H ) :   0.9828
B( 19-C , 20-C ) :   1.5948 B( 19-C , 22-C ) :   1.0663 B( 22-C , 23-H ) :   0.9395
B( 22-C , 24-H ) :   0.9320 B( 22-C , 25-C ) :   1.0582 B( 25-C , 26-H ) :   0.9518
B( 25-C , 27-H ) :   0.9526 B( 25-C , 28-C ) :   1.0865 B( 28-C , 29-H ) :   0.9732
B( 28-C , 30-H ) :   0.9703 B( 28-C , 31-H ) :   0.9718

Dispersion correction           -0.013736600
FINAL SINGLE POINT ENERGY     -1339.878358361481

DIPOLE MOMENT
-------------
                                X             Y             Z
Electronic contribution:     -8.15869      -9.09554      17.00356
Nuclear contribution   :      8.34142       9.21986     -17.40604
                        -----------------------------------------
Total Dipole Moment    :      0.18273       0.12431      -0.40248
                        -----------------------------------------
Magnitude (a.u.)       :      0.45917
Magnitude (Debye)      :      1.16710

Rotational constants in cm-1:     0.020648     0.007121     0.006240
Rotational constants in MHz :   619.019085   213.477156   187.072256

                             ****ORCA TERMINATED NORMALLY****
TOTAL RUN TIME: 0 days 0 hours 0 minutes 32 seconds 648 msec
