                         Program Version 4.2.1 -  RELEASE  -
|  1> ! wB97X-D3 SP def2-SVP
|  2> %pal
|  3> nprocs 16
|  4> end
|  5>
|  6> * xyz 0 1
|  7> S 	 54.2844 	 19.7182 	 49.7093
|  8> C 	 55.6633 	 20.7258 	 50.1656
|  9> C 	 55.6212 	 21.0282 	 51.5053
| 10> C 	 54.3524 	 20.7079 	 52.0355
| 11> C 	 53.5211 	 19.9819 	 51.2281
| 12> H 	 54.0964 	 20.8694 	 53.0158
| 13> C 	 56.6434 	 21.5019 	 52.5047
| 14> H 	 57.6728 	 21.2835 	 52.0902
| 15> H 	 56.5118 	 20.9018 	 53.3772
| 16> C 	 56.4459 	 22.984 	 53.0229
| 17> H 	 55.5005 	 23.0261 	 53.5517
| 18> H 	 57.2797 	 23.324 	 53.6834
| 19> C 	 56.356 	 23.9299 	 51.7883
| 20> H 	 57.2503 	 23.7319 	 51.1237
| 21> H 	 55.5115 	 23.8172 	 51.1016
| 22> H 	 56.3808 	 24.9129 	 52.1513
| 23> S 	 51.187 	 19.1663 	 50.1683
| 24> C 	 50.0583 	 18.1901 	 51.0022
| 25> C 	 50.4713 	 17.9787 	 52.3056
| 26> C 	 51.7479 	 18.5811 	 52.6466
| 27> C 	 52.2436 	 19.2754 	 51.5092
| 28> H 	 49.7809 	 17.4591 	 52.8987
| 29> C 	 52.362 	 18.518 	 54.0307
| 30> H 	 53.4202 	 18.4126 	 53.9118
| 31> H 	 51.9726 	 17.6311 	 54.4943
| 32> C 	 52.0174 	 19.6929 	 55.0045
| 33> H 	 51.0256 	 19.9521 	 55.0593
| 34> H 	 52.4263 	 20.6 	 54.6485
| 35> C 	 52.5928 	 19.461 	 56.3387
| 36> H 	 52.4131 	 18.4491 	 56.6063
| 37> H 	 52.2281 	 20.2019 	 57.0559
| 38> H 	 53.6508 	 19.6261 	 56.238
| 39> H 	 56.6166 	 20.792 	 49.7504
| 40> H 	 49.1675 	 17.8796 	 50.6418
| 41> *
| 42>
| 43>                          ****END OF INPUT****

CARTESIAN COORDINATES (ANGSTROEM)
---------------------------------
  S     54.284400   19.718200   49.709300
  C     55.663300   20.725800   50.165600
  C     55.621200   21.028200   51.505300
  C     54.352400   20.707900   52.035500
  C     53.521100   19.981900   51.228100
  H     54.096400   20.869400   53.015800
  C     56.643400   21.501900   52.504700
  H     57.672800   21.283500   52.090200
  H     56.511800   20.901800   53.377200
  C     56.445900   22.984000   53.022900
  H     55.500500   23.026100   53.551700
  H     57.279700   23.324000   53.683400
  C     56.356000   23.929900   51.788300
  H     57.250300   23.731900   51.123700
  H     55.511500   23.817200   51.101600
  H     56.380800   24.912900   52.151300
  S     51.187000   19.166300   50.168300
  C     50.058300   18.190100   51.002200
  C     50.471300   17.978700   52.305600
  C     51.747900   18.581100   52.646600
  C     52.243600   19.275400   51.509200
  H     49.780900   17.459100   52.898700
  C     52.362000   18.518000   54.030700
  H     53.420200   18.412600   53.911800
  H     51.972600   17.631100   54.494300
  C     52.017400   19.692900   55.004500
  H     51.025600   19.952100   55.059300
  H     52.426300   20.600000   54.648500
  C     52.592800   19.461000   56.338700
  H     52.413100   18.449100   56.606300
  H     52.228100   20.201900   57.055900
  H     53.650800   19.626100   56.238000
  H     56.616600   20.792000   49.750400
  H     49.167500   17.879600   50.641800

 Total Charge           Charge          ....    0
 Multiplicity           Mult            ....    1
 Number of Electrons    NEL             ....  134
 Basis Dimension        Dim             ....  322

ORBITAL ENERGIES
----------------

  NO   OCC          E(Eh)            E(eV)
   0   2.0000     -88.966802     -2420.9098
   1   2.0000     -88.965897     -2420.8851
   2   2.0000     -10.330737      -281.1137
   3   2.0000     -10.328924      -281.0643
   4   2.0000     -10.311367      -280.5866
   5   2.0000     -10.307195      -280.4730
   6   2.0000     -10.306921      -280.4656
   7   2.0000     -10.297955      -280.2216
   8   2.0000     -10.296928      -280.1937
   9   2.0000     -10.296551      -280.1834
  10   2.0000     -10.293350      -280.0963
  11   2.0000     -10.292592      -280.0757
  12   2.0000     -10.280072      -279.7350
  13   2.0000     -10.274274      -279.5772
  14   2.0000     -10.273398      -279.5534
  15   2.0000     -10.271142      -279.4920
  16   2.0000      -8.082004      -219.9225
  17   2.0000      -8.081566      -219.9106
  18   2.0000      -6.040363      -164.3666
  19   2.0000      -6.040223      -164.3628
  20   2.0000      -6.036100      -164.2506
  21   2.0000      -6.036071      -164.2499
  22   2.0000      -6.033093      -164.1688
  23   2.0000      -6.032105      -164.1419
  24   2.0000      -1.013185       -27.5702
  25   2.0000      -0.989957       -26.9381
  26   2.0000      -0.919838       -25.0301
  27   2.0000      -0.910620       -24.7792
  28   2.0000      -0.868584       -23.6354
  29   2.0000      -0.861074       -23.4310
  30   2.0000      -0.844372       -22.9765
  31   2.0000      -0.818688       -22.2776
  32   2.0000      -0.783565       -21.3219
  33   2.0000      -0.776899       -21.1405
  34   2.0000      -0.712003       -19.3746
  35   2.0000      -0.704226       -19.1630
  36   2.0000      -0.699106       -19.0236
  37   2.0000      -0.667398       -18.1608
  38   2.0000      -0.639272       -17.3955
  39   2.0000      -0.628639       -17.1061
  40   2.0000      -0.600739       -16.3469
  41   2.0000      -0.577040       -15.7020
  42   2.0000      -0.567737       -15.4489
  43   2.0000      -0.549984       -14.9658
  44   2.0000      -0.546356       -14.8671
  45   2.0000      -0.535714       -14.5775
  46   2.0000      -0.522636       -14.2217
  47   2.0000      -0.513270       -13.9668
  48   2.0000      -0.506214       -13.7748
  49   2.0000      -0.500888       -13.6299
  50   2.0000      -0.493021       -13.4158
  51   2.0000      -0.482435       -13.1277
  52   2.0000      -0.472302       -12.8520
  53   2.0000      -0.464620       -12.6430
  54   2.0000      -0.454007       -12.3542
  55   2.0000      -0.450754       -12.2656
  56   2.0000      -0.448953       -12.2166
  57   2.0000      -0.441897       -12.0246
  58   2.0000      -0.435626       -11.8540
  59   2.0000      -0.427469       -11.6320
  60   2.0000      -0.422389       -11.4938
  61   2.0000      -0.420762       -11.4495
  62   2.0000      -0.418986       -11.4012
  63   2.0000      -0.352980        -9.6051
  64   2.0000      -0.330494        -8.9932
  65   2.0000      -0.328736        -8.9454
  66   2.0000      -0.290739        -7.9114
  67   0.0000       0.028809         0.7839
  68   0.0000       0.077956         2.1213
  69   0.0000       0.101191         2.7535
  70   0.0000       0.120881         3.2893
  71   0.0000       0.124896         3.3986

MULLIKEN ATOMIC CHARGES
-----------------------
   0 S :    0.106416
   1 C :   -0.070028
   2 C :   -0.115439
   3 C :    0.029509
   4 C :   -0.087464
   5 H :   -0.055650
   6 C :    0.050005
   7 H :    0.033878
   8 H :    0.027877
   9 C :   -0.084750
  10 H :    0.033978
  11 H :    0.049160
  12 C :   -0.058231
  13 H :    0.025690
  14 H :    0.050631
  15 H :    0.025278
  16 S :    0.113186
  17 C :   -0.043197
  18 C :   -0.033325
  19 C :   -0.026665
  20 C :   -0.160974
  21 H :   -0.002786
  22 C :    0.075784
  23 H :    0.026025
  24 H :    0.010292
  25 C :   -0.015891
  26 H :    0.000792
  27 H :   -0.001344
  28 C :   -0.008056
  29 H :    0.020078
  30 H :    0.036548
  31 H :    0.017690
  32 H :    0.020111
  33 H :    0.010870
Sum of atomic charges:    0.0000000

LOEWDIN ATOMIC CHARGES
----------------------
   0 S :    0.413036
   1 C :   -0.196818
   2 C :   -0.054827
   3 C :   -0.065984
   4 C :   -0.191436
   5 H :    0.009454
   6 C :   -0.031226
   7 H :    0.033092
   8 H :    0.028289
   9 C :   -0.035045
  10 H :    0.021429
  11 H :    0.032180
  12 C :   -0.068610
  13 H :    0.028014
  14 H :    0.029230
  15 H :    0.015704
  16 S :    0.443179
  17 C :   -0.184004
  18 C :   -0.062266
  19 C :   -0.050680
  20 C :   -0.210244
  21 H :    0.022079
  22 C :   -0.022611
  23 H :    0.029674
  24 H :    0.028365
  25 C :   -0.032430
  26 H :    0.013483
  27 H :    0.015596
  28 C :   -0.054429
  29 H :    0.018556
  30 H :    0.030824
  31 H :    0.023432
  32 H :    0.017578
  33 H :    0.007416

  Mayer bond orders larger than 0.100000
B(  0-S ,  1-C ) :   1.1228 B(  0-S ,  4-C ) :   1.1586 B(  1-C ,  2-C ) :   1.6314
B(  1-C , 32-H ) :   0.9598 B(  2-C ,  3-C ) :   1.2301 B(  2-C ,  6-C ) :   1.0198
B(  3-C ,  4-C ) :   1.5883 B(  3-C ,  5-H ) :   1.0146 B(  4-C , 20-C ) :   1.0191
B(  6-C ,  7-H ) :   0.9441 B(  6-C ,  8-H ) :   0.9439 B(  6-C ,  9-C ) :   1.0616
B(  9-C , 10-H ) :   0.9550 B(  9-C , 11-H ) :   0.9594 B(  9-C , 12-C ) :   1.0724
B( 12-C , 13-H ) :   0.9777 B( 12-C , 14-H ) :   0.9716 B( 12-C , 15-H ) :   0.9763
B( 16-S , 17-C ) :   1.1628 B( 16-S , 20-C ) :   1.1776 B( 17-C , 18-C ) :   1.5954
B( 17-C , 33-H ) :   0.9819 B( 18-C , 19-C ) :   1.2452 B( 18-C , 21-H ) :   0.9995
B( 19-C , 20-C ) :   1.5398 B( 19-C , 22-C ) :   1.0560 B( 22-C , 23-H ) :   0.9291
B( 22-C , 24-H ) :   0.9274 B( 22-C , 25-C ) :   1.0658 B( 25-C , 26-H ) :   0.9470
B( 25-C , 27-H ) :   0.9455 B( 25-C , 28-C ) :   1.0905 B( 28-C , 29-H ) :   0.9739
B( 28-C , 30-H ) :   0.9695 B( 28-C , 31-H ) :   0.9745

Dispersion correction           -0.014476494
FINAL SINGLE POINT ENERGY     -1339.859069064556

DIPOLE MOMENT
-------------
                                X             Y             Z
Electronic contribution:    -11.00082     -11.56394     -24.60843
Nuclear contribution   :     11.07466      11.57473      25.38901
                        -----------------------------------------
Total Dipole Moment    :      0.07384       0.01079       0.78058
                        -----------------------------------------
Magnitude (a.u.)       :      0.78414
Magnitude (Debye)      :      1.99312

Rotational constants in cm-1:     0.017515     0.009717     0.006793
Rotational constants in MHz :   525.083304   291.298432   203.649393

                             ****ORCA TERMINATED NORMALLY****
TOTAL RUN TIME: 0 days 0 hours 0 minutes 31 seconds 93 msec
