                         Program Version 4.2.1 -  RELEASE  -
|  1> ! wB97X-D3 SP def2-SVP
|  2> %pal
|  3> nprocs 16
|  4> end
|  5>
|  6> * xyz 0 1
|  7> S 	 -8.86958 	 34.7614 	 53.4228
|  8> C 	 -9.09444 	 33.38 	 54.4674
|  9> C 	 -8.51777 	 32.2278 	 53.948
| 10> C 	 -7.78243 	 32.4476 	 52.725
| 11> C 	 -7.8554 	 33.8004 	 52.3757
| 12> H 	 -7.21382 	 31.7921 	 52.089
| 13> C 	 -8.54783 	 30.829 	 54.6191
| 14> H 	 -9.64629 	 30.6077 	 54.403
| 15> H 	 -8.31024 	 31.0163 	 55.6596
| 16> C 	 -7.57918 	 29.7936 	 54.0383
| 17> H 	 -7.96192 	 28.8131 	 54.3893
| 18> H 	 -7.61665 	 29.8958 	 52.9498
| 19> C 	 -6.09852 	 29.9208 	 54.5363
| 20> H 	 -5.96733 	 29.5756 	 55.5282
| 21> H 	 -5.5056 	 29.2033 	 53.9266
| 22> H 	 -5.72365 	 30.8754 	 54.2692
| 23> S 	 -5.94924 	 35.6929 	 51.7249
| 24> C 	 -5.3843 	 35.8751 	 50.0682
| 25> C 	 -6.05764 	 34.9951 	 49.2197
| 26> C 	 -7.04631 	 34.2176 	 49.9126
| 27> C 	 -7.10369 	 34.4652 	 51.276
| 28> H 	 -5.80834 	 34.9706 	 48.1977
| 29> C 	 -7.86628 	 33.196 	 49.1558
| 30> H 	 -8.26684 	 33.6461 	 48.1964
| 31> H 	 -8.70539 	 32.8775 	 49.781
| 32> C 	 -7.05934 	 31.9559 	 48.8406
| 33> H 	 -6.38513 	 31.6151 	 49.6561
| 34> H 	 -6.31051 	 32.2373 	 48.111
| 35> C 	 -7.89218 	 30.6506 	 48.3646
| 36> H 	 -8.31616 	 30.7522 	 47.3021
| 37> H 	 -8.70911 	 30.2994 	 49.1034
| 38> H 	 -7.14932 	 29.8452 	 48.3296
| 39> H 	 -9.6261 	 33.3416 	 55.3874
| 40> H 	 -4.65524 	 36.5818 	 49.6884
| 41> *
| 42>
| 43>                          ****END OF INPUT****

CARTESIAN COORDINATES (ANGSTROEM)
---------------------------------
  S     -8.869580   34.761400   53.422800
  C     -9.094440   33.380000   54.467400
  C     -8.517770   32.227800   53.948000
  C     -7.782430   32.447600   52.725000
  C     -7.855400   33.800400   52.375700
  H     -7.213820   31.792100   52.089000
  C     -8.547830   30.829000   54.619100
  H     -9.646290   30.607700   54.403000
  H     -8.310240   31.016300   55.659600
  C     -7.579180   29.793600   54.038300
  H     -7.961920   28.813100   54.389300
  H     -7.616650   29.895800   52.949800
  C     -6.098520   29.920800   54.536300
  H     -5.967330   29.575600   55.528200
  H     -5.505600   29.203300   53.926600
  H     -5.723650   30.875400   54.269200
  S     -5.949240   35.692900   51.724900
  C     -5.384300   35.875100   50.068200
  C     -6.057640   34.995100   49.219700
  C     -7.046310   34.217600   49.912600
  C     -7.103690   34.465200   51.276000
  H     -5.808340   34.970600   48.197700
  C     -7.866280   33.196000   49.155800
  H     -8.266840   33.646100   48.196400
  H     -8.705390   32.877500   49.781000
  C     -7.059340   31.955900   48.840600
  H     -6.385130   31.615100   49.656100
  H     -6.310510   32.237300   48.111000
  C     -7.892180   30.650600   48.364600
  H     -8.316160   30.752200   47.302100
  H     -8.709110   30.299400   49.103400
  H     -7.149320   29.845200   48.329600
  H     -9.626100   33.341600   55.387400
  H     -4.655240   36.581800   49.688400

 Total Charge           Charge          ....    0
 Multiplicity           Mult            ....    1
 Number of Electrons    NEL             ....  134
 Basis Dimension        Dim             ....  322

ORBITAL ENERGIES
----------------

  NO   OCC          E(Eh)            E(eV)
   0   2.0000     -88.969373     -2420.9797
   1   2.0000     -88.965135     -2420.8644
   2   2.0000     -10.332276      -281.1555
   3   2.0000     -10.326099      -280.9874
   4   2.0000     -10.319210      -280.8000
   5   2.0000     -10.309097      -280.5248
   6   2.0000     -10.303980      -280.3856
   7   2.0000     -10.302704      -280.3508
   8   2.0000     -10.297947      -280.2214
   9   2.0000     -10.297908      -280.2203
  10   2.0000     -10.296982      -280.1951
  11   2.0000     -10.293483      -280.0999
  12   2.0000     -10.292762      -280.0803
  13   2.0000     -10.292536      -280.0741
  14   2.0000     -10.292117      -280.0627
  15   2.0000     -10.277637      -279.6687
  16   2.0000      -8.083894      -219.9739
  17   2.0000      -8.079709      -219.8601
  18   2.0000      -6.042357      -164.4209
  19   2.0000      -6.038412      -164.3135
  20   2.0000      -6.038198      -164.3077
  21   2.0000      -6.034742      -164.2137
  22   2.0000      -6.034179      -164.1984
  23   2.0000      -6.030539      -164.0993
  24   2.0000      -1.003411       -27.3042
  25   2.0000      -0.981318       -26.7030
  26   2.0000      -0.908472       -24.7208
  27   2.0000      -0.904084       -24.6014
  28   2.0000      -0.865256       -23.5448
  29   2.0000      -0.845360       -23.0034
  30   2.0000      -0.839397       -22.8412
  31   2.0000      -0.815066       -22.1791
  32   2.0000      -0.781180       -21.2570
  33   2.0000      -0.769178       -20.9304
  34   2.0000      -0.707340       -19.2477
  35   2.0000      -0.695110       -18.9149
  36   2.0000      -0.688510       -18.7353
  37   2.0000      -0.661414       -17.9980
  38   2.0000      -0.639546       -17.4029
  39   2.0000      -0.621186       -16.9033
  40   2.0000      -0.593236       -16.1428
  41   2.0000      -0.570209       -15.5162
  42   2.0000      -0.557028       -15.1575
  43   2.0000      -0.552265       -15.0279
  44   2.0000      -0.541052       -14.7228
  45   2.0000      -0.518311       -14.1039
  46   2.0000      -0.515055       -14.0154
  47   2.0000      -0.510814       -13.8999
  48   2.0000      -0.503826       -13.7098
  49   2.0000      -0.494425       -13.4540
  50   2.0000      -0.485386       -13.2080
  51   2.0000      -0.475431       -12.9371
  52   2.0000      -0.471878       -12.8405
  53   2.0000      -0.466955       -12.7065
  54   2.0000      -0.462908       -12.5964
  55   2.0000      -0.454214       -12.3598
  56   2.0000      -0.441487       -12.0135
  57   2.0000      -0.439158       -11.9501
  58   2.0000      -0.435123       -11.8403
  59   2.0000      -0.423035       -11.5114
  60   2.0000      -0.420519       -11.4429
  61   2.0000      -0.412048       -11.2124
  62   2.0000      -0.409101       -11.1322
  63   2.0000      -0.342037        -9.3073
  64   2.0000      -0.328776        -8.9464
  65   2.0000      -0.327633        -8.9153
  66   2.0000      -0.296374        -8.0647
  67   0.0000       0.033870         0.9216
  68   0.0000       0.067210         1.8289
  69   0.0000       0.117838         3.2065
  70   0.0000       0.119767         3.2590
  71   0.0000       0.130118         3.5407

MULLIKEN ATOMIC CHARGES
-----------------------
   0 S :    0.130965
   1 C :   -0.111921
   2 C :   -0.118358
   3 C :    0.041801
   4 C :   -0.172111
   5 H :    0.003200
   6 C :    0.056360
   7 H :    0.061819
   8 H :    0.036046
   9 C :   -0.097090
  10 H :    0.035545
  11 H :    0.032858
  12 C :   -0.027023
  13 H :    0.034171
  14 H :    0.028359
  15 H :    0.035290
  16 S :    0.112118
  17 C :   -0.095372
  18 C :   -0.029801
  19 C :   -0.037141
  20 C :   -0.163014
  21 H :    0.006121
  22 C :    0.092782
  23 H :    0.040771
  24 H :    0.023377
  25 C :   -0.108618
  26 H :    0.033176
  27 H :    0.019600
  28 C :   -0.093399
  29 H :    0.051552
  30 H :    0.054269
  31 H :    0.035994
  32 H :    0.029273
  33 H :    0.058404
Sum of atomic charges:   -0.0000000

LOEWDIN ATOMIC CHARGES
----------------------
   0 S :    0.416749
   1 C :   -0.209540
   2 C :   -0.058332
   3 C :   -0.066936
   4 C :   -0.190176
   5 H :    0.029580
   6 C :   -0.039187
   7 H :    0.048060
   8 H :    0.030403
   9 C :   -0.042813
  10 H :    0.029982
  11 H :    0.022039
  12 C :   -0.057718
  13 H :    0.021901
  14 H :    0.032267
  15 H :    0.021265
  16 S :    0.408652
  17 C :   -0.182568
  18 C :   -0.067604
  19 C :   -0.056411
  20 C :   -0.209594
  21 H :    0.024195
  22 C :   -0.036090
  23 H :    0.038886
  24 H :    0.028631
  25 C :   -0.047564
  26 H :    0.024865
  27 H :    0.020871
  28 C :   -0.080661
  29 H :    0.032841
  30 H :    0.034699
  31 H :    0.024854
  32 H :    0.022758
  33 H :    0.031697

  Mayer bond orders larger than 0.100000
B(  0-S ,  1-C ) :   1.1247 B(  0-S ,  4-C ) :   1.1759 B(  1-C ,  2-C ) :   1.6364
B(  1-C , 32-H ) :   0.9735 B(  2-C ,  3-C ) :   1.2236 B(  2-C ,  6-C ) :   0.9753
B(  3-C ,  4-C ) :   1.5741 B(  3-C ,  5-H ) :   0.9888 B(  4-C , 20-C ) :   0.9992
B(  6-C ,  7-H ) :   0.9383 B(  6-C ,  8-H ) :   0.9459 B(  6-C ,  9-C ) :   1.0856
B(  9-C , 10-H ) :   0.9532 B(  9-C , 11-H ) :   0.9495 B(  9-C , 12-C ) :   1.0821
B( 12-C , 13-H ) :   0.9750 B( 12-C , 14-H ) :   0.9728 B( 12-C , 15-H ) :   0.9765
B( 16-S , 17-C ) :   1.1591 B( 16-S , 20-C ) :   1.1436 B( 17-C , 18-C ) :   1.6046
B( 17-C , 33-H ) :   0.9676 B( 18-C , 19-C ) :   1.2309 B( 18-C , 21-H ) :   0.9985
B( 19-C , 20-C ) :   1.6059 B( 19-C , 22-C ) :   1.0558 B( 22-C , 23-H ) :   0.9348
B( 22-C , 24-H ) :   0.9317 B( 22-C , 25-C ) :   1.0518 B( 25-C , 26-H ) :   0.9565
B( 25-C , 27-H ) :   0.9516 B( 25-C , 28-C ) :   1.0673 B( 28-C , 29-H ) :   0.9756
B( 28-C , 30-H ) :   0.9751 B( 28-C , 31-H ) :   0.9767

Dispersion correction           -0.014686313
FINAL SINGLE POINT ENERGY     -1339.877810398120

DIPOLE MOMENT
-------------
                                X             Y             Z
Electronic contribution:     -1.29787      28.35595       6.54941
Nuclear contribution   :      1.42242     -28.97752      -6.77377
                        -----------------------------------------
Total Dipole Moment    :      0.12455      -0.62157      -0.22437
                        -----------------------------------------
Magnitude (a.u.)       :      0.67246
Magnitude (Debye)      :      1.70926

Rotational constants in cm-1:     0.015747     0.010022     0.007552
Rotational constants in MHz :   472.079752   300.464702   226.411888

                             ****ORCA TERMINATED NORMALLY****
TOTAL RUN TIME: 0 days 0 hours 0 minutes 35 seconds 905 msec
