                         Program Version 4.2.1 -  RELEASE  -
|  1> ! wB97X-D3 SP def2-SVP
|  2> %pal
|  3> nprocs 16
|  4> end
|  5>
|  6> * xyz 0 1
|  7> S 	 43.8509 	 20.1155 	 83.0484
|  8> C 	 42.3942 	 21.1623 	 83.0705
|  9> C 	 41.1888 	 20.4685 	 83.1643
| 10> C 	 41.4137 	 19.0277 	 83.1022
| 11> C 	 42.812 	 18.7167 	 83.1401
| 12> H 	 40.7083 	 18.2486 	 83.0757
| 13> C 	 39.872 	 21.1902 	 83.0036
| 14> H 	 39.0644 	 20.3857 	 83.0093
| 15> H 	 40.0715 	 21.6137 	 81.9972
| 16> C 	 39.5747 	 22.2818 	 84.0335
| 17> H 	 39.5633 	 21.7888 	 84.9838
| 18> H 	 40.1902 	 23.1524 	 84.0759
| 19> C 	 38.1221 	 22.8336 	 83.9391
| 20> H 	 37.9379 	 23.4027 	 83.0587
| 21> H 	 37.375 	 22.0588 	 83.983
| 22> H 	 38.09 	 23.5263 	 84.7879
| 23> S 	 44.8391 	 17.1335 	 82.1019
| 24> C 	 44.6352 	 15.3952 	 82.1556
| 25> C 	 43.618 	 14.971 	 83.0682
| 26> C 	 42.8715 	 16.1391 	 83.5381
| 27> C 	 43.3751 	 17.3584 	 83.0169
| 28> H 	 43.4039 	 13.9695 	 83.3323
| 29> C 	 41.8667 	 16.0158 	 84.6329
| 30> H 	 40.8547 	 15.7911 	 84.1688
| 31> H 	 41.7886 	 16.985 	 85.0265
| 32> C 	 42.1098 	 14.9933 	 85.7171
| 33> H 	 43.1911 	 14.9153 	 85.9044
| 34> H 	 41.7937 	 13.9956 	 85.3713
| 35> C 	 41.365 	 15.3534 	 86.9976
| 36> H 	 40.5278 	 16.0081 	 86.9143
| 37> H 	 42.0505 	 15.9496 	 87.6029
| 38> H 	 41.1384 	 14.5285 	 87.6224
| 39> H 	 42.3621 	 22.2054 	 83.0323
| 40> H 	 45.2421 	 14.5959 	 81.6137
| 41> *
| 42>
| 43>                          ****END OF INPUT****

CARTESIAN COORDINATES (ANGSTROEM)
---------------------------------
  S     43.850900   20.115500   83.048400
  C     42.394200   21.162300   83.070500
  C     41.188800   20.468500   83.164300
  C     41.413700   19.027700   83.102200
  C     42.812000   18.716700   83.140100
  H     40.708300   18.248600   83.075700
  C     39.872000   21.190200   83.003600
  H     39.064400   20.385700   83.009300
  H     40.071500   21.613700   81.997200
  C     39.574700   22.281800   84.033500
  H     39.563300   21.788800   84.983800
  H     40.190200   23.152400   84.075900
  C     38.122100   22.833600   83.939100
  H     37.937900   23.402700   83.058700
  H     37.375000   22.058800   83.983000
  H     38.090000   23.526300   84.787900
  S     44.839100   17.133500   82.101900
  C     44.635200   15.395200   82.155600
  C     43.618000   14.971000   83.068200
  C     42.871500   16.139100   83.538100
  C     43.375100   17.358400   83.016900
  H     43.403900   13.969500   83.332300
  C     41.866700   16.015800   84.632900
  H     40.854700   15.791100   84.168800
  H     41.788600   16.985000   85.026500
  C     42.109800   14.993300   85.717100
  H     43.191100   14.915300   85.904400
  H     41.793700   13.995600   85.371300
  C     41.365000   15.353400   86.997600
  H     40.527800   16.008100   86.914300
  H     42.050500   15.949600   87.602900
  H     41.138400   14.528500   87.622400
  H     42.362100   22.205400   83.032300
  H     45.242100   14.595900   81.613700

 Total Charge           Charge          ....    0
 Multiplicity           Mult            ....    1
 Number of Electrons    NEL             ....  134
 Basis Dimension        Dim             ....  322

ORBITAL ENERGIES
----------------

  NO   OCC          E(Eh)            E(eV)
   0   2.0000     -88.971333     -2421.0331
   1   2.0000     -88.971273     -2421.0314
   2   2.0000     -10.335663      -281.2477
   3   2.0000     -10.328106      -281.0421
   4   2.0000     -10.327673      -281.0303
   5   2.0000     -10.308969      -280.5213
   6   2.0000     -10.304955      -280.4121
   7   2.0000     -10.304520      -280.4002
   8   2.0000     -10.301459      -280.3169
   9   2.0000     -10.299072      -280.2520
  10   2.0000     -10.298977      -280.2494
  11   2.0000     -10.287506      -279.9373
  12   2.0000     -10.286396      -279.9071
  13   2.0000     -10.285994      -279.8961
  14   2.0000     -10.276368      -279.6342
  15   2.0000     -10.271437      -279.5000
  16   2.0000      -8.085705      -220.0232
  17   2.0000      -8.085022      -220.0046
  18   2.0000      -6.044274      -164.4731
  19   2.0000      -6.043632      -164.4556
  20   2.0000      -6.040348      -164.3662
  21   2.0000      -6.039807      -164.3515
  22   2.0000      -6.036341      -164.2572
  23   2.0000      -6.035649      -164.2384
  24   2.0000      -0.998754       -27.1775
  25   2.0000      -0.973824       -26.4991
  26   2.0000      -0.915590       -24.9145
  27   2.0000      -0.912374       -24.8269
  28   2.0000      -0.864615       -23.5274
  29   2.0000      -0.853956       -23.2373
  30   2.0000      -0.843877       -22.9631
  31   2.0000      -0.810333       -22.0503
  32   2.0000      -0.782319       -21.2880
  33   2.0000      -0.767307       -20.8795
  34   2.0000      -0.709064       -19.2946
  35   2.0000      -0.705587       -19.2000
  36   2.0000      -0.691332       -18.8121
  37   2.0000      -0.656581       -17.8665
  38   2.0000      -0.636751       -17.3269
  39   2.0000      -0.611802       -16.6480
  40   2.0000      -0.590874       -16.0785
  41   2.0000      -0.580680       -15.8011
  42   2.0000      -0.568271       -15.4634
  43   2.0000      -0.557383       -15.1672
  44   2.0000      -0.528347       -14.3770
  45   2.0000      -0.525431       -14.2977
  46   2.0000      -0.520434       -14.1617
  47   2.0000      -0.512675       -13.9506
  48   2.0000      -0.501311       -13.6414
  49   2.0000      -0.491640       -13.3782
  50   2.0000      -0.487467       -13.2647
  51   2.0000      -0.478235       -13.0134
  52   2.0000      -0.474546       -12.9130
  53   2.0000      -0.465033       -12.6542
  54   2.0000      -0.460146       -12.5212
  55   2.0000      -0.453450       -12.3390
  56   2.0000      -0.451289       -12.2802
  57   2.0000      -0.440342       -11.9823
  58   2.0000      -0.430144       -11.7048
  59   2.0000      -0.427124       -11.6226
  60   2.0000      -0.424514       -11.5516
  61   2.0000      -0.416509       -11.3338
  62   2.0000      -0.413173       -11.2430
  63   2.0000      -0.346945        -9.4409
  64   2.0000      -0.331908        -9.0317
  65   2.0000      -0.326246        -8.8776
  66   2.0000      -0.276421        -7.5218
  67   0.0000       0.019956         0.5430
  68   0.0000       0.069986         1.9044
  69   0.0000       0.094369         2.5679
  70   0.0000       0.115907         3.1540
  71   0.0000       0.137178         3.7328

MULLIKEN ATOMIC CHARGES
-----------------------
   0 S :    0.104860
   1 C :   -0.094920
   2 C :   -0.081314
   3 C :    0.029972
   4 C :   -0.139745
   5 H :   -0.004452
   6 C :    0.030465
   7 H :    0.035661
   8 H :    0.057101
   9 C :   -0.073285
  10 H :    0.027669
  11 H :    0.031965
  12 C :   -0.039991
  13 H :    0.023301
  14 H :    0.027452
  15 H :    0.033288
  16 S :    0.121204
  17 C :   -0.116607
  18 C :   -0.019424
  19 C :   -0.083347
  20 C :   -0.138962
  21 H :    0.010294
  22 C :    0.057189
  23 H :    0.042586
  24 H :    0.015866
  25 C :   -0.077002
  26 H :    0.039606
  27 H :    0.027263
  28 C :   -0.021905
  29 H :    0.027339
  30 H :    0.023553
  31 H :    0.024795
  32 H :    0.017872
  33 H :    0.081654
Sum of atomic charges:    0.0000000

LOEWDIN ATOMIC CHARGES
----------------------
   0 S :    0.389454
   1 C :   -0.187356
   2 C :   -0.054751
   3 C :   -0.060324
   4 C :   -0.185793
   5 H :    0.021022
   6 C :   -0.038409
   7 H :    0.038610
   8 H :    0.044010
   9 C :   -0.036781
  10 H :    0.026090
  11 H :    0.021811
  12 C :   -0.057214
  13 H :    0.017135
  14 H :    0.020016
  15 H :    0.029627
  16 S :    0.412883
  17 C :   -0.200699
  18 C :   -0.063254
  19 C :   -0.053277
  20 C :   -0.210254
  21 H :    0.024822
  22 C :   -0.039176
  23 H :    0.039068
  24 H :    0.022012
  25 C :   -0.039964
  26 H :    0.027829
  27 H :    0.021442
  28 C :   -0.061446
  29 H :    0.022707
  30 H :    0.031007
  31 H :    0.022364
  32 H :    0.012116
  33 H :    0.044674

  Mayer bond orders larger than 0.100000
B(  0-S ,  1-C ) :   1.1136 B(  0-S ,  4-C ) :   1.1548 B(  1-C ,  2-C ) :   1.6269
B(  1-C , 32-H ) :   0.9730 B(  2-C ,  3-C ) :   1.2278 B(  2-C ,  6-C ) :   1.0041
B(  3-C ,  4-C ) :   1.5431 B(  3-C ,  5-H ) :   0.9959 B(  4-C , 20-C ) :   1.0683
B(  6-C ,  7-H ) :   0.9444 B(  6-C ,  8-H ) :   0.9418 B(  6-C ,  9-C ) :   1.0667
B(  9-C , 10-H ) :   0.9578 B(  9-C , 11-H ) :   0.9574 B(  9-C , 12-C ) :   1.0855
B( 12-C , 13-H ) :   0.9767 B( 12-C , 14-H ) :   0.9760 B( 12-C , 15-H ) :   0.9776
B( 16-S , 17-C ) :   1.1636 B( 16-S , 20-C ) :   1.1306 B( 17-C , 18-C ) :   1.5829
B( 17-C , 33-H ) :   0.9572 B( 18-C , 19-C ) :   1.2547 B( 18-C , 21-H ) :   0.9917
B( 19-C , 20-C ) :   1.5684 B( 19-C , 22-C ) :   1.0467 B( 22-C , 23-H ) :   0.9100
B( 22-C , 24-H ) :   0.9414 B( 22-C , 25-C ) :   1.0734 B( 25-C , 26-H ) :   0.9627
B( 25-C , 27-H ) :   0.9477 B( 25-C , 28-C ) :   1.0767 B( 28-C , 29-H ) :   0.9776
B( 28-C , 30-H ) :   0.9718 B( 28-C , 31-H ) :   0.9739

Dispersion correction           -0.013267366
FINAL SINGLE POINT ENERGY     -1339.857455146497

DIPOLE MOMENT
-------------
                                X             Y             Z
Electronic contribution:     25.37272      -2.16874     -15.31770
Nuclear contribution   :    -25.96721       2.05828      15.56410
                        -----------------------------------------
Total Dipole Moment    :     -0.59450      -0.11046       0.24640
                        -----------------------------------------
Magnitude (a.u.)       :      0.65295
Magnitude (Debye)      :      1.65966

Rotational constants in cm-1:     0.018622     0.007674     0.005867
Rotational constants in MHz :   558.279863   230.072198   175.891539

                             ****ORCA TERMINATED NORMALLY****
TOTAL RUN TIME: 0 days 0 hours 0 minutes 28 seconds 693 msec
