                         Program Version 4.2.1 -  RELEASE  -
|  1> ! wB97X-D3 SP def2-SVP
|  2> %pal
|  3> nprocs 16
|  4> end
|  5>
|  6> * xyz 0 1
|  7> S 	 -28.1748 	 68.4717 	 107.775
|  8> C 	 -26.4784 	 68.4694 	 107.384
|  9> C 	 -25.9869 	 67.1979 	 106.902
| 10> C 	 -27.0489 	 66.3064 	 106.838
| 11> C 	 -28.3253 	 66.8012 	 107.164
| 12> H 	 -27.0225 	 65.2983 	 106.421
| 13> C 	 -24.5897 	 66.8598 	 106.503
| 14> H 	 -24.3263 	 65.9454 	 107.013
| 15> H 	 -23.8857 	 67.636 	 106.83
| 16> C 	 -24.3373 	 66.6335 	 105.037
| 17> H 	 -23.3596 	 66.2421 	 105
| 18> H 	 -24.8843 	 65.7547 	 104.733
| 19> C 	 -24.7154 	 67.8549 	 104.195
| 20> H 	 -25.7566 	 68.1678 	 104.267
| 21> H 	 -24.2866 	 68.7599 	 104.615
| 22> H 	 -24.5501 	 67.6849 	 103.153
| 23> S 	 -30.2358 	 65.8855 	 108.89
| 24> C 	 -31.5454 	 64.8931 	 108.347
| 25> C 	 -31.2449 	 64.3305 	 107.134
| 26> C 	 -30.1086 	 64.9997 	 106.505
| 27> C 	 -29.5597 	 66.0387 	 107.273
| 28> H 	 -31.855 	 63.5336 	 106.762
| 29> C 	 -29.6949 	 64.6018 	 105.116
| 30> H 	 -28.8056 	 65.2388 	 104.814
| 31> H 	 -30.5184 	 64.8992 	 104.392
| 32> C 	 -29.3253 	 63.0967 	 104.857
| 33> H 	 -29.143 	 62.9994 	 103.783
| 34> H 	 -30.1682 	 62.528 	 105.218
| 35> C 	 -28.1978 	 62.576 	 105.788
| 36> H 	 -28.4511 	 62.7348 	 106.758
| 37> H 	 -27.3068 	 63.0791 	 105.52
| 38> H 	 -27.8884 	 61.5026 	 105.657
| 39> H 	 -25.7647 	 69.2069 	 107.75
| 40> H 	 -32.3038 	 64.4722 	 109.045
| 41> *
| 42>
| 43>                          ****END OF INPUT****

CARTESIAN COORDINATES (ANGSTROEM)
---------------------------------
  S    -28.174800   68.471700  107.775000
  C    -26.478400   68.469400  107.384000
  C    -25.986900   67.197900  106.902000
  C    -27.048900   66.306400  106.838000
  C    -28.325300   66.801200  107.164000
  H    -27.022500   65.298300  106.421000
  C    -24.589700   66.859800  106.503000
  H    -24.326300   65.945400  107.013000
  H    -23.885700   67.636000  106.830000
  C    -24.337300   66.633500  105.037000
  H    -23.359600   66.242100  105.000000
  H    -24.884300   65.754700  104.733000
  C    -24.715400   67.854900  104.195000
  H    -25.756600   68.167800  104.267000
  H    -24.286600   68.759900  104.615000
  H    -24.550100   67.684900  103.153000
  S    -30.235800   65.885500  108.890000
  C    -31.545400   64.893100  108.347000
  C    -31.244900   64.330500  107.134000
  C    -30.108600   64.999700  106.505000
  C    -29.559700   66.038700  107.273000
  H    -31.855000   63.533600  106.762000
  C    -29.694900   64.601800  105.116000
  H    -28.805600   65.238800  104.814000
  H    -30.518400   64.899200  104.392000
  C    -29.325300   63.096700  104.857000
  H    -29.143000   62.999400  103.783000
  H    -30.168200   62.528000  105.218000
  C    -28.197800   62.576000  105.788000
  H    -28.451100   62.734800  106.758000
  H    -27.306800   63.079100  105.520000
  H    -27.888400   61.502600  105.657000
  H    -25.764700   69.206900  107.750000
  H    -32.303800   64.472200  109.045000

 Total Charge           Charge          ....    0
 Multiplicity           Mult            ....    1
 Number of Electrons    NEL             ....  134
 Basis Dimension        Dim             ....  322

ORBITAL ENERGIES
----------------

  NO   OCC          E(Eh)            E(eV)
   0   2.0000     -88.973249     -2421.0852
   1   2.0000     -88.960375     -2420.7349
   2   2.0000     -10.333019      -281.1758
   3   2.0000     -10.329071      -281.0683
   4   2.0000     -10.319833      -280.8169
   5   2.0000     -10.318301      -280.7752
   6   2.0000     -10.309386      -280.5327
   7   2.0000     -10.303350      -280.3684
   8   2.0000     -10.298670      -280.2411
   9   2.0000     -10.295584      -280.1571
  10   2.0000     -10.294358      -280.1237
  11   2.0000     -10.292061      -280.0612
  12   2.0000     -10.289740      -279.9981
  13   2.0000     -10.281276      -279.7677
  14   2.0000     -10.273110      -279.5455
  15   2.0000     -10.272185      -279.5204
  16   2.0000      -8.086936      -220.0567
  17   2.0000      -8.075755      -219.7525
  18   2.0000      -6.045250      -164.4996
  19   2.0000      -6.041542      -164.3987
  20   2.0000      -6.038013      -164.3027
  21   2.0000      -6.034269      -164.2008
  22   2.0000      -6.030376      -164.0949
  23   2.0000      -6.026226      -163.9819
  24   2.0000      -1.004343       -27.3295
  25   2.0000      -0.982242       -26.7282
  26   2.0000      -0.920441       -25.0465
  27   2.0000      -0.905457       -24.6388
  28   2.0000      -0.868624       -23.6365
  29   2.0000      -0.852008       -23.1843
  30   2.0000      -0.844240       -22.9730
  31   2.0000      -0.811401       -22.0793
  32   2.0000      -0.786156       -21.3924
  33   2.0000      -0.773281       -21.0421
  34   2.0000      -0.715774       -19.4772
  35   2.0000      -0.701497       -19.0887
  36   2.0000      -0.691669       -18.8213
  37   2.0000      -0.654604       -17.8127
  38   2.0000      -0.638216       -17.3667
  39   2.0000      -0.622437       -16.9374
  40   2.0000      -0.596959       -16.2441
  41   2.0000      -0.568609       -15.4726
  42   2.0000      -0.562277       -15.3003
  43   2.0000      -0.552339       -15.0299
  44   2.0000      -0.541688       -14.7401
  45   2.0000      -0.536935       -14.6107
  46   2.0000      -0.522120       -14.2076
  47   2.0000      -0.510571       -13.8933
  48   2.0000      -0.496806       -13.5188
  49   2.0000      -0.495066       -13.4714
  50   2.0000      -0.488009       -13.2794
  51   2.0000      -0.485129       -13.2010
  52   2.0000      -0.467716       -12.7272
  53   2.0000      -0.465325       -12.6621
  54   2.0000      -0.459259       -12.4971
  55   2.0000      -0.451256       -12.2793
  56   2.0000      -0.448347       -12.2001
  57   2.0000      -0.439092       -11.9483
  58   2.0000      -0.437608       -11.9079
  59   2.0000      -0.430491       -11.7142
  60   2.0000      -0.419538       -11.4162
  61   2.0000      -0.412614       -11.2278
  62   2.0000      -0.406339       -11.0570
  63   2.0000      -0.347571        -9.4579
  64   2.0000      -0.332281        -9.0418
  65   2.0000      -0.322144        -8.7660
  66   2.0000      -0.289728        -7.8839
  67   0.0000       0.020097         0.5469
  68   0.0000       0.063918         1.7393
  69   0.0000       0.100744         2.7414
  70   0.0000       0.119544         3.2530
  71   0.0000       0.123053         3.3485

MULLIKEN ATOMIC CHARGES
-----------------------
   0 S :    0.128045
   1 C :   -0.114204
   2 C :   -0.104512
   3 C :    0.051043
   4 C :   -0.195984
   5 H :   -0.008717
   6 C :    0.050857
   7 H :    0.027989
   8 H :    0.019732
   9 C :   -0.023213
  10 H :    0.014583
  11 H :    0.007062
  12 C :   -0.025080
  13 H :    0.036804
  14 H :    0.016705
  15 H :    0.035571
  16 S :    0.090384
  17 C :   -0.096774
  18 C :   -0.034516
  19 C :   -0.061956
  20 C :   -0.103887
  21 H :    0.021747
  22 C :   -0.007277
  23 H :    0.032299
  24 H :    0.054399
  25 C :   -0.064613
  26 H :    0.043852
  27 H :    0.025323
  28 C :   -0.037034
  29 H :    0.029315
  30 H :    0.023417
  31 H :    0.038557
  32 H :    0.055784
  33 H :    0.074300
Sum of atomic charges:    0.0000000

LOEWDIN ATOMIC CHARGES
----------------------
   0 S :    0.414927
   1 C :   -0.208458
   2 C :   -0.061945
   3 C :   -0.054464
   4 C :   -0.196712
   5 H :    0.029359
   6 C :   -0.031894
   7 H :    0.033967
   8 H :    0.029637
   9 C :   -0.036376
  10 H :    0.021645
  11 H :    0.019140
  12 C :   -0.064896
  13 H :    0.032898
  14 H :    0.025195
  15 H :    0.024326
  16 S :    0.404102
  17 C :   -0.190418
  18 C :   -0.073600
  19 C :   -0.059436
  20 C :   -0.199477
  21 H :    0.029814
  22 C :   -0.046015
  23 H :    0.031096
  24 H :    0.041308
  25 C :   -0.032301
  26 H :    0.028156
  27 H :    0.019433
  28 C :   -0.058447
  29 H :    0.013618
  30 H :    0.014977
  31 H :    0.035165
  32 H :    0.027595
  33 H :    0.038079

  Mayer bond orders larger than 0.100000
B(  0-S ,  1-C ) :   1.1740 B(  0-S ,  4-C ) :   1.1551 B(  1-C ,  2-C ) :   1.5370
B(  1-C ,  4-C ) :   0.1151 B(  1-C , 32-H ) :   0.9586 B(  2-C ,  3-C ) :   1.3027
B(  2-C ,  6-C ) :   1.0365 B(  3-C ,  4-C ) :   1.5264 B(  3-C ,  5-H ) :   0.9821
B(  4-C , 20-C ) :   1.0537 B(  6-C ,  7-H ) :   0.9319 B(  6-C ,  8-H ) :   0.9385
B(  6-C ,  9-C ) :   1.0924 B(  9-C , 10-H ) :   0.9512 B(  9-C , 11-H ) :   0.9474
B(  9-C , 12-C ) :   1.0634 B( 12-C , 13-H ) :   0.9681 B( 12-C , 14-H ) :   0.9737
B( 12-C , 15-H ) :   0.9746 B( 16-S , 17-C ) :   1.1614 B( 16-S , 20-C ) :   1.1409
B( 17-C , 18-C ) :   1.6132 B( 17-C , 33-H ) :   0.9607 B( 18-C , 19-C ) :   1.2159
B( 18-C , 21-H ) :   0.9973 B( 19-C , 20-C ) :   1.5790 B( 19-C , 22-C ) :   1.0492
B( 22-C , 23-H ) :   0.9392 B( 22-C , 24-H ) :   0.9400 B( 22-C , 25-C ) :   1.0617
B( 25-C , 26-H ) :   0.9595 B( 25-C , 27-H ) :   0.9578 B( 25-C , 28-C ) :   1.0693
B( 28-C , 29-H ) :   0.9748 B( 28-C , 30-H ) :   0.9686 B( 28-C , 31-H ) :   0.9716

Dispersion correction           -0.015430817
FINAL SINGLE POINT ENERGY     -1339.862541115858

DIPOLE MOMENT
-------------
                                X             Y             Z
Electronic contribution:    -16.16868      12.56784      19.39719
Nuclear contribution   :     16.52960     -13.17119     -19.71362
                        -----------------------------------------
Total Dipole Moment    :      0.36092      -0.60335      -0.31644
                        -----------------------------------------
Magnitude (a.u.)       :      0.77099
Magnitude (Debye)      :      1.95971

Rotational constants in cm-1:     0.019052     0.009737     0.007126
Rotational constants in MHz :   571.170593   291.922270   213.646191

                             ****ORCA TERMINATED NORMALLY****
TOTAL RUN TIME: 0 days 0 hours 0 minutes 29 seconds 154 msec
