                         Program Version 4.2.1 -  RELEASE  -
|  1> ! wB97X-D3 SP def2-SVP
|  2> %pal
|  3> nprocs 16
|  4> end
|  5>
|  6> * xyz 0 1
|  7> S 	 -45.5628 	 57.3128 	 97.7118
|  8> C 	 -45.9564 	 57.2979 	 99.3177
|  9> C 	 -46.9748 	 56.4145 	 99.5181
| 10> C 	 -46.9097 	 55.3831 	 98.6078
| 11> C 	 -46.2112 	 55.7076 	 97.5102
| 12> H 	 -47.4568 	 54.4736 	 98.6972
| 13> C 	 -47.733 	 56.1929 	 100.856
| 14> H 	 -47.2569 	 56.766 	 101.514
| 15> H 	 -47.5929 	 55.1993 	 101.166
| 16> C 	 -49.3123 	 56.4728 	 100.747
| 17> H 	 -49.5622 	 57.4074 	 100.252
| 18> H 	 -49.8134 	 55.7782 	 100.137
| 19> C 	 -50.0608 	 56.4704 	 102.136
| 20> H 	 -49.7319 	 55.6412 	 102.74
| 21> H 	 -49.8595 	 57.3021 	 102.832
| 22> H 	 -51.124 	 56.56 	 101.905
| 23> S 	 -46.5983 	 55.693 	 94.7456
| 24> C 	 -46.0552 	 54.2415 	 93.8223
| 25> C 	 -45.6891 	 53.24 	 94.6494
| 26> C 	 -45.6907 	 53.5919 	 96.0463
| 27> C 	 -46.1103 	 54.9352 	 96.2522
| 28> H 	 -45.3985 	 52.3086 	 94.2777
| 29> C 	 -45.0654 	 52.7727 	 97.1696
| 30> H 	 -45.2853 	 51.777 	 96.9944
| 31> H 	 -45.6559 	 52.8836 	 98.2
| 32> C 	 -43.5236 	 53.0026 	 97.2891
| 33> H 	 -43.02 	 52.9119 	 96.3138
| 34> H 	 -43.145 	 52.1029 	 97.812
| 35> C 	 -43.104 	 54.3161 	 97.9764
| 36> H 	 -43.4916 	 54.1469 	 98.9834
| 37> H 	 -43.7229 	 55.2211 	 97.5845
| 38> H 	 -42.0289 	 54.4662 	 98.2413
| 39> H 	 -45.657 	 58.0012 	 100.035
| 40> H 	 -46.1707 	 54.2003 	 92.727
| 41> *
| 42>
| 43>                          ****END OF INPUT****

CARTESIAN COORDINATES (ANGSTROEM)
---------------------------------
  S    -45.562800   57.312800   97.711800
  C    -45.956400   57.297900   99.317700
  C    -46.974800   56.414500   99.518100
  C    -46.909700   55.383100   98.607800
  C    -46.211200   55.707600   97.510200
  H    -47.456800   54.473600   98.697200
  C    -47.733000   56.192900  100.856000
  H    -47.256900   56.766000  101.514000
  H    -47.592900   55.199300  101.166000
  C    -49.312300   56.472800  100.747000
  H    -49.562200   57.407400  100.252000
  H    -49.813400   55.778200  100.137000
  C    -50.060800   56.470400  102.136000
  H    -49.731900   55.641200  102.740000
  H    -49.859500   57.302100  102.832000
  H    -51.124000   56.560000  101.905000
  S    -46.598300   55.693000   94.745600
  C    -46.055200   54.241500   93.822300
  C    -45.689100   53.240000   94.649400
  C    -45.690700   53.591900   96.046300
  C    -46.110300   54.935200   96.252200
  H    -45.398500   52.308600   94.277700
  C    -45.065400   52.772700   97.169600
  H    -45.285300   51.777000   96.994400
  H    -45.655900   52.883600   98.200000
  C    -43.523600   53.002600   97.289100
  H    -43.020000   52.911900   96.313800
  H    -43.145000   52.102900   97.812000
  C    -43.104000   54.316100   97.976400
  H    -43.491600   54.146900   98.983400
  H    -43.722900   55.221100   97.584500
  H    -42.028900   54.466200   98.241300
  H    -45.657000   58.001200  100.035000
  H    -46.170700   54.200300   92.727000

 Total Charge           Charge          ....    0
 Multiplicity           Mult            ....    1
 Number of Electrons    NEL             ....  134
 Basis Dimension        Dim             ....  322

ORBITAL ENERGIES
----------------

  NO   OCC          E(Eh)            E(eV)
   0   2.0000     -88.965057     -2420.8623
   1   2.0000     -88.962487     -2420.7923
   2   2.0000     -10.329500      -281.0800
   3   2.0000     -10.322397      -280.8867
   4   2.0000     -10.318596      -280.7833
   5   2.0000     -10.304632      -280.4033
   6   2.0000     -10.304017      -280.3866
   7   2.0000     -10.296966      -280.1947
   8   2.0000     -10.292768      -280.0805
   9   2.0000     -10.291221      -280.0383
  10   2.0000     -10.290309      -280.0135
  11   2.0000     -10.288167      -279.9553
  12   2.0000     -10.285323      -279.8779
  13   2.0000     -10.282892      -279.8117
  14   2.0000     -10.281012      -279.7606
  15   2.0000     -10.276300      -279.6323
  16   2.0000      -8.081657      -219.9131
  17   2.0000      -8.076535      -219.7737
  18   2.0000      -6.039883      -164.3536
  19   2.0000      -6.036129      -164.2514
  20   2.0000      -6.035132      -164.2243
  21   2.0000      -6.032313      -164.1476
  22   2.0000      -6.031196      -164.1172
  23   2.0000      -6.027208      -164.0087
  24   2.0000      -1.024827       -27.8870
  25   2.0000      -0.983302       -26.7570
  26   2.0000      -0.902425       -24.5562
  27   2.0000      -0.897584       -24.4245
  28   2.0000      -0.873053       -23.7570
  29   2.0000      -0.856190       -23.2981
  30   2.0000      -0.838064       -22.8049
  31   2.0000      -0.818853       -22.2821
  32   2.0000      -0.782955       -21.3053
  33   2.0000      -0.766327       -20.8528
  34   2.0000      -0.711816       -19.3695
  35   2.0000      -0.699790       -19.0423
  36   2.0000      -0.688703       -18.7406
  37   2.0000      -0.660685       -17.9782
  38   2.0000      -0.650091       -17.6899
  39   2.0000      -0.627498       -17.0751
  40   2.0000      -0.593838       -16.1592
  41   2.0000      -0.571417       -15.5490
  42   2.0000      -0.555689       -15.1211
  43   2.0000      -0.550036       -14.9672
  44   2.0000      -0.533669       -14.5219
  45   2.0000      -0.524015       -14.2592
  46   2.0000      -0.515499       -14.0274
  47   2.0000      -0.510452       -13.8901
  48   2.0000      -0.503020       -13.6879
  49   2.0000      -0.499066       -13.5803
  50   2.0000      -0.488697       -13.2981
  51   2.0000      -0.480862       -13.0849
  52   2.0000      -0.471932       -12.8419
  53   2.0000      -0.464017       -12.6265
  54   2.0000      -0.459465       -12.5027
  55   2.0000      -0.449112       -12.2210
  56   2.0000      -0.442174       -12.0322
  57   2.0000      -0.436810       -11.8862
  58   2.0000      -0.432998       -11.7825
  59   2.0000      -0.425066       -11.5666
  60   2.0000      -0.412625       -11.2281
  61   2.0000      -0.410990       -11.1836
  62   2.0000      -0.402733       -10.9589
  63   2.0000      -0.352715        -9.5979
  64   2.0000      -0.332579        -9.0499
  65   2.0000      -0.326648        -8.8886
  66   2.0000      -0.286759        -7.8031
  67   0.0000       0.034747         0.9455
  68   0.0000       0.062359         1.6969
  69   0.0000       0.110050         2.9946
  70   0.0000       0.121955         3.3186
  71   0.0000       0.135333         3.6826

MULLIKEN ATOMIC CHARGES
-----------------------
   0 S :    0.130788
   1 C :   -0.092338
   2 C :   -0.097433
   3 C :    0.036692
   4 C :   -0.151410
   5 H :    0.005419
   6 C :    0.141647
   7 H :   -0.026186
   8 H :    0.011686
   9 C :   -0.067795
  10 H :    0.027943
  11 H :    0.019514
  12 C :   -0.064175
  13 H :    0.027740
  14 H :    0.028486
  15 H :    0.042570
  16 S :    0.086530
  17 C :   -0.104033
  18 C :    0.009364
  19 C :   -0.042894
  20 C :   -0.158474
  21 H :   -0.004481
  22 C :    0.055400
  23 H :   -0.002239
  24 H :    0.036170
  25 C :   -0.061202
  26 H :    0.027655
  27 H :    0.023885
  28 C :   -0.059842
  29 H :    0.009683
  30 H :    0.065001
  31 H :    0.044518
  32 H :    0.033855
  33 H :    0.067957
Sum of atomic charges:   -0.0000000

LOEWDIN ATOMIC CHARGES
----------------------
   0 S :    0.450396
   1 C :   -0.205149
   2 C :   -0.062235
   3 C :   -0.053229
   4 C :   -0.199408
   5 H :    0.029309
   6 C :   -0.007245
   7 H :    0.007394
   8 H :    0.024136
   9 C :   -0.030596
  10 H :    0.024458
  11 H :    0.017217
  12 C :   -0.070932
  13 H :    0.021340
  14 H :    0.024927
  15 H :    0.030126
  16 S :    0.371544
  17 C :   -0.169644
  18 C :   -0.060873
  19 C :   -0.062491
  20 C :   -0.189307
  21 H :    0.024147
  22 C :   -0.036317
  23 H :    0.017159
  24 H :    0.043301
  25 C :   -0.041232
  26 H :    0.022633
  27 H :    0.023603
  28 C :   -0.088700
  29 H :    0.022496
  30 H :    0.036145
  31 H :    0.032683
  32 H :    0.020158
  33 H :    0.034182

  Mayer bond orders larger than 0.100000
B(  0-S ,  1-C ) :   1.1758 B(  0-S ,  4-C ) :   1.1425 B(  1-C ,  2-C ) :   1.5649
B(  1-C , 32-H ) :   0.9755 B(  2-C ,  3-C ) :   1.2515 B(  2-C ,  6-C ) :   1.0391
B(  3-C ,  4-C ) :   1.5705 B(  3-C ,  5-H ) :   1.0032 B(  4-C , 20-C ) :   1.0289
B(  6-C ,  7-H ) :   0.9404 B(  6-C ,  8-H ) :   0.9451 B(  6-C ,  9-C ) :   1.0390
B(  9-C , 10-H ) :   0.9619 B(  9-C , 11-H ) :   0.9608 B(  9-C , 12-C ) :   1.0754
B( 12-C , 13-H ) :   0.9761 B( 12-C , 14-H ) :   0.9781 B( 12-C , 15-H ) :   0.9764
B( 16-S , 17-C ) :   1.1214 B( 16-S , 20-C ) :   1.1521 B( 17-C , 18-C ) :   1.6306
B( 17-C , 33-H ) :   0.9657 B( 18-C , 19-C ) :   1.2286 B( 18-C , 21-H ) :   0.9983
B( 19-C , 20-C ) :   1.5893 B( 19-C , 22-C ) :   1.0520 B( 22-C , 23-H ) :   0.9212
B( 22-C , 24-H ) :   0.9355 B( 22-C , 25-C ) :   1.0611 B( 25-C , 26-H ) :   0.9552
B( 25-C , 27-H ) :   0.9556 B( 25-C , 28-C ) :   1.0656 B( 28-C , 29-H ) :   0.9700
B( 28-C , 30-H ) :   0.9612 B( 28-C , 31-H ) :   0.9718

Dispersion correction           -0.015265371
FINAL SINGLE POINT ENERGY     -1339.829978803388

DIPOLE MOMENT
-------------
                                X             Y             Z
Electronic contribution:      2.89081       8.67819     -21.58405
Nuclear contribution   :     -3.03971      -9.07782      22.10346
                        -----------------------------------------
Total Dipole Moment    :     -0.14890      -0.39963       0.51941
                        -----------------------------------------
Magnitude (a.u.)       :      0.67206
Magnitude (Debye)      :      1.70823

Rotational constants in cm-1:     0.021200     0.007891     0.007352
Rotational constants in MHz :   635.548790   236.564757   220.415077

                             ****ORCA TERMINATED NORMALLY****
TOTAL RUN TIME: 0 days 0 hours 0 minutes 31 seconds 474 msec
