                         Program Version 4.2.1 -  RELEASE  -
|  1> ! wB97X-D3 SP def2-SVP
|  2> %pal
|  3> nprocs 16
|  4> end
|  5>
|  6> * xyz 0 1
|  7> S 	 42.6084 	 8.35054 	 82.0567
|  8> C 	 41.1126 	 7.71426 	 82.715
|  9> C 	 40.2173 	 8.71146 	 83.1657
| 10> C 	 40.8024 	 9.95494 	 83.0984
| 11> C 	 42.0895 	 9.9492 	 82.562
| 12> H 	 40.4217 	 10.8038 	 83.5642
| 13> C 	 38.9648 	 8.5895 	 83.9381
| 14> H 	 38.3654 	 7.83061 	 83.5447
| 15> H 	 38.3732 	 9.47625 	 83.7863
| 16> C 	 39.0689 	 8.23375 	 85.3863
| 17> H 	 39.4907 	 7.24681 	 85.5133
| 18> H 	 39.8706 	 8.90351 	 85.6526
| 19> C 	 37.8816 	 8.42222 	 86.2501
| 20> H 	 37.1296 	 7.88468 	 85.72
| 21> H 	 38.0806 	 7.84395 	 87.1418
| 22> H 	 37.7255 	 9.48035 	 86.4469
| 23> S 	 44.759 	 10.5987 	 82.87
| 24> C 	 45.145 	 12.3416 	 82.8944
| 25> C 	 44.0643 	 13.1779 	 82.6078
| 26> C 	 42.8538 	 12.3881 	 82.3884
| 27> C 	 43.0644 	 11.0268 	 82.5609
| 28> H 	 44.0861 	 14.2547 	 82.5099
| 29> C 	 41.58 	 13.0213 	 81.8927
| 30> H 	 40.7629 	 12.9024 	 82.6295
| 31> H 	 41.2672 	 12.3301 	 81.0141
| 32> C 	 41.5035 	 14.4814 	 81.4358
| 33> H 	 41.8278 	 15.1419 	 82.2552
| 34> H 	 40.4212 	 14.7288 	 81.2513
| 35> C 	 42.2745 	 14.8803 	 80.1298
| 36> H 	 42.4351 	 15.94 	 79.9269
| 37> H 	 41.7059 	 14.4536 	 79.3367
| 38> H 	 43.24 	 14.3337 	 80.1755
| 39> H 	 40.8866 	 6.68623 	 82.7353
| 40> H 	 46.123 	 12.7631 	 83.0636
| 41> *
| 42>
| 43>                          ****END OF INPUT****

CARTESIAN COORDINATES (ANGSTROEM)
---------------------------------
  S     42.608400    8.350540   82.056700
  C     41.112600    7.714260   82.715000
  C     40.217300    8.711460   83.165700
  C     40.802400    9.954940   83.098400
  C     42.089500    9.949200   82.562000
  H     40.421700   10.803800   83.564200
  C     38.964800    8.589500   83.938100
  H     38.365400    7.830610   83.544700
  H     38.373200    9.476250   83.786300
  C     39.068900    8.233750   85.386300
  H     39.490700    7.246810   85.513300
  H     39.870600    8.903510   85.652600
  C     37.881600    8.422220   86.250100
  H     37.129600    7.884680   85.720000
  H     38.080600    7.843950   87.141800
  H     37.725500    9.480350   86.446900
  S     44.759000   10.598700   82.870000
  C     45.145000   12.341600   82.894400
  C     44.064300   13.177900   82.607800
  C     42.853800   12.388100   82.388400
  C     43.064400   11.026800   82.560900
  H     44.086100   14.254700   82.509900
  C     41.580000   13.021300   81.892700
  H     40.762900   12.902400   82.629500
  H     41.267200   12.330100   81.014100
  C     41.503500   14.481400   81.435800
  H     41.827800   15.141900   82.255200
  H     40.421200   14.728800   81.251300
  C     42.274500   14.880300   80.129800
  H     42.435100   15.940000   79.926900
  H     41.705900   14.453600   79.336700
  H     43.240000   14.333700   80.175500
  H     40.886600    6.686230   82.735300
  H     46.123000   12.763100   83.063600

 Total Charge           Charge          ....    0
 Multiplicity           Mult            ....    1
 Number of Electrons    NEL             ....  134
 Basis Dimension        Dim             ....  322

ORBITAL ENERGIES
----------------

  NO   OCC          E(Eh)            E(eV)
   0   2.0000     -88.972020     -2421.0518
   1   2.0000     -88.970067     -2420.9986
   2   2.0000     -10.328455      -281.0515
   3   2.0000     -10.325699      -280.9765
   4   2.0000     -10.321389      -280.8593
   5   2.0000     -10.313400      -280.6419
   6   2.0000     -10.304885      -280.4102
   7   2.0000     -10.301187      -280.3096
   8   2.0000     -10.299746      -280.2703
   9   2.0000     -10.296376      -280.1786
  10   2.0000     -10.296164      -280.1729
  11   2.0000     -10.285112      -279.8721
  12   2.0000     -10.278296      -279.6867
  13   2.0000     -10.277756      -279.6719
  14   2.0000     -10.273694      -279.5614
  15   2.0000     -10.272731      -279.5352
  16   2.0000      -8.086379      -220.0416
  17   2.0000      -8.083611      -219.9662
  18   2.0000      -6.044715      -164.4850
  19   2.0000      -6.042280      -164.4188
  20   2.0000      -6.040998      -164.3839
  21   2.0000      -6.038508      -164.3162
  22   2.0000      -6.037323      -164.2839
  23   2.0000      -6.034054      -164.1950
  24   2.0000      -1.005818       -27.3697
  25   2.0000      -0.978825       -26.6352
  26   2.0000      -0.926692       -25.2166
  27   2.0000      -0.904759       -24.6197
  28   2.0000      -0.871554       -23.7162
  29   2.0000      -0.859491       -23.3879
  30   2.0000      -0.844077       -22.9685
  31   2.0000      -0.814608       -22.1666
  32   2.0000      -0.787917       -21.4403
  33   2.0000      -0.772030       -21.0080
  34   2.0000      -0.704862       -19.1803
  35   2.0000      -0.700985       -19.0748
  36   2.0000      -0.691991       -18.8300
  37   2.0000      -0.660722       -17.9792
  38   2.0000      -0.645510       -17.5652
  39   2.0000      -0.629660       -17.1339
  40   2.0000      -0.593460       -16.1489
  41   2.0000      -0.579392       -15.7661
  42   2.0000      -0.562491       -15.3062
  43   2.0000      -0.551444       -15.0056
  44   2.0000      -0.537997       -14.6396
  45   2.0000      -0.527048       -14.3417
  46   2.0000      -0.522279       -14.2119
  47   2.0000      -0.516381       -14.0514
  48   2.0000      -0.505196       -13.7471
  49   2.0000      -0.496058       -13.4984
  50   2.0000      -0.493100       -13.4179
  51   2.0000      -0.476380       -12.9630
  52   2.0000      -0.474589       -12.9142
  53   2.0000      -0.466359       -12.6903
  54   2.0000      -0.459597       -12.5063
  55   2.0000      -0.456024       -12.4091
  56   2.0000      -0.447034       -12.1644
  57   2.0000      -0.441284       -12.0079
  58   2.0000      -0.433506       -11.7963
  59   2.0000      -0.426831       -11.6147
  60   2.0000      -0.420310       -11.4372
  61   2.0000      -0.413827       -11.2608
  62   2.0000      -0.405059       -11.0222
  63   2.0000      -0.351074        -9.5532
  64   2.0000      -0.338863        -9.2209
  65   2.0000      -0.329532        -8.9670
  66   2.0000      -0.277363        -7.5474
  67   0.0000       0.017533         0.4771
  68   0.0000       0.070015         1.9052
  69   0.0000       0.095060         2.5867
  70   0.0000       0.123004         3.3471
  71   0.0000       0.134453         3.6586

MULLIKEN ATOMIC CHARGES
-----------------------
   0 S :    0.114745
   1 C :   -0.117999
   2 C :   -0.060291
   3 C :    0.020631
   4 C :   -0.145583
   5 H :   -0.013358
   6 C :    0.095415
   7 H :   -0.006708
   8 H :    0.009512
   9 C :   -0.087369
  10 H :    0.016120
  11 H :    0.006274
  12 C :    0.021962
  13 H :    0.017470
  14 H :    0.031089
  15 H :    0.042080
  16 S :    0.105141
  17 C :   -0.080099
  18 C :   -0.025856
  19 C :   -0.055292
  20 C :   -0.124217
  21 H :    0.024076
  22 C :    0.009981
  23 H :    0.044015
  24 H :    0.052285
  25 C :   -0.106437
  26 H :    0.033202
  27 H :    0.040232
  28 C :   -0.047830
  29 H :    0.045474
  30 H :    0.025011
  31 H :    0.037232
  32 H :    0.028233
  33 H :    0.050860
Sum of atomic charges:   -0.0000000

LOEWDIN ATOMIC CHARGES
----------------------
   0 S :    0.408586
   1 C :   -0.188577
   2 C :   -0.056067
   3 C :   -0.053490
   4 C :   -0.183288
   5 H :    0.021109
   6 C :   -0.033103
   7 H :    0.019093
   8 H :    0.028999
   9 C :   -0.044046
  10 H :    0.021696
  11 H :    0.018139
  12 C :   -0.053540
  13 H :    0.022912
  14 H :    0.032267
  15 H :    0.029896
  16 S :    0.379505
  17 C :   -0.173003
  18 C :   -0.065735
  19 C :   -0.059313
  20 C :   -0.194645
  21 H :    0.032120
  22 C :   -0.046332
  23 H :    0.035259
  24 H :    0.047061
  25 C :   -0.049721
  26 H :    0.020948
  27 H :    0.033253
  28 C :   -0.069443
  29 H :    0.028329
  30 H :    0.021709
  31 H :    0.029101
  32 H :    0.014202
  33 H :    0.026118

  Mayer bond orders larger than 0.100000
B(  0-S ,  1-C ) :   1.1490 B(  0-S ,  4-C ) :   1.1564 B(  1-C ,  2-C ) :   1.5601
B(  1-C ,  4-C ) :   0.1058 B(  1-C , 32-H ) :   0.9759 B(  2-C ,  3-C ) :   1.2835
B(  2-C ,  6-C ) :   1.0539 B(  3-C ,  4-C ) :   1.5293 B(  3-C ,  5-H ) :   0.9983
B(  4-C , 20-C ) :   1.0776 B(  6-C ,  7-H ) :   0.9098 B(  6-C ,  8-H ) :   0.9328
B(  6-C ,  9-C ) :   1.0637 B(  9-C , 10-H ) :   0.9490 B(  9-C , 11-H ) :   0.9529
B(  9-C , 12-C ) :   1.0867 B( 12-C , 13-H ) :   0.9710 B( 12-C , 14-H ) :   0.9683
B( 12-C , 15-H ) :   0.9732 B( 16-S , 17-C ) :   1.1367 B( 16-S , 20-C ) :   1.1115
B( 17-C , 18-C ) :   1.6236 B( 17-C , 33-H ) :   0.9650 B( 18-C , 19-C ) :   1.2315
B( 18-C , 21-H ) :   0.9791 B( 19-C , 20-C ) :   1.6180 B( 19-C , 22-C ) :   1.0304
B( 22-C , 23-H ) :   0.9252 B( 22-C , 24-H ) :   0.9338 B( 22-C , 25-C ) :   1.0837
B( 25-C , 26-H ) :   0.9494 B( 25-C , 27-H ) :   0.9556 B( 25-C , 28-C ) :   1.0630
B( 28-C , 29-H ) :   0.9769 B( 28-C , 30-H ) :   0.9744 B( 28-C , 31-H ) :   0.9777

Dispersion correction           -0.013876633
FINAL SINGLE POINT ENERGY     -1339.863093356494

DIPOLE MOMENT
-------------
                                X             Y             Z
Electronic contribution:     21.61238     -11.59557      -4.90230
Nuclear contribution   :    -22.10275      11.91130       5.10425
                        -----------------------------------------
Total Dipole Moment    :     -0.49037       0.31573       0.20195
                        -----------------------------------------
Magnitude (a.u.)       :      0.61720
Magnitude (Debye)      :      1.56880

Rotational constants in cm-1:     0.019213     0.007777     0.006444
Rotational constants in MHz :   575.997602   233.163088   193.175150

                             ****ORCA TERMINATED NORMALLY****
TOTAL RUN TIME: 0 days 0 hours 0 minutes 27 seconds 971 msec
