                         Program Version 4.2.1 -  RELEASE  -
|  1> ! wB97X-D3 SP def2-SVP
|  2> %pal
|  3> nprocs 16
|  4> end
|  5>
|  6> * xyz 0 1
|  7> S 	 1.21194 	 -28.7126 	 86.206
|  8> C 	 1.20239 	 -29.6385 	 84.7011
|  9> C 	 1.00848 	 -28.8471 	 83.6035
| 10> C 	 0.718963 	 -27.4894 	 84.0337
| 11> C 	 0.90091 	 -27.2313 	 85.3491
| 12> H 	 0.453871 	 -26.7088 	 83.3898
| 13> C 	 0.878754 	 -29.4488 	 82.2619
| 14> H 	 -0.160304 	 -29.2739 	 81.8959
| 15> H 	 1.01355 	 -30.537 	 82.3856
| 16> C 	 1.86437 	 -29.0193 	 81.1757
| 17> H 	 1.68376 	 -28.0143 	 80.8297
| 18> H 	 2.89479 	 -28.9571 	 81.611
| 19> C 	 1.96853 	 -30.0333 	 80.0371
| 20> H 	 1.09797 	 -30.3369 	 79.5211
| 21> H 	 2.53703 	 -29.6079 	 79.2934
| 22> H 	 2.36572 	 -30.9397 	 80.4484
| 23> S 	 2.1948 	 -25.5261 	 87.0329
| 24> C 	 1.66295 	 -23.8908 	 87.3142
| 25> C 	 0.504248 	 -23.7299 	 86.5793
| 26> C 	 0.0474221 	 -24.8189 	 85.757
| 27> C 	 0.870551 	 -25.9214 	 85.942
| 28> H 	 -0.135989 	 -22.8833 	 86.8075
| 29> C 	 -1.27326 	 -24.7935 	 85.0035
| 30> H 	 -2.02128 	 -24.1705 	 85.5102
| 31> H 	 -1.73364 	 -25.8237 	 84.9604
| 32> C 	 -1.14954 	 -24.2442 	 83.587
| 33> H 	 -2.19237 	 -24.0862 	 83.4082
| 34> H 	 -0.559705 	 -25.0193 	 83.0228
| 35> C 	 -0.371051 	 -22.9785 	 83.3307
| 36> H 	 0.74829 	 -23.0895 	 83.314
| 37> H 	 -0.514721 	 -22.2958 	 84.1619
| 38> H 	 -0.677107 	 -22.2806 	 82.5677
| 39> H 	 1.48554 	 -30.6512 	 84.6319
| 40> H 	 2.15018 	 -23.1808 	 87.9208
| 41> *
| 42>
| 43>                          ****END OF INPUT****

CARTESIAN COORDINATES (ANGSTROEM)
---------------------------------
  S      1.211940  -28.712600   86.206000
  C      1.202390  -29.638500   84.701100
  C      1.008480  -28.847100   83.603500
  C      0.718963  -27.489400   84.033700
  C      0.900910  -27.231300   85.349100
  H      0.453871  -26.708800   83.389800
  C      0.878754  -29.448800   82.261900
  H     -0.160304  -29.273900   81.895900
  H      1.013550  -30.537000   82.385600
  C      1.864370  -29.019300   81.175700
  H      1.683760  -28.014300   80.829700
  H      2.894790  -28.957100   81.611000
  C      1.968530  -30.033300   80.037100
  H      1.097970  -30.336900   79.521100
  H      2.537030  -29.607900   79.293400
  H      2.365720  -30.939700   80.448400
  S      2.194800  -25.526100   87.032900
  C      1.662950  -23.890800   87.314200
  C      0.504248  -23.729900   86.579300
  C      0.047422  -24.818900   85.757000
  C      0.870551  -25.921400   85.942000
  H     -0.135989  -22.883300   86.807500
  C     -1.273260  -24.793500   85.003500
  H     -2.021280  -24.170500   85.510200
  H     -1.733640  -25.823700   84.960400
  C     -1.149540  -24.244200   83.587000
  H     -2.192370  -24.086200   83.408200
  H     -0.559705  -25.019300   83.022800
  C     -0.371051  -22.978500   83.330700
  H      0.748290  -23.089500   83.314000
  H     -0.514721  -22.295800   84.161900
  H     -0.677107  -22.280600   82.567700
  H      1.485540  -30.651200   84.631900
  H      2.150180  -23.180800   87.920800

 Total Charge           Charge          ....    0
 Multiplicity           Mult            ....    1
 Number of Electrons    NEL             ....  134
 Basis Dimension        Dim             ....  322

ORBITAL ENERGIES
----------------

  NO   OCC          E(Eh)            E(eV)
   0   2.0000     -88.964639     -2420.8509
   1   2.0000     -88.962451     -2420.7914
   2   2.0000     -10.328638      -281.0565
   3   2.0000     -10.325769      -280.9785
   4   2.0000     -10.315775      -280.7065
   5   2.0000     -10.309718      -280.5417
   6   2.0000     -10.304561      -280.4014
   7   2.0000     -10.299351      -280.2596
   8   2.0000     -10.298091      -280.2253
   9   2.0000     -10.294065      -280.1158
  10   2.0000     -10.293933      -280.1121
  11   2.0000     -10.288744      -279.9710
  12   2.0000     -10.288476      -279.9637
  13   2.0000     -10.286946      -279.9220
  14   2.0000     -10.275459      -279.6094
  15   2.0000     -10.267081      -279.3815
  16   2.0000      -8.079435      -219.8526
  17   2.0000      -8.077326      -219.7952
  18   2.0000      -6.038091      -164.3048
  19   2.0000      -6.035852      -164.2439
  20   2.0000      -6.033999      -164.1935
  21   2.0000      -6.031658      -164.1298
  22   2.0000      -6.029966      -164.0837
  23   2.0000      -6.028194      -164.0355
  24   2.0000      -1.009940       -27.4819
  25   2.0000      -0.985463       -26.8158
  26   2.0000      -0.917105       -24.9557
  27   2.0000      -0.914969       -24.8976
  28   2.0000      -0.876305       -23.8455
  29   2.0000      -0.852442       -23.1961
  30   2.0000      -0.843116       -22.9424
  31   2.0000      -0.819755       -22.3067
  32   2.0000      -0.788696       -21.4615
  33   2.0000      -0.778616       -21.1872
  34   2.0000      -0.714259       -19.4360
  35   2.0000      -0.699564       -19.0361
  36   2.0000      -0.689967       -18.7750
  37   2.0000      -0.665657       -18.1134
  38   2.0000      -0.646034       -17.5795
  39   2.0000      -0.621893       -16.9226
  40   2.0000      -0.602321       -16.3900
  41   2.0000      -0.572420       -15.5764
  42   2.0000      -0.569370       -15.4933
  43   2.0000      -0.566868       -15.4253
  44   2.0000      -0.539609       -14.6835
  45   2.0000      -0.524779       -14.2800
  46   2.0000      -0.517237       -14.0747
  47   2.0000      -0.514918       -14.0116
  48   2.0000      -0.506931       -13.7943
  49   2.0000      -0.500578       -13.6214
  50   2.0000      -0.496684       -13.5155
  51   2.0000      -0.491122       -13.3641
  52   2.0000      -0.474357       -12.9079
  53   2.0000      -0.465814       -12.6755
  54   2.0000      -0.459540       -12.5047
  55   2.0000      -0.447423       -12.1750
  56   2.0000      -0.444374       -12.0920
  57   2.0000      -0.438988       -11.9455
  58   2.0000      -0.435659       -11.8549
  59   2.0000      -0.423949       -11.5363
  60   2.0000      -0.417139       -11.3509
  61   2.0000      -0.411868       -11.2075
  62   2.0000      -0.400054       -10.8860
  63   2.0000      -0.353671        -9.6239
  64   2.0000      -0.329057        -8.9541
  65   2.0000      -0.327692        -8.9169
  66   2.0000      -0.292858        -7.9691
  67   0.0000       0.029820         0.8114
  68   0.0000       0.075265         2.0481
  69   0.0000       0.115249         3.1361
  70   0.0000       0.120611         3.2820
  71   0.0000       0.126777         3.4498

MULLIKEN ATOMIC CHARGES
-----------------------
   0 S :    0.106394
   1 C :   -0.111771
   2 C :   -0.062996
   3 C :    0.053085
   4 C :   -0.111450
   5 H :   -0.050987
   6 C :    0.050350
   7 H :    0.044900
   8 H :    0.010761
   9 C :   -0.092531
  10 H :    0.024848
  11 H :    0.032766
  12 C :    0.006623
  13 H :    0.013053
  14 H :    0.016269
  15 H :    0.024131
  16 S :    0.094469
  17 C :   -0.075934
  18 C :   -0.043254
  19 C :   -0.025645
  20 C :   -0.158013
  21 H :    0.022653
  22 C :    0.028992
  23 H :    0.022872
  24 H :    0.050340
  25 C :   -0.054496
  26 H :    0.029264
  27 H :    0.044945
  28 C :   -0.052955
  29 H :    0.048232
  30 H :   -0.002984
  31 H :    0.033929
  32 H :    0.035913
  33 H :    0.048227
Sum of atomic charges:   -0.0000000

LOEWDIN ATOMIC CHARGES
----------------------
   0 S :    0.394875
   1 C :   -0.179861
   2 C :   -0.059599
   3 C :   -0.055369
   4 C :   -0.195796
   5 H :    0.015107
   6 C :   -0.035435
   7 H :    0.039251
   8 H :    0.031486
   9 C :   -0.039684
  10 H :    0.017951
  11 H :    0.031005
  12 C :   -0.054812
  13 H :    0.019433
  14 H :    0.019382
  15 H :    0.024493
  16 S :    0.404503
  17 C :   -0.184055
  18 C :   -0.072079
  19 C :   -0.062224
  20 C :   -0.186065
  21 H :    0.027553
  22 C :   -0.033024
  23 H :    0.029577
  24 H :    0.042727
  25 C :   -0.043586
  26 H :    0.027444
  27 H :    0.028295
  28 C :   -0.082117
  29 H :    0.035920
  30 H :    0.021013
  31 H :    0.029009
  32 H :    0.019210
  33 H :    0.025472

  Mayer bond orders larger than 0.100000
B(  0-S ,  1-C ) :   1.1198 B(  0-S ,  4-C ) :   1.1313 B(  1-C ,  2-C ) :   1.6387
B(  1-C , 32-H ) :   0.9655 B(  2-C ,  3-C ) :   1.2056 B(  2-C ,  6-C ) :   1.0448
B(  3-C ,  4-C ) :   1.5937 B(  3-C ,  5-H ) :   1.0068 B(  4-C , 20-C ) :   1.0459
B(  6-C ,  7-H ) :   0.9317 B(  6-C ,  8-H ) :   0.9425 B(  6-C ,  9-C ) :   1.0523
B(  9-C , 10-H ) :   0.9562 B(  9-C , 11-H ) :   0.9571 B(  9-C , 12-C ) :   1.0867
B( 12-C , 13-H ) :   0.9732 B( 12-C , 14-H ) :   0.9713 B( 12-C , 15-H ) :   0.9734
B( 16-S , 17-C ) :   1.1462 B( 16-S , 20-C ) :   1.1513 B( 17-C , 18-C ) :   1.5946
B( 17-C , 20-C ) :   0.1052 B( 17-C , 33-H ) :   0.9794 B( 18-C , 19-C ) :   1.2514
B( 18-C , 21-H ) :   0.9784 B( 19-C , 20-C ) :   1.5785 B( 19-C , 22-C ) :   1.0414
B( 22-C , 23-H ) :   0.9363 B( 22-C , 24-H ) :   0.9401 B( 22-C , 25-C ) :   1.0725
B( 25-C , 26-H ) :   0.9518 B( 25-C , 27-H ) :   0.9496 B( 25-C , 28-C ) :   1.0882
B( 28-C , 29-H ) :   0.9687 B( 28-C , 30-H ) :   0.9638 B( 28-C , 31-H ) :   0.9711

Dispersion correction           -0.014366191
FINAL SINGLE POINT ENERGY     -1339.867265824472

DIPOLE MOMENT
-------------
                                X             Y             Z
Electronic contribution:      6.90594      -2.62333      27.26327
Nuclear contribution   :     -7.22665       2.83494     -27.80443
                        -----------------------------------------
Total Dipole Moment    :     -0.32071       0.21161      -0.54116
                        -----------------------------------------
Magnitude (a.u.)       :      0.66370
Magnitude (Debye)      :      1.68699

Rotational constants in cm-1:     0.019091     0.008485     0.006612
Rotational constants in MHz :   572.345460   254.365685   198.224800

                             ****ORCA TERMINATED NORMALLY****
TOTAL RUN TIME: 0 days 0 hours 0 minutes 32 seconds 180 msec
