                         Program Version 4.2.1 -  RELEASE  -
|  1> ! wB97X-D3 SP def2-SVP
|  2> %pal
|  3> nprocs 16
|  4> end
|  5>
|  6> * xyz 0 1
|  7> S 	 18.7281 	 -7.75076 	 83.1774
|  8> C 	 18.1527 	 -8.35373 	 81.6456
|  9> C 	 16.9668 	 -9.02092 	 81.7989
| 10> C 	 16.6667 	 -9.18685 	 83.1724
| 11> C 	 17.5536 	 -8.63785 	 84.0836
| 12> H 	 15.6934 	 -9.56343 	 83.5394
| 13> C 	 16.0886 	 -9.69579 	 80.708
| 14> H 	 15.7796 	 -8.92042 	 79.9396
| 15> H 	 15.1281 	 -9.79216 	 81.1845
| 16> C 	 16.7812 	 -10.9357 	 80.0735
| 17> H 	 17.7649 	 -10.6888 	 79.8141
| 18> H 	 16.9942 	 -11.6955 	 80.8178
| 19> C 	 16.0663 	 -11.5681 	 78.7621
| 20> H 	 15.9017 	 -10.7981 	 78.0521
| 21> H 	 16.7677 	 -12.3823 	 78.5244
| 22> H 	 15.0899 	 -12.0587 	 78.9483
| 23> S 	 15.7777 	 -8.43164 	 86.1757
| 24> C 	 16.3372 	 -7.77749 	 87.6596
| 25> C 	 17.7365 	 -7.71671 	 87.7388
| 26> C 	 18.3674 	 -8.19451 	 86.5185
| 27> C 	 17.4177 	 -8.40408 	 85.5147
| 28> H 	 18.24 	 -7.39645 	 88.6469
| 29> C 	 19.8966 	 -8.32525 	 86.3269
| 30> H 	 20.3436 	 -7.38591 	 86.4875
| 31> H 	 20.1277 	 -8.51351 	 85.2636
| 32> C 	 20.5784 	 -9.44251 	 87.0509
| 33> H 	 20.2506 	 -10.4627 	 86.7542
| 34> H 	 20.3493 	 -9.41428 	 88.1665
| 35> C 	 22.0756 	 -9.39233 	 86.7272
| 36> H 	 22.5824 	 -10.1034 	 87.3688
| 37> H 	 22.4071 	 -8.40855 	 87.0304
| 38> H 	 22.3128 	 -9.56513 	 85.7017
| 39> H 	 18.633 	 -8.19046 	 80.7085
| 40> H 	 15.7317 	 -7.61708 	 88.533
| 41> *
| 42>
| 43>                          ****END OF INPUT****

CARTESIAN COORDINATES (ANGSTROEM)
---------------------------------
  S     18.728100   -7.750760   83.177400
  C     18.152700   -8.353730   81.645600
  C     16.966800   -9.020920   81.798900
  C     16.666700   -9.186850   83.172400
  C     17.553600   -8.637850   84.083600
  H     15.693400   -9.563430   83.539400
  C     16.088600   -9.695790   80.708000
  H     15.779600   -8.920420   79.939600
  H     15.128100   -9.792160   81.184500
  C     16.781200  -10.935700   80.073500
  H     17.764900  -10.688800   79.814100
  H     16.994200  -11.695500   80.817800
  C     16.066300  -11.568100   78.762100
  H     15.901700  -10.798100   78.052100
  H     16.767700  -12.382300   78.524400
  H     15.089900  -12.058700   78.948300
  S     15.777700   -8.431640   86.175700
  C     16.337200   -7.777490   87.659600
  C     17.736500   -7.716710   87.738800
  C     18.367400   -8.194510   86.518500
  C     17.417700   -8.404080   85.514700
  H     18.240000   -7.396450   88.646900
  C     19.896600   -8.325250   86.326900
  H     20.343600   -7.385910   86.487500
  H     20.127700   -8.513510   85.263600
  C     20.578400   -9.442510   87.050900
  H     20.250600  -10.462700   86.754200
  H     20.349300   -9.414280   88.166500
  C     22.075600   -9.392330   86.727200
  H     22.582400  -10.103400   87.368800
  H     22.407100   -8.408550   87.030400
  H     22.312800   -9.565130   85.701700
  H     18.633000   -8.190460   80.708500
  H     15.731700   -7.617080   88.533000

 Total Charge           Charge          ....    0
 Multiplicity           Mult            ....    1
 Number of Electrons    NEL             ....  134
 Basis Dimension        Dim             ....  322

ORBITAL ENERGIES
----------------

  NO   OCC          E(Eh)            E(eV)
   0   2.0000     -88.966906     -2420.9126
   1   2.0000     -88.964446     -2420.8457
   2   2.0000     -10.329615      -281.0831
   3   2.0000     -10.327545      -281.0268
   4   2.0000     -10.318115      -280.7702
   5   2.0000     -10.309899      -280.5466
   6   2.0000     -10.309732      -280.5421
   7   2.0000     -10.299422      -280.2615
   8   2.0000     -10.299306      -280.2584
   9   2.0000     -10.299289      -280.2579
  10   2.0000     -10.291397      -280.0432
  11   2.0000     -10.290477      -280.0181
  12   2.0000     -10.288409      -279.9619
  13   2.0000     -10.287011      -279.9238
  14   2.0000     -10.285585      -279.8850
  15   2.0000     -10.272566      -279.5307
  16   2.0000      -8.081937      -219.9207
  17   2.0000      -8.079288      -219.8486
  18   2.0000      -6.040414      -164.3680
  19   2.0000      -6.037817      -164.2974
  20   2.0000      -6.036537      -164.2625
  21   2.0000      -6.033673      -164.1846
  22   2.0000      -6.032604      -164.1555
  23   2.0000      -6.030114      -164.0877
  24   2.0000      -1.008943       -27.4547
  25   2.0000      -0.985149       -26.8073
  26   2.0000      -0.913280       -24.8516
  27   2.0000      -0.901634       -24.5347
  28   2.0000      -0.866183       -23.5700
  29   2.0000      -0.852582       -23.1999
  30   2.0000      -0.841752       -22.9052
  31   2.0000      -0.808973       -22.0133
  32   2.0000      -0.783618       -21.3233
  33   2.0000      -0.773334       -21.0435
  34   2.0000      -0.712456       -19.3869
  35   2.0000      -0.701496       -19.0887
  36   2.0000      -0.692791       -18.8518
  37   2.0000      -0.665720       -18.1152
  38   2.0000      -0.634008       -17.2522
  39   2.0000      -0.615618       -16.7518
  40   2.0000      -0.598513       -16.2864
  41   2.0000      -0.566728       -15.4215
  42   2.0000      -0.565098       -15.3771
  43   2.0000      -0.548823       -14.9342
  44   2.0000      -0.530234       -14.4284
  45   2.0000      -0.525944       -14.3117
  46   2.0000      -0.516153       -14.0452
  47   2.0000      -0.514225       -13.9928
  48   2.0000      -0.506020       -13.7695
  49   2.0000      -0.499634       -13.5957
  50   2.0000      -0.487435       -13.2638
  51   2.0000      -0.474281       -12.9058
  52   2.0000      -0.473545       -12.8858
  53   2.0000      -0.465212       -12.6591
  54   2.0000      -0.463045       -12.6001
  55   2.0000      -0.451320       -12.2810
  56   2.0000      -0.448675       -12.2091
  57   2.0000      -0.444622       -12.0988
  58   2.0000      -0.432388       -11.7659
  59   2.0000      -0.422106       -11.4861
  60   2.0000      -0.416833       -11.3426
  61   2.0000      -0.414771       -11.2865
  62   2.0000      -0.403633       -10.9834
  63   2.0000      -0.354394        -9.6436
  64   2.0000      -0.332809        -9.0562
  65   2.0000      -0.328127        -8.9288
  66   2.0000      -0.284226        -7.7342
  67   0.0000       0.020958         0.5703
  68   0.0000       0.078889         2.1467
  69   0.0000       0.108064         2.9406
  70   0.0000       0.120074         3.2674
  71   0.0000       0.133520         3.6333

MULLIKEN ATOMIC CHARGES
-----------------------
   0 S :    0.100632
   1 C :   -0.119151
   2 C :   -0.101451
   3 C :   -0.027198
   4 C :   -0.111858
   5 H :    0.019829
   6 C :    0.077254
   7 H :    0.029884
   8 H :    0.012542
   9 C :   -0.048909
  10 H :    0.009762
  11 H :    0.026474
  12 C :   -0.053335
  13 H :    0.037076
  14 H :    0.044178
  15 H :    0.039803
  16 S :    0.103819
  17 C :   -0.077267
  18 C :   -0.039124
  19 C :   -0.036347
  20 C :   -0.133957
  21 H :    0.023296
  22 C :    0.063612
  23 H :    0.020223
  24 H :    0.016236
  25 C :   -0.103390
  26 H :    0.033158
  27 H :    0.032819
  28 C :   -0.013980
  29 H :    0.029809
  30 H :    0.015747
  31 H :    0.036814
  32 H :    0.037337
  33 H :    0.055664
Sum of atomic charges:    0.0000000

LOEWDIN ATOMIC CHARGES
----------------------
   0 S :    0.431634
   1 C :   -0.194878
   2 C :   -0.065636
   3 C :   -0.081439
   4 C :   -0.197315
   5 H :    0.027107
   6 C :   -0.033597
   7 H :    0.035517
   8 H :    0.025981
   9 C :   -0.033774
  10 H :    0.016518
  11 H :    0.026818
  12 C :   -0.062180
  13 H :    0.019284
  14 H :    0.032945
  15 H :    0.027580
  16 S :    0.413730
  17 C :   -0.191289
  18 C :   -0.070527
  19 C :   -0.048046
  20 C :   -0.193101
  21 H :    0.032001
  22 C :   -0.039336
  23 H :    0.024454
  24 H :    0.022548
  25 C :   -0.043749
  26 H :    0.027322
  27 H :    0.025161
  28 C :   -0.055657
  29 H :    0.026472
  30 H :    0.021152
  31 H :    0.023469
  32 H :    0.022922
  33 H :    0.027909

  Mayer bond orders larger than 0.100000
B(  0-S ,  1-C ) :   1.1504 B(  0-S ,  4-C ) :   1.1609 B(  1-C ,  2-C ) :   1.5867
B(  1-C , 32-H ) :   0.9750 B(  2-C ,  3-C ) :   1.2854 B(  2-C ,  6-C ) :   1.0140
B(  3-C ,  4-C ) :   1.5473 B(  3-C ,  5-H ) :   0.9804 B(  4-C , 20-C ) :   1.0756
B(  6-C ,  7-H ) :   0.9414 B(  6-C ,  8-H ) :   0.9420 B(  6-C ,  9-C ) :   1.0454
B(  9-C , 10-H ) :   0.9591 B(  9-C , 11-H ) :   0.9566 B(  9-C , 12-C ) :   1.0625
B( 12-C , 13-H ) :   0.9791 B( 12-C , 14-H ) :   0.9768 B( 12-C , 15-H ) :   0.9805
B( 16-S , 17-C ) :   1.1648 B( 16-S , 20-C ) :   1.1294 B( 17-C , 18-C ) :   1.6040
B( 17-C , 33-H ) :   0.9676 B( 18-C , 19-C ) :   1.2340 B( 18-C , 21-H ) :   0.9904
B( 19-C , 20-C ) :   1.5743 B( 19-C , 22-C ) :   1.0279 B( 22-C , 23-H ) :   0.9380
B( 22-C , 24-H ) :   0.9262 B( 22-C , 25-C ) :   1.0654 B( 25-C , 26-H ) :   0.9521
B( 25-C , 27-H ) :   0.9572 B( 25-C , 28-C ) :   1.0797 B( 28-C , 29-H ) :   0.9725
B( 28-C , 30-H ) :   0.9734 B( 28-C , 31-H ) :   0.9753

Dispersion correction           -0.013323324
FINAL SINGLE POINT ENERGY     -1339.871909486221

DIPOLE MOMENT
-------------
                                X             Y             Z
Electronic contribution:     -9.52059      12.79748      10.02085
Nuclear contribution   :      9.63150     -12.97988     -10.06601
                        -----------------------------------------
Total Dipole Moment    :      0.11091      -0.18240      -0.04516
                        -----------------------------------------
Magnitude (a.u.)       :      0.21820
Magnitude (Debye)      :      0.55462

Rotational constants in cm-1:     0.020582     0.007250     0.005999
Rotational constants in MHz :   617.031122   217.334857   179.846386

                             ****ORCA TERMINATED NORMALLY****
TOTAL RUN TIME: 0 days 0 hours 0 minutes 28 seconds 764 msec
