                         Program Version 4.2.1 -  RELEASE  -
|  1> ! wB97X-D3 SP def2-SVP
|  2> %pal
|  3> nprocs 16
|  4> end
|  5>
|  6> * xyz 0 1
|  7> S 	 -3.1451 	 -19.9074 	 84.4507
|  8> C 	 -1.4907 	 -19.2209 	 84.3567
|  9> C 	 -0.74696 	 -19.5019 	 85.5145
| 10> C 	 -1.53211 	 -20.1417 	 86.5035
| 11> C 	 -2.90144 	 -20.3273 	 86.1325
| 12> H 	 -1.1528 	 -20.4817 	 87.5177
| 13> C 	 0.612672 	 -18.9145 	 85.8091
| 14> H 	 0.459769 	 -18.0849 	 86.5696
| 15> H 	 0.94474 	 -18.5308 	 84.8683
| 16> C 	 1.65342 	 -19.9007 	 86.2672
| 17> H 	 2.29827 	 -19.302 	 86.9255
| 18> H 	 1.17951 	 -20.6982 	 86.9287
| 19> C 	 2.33665 	 -20.675 	 85.2103
| 20> H 	 1.8263 	 -21.5314 	 84.9712
| 21> H 	 2.56012 	 -20.0264 	 84.3342
| 22> H 	 3.27001 	 -20.905 	 85.6769
| 23> S 	 -4.2173 	 -22.5522 	 86.9554
| 24> C 	 -5.44032 	 -22.3378 	 88.1872
| 25> C 	 -5.56363 	 -21.0585 	 88.6161
| 26> C 	 -4.79974 	 -20.1808 	 87.8567
| 27> C 	 -3.99154 	 -20.8348 	 86.9194
| 28> H 	 -6.341 	 -20.7133 	 89.3102
| 29> C 	 -4.8774 	 -18.7233 	 88.0984
| 30> H 	 -5.91487 	 -18.4678 	 88.2905
| 31> H 	 -4.6299 	 -18.3924 	 87.0857
| 32> C 	 -4.00209 	 -18.1427 	 89.2098
| 33> H 	 -2.9972 	 -18.3648 	 88.9085
| 34> H 	 -4.19648 	 -18.599 	 90.1607
| 35> C 	 -4.25814 	 -16.5912 	 89.2767
| 36> H 	 -4.15168 	 -16.2212 	 88.2491
| 37> H 	 -3.55079 	 -16.0669 	 89.9265
| 38> H 	 -5.25684 	 -16.4954 	 89.7161
| 39> H 	 -1.18603 	 -18.5732 	 83.5327
| 40> H 	 -6.12142 	 -23.127 	 88.5784
| 41> *
| 42>
| 43>                          ****END OF INPUT****

CARTESIAN COORDINATES (ANGSTROEM)
---------------------------------
  S     -3.145100  -19.907400   84.450700
  C     -1.490700  -19.220900   84.356700
  C     -0.746960  -19.501900   85.514500
  C     -1.532110  -20.141700   86.503500
  C     -2.901440  -20.327300   86.132500
  H     -1.152800  -20.481700   87.517700
  C      0.612672  -18.914500   85.809100
  H      0.459769  -18.084900   86.569600
  H      0.944740  -18.530800   84.868300
  C      1.653420  -19.900700   86.267200
  H      2.298270  -19.302000   86.925500
  H      1.179510  -20.698200   86.928700
  C      2.336650  -20.675000   85.210300
  H      1.826300  -21.531400   84.971200
  H      2.560120  -20.026400   84.334200
  H      3.270010  -20.905000   85.676900
  S     -4.217300  -22.552200   86.955400
  C     -5.440320  -22.337800   88.187200
  C     -5.563630  -21.058500   88.616100
  C     -4.799740  -20.180800   87.856700
  C     -3.991540  -20.834800   86.919400
  H     -6.341000  -20.713300   89.310200
  C     -4.877400  -18.723300   88.098400
  H     -5.914870  -18.467800   88.290500
  H     -4.629900  -18.392400   87.085700
  C     -4.002090  -18.142700   89.209800
  H     -2.997200  -18.364800   88.908500
  H     -4.196480  -18.599000   90.160700
  C     -4.258140  -16.591200   89.276700
  H     -4.151680  -16.221200   88.249100
  H     -3.550790  -16.066900   89.926500
  H     -5.256840  -16.495400   89.716100
  H     -1.186030  -18.573200   83.532700
  H     -6.121420  -23.127000   88.578400

 Total Charge           Charge          ....    0
 Multiplicity           Mult            ....    1
 Number of Electrons    NEL             ....  134
 Basis Dimension        Dim             ....  322

ORBITAL ENERGIES
----------------

  NO   OCC          E(Eh)            E(eV)
   0   2.0000     -88.967068     -2420.9170
   1   2.0000     -88.966295     -2420.8960
   2   2.0000     -10.330890      -281.1178
   3   2.0000     -10.318673      -280.7854
   4   2.0000     -10.318363      -280.7769
   5   2.0000     -10.315681      -280.7039
   6   2.0000     -10.302763      -280.3524
   7   2.0000     -10.301607      -280.3210
   8   2.0000     -10.293868      -280.1104
   9   2.0000     -10.291027      -280.0331
  10   2.0000     -10.284988      -279.8687
  11   2.0000     -10.284652      -279.8596
  12   2.0000     -10.282226      -279.7936
  13   2.0000     -10.282126      -279.7909
  14   2.0000     -10.280191      -279.7382
  15   2.0000     -10.267803      -279.4011
  16   2.0000      -8.081356      -219.9049
  17   2.0000      -8.080896      -219.8924
  18   2.0000      -6.039737      -164.3496
  19   2.0000      -6.039301      -164.3377
  20   2.0000      -6.035848      -164.2438
  21   2.0000      -6.035462      -164.2333
  22   2.0000      -6.032203      -164.1446
  23   2.0000      -6.031891      -164.1361
  24   2.0000      -1.007697       -27.4208
  25   2.0000      -0.980314       -26.6757
  26   2.0000      -0.920977       -25.0610
  27   2.0000      -0.910719       -24.7819
  28   2.0000      -0.872498       -23.7419
  29   2.0000      -0.852311       -23.1926
  30   2.0000      -0.845638       -23.0110
  31   2.0000      -0.809711       -22.0333
  32   2.0000      -0.785547       -21.3758
  33   2.0000      -0.765534       -20.8313
  34   2.0000      -0.709038       -19.2939
  35   2.0000      -0.697533       -18.9808
  36   2.0000      -0.684986       -18.6394
  37   2.0000      -0.662592       -18.0300
  38   2.0000      -0.634493       -17.2654
  39   2.0000      -0.617411       -16.8006
  40   2.0000      -0.592795       -16.1308
  41   2.0000      -0.572220       -15.5709
  42   2.0000      -0.567037       -15.4299
  43   2.0000      -0.558495       -15.1974
  44   2.0000      -0.542093       -14.7511
  45   2.0000      -0.522869       -14.2280
  46   2.0000      -0.519046       -14.1240
  47   2.0000      -0.513418       -13.9708
  48   2.0000      -0.508745       -13.8436
  49   2.0000      -0.490686       -13.3522
  50   2.0000      -0.487500       -13.2655
  51   2.0000      -0.473805       -12.8929
  52   2.0000      -0.468283       -12.7426
  53   2.0000      -0.462498       -12.5852
  54   2.0000      -0.457767       -12.4565
  55   2.0000      -0.453285       -12.3345
  56   2.0000      -0.444794       -12.1035
  57   2.0000      -0.440325       -11.9819
  58   2.0000      -0.435117       -11.8401
  59   2.0000      -0.423637       -11.5277
  60   2.0000      -0.420957       -11.4548
  61   2.0000      -0.414511       -11.2794
  62   2.0000      -0.407662       -11.0930
  63   2.0000      -0.339747        -9.2450
  64   2.0000      -0.330006        -8.9799
  65   2.0000      -0.309423        -8.4198
  66   2.0000      -0.308255        -8.3880
  67   0.0000       0.040294         1.0965
  68   0.0000       0.049502         1.3470
  69   0.0000       0.112965         3.0739
  70   0.0000       0.119252         3.2450
  71   0.0000       0.120257         3.2724

MULLIKEN ATOMIC CHARGES
-----------------------
   0 S :    0.113854
   1 C :   -0.142622
   2 C :   -0.091856
   3 C :    0.037287
   4 C :   -0.210780
   5 H :    0.040597
   6 C :    0.077833
   7 H :    0.055400
   8 H :    0.000779
   9 C :   -0.124705
  10 H :    0.026446
  11 H :    0.031376
  12 C :    0.020336
  13 H :    0.029645
  14 H :    0.025350
  15 H :    0.025287
  16 S :    0.127374
  17 C :   -0.097944
  18 C :   -0.033622
  19 C :   -0.024415
  20 C :   -0.189293
  21 H :    0.023160
  22 C :    0.059932
  23 H :    0.010851
  24 H :    0.022602
  25 C :   -0.040545
  26 H :    0.018342
  27 H :    0.022088
  28 C :   -0.043981
  29 H :    0.040041
  30 H :    0.036332
  31 H :    0.034471
  32 H :    0.056778
  33 H :    0.063604
Sum of atomic charges:   -0.0000000

LOEWDIN ATOMIC CHARGES
----------------------
   0 S :    0.395827
   1 C :   -0.191698
   2 C :   -0.069559
   3 C :   -0.065378
   4 C :   -0.203537
   5 H :    0.040851
   6 C :   -0.031226
   7 H :    0.042682
   8 H :    0.022069
   9 C :   -0.050941
  10 H :    0.023634
  11 H :    0.030651
  12 C :   -0.051903
  13 H :    0.018196
  14 H :    0.027153
  15 H :    0.030987
  16 S :    0.421136
  17 C :   -0.185265
  18 C :   -0.079067
  19 C :   -0.049893
  20 C :   -0.228027
  21 H :    0.036996
  22 C :   -0.034149
  23 H :    0.026106
  24 H :    0.033084
  25 C :   -0.028858
  26 H :    0.019303
  27 H :    0.018796
  28 C :   -0.061706
  29 H :    0.029040
  30 H :    0.024102
  31 H :    0.026033
  32 H :    0.028310
  33 H :    0.036250

  Mayer bond orders larger than 0.100000
B(  0-S ,  1-C ) :   1.1411 B(  0-S ,  4-C ) :   1.1649 B(  1-C ,  2-C ) :   1.5856
B(  1-C ,  4-C ) :   0.1137 B(  1-C , 32-H ) :   0.9669 B(  2-C ,  3-C ) :   1.2540
B(  2-C ,  6-C ) :   1.0248 B(  3-C ,  4-C ) :   1.5614 B(  3-C ,  5-H ) :   0.9784
B(  4-C , 20-C ) :   1.0208 B(  6-C ,  7-H ) :   0.9430 B(  6-C ,  8-H ) :   0.9366
B(  6-C ,  9-C ) :   1.0661 B(  9-C , 10-H ) :   0.9584 B(  9-C , 11-H ) :   0.9549
B(  9-C , 12-C ) :   1.0753 B( 12-C , 13-H ) :   0.9753 B( 12-C , 14-H ) :   0.9726
B( 12-C , 15-H ) :   0.9686 B( 16-S , 17-C ) :   1.1625 B( 16-S , 20-C ) :   1.1513
B( 17-C , 18-C ) :   1.6051 B( 17-C , 20-C ) :   0.1000 B( 17-C , 33-H ) :   0.9577
B( 18-C , 19-C ) :   1.2743 B( 18-C , 21-H ) :   0.9817 B( 19-C , 20-C ) :   1.5804
B( 19-C , 22-C ) :   1.0411 B( 22-C , 23-H ) :   0.9328 B( 22-C , 24-H ) :   0.9215
B( 22-C , 25-C ) :   1.0644 B( 25-C , 26-H ) :   0.9513 B( 25-C , 27-H ) :   0.9581
B( 25-C , 28-C ) :   1.0751 B( 28-C , 29-H ) :   0.9756 B( 28-C , 30-H ) :   0.9767
B( 28-C , 31-H ) :   0.9769

Dispersion correction           -0.014277533
FINAL SINGLE POINT ENERGY     -1339.868183940037

DIPOLE MOMENT
-------------
                                X             Y             Z
Electronic contribution:    -15.37868     -15.66110     -10.10738
Nuclear contribution   :     15.63922      16.00755      10.52903
                        -----------------------------------------
Total Dipole Moment    :      0.26055       0.34645       0.42165
                        -----------------------------------------
Magnitude (a.u.)       :      0.60473
Magnitude (Debye)      :      1.53711

Rotational constants in cm-1:     0.017777     0.008557     0.007197
Rotational constants in MHz :   532.934855   256.546464   215.767590

                             ****ORCA TERMINATED NORMALLY****
TOTAL RUN TIME: 0 days 0 hours 0 minutes 33 seconds 817 msec
