                         Program Version 4.2.1 -  RELEASE  -
|  1> ! wB97X-D3 SP def2-SVP
|  2> %pal
|  3> nprocs 16
|  4> end
|  5>
|  6> * xyz 0 1
|  7> S 	 -16.2929 	 56.8006 	 63.605
|  8> C 	 -14.9194 	 55.709 	 63.8368
|  9> C 	 -13.7775 	 56.2754 	 63.2439
| 10> C 	 -14.0642 	 57.5966 	 62.7942
| 11> C 	 -15.3423 	 58.0968 	 63.0247
| 12> H 	 -13.3857 	 58.2417 	 62.2791
| 13> C 	 -12.4092 	 55.6474 	 62.9871
| 14> H 	 -12.1229 	 55.1262 	 63.872
| 15> H 	 -11.6489 	 56.4308 	 63.0056
| 16> C 	 -12.3059 	 54.7513 	 61.7811
| 17> H 	 -13.0923 	 53.9737 	 61.7966
| 18> H 	 -12.4723 	 55.397 	 60.9193
| 19> C 	 -10.9815 	 54.0151 	 61.6566
| 20> H 	 -10.8145 	 53.2318 	 62.3903
| 21> H 	 -10.8737 	 53.4674 	 60.7047
| 22> H 	 -9.99712 	 54.5505 	 61.7527
| 23> S 	 -17.4839 	 59.4303 	 61.9623
| 24> C 	 -17.5318 	 61.1688 	 61.9011
| 25> C 	 -16.303 	 61.6323 	 62.1117
| 26> C 	 -15.3378 	 60.7082 	 62.6479
| 27> C 	 -15.9109 	 59.4161 	 62.625
| 28> H 	 -16.2221 	 62.7216 	 62.1407
| 29> C 	 -13.9439 	 61.1842 	 62.9813
| 30> H 	 -13.4873 	 61.441 	 62.0467
| 31> H 	 -13.3614 	 60.3061 	 63.3233
| 32> C 	 -13.8259 	 62.2857 	 64.0072
| 33> H 	 -14.2167 	 63.2654 	 63.6826
| 34> H 	 -12.7987 	 62.5929 	 64.2509
| 35> C 	 -14.4064 	 61.752 	 65.3297
| 36> H 	 -15.2853 	 61.1515 	 65.2571
| 37> H 	 -14.613 	 62.5682 	 66.0247
| 38> H 	 -13.7314 	 61.1183 	 65.8182
| 39> H 	 -14.9264 	 54.6701 	 64.1392
| 40> H 	 -18.4002 	 61.8023 	 61.6246
| 41> *
| 42>
| 43>                          ****END OF INPUT****

CARTESIAN COORDINATES (ANGSTROEM)
---------------------------------
  S    -16.292900   56.800600   63.605000
  C    -14.919400   55.709000   63.836800
  C    -13.777500   56.275400   63.243900
  C    -14.064200   57.596600   62.794200
  C    -15.342300   58.096800   63.024700
  H    -13.385700   58.241700   62.279100
  C    -12.409200   55.647400   62.987100
  H    -12.122900   55.126200   63.872000
  H    -11.648900   56.430800   63.005600
  C    -12.305900   54.751300   61.781100
  H    -13.092300   53.973700   61.796600
  H    -12.472300   55.397000   60.919300
  C    -10.981500   54.015100   61.656600
  H    -10.814500   53.231800   62.390300
  H    -10.873700   53.467400   60.704700
  H     -9.997120   54.550500   61.752700
  S    -17.483900   59.430300   61.962300
  C    -17.531800   61.168800   61.901100
  C    -16.303000   61.632300   62.111700
  C    -15.337800   60.708200   62.647900
  C    -15.910900   59.416100   62.625000
  H    -16.222100   62.721600   62.140700
  C    -13.943900   61.184200   62.981300
  H    -13.487300   61.441000   62.046700
  H    -13.361400   60.306100   63.323300
  C    -13.825900   62.285700   64.007200
  H    -14.216700   63.265400   63.682600
  H    -12.798700   62.592900   64.250900
  C    -14.406400   61.752000   65.329700
  H    -15.285300   61.151500   65.257100
  H    -14.613000   62.568200   66.024700
  H    -13.731400   61.118300   65.818200
  H    -14.926400   54.670100   64.139200
  H    -18.400200   61.802300   61.624600

 Total Charge           Charge          ....    0
 Multiplicity           Mult            ....    1
 Number of Electrons    NEL             ....  134
 Basis Dimension        Dim             ....  322

ORBITAL ENERGIES
----------------

  NO   OCC          E(Eh)            E(eV)
   0   2.0000     -88.968043     -2420.9435
   1   2.0000     -88.963591     -2420.8224
   2   2.0000     -10.332827      -281.1705
   3   2.0000     -10.330261      -281.1007
   4   2.0000     -10.318813      -280.7892
   5   2.0000     -10.313540      -280.6457
   6   2.0000     -10.307320      -280.4764
   7   2.0000     -10.304917      -280.4111
   8   2.0000     -10.292310      -280.0680
   9   2.0000     -10.291261      -280.0395
  10   2.0000     -10.290596      -280.0214
  11   2.0000     -10.289811      -280.0000
  12   2.0000     -10.288594      -279.9669
  13   2.0000     -10.287407      -279.9346
  14   2.0000     -10.282655      -279.8053
  15   2.0000     -10.264051      -279.2990
  16   2.0000      -8.082766      -219.9433
  17   2.0000      -8.079596      -219.8570
  18   2.0000      -6.041311      -164.3924
  19   2.0000      -6.038121      -164.3056
  20   2.0000      -6.037181      -164.2800
  21   2.0000      -6.033952      -164.1922
  22   2.0000      -6.033559      -164.1815
  23   2.0000      -6.030227      -164.0908
  24   2.0000      -1.012222       -27.5440
  25   2.0000      -0.989556       -26.9272
  26   2.0000      -0.916465       -24.9383
  27   2.0000      -0.914015       -24.8716
  28   2.0000      -0.871179       -23.7060
  29   2.0000      -0.848692       -23.0941
  30   2.0000      -0.843866       -22.9628
  31   2.0000      -0.816168       -22.2091
  32   2.0000      -0.785317       -21.3696
  33   2.0000      -0.777152       -21.1474
  34   2.0000      -0.710427       -19.3317
  35   2.0000      -0.706375       -19.2214
  36   2.0000      -0.695646       -18.9295
  37   2.0000      -0.655822       -17.8458
  38   2.0000      -0.638506       -17.3746
  39   2.0000      -0.621534       -16.9128
  40   2.0000      -0.597600       -16.2615
  41   2.0000      -0.572212       -15.5707
  42   2.0000      -0.561643       -15.2831
  43   2.0000      -0.560583       -15.2543
  44   2.0000      -0.537422       -14.6240
  45   2.0000      -0.526949       -14.3390
  46   2.0000      -0.517816       -14.0905
  47   2.0000      -0.512521       -13.9464
  48   2.0000      -0.503560       -13.7026
  49   2.0000      -0.500464       -13.6183
  50   2.0000      -0.496320       -13.5056
  51   2.0000      -0.478898       -13.0315
  52   2.0000      -0.468333       -12.7440
  53   2.0000      -0.464274       -12.6335
  54   2.0000      -0.459357       -12.4997
  55   2.0000      -0.446038       -12.1373
  56   2.0000      -0.441673       -12.0185
  57   2.0000      -0.439144       -11.9497
  58   2.0000      -0.434042       -11.8109
  59   2.0000      -0.430495       -11.7144
  60   2.0000      -0.420457       -11.4412
  61   2.0000      -0.414222       -11.2716
  62   2.0000      -0.409110       -11.1325
  63   2.0000      -0.355708        -9.6793
  64   2.0000      -0.330470        -8.9926
  65   2.0000      -0.329085        -8.9549
  66   2.0000      -0.290888        -7.9155
  67   0.0000       0.025193         0.6855
  68   0.0000       0.081228         2.2103
  69   0.0000       0.107253         2.9185
  70   0.0000       0.121505         3.3063
  71   0.0000       0.139952         3.8083

MULLIKEN ATOMIC CHARGES
-----------------------
   0 S :    0.109397
   1 C :   -0.111827
   2 C :   -0.099525
   3 C :    0.015193
   4 C :   -0.132137
   5 H :   -0.000901
   6 C :    0.078018
   7 H :    0.008135
   8 H :    0.017094
   9 C :   -0.025537
  10 H :    0.033488
  11 H :    0.031335
  12 C :   -0.074798
  13 H :    0.021777
  14 H :    0.035102
  15 H :    0.030472
  16 S :    0.100728
  17 C :   -0.110509
  18 C :   -0.024689
  19 C :   -0.077589
  20 C :   -0.137296
  21 H :    0.023224
  22 C :    0.082980
  23 H :    0.033489
  24 H :    0.018415
  25 C :   -0.058473
  26 H :    0.025807
  27 H :    0.026007
  28 C :   -0.034624
  29 H :    0.037482
  30 H :    0.026480
  31 H :    0.013400
  32 H :    0.048614
  33 H :    0.071267
Sum of atomic charges:    0.0000000

LOEWDIN ATOMIC CHARGES
----------------------
   0 S :    0.423252
   1 C :   -0.197159
   2 C :   -0.058306
   3 C :   -0.070162
   4 C :   -0.208483
   5 H :    0.021938
   6 C :   -0.033848
   7 H :    0.025936
   8 H :    0.031254
   9 C :   -0.037270
  10 H :    0.031251
  11 H :    0.027760
  12 C :   -0.080251
  13 H :    0.022607
  14 H :    0.030411
  15 H :    0.029061
  16 S :    0.417676
  17 C :   -0.192135
  18 C :   -0.076097
  19 C :   -0.057059
  20 C :   -0.205168
  21 H :    0.032292
  22 C :   -0.033967
  23 H :    0.031577
  24 H :    0.033197
  25 C :   -0.042284
  26 H :    0.021351
  27 H :    0.029167
  28 C :   -0.059672
  29 H :    0.024311
  30 H :    0.026351
  31 H :    0.019479
  32 H :    0.030693
  33 H :    0.042295

  Mayer bond orders larger than 0.100000
B(  0-S ,  1-C ) :   1.1485 B(  0-S ,  4-C ) :   1.1692 B(  1-C ,  2-C ) :   1.5722
B(  1-C ,  4-C ) :   0.1051 B(  1-C , 32-H ) :   0.9707 B(  2-C ,  3-C ) :   1.2850
B(  2-C ,  6-C ) :   1.0208 B(  3-C ,  4-C ) :   1.5334 B(  3-C ,  5-H ) :   0.9936
B(  4-C , 20-C ) :   1.0300 B(  6-C ,  7-H ) :   0.9344 B(  6-C ,  8-H ) :   0.9378
B(  6-C ,  9-C ) :   1.0669 B(  9-C , 10-H ) :   0.9528 B(  9-C , 11-H ) :   0.9544
B(  9-C , 12-C ) :   1.0763 B( 12-C , 13-H ) :   0.9734 B( 12-C , 14-H ) :   0.9740
B( 12-C , 15-H ) :   0.9747 B( 16-S , 17-C ) :   1.1313 B( 16-S , 20-C ) :   1.1663
B( 17-C , 18-C ) :   1.6513 B( 17-C , 33-H ) :   0.9628 B( 18-C , 19-C ) :   1.2271
B( 18-C , 21-H ) :   0.9771 B( 19-C , 20-C ) :   1.5755 B( 19-C , 22-C ) :   1.0419
B( 22-C , 23-H ) :   0.9322 B( 22-C , 24-H ) :   0.9285 B( 22-C , 25-C ) :   1.0777
B( 25-C , 26-H ) :   0.9581 B( 25-C , 27-H ) :   0.9525 B( 25-C , 28-C ) :   1.0606
B( 28-C , 29-H ) :   0.9791 B( 28-C , 30-H ) :   0.9730 B( 28-C , 31-H ) :   0.9733

Dispersion correction           -0.013985078
FINAL SINGLE POINT ENERGY     -1339.876097040415

DIPOLE MOMENT
-------------
                                X             Y             Z
Electronic contribution:    -25.25112       0.30478      -2.80442
Nuclear contribution   :     25.88115      -0.14193       2.70495
                        -----------------------------------------
Total Dipole Moment    :      0.63003       0.16285      -0.09947
                        -----------------------------------------
Magnitude (a.u.)       :      0.65830
Magnitude (Debye)      :      1.67325

Rotational constants in cm-1:     0.020720     0.007536     0.006429
Rotational constants in MHz :   621.171497   225.930219   192.736207

                             ****ORCA TERMINATED NORMALLY****
TOTAL RUN TIME: 0 days 0 hours 0 minutes 32 seconds 602 msec
