                         Program Version 4.2.1 -  RELEASE  -
|  1> ! wB97X-D3 SP def2-SVP
|  2> %pal
|  3> nprocs 16
|  4> end
|  5>
|  6> * xyz 0 1
|  7> S 	 3.07988 	 75.788 	 48.1049
|  8> C 	 2.67202 	 75.2457 	 49.7571
|  9> C 	 2.04192 	 76.2666 	 50.4995
| 10> C 	 1.9559 	 77.4989 	 49.7266
| 11> C 	 2.56793 	 77.4264 	 48.4712
| 12> H 	 1.6059 	 78.4457 	 50.0563
| 13> C 	 1.45932 	 76.2092 	 51.8625
| 14> H 	 1.79495 	 76.9951 	 52.5216
| 15> H 	 1.73421 	 75.3172 	 52.3954
| 16> C 	 -0.100519 	 76.1714 	 51.8421
| 17> H 	 -0.490457 	 76.1008 	 52.8654
| 18> H 	 -0.521672 	 77.0836 	 51.3713
| 19> C 	 -0.716514 	 74.9384 	 51.1776
| 20> H 	 -0.695179 	 74.834 	 50.0916
| 21> H 	 -0.48636 	 73.959 	 51.5272
| 22> H 	 -1.78261 	 74.927 	 51.3578
| 23> S 	 3.94025 	 78.0613 	 46.0736
| 24> C 	 3.75223 	 79.679 	 45.4915
| 25> C 	 2.81932 	 80.4347 	 46.2394
| 26> C 	 2.28287 	 79.7528 	 47.3565
| 27> C 	 2.79073 	 78.4329 	 47.4431
| 28> H 	 2.58923 	 81.4859 	 46.057
| 29> C 	 1.20804 	 80.4803 	 48.1545
| 30> H 	 0.602272 	 79.8111 	 48.788
| 31> H 	 0.431197 	 80.7386 	 47.4552
| 32> C 	 1.49259 	 81.7693 	 48.9417
| 33> H 	 0.533291 	 82.2661 	 49.3092
| 34> H 	 2.02701 	 82.5926 	 48.2829
| 35> C 	 2.45323 	 81.4326 	 50.1598
| 36> H 	 3.41177 	 80.9959 	 49.9608
| 37> H 	 1.93709 	 80.6835 	 50.7402
| 38> H 	 2.55802 	 82.1872 	 50.9441
| 39> H 	 2.84073 	 74.211 	 50.0996
| 40> H 	 4.26369 	 80.1367 	 44.643
| 41> *
| 42>
| 43>                          ****END OF INPUT****

CARTESIAN COORDINATES (ANGSTROEM)
---------------------------------
  S      3.079880   75.788000   48.104900
  C      2.672020   75.245700   49.757100
  C      2.041920   76.266600   50.499500
  C      1.955900   77.498900   49.726600
  C      2.567930   77.426400   48.471200
  H      1.605900   78.445700   50.056300
  C      1.459320   76.209200   51.862500
  H      1.794950   76.995100   52.521600
  H      1.734210   75.317200   52.395400
  C     -0.100519   76.171400   51.842100
  H     -0.490457   76.100800   52.865400
  H     -0.521672   77.083600   51.371300
  C     -0.716514   74.938400   51.177600
  H     -0.695179   74.834000   50.091600
  H     -0.486360   73.959000   51.527200
  H     -1.782610   74.927000   51.357800
  S      3.940250   78.061300   46.073600
  C      3.752230   79.679000   45.491500
  C      2.819320   80.434700   46.239400
  C      2.282870   79.752800   47.356500
  C      2.790730   78.432900   47.443100
  H      2.589230   81.485900   46.057000
  C      1.208040   80.480300   48.154500
  H      0.602272   79.811100   48.788000
  H      0.431197   80.738600   47.455200
  C      1.492590   81.769300   48.941700
  H      0.533291   82.266100   49.309200
  H      2.027010   82.592600   48.282900
  C      2.453230   81.432600   50.159800
  H      3.411770   80.995900   49.960800
  H      1.937090   80.683500   50.740200
  H      2.558020   82.187200   50.944100
  H      2.840730   74.211000   50.099600
  H      4.263690   80.136700   44.643000

 Total Charge           Charge          ....    0
 Multiplicity           Mult            ....    1
 Number of Electrons    NEL             ....  134
 Basis Dimension        Dim             ....  322

ORBITAL ENERGIES
----------------

  NO   OCC          E(Eh)            E(eV)
   0   2.0000     -88.975599     -2421.1491
   1   2.0000     -88.964274     -2420.8410
   2   2.0000     -10.338658      -281.3292
   3   2.0000     -10.332887      -281.1721
   4   2.0000     -10.323171      -280.9078
   5   2.0000     -10.320233      -280.8278
   6   2.0000     -10.313301      -280.6392
   7   2.0000     -10.311197      -280.5819
   8   2.0000     -10.307673      -280.4860
   9   2.0000     -10.299537      -280.2646
  10   2.0000     -10.296295      -280.1764
  11   2.0000     -10.293418      -280.0982
  12   2.0000     -10.293326      -280.0956
  13   2.0000     -10.290053      -280.0066
  14   2.0000     -10.277828      -279.6739
  15   2.0000     -10.269354      -279.4433
  16   2.0000      -8.088975      -220.1122
  17   2.0000      -8.078507      -219.8274
  18   2.0000      -6.047600      -164.5636
  19   2.0000      -6.043738      -164.4585
  20   2.0000      -6.039632      -164.3467
  21   2.0000      -6.037191      -164.2803
  22   2.0000      -6.033169      -164.1709
  23   2.0000      -6.029069      -164.0593
  24   2.0000      -0.999100       -27.1869
  25   2.0000      -0.975026       -26.5318
  26   2.0000      -0.911528       -24.8039
  27   2.0000      -0.907716       -24.7002
  28   2.0000      -0.862016       -23.4566
  29   2.0000      -0.851730       -23.1768
  30   2.0000      -0.840765       -22.8784
  31   2.0000      -0.807924       -21.9847
  32   2.0000      -0.789194       -21.4751
  33   2.0000      -0.775500       -21.1024
  34   2.0000      -0.711238       -19.3538
  35   2.0000      -0.699316       -19.0294
  36   2.0000      -0.692765       -18.8511
  37   2.0000      -0.658894       -17.9294
  38   2.0000      -0.639942       -17.4137
  39   2.0000      -0.621260       -16.9053
  40   2.0000      -0.599955       -16.3256
  41   2.0000      -0.562775       -15.3139
  42   2.0000      -0.551401       -15.0044
  43   2.0000      -0.547541       -14.8993
  44   2.0000      -0.538431       -14.6515
  45   2.0000      -0.533498       -14.5172
  46   2.0000      -0.511918       -13.9300
  47   2.0000      -0.504878       -13.7384
  48   2.0000      -0.499621       -13.5954
  49   2.0000      -0.496261       -13.5039
  50   2.0000      -0.491426       -13.3724
  51   2.0000      -0.478915       -13.0320
  52   2.0000      -0.465942       -12.6789
  53   2.0000      -0.462376       -12.5819
  54   2.0000      -0.455993       -12.4082
  55   2.0000      -0.454661       -12.3719
  56   2.0000      -0.445024       -12.1097
  57   2.0000      -0.439953       -11.9717
  58   2.0000      -0.432988       -11.7822
  59   2.0000      -0.426833       -11.6147
  60   2.0000      -0.423477       -11.5234
  61   2.0000      -0.416312       -11.3284
  62   2.0000      -0.410132       -11.1603
  63   2.0000      -0.358862        -9.7651
  64   2.0000      -0.337961        -9.1964
  65   2.0000      -0.326511        -8.8848
  66   2.0000      -0.275350        -7.4927
  67   0.0000       0.013337         0.3629
  68   0.0000       0.075719         2.0604
  69   0.0000       0.091535         2.4908
  70   0.0000       0.111449         3.0327
  71   0.0000       0.131518         3.5788

MULLIKEN ATOMIC CHARGES
-----------------------
   0 S :    0.074823
   1 C :   -0.127273
   2 C :   -0.062957
   3 C :    0.016033
   4 C :   -0.108629
   5 H :   -0.032830
   6 C :    0.095585
   7 H :    0.031668
   8 H :    0.007241
   9 C :   -0.079611
  10 H :    0.033275
  11 H :    0.037365
  12 C :   -0.055158
  13 H :    0.037156
  14 H :    0.011423
  15 H :    0.015249
  16 S :    0.118123
  17 C :   -0.082661
  18 C :   -0.044050
  19 C :   -0.026088
  20 C :   -0.119448
  21 H :    0.021664
  22 C :    0.029838
  23 H :    0.022402
  24 H :    0.032165
  25 C :   -0.105610
  26 H :    0.050967
  27 H :    0.048366
  28 C :   -0.050514
  29 H :    0.049775
  30 H :    0.009510
  31 H :    0.029385
  32 H :    0.058587
  33 H :    0.064230
Sum of atomic charges:   -0.0000000

LOEWDIN ATOMIC CHARGES
----------------------
   0 S :    0.377212
   1 C :   -0.193282
   2 C :   -0.051623
   3 C :   -0.067447
   4 C :   -0.173699
   5 H :    0.016556
   6 C :   -0.034123
   7 H :    0.032284
   8 H :    0.027767
   9 C :   -0.034116
  10 H :    0.028142
  11 H :    0.026388
  12 C :   -0.077079
  13 H :    0.026943
  14 H :    0.018963
  15 H :    0.027457
  16 S :    0.393365
  17 C :   -0.192956
  18 C :   -0.069415
  19 C :   -0.051502
  20 C :   -0.178010
  21 H :    0.031912
  22 C :   -0.041963
  23 H :    0.031392
  24 H :    0.037393
  25 C :   -0.042205
  26 H :    0.036465
  27 H :    0.030191
  28 C :   -0.075582
  29 H :    0.028070
  30 H :    0.019090
  31 H :    0.026784
  32 H :    0.032401
  33 H :    0.034227

  Mayer bond orders larger than 0.100000
B(  0-S ,  1-C ) :   1.1193 B(  0-S ,  4-C ) :   1.1363 B(  1-C ,  2-C ) :   1.6136
B(  1-C , 32-H ) :   0.9663 B(  2-C ,  3-C ) :   1.2115 B(  2-C ,  6-C ) :   1.0471
B(  3-C ,  4-C ) :   1.5819 B(  3-C ,  5-H ) :   0.9858 B(  4-C , 20-C ) :   1.0968
B(  6-C ,  7-H ) :   0.9386 B(  6-C ,  8-H ) :   0.9364 B(  6-C ,  9-C ) :   1.0668
B(  9-C , 10-H ) :   0.9576 B(  9-C , 11-H ) :   0.9573 B(  9-C , 12-C ) :   1.0724
B( 12-C , 13-H ) :   0.9745 B( 12-C , 14-H ) :   0.9737 B( 12-C , 15-H ) :   0.9697
B( 16-S , 17-C ) :   1.1562 B( 16-S , 20-C ) :   1.1244 B( 17-C , 18-C ) :   1.5876
B( 17-C , 20-C ) :   0.1036 B( 17-C , 33-H ) :   0.9651 B( 18-C , 19-C ) :   1.2710
B( 18-C , 21-H ) :   0.9835 B( 19-C , 20-C ) :   1.5708 B( 19-C , 22-C ) :   1.0219
B( 22-C , 23-H ) :   0.9368 B( 22-C , 24-H ) :   0.9301 B( 22-C , 25-C ) :   1.0729
B( 25-C , 26-H ) :   0.9527 B( 25-C , 27-H ) :   0.9553 B( 25-C , 28-C ) :   1.0526
B( 28-C , 29-H ) :   0.9809 B( 28-C , 30-H ) :   0.9682 B( 28-C , 31-H ) :   0.9734

Dispersion correction           -0.014841254
FINAL SINGLE POINT ENERGY     -1339.871873886270

DIPOLE MOMENT
-------------
                                X             Y             Z
Electronic contribution:     16.95729      -8.86964     -21.34818
Nuclear contribution   :    -17.40704       9.31324      21.77090
                        -----------------------------------------
Total Dipole Moment    :     -0.44975       0.44360       0.42272
                        -----------------------------------------
Magnitude (a.u.)       :      0.76010
Magnitude (Debye)      :      1.93202

Rotational constants in cm-1:     0.018756     0.009361     0.006848
Rotational constants in MHz :   562.290268   280.628630   205.295326

                             ****ORCA TERMINATED NORMALLY****
TOTAL RUN TIME: 0 days 0 hours 0 minutes 32 seconds 702 msec
