                         Program Version 4.2.1 -  RELEASE  -
|  1> ! wB97X-D3 SP def2-SVP
|  2> %pal
|  3> nprocs 16
|  4> end
|  5>
|  6> * xyz 0 1
|  7> S 	 -43.9655 	 36.3782 	 81.6788
|  8> C 	 -42.7257 	 36.484 	 80.4116
|  9> C 	 -42.4398 	 37.8055 	 80.1644
| 10> C 	 -43.0222 	 38.6863 	 81.1516
| 11> C 	 -43.8032 	 38.0188 	 82.1072
| 12> H 	 -42.979 	 39.7878 	 81.0998
| 13> C 	 -41.7487 	 38.257 	 78.9144
| 14> H 	 -42.4765 	 38.5903 	 78.1535
| 15> H 	 -41.1707 	 37.3633 	 78.4728
| 16> C 	 -40.7695 	 39.4321 	 79.0456
| 17> H 	 -40.7557 	 40.045 	 78.106
| 18> H 	 -41.2754 	 40.0663 	 79.7133
| 19> C 	 -39.3278 	 39.0064 	 79.6984
| 20> H 	 -39.5315 	 38.4638 	 80.6356
| 21> H 	 -38.8108 	 38.3412 	 79.0593
| 22> H 	 -38.6722 	 39.8869 	 79.8839
| 23> S 	 -46.3194 	 39.1309 	 82.6627
| 24> C 	 -46.4868 	 40.243 	 84.0084
| 25> C 	 -45.3448 	 40.0897 	 84.8637
| 26> C 	 -44.4031 	 39.0918 	 84.3646
| 27> C 	 -44.6861 	 38.6317 	 83.0752
| 28> H 	 -45.2285 	 40.6745 	 85.7711
| 29> C 	 -43.0592 	 38.8647 	 85.0113
| 30> H 	 -42.845 	 37.7809 	 84.8676
| 31> H 	 -43.2636 	 38.8276 	 86.0686
| 32> C 	 -41.9047 	 39.8599 	 84.803
| 33> H 	 -41.7208 	 39.9647 	 83.7068
| 34> H 	 -40.9999 	 39.3662 	 85.2221
| 35> C 	 -42.1372 	 41.2272 	 85.4607
| 36> H 	 -42.6056 	 41.2623 	 86.4603
| 37> H 	 -42.7088 	 41.851 	 84.7381
| 38> H 	 -41.1733 	 41.7023 	 85.6768
| 39> H 	 -42.4708 	 35.6896 	 79.6941
| 40> H 	 -47.1877 	 41.0791 	 84.0163
| 41> *
| 42>
| 43>                          ****END OF INPUT****

CARTESIAN COORDINATES (ANGSTROEM)
---------------------------------
  S    -43.965500   36.378200   81.678800
  C    -42.725700   36.484000   80.411600
  C    -42.439800   37.805500   80.164400
  C    -43.022200   38.686300   81.151600
  C    -43.803200   38.018800   82.107200
  H    -42.979000   39.787800   81.099800
  C    -41.748700   38.257000   78.914400
  H    -42.476500   38.590300   78.153500
  H    -41.170700   37.363300   78.472800
  C    -40.769500   39.432100   79.045600
  H    -40.755700   40.045000   78.106000
  H    -41.275400   40.066300   79.713300
  C    -39.327800   39.006400   79.698400
  H    -39.531500   38.463800   80.635600
  H    -38.810800   38.341200   79.059300
  H    -38.672200   39.886900   79.883900
  S    -46.319400   39.130900   82.662700
  C    -46.486800   40.243000   84.008400
  C    -45.344800   40.089700   84.863700
  C    -44.403100   39.091800   84.364600
  C    -44.686100   38.631700   83.075200
  H    -45.228500   40.674500   85.771100
  C    -43.059200   38.864700   85.011300
  H    -42.845000   37.780900   84.867600
  H    -43.263600   38.827600   86.068600
  C    -41.904700   39.859900   84.803000
  H    -41.720800   39.964700   83.706800
  H    -40.999900   39.366200   85.222100
  C    -42.137200   41.227200   85.460700
  H    -42.605600   41.262300   86.460300
  H    -42.708800   41.851000   84.738100
  H    -41.173300   41.702300   85.676800
  H    -42.470800   35.689600   79.694100
  H    -47.187700   41.079100   84.016300

 Total Charge           Charge          ....    0
 Multiplicity           Mult            ....    1
 Number of Electrons    NEL             ....  134
 Basis Dimension        Dim             ....  322

ORBITAL ENERGIES
----------------

  NO   OCC          E(Eh)            E(eV)
   0   2.0000     -88.967776     -2420.9363
   1   2.0000     -88.964101     -2420.8363
   2   2.0000     -10.331656      -281.1387
   3   2.0000     -10.326238      -280.9912
   4   2.0000     -10.325740      -280.9777
   5   2.0000     -10.317084      -280.7421
   6   2.0000     -10.305571      -280.4288
   7   2.0000     -10.304160      -280.3905
   8   2.0000     -10.303656      -280.3767
   9   2.0000     -10.302874      -280.3554
  10   2.0000     -10.300036      -280.2782
  11   2.0000     -10.292087      -280.0619
  12   2.0000     -10.292029      -280.0604
  13   2.0000     -10.285845      -279.8921
  14   2.0000     -10.285201      -279.8745
  15   2.0000     -10.282297      -279.7955
  16   2.0000      -8.082821      -219.9448
  17   2.0000      -8.078627      -219.8306
  18   2.0000      -6.041298      -164.3921
  19   2.0000      -6.037207      -164.2808
  20   2.0000      -6.037135      -164.2788
  21   2.0000      -6.033657      -164.1841
  22   2.0000      -6.032927      -164.1643
  23   2.0000      -6.029620      -164.0743
  24   2.0000      -1.007564       -27.4172
  25   2.0000      -0.980559       -26.6824
  26   2.0000      -0.910576       -24.7780
  27   2.0000      -0.904097       -24.6017
  28   2.0000      -0.865875       -23.5616
  29   2.0000      -0.843160       -22.9436
  30   2.0000      -0.837721       -22.7955
  31   2.0000      -0.810979       -22.0679
  32   2.0000      -0.782367       -21.2893
  33   2.0000      -0.773002       -21.0345
  34   2.0000      -0.714459       -19.4414
  35   2.0000      -0.697879       -18.9903
  36   2.0000      -0.687440       -18.7062
  37   2.0000      -0.660254       -17.9664
  38   2.0000      -0.637720       -17.3532
  39   2.0000      -0.619779       -16.8650
  40   2.0000      -0.588595       -16.0165
  41   2.0000      -0.568877       -15.4799
  42   2.0000      -0.549908       -14.9638
  43   2.0000      -0.543679       -14.7943
  44   2.0000      -0.542117       -14.7518
  45   2.0000      -0.528245       -14.3743
  46   2.0000      -0.515989       -14.0408
  47   2.0000      -0.510901       -13.9023
  48   2.0000      -0.507522       -13.8104
  49   2.0000      -0.494282       -13.4501
  50   2.0000      -0.486720       -13.2443
  51   2.0000      -0.477379       -12.9901
  52   2.0000      -0.475256       -12.9324
  53   2.0000      -0.467413       -12.7190
  54   2.0000      -0.460193       -12.5225
  55   2.0000      -0.449337       -12.2271
  56   2.0000      -0.435390       -11.8476
  57   2.0000      -0.432223       -11.7614
  58   2.0000      -0.430778       -11.7221
  59   2.0000      -0.422886       -11.5073
  60   2.0000      -0.419154       -11.4058
  61   2.0000      -0.415380       -11.3031
  62   2.0000      -0.408421       -11.1137
  63   2.0000      -0.333052        -9.0628
  64   2.0000      -0.327532        -8.9126
  65   2.0000      -0.320830        -8.7302
  66   2.0000      -0.308806        -8.4030
  67   0.0000       0.037571         1.0224
  68   0.0000       0.040634         1.1057
  69   0.0000       0.104840         2.8528
  70   0.0000       0.116019         3.1570
  71   0.0000       0.135420         3.6850

MULLIKEN ATOMIC CHARGES
-----------------------
   0 S :    0.115696
   1 C :   -0.122539
   2 C :   -0.092423
   3 C :    0.031784
   4 C :   -0.164188
   5 H :    0.035982
   6 C :    0.014717
   7 H :    0.053044
   8 H :    0.032026
   9 C :   -0.069393
  10 H :    0.034166
  11 H :    0.004736
  12 C :   -0.060657
  13 H :    0.046016
  14 H :    0.027107
  15 H :    0.047425
  16 S :    0.111459
  17 C :   -0.111658
  18 C :   -0.041686
  19 C :   -0.053486
  20 C :   -0.167558
  21 H :    0.027964
  22 C :    0.056203
  23 H :    0.031400
  24 H :    0.007354
  25 C :   -0.039365
  26 H :    0.035185
  27 H :    0.035422
  28 C :   -0.075642
  29 H :    0.032299
  30 H :    0.048245
  31 H :    0.033730
  32 H :    0.059937
  33 H :    0.076703
Sum of atomic charges:    0.0000000

LOEWDIN ATOMIC CHARGES
----------------------
   0 S :    0.425595
   1 C :   -0.195696
   2 C :   -0.068945
   3 C :   -0.061793
   4 C :   -0.211215
   5 H :    0.034804
   6 C :   -0.039290
   7 H :    0.040853
   8 H :    0.035247
   9 C :   -0.043088
  10 H :    0.029182
  11 H :    0.011059
  12 C :   -0.062864
  13 H :    0.031651
  14 H :    0.016315
  15 H :    0.031008
  16 S :    0.403796
  17 C :   -0.192709
  18 C :   -0.068537
  19 C :   -0.054042
  20 C :   -0.211193
  21 H :    0.031028
  22 C :   -0.046616
  23 H :    0.037422
  24 H :    0.026876
  25 C :   -0.038295
  26 H :    0.028827
  27 H :    0.029797
  28 C :   -0.075839
  29 H :    0.025526
  30 H :    0.031811
  31 H :    0.029187
  32 H :    0.035145
  33 H :    0.034993

  Mayer bond orders larger than 0.100000
B(  0-S ,  1-C ) :   1.1363 B(  0-S ,  4-C ) :   1.1794 B(  1-C ,  2-C ) :   1.6075
B(  1-C , 32-H ) :   0.9641 B(  2-C ,  3-C ) :   1.2455 B(  2-C ,  6-C ) :   1.0305
B(  3-C ,  4-C ) :   1.5562 B(  3-C ,  5-H ) :   0.9822 B(  4-C , 20-C ) :   1.0305
B(  6-C ,  7-H ) :   0.9348 B(  6-C ,  8-H ) :   0.9470 B(  6-C ,  9-C ) :   1.0662
B(  9-C , 10-H ) :   0.9585 B(  9-C , 11-H ) :   0.9561 B(  9-C , 12-C ) :   1.0519
B( 12-C , 13-H ) :   0.9779 B( 12-C , 14-H ) :   0.9805 B( 12-C , 15-H ) :   0.9793
B( 16-S , 17-C ) :   1.1705 B( 16-S , 20-C ) :   1.1421 B( 17-C , 18-C ) :   1.5749
B( 17-C , 20-C ) :   0.1012 B( 17-C , 33-H ) :   0.9667 B( 18-C , 19-C ) :   1.2514
B( 18-C , 21-H ) :   0.9885 B( 19-C , 20-C ) :   1.5753 B( 19-C , 22-C ) :   1.0629
B( 22-C , 23-H ) :   0.9265 B( 22-C , 24-H ) :   0.9257 B( 22-C , 25-C ) :   1.0603
B( 25-C , 26-H ) :   0.9554 B( 25-C , 27-H ) :   0.9542 B( 25-C , 28-C ) :   1.0688
B( 28-C , 29-H ) :   0.9747 B( 28-C , 30-H ) :   0.9742 B( 28-C , 31-H ) :   0.9730

Dispersion correction           -0.015028356
FINAL SINGLE POINT ENERGY     -1339.863500162653

DIPOLE MOMENT
-------------
                                X             Y             Z
Electronic contribution:    -24.58461     -12.78580       0.05004
Nuclear contribution   :     25.01817      13.29269      -0.19297
                        -----------------------------------------
Total Dipole Moment    :      0.43355       0.50688      -0.14293
                        -----------------------------------------
Magnitude (a.u.)       :      0.68215
Magnitude (Debye)      :      1.73389

Rotational constants in cm-1:     0.017933     0.009222     0.007350
Rotational constants in MHz :   537.606671   276.460056   220.335697

                             ****ORCA TERMINATED NORMALLY****
TOTAL RUN TIME: 0 days 0 hours 0 minutes 29 seconds 188 msec
