                         Program Version 4.2.1 -  RELEASE  -
|  1> ! wB97X-D3 SP def2-SVP
|  2> %pal
|  3> nprocs 16
|  4> end
|  5>
|  6> * xyz 0 1
|  7> S 	 -5.89268 	 27.5076 	 47.8054
|  8> C 	 -4.12932 	 27.3737 	 47.9635
|  9> C 	 -3.49217 	 28.4651 	 47.4709
| 10> C 	 -4.37425 	 29.3677 	 46.7679
| 11> C 	 -5.6949 	 29.043 	 46.9788
| 12> H 	 -4.10418 	 30.3465 	 46.3394
| 13> C 	 -2.00261 	 28.7821 	 47.6013
| 14> H 	 -1.47511 	 27.8481 	 47.6326
| 15> H 	 -1.78144 	 29.2829 	 48.5828
| 16> C 	 -1.37898 	 29.4673 	 46.3839
| 17> H 	 -1.86017 	 30.4192 	 46.3034
| 18> H 	 -0.29517 	 29.4509 	 46.5036
| 19> C 	 -1.44292 	 28.69 	 45.0641
| 20> H 	 -0.877133 	 29.0769 	 44.2154
| 21> H 	 -0.982962 	 27.7144 	 45.3148
| 22> H 	 -2.49726 	 28.4191 	 44.785
| 23> S 	 -7.57969 	 28.7179 	 45.0676
| 24> C 	 -8.34536 	 30.1356 	 44.2479
| 25> C 	 -8.02029 	 31.2745 	 44.8501
| 26> C 	 -7.17514 	 31.01 	 46.0228
| 27> C 	 -6.74817 	 29.715 	 46.1903
| 28> H 	 -8.43527 	 32.1667 	 44.4027
| 29> C 	 -6.55965 	 32.241 	 46.6939
| 30> H 	 -5.79371 	 31.8785 	 47.3771
| 31> H 	 -7.34815 	 32.719 	 47.3045
| 32> C 	 -5.85981 	 33.2415 	 45.738
| 33> H 	 -6.57482 	 33.5963 	 45.0156
| 34> H 	 -5.08242 	 32.7793 	 45.1602
| 35> C 	 -5.2494 	 34.3174 	 46.6374
| 36> H 	 -4.79231 	 34.948 	 45.9001
| 37> H 	 -4.48218 	 34.02 	 47.2918
| 38> H 	 -5.93989 	 34.9546 	 47.2058
| 39> H 	 -3.64645 	 26.521 	 48.4886
| 40> H 	 -9.17799 	 30.1101 	 43.5644
| 41> *
| 42>
| 43>                          ****END OF INPUT****

CARTESIAN COORDINATES (ANGSTROEM)
---------------------------------
  S     -5.892680   27.507600   47.805400
  C     -4.129320   27.373700   47.963500
  C     -3.492170   28.465100   47.470900
  C     -4.374250   29.367700   46.767900
  C     -5.694900   29.043000   46.978800
  H     -4.104180   30.346500   46.339400
  C     -2.002610   28.782100   47.601300
  H     -1.475110   27.848100   47.632600
  H     -1.781440   29.282900   48.582800
  C     -1.378980   29.467300   46.383900
  H     -1.860170   30.419200   46.303400
  H     -0.295170   29.450900   46.503600
  C     -1.442920   28.690000   45.064100
  H     -0.877133   29.076900   44.215400
  H     -0.982962   27.714400   45.314800
  H     -2.497260   28.419100   44.785000
  S     -7.579690   28.717900   45.067600
  C     -8.345360   30.135600   44.247900
  C     -8.020290   31.274500   44.850100
  C     -7.175140   31.010000   46.022800
  C     -6.748170   29.715000   46.190300
  H     -8.435270   32.166700   44.402700
  C     -6.559650   32.241000   46.693900
  H     -5.793710   31.878500   47.377100
  H     -7.348150   32.719000   47.304500
  C     -5.859810   33.241500   45.738000
  H     -6.574820   33.596300   45.015600
  H     -5.082420   32.779300   45.160200
  C     -5.249400   34.317400   46.637400
  H     -4.792310   34.948000   45.900100
  H     -4.482180   34.020000   47.291800
  H     -5.939890   34.954600   47.205800
  H     -3.646450   26.521000   48.488600
  H     -9.177990   30.110100   43.564400

 Total Charge           Charge          ....    0
 Multiplicity           Mult            ....    1
 Number of Electrons    NEL             ....  134
 Basis Dimension        Dim             ....  322

ORBITAL ENERGIES
----------------

  NO   OCC          E(Eh)            E(eV)
   0   2.0000     -88.970753     -2421.0173
   1   2.0000     -88.955064     -2420.5903
   2   2.0000     -10.333801      -281.1970
   3   2.0000     -10.325185      -280.9626
   4   2.0000     -10.319565      -280.8096
   5   2.0000     -10.311185      -280.5816
   6   2.0000     -10.303802      -280.3807
   7   2.0000     -10.301077      -280.3066
   8   2.0000     -10.298800      -280.2446
   9   2.0000     -10.295929      -280.1665
  10   2.0000     -10.290544      -280.0199
  11   2.0000     -10.286794      -279.9179
  12   2.0000     -10.285945      -279.8948
  13   2.0000     -10.285563      -279.8844
  14   2.0000     -10.280975      -279.7596
  15   2.0000     -10.272623      -279.5323
  16   2.0000      -8.085006      -220.0042
  17   2.0000      -8.070189      -219.6010
  18   2.0000      -6.043596      -164.4546
  19   2.0000      -6.039710      -164.3489
  20   2.0000      -6.035566      -164.2361
  21   2.0000      -6.028922      -164.0553
  22   2.0000      -6.024633      -163.9386
  23   2.0000      -6.020658      -163.8304
  24   2.0000      -1.007729       -27.4217
  25   2.0000      -0.983996       -26.7759
  26   2.0000      -0.915845       -24.9214
  27   2.0000      -0.906524       -24.6678
  28   2.0000      -0.876277       -23.8447
  29   2.0000      -0.847907       -23.0727
  30   2.0000      -0.840946       -22.8833
  31   2.0000      -0.823097       -22.3976
  32   2.0000      -0.781780       -21.2733
  33   2.0000      -0.764776       -20.8106
  34   2.0000      -0.710192       -19.3253
  35   2.0000      -0.700819       -19.0702
  36   2.0000      -0.690114       -18.7789
  37   2.0000      -0.656333       -17.8597
  38   2.0000      -0.638289       -17.3687
  39   2.0000      -0.627734       -17.0815
  40   2.0000      -0.589368       -16.0375
  41   2.0000      -0.573592       -15.6082
  42   2.0000      -0.564791       -15.3687
  43   2.0000      -0.557652       -15.1745
  44   2.0000      -0.544983       -14.8297
  45   2.0000      -0.523277       -14.2391
  46   2.0000      -0.516998       -14.0682
  47   2.0000      -0.513251       -13.9663
  48   2.0000      -0.505074       -13.7438
  49   2.0000      -0.496284       -13.5046
  50   2.0000      -0.488184       -13.2842
  51   2.0000      -0.481535       -13.1032
  52   2.0000      -0.474730       -12.9181
  53   2.0000      -0.465331       -12.6623
  54   2.0000      -0.456150       -12.4125
  55   2.0000      -0.454905       -12.3786
  56   2.0000      -0.443095       -12.0572
  57   2.0000      -0.439414       -11.9571
  58   2.0000      -0.433214       -11.7884
  59   2.0000      -0.422591       -11.4993
  60   2.0000      -0.418938       -11.3999
  61   2.0000      -0.408609       -11.1188
  62   2.0000      -0.400079       -10.8867
  63   2.0000      -0.350572        -9.5395
  64   2.0000      -0.332517        -9.0483
  65   2.0000      -0.321694        -8.7537
  66   2.0000      -0.301849        -8.2137
  67   0.0000       0.034775         0.9463
  68   0.0000       0.073364         1.9963
  69   0.0000       0.109465         2.9787
  70   0.0000       0.118975         3.2375
  71   0.0000       0.126809         3.4506

MULLIKEN ATOMIC CHARGES
-----------------------
   0 S :    0.111956
   1 C :   -0.152187
   2 C :   -0.075743
   3 C :    0.012624
   4 C :   -0.130725
   5 H :    0.031961
   6 C :    0.079525
   7 H :    0.001915
   8 H :    0.061157
   9 C :   -0.077962
  10 H :    0.029850
  11 H :    0.035656
  12 C :   -0.080055
  13 H :    0.049489
  14 H :    0.016826
  15 H :    0.047373
  16 S :    0.073196
  17 C :   -0.083414
  18 C :   -0.040387
  19 C :   -0.047428
  20 C :   -0.122987
  21 H :    0.027184
  22 C :    0.026863
  23 H :    0.013867
  24 H :    0.035416
  25 C :   -0.069507
  26 H :    0.026652
  27 H :    0.026723
  28 C :   -0.020027
  29 H :    0.018746
  30 H :    0.025213
  31 H :    0.032661
  32 H :    0.064725
  33 H :    0.050844
Sum of atomic charges:    0.0000000

LOEWDIN ATOMIC CHARGES
----------------------
   0 S :    0.393692
   1 C :   -0.190028
   2 C :   -0.065624
   3 C :   -0.057173
   4 C :   -0.189911
   5 H :    0.037410
   6 C :   -0.032126
   7 H :    0.024009
   8 H :    0.043198
   9 C :   -0.043826
  10 H :    0.014123
  11 H :    0.032492
  12 C :   -0.070797
  13 H :    0.028760
  14 H :    0.025100
  15 H :    0.028865
  16 S :    0.378488
  17 C :   -0.163526
  18 C :   -0.072548
  19 C :   -0.065294
  20 C :   -0.200504
  21 H :    0.036611
  22 C :   -0.037809
  23 H :    0.022259
  24 H :    0.032783
  25 C :   -0.030983
  26 H :    0.020131
  27 H :    0.022767
  28 C :   -0.059772
  29 H :    0.025166
  30 H :    0.019510
  31 H :    0.027691
  32 H :    0.037690
  33 H :    0.029175

  Mayer bond orders larger than 0.100000
B(  0-S ,  1-C ) :   1.1179 B(  0-S ,  4-C ) :   1.1488 B(  1-C ,  2-C ) :   1.6534
B(  1-C , 32-H ) :   0.9628 B(  2-C ,  3-C ) :   1.2142 B(  2-C ,  6-C ) :   1.0088
B(  3-C ,  4-C ) :   1.5967 B(  3-C ,  5-H ) :   0.9815 B(  4-C , 20-C ) :   1.0026
B(  6-C ,  7-H ) :   0.9345 B(  6-C ,  8-H ) :   0.9389 B(  6-C ,  9-C ) :   1.0791
B(  9-C , 10-H ) :   0.9501 B(  9-C , 11-H ) :   0.9578 B(  9-C , 12-C ) :   1.0698
B( 12-C , 13-H ) :   0.9770 B( 12-C , 14-H ) :   0.9711 B( 12-C , 15-H ) :   0.9719
B( 16-S , 17-C ) :   1.1201 B( 16-S , 20-C ) :   1.1199 B( 17-C , 18-C ) :   1.6956
B( 17-C , 33-H ) :   0.9610 B( 18-C , 19-C ) :   1.1699 B( 18-C , 21-H ) :   0.9895
B( 19-C , 20-C ) :   1.6628 B( 19-C , 22-C ) :   1.0472 B( 22-C , 23-H ) :   0.9464
B( 22-C , 24-H ) :   0.9334 B( 22-C , 25-C ) :   1.0635 B( 25-C , 26-H ) :   0.9500
B( 25-C , 27-H ) :   0.9550 B( 25-C , 28-C ) :   1.0821 B( 28-C , 29-H ) :   0.9713
B( 28-C , 30-H ) :   0.9753 B( 28-C , 31-H ) :   0.9749

Dispersion correction           -0.014430457
FINAL SINGLE POINT ENERGY     -1339.860474374062

DIPOLE MOMENT
-------------
                                X             Y             Z
Electronic contribution:    -20.34603     -19.33978       2.64354
Nuclear contribution   :     20.89271      19.86601      -2.67919
                        -----------------------------------------
Total Dipole Moment    :      0.54667       0.52622      -0.03564
                        -----------------------------------------
Magnitude (a.u.)       :      0.75963
Magnitude (Debye)      :      1.93082

Rotational constants in cm-1:     0.015868     0.010061     0.007525
Rotational constants in MHz :   475.704779   301.607864   225.582859

                             ****ORCA TERMINATED NORMALLY****
TOTAL RUN TIME: 0 days 0 hours 0 minutes 36 seconds 261 msec
