                         Program Version 4.2.1 -  RELEASE  -
|  1> ! wB97X-D3 SP def2-SVP
|  2> %pal
|  3> nprocs 16
|  4> end
|  5>
|  6> * xyz 0 1
|  7> S 	 -61.6089 	 51.5128 	 127.316
|  8> C 	 -63.0393 	 51.5461 	 128.276
|  9> C 	 -63.0528 	 52.6337 	 129.103
| 10> C 	 -61.9025 	 53.4682 	 128.978
| 11> C 	 -60.928 	 52.8374 	 128.208
| 12> H 	 -61.631 	 54.3749 	 129.564
| 13> C 	 -64.2455 	 52.9464 	 130.008
| 14> H 	 -65.0765 	 52.2691 	 129.861
| 15> H 	 -64.593 	 53.957 	 129.698
| 16> C 	 -64.0927 	 53.0631 	 131.527
| 17> H 	 -64.029 	 52.1199 	 131.962
| 18> H 	 -63.1043 	 53.5721 	 131.85
| 19> C 	 -65.2687 	 53.8211 	 132.251
| 20> H 	 -66.3001 	 53.4247 	 131.98
| 21> H 	 -65.1916 	 53.6803 	 133.314
| 22> H 	 -65.2076 	 54.9425 	 132.014
| 23> S 	 -58.5124 	 53.0621 	 129.39
| 24> C 	 -57.1188 	 53.711 	 128.506
| 25> C 	 -57.4722 	 54.0035 	 127.19
| 26> C 	 -58.8752 	 53.8838 	 126.978
| 27> C 	 -59.5858 	 53.3729 	 128.055
| 28> H 	 -56.8312 	 54.421 	 126.408
| 29> C 	 -59.4589 	 54.2132 	 125.646
| 30> H 	 -60.5031 	 53.9326 	 125.571
| 31> H 	 -59.0662 	 53.3991 	 124.903
| 32> C 	 -59.1729 	 55.6334 	 125.118
| 33> H 	 -58.3536 	 55.8576 	 124.482
| 34> H 	 -59.0536 	 56.3498 	 125.981
| 35> C 	 -60.3213 	 56.1451 	 124.235
| 36> H 	 -61.2828 	 56.2254 	 124.794
| 37> H 	 -60.4598 	 55.531 	 123.406
| 38> H 	 -60.11 	 57.1219 	 123.823
| 39> H 	 -63.9028 	 50.9714 	 128.105
| 40> H 	 -56.0858 	 53.8376 	 128.895
| 41> *
| 42>
| 43>                          ****END OF INPUT****

CARTESIAN COORDINATES (ANGSTROEM)
---------------------------------
  S    -61.608900   51.512800  127.316000
  C    -63.039300   51.546100  128.276000
  C    -63.052800   52.633700  129.103000
  C    -61.902500   53.468200  128.978000
  C    -60.928000   52.837400  128.208000
  H    -61.631000   54.374900  129.564000
  C    -64.245500   52.946400  130.008000
  H    -65.076500   52.269100  129.861000
  H    -64.593000   53.957000  129.698000
  C    -64.092700   53.063100  131.527000
  H    -64.029000   52.119900  131.962000
  H    -63.104300   53.572100  131.850000
  C    -65.268700   53.821100  132.251000
  H    -66.300100   53.424700  131.980000
  H    -65.191600   53.680300  133.314000
  H    -65.207600   54.942500  132.014000
  S    -58.512400   53.062100  129.390000
  C    -57.118800   53.711000  128.506000
  C    -57.472200   54.003500  127.190000
  C    -58.875200   53.883800  126.978000
  C    -59.585800   53.372900  128.055000
  H    -56.831200   54.421000  126.408000
  C    -59.458900   54.213200  125.646000
  H    -60.503100   53.932600  125.571000
  H    -59.066200   53.399100  124.903000
  C    -59.172900   55.633400  125.118000
  H    -58.353600   55.857600  124.482000
  H    -59.053600   56.349800  125.981000
  C    -60.321300   56.145100  124.235000
  H    -61.282800   56.225400  124.794000
  H    -60.459800   55.531000  123.406000
  H    -60.110000   57.121900  123.823000
  H    -63.902800   50.971400  128.105000
  H    -56.085800   53.837600  128.895000

 Total Charge           Charge          ....    0
 Multiplicity           Mult            ....    1
 Number of Electrons    NEL             ....  134
 Basis Dimension        Dim             ....  322

ORBITAL ENERGIES
----------------

  NO   OCC          E(Eh)            E(eV)
   0   2.0000     -88.968140     -2420.9462
   1   2.0000     -88.965007     -2420.8609
   2   2.0000     -10.328371      -281.0493
   3   2.0000     -10.324482      -280.9434
   4   2.0000     -10.321882      -280.8727
   5   2.0000     -10.307334      -280.4768
   6   2.0000     -10.301305      -280.3128
   7   2.0000     -10.299400      -280.2609
   8   2.0000     -10.297747      -280.2159
   9   2.0000     -10.295539      -280.1559
  10   2.0000     -10.295215      -280.1470
  11   2.0000     -10.293561      -280.1020
  12   2.0000     -10.290845      -280.0281
  13   2.0000     -10.289481      -279.9910
  14   2.0000     -10.287324      -279.9323
  15   2.0000     -10.270839      -279.4837
  16   2.0000      -8.083282      -219.9573
  17   2.0000      -8.079461      -219.8533
  18   2.0000      -6.041666      -164.4021
  19   2.0000      -6.038014      -164.3027
  20   2.0000      -6.037777      -164.2963
  21   2.0000      -6.034095      -164.1961
  22   2.0000      -6.033939      -164.1918
  23   2.0000      -6.030239      -164.0912
  24   2.0000      -1.009940       -27.4819
  25   2.0000      -0.986201       -26.8359
  26   2.0000      -0.906935       -24.6790
  27   2.0000      -0.905464       -24.6389
  28   2.0000      -0.870866       -23.6975
  29   2.0000      -0.851944       -23.1826
  30   2.0000      -0.846681       -23.0394
  31   2.0000      -0.813976       -22.1494
  32   2.0000      -0.778496       -21.1840
  33   2.0000      -0.766738       -20.8640
  34   2.0000      -0.705822       -19.2064
  35   2.0000      -0.699795       -19.0424
  36   2.0000      -0.692242       -18.8369
  37   2.0000      -0.662211       -18.0197
  38   2.0000      -0.642450       -17.4820
  39   2.0000      -0.615428       -16.7466
  40   2.0000      -0.597232       -16.2515
  41   2.0000      -0.569858       -15.5066
  42   2.0000      -0.560976       -15.2649
  43   2.0000      -0.557564       -15.1721
  44   2.0000      -0.528627       -14.3847
  45   2.0000      -0.522410       -14.2155
  46   2.0000      -0.514614       -14.0034
  47   2.0000      -0.506908       -13.7937
  48   2.0000      -0.502631       -13.6773
  49   2.0000      -0.497824       -13.5465
  50   2.0000      -0.488081       -13.2814
  51   2.0000      -0.479513       -13.0482
  52   2.0000      -0.470174       -12.7941
  53   2.0000      -0.463869       -12.6225
  54   2.0000      -0.458943       -12.4885
  55   2.0000      -0.449384       -12.2284
  56   2.0000      -0.443859       -12.0780
  57   2.0000      -0.437387       -11.9019
  58   2.0000      -0.435820       -11.8593
  59   2.0000      -0.422803       -11.5050
  60   2.0000      -0.419290       -11.4095
  61   2.0000      -0.414831       -11.2881
  62   2.0000      -0.409111       -11.1325
  63   2.0000      -0.335657        -9.1337
  64   2.0000      -0.334224        -9.0947
  65   2.0000      -0.321106        -8.7377
  66   2.0000      -0.304442        -8.2843
  67   0.0000       0.037368         1.0168
  68   0.0000       0.060658         1.6506
  69   0.0000       0.109520         2.9802
  70   0.0000       0.118382         3.2213
  71   0.0000       0.130700         3.5565

MULLIKEN ATOMIC CHARGES
-----------------------
   0 S :    0.130038
   1 C :   -0.101512
   2 C :   -0.060380
   3 C :    0.019010
   4 C :   -0.164499
   5 H :    0.038757
   6 C :    0.071571
   7 H :    0.013137
   8 H :    0.027835
   9 C :   -0.078449
  10 H :    0.017083
  11 H :    0.037151
  12 C :   -0.100172
  13 H :    0.040334
  14 H :    0.038275
  15 H :    0.049676
  16 S :    0.110641
  17 C :   -0.104127
  18 C :   -0.020766
  19 C :   -0.052808
  20 C :   -0.177891
  21 H :    0.029425
  22 C :    0.059711
  23 H :    0.012325
  24 H :    0.045859
  25 C :   -0.076794
  26 H :    0.024846
  27 H :    0.043675
  28 C :   -0.055526
  29 H :    0.038438
  30 H :    0.017840
  31 H :    0.022276
  32 H :    0.031387
  33 H :    0.073635
Sum of atomic charges:    0.0000000

LOEWDIN ATOMIC CHARGES
----------------------
   0 S :    0.424695
   1 C :   -0.200701
   2 C :   -0.062179
   3 C :   -0.058873
   4 C :   -0.204774
   5 H :    0.041448
   6 C :   -0.034674
   7 H :    0.026621
   8 H :    0.034843
   9 C :   -0.043763
  10 H :    0.012398
  11 H :    0.031263
  12 C :   -0.073832
  13 H :    0.028888
  14 H :    0.023870
  15 H :    0.032596
  16 S :    0.409510
  17 C :   -0.182872
  18 C :   -0.069414
  19 C :   -0.061787
  20 C :   -0.210284
  21 H :    0.036137
  22 C :   -0.042738
  23 H :    0.025103
  24 H :    0.047639
  25 C :   -0.045622
  26 H :    0.020722
  27 H :    0.031431
  28 C :   -0.059495
  29 H :    0.027287
  30 H :    0.013944
  31 H :    0.022724
  32 H :    0.021257
  33 H :    0.038633

  Mayer bond orders larger than 0.100000
B(  0-S ,  1-C ) :   1.1366 B(  0-S ,  4-C ) :   1.1537 B(  1-C ,  2-C ) :   1.6155
B(  1-C , 32-H ) :   0.9722 B(  2-C ,  3-C ) :   1.2391 B(  2-C ,  6-C ) :   1.0253
B(  3-C ,  4-C ) :   1.5639 B(  3-C ,  5-H ) :   0.9864 B(  4-C , 20-C ) :   1.0240
B(  6-C ,  7-H ) :   0.9428 B(  6-C ,  8-H ) :   0.9409 B(  6-C ,  9-C ) :   1.0527
B(  9-C , 10-H ) :   0.9565 B(  9-C , 11-H ) :   0.9574 B(  9-C , 12-C ) :   1.0744
B( 12-C , 13-H ) :   0.9754 B( 12-C , 14-H ) :   0.9756 B( 12-C , 15-H ) :   0.9754
B( 16-S , 17-C ) :   1.1586 B( 16-S , 20-C ) :   1.1416 B( 17-C , 18-C ) :   1.5838
B( 17-C , 20-C ) :   0.1012 B( 17-C , 33-H ) :   0.9644 B( 18-C , 19-C ) :   1.2568
B( 18-C , 21-H ) :   0.9843 B( 19-C , 20-C ) :   1.5935 B( 19-C , 22-C ) :   1.0659
B( 22-C , 23-H ) :   0.9380 B( 22-C , 24-H ) :   0.9236 B( 22-C , 25-C ) :   1.0238
B( 25-C , 26-H ) :   0.9537 B( 25-C , 27-H ) :   0.9665 B( 25-C , 28-C ) :   1.0923
B( 28-C , 29-H ) :   0.9768 B( 28-C , 30-H ) :   0.9736 B( 28-C , 31-H ) :   0.9746

Dispersion correction           -0.013631596
FINAL SINGLE POINT ENERGY     -1339.870852241287

DIPOLE MOMENT
-------------
                                X             Y             Z
Electronic contribution:     14.61858     -14.45221       0.81449
Nuclear contribution   :    -14.79656      14.76088      -0.94703
                        -----------------------------------------
Total Dipole Moment    :     -0.17799       0.30867      -0.13254
                        -----------------------------------------
Magnitude (a.u.)       :      0.38016
Magnitude (Debye)      :      0.96629

Rotational constants in cm-1:     0.019202     0.007319     0.006520
Rotational constants in MHz :   575.668007   219.403204   195.451951

                             ****ORCA TERMINATED NORMALLY****
TOTAL RUN TIME: 0 days 0 hours 0 minutes 31 seconds 885 msec
