                         Program Version 4.2.1 -  RELEASE  -
|  1> ! wB97X-D3 SP def2-SVP
|  2> %pal
|  3> nprocs 16
|  4> end
|  5>
|  6> * xyz 0 1
|  7> S 	 41.1755 	 16.2951 	 79.2574
|  8> C 	 39.6717 	 17.1334 	 79.0964
|  9> C 	 38.6126 	 16.2247 	 79.0363
| 10> C 	 39.0395 	 14.8689 	 78.9073
| 11> C 	 40.424 	 14.7141 	 78.9809
| 12> H 	 38.2951 	 14.1462 	 78.8268
| 13> C 	 37.0951 	 16.5346 	 78.9583
| 14> H 	 36.6538 	 15.5776 	 78.9039
| 15> H 	 36.8738 	 17.0593 	 77.9789
| 16> C 	 36.5953 	 16.9963 	 80.2793
| 17> H 	 37.0673 	 16.374 	 81.0289
| 18> H 	 36.9198 	 18.0083 	 80.579
| 19> C 	 35.1002 	 16.738 	 80.2842
| 20> H 	 34.6747 	 17.1378 	 81.182
| 21> H 	 34.6583 	 17.2777 	 79.471
| 22> H 	 34.8689 	 15.6953 	 80.0579
| 23> S 	 40.6874 	 12.0875 	 79.7547
| 24> C 	 42.0717 	 11.1661 	 79.2823
| 25> C 	 42.9835 	 11.9093 	 78.5838
| 26> C 	 42.5365 	 13.235 	 78.3592
| 27> C 	 41.2794 	 13.5053 	 78.9358
| 28> H 	 43.8173 	 11.4667 	 78.1536
| 29> C 	 43.3692 	 14.1711 	 77.4688
| 30> H 	 44.2386 	 13.7153 	 77.1131
| 31> H 	 43.9121 	 14.765 	 78.1896
| 32> C 	 42.7206 	 15.0276 	 76.3931
| 33> H 	 43.4248 	 15.7759 	 76.0821
| 34> H 	 41.8512 	 15.5721 	 76.8729
| 35> C 	 42.285 	 14.3247 	 75.0792
| 36> H 	 41.5987 	 13.4548 	 75.2286
| 37> H 	 43.1828 	 14.0818 	 74.5389
| 38> H 	 41.6016 	 15.0146 	 74.5638
| 39> H 	 39.5961 	 18.1691 	 79.1605
| 40> H 	 42.1851 	 10.1386 	 79.268
| 41> *
| 42>
| 43>                          ****END OF INPUT****

CARTESIAN COORDINATES (ANGSTROEM)
---------------------------------
  S     41.175500   16.295100   79.257400
  C     39.671700   17.133400   79.096400
  C     38.612600   16.224700   79.036300
  C     39.039500   14.868900   78.907300
  C     40.424000   14.714100   78.980900
  H     38.295100   14.146200   78.826800
  C     37.095100   16.534600   78.958300
  H     36.653800   15.577600   78.903900
  H     36.873800   17.059300   77.978900
  C     36.595300   16.996300   80.279300
  H     37.067300   16.374000   81.028900
  H     36.919800   18.008300   80.579000
  C     35.100200   16.738000   80.284200
  H     34.674700   17.137800   81.182000
  H     34.658300   17.277700   79.471000
  H     34.868900   15.695300   80.057900
  S     40.687400   12.087500   79.754700
  C     42.071700   11.166100   79.282300
  C     42.983500   11.909300   78.583800
  C     42.536500   13.235000   78.359200
  C     41.279400   13.505300   78.935800
  H     43.817300   11.466700   78.153600
  C     43.369200   14.171100   77.468800
  H     44.238600   13.715300   77.113100
  H     43.912100   14.765000   78.189600
  C     42.720600   15.027600   76.393100
  H     43.424800   15.775900   76.082100
  H     41.851200   15.572100   76.872900
  C     42.285000   14.324700   75.079200
  H     41.598700   13.454800   75.228600
  H     43.182800   14.081800   74.538900
  H     41.601600   15.014600   74.563800
  H     39.596100   18.169100   79.160500
  H     42.185100   10.138600   79.268000

 Total Charge           Charge          ....    0
 Multiplicity           Mult            ....    1
 Number of Electrons    NEL             ....  134
 Basis Dimension        Dim             ....  322

ORBITAL ENERGIES
----------------

  NO   OCC          E(Eh)            E(eV)
   0   2.0000     -88.966535     -2420.9025
   1   2.0000     -88.966509     -2420.9018
   2   2.0000     -10.336842      -281.2798
   3   2.0000     -10.328710      -281.0585
   4   2.0000     -10.310045      -280.5506
   5   2.0000     -10.307909      -280.4925
   6   2.0000     -10.305515      -280.4273
   7   2.0000     -10.299105      -280.2529
   8   2.0000     -10.292398      -280.0704
   9   2.0000     -10.290296      -280.0132
  10   2.0000     -10.285088      -279.8715
  11   2.0000     -10.282626      -279.8045
  12   2.0000     -10.281728      -279.7800
  13   2.0000     -10.279233      -279.7122
  14   2.0000     -10.273573      -279.5581
  15   2.0000     -10.273134      -279.5462
  16   2.0000      -8.081516      -219.9092
  17   2.0000      -8.080608      -219.8845
  18   2.0000      -6.040017      -164.3572
  19   2.0000      -6.039131      -164.3331
  20   2.0000      -6.035915      -164.2456
  21   2.0000      -6.035074      -164.2227
  22   2.0000      -6.032360      -164.1489
  23   2.0000      -6.031516      -164.1259
  24   2.0000      -1.005314       -27.3560
  25   2.0000      -0.985355       -26.8129
  26   2.0000      -0.923040       -25.1172
  27   2.0000      -0.902566       -24.5601
  28   2.0000      -0.869737       -23.6667
  29   2.0000      -0.852143       -23.1880
  30   2.0000      -0.844483       -22.9795
  31   2.0000      -0.814405       -22.1611
  32   2.0000      -0.784101       -21.3365
  33   2.0000      -0.771376       -20.9902
  34   2.0000      -0.708008       -19.2659
  35   2.0000      -0.704003       -19.1569
  36   2.0000      -0.685804       -18.6617
  37   2.0000      -0.667714       -18.1694
  38   2.0000      -0.646177       -17.5834
  39   2.0000      -0.620381       -16.8814
  40   2.0000      -0.595951       -16.2167
  41   2.0000      -0.578192       -15.7334
  42   2.0000      -0.566848       -15.4247
  43   2.0000      -0.548475       -14.9248
  44   2.0000      -0.539665       -14.6850
  45   2.0000      -0.528033       -14.3685
  46   2.0000      -0.519747       -14.1430
  47   2.0000      -0.510985       -13.9046
  48   2.0000      -0.503286       -13.6951
  49   2.0000      -0.496358       -13.5066
  50   2.0000      -0.489415       -13.3177
  51   2.0000      -0.480101       -13.0642
  52   2.0000      -0.476927       -12.9778
  53   2.0000      -0.467105       -12.7106
  54   2.0000      -0.460629       -12.5343
  55   2.0000      -0.454273       -12.3614
  56   2.0000      -0.440628       -11.9901
  57   2.0000      -0.436647       -11.8818
  58   2.0000      -0.429028       -11.6745
  59   2.0000      -0.420007       -11.4290
  60   2.0000      -0.414933       -11.2909
  61   2.0000      -0.409574       -11.1451
  62   2.0000      -0.405260       -11.0277
  63   2.0000      -0.350444        -9.5361
  64   2.0000      -0.332852        -9.0574
  65   2.0000      -0.326868        -8.8945
  66   2.0000      -0.286840        -7.8053
  67   0.0000       0.022873         0.6224
  68   0.0000       0.081398         2.2150
  69   0.0000       0.114633         3.1193
  70   0.0000       0.118412         3.2222
  71   0.0000       0.133292         3.6271

MULLIKEN ATOMIC CHARGES
-----------------------
   0 S :    0.104016
   1 C :   -0.098995
   2 C :   -0.142312
   3 C :    0.058640
   4 C :   -0.143975
   5 H :   -0.013767
   6 C :    0.082342
   7 H :   -0.015356
   8 H :    0.060645
   9 C :   -0.072533
  10 H :    0.029909
  11 H :    0.029035
  12 C :   -0.015591
  13 H :    0.030246
  14 H :    0.016660
  15 H :    0.032793
  16 S :    0.116220
  17 C :   -0.049081
  18 C :   -0.027711
  19 C :   -0.046431
  20 C :   -0.143905
  21 H :   -0.006465
  22 C :    0.110670
  23 H :   -0.023333
  24 H :    0.019834
  25 C :   -0.070104
  26 H :    0.019520
  27 H :    0.047988
  28 C :   -0.047204
  29 H :    0.037590
  30 H :    0.032998
  31 H :    0.032950
  32 H :    0.025586
  33 H :    0.029121
Sum of atomic charges:   -0.0000000

LOEWDIN ATOMIC CHARGES
----------------------
   0 S :    0.427298
   1 C :   -0.197233
   2 C :   -0.058401
   3 C :   -0.061784
   4 C :   -0.182167
   5 H :    0.019197
   6 C :   -0.031544
   7 H :    0.021098
   8 H :    0.040934
   9 C :   -0.041236
  10 H :    0.027865
  11 H :    0.023040
  12 C :   -0.058392
  13 H :    0.023094
  14 H :    0.022416
  15 H :    0.026789
  16 S :    0.425364
  17 C :   -0.180979
  18 C :   -0.061462
  19 C :   -0.049103
  20 C :   -0.211316
  21 H :    0.021928
  22 C :   -0.041175
  23 H :    0.020458
  24 H :    0.036783
  25 C :   -0.047755
  26 H :    0.023540
  27 H :    0.019414
  28 C :   -0.067867
  29 H :    0.029052
  30 H :    0.020707
  31 H :    0.029765
  32 H :    0.014205
  33 H :    0.017471

  Mayer bond orders larger than 0.100000
B(  0-S ,  1-C ) :   1.1475 B(  0-S ,  4-C ) :   1.1647 B(  1-C ,  2-C ) :   1.5738
B(  1-C ,  4-C ) :   0.1012 B(  1-C , 32-H ) :   0.9837 B(  2-C ,  3-C ) :   1.2866
B(  2-C ,  6-C ) :   1.0185 B(  3-C ,  4-C ) :   1.5247 B(  3-C ,  5-H ) :   0.9993
B(  4-C , 20-C ) :   1.0322 B(  6-C ,  7-H ) :   0.9375 B(  6-C ,  8-H ) :   0.9393
B(  6-C ,  9-C ) :   1.0505 B(  9-C , 10-H ) :   0.9516 B(  9-C , 11-H ) :   0.9544
B(  9-C , 12-C ) :   1.0860 B( 12-C , 13-H ) :   0.9722 B( 12-C , 14-H ) :   0.9699
B( 12-C , 15-H ) :   0.9740 B( 16-S , 17-C ) :   1.1646 B( 16-S , 20-C ) :   1.1476
B( 17-C , 18-C ) :   1.5993 B( 17-C , 33-H ) :   0.9682 B( 18-C , 19-C ) :   1.2722
B( 18-C , 21-H ) :   0.9981 B( 19-C , 20-C ) :   1.5498 B( 19-C , 22-C ) :   1.0274
B( 22-C , 23-H ) :   0.9226 B( 22-C , 24-H ) :   0.9138 B( 22-C , 25-C ) :   1.0728
B( 25-C , 26-H ) :   0.9479 B( 25-C , 27-H ) :   0.9496 B( 25-C , 28-C ) :   1.0762
B( 28-C , 29-H ) :   0.9773 B( 28-C , 30-H ) :   0.9761 B( 28-C , 31-H ) :   0.9738

Dispersion correction           -0.014504060
FINAL SINGLE POINT ENERGY     -1339.862026515473

DIPOLE MOMENT
-------------
                                X             Y             Z
Electronic contribution:     10.94525      -9.20474       9.71964
Nuclear contribution   :    -11.10896       9.30288      -9.96300
                        -----------------------------------------
Total Dipole Moment    :     -0.16372       0.09813      -0.24336
                        -----------------------------------------
Magnitude (a.u.)       :      0.30929
Magnitude (Debye)      :      0.78615

Rotational constants in cm-1:     0.021885     0.007997     0.006672
Rotational constants in MHz :   656.094196   239.746715   200.033025

                             ****ORCA TERMINATED NORMALLY****
TOTAL RUN TIME: 0 days 0 hours 0 minutes 30 seconds 733 msec
