                         Program Version 4.2.1 -  RELEASE  -
|  1> ! wB97X-D3 SP def2-SVP
|  2> %pal
|  3> nprocs 16
|  4> end
|  5>
|  6> * xyz 0 1
|  7> S 	 3.78003 	 -18.3692 	 83.6774
|  8> C 	 3.59456 	 -19.5938 	 84.8548
|  9> C 	 2.88903 	 -19.2286 	 85.9589
| 10> C 	 2.62806 	 -17.8453 	 86.0053
| 11> C 	 3.02513 	 -17.2265 	 84.8198
| 12> H 	 2.14238 	 -17.3533 	 86.8577
| 13> C 	 2.40747 	 -20.1046 	 87.1101
| 14> H 	 2.01556 	 -20.9178 	 86.5781
| 15> H 	 1.65376 	 -19.7803 	 87.721
| 16> C 	 3.48972 	 -20.5933 	 88.0999
| 17> H 	 4.0035 	 -21.5343 	 87.7732
| 18> H 	 4.22385 	 -19.8178 	 88.1816
| 19> C 	 2.8686 	 -20.8095 	 89.5899
| 20> H 	 2.43381 	 -19.8595 	 90.0314
| 21> H 	 2.08216 	 -21.5893 	 89.5284
| 22> H 	 3.68909 	 -20.996 	 90.3047
| 23> S 	 1.87197 	 -15.4689 	 83.0332
| 24> C 	 1.72738 	 -13.7854 	 83.3687
| 25> C 	 2.28056 	 -13.4851 	 84.6137
| 26> C 	 2.88042 	 -14.5818 	 85.2409
| 27> C 	 2.73018 	 -15.8313 	 84.5341
| 28> H 	 2.25596 	 -12.4244 	 84.9989
| 29> C 	 3.69808 	 -14.4539 	 86.431
| 30> H 	 3.79014 	 -15.4656 	 86.9246
| 31> H 	 3.11441 	 -13.8896 	 87.1146
| 32> C 	 4.97999 	 -13.6299 	 86.3858
| 33> H 	 4.6969 	 -12.6299 	 85.9862
| 34> H 	 5.5782 	 -14.1174 	 85.685
| 35> C 	 5.74453 	 -13.5873 	 87.7176
| 36> H 	 6.10098 	 -14.5992 	 88.0546
| 37> H 	 5.14621 	 -13.1794 	 88.5185
| 38> H 	 6.60722 	 -12.9295 	 87.7
| 39> H 	 3.87366 	 -20.6164 	 84.7888
| 40> H 	 1.23523 	 -13.1411 	 82.7855
| 41> *
| 42>
| 43>                          ****END OF INPUT****

CARTESIAN COORDINATES (ANGSTROEM)
---------------------------------
  S      3.780030  -18.369200   83.677400
  C      3.594560  -19.593800   84.854800
  C      2.889030  -19.228600   85.958900
  C      2.628060  -17.845300   86.005300
  C      3.025130  -17.226500   84.819800
  H      2.142380  -17.353300   86.857700
  C      2.407470  -20.104600   87.110100
  H      2.015560  -20.917800   86.578100
  H      1.653760  -19.780300   87.721000
  C      3.489720  -20.593300   88.099900
  H      4.003500  -21.534300   87.773200
  H      4.223850  -19.817800   88.181600
  C      2.868600  -20.809500   89.589900
  H      2.433810  -19.859500   90.031400
  H      2.082160  -21.589300   89.528400
  H      3.689090  -20.996000   90.304700
  S      1.871970  -15.468900   83.033200
  C      1.727380  -13.785400   83.368700
  C      2.280560  -13.485100   84.613700
  C      2.880420  -14.581800   85.240900
  C      2.730180  -15.831300   84.534100
  H      2.255960  -12.424400   84.998900
  C      3.698080  -14.453900   86.431000
  H      3.790140  -15.465600   86.924600
  H      3.114410  -13.889600   87.114600
  C      4.979990  -13.629900   86.385800
  H      4.696900  -12.629900   85.986200
  H      5.578200  -14.117400   85.685000
  C      5.744530  -13.587300   87.717600
  H      6.100980  -14.599200   88.054600
  H      5.146210  -13.179400   88.518500
  H      6.607220  -12.929500   87.700000
  H      3.873660  -20.616400   84.788800
  H      1.235230  -13.141100   82.785500

 Total Charge           Charge          ....    0
 Multiplicity           Mult            ....    1
 Number of Electrons    NEL             ....  134
 Basis Dimension        Dim             ....  322

ORBITAL ENERGIES
----------------

  NO   OCC          E(Eh)            E(eV)
   0   2.0000     -88.974875     -2421.1294
   1   2.0000     -88.962883     -2420.8031
   2   2.0000     -10.333521      -281.1894
   3   2.0000     -10.329074      -281.0684
   4   2.0000     -10.308373      -280.5051
   5   2.0000     -10.307329      -280.4767
   6   2.0000     -10.300328      -280.2862
   7   2.0000     -10.295535      -280.1558
   8   2.0000     -10.295328      -280.1501
   9   2.0000     -10.294298      -280.1221
  10   2.0000     -10.293880      -280.1107
  11   2.0000     -10.293694      -280.1056
  12   2.0000     -10.282246      -279.7941
  13   2.0000     -10.280942      -279.7586
  14   2.0000     -10.280013      -279.7334
  15   2.0000     -10.279287      -279.7136
  16   2.0000      -8.089324      -220.1217
  17   2.0000      -8.077806      -219.8083
  18   2.0000      -6.047870      -164.5709
  19   2.0000      -6.043975      -164.4649
  20   2.0000      -6.039965      -164.3558
  21   2.0000      -6.036106      -164.2508
  22   2.0000      -6.032078      -164.1412
  23   2.0000      -6.029000      -164.0574
  24   2.0000      -1.007397       -27.4127
  25   2.0000      -0.986927       -26.8556
  26   2.0000      -0.914029       -24.8720
  27   2.0000      -0.908123       -24.7113
  28   2.0000      -0.869091       -23.6492
  29   2.0000      -0.852916       -23.2090
  30   2.0000      -0.848047       -23.0765
  31   2.0000      -0.811075       -22.0705
  32   2.0000      -0.781090       -21.2545
  33   2.0000      -0.770692       -20.9716
  34   2.0000      -0.710734       -19.3401
  35   2.0000      -0.704412       -19.1680
  36   2.0000      -0.700166       -19.0525
  37   2.0000      -0.660236       -17.9659
  38   2.0000      -0.639512       -17.4020
  39   2.0000      -0.622309       -16.9339
  40   2.0000      -0.598481       -16.2855
  41   2.0000      -0.575389       -15.6571
  42   2.0000      -0.566241       -15.4082
  43   2.0000      -0.558278       -15.1915
  44   2.0000      -0.530308       -14.4304
  45   2.0000      -0.523338       -14.2407
  46   2.0000      -0.513715       -13.9789
  47   2.0000      -0.512481       -13.9453
  48   2.0000      -0.500238       -13.6122
  49   2.0000      -0.496231       -13.5031
  50   2.0000      -0.493489       -13.4285
  51   2.0000      -0.485123       -13.2009
  52   2.0000      -0.466217       -12.6864
  53   2.0000      -0.463754       -12.6194
  54   2.0000      -0.457465       -12.4483
  55   2.0000      -0.451704       -12.2915
  56   2.0000      -0.449223       -12.2240
  57   2.0000      -0.439897       -11.9702
  58   2.0000      -0.430340       -11.7101
  59   2.0000      -0.428698       -11.6655
  60   2.0000      -0.424533       -11.5521
  61   2.0000      -0.414418       -11.2769
  62   2.0000      -0.411659       -11.2018
  63   2.0000      -0.349850        -9.5199
  64   2.0000      -0.334068        -9.0905
  65   2.0000      -0.327296        -8.9062
  66   2.0000      -0.282763        -7.6944
  67   0.0000       0.027058         0.7363
  68   0.0000       0.066058         1.7975
  69   0.0000       0.112919         3.0727
  70   0.0000       0.128441         3.4951
  71   0.0000       0.131806         3.5866

MULLIKEN ATOMIC CHARGES
-----------------------
   0 S :    0.141314
   1 C :   -0.088478
   2 C :   -0.108229
   3 C :    0.017206
   4 C :   -0.152205
   5 H :    0.028823
   6 C :    0.146065
   7 H :    0.013634
   8 H :   -0.008318
   9 C :   -0.089178
  10 H :    0.042107
  11 H :    0.029113
  12 C :   -0.113796
  13 H :    0.040080
  14 H :    0.050915
  15 H :    0.044790
  16 S :    0.098280
  17 C :   -0.044179
  18 C :   -0.068112
  19 C :   -0.022421
  20 C :   -0.154775
  21 H :    0.041138
  22 C :    0.050841
  23 H :    0.020272
  24 H :   -0.001262
  25 C :   -0.031994
  26 H :    0.026571
  27 H :    0.018069
  28 C :   -0.047657
  29 H :    0.038569
  30 H :    0.019886
  31 H :    0.032670
  32 H :    0.022158
  33 H :    0.008104
Sum of atomic charges:   -0.0000000

LOEWDIN ATOMIC CHARGES
----------------------
   0 S :    0.420063
   1 C :   -0.207162
   2 C :   -0.061723
   3 C :   -0.053677
   4 C :   -0.190249
   5 H :    0.038184
   6 C :   -0.024538
   7 H :    0.028752
   8 H :    0.018222
   9 C :   -0.033768
  10 H :    0.026985
  11 H :    0.018313
  12 C :   -0.078233
  13 H :    0.028819
  14 H :    0.026915
  15 H :    0.029004
  16 S :    0.416586
  17 C :   -0.174903
  18 C :   -0.077368
  19 C :   -0.061074
  20 C :   -0.196795
  21 H :    0.042481
  22 C :   -0.044775
  23 H :    0.033773
  24 H :    0.023686
  25 C :   -0.030419
  26 H :    0.026919
  27 H :    0.016449
  28 C :   -0.065401
  29 H :    0.032418
  30 H :    0.020438
  31 H :    0.026654
  32 H :    0.023354
  33 H :    0.002073

  Mayer bond orders larger than 0.100000
B(  0-S ,  1-C ) :   1.1312 B(  0-S ,  4-C ) :   1.1484 B(  1-C ,  2-C ) :   1.6324
B(  1-C , 32-H ) :   0.9617 B(  2-C ,  3-C ) :   1.2583 B(  2-C ,  6-C ) :   1.0203
B(  3-C ,  4-C ) :   1.5404 B(  3-C ,  5-H ) :   0.9917 B(  4-C , 20-C ) :   1.0667
B(  6-C ,  7-H ) :   0.9229 B(  6-C ,  8-H ) :   0.9498 B(  6-C ,  9-C ) :   1.0467
B(  9-C , 10-H ) :   0.9585 B(  9-C , 11-H ) :   0.9648 B(  9-C , 12-C ) :   1.0729
B( 12-C , 13-H ) :   0.9753 B( 12-C , 14-H ) :   0.9778 B( 12-C , 15-H ) :   0.9768
B( 16-S , 17-C ) :   1.1862 B( 16-S , 20-C ) :   1.1522 B( 17-C , 18-C ) :   1.5468
B( 17-C , 20-C ) :   0.1144 B( 17-C , 33-H ) :   0.9840 B( 18-C , 19-C ) :   1.2887
B( 18-C , 21-H ) :   0.9826 B( 19-C , 20-C ) :   1.5122 B( 19-C , 22-C ) :   1.0779
B( 22-C , 23-H ) :   0.9285 B( 22-C , 24-H ) :   0.9122 B( 22-C , 25-C ) :   1.0604
B( 25-C , 26-H ) :   0.9489 B( 25-C , 27-H ) :   0.9544 B( 25-C , 28-C ) :   1.0861
B( 28-C , 29-H ) :   0.9733 B( 28-C , 30-H ) :   0.9747 B( 28-C , 31-H ) :   0.9738

Dispersion correction           -0.013458752
FINAL SINGLE POINT ENERGY     -1339.854943213421

DIPOLE MOMENT
-------------
                                X             Y             Z
Electronic contribution:     -7.66336       1.97447     -29.07622
Nuclear contribution   :      7.64777      -1.96281      29.70281
                        -----------------------------------------
Total Dipole Moment    :     -0.01559       0.01166       0.62658
                        -----------------------------------------
Magnitude (a.u.)       :      0.62689
Magnitude (Debye)      :      1.59342

Rotational constants in cm-1:     0.016991     0.008214     0.006359
Rotational constants in MHz :   509.379448   246.262704   190.641548

                             ****ORCA TERMINATED NORMALLY****
TOTAL RUN TIME: 0 days 0 hours 0 minutes 32 seconds 595 msec
