                         Program Version 4.2.1 -  RELEASE  -
|  1> ! wB97X-D3 SP def2-SVP
|  2> %pal
|  3> nprocs 16
|  4> end
|  5>
|  6> * xyz 0 1
|  7> S 	 -69.4605 	 41.2514 	 126.134
|  8> C 	 -69.6688 	 42.7472 	 127.022
|  9> C 	 -69.1525 	 43.7532 	 126.257
| 10> C 	 -68.4043 	 43.3291 	 125.059
| 11> C 	 -68.4455 	 41.9603 	 124.872
| 12> H 	 -67.9848 	 43.9936 	 124.343
| 13> C 	 -69.1632 	 45.2377 	 126.687
| 14> H 	 -68.1652 	 45.6001 	 126.911
| 15> H 	 -69.7115 	 45.2475 	 127.597
| 16> C 	 -69.7556 	 46.3085 	 125.854
| 17> H 	 -70.8428 	 46.3216 	 125.714
| 18> H 	 -69.6736 	 47.2688 	 126.443
| 19> C 	 -68.996 	 46.5339 	 124.505
| 20> H 	 -67.9298 	 46.5775 	 124.585
| 21> H 	 -69.2167 	 45.8392 	 123.712
| 22> H 	 -69.283 	 47.4315 	 124.016
| 23> S 	 -68.7062 	 41.2098 	 122.1
| 24> C 	 -67.3223 	 40.5279 	 121.382
| 25> C 	 -66.4098 	 40.2157 	 122.313
| 26> C 	 -66.7807 	 40.5372 	 123.663
| 27> C 	 -67.9589 	 41.2553 	 123.7
| 28> H 	 -65.4075 	 39.7948 	 121.944
| 29> C 	 -65.9305 	 40.3721 	 124.916
| 30> H 	 -65.5815 	 39.3404 	 124.693
| 31> H 	 -66.5808 	 40.3945 	 125.805
| 32> C 	 -64.6876 	 41.2132 	 125.079
| 33> H 	 -64.0433 	 41.0717 	 124.184
| 34> H 	 -64.2298 	 40.8454 	 125.943
| 35> C 	 -64.8621 	 42.6562 	 125.327
| 36> H 	 -63.9714 	 43.0903 	 125.665
| 37> H 	 -65.5035 	 42.6167 	 126.192
| 38> H 	 -65.4093 	 43.1909 	 124.587
| 39> H 	 -70.3442 	 42.943 	 127.885
| 40> H 	 -67.1786 	 40.4709 	 120.263
| 41> *
| 42>
| 43>                          ****END OF INPUT****

CARTESIAN COORDINATES (ANGSTROEM)
---------------------------------
  S    -69.460500   41.251400  126.134000
  C    -69.668800   42.747200  127.022000
  C    -69.152500   43.753200  126.257000
  C    -68.404300   43.329100  125.059000
  C    -68.445500   41.960300  124.872000
  H    -67.984800   43.993600  124.343000
  C    -69.163200   45.237700  126.687000
  H    -68.165200   45.600100  126.911000
  H    -69.711500   45.247500  127.597000
  C    -69.755600   46.308500  125.854000
  H    -70.842800   46.321600  125.714000
  H    -69.673600   47.268800  126.443000
  C    -68.996000   46.533900  124.505000
  H    -67.929800   46.577500  124.585000
  H    -69.216700   45.839200  123.712000
  H    -69.283000   47.431500  124.016000
  S    -68.706200   41.209800  122.100000
  C    -67.322300   40.527900  121.382000
  C    -66.409800   40.215700  122.313000
  C    -66.780700   40.537200  123.663000
  C    -67.958900   41.255300  123.700000
  H    -65.407500   39.794800  121.944000
  C    -65.930500   40.372100  124.916000
  H    -65.581500   39.340400  124.693000
  H    -66.580800   40.394500  125.805000
  C    -64.687600   41.213200  125.079000
  H    -64.043300   41.071700  124.184000
  H    -64.229800   40.845400  125.943000
  C    -64.862100   42.656200  125.327000
  H    -63.971400   43.090300  125.665000
  H    -65.503500   42.616700  126.192000
  H    -65.409300   43.190900  124.587000
  H    -70.344200   42.943000  127.885000
  H    -67.178600   40.470900  120.263000

 Total Charge           Charge          ....    0
 Multiplicity           Mult            ....    1
 Number of Electrons    NEL             ....  134
 Basis Dimension        Dim             ....  322

ORBITAL ENERGIES
----------------

  NO   OCC          E(Eh)            E(eV)
   0   2.0000     -88.963993     -2420.8333
   1   2.0000     -88.961794     -2420.7735
   2   2.0000     -10.331248      -281.1276
   3   2.0000     -10.322047      -280.8772
   4   2.0000     -10.319097      -280.7969
   5   2.0000     -10.316647      -280.7302
   6   2.0000     -10.304279      -280.3937
   7   2.0000     -10.301954      -280.3304
   8   2.0000     -10.296129      -280.1719
   9   2.0000     -10.295950      -280.1670
  10   2.0000     -10.291708      -280.0516
  11   2.0000     -10.288674      -279.9690
  12   2.0000     -10.286760      -279.9170
  13   2.0000     -10.274484      -279.5829
  14   2.0000     -10.272371      -279.5254
  15   2.0000     -10.257873      -279.1309
  16   2.0000      -8.078213      -219.8193
  17   2.0000      -8.077435      -219.7982
  18   2.0000      -6.036908      -164.2726
  19   2.0000      -6.035991      -164.2477
  20   2.0000      -6.032692      -164.1579
  21   2.0000      -6.031775      -164.1329
  22   2.0000      -6.028859      -164.0536
  23   2.0000      -6.028110      -164.0332
  24   2.0000      -1.008777       -27.4502
  25   2.0000      -0.986281       -26.8381
  26   2.0000      -0.917951       -24.9787
  27   2.0000      -0.912163       -24.8212
  28   2.0000      -0.875250       -23.8168
  29   2.0000      -0.852572       -23.1997
  30   2.0000      -0.837320       -22.7846
  31   2.0000      -0.818834       -22.2816
  32   2.0000      -0.789431       -21.4815
  33   2.0000      -0.778698       -21.1894
  34   2.0000      -0.707251       -19.2453
  35   2.0000      -0.698785       -19.0149
  36   2.0000      -0.691488       -18.8164
  37   2.0000      -0.647455       -17.6182
  38   2.0000      -0.639716       -17.4075
  39   2.0000      -0.614192       -16.7130
  40   2.0000      -0.596759       -16.2386
  41   2.0000      -0.576582       -15.6896
  42   2.0000      -0.560424       -15.2499
  43   2.0000      -0.551395       -15.0042
  44   2.0000      -0.548066       -14.9136
  45   2.0000      -0.533997       -14.5308
  46   2.0000      -0.519734       -14.1427
  47   2.0000      -0.512751       -13.9527
  48   2.0000      -0.510871       -13.9015
  49   2.0000      -0.493381       -13.4256
  50   2.0000      -0.491318       -13.3694
  51   2.0000      -0.483759       -13.1638
  52   2.0000      -0.474116       -12.9013
  53   2.0000      -0.468391       -12.7456
  54   2.0000      -0.462852       -12.5949
  55   2.0000      -0.443942       -12.0803
  56   2.0000      -0.442457       -12.0399
  57   2.0000      -0.438572       -11.9342
  58   2.0000      -0.428947       -11.6722
  59   2.0000      -0.424199       -11.5430
  60   2.0000      -0.411564       -11.1992
  61   2.0000      -0.405281       -11.0283
  62   2.0000      -0.402953       -10.9649
  63   2.0000      -0.333204        -9.0669
  64   2.0000      -0.329662        -8.9706
  65   2.0000      -0.324059        -8.8181
  66   2.0000      -0.314184        -8.5494
  67   0.0000       0.041421         1.1271
  68   0.0000       0.057550         1.5660
  69   0.0000       0.111771         3.0414
  70   0.0000       0.125144         3.4053
  71   0.0000       0.132893         3.6162

MULLIKEN ATOMIC CHARGES
-----------------------
   0 S :    0.102808
   1 C :   -0.126857
   2 C :   -0.102653
   3 C :    0.059459
   4 C :   -0.182172
   5 H :    0.007968
   6 C :    0.092074
   7 H :    0.034509
   8 H :   -0.003275
   9 C :   -0.080234
  10 H :    0.028127
  11 H :    0.030342
  12 C :   -0.049121
  13 H :    0.023837
  14 H :    0.035620
  15 H :    0.014431
  16 S :    0.115891
  17 C :   -0.114413
  18 C :   -0.061580
  19 C :   -0.044772
  20 C :   -0.161072
  21 H :    0.041955
  22 C :    0.064450
  23 H :    0.029454
  24 H :    0.030530
  25 C :   -0.037618
  26 H :    0.019143
  27 H :    0.014111
  28 C :    0.015991
  29 H :    0.018625
  30 H :    0.005655
  31 H :    0.025359
  32 H :    0.070908
  33 H :    0.082522
Sum of atomic charges:    0.0000000

LOEWDIN ATOMIC CHARGES
----------------------
   0 S :    0.394372
   1 C :   -0.204202
   2 C :   -0.061779
   3 C :   -0.047494
   4 C :   -0.186410
   5 H :    0.026229
   6 C :   -0.034460
   7 H :    0.034330
   8 H :    0.024683
   9 C :   -0.042253
  10 H :    0.024471
  11 H :    0.033036
  12 C :   -0.071097
  13 H :    0.020740
  14 H :    0.024782
  15 H :    0.023096
  16 S :    0.408048
  17 C :   -0.203760
  18 C :   -0.092347
  19 C :   -0.049808
  20 C :   -0.208449
  21 H :    0.043419
  22 C :   -0.032467
  23 H :    0.040429
  24 H :    0.028276
  25 C :   -0.035712
  26 H :    0.021493
  27 H :    0.021366
  28 C :   -0.055980
  29 H :    0.020572
  30 H :    0.026249
  31 H :    0.018730
  32 H :    0.044758
  33 H :    0.047140

  Mayer bond orders larger than 0.100000
B(  0-S ,  1-C ) :   1.1230 B(  0-S ,  4-C ) :   1.1339 B(  1-C ,  2-C ) :   1.6469
B(  1-C , 32-H ) :   0.9573 B(  2-C ,  3-C ) :   1.2072 B(  2-C ,  6-C ) :   1.0208
B(  3-C ,  4-C ) :   1.5955 B(  3-C ,  5-H ) :   0.9924 B(  4-C , 20-C ) :   1.0452
B(  6-C ,  7-H ) :   0.9424 B(  6-C ,  8-H ) :   0.9303 B(  6-C ,  9-C ) :   1.0890
B(  9-C , 10-H ) :   0.9533 B(  9-C , 11-H ) :   0.9513 B(  9-C , 12-C ) :   1.0756
B( 12-C , 13-H ) :   0.9739 B( 12-C , 14-H ) :   0.9697 B( 12-C , 15-H ) :   0.9668
B( 16-S , 17-C ) :   1.1607 B( 16-S , 20-C ) :   1.1266 B( 17-C , 18-C ) :   1.6342
B( 17-C , 33-H ) :   0.9558 B( 18-C , 19-C ) :   1.2293 B( 18-C , 21-H ) :   0.9790
B( 19-C , 20-C ) :   1.5896 B( 19-C , 22-C ) :   1.0416 B( 22-C , 23-H ) :   0.9200
B( 22-C , 24-H ) :   0.9191 B( 22-C , 25-C ) :   1.0998 B( 25-C , 26-H ) :   0.9476
B( 25-C , 27-H ) :   0.9478 B( 25-C , 28-C ) :   1.0890 B( 28-C , 29-H ) :   0.9655
B( 28-C , 30-H ) :   0.9655 B( 28-C , 31-H ) :   0.9734

Dispersion correction           -0.015862212
FINAL SINGLE POINT ENERGY     -1339.861834097167

DIPOLE MOMENT
-------------
                                X             Y             Z
Electronic contribution:    -12.05113     -18.52519      -6.93185
Nuclear contribution   :     12.39496      19.04450       6.99108
                        -----------------------------------------
Total Dipole Moment    :      0.34383       0.51932       0.05923
                        -----------------------------------------
Magnitude (a.u.)       :      0.62563
Magnitude (Debye)      :      1.59023

Rotational constants in cm-1:     0.018640     0.009044     0.008557
Rotational constants in MHz :   558.817790   271.124739   256.541604

                             ****ORCA TERMINATED NORMALLY****
TOTAL RUN TIME: 0 days 0 hours 0 minutes 37 seconds 701 msec
