                         Program Version 4.2.1 -  RELEASE  -
|  1> ! wB97X-D3 SP def2-SVP
|  2> %pal
|  3> nprocs 16
|  4> end
|  5>
|  6> * xyz 0 1
|  7> S 	 -89.2481 	 48.1407 	 127.678
|  8> C 	 -89.7549 	 49.8113 	 128.014
|  9> C 	 -88.6268 	 50.6169 	 128.051
| 10> C 	 -87.4395 	 49.8727 	 127.983
| 11> C 	 -87.5773 	 48.5034 	 127.896
| 12> H 	 -86.4086 	 50.3663 	 128.114
| 13> C 	 -88.5095 	 52.0859 	 128.272
| 14> H 	 -87.4893 	 52.2651 	 128.545
| 15> H 	 -89.0957 	 52.3658 	 129.153
| 16> C 	 -88.8809 	 52.946 	 127.123
| 17> H 	 -88.3499 	 52.7464 	 126.181
| 18> H 	 -89.8751 	 52.8953 	 126.759
| 19> C 	 -88.494 	 54.3951 	 127.414
| 20> H 	 -87.4413 	 54.604 	 127.518
| 21> H 	 -88.8099 	 55.0709 	 126.578
| 22> H 	 -88.9773 	 54.6818 	 128.328
| 23> S 	 -86.7502 	 46.5129 	 126.415
| 24> C 	 -85.1896 	 45.9295 	 126.553
| 25> C 	 -84.6265 	 46.2668 	 127.776
| 26> C 	 -85.3907 	 47.2825 	 128.461
| 27> C 	 -86.5487 	 47.543 	 127.803
| 28> H 	 -83.6269 	 45.9448 	 128.049
| 29> C 	 -84.8862 	 48.0381 	 129.694
| 30> H 	 -85.549 	 48.8741 	 129.85
| 31> H 	 -83.9094 	 48.5342 	 129.61
| 32> C 	 -84.8932 	 47.245 	 131.004
| 33> H 	 -84.4071 	 47.7974 	 131.816
| 34> H 	 -84.305 	 46.4224 	 130.728
| 35> C 	 -86.1814 	 46.7004 	 131.499
| 36> H 	 -86.8849 	 47.4999 	 131.803
| 37> H 	 -85.8726 	 46.0626 	 132.3
| 38> H 	 -86.7206 	 46.014 	 130.83
| 39> H 	 -90.8084 	 50.1736 	 128.195
| 40> H 	 -84.7996 	 45.1675 	 125.864
| 41> *
| 42>
| 43>                          ****END OF INPUT****

CARTESIAN COORDINATES (ANGSTROEM)
---------------------------------
  S    -89.248100   48.140700  127.678000
  C    -89.754900   49.811300  128.014000
  C    -88.626800   50.616900  128.051000
  C    -87.439500   49.872700  127.983000
  C    -87.577300   48.503400  127.896000
  H    -86.408600   50.366300  128.114000
  C    -88.509500   52.085900  128.272000
  H    -87.489300   52.265100  128.545000
  H    -89.095700   52.365800  129.153000
  C    -88.880900   52.946000  127.123000
  H    -88.349900   52.746400  126.181000
  H    -89.875100   52.895300  126.759000
  C    -88.494000   54.395100  127.414000
  H    -87.441300   54.604000  127.518000
  H    -88.809900   55.070900  126.578000
  H    -88.977300   54.681800  128.328000
  S    -86.750200   46.512900  126.415000
  C    -85.189600   45.929500  126.553000
  C    -84.626500   46.266800  127.776000
  C    -85.390700   47.282500  128.461000
  C    -86.548700   47.543000  127.803000
  H    -83.626900   45.944800  128.049000
  C    -84.886200   48.038100  129.694000
  H    -85.549000   48.874100  129.850000
  H    -83.909400   48.534200  129.610000
  C    -84.893200   47.245000  131.004000
  H    -84.407100   47.797400  131.816000
  H    -84.305000   46.422400  130.728000
  C    -86.181400   46.700400  131.499000
  H    -86.884900   47.499900  131.803000
  H    -85.872600   46.062600  132.300000
  H    -86.720600   46.014000  130.830000
  H    -90.808400   50.173600  128.195000
  H    -84.799600   45.167500  125.864000

 Total Charge           Charge          ....    0
 Multiplicity           Mult            ....    1
 Number of Electrons    NEL             ....  134
 Basis Dimension        Dim             ....  322

ORBITAL ENERGIES
----------------

  NO   OCC          E(Eh)            E(eV)
   0   2.0000     -88.966056     -2420.8895
   1   2.0000     -88.961936     -2420.7774
   2   2.0000     -10.323755      -280.9237
   3   2.0000     -10.319921      -280.8193
   4   2.0000     -10.319388      -280.8048
   5   2.0000     -10.314496      -280.6717
   6   2.0000     -10.305169      -280.4179
   7   2.0000     -10.295478      -280.1542
   8   2.0000     -10.295427      -280.1528
   9   2.0000     -10.291677      -280.0508
  10   2.0000     -10.288076      -279.9528
  11   2.0000     -10.286491      -279.9097
  12   2.0000     -10.278879      -279.7025
  13   2.0000     -10.275507      -279.6108
  14   2.0000     -10.275044      -279.5982
  15   2.0000     -10.268052      -279.4079
  16   2.0000      -8.080765      -219.8888
  17   2.0000      -8.079105      -219.8436
  18   2.0000      -6.039400      -164.3404
  19   2.0000      -6.037393      -164.2858
  20   2.0000      -6.035234      -164.2271
  21   2.0000      -6.033316      -164.1749
  22   2.0000      -6.031427      -164.1235
  23   2.0000      -6.029867      -164.0810
  24   2.0000      -1.019617       -27.7452
  25   2.0000      -0.990939       -26.9648
  26   2.0000      -0.922828       -25.1114
  27   2.0000      -0.914223       -24.8773
  28   2.0000      -0.876562       -23.8525
  29   2.0000      -0.857591       -23.3362
  30   2.0000      -0.846174       -23.0256
  31   2.0000      -0.808955       -22.0128
  32   2.0000      -0.787166       -21.4199
  33   2.0000      -0.775257       -21.0958
  34   2.0000      -0.708556       -19.2808
  35   2.0000      -0.704044       -19.1580
  36   2.0000      -0.691976       -18.8296
  37   2.0000      -0.662323       -18.0227
  38   2.0000      -0.635995       -17.3063
  39   2.0000      -0.620289       -16.8789
  40   2.0000      -0.604226       -16.4418
  41   2.0000      -0.568958       -15.4821
  42   2.0000      -0.560835       -15.2611
  43   2.0000      -0.551647       -15.0111
  44   2.0000      -0.548525       -14.9261
  45   2.0000      -0.528625       -14.3846
  46   2.0000      -0.522835       -14.2271
  47   2.0000      -0.514622       -14.0036
  48   2.0000      -0.509289       -13.8585
  49   2.0000      -0.502401       -13.6710
  50   2.0000      -0.492860       -13.4114
  51   2.0000      -0.477756       -13.0004
  52   2.0000      -0.470395       -12.8001
  53   2.0000      -0.464894       -12.6504
  54   2.0000      -0.453884       -12.3508
  55   2.0000      -0.449303       -12.2261
  56   2.0000      -0.448462       -12.2033
  57   2.0000      -0.442523       -12.0417
  58   2.0000      -0.434558       -11.8249
  59   2.0000      -0.421135       -11.4597
  60   2.0000      -0.414108       -11.2685
  61   2.0000      -0.409193       -11.1347
  62   2.0000      -0.407993       -11.1021
  63   2.0000      -0.351850        -9.5743
  64   2.0000      -0.332990        -9.0611
  65   2.0000      -0.330523        -8.9940
  66   2.0000      -0.286918        -7.8074
  67   0.0000       0.032376         0.8810
  68   0.0000       0.065429         1.7804
  69   0.0000       0.107444         2.9237
  70   0.0000       0.118993         3.2380
  71   0.0000       0.139077         3.7845

MULLIKEN ATOMIC CHARGES
-----------------------
   0 S :    0.105008
   1 C :   -0.149488
   2 C :   -0.074485
   3 C :   -0.011094
   4 C :   -0.136111
   5 H :    0.040722
   6 C :    0.098915
   7 H :    0.002374
   8 H :    0.028698
   9 C :   -0.051427
  10 H :    0.021054
  11 H :    0.018781
  12 C :   -0.057365
  13 H :    0.029136
  14 H :    0.035960
  15 H :    0.017978
  16 S :    0.112002
  17 C :   -0.095799
  18 C :   -0.037169
  19 C :   -0.047340
  20 C :   -0.151141
  21 H :    0.020078
  22 C :    0.085148
  23 H :   -0.000514
  24 H :    0.032071
  25 C :   -0.067396
  26 H :    0.032050
  27 H :    0.004326
  28 C :   -0.041649
  29 H :    0.038559
  30 H :    0.025210
  31 H :    0.036301
  32 H :    0.068160
  33 H :    0.068450
Sum of atomic charges:    0.0000000

LOEWDIN ATOMIC CHARGES
----------------------
   0 S :    0.405515
   1 C :   -0.203599
   2 C :   -0.065570
   3 C :   -0.077759
   4 C :   -0.206331
   5 H :    0.041419
   6 C :   -0.028957
   7 H :    0.028145
   8 H :    0.035167
   9 C :   -0.042304
  10 H :    0.028368
  11 H :    0.020311
  12 C :   -0.063777
  13 H :    0.021276
  14 H :    0.031073
  15 H :    0.017178
  16 S :    0.440210
  17 C :   -0.207194
  18 C :   -0.072904
  19 C :   -0.053272
  20 C :   -0.194813
  21 H :    0.029294
  22 C :   -0.032279
  23 H :    0.021525
  24 H :    0.033625
  25 C :   -0.041444
  26 H :    0.028073
  27 H :    0.015308
  28 C :   -0.065648
  29 H :    0.027891
  30 H :    0.027039
  31 H :    0.028141
  32 H :    0.042863
  33 H :    0.033429

  Mayer bond orders larger than 0.100000
B(  0-S ,  1-C ) :   1.1266 B(  0-S ,  4-C ) :   1.1554 B(  1-C ,  2-C ) :   1.5840
B(  1-C ,  4-C ) :   0.1094 B(  1-C , 32-H ) :   0.9669 B(  2-C ,  3-C ) :   1.2835
B(  2-C ,  6-C ) :   1.0198 B(  3-C ,  4-C ) :   1.5477 B(  3-C ,  5-H ) :   0.9752
B(  4-C , 20-C ) :   1.0494 B(  6-C ,  7-H ) :   0.9386 B(  6-C ,  8-H ) :   0.9296
B(  6-C ,  9-C ) :   1.0690 B(  9-C , 10-H ) :   0.9500 B(  9-C , 11-H ) :   0.9536
B(  9-C , 12-C ) :   1.0838 B( 12-C , 13-H ) :   0.9769 B( 12-C , 14-H ) :   0.9735
B( 12-C , 15-H ) :   0.9734 B( 16-S , 17-C ) :   1.1832 B( 16-S , 20-C ) :   1.1446
B( 17-C , 18-C ) :   1.5948 B( 17-C , 33-H ) :   0.9649 B( 18-C , 19-C ) :   1.2195
B( 18-C , 21-H ) :   0.9899 B( 19-C , 20-C ) :   1.6225 B( 19-C , 22-C ) :   1.0365
B( 22-C , 23-H ) :   0.9292 B( 22-C , 24-H ) :   0.9391 B( 22-C , 25-C ) :   1.0702
B( 25-C , 26-H ) :   0.9526 B( 25-C , 27-H ) :   0.9551 B( 25-C , 28-C ) :   1.0936
B( 28-C , 29-H ) :   0.9735 B( 28-C , 30-H ) :   0.9689 B( 28-C , 31-H ) :   0.9698

Dispersion correction           -0.013981624
FINAL SINGLE POINT ENERGY     -1339.870201877593

DIPOLE MOMENT
-------------
                                X             Y             Z
Electronic contribution:     -5.50705     -19.39560     -13.56592
Nuclear contribution   :      5.87905      19.78843      13.80902
                        -----------------------------------------
Total Dipole Moment    :      0.37200       0.39283       0.24310
                        -----------------------------------------
Magnitude (a.u.)       :      0.59313
Magnitude (Debye)      :      1.50760

Rotational constants in cm-1:     0.020356     0.007835     0.006965
Rotational constants in MHz :   610.266353   234.892211   208.811199

                             ****ORCA TERMINATED NORMALLY****
TOTAL RUN TIME: 0 days 0 hours 0 minutes 31 seconds 828 msec
