                         Program Version 4.2.1 -  RELEASE  -
|  1> ! wB97X-D3 SP def2-SVP
|  2> %pal
|  3> nprocs 16
|  4> end
|  5>
|  6> * xyz 0 1
|  7> S 	 -51.4075 	 8.50338 	 91.6018
|  8> C 	 -50.3636 	 9.58901 	 92.4773
|  9> C 	 -49.7378 	 10.4804 	 91.6329
| 10> C 	 -50.0357 	 10.2518 	 90.2566
| 11> C 	 -51.018 	 9.28921 	 90.0733
| 12> H 	 -49.6657 	 10.7527 	 89.3151
| 13> C 	 -48.6571 	 11.5086 	 92.0921
| 14> H 	 -48.8751 	 12.1031 	 92.9541
| 15> H 	 -48.7201 	 12.3861 	 91.4111
| 16> C 	 -47.2484 	 10.9142 	 92.3379
| 17> H 	 -46.6827 	 11.6328 	 92.8831
| 18> H 	 -47.1798 	 10.0594 	 93.0501
| 19> C 	 -46.4256 	 10.7049 	 91.0556
| 20> H 	 -46.9514 	 10.0271 	 90.5815
| 21> H 	 -46.5085 	 11.6374 	 90.4347
| 22> H 	 -45.3594 	 10.4471 	 91.1458
| 23> S 	 -50.4067 	 8.53974 	 87.5169
| 24> C 	 -51.633 	 7.86762 	 86.5255
| 25> C 	 -52.8245 	 7.88884 	 87.2021
| 26> C 	 -52.8245 	 8.45626 	 88.4581
| 27> C 	 -51.5624 	 8.79074 	 88.8647
| 28> H 	 -53.7035 	 7.48991 	 86.7817
| 29> C 	 -54.0457 	 8.39608 	 89.3616
| 30> H 	 -54.9124 	 8.67851 	 88.6631
| 31> H 	 -54.0712 	 9.21983 	 90.1224
| 32> C 	 -54.3558 	 7.09328 	 90.1147
| 33> H 	 -53.5725 	 6.69716 	 90.67
| 34> H 	 -54.5651 	 6.32538 	 89.3498
| 35> C 	 -55.5745 	 7.03777 	 91.1112
| 36> H 	 -55.7845 	 7.94275 	 91.6062
| 37> H 	 -55.5241 	 6.2971 	 91.8515
| 38> H 	 -56.46 	 6.81408 	 90.447
| 39> H 	 -50.2794 	 9.74812 	 93.5351
| 40> H 	 -51.5436 	 7.383 	 85.5211
| 41> *
| 42>
| 43>                          ****END OF INPUT****

CARTESIAN COORDINATES (ANGSTROEM)
---------------------------------
  S    -51.407500    8.503380   91.601800
  C    -50.363600    9.589010   92.477300
  C    -49.737800   10.480400   91.632900
  C    -50.035700   10.251800   90.256600
  C    -51.018000    9.289210   90.073300
  H    -49.665700   10.752700   89.315100
  C    -48.657100   11.508600   92.092100
  H    -48.875100   12.103100   92.954100
  H    -48.720100   12.386100   91.411100
  C    -47.248400   10.914200   92.337900
  H    -46.682700   11.632800   92.883100
  H    -47.179800   10.059400   93.050100
  C    -46.425600   10.704900   91.055600
  H    -46.951400   10.027100   90.581500
  H    -46.508500   11.637400   90.434700
  H    -45.359400   10.447100   91.145800
  S    -50.406700    8.539740   87.516900
  C    -51.633000    7.867620   86.525500
  C    -52.824500    7.888840   87.202100
  C    -52.824500    8.456260   88.458100
  C    -51.562400    8.790740   88.864700
  H    -53.703500    7.489910   86.781700
  C    -54.045700    8.396080   89.361600
  H    -54.912400    8.678510   88.663100
  H    -54.071200    9.219830   90.122400
  C    -54.355800    7.093280   90.114700
  H    -53.572500    6.697160   90.670000
  H    -54.565100    6.325380   89.349800
  C    -55.574500    7.037770   91.111200
  H    -55.784500    7.942750   91.606200
  H    -55.524100    6.297100   91.851500
  H    -56.460000    6.814080   90.447000
  H    -50.279400    9.748120   93.535100
  H    -51.543600    7.383000   85.521100

 Total Charge           Charge          ....    0
 Multiplicity           Mult            ....    1
 Number of Electrons    NEL             ....  134
 Basis Dimension        Dim             ....  322

ORBITAL ENERGIES
----------------

  NO   OCC          E(Eh)            E(eV)
   0   2.0000     -88.969238     -2420.9760
   1   2.0000     -88.966891     -2420.9122
   2   2.0000     -10.327838      -281.0348
   3   2.0000     -10.324863      -280.9538
   4   2.0000     -10.318432      -280.7788
   5   2.0000     -10.311903      -280.6011
   6   2.0000     -10.304744      -280.4063
   7   2.0000     -10.301944      -280.3301
   8   2.0000     -10.299474      -280.2629
   9   2.0000     -10.298422      -280.2343
  10   2.0000     -10.297406      -280.2067
  11   2.0000     -10.285601      -279.8854
  12   2.0000     -10.283623      -279.8316
  13   2.0000     -10.283477      -279.8276
  14   2.0000     -10.274548      -279.5847
  15   2.0000     -10.265179      -279.3297
  16   2.0000      -8.083243      -219.9562
  17   2.0000      -8.081560      -219.9104
  18   2.0000      -6.041780      -164.4052
  19   2.0000      -6.040051      -164.3581
  20   2.0000      -6.037812      -164.2972
  21   2.0000      -6.036008      -164.2481
  22   2.0000      -6.034058      -164.1951
  23   2.0000      -6.032396      -164.1498
  24   2.0000      -1.013024       -27.5658
  25   2.0000      -0.988069       -26.8867
  26   2.0000      -0.907682       -24.6993
  27   2.0000      -0.903553       -24.5869
  28   2.0000      -0.874835       -23.8055
  29   2.0000      -0.855200       -23.2712
  30   2.0000      -0.845495       -23.0071
  31   2.0000      -0.812102       -22.0984
  32   2.0000      -0.786560       -21.4034
  33   2.0000      -0.775510       -21.1027
  34   2.0000      -0.710031       -19.3209
  35   2.0000      -0.703645       -19.1472
  36   2.0000      -0.697322       -18.9751
  37   2.0000      -0.670820       -18.2539
  38   2.0000      -0.636408       -17.3175
  39   2.0000      -0.611442       -16.6382
  40   2.0000      -0.599514       -16.3136
  41   2.0000      -0.571523       -15.5519
  42   2.0000      -0.558710       -15.2033
  43   2.0000      -0.549839       -14.9619
  44   2.0000      -0.534907       -14.5556
  45   2.0000      -0.525248       -14.2927
  46   2.0000      -0.519927       -14.1479
  47   2.0000      -0.509663       -13.8686
  48   2.0000      -0.506854       -13.7922
  49   2.0000      -0.499227       -13.5847
  50   2.0000      -0.485224       -13.2036
  51   2.0000      -0.481720       -13.1083
  52   2.0000      -0.475546       -12.9403
  53   2.0000      -0.466979       -12.7071
  54   2.0000      -0.463801       -12.6207
  55   2.0000      -0.452129       -12.3031
  56   2.0000      -0.446480       -12.1493
  57   2.0000      -0.438003       -11.9187
  58   2.0000      -0.428555       -11.6616
  59   2.0000      -0.420270       -11.4361
  60   2.0000      -0.413603       -11.2547
  61   2.0000      -0.409534       -11.1440
  62   2.0000      -0.404040       -10.9945
  63   2.0000      -0.351275        -9.5587
  64   2.0000      -0.337581        -9.1861
  65   2.0000      -0.334619        -9.1055
  66   2.0000      -0.288781        -7.8581
  67   0.0000       0.023260         0.6329
  68   0.0000       0.072957         1.9853
  69   0.0000       0.105643         2.8747
  70   0.0000       0.114452         3.1144
  71   0.0000       0.137652         3.7457

MULLIKEN ATOMIC CHARGES
-----------------------
   0 S :    0.109580
   1 C :   -0.087440
   2 C :   -0.077927
   3 C :   -0.006892
   4 C :   -0.155981
   5 H :    0.039861
   6 C :    0.036790
   7 H :    0.015135
   8 H :    0.024892
   9 C :   -0.062408
  10 H :    0.010096
  11 H :    0.034201
  12 C :   -0.003793
  13 H :   -0.003413
  14 H :    0.019490
  15 H :    0.043796
  16 S :    0.108881
  17 C :   -0.090437
  18 C :   -0.032796
  19 C :    0.007541
  20 C :   -0.157456
  21 H :   -0.007615
  22 C :    0.017016
  23 H :    0.033536
  24 H :    0.034247
  25 C :   -0.047332
  26 H :    0.015667
  27 H :    0.020613
  28 C :   -0.032741
  29 H :    0.021442
  30 H :    0.026396
  31 H :    0.030997
  32 H :    0.041267
  33 H :    0.074788
Sum of atomic charges:   -0.0000000

LOEWDIN ATOMIC CHARGES
----------------------
   0 S :    0.419604
   1 C :   -0.199108
   2 C :   -0.062793
   3 C :   -0.075155
   4 C :   -0.189297
   5 H :    0.041205
   6 C :   -0.036890
   7 H :    0.029859
   8 H :    0.036484
   9 C :   -0.038439
  10 H :    0.016462
  11 H :    0.029559
  12 C :   -0.056225
  13 H :    0.000350
  14 H :    0.029666
  15 H :    0.030001
  16 S :    0.410465
  17 C :   -0.201360
  18 C :   -0.070637
  19 C :   -0.062433
  20 C :   -0.181202
  21 H :    0.022213
  22 C :   -0.040544
  23 H :    0.038641
  24 H :    0.030004
  25 C :   -0.040971
  26 H :    0.007793
  27 H :    0.025105
  28 C :   -0.056681
  29 H :    0.017285
  30 H :    0.020428
  31 H :    0.031745
  32 H :    0.029133
  33 H :    0.045736

  Mayer bond orders larger than 0.100000
B(  0-S ,  1-C ) :   1.1325 B(  0-S ,  4-C ) :   1.1460 B(  1-C ,  2-C ) :   1.6290
B(  1-C , 32-H ) :   0.9646 B(  2-C ,  3-C ) :   1.2376 B(  2-C ,  6-C ) :   1.0178
B(  3-C ,  4-C ) :   1.5686 B(  3-C ,  5-H ) :   0.9820 B(  4-C , 20-C ) :   1.0789
B(  6-C ,  7-H ) :   0.9407 B(  6-C ,  8-H ) :   0.9429 B(  6-C ,  9-C ) :   1.0679
B(  9-C , 10-H ) :   0.9544 B(  9-C , 11-H ) :   0.9567 B(  9-C , 12-C ) :   1.0664
B( 12-C , 13-H ) :   0.9792 B( 12-C , 14-H ) :   0.9713 B( 12-C , 15-H ) :   0.9743
B( 16-S , 17-C ) :   1.1582 B( 16-S , 20-C ) :   1.1353 B( 17-C , 18-C ) :   1.5853
B( 17-C , 20-C ) :   0.1018 B( 17-C , 33-H ) :   0.9605 B( 18-C , 19-C ) :   1.2686
B( 18-C , 21-H ) :   0.9933 B( 19-C , 20-C ) :   1.5580 B( 19-C , 22-C ) :   1.0608
B( 22-C , 23-H ) :   0.9313 B( 22-C , 24-H ) :   0.9318 B( 22-C , 25-C ) :   1.0526
B( 25-C , 26-H ) :   0.9583 B( 25-C , 27-H ) :   0.9576 B( 25-C , 28-C ) :   1.0694
B( 28-C , 29-H ) :   0.9786 B( 28-C , 30-H ) :   0.9782 B( 28-C , 31-H ) :   0.9814

Dispersion correction           -0.014495476
FINAL SINGLE POINT ENERGY     -1339.852981382752

DIPOLE MOMENT
-------------
                                X             Y             Z
Electronic contribution:      0.49885      -3.33900      -9.53886
Nuclear contribution   :     -0.59718       3.42781       9.64805
                        -----------------------------------------
Total Dipole Moment    :     -0.09833       0.08880       0.10920
                        -----------------------------------------
Magnitude (a.u.)       :      0.17169
Magnitude (Debye)      :      0.43641

Rotational constants in cm-1:     0.021089     0.008608     0.006433
Rotational constants in MHz :   632.232494   258.053978   192.845171

                             ****ORCA TERMINATED NORMALLY****
TOTAL RUN TIME: 0 days 0 hours 0 minutes 30 seconds 144 msec
