                         Program Version 4.2.1 -  RELEASE  -
|  1> ! wB97X-D3 SP def2-SVP
|  2> %pal
|  3> nprocs 16
|  4> end
|  5>
|  6> * xyz 0 1
|  7> S 	 -5.5172 	 60.2821 	 56.0906
|  8> C 	 -5.71856 	 59.1542 	 57.3673
|  9> C 	 -6.86229 	 59.3874 	 58.046
| 10> C 	 -7.60171 	 60.4981 	 57.5187
| 11> C 	 -7.03502 	 60.9873 	 56.3583
| 12> H 	 -8.53521 	 61.0195 	 57.9045
| 13> C 	 -7.27249 	 58.6664 	 59.3481
| 14> H 	 -6.34663 	 58.2434 	 59.7313
| 15> H 	 -7.85167 	 57.7217 	 59.1435
| 16> C 	 -7.98921 	 59.5913 	 60.4669
| 17> H 	 -8.98389 	 59.9301 	 60.118
| 18> H 	 -8.29721 	 58.7787 	 61.1817
| 19> C 	 -7.14448 	 60.7546 	 61.0511
| 20> H 	 -6.75021 	 61.3681 	 60.2318
| 21> H 	 -7.6018 	 61.417 	 61.7609
| 22> H 	 -6.1627 	 60.3533 	 61.393
| 23> S 	 -8.60822 	 61.5476 	 54.1367
| 24> C 	 -8.94476 	 63.1744 	 53.7188
| 25> C 	 -8.2885 	 64.032 	 54.6016
| 26> C 	 -7.68935 	 63.4446 	 55.7359
| 27> C 	 -7.6458 	 62.0877 	 55.5653
| 28> H 	 -8.38037 	 65.1092 	 54.5328
| 29> C 	 -6.92632 	 64.2836 	 56.7721
| 30> H 	 -7.37445 	 63.8789 	 57.6938
| 31> H 	 -7.36104 	 65.2845 	 56.6888
| 32> C 	 -5.38176 	 64.3425 	 56.6376
| 33> H 	 -5.19602 	 64.9546 	 55.7036
| 34> H 	 -5.00475 	 63.4077 	 56.349
| 35> C 	 -4.58075 	 64.8975 	 57.8738
| 36> H 	 -4.81395 	 64.3446 	 58.7551
| 37> H 	 -4.95305 	 65.909 	 58.1945
| 38> H 	 -3.55352 	 64.9497 	 57.5952
| 39> H 	 -5.05312 	 58.3903 	 57.6717
| 40> H 	 -9.55653 	 63.5672 	 52.9397
| 41> *
| 42>
| 43>                          ****END OF INPUT****

CARTESIAN COORDINATES (ANGSTROEM)
---------------------------------
  S     -5.517200   60.282100   56.090600
  C     -5.718560   59.154200   57.367300
  C     -6.862290   59.387400   58.046000
  C     -7.601710   60.498100   57.518700
  C     -7.035020   60.987300   56.358300
  H     -8.535210   61.019500   57.904500
  C     -7.272490   58.666400   59.348100
  H     -6.346630   58.243400   59.731300
  H     -7.851670   57.721700   59.143500
  C     -7.989210   59.591300   60.466900
  H     -8.983890   59.930100   60.118000
  H     -8.297210   58.778700   61.181700
  C     -7.144480   60.754600   61.051100
  H     -6.750210   61.368100   60.231800
  H     -7.601800   61.417000   61.760900
  H     -6.162700   60.353300   61.393000
  S     -8.608220   61.547600   54.136700
  C     -8.944760   63.174400   53.718800
  C     -8.288500   64.032000   54.601600
  C     -7.689350   63.444600   55.735900
  C     -7.645800   62.087700   55.565300
  H     -8.380370   65.109200   54.532800
  C     -6.926320   64.283600   56.772100
  H     -7.374450   63.878900   57.693800
  H     -7.361040   65.284500   56.688800
  C     -5.381760   64.342500   56.637600
  H     -5.196020   64.954600   55.703600
  H     -5.004750   63.407700   56.349000
  C     -4.580750   64.897500   57.873800
  H     -4.813950   64.344600   58.755100
  H     -4.953050   65.909000   58.194500
  H     -3.553520   64.949700   57.595200
  H     -5.053120   58.390300   57.671700
  H     -9.556530   63.567200   52.939700

 Total Charge           Charge          ....    0
 Multiplicity           Mult            ....    1
 Number of Electrons    NEL             ....  134
 Basis Dimension        Dim             ....  322

ORBITAL ENERGIES
----------------

  NO   OCC          E(Eh)            E(eV)
   0   2.0000     -88.966746     -2420.9082
   1   2.0000     -88.964475     -2420.8465
   2   2.0000     -10.326983      -281.0115
   3   2.0000     -10.322683      -280.8945
   4   2.0000     -10.313234      -280.6374
   5   2.0000     -10.305382      -280.4237
   6   2.0000     -10.303073      -280.3609
   7   2.0000     -10.302703      -280.3508
   8   2.0000     -10.299657      -280.2679
   9   2.0000     -10.297671      -280.2139
  10   2.0000     -10.296329      -280.1774
  11   2.0000     -10.294891      -280.1382
  12   2.0000     -10.290158      -280.0094
  13   2.0000     -10.287521      -279.9377
  14   2.0000     -10.283874      -279.8384
  15   2.0000     -10.280606      -279.7495
  16   2.0000      -8.082597      -219.9386
  17   2.0000      -8.078995      -219.8406
  18   2.0000      -6.040967      -164.3831
  19   2.0000      -6.037425      -164.2867
  20   2.0000      -6.036891      -164.2722
  21   2.0000      -6.033492      -164.1797
  22   2.0000      -6.033488      -164.1795
  23   2.0000      -6.029888      -164.0816
  24   2.0000      -1.011973       -27.5372
  25   2.0000      -0.988629       -26.9020
  26   2.0000      -0.902161       -24.5490
  27   2.0000      -0.898856       -24.4591
  28   2.0000      -0.865486       -23.5511
  29   2.0000      -0.850273       -23.1371
  30   2.0000      -0.842675       -22.9303
  31   2.0000      -0.809713       -22.0334
  32   2.0000      -0.784507       -21.3475
  33   2.0000      -0.776020       -21.1166
  34   2.0000      -0.711503       -19.3610
  35   2.0000      -0.702605       -19.1189
  36   2.0000      -0.691577       -18.8188
  37   2.0000      -0.661344       -17.9961
  38   2.0000      -0.639437       -17.4000
  39   2.0000      -0.612786       -16.6748
  40   2.0000      -0.590325       -16.0636
  41   2.0000      -0.566462       -15.4142
  42   2.0000      -0.553059       -15.0495
  43   2.0000      -0.548657       -14.9297
  44   2.0000      -0.535436       -14.5700
  45   2.0000      -0.517637       -14.0856
  46   2.0000      -0.515538       -14.0285
  47   2.0000      -0.508579       -13.8391
  48   2.0000      -0.501452       -13.6452
  49   2.0000      -0.495232       -13.4759
  50   2.0000      -0.487266       -13.2592
  51   2.0000      -0.486555       -13.2398
  52   2.0000      -0.472932       -12.8691
  53   2.0000      -0.464287       -12.6339
  54   2.0000      -0.456559       -12.4236
  55   2.0000      -0.448651       -12.2084
  56   2.0000      -0.445043       -12.1102
  57   2.0000      -0.440867       -11.9966
  58   2.0000      -0.437565       -11.9067
  59   2.0000      -0.427465       -11.6319
  60   2.0000      -0.418114       -11.3775
  61   2.0000      -0.412889       -11.2353
  62   2.0000      -0.405201       -11.0261
  63   2.0000      -0.335782        -9.1371
  64   2.0000      -0.329221        -8.9586
  65   2.0000      -0.323471        -8.8021
  66   2.0000      -0.309225        -8.4144
  67   0.0000       0.048598         1.3224
  68   0.0000       0.056591         1.5399
  69   0.0000       0.116816         3.1787
  70   0.0000       0.120188         3.2705
  71   0.0000       0.132935         3.6173

MULLIKEN ATOMIC CHARGES
-----------------------
   0 S :    0.136002
   1 C :   -0.109807
   2 C :   -0.079361
   3 C :    0.015530
   4 C :   -0.178106
   5 H :    0.040615
   6 C :    0.038979
   7 H :    0.010423
   8 H :    0.051603
   9 C :   -0.099266
  10 H :    0.035540
  11 H :    0.036556
  12 C :   -0.032400
  13 H :    0.031660
  14 H :    0.047804
  15 H :    0.027600
  16 S :    0.117506
  17 C :   -0.069073
  18 C :   -0.048712
  19 C :   -0.040388
  20 C :   -0.214122
  21 H :    0.008907
  22 C :    0.089586
  23 H :    0.026074
  24 H :    0.014132
  25 C :   -0.042987
  26 H :    0.029275
  27 H :    0.010199
  28 C :   -0.028912
  29 H :    0.030145
  30 H :    0.024930
  31 H :    0.044791
  32 H :    0.027579
  33 H :    0.047699
Sum of atomic charges:    0.0000000

LOEWDIN ATOMIC CHARGES
----------------------
   0 S :    0.446916
   1 C :   -0.206719
   2 C :   -0.072396
   3 C :   -0.069022
   4 C :   -0.225891
   5 H :    0.044275
   6 C :   -0.033250
   7 H :    0.024250
   8 H :    0.040201
   9 C :   -0.045605
  10 H :    0.022549
  11 H :    0.030644
  12 C :   -0.072479
  13 H :    0.030169
  14 H :    0.026708
  15 H :    0.031644
  16 S :    0.406213
  17 C :   -0.195604
  18 C :   -0.076939
  19 C :   -0.058692
  20 C :   -0.181525
  21 H :    0.024672
  22 C :   -0.030468
  23 H :    0.033214
  24 H :    0.028564
  25 C :   -0.034706
  26 H :    0.032520
  27 H :    0.009989
  28 C :   -0.059842
  29 H :    0.022798
  30 H :    0.028779
  31 H :    0.026713
  32 H :    0.024030
  33 H :    0.028291

  Mayer bond orders larger than 0.100000
B(  0-S ,  1-C ) :   1.1438 B(  0-S ,  4-C ) :   1.1797 B(  1-C ,  2-C ) :   1.6237
B(  1-C , 32-H ) :   0.9712 B(  2-C ,  3-C ) :   1.2368 B(  2-C ,  6-C ) :   1.0018
B(  3-C ,  4-C ) :   1.5825 B(  3-C ,  5-H ) :   0.9837 B(  4-C , 20-C ) :   0.9902
B(  6-C ,  7-H ) :   0.9441 B(  6-C ,  8-H ) :   0.9409 B(  6-C ,  9-C ) :   1.0645
B(  9-C , 10-H ) :   0.9550 B(  9-C , 11-H ) :   0.9571 B(  9-C , 12-C ) :   1.0579
B( 12-C , 13-H ) :   0.9714 B( 12-C , 14-H ) :   0.9776 B( 12-C , 15-H ) :   0.9718
B( 16-S , 17-C ) :   1.1595 B( 16-S , 20-C ) :   1.1509 B( 17-C , 18-C ) :   1.5990
B( 17-C , 20-C ) :   0.1059 B( 17-C , 33-H ) :   0.9704 B( 18-C , 19-C ) :   1.2599
B( 18-C , 21-H ) :   0.9772 B( 19-C , 20-C ) :   1.6109 B( 19-C , 22-C ) :   1.0331
B( 22-C , 23-H ) :   0.9286 B( 22-C , 24-H ) :   0.9300 B( 22-C , 25-C ) :   1.0498
B( 25-C , 26-H ) :   0.9517 B( 25-C , 27-H ) :   0.9600 B( 25-C , 28-C ) :   1.0720
B( 28-C , 29-H ) :   0.9770 B( 28-C , 30-H ) :   0.9755 B( 28-C , 31-H ) :   0.9755

Dispersion correction           -0.015127537
FINAL SINGLE POINT ENERGY     -1339.869009762928

DIPOLE MOMENT
-------------
                                X             Y             Z
Electronic contribution:     -4.82234      -8.97315     -24.01398
Nuclear contribution   :      4.82305       9.20413      24.55830
                        -----------------------------------------
Total Dipole Moment    :      0.00071       0.23097       0.54432
                        -----------------------------------------
Magnitude (a.u.)       :      0.59130
Magnitude (Debye)      :      1.50296

Rotational constants in cm-1:     0.016857     0.009518     0.007871
Rotational constants in MHz :   505.348047   285.345712   235.975093

                             ****ORCA TERMINATED NORMALLY****
TOTAL RUN TIME: 0 days 0 hours 0 minutes 34 seconds 733 msec
