                         Program Version 4.2.1 -  RELEASE  -
|  1> ! wB97X-D3 SP def2-SVP
|  2> %pal
|  3> nprocs 16
|  4> end
|  5>
|  6> * xyz 0 1
|  7> S 	 -8.00302 	 64.2351 	 50.3368
|  8> C 	 -8.56502 	 63.7236 	 51.883
|  9> C 	 -7.58755 	 62.9016 	 52.47
| 10> C 	 -6.33582 	 62.8282 	 51.7212
| 11> C 	 -6.42245 	 63.5024 	 50.541
| 12> H 	 -5.42115 	 62.3241 	 52.0062
| 13> C 	 -7.71214 	 62.3332 	 53.8228
| 14> H 	 -7.78794 	 61.2394 	 53.6883
| 15> H 	 -8.59813 	 62.6258 	 54.4403
| 16> C 	 -6.5579 	 62.7113 	 54.8256
| 17> H 	 -5.59585 	 62.2981 	 54.4991
| 18> H 	 -6.34324 	 63.781 	 54.6928
| 19> C 	 -6.90202 	 62.4461 	 56.2251
| 20> H 	 -7.90036 	 62.7441 	 56.5642
| 21> H 	 -6.92163 	 61.3723 	 56.3767
| 22> H 	 -6.0462 	 62.8893 	 56.8103
| 23> S 	 -4.29446 	 62.1076 	 49.3268
| 24> C 	 -3.54274 	 62.8709 	 48.0203
| 25> C 	 -3.93858 	 64.196 	 47.8145
| 26> C 	 -4.92846 	 64.566 	 48.7243
| 27> C 	 -5.32367 	 63.5795 	 49.5933
| 28> H 	 -3.48848 	 64.7226 	 47.0145
| 29> C 	 -5.53313 	 65.9535 	 48.7002
| 30> H 	 -4.66559 	 66.6073 	 48.8169
| 31> H 	 -6.09251 	 66.0895 	 49.6357
| 32> C 	 -6.31689 	 66.3928 	 47.4219
| 33> H 	 -7.15545 	 65.7319 	 47.2693
| 34> H 	 -5.69503 	 66.3696 	 46.5121
| 35> C 	 -6.95755 	 67.7854 	 47.4764
| 36> H 	 -7.33014 	 68.0165 	 46.4479
| 37> H 	 -6.22372 	 68.4864 	 47.7421
| 38> H 	 -7.65228 	 67.7344 	 48.2578
| 39> H 	 -9.55635 	 63.654 	 52.2576
| 40> H 	 -2.70634 	 62.3693 	 47.4698
| 41> *
| 42>
| 43>                          ****END OF INPUT****

CARTESIAN COORDINATES (ANGSTROEM)
---------------------------------
  S     -8.003020   64.235100   50.336800
  C     -8.565020   63.723600   51.883000
  C     -7.587550   62.901600   52.470000
  C     -6.335820   62.828200   51.721200
  C     -6.422450   63.502400   50.541000
  H     -5.421150   62.324100   52.006200
  C     -7.712140   62.333200   53.822800
  H     -7.787940   61.239400   53.688300
  H     -8.598130   62.625800   54.440300
  C     -6.557900   62.711300   54.825600
  H     -5.595850   62.298100   54.499100
  H     -6.343240   63.781000   54.692800
  C     -6.902020   62.446100   56.225100
  H     -7.900360   62.744100   56.564200
  H     -6.921630   61.372300   56.376700
  H     -6.046200   62.889300   56.810300
  S     -4.294460   62.107600   49.326800
  C     -3.542740   62.870900   48.020300
  C     -3.938580   64.196000   47.814500
  C     -4.928460   64.566000   48.724300
  C     -5.323670   63.579500   49.593300
  H     -3.488480   64.722600   47.014500
  C     -5.533130   65.953500   48.700200
  H     -4.665590   66.607300   48.816900
  H     -6.092510   66.089500   49.635700
  C     -6.316890   66.392800   47.421900
  H     -7.155450   65.731900   47.269300
  H     -5.695030   66.369600   46.512100
  C     -6.957550   67.785400   47.476400
  H     -7.330140   68.016500   46.447900
  H     -6.223720   68.486400   47.742100
  H     -7.652280   67.734400   48.257800
  H     -9.556350   63.654000   52.257600
  H     -2.706340   62.369300   47.469800

 Total Charge           Charge          ....    0
 Multiplicity           Mult            ....    1
 Number of Electrons    NEL             ....  134
 Basis Dimension        Dim             ....  322

ORBITAL ENERGIES
----------------

  NO   OCC          E(Eh)            E(eV)
   0   2.0000     -88.967884     -2420.9392
   1   2.0000     -88.967415     -2420.9264
   2   2.0000     -10.329428      -281.0780
   3   2.0000     -10.326347      -280.9942
   4   2.0000     -10.320070      -280.8234
   5   2.0000     -10.309776      -280.5433
   6   2.0000     -10.302710      -280.3510
   7   2.0000     -10.300281      -280.2849
   8   2.0000     -10.292733      -280.0795
   9   2.0000     -10.291338      -280.0415
  10   2.0000     -10.290330      -280.0141
  11   2.0000     -10.289735      -279.9979
  12   2.0000     -10.284091      -279.8443
  13   2.0000     -10.283686      -279.8333
  14   2.0000     -10.279075      -279.7079
  15   2.0000     -10.269372      -279.4438
  16   2.0000      -8.082355      -219.9321
  17   2.0000      -8.082273      -219.9298
  18   2.0000      -6.040943      -164.3824
  19   2.0000      -6.040692      -164.3756
  20   2.0000      -6.036892      -164.2722
  21   2.0000      -6.036707      -164.2671
  22   2.0000      -6.033237      -164.1727
  23   2.0000      -6.033012      -164.1666
  24   2.0000      -1.008703       -27.4482
  25   2.0000      -0.987266       -26.8649
  26   2.0000      -0.914385       -24.8817
  27   2.0000      -0.906137       -24.6572
  28   2.0000      -0.874342       -23.7921
  29   2.0000      -0.859837       -23.3974
  30   2.0000      -0.851756       -23.1775
  31   2.0000      -0.813921       -22.1479
  32   2.0000      -0.782265       -21.2865
  33   2.0000      -0.766107       -20.8468
  34   2.0000      -0.706797       -19.2329
  35   2.0000      -0.697289       -18.9742
  36   2.0000      -0.689851       -18.7718
  37   2.0000      -0.667686       -18.1686
  38   2.0000      -0.635457       -17.2917
  39   2.0000      -0.619466       -16.8565
  40   2.0000      -0.596269       -16.2253
  41   2.0000      -0.570789       -15.5320
  42   2.0000      -0.566740       -15.4218
  43   2.0000      -0.561575       -15.2812
  44   2.0000      -0.531663       -14.4673
  45   2.0000      -0.528551       -14.3826
  46   2.0000      -0.520993       -14.1770
  47   2.0000      -0.511522       -13.9192
  48   2.0000      -0.509150       -13.8547
  49   2.0000      -0.499302       -13.5867
  50   2.0000      -0.491229       -13.3670
  51   2.0000      -0.479211       -13.0400
  52   2.0000      -0.472730       -12.8636
  53   2.0000      -0.468648       -12.7526
  54   2.0000      -0.460044       -12.5184
  55   2.0000      -0.450761       -12.2658
  56   2.0000      -0.447641       -12.1809
  57   2.0000      -0.436321       -11.8729
  58   2.0000      -0.428899       -11.6709
  59   2.0000      -0.421681       -11.4745
  60   2.0000      -0.418206       -11.3800
  61   2.0000      -0.413786       -11.2597
  62   2.0000      -0.404045       -10.9946
  63   2.0000      -0.358553        -9.7567
  64   2.0000      -0.335965        -9.1421
  65   2.0000      -0.323796        -8.8109
  66   2.0000      -0.284635        -7.7453
  67   0.0000       0.026607         0.7240
  68   0.0000       0.074871         2.0373
  69   0.0000       0.104547         2.8449
  70   0.0000       0.116960         3.1826
  71   0.0000       0.134096         3.6489

MULLIKEN ATOMIC CHARGES
-----------------------
   0 S :    0.110250
   1 C :   -0.091360
   2 C :   -0.087150
   3 C :   -0.019056
   4 C :   -0.102927
   5 H :    0.019575
   6 C :    0.028468
   7 H :    0.040497
   8 H :    0.016071
   9 C :   -0.095987
  10 H :    0.025481
  11 H :    0.029979
  12 C :   -0.036382
  13 H :    0.034271
  14 H :    0.022245
  15 H :    0.048134
  16 S :    0.103650
  17 C :   -0.109336
  18 C :   -0.028086
  19 C :   -0.021056
  20 C :   -0.153677
  21 H :    0.006464
  22 C :    0.050185
  23 H :    0.024765
  24 H :    0.023487
  25 C :   -0.085776
  26 H :    0.026692
  27 H :    0.026900
  28 C :   -0.006910
  29 H :    0.044905
  30 H :    0.011827
  31 H :    0.023131
  32 H :    0.046105
  33 H :    0.074618
Sum of atomic charges:    0.0000000

LOEWDIN ATOMIC CHARGES
----------------------
   0 S :    0.420451
   1 C :   -0.216403
   2 C :   -0.054850
   3 C :   -0.070281
   4 C :   -0.182173
   5 H :    0.029120
   6 C :   -0.043526
   7 H :    0.034033
   8 H :    0.030560
   9 C :   -0.047649
  10 H :    0.021926
  11 H :    0.025415
  12 C :   -0.069136
  13 H :    0.025703
  14 H :    0.023997
  15 H :    0.039771
  16 S :    0.406841
  17 C :   -0.196943
  18 C :   -0.072527
  19 C :   -0.054131
  20 C :   -0.181490
  21 H :    0.028433
  22 C :   -0.038187
  23 H :    0.033227
  24 H :    0.021616
  25 C :   -0.037994
  26 H :    0.020451
  27 H :    0.021691
  28 C :   -0.053019
  29 H :    0.035632
  30 H :    0.014619
  31 H :    0.018607
  32 H :    0.028919
  33 H :    0.037294

  Mayer bond orders larger than 0.100000
B(  0-S ,  1-C ) :   1.1221 B(  0-S ,  4-C ) :   1.1440 B(  1-C ,  2-C ) :   1.6160
B(  1-C , 32-H ) :   0.9657 B(  2-C ,  3-C ) :   1.2130 B(  2-C ,  6-C ) :   1.0496
B(  3-C ,  4-C ) :   1.5600 B(  3-C ,  5-H ) :   0.9963 B(  4-C , 20-C ) :   1.0702
B(  6-C ,  7-H ) :   0.9246 B(  6-C ,  8-H ) :   0.9529 B(  6-C ,  9-C ) :   1.0472
B(  9-C , 10-H ) :   0.9441 B(  9-C , 11-H ) :   0.9584 B(  9-C , 12-C ) :   1.0990
B( 12-C , 13-H ) :   0.9701 B( 12-C , 14-H ) :   0.9711 B( 12-C , 15-H ) :   0.9690
B( 16-S , 17-C ) :   1.1898 B( 16-S , 20-C ) :   1.1143 B( 17-C , 18-C ) :   1.5799
B( 17-C , 33-H ) :   0.9574 B( 18-C , 19-C ) :   1.2352 B( 18-C , 21-H ) :   1.0078
B( 19-C , 20-C ) :   1.5860 B( 19-C , 22-C ) :   1.0442 B( 22-C , 23-H ) :   0.9239
B( 22-C , 24-H ) :   0.9320 B( 22-C , 25-C ) :   1.0571 B( 25-C , 26-H ) :   0.9583
B( 25-C , 27-H ) :   0.9565 B( 25-C , 28-C ) :   1.0837 B( 28-C , 29-H ) :   0.9741
B( 28-C , 30-H ) :   0.9745 B( 28-C , 31-H ) :   0.9772

Dispersion correction           -0.013845748
FINAL SINGLE POINT ENERGY     -1339.876874923530

DIPOLE MOMENT
-------------
                                X             Y             Z
Electronic contribution:      3.66174      -9.87643     -10.99963
Nuclear contribution   :     -3.48248       9.92931      11.12166
                        -----------------------------------------
Total Dipole Moment    :      0.17926       0.05288       0.12203
                        -----------------------------------------
Magnitude (a.u.)       :      0.22321
Magnitude (Debye)      :      0.56736

Rotational constants in cm-1:     0.020221     0.007930     0.006247
Rotational constants in MHz :   606.224075   237.738241   187.281520

                             ****ORCA TERMINATED NORMALLY****
TOTAL RUN TIME: 0 days 0 hours 0 minutes 33 seconds 291 msec
