                         Program Version 4.2.1 -  RELEASE  -
|  1> ! wB97X-D3 SP def2-SVP
|  2> %pal
|  3> nprocs 16
|  4> end
|  5>
|  6> * xyz 0 1
|  7> S 	 11.1321 	 -7.8427 	 90.9421
|  8> C 	 12.8622 	 -8.21852 	 90.938
|  9> C 	 13.5592 	 -7.19441 	 90.3731
| 10> C 	 12.7484 	 -6.17838 	 89.7777
| 11> C 	 11.3806 	 -6.48253 	 89.9485
| 12> H 	 13.1545 	 -5.21739 	 89.3726
| 13> C 	 15.0867 	 -7.14573 	 90.3845
| 14> H 	 15.3567 	 -7.1851 	 89.3552
| 15> H 	 15.4482 	 -8.03078 	 90.9808
| 16> C 	 15.5964 	 -5.90102 	 91.1692
| 17> H 	 16.657 	 -6.00978 	 91.3311
| 18> H 	 15.532 	 -5.04743 	 90.5101
| 19> C 	 15.1617 	 -5.89038 	 92.6937
| 20> H 	 15.5109 	 -6.80255 	 93.0813
| 21> H 	 15.7091 	 -5.13223 	 93.2487
| 22> H 	 14.0515 	 -5.81066 	 92.8498
| 23> S 	 8.73443 	 -6.40952 	 89.2953
| 24> C 	 7.99959 	 -4.8908 	 88.9223
| 25> C 	 8.86876 	 -3.85769 	 89.0543
| 26> C 	 10.1893 	 -4.25756 	 89.3529
| 27> C 	 10.2659 	 -5.66834 	 89.5319
| 28> H 	 8.52238 	 -2.86051 	 88.8278
| 29> C 	 11.2292 	 -3.16082 	 89.4287
| 30> H 	 10.7225 	 -2.22643 	 89.1476
| 31> H 	 11.913 	 -3.34142 	 88.6113
| 32> C 	 11.8881 	 -2.95709 	 90.8289
| 33> H 	 12.1333 	 -3.82896 	 91.4658
| 34> H 	 11.11 	 -2.42085 	 91.3649
| 35> C 	 13.0643 	 -1.92134 	 90.6595
| 36> H 	 13.7378 	 -1.73359 	 91.4442
| 37> H 	 12.6959 	 -0.959793 	 90.2413
| 38> H 	 13.7307 	 -2.18704 	 89.9257
| 39> H 	 13.4292 	 -9.04409 	 91.3347
| 40> H 	 6.96549 	 -4.78272 	 88.6091
| 41> *
| 42>
| 43>                          ****END OF INPUT****

CARTESIAN COORDINATES (ANGSTROEM)
---------------------------------
  S     11.132100   -7.842700   90.942100
  C     12.862200   -8.218520   90.938000
  C     13.559200   -7.194410   90.373100
  C     12.748400   -6.178380   89.777700
  C     11.380600   -6.482530   89.948500
  H     13.154500   -5.217390   89.372600
  C     15.086700   -7.145730   90.384500
  H     15.356700   -7.185100   89.355200
  H     15.448200   -8.030780   90.980800
  C     15.596400   -5.901020   91.169200
  H     16.657000   -6.009780   91.331100
  H     15.532000   -5.047430   90.510100
  C     15.161700   -5.890380   92.693700
  H     15.510900   -6.802550   93.081300
  H     15.709100   -5.132230   93.248700
  H     14.051500   -5.810660   92.849800
  S      8.734430   -6.409520   89.295300
  C      7.999590   -4.890800   88.922300
  C      8.868760   -3.857690   89.054300
  C     10.189300   -4.257560   89.352900
  C     10.265900   -5.668340   89.531900
  H      8.522380   -2.860510   88.827800
  C     11.229200   -3.160820   89.428700
  H     10.722500   -2.226430   89.147600
  H     11.913000   -3.341420   88.611300
  C     11.888100   -2.957090   90.828900
  H     12.133300   -3.828960   91.465800
  H     11.110000   -2.420850   91.364900
  C     13.064300   -1.921340   90.659500
  H     13.737800   -1.733590   91.444200
  H     12.695900   -0.959793   90.241300
  H     13.730700   -2.187040   89.925700
  H     13.429200   -9.044090   91.334700
  H      6.965490   -4.782720   88.609100

 Total Charge           Charge          ....    0
 Multiplicity           Mult            ....    1
 Number of Electrons    NEL             ....  134
 Basis Dimension        Dim             ....  322

ORBITAL ENERGIES
----------------

  NO   OCC          E(Eh)            E(eV)
   0   2.0000     -88.967922     -2420.9402
   1   2.0000     -88.967438     -2420.9271
   2   2.0000     -10.329240      -281.0729
   3   2.0000     -10.326236      -280.9912
   4   2.0000     -10.311887      -280.6007
   5   2.0000     -10.305581      -280.4291
   6   2.0000     -10.303539      -280.3736
   7   2.0000     -10.296929      -280.1937
   8   2.0000     -10.295260      -280.1483
   9   2.0000     -10.294059      -280.1156
  10   2.0000     -10.293680      -280.1053
  11   2.0000     -10.293590      -280.1028
  12   2.0000     -10.289633      -279.9951
  13   2.0000     -10.287971      -279.9499
  14   2.0000     -10.282250      -279.7943
  15   2.0000     -10.271369      -279.4982
  16   2.0000      -8.083520      -219.9638
  17   2.0000      -8.082441      -219.9344
  18   2.0000      -6.041900      -164.4085
  19   2.0000      -6.040990      -164.3837
  20   2.0000      -6.037824      -164.2975
  21   2.0000      -6.036996      -164.2750
  22   2.0000      -6.034468      -164.2062
  23   2.0000      -6.033049      -164.1676
  24   2.0000      -1.013092       -27.5676
  25   2.0000      -0.987866       -26.8812
  26   2.0000      -0.911158       -24.7939
  27   2.0000      -0.906980       -24.6802
  28   2.0000      -0.870313       -23.6824
  29   2.0000      -0.852117       -23.1873
  30   2.0000      -0.841555       -22.8999
  31   2.0000      -0.812443       -22.1077
  32   2.0000      -0.784285       -21.3415
  33   2.0000      -0.774239       -21.0681
  34   2.0000      -0.718219       -19.5437
  35   2.0000      -0.704319       -19.1655
  36   2.0000      -0.693245       -18.8641
  37   2.0000      -0.662934       -18.0394
  38   2.0000      -0.625266       -17.0144
  39   2.0000      -0.620079       -16.8732
  40   2.0000      -0.596048       -16.2193
  41   2.0000      -0.563594       -15.3362
  42   2.0000      -0.562848       -15.3159
  43   2.0000      -0.556903       -15.1541
  44   2.0000      -0.542227       -14.7548
  45   2.0000      -0.522824       -14.2268
  46   2.0000      -0.514357       -13.9964
  47   2.0000      -0.505842       -13.7647
  48   2.0000      -0.499622       -13.5954
  49   2.0000      -0.495576       -13.4853
  50   2.0000      -0.492109       -13.3910
  51   2.0000      -0.484730       -13.1902
  52   2.0000      -0.469441       -12.7741
  53   2.0000      -0.468078       -12.7371
  54   2.0000      -0.458034       -12.4637
  55   2.0000      -0.452205       -12.3051
  56   2.0000      -0.451808       -12.2943
  57   2.0000      -0.446446       -12.1484
  58   2.0000      -0.432933       -11.7807
  59   2.0000      -0.425005       -11.5650
  60   2.0000      -0.420187       -11.4339
  61   2.0000      -0.418830       -11.3969
  62   2.0000      -0.406291       -11.0557
  63   2.0000      -0.356258        -9.6943
  64   2.0000      -0.333929        -9.0867
  65   2.0000      -0.329826        -8.9750
  66   2.0000      -0.280513        -7.6331
  67   0.0000       0.021438         0.5833
  68   0.0000       0.086661         2.3582
  69   0.0000       0.107278         2.9192
  70   0.0000       0.121937         3.3181
  71   0.0000       0.128042         3.4842

MULLIKEN ATOMIC CHARGES
-----------------------
   0 S :    0.111804
   1 C :   -0.110610
   2 C :   -0.116558
   3 C :   -0.008040
   4 C :   -0.120641
   5 H :    0.024512
   6 C :    0.073622
   7 H :    0.038776
   8 H :    0.015902
   9 C :   -0.089415
  10 H :    0.024495
  11 H :    0.029435
  12 C :   -0.044576
  13 H :    0.013154
  14 H :    0.036615
  15 H :    0.061781
  16 S :    0.118524
  17 C :   -0.095559
  18 C :   -0.029474
  19 C :   -0.042893
  20 C :   -0.142045
  21 H :    0.013104
  22 C :    0.046982
  23 H :    0.017097
  24 H :    0.036094
  25 C :   -0.077458
  26 H :    0.066078
  27 H :    0.031261
  28 C :   -0.002548
  29 H :    0.022913
  30 H :    0.018440
  31 H :   -0.007653
  32 H :    0.031222
  33 H :    0.055661
Sum of atomic charges:    0.0000000

LOEWDIN ATOMIC CHARGES
----------------------
   0 S :    0.415959
   1 C :   -0.209559
   2 C :   -0.062276
   3 C :   -0.079974
   4 C :   -0.196107
   5 H :    0.037553
   6 C :   -0.024711
   7 H :    0.028888
   8 H :    0.030023
   9 C :   -0.043262
  10 H :    0.024764
  11 H :    0.017913
  12 C :   -0.056836
  13 H :    0.018314
  14 H :    0.027473
  15 H :    0.031702
  16 S :    0.432962
  17 C :   -0.193536
  18 C :   -0.073778
  19 C :   -0.051915
  20 C :   -0.213574
  21 H :    0.031217
  22 C :   -0.029180
  23 H :    0.033825
  24 H :    0.026280
  25 C :   -0.035920
  26 H :    0.032398
  27 H :    0.027852
  28 C :   -0.066456
  29 H :    0.020663
  30 H :    0.029942
  31 H :    0.010393
  32 H :    0.028303
  33 H :    0.030663

  Mayer bond orders larger than 0.100000
B(  0-S ,  1-C ) :   1.1026 B(  0-S ,  4-C ) :   1.1791 B(  1-C ,  2-C ) :   1.6332
B(  1-C , 32-H ) :   0.9646 B(  2-C ,  3-C ) :   1.2462 B(  2-C ,  6-C ) :   1.0145
B(  3-C ,  4-C ) :   1.5242 B(  3-C ,  5-H ) :   0.9878 B(  4-C , 20-C ) :   1.0893
B(  6-C ,  7-H ) :   0.9431 B(  6-C ,  8-H ) :   0.9421 B(  6-C ,  9-C ) :   1.0763
B(  9-C , 10-H ) :   0.9592 B(  9-C , 11-H ) :   0.9606 B(  9-C , 12-C ) :   1.0462
B( 12-C , 13-H ) :   0.9730 B( 12-C , 14-H ) :   0.9782 B( 12-C , 15-H ) :   0.9758
B( 16-S , 17-C ) :   1.1651 B( 16-S , 20-C ) :   1.1602 B( 17-C , 18-C ) :   1.5897
B( 17-C , 33-H ) :   0.9660 B( 18-C , 19-C ) :   1.2906 B( 18-C , 21-H ) :   0.9886
B( 19-C , 20-C ) :   1.5205 B( 19-C , 22-C ) :   1.0321 B( 22-C , 23-H ) :   0.9343
B( 22-C , 24-H ) :   0.9378 B( 22-C , 25-C ) :   1.0342 B( 25-C , 26-H ) :   0.9677
B( 25-C , 27-H ) :   0.9547 B( 25-C , 28-C ) :   1.0633 B( 28-C , 29-H ) :   0.9751
B( 28-C , 30-H ) :   0.9706 B( 28-C , 31-H ) :   0.9734

Dispersion correction           -0.015700042
FINAL SINGLE POINT ENERGY     -1339.866532145239

DIPOLE MOMENT
-------------
                                X             Y             Z
Electronic contribution:    -24.77992     -18.13602      -7.19246
Nuclear contribution   :     25.23121      18.71401       7.19485
                        -----------------------------------------
Total Dipole Moment    :      0.45129       0.57798       0.00238
                        -----------------------------------------
Magnitude (a.u.)       :      0.73330
Magnitude (Debye)      :      1.86391

Rotational constants in cm-1:     0.018977     0.010555     0.007327
Rotational constants in MHz :   568.911387   316.424445   219.645838

                             ****ORCA TERMINATED NORMALLY****
TOTAL RUN TIME: 0 days 0 hours 0 minutes 37 seconds 0 msec
