                         Program Version 4.2.1 -  RELEASE  -
|  1> ! wB97X-D3 SP def2-SVP
|  2> %pal
|  3> nprocs 16
|  4> end
|  5>
|  6> * xyz 0 1
|  7> S 	 8.51611 	 -15.9072 	 102.027
|  8> C 	 9.79022 	 -14.715 	 101.698
|  9> C 	 9.217 	 -13.4789 	 101.426
| 10> C 	 7.7852 	 -13.5859 	 101.532
| 11> C 	 7.24327 	 -14.7477 	 101.873
| 12> H 	 7.14928 	 -12.6869 	 101.402
| 13> C 	 10.0331 	 -12.2877 	 101.109
| 14> H 	 9.74822 	 -11.9388 	 100.09
| 15> H 	 10.9838 	 -12.6617 	 101.004
| 16> C 	 9.92687 	 -11.1506 	 102.043
| 17> H 	 10.5962 	 -10.3295 	 101.722
| 18> H 	 8.93199 	 -10.7845 	 102.031
| 19> C 	 10.2447 	 -11.5235 	 103.483
| 20> H 	 11.3007 	 -11.9103 	 103.521
| 21> H 	 10.2298 	 -10.6193 	 104.094
| 22> H 	 9.57159 	 -12.3057 	 103.826
| 23> S 	 4.76889 	 -13.5078 	 101.939
| 24> C 	 3.38504 	 -14.3843 	 102.406
| 25> C 	 3.64039 	 -15.7558 	 102.586
| 26> C 	 5.06646 	 -16.0933 	 102.51
| 27> C 	 5.82507 	 -14.9846 	 102.197
| 28> H 	 2.91061 	 -16.3831 	 102.932
| 29> C 	 5.4465 	 -17.4574 	 102.816
| 30> H 	 4.69429 	 -17.9431 	 103.362
| 31> H 	 6.29436 	 -17.4004 	 103.522
| 32> C 	 5.79722 	 -18.3263 	 101.557
| 33> H 	 6.53615 	 -17.7562 	 100.946
| 34> H 	 4.90382 	 -18.4236 	 100.926
| 35> C 	 6.33689 	 -19.7265 	 102.085
| 36> H 	 6.7617 	 -20.3479 	 101.287
| 37> H 	 5.45887 	 -20.2949 	 102.38
| 38> H 	 7.01105 	 -19.5669 	 102.922
| 39> H 	 10.8835 	 -14.7913 	 101.8
| 40> H 	 2.3886 	 -13.9253 	 102.477
| 41> *
| 42>
| 43>                          ****END OF INPUT****

CARTESIAN COORDINATES (ANGSTROEM)
---------------------------------
  S      8.516110  -15.907200  102.027000
  C      9.790220  -14.715000  101.698000
  C      9.217000  -13.478900  101.426000
  C      7.785200  -13.585900  101.532000
  C      7.243270  -14.747700  101.873000
  H      7.149280  -12.686900  101.402000
  C     10.033100  -12.287700  101.109000
  H      9.748220  -11.938800  100.090000
  H     10.983800  -12.661700  101.004000
  C      9.926870  -11.150600  102.043000
  H     10.596200  -10.329500  101.722000
  H      8.931990  -10.784500  102.031000
  C     10.244700  -11.523500  103.483000
  H     11.300700  -11.910300  103.521000
  H     10.229800  -10.619300  104.094000
  H      9.571590  -12.305700  103.826000
  S      4.768890  -13.507800  101.939000
  C      3.385040  -14.384300  102.406000
  C      3.640390  -15.755800  102.586000
  C      5.066460  -16.093300  102.510000
  C      5.825070  -14.984600  102.197000
  H      2.910610  -16.383100  102.932000
  C      5.446500  -17.457400  102.816000
  H      4.694290  -17.943100  103.362000
  H      6.294360  -17.400400  103.522000
  C      5.797220  -18.326300  101.557000
  H      6.536150  -17.756200  100.946000
  H      4.903820  -18.423600  100.926000
  C      6.336890  -19.726500  102.085000
  H      6.761700  -20.347900  101.287000
  H      5.458870  -20.294900  102.380000
  H      7.011050  -19.566900  102.922000
  H     10.883500  -14.791300  101.800000
  H      2.388600  -13.925300  102.477000

 Total Charge           Charge          ....    0
 Multiplicity           Mult            ....    1
 Number of Electrons    NEL             ....  134
 Basis Dimension        Dim             ....  322

ORBITAL ENERGIES
----------------

  NO   OCC          E(Eh)            E(eV)
   0   2.0000     -88.966549     -2420.9029
   1   2.0000     -88.965970     -2420.8871
   2   2.0000     -10.335622      -281.2466
   3   2.0000     -10.328219      -281.0451
   4   2.0000     -10.321688      -280.8674
   5   2.0000     -10.315967      -280.7117
   6   2.0000     -10.306138      -280.4443
   7   2.0000     -10.298879      -280.2467
   8   2.0000     -10.293782      -280.1080
   9   2.0000     -10.291656      -280.0502
  10   2.0000     -10.287400      -279.9344
  11   2.0000     -10.287399      -279.9344
  12   2.0000     -10.282301      -279.7956
  13   2.0000     -10.280989      -279.7599
  14   2.0000     -10.279124      -279.7092
  15   2.0000     -10.274981      -279.5965
  16   2.0000      -8.080846      -219.8910
  17   2.0000      -8.080127      -219.8714
  18   2.0000      -6.039493      -164.3430
  19   2.0000      -6.038956      -164.3283
  20   2.0000      -6.035500      -164.2343
  21   2.0000      -6.034646      -164.2111
  22   2.0000      -6.031426      -164.1235
  23   2.0000      -6.030646      -164.1022
  24   2.0000      -1.008721       -27.4487
  25   2.0000      -0.983790       -26.7703
  26   2.0000      -0.926251       -25.2046
  27   2.0000      -0.912075       -24.8188
  28   2.0000      -0.869366       -23.6566
  29   2.0000      -0.850448       -23.1419
  30   2.0000      -0.842569       -22.9275
  31   2.0000      -0.811948       -22.0942
  32   2.0000      -0.786311       -21.3966
  33   2.0000      -0.774677       -21.0800
  34   2.0000      -0.711440       -19.3593
  35   2.0000      -0.700156       -19.0522
  36   2.0000      -0.689159       -18.7530
  37   2.0000      -0.673916       -18.3382
  38   2.0000      -0.628750       -17.1091
  39   2.0000      -0.623858       -16.9760
  40   2.0000      -0.600245       -16.3335
  41   2.0000      -0.572567       -15.5803
  42   2.0000      -0.564022       -15.3478
  43   2.0000      -0.555525       -15.1166
  44   2.0000      -0.546813       -14.8795
  45   2.0000      -0.523272       -14.2389
  46   2.0000      -0.520557       -14.1651
  47   2.0000      -0.518313       -14.1040
  48   2.0000      -0.509374       -13.8608
  49   2.0000      -0.495773       -13.4907
  50   2.0000      -0.486521       -13.2389
  51   2.0000      -0.477394       -12.9906
  52   2.0000      -0.474713       -12.9176
  53   2.0000      -0.464006       -12.6263
  54   2.0000      -0.456532       -12.4229
  55   2.0000      -0.451469       -12.2851
  56   2.0000      -0.444481       -12.0949
  57   2.0000      -0.442345       -12.0368
  58   2.0000      -0.431928       -11.7534
  59   2.0000      -0.423433       -11.5222
  60   2.0000      -0.418973       -11.4008
  61   2.0000      -0.414479       -11.2785
  62   2.0000      -0.411300       -11.1921
  63   2.0000      -0.364254        -9.9119
  64   2.0000      -0.331986        -9.0338
  65   2.0000      -0.325668        -8.8619
  66   2.0000      -0.284212        -7.7338
  67   0.0000       0.022053         0.6001
  68   0.0000       0.082756         2.2519
  69   0.0000       0.100974         2.7476
  70   0.0000       0.119561         3.2534
  71   0.0000       0.123332         3.3560

MULLIKEN ATOMIC CHARGES
-----------------------
   0 S :    0.089301
   1 C :   -0.125892
   2 C :   -0.143564
   3 C :   -0.051946
   4 C :   -0.057322
   5 H :    0.026307
   6 C :    0.146563
   7 H :    0.035130
   8 H :   -0.020298
   9 C :   -0.063010
  10 H :    0.032006
  11 H :    0.020697
  12 C :   -0.067926
  13 H :    0.023444
  14 H :    0.037339
  15 H :    0.055922
  16 S :    0.070217
  17 C :   -0.075819
  18 C :   -0.005011
  19 C :   -0.073185
  20 C :   -0.104402
  21 H :   -0.013198
  22 C :    0.048803
  23 H :    0.001944
  24 H :    0.034563
  25 C :   -0.094624
  26 H :    0.039905
  27 H :    0.033586
  28 C :   -0.032727
  29 H :    0.040804
  30 H :    0.027971
  31 H :    0.040652
  32 H :    0.054291
  33 H :    0.069477
Sum of atomic charges:   -0.0000000

LOEWDIN ATOMIC CHARGES
----------------------
   0 S :    0.401423
   1 C :   -0.199082
   2 C :   -0.056048
   3 C :   -0.090349
   4 C :   -0.191864
   5 H :    0.023305
   6 C :   -0.028750
   7 H :    0.041108
   8 H :    0.017301
   9 C :   -0.041794
  10 H :    0.029126
  11 H :    0.018920
  12 C :   -0.064929
  13 H :    0.025762
  14 H :    0.026586
  15 H :    0.028366
  16 S :    0.395748
  17 C :   -0.189515
  18 C :   -0.063504
  19 C :   -0.049467
  20 C :   -0.160765
  21 H :    0.013421
  22 C :   -0.038164
  23 H :    0.023182
  24 H :    0.033151
  25 C :   -0.032730
  26 H :    0.018341
  27 H :    0.024820
  28 C :   -0.064442
  29 H :    0.028310
  30 H :    0.025414
  31 H :    0.026206
  32 H :    0.035671
  33 H :    0.035245

  Mayer bond orders larger than 0.100000
B(  0-S ,  1-C ) :   1.1217 B(  0-S ,  4-C ) :   1.1146 B(  1-C ,  2-C ) :   1.6234
B(  1-C , 32-H ) :   0.9571 B(  2-C ,  3-C ) :   1.2336 B(  2-C ,  6-C ) :   1.0351
B(  3-C ,  4-C ) :   1.6002 B(  3-C ,  5-H ) :   0.9718 B(  4-C , 20-C ) :   1.0781
B(  6-C ,  7-H ) :   0.9265 B(  6-C ,  8-H ) :   0.9238 B(  6-C ,  9-C ) :   1.0798
B(  9-C , 10-H ) :   0.9519 B(  9-C , 11-H ) :   0.9511 B(  9-C , 12-C ) :   1.0806
B( 12-C , 13-H ) :   0.9750 B( 12-C , 14-H ) :   0.9732 B( 12-C , 15-H ) :   0.9712
B( 16-S , 17-C ) :   1.1661 B( 16-S , 20-C ) :   1.1090 B( 17-C , 18-C ) :   1.6144
B( 17-C , 33-H ) :   0.9630 B( 18-C , 19-C ) :   1.2141 B( 18-C , 21-H ) :   0.9977
B( 19-C , 20-C ) :   1.6113 B( 19-C , 22-C ) :   1.0624 B( 22-C , 23-H ) :   0.9261
B( 22-C , 24-H ) :   0.9327 B( 22-C , 25-C ) :   1.0423 B( 25-C , 26-H ) :   0.9611
B( 25-C , 27-H ) :   0.9570 B( 25-C , 28-C ) :   1.0628 B( 28-C , 29-H ) :   0.9758
B( 28-C , 30-H ) :   0.9753 B( 28-C , 31-H ) :   0.9769

Dispersion correction           -0.014524091
FINAL SINGLE POINT ENERGY     -1339.877232962787

DIPOLE MOMENT
-------------
                                X             Y             Z
Electronic contribution:     -9.22310       2.83672      -2.61451
Nuclear contribution   :      9.17131      -2.77660       2.70206
                        -----------------------------------------
Total Dipole Moment    :     -0.05179       0.06012       0.08755
                        -----------------------------------------
Magnitude (a.u.)       :      0.11816
Magnitude (Debye)      :      0.30034

Rotational constants in cm-1:     0.020757     0.008837     0.006602
Rotational constants in MHz :   622.271798   264.932534   197.911022

                             ****ORCA TERMINATED NORMALLY****
TOTAL RUN TIME: 0 days 0 hours 0 minutes 37 seconds 432 msec
