                         Program Version 4.2.1 -  RELEASE  -
|  1> ! wB97X-D3 SP def2-SVP
|  2> %pal
|  3> nprocs 16
|  4> end
|  5>
|  6> * xyz 0 1
|  7> S 	 44.8381 	 4.92404 	 86.574
|  8> C 	 45.884 	 4.50039 	 85.2038
|  9> C 	 47.1341 	 4.10489 	 85.6687
| 10> C 	 47.1339 	 3.87538 	 87.1124
| 11> C 	 45.9834 	 4.34343 	 87.7477
| 12> H 	 48.0253 	 3.58401 	 87.7038
| 13> C 	 48.1917 	 3.58602 	 84.6987
| 14> H 	 49.0965 	 3.48553 	 85.2287
| 15> H 	 48.4066 	 4.46544 	 83.9636
| 16> C 	 47.8502 	 2.24199 	 84.0924
| 17> H 	 47.6389 	 1.3982 	 84.7657
| 18> H 	 46.9732 	 2.49702 	 83.5215
| 19> C 	 48.7964 	 1.74867 	 83.0382
| 20> H 	 48.3377 	 0.857483 	 82.6037
| 21> H 	 48.9424 	 2.54319 	 82.2626
| 22> H 	 49.7498 	 1.6335 	 83.4519
| 23> S 	 45.9745 	 5.60312 	 90.082
| 24> C 	 45.8863 	 4.70539 	 91.5208
| 25> C 	 45.4761 	 3.4053 	 91.2775
| 26> C 	 45.345 	 3.09095 	 89.9045
| 27> C 	 45.6932 	 4.17052 	 89.1449
| 28> H 	 45.3611 	 2.73046 	 92.0846
| 29> C 	 44.7114 	 1.8251 	 89.3933
| 30> H 	 45.1744 	 1.12365 	 90.0379
| 31> H 	 44.9829 	 1.49238 	 88.4259
| 32> C 	 43.1633 	 1.74025 	 89.4118
| 33> H 	 42.6708 	 2.42101 	 88.7584
| 34> H 	 42.8626 	 1.9413 	 90.4119
| 35> C 	 42.7434 	 0.367287 	 89.0355
| 36> H 	 43.0515 	 0.29779 	 88.018
| 37> H 	 41.6901 	 0.0834014 	 89.1954
| 38> H 	 43.2684 	 -0.362063 	 89.5485
| 39> H 	 45.8121 	 4.76524 	 84.187
| 40> H 	 45.9516 	 5.13025 	 92.5158
| 41> *
| 42>
| 43>                          ****END OF INPUT****

CARTESIAN COORDINATES (ANGSTROEM)
---------------------------------
  S     44.838100    4.924040   86.574000
  C     45.884000    4.500390   85.203800
  C     47.134100    4.104890   85.668700
  C     47.133900    3.875380   87.112400
  C     45.983400    4.343430   87.747700
  H     48.025300    3.584010   87.703800
  C     48.191700    3.586020   84.698700
  H     49.096500    3.485530   85.228700
  H     48.406600    4.465440   83.963600
  C     47.850200    2.241990   84.092400
  H     47.638900    1.398200   84.765700
  H     46.973200    2.497020   83.521500
  C     48.796400    1.748670   83.038200
  H     48.337700    0.857483   82.603700
  H     48.942400    2.543190   82.262600
  H     49.749800    1.633500   83.451900
  S     45.974500    5.603120   90.082000
  C     45.886300    4.705390   91.520800
  C     45.476100    3.405300   91.277500
  C     45.345000    3.090950   89.904500
  C     45.693200    4.170520   89.144900
  H     45.361100    2.730460   92.084600
  C     44.711400    1.825100   89.393300
  H     45.174400    1.123650   90.037900
  H     44.982900    1.492380   88.425900
  C     43.163300    1.740250   89.411800
  H     42.670800    2.421010   88.758400
  H     42.862600    1.941300   90.411900
  C     42.743400    0.367287   89.035500
  H     43.051500    0.297790   88.018000
  H     41.690100    0.083401   89.195400
  H     43.268400   -0.362063   89.548500
  H     45.812100    4.765240   84.187000
  H     45.951600    5.130250   92.515800

 Total Charge           Charge          ....    0
 Multiplicity           Mult            ....    1
 Number of Electrons    NEL             ....  134
 Basis Dimension        Dim             ....  322

ORBITAL ENERGIES
----------------

  NO   OCC          E(Eh)            E(eV)
   0   2.0000     -88.966016     -2420.8884
   1   2.0000     -88.962540     -2420.7938
   2   2.0000     -10.325692      -280.9764
   3   2.0000     -10.316598      -280.7289
   4   2.0000     -10.312728      -280.6236
   5   2.0000     -10.310714      -280.5688
   6   2.0000     -10.301837      -280.3272
   7   2.0000     -10.299562      -280.2653
   8   2.0000     -10.298056      -280.2243
   9   2.0000     -10.294837      -280.1368
  10   2.0000     -10.288659      -279.9687
  11   2.0000     -10.283800      -279.8364
  12   2.0000     -10.281168      -279.7648
  13   2.0000     -10.275633      -279.6142
  14   2.0000     -10.273746      -279.5628
  15   2.0000     -10.264331      -279.3067
  16   2.0000      -8.080172      -219.8727
  17   2.0000      -8.078896      -219.8379
  18   2.0000      -6.038852      -164.3255
  19   2.0000      -6.037150      -164.2792
  20   2.0000      -6.034593      -164.2096
  21   2.0000      -6.033196      -164.1716
  22   2.0000      -6.030951      -164.1105
  23   2.0000      -6.029804      -164.0793
  24   2.0000      -1.012268       -27.5452
  25   2.0000      -0.982787       -26.7430
  26   2.0000      -0.918055       -24.9815
  27   2.0000      -0.917190       -24.9580
  28   2.0000      -0.872274       -23.7358
  29   2.0000      -0.861547       -23.4439
  30   2.0000      -0.844975       -22.9929
  31   2.0000      -0.811994       -22.0955
  32   2.0000      -0.784003       -21.3338
  33   2.0000      -0.772154       -21.0114
  34   2.0000      -0.707905       -19.2631
  35   2.0000      -0.700040       -19.0491
  36   2.0000      -0.695426       -18.9235
  37   2.0000      -0.666417       -18.1341
  38   2.0000      -0.637427       -17.3453
  39   2.0000      -0.614295       -16.7158
  40   2.0000      -0.601302       -16.3623
  41   2.0000      -0.574806       -15.6413
  42   2.0000      -0.572319       -15.5736
  43   2.0000      -0.561215       -15.2714
  44   2.0000      -0.536470       -14.5981
  45   2.0000      -0.527316       -14.3490
  46   2.0000      -0.522779       -14.2256
  47   2.0000      -0.520262       -14.1571
  48   2.0000      -0.502203       -13.6656
  49   2.0000      -0.501039       -13.6340
  50   2.0000      -0.494743       -13.4627
  51   2.0000      -0.476449       -12.9648
  52   2.0000      -0.469657       -12.7800
  53   2.0000      -0.460140       -12.5211
  54   2.0000      -0.455557       -12.3963
  55   2.0000      -0.450501       -12.2588
  56   2.0000      -0.441666       -12.0183
  57   2.0000      -0.439665       -11.9639
  58   2.0000      -0.437235       -11.8978
  59   2.0000      -0.426597       -11.6083
  60   2.0000      -0.418968       -11.4007
  61   2.0000      -0.415181       -11.2976
  62   2.0000      -0.408463       -11.1148
  63   2.0000      -0.334973        -9.1151
  64   2.0000      -0.326710        -8.8902
  65   2.0000      -0.321817        -8.7571
  66   2.0000      -0.308588        -8.3971
  67   0.0000       0.046683         1.2703
  68   0.0000       0.052516         1.4290
  69   0.0000       0.114331         3.1111
  70   0.0000       0.120525         3.2797
  71   0.0000       0.129044         3.5115

MULLIKEN ATOMIC CHARGES
-----------------------
   0 S :    0.113990
   1 C :   -0.096110
   2 C :   -0.110379
   3 C :    0.033169
   4 C :   -0.154325
   5 H :    0.031450
   6 C :    0.031627
   7 H :    0.000105
   8 H :    0.047019
   9 C :   -0.064974
  10 H :    0.042603
  11 H :    0.012364
  12 C :   -0.014572
  13 H :    0.043029
  14 H :    0.020952
  15 H :    0.014904
  16 S :    0.124700
  17 C :   -0.084107
  18 C :   -0.049751
  19 C :    0.015704
  20 C :   -0.209627
  21 H :    0.001567
  22 C :    0.082113
  23 H :    0.005192
  24 H :    0.003034
  25 C :   -0.013101
  26 H :    0.028092
  27 H :    0.006028
  28 C :   -0.008569
  29 H :    0.016519
  30 H :    0.038204
  31 H :   -0.001115
  32 H :    0.037578
  33 H :    0.056687
Sum of atomic charges:   -0.0000000

LOEWDIN ATOMIC CHARGES
----------------------
   0 S :    0.402058
   1 C :   -0.191624
   2 C :   -0.059987
   3 C :   -0.062666
   4 C :   -0.210744
   5 H :    0.038033
   6 C :   -0.037947
   7 H :    0.016294
   8 H :    0.043944
   9 C :   -0.043693
  10 H :    0.031825
  11 H :    0.021674
  12 C :   -0.058431
  13 H :    0.031349
  14 H :    0.026899
  15 H :    0.012715
  16 S :    0.439646
  17 C :   -0.199222
  18 C :   -0.070004
  19 C :   -0.050511
  20 C :   -0.207978
  21 H :    0.023783
  22 C :   -0.020809
  23 H :    0.027026
  24 H :    0.023933
  25 C :   -0.024446
  26 H :    0.023387
  27 H :    0.015210
  28 C :   -0.058273
  29 H :    0.023608
  30 H :    0.030969
  31 H :    0.012717
  32 H :    0.021480
  33 H :    0.029784

  Mayer bond orders larger than 0.100000
B(  0-S ,  1-C ) :   1.1325 B(  0-S ,  4-C ) :   1.1495 B(  1-C ,  2-C ) :   1.6131
B(  1-C , 32-H ) :   0.9653 B(  2-C ,  3-C ) :   1.2351 B(  2-C ,  6-C ) :   1.0412
B(  3-C ,  4-C ) :   1.5942 B(  3-C ,  5-H ) :   0.9849 B(  4-C , 20-C ) :   0.9942
B(  6-C ,  7-H ) :   0.9359 B(  6-C ,  8-H ) :   0.9389 B(  6-C ,  9-C ) :   1.0584
B(  9-C , 10-H ) :   0.9550 B(  9-C , 11-H ) :   0.9526 B(  9-C , 12-C ) :   1.0885
B( 12-C , 13-H ) :   0.9726 B( 12-C , 14-H ) :   0.9721 B( 12-C , 15-H ) :   0.9739
B( 16-S , 17-C ) :   1.1757 B( 16-S , 20-C ) :   1.1663 B( 17-C , 18-C ) :   1.5860
B( 17-C , 20-C ) :   0.1016 B( 17-C , 33-H ) :   0.9683 B( 18-C , 19-C ) :   1.2428
B( 18-C , 21-H ) :   0.9986 B( 19-C , 20-C ) :   1.6035 B( 19-C , 22-C ) :   1.0404
B( 22-C , 23-H ) :   0.9239 B( 22-C , 24-H ) :   0.9349 B( 22-C , 25-C ) :   1.0658
B( 25-C , 26-H ) :   0.9554 B( 25-C , 27-H ) :   0.9505 B( 25-C , 28-C ) :   1.0871
B( 28-C , 29-H ) :   0.9722 B( 28-C , 30-H ) :   0.9707 B( 28-C , 31-H ) :   0.9701

Dispersion correction           -0.013798697
FINAL SINGLE POINT ENERGY     -1339.856757367730

DIPOLE MOMENT
-------------
                                X             Y             Z
Electronic contribution:     -2.39097      22.85871      12.66465
Nuclear contribution   :      2.59529     -23.37159     -12.67003
                        -----------------------------------------
Total Dipole Moment    :      0.20432      -0.51288      -0.00538
                        -----------------------------------------
Magnitude (a.u.)       :      0.55211
Magnitude (Debye)      :      1.40335

Rotational constants in cm-1:     0.018539     0.007964     0.006688
Rotational constants in MHz :   555.783657   238.760945   200.505217

                             ****ORCA TERMINATED NORMALLY****
TOTAL RUN TIME: 0 days 0 hours 0 minutes 29 seconds 552 msec
