                         Program Version 4.2.1 -  RELEASE  -
|  1> ! wB97X-D3 SP def2-SVP
|  2> %pal
|  3> nprocs 16
|  4> end
|  5>
|  6> * xyz 0 1
|  7> S 	 -8.61292 	 9.3461 	 85.1567
|  8> C 	 -8.97296 	 7.77072 	 85.851
|  9> C 	 -10.1797 	 7.19692 	 85.3428
| 10> C 	 -10.6584 	 7.93593 	 84.2482
| 11> C 	 -9.96354 	 9.13686 	 84.0393
| 12> H 	 -11.5045 	 7.68145 	 83.6179
| 13> C 	 -10.8661 	 5.9126 	 85.9244
| 14> H 	 -11.9595 	 5.86721 	 85.6452
| 15> H 	 -10.8605 	 6.00343 	 87.0181
| 16> C 	 -10.1577 	 4.57138 	 85.4964
| 17> H 	 -10.229 	 4.34123 	 84.3887
| 18> H 	 -9.03596 	 4.6098 	 85.691
| 19> C 	 -10.7993 	 3.39371 	 86.3357
| 20> H 	 -10.243 	 2.42931 	 86.3683
| 21> H 	 -10.9078 	 3.77716 	 87.3535
| 22> H 	 -11.8216 	 3.23281 	 86.0496
| 23> S 	 -10.4531 	 11.8221 	 83.2897
| 24> C 	 -10.9841 	 12.2267 	 81.6833
| 25> C 	 -11.2119 	 11.1417 	 80.9394
| 26> C 	 -10.7414 	 9.9386 	 81.6034
| 27> C 	 -10.239 	 10.1105 	 82.9013
| 28> H 	 -11.5048 	 11.2599 	 79.9163
| 29> C 	 -10.8648 	 8.57262 	 80.9683
| 30> H 	 -11.7335 	 8.06009 	 81.3976
| 31> H 	 -9.96355 	 8.04582 	 81.2576
| 32> C 	 -10.865 	 8.49974 	 79.3957
| 33> H 	 -11.6161 	 9.22047 	 78.9054
| 34> H 	 -11.1595 	 7.52549 	 79.1659
| 35> C 	 -9.50532 	 8.94189 	 78.827
| 36> H 	 -9.56606 	 9.0087 	 77.7733
| 37> H 	 -8.78439 	 8.19972 	 78.9593
| 38> H 	 -9.09701 	 9.85644 	 79.2479
| 39> H 	 -8.38964 	 7.33233 	 86.6277
| 40> H 	 -11.1554 	 13.2316 	 81.2621
| 41> *
| 42>
| 43>                          ****END OF INPUT****

CARTESIAN COORDINATES (ANGSTROEM)
---------------------------------
  S     -8.612920    9.346100   85.156700
  C     -8.972960    7.770720   85.851000
  C    -10.179700    7.196920   85.342800
  C    -10.658400    7.935930   84.248200
  C     -9.963540    9.136860   84.039300
  H    -11.504500    7.681450   83.617900
  C    -10.866100    5.912600   85.924400
  H    -11.959500    5.867210   85.645200
  H    -10.860500    6.003430   87.018100
  C    -10.157700    4.571380   85.496400
  H    -10.229000    4.341230   84.388700
  H     -9.035960    4.609800   85.691000
  C    -10.799300    3.393710   86.335700
  H    -10.243000    2.429310   86.368300
  H    -10.907800    3.777160   87.353500
  H    -11.821600    3.232810   86.049600
  S    -10.453100   11.822100   83.289700
  C    -10.984100   12.226700   81.683300
  C    -11.211900   11.141700   80.939400
  C    -10.741400    9.938600   81.603400
  C    -10.239000   10.110500   82.901300
  H    -11.504800   11.259900   79.916300
  C    -10.864800    8.572620   80.968300
  H    -11.733500    8.060090   81.397600
  H     -9.963550    8.045820   81.257600
  C    -10.865000    8.499740   79.395700
  H    -11.616100    9.220470   78.905400
  H    -11.159500    7.525490   79.165900
  C     -9.505320    8.941890   78.827000
  H     -9.566060    9.008700   77.773300
  H     -8.784390    8.199720   78.959300
  H     -9.097010    9.856440   79.247900
  H     -8.389640    7.332330   86.627700
  H    -11.155400   13.231600   81.262100

 Total Charge           Charge          ....    0
 Multiplicity           Mult            ....    1
 Number of Electrons    NEL             ....  134
 Basis Dimension        Dim             ....  322

ORBITAL ENERGIES
----------------

  NO   OCC          E(Eh)            E(eV)
   0   2.0000     -88.975389     -2421.1434
   1   2.0000     -88.958922     -2420.6953
   2   2.0000     -10.338596      -281.3275
   3   2.0000     -10.330636      -281.1109
   4   2.0000     -10.320220      -280.8275
   5   2.0000     -10.313409      -280.6421
   6   2.0000     -10.310808      -280.5714
   7   2.0000     -10.309205      -280.5277
   8   2.0000     -10.304520      -280.4002
   9   2.0000     -10.304497      -280.3996
  10   2.0000     -10.298649      -280.2405
  11   2.0000     -10.290187      -280.0102
  12   2.0000     -10.288970      -279.9771
  13   2.0000     -10.288001      -279.9507
  14   2.0000     -10.283272      -279.8221
  15   2.0000     -10.266476      -279.3650
  16   2.0000      -8.089161      -220.1173
  17   2.0000      -8.073869      -219.7012
  18   2.0000      -6.047541      -164.5619
  19   2.0000      -6.043799      -164.4601
  20   2.0000      -6.040133      -164.3604
  21   2.0000      -6.032470      -164.1518
  22   2.0000      -6.028357      -164.0399
  23   2.0000      -6.024505      -163.9351
  24   2.0000      -1.000452       -27.2237
  25   2.0000      -0.982193       -26.7268
  26   2.0000      -0.904231       -24.6054
  27   2.0000      -0.900022       -24.4909
  28   2.0000      -0.863768       -23.5043
  29   2.0000      -0.851709       -23.1762
  30   2.0000      -0.840830       -22.8802
  31   2.0000      -0.814448       -22.1622
  32   2.0000      -0.778801       -21.1923
  33   2.0000      -0.767966       -20.8974
  34   2.0000      -0.705061       -19.1857
  35   2.0000      -0.699978       -19.0474
  36   2.0000      -0.692170       -18.8349
  37   2.0000      -0.651012       -17.7149
  38   2.0000      -0.641291       -17.4504
  39   2.0000      -0.620837       -16.8938
  40   2.0000      -0.592952       -16.1351
  41   2.0000      -0.570324       -15.5193
  42   2.0000      -0.556101       -15.1323
  43   2.0000      -0.552891       -15.0449
  44   2.0000      -0.533615       -14.5204
  45   2.0000      -0.522256       -14.2113
  46   2.0000      -0.517230       -14.0745
  47   2.0000      -0.505528       -13.7561
  48   2.0000      -0.499442       -13.5905
  49   2.0000      -0.496583       -13.5127
  50   2.0000      -0.488944       -13.3048
  51   2.0000      -0.479344       -13.0436
  52   2.0000      -0.468443       -12.7470
  53   2.0000      -0.464798       -12.6478
  54   2.0000      -0.455174       -12.3859
  55   2.0000      -0.452064       -12.3013
  56   2.0000      -0.448477       -12.2037
  57   2.0000      -0.441173       -12.0049
  58   2.0000      -0.432750       -11.7757
  59   2.0000      -0.427080       -11.6214
  60   2.0000      -0.422194       -11.4885
  61   2.0000      -0.414762       -11.2862
  62   2.0000      -0.409121       -11.1328
  63   2.0000      -0.349612        -9.5134
  64   2.0000      -0.338527        -9.2118
  65   2.0000      -0.322986        -8.7889
  66   2.0000      -0.289186        -7.8692
  67   0.0000       0.025364         0.6902
  68   0.0000       0.071783         1.9533
  69   0.0000       0.107802         2.9334
  70   0.0000       0.125010         3.4017
  71   0.0000       0.129311         3.5187

MULLIKEN ATOMIC CHARGES
-----------------------
   0 S :    0.131914
   1 C :   -0.115904
   2 C :   -0.067183
   3 C :    0.022634
   4 C :   -0.153870
   5 H :    0.011630
   6 C :    0.023856
   7 H :    0.041263
   8 H :    0.039353
   9 C :   -0.111484
  10 H :    0.047304
  11 H :    0.043949
  12 C :   -0.047335
  13 H :    0.051603
  14 H :    0.018786
  15 H :    0.025311
  16 S :    0.079553
  17 C :   -0.084309
  18 C :   -0.013191
  19 C :   -0.106766
  20 C :   -0.102609
  21 H :    0.014117
  22 C :    0.026590
  23 H :    0.048798
  24 H :    0.035497
  25 C :   -0.061763
  26 H :    0.032729
  27 H :    0.015111
  28 C :   -0.023267
  29 H :    0.019767
  30 H :    0.010534
  31 H :    0.044894
  32 H :    0.041950
  33 H :    0.060537
Sum of atomic charges:    0.0000000

LOEWDIN ATOMIC CHARGES
----------------------
   0 S :    0.414148
   1 C :   -0.190980
   2 C :   -0.059045
   3 C :   -0.058201
   4 C :   -0.193102
   5 H :    0.033703
   6 C :   -0.032976
   7 H :    0.037168
   8 H :    0.032201
   9 C :   -0.046797
  10 H :    0.029347
  11 H :    0.028891
  12 C :   -0.073457
  13 H :    0.031560
  14 H :    0.023077
  15 H :    0.021197
  16 S :    0.388572
  17 C :   -0.182442
  18 C :   -0.078848
  19 C :   -0.058822
  20 C :   -0.197919
  21 H :    0.030881
  22 C :   -0.036746
  23 H :    0.029241
  24 H :    0.034195
  25 C :   -0.033483
  26 H :    0.026091
  27 H :    0.016047
  28 C :   -0.060799
  29 H :    0.021932
  30 H :    0.017094
  31 H :    0.030122
  32 H :    0.019737
  33 H :    0.038414

  Mayer bond orders larger than 0.100000
B(  0-S ,  1-C ) :   1.1616 B(  0-S ,  4-C ) :   1.1635 B(  1-C ,  2-C ) :   1.5655
B(  1-C ,  4-C ) :   0.1127 B(  1-C , 32-H ) :   0.9725 B(  2-C ,  3-C ) :   1.2822
B(  2-C ,  6-C ) :   1.0084 B(  3-C ,  4-C ) :   1.5470 B(  3-C ,  5-H ) :   0.9906
B(  4-C , 20-C ) :   1.0065 B(  6-C ,  7-H ) :   0.9502 B(  6-C ,  8-H ) :   0.9466
B(  6-C ,  9-C ) :   1.0449 B(  9-C , 10-H ) :   0.9602 B(  9-C , 11-H ) :   0.9622
B(  9-C , 12-C ) :   1.0587 B( 12-C , 13-H ) :   0.9764 B( 12-C , 14-H ) :   0.9750
B( 12-C , 15-H ) :   0.9757 B( 16-S , 17-C ) :   1.1558 B( 16-S , 20-C ) :   1.1185
B( 17-C , 18-C ) :   1.6368 B( 17-C , 33-H ) :   0.9562 B( 18-C , 19-C ) :   1.2243
B( 18-C , 21-H ) :   0.9904 B( 19-C , 20-C ) :   1.6238 B( 19-C , 22-C ) :   1.0279
B( 22-C , 23-H ) :   0.9321 B( 22-C , 24-H ) :   0.9407 B( 22-C , 25-C ) :   1.0733
B( 25-C , 26-H ) :   0.9568 B( 25-C , 27-H ) :   0.9538 B( 25-C , 28-C ) :   1.0734
B( 28-C , 29-H ) :   0.9733 B( 28-C , 30-H ) :   0.9713 B( 28-C , 31-H ) :   0.9759

Dispersion correction           -0.013834366
FINAL SINGLE POINT ENERGY     -1339.870851983934

DIPOLE MOMENT
-------------
                                X             Y             Z
Electronic contribution:      5.21564      25.81941       9.25774
Nuclear contribution   :     -5.48557     -26.45098      -9.51791
                        -----------------------------------------
Total Dipole Moment    :     -0.26993      -0.63157      -0.26017
                        -----------------------------------------
Magnitude (a.u.)       :      0.73446
Magnitude (Debye)      :      1.86685

Rotational constants in cm-1:     0.019657     0.007494     0.005999
Rotational constants in MHz :   589.301251   224.668952   179.859039

                             ****ORCA TERMINATED NORMALLY****
TOTAL RUN TIME: 0 days 0 hours 0 minutes 34 seconds 238 msec
