                         Program Version 4.2.1 -  RELEASE  -
|  1> ! wB97X-D3 SP def2-SVP
|  2> %pal
|  3> nprocs 16
|  4> end
|  5>
|  6> * xyz 0 1
|  7> S 	 22.9475 	 1.12408 	 81.7264
|  8> C 	 24.0951 	 2.17949 	 80.9185
|  9> C 	 23.5585 	 3.19579 	 80.0989
| 10> C 	 22.1577 	 3.09781 	 80.1022
| 11> C 	 21.713 	 1.98911 	 80.8541
| 12> H 	 21.3986 	 3.73582 	 79.5465
| 13> C 	 24.3931 	 4.2201 	 79.3043
| 14> H 	 24.0806 	 4.27399 	 78.2345
| 15> H 	 25.4502 	 3.9283 	 79.472
| 16> C 	 24.4295 	 5.58659 	 79.8512
| 17> H 	 23.3952 	 5.89289 	 79.6347
| 18> H 	 24.51 	 5.65715 	 80.9182
| 19> C 	 25.4451 	 6.45408 	 79.1259
| 20> H 	 25.3252 	 6.43681 	 78.0535
| 21> H 	 25.3518 	 7.45234 	 79.4188
| 22> H 	 26.4435 	 6.01845 	 79.276
| 23> S 	 19.6213 	 1.88617 	 82.6993
| 24> C 	 18.0817 	 1.30699 	 82.1883
| 25> C 	 18.0457 	 1.0066 	 80.867
| 26> C 	 19.2909 	 1.33152 	 80.1574
| 27> C 	 20.2795 	 1.71162 	 81.1157
| 28> H 	 17.1532 	 0.672338 	 80.4693
| 29> C 	 19.4394 	 1.21598 	 78.6254
| 30> H 	 19.2 	 0.308429 	 78.2245
| 31> H 	 20.5112 	 1.13693 	 78.5122
| 32> C 	 18.8366 	 2.39379 	 77.8126
| 33> H 	 19.3883 	 3.35086 	 77.9886
| 34> H 	 17.7847 	 2.63736 	 78.1389
| 35> C 	 18.56 	 2.11931 	 76.2969
| 36> H 	 19.44 	 1.88704 	 75.7109
| 37> H 	 18.1861 	 3.04784 	 75.9045
| 38> H 	 17.9217 	 1.27757 	 76.0163
| 39> H 	 25.1469 	 2.05722 	 80.7925
| 40> H 	 17.2168 	 1.29465 	 82.7966
| 41> *
| 42>
| 43>                          ****END OF INPUT****

CARTESIAN COORDINATES (ANGSTROEM)
---------------------------------
  S     22.947500    1.124080   81.726400
  C     24.095100    2.179490   80.918500
  C     23.558500    3.195790   80.098900
  C     22.157700    3.097810   80.102200
  C     21.713000    1.989110   80.854100
  H     21.398600    3.735820   79.546500
  C     24.393100    4.220100   79.304300
  H     24.080600    4.273990   78.234500
  H     25.450200    3.928300   79.472000
  C     24.429500    5.586590   79.851200
  H     23.395200    5.892890   79.634700
  H     24.510000    5.657150   80.918200
  C     25.445100    6.454080   79.125900
  H     25.325200    6.436810   78.053500
  H     25.351800    7.452340   79.418800
  H     26.443500    6.018450   79.276000
  S     19.621300    1.886170   82.699300
  C     18.081700    1.306990   82.188300
  C     18.045700    1.006600   80.867000
  C     19.290900    1.331520   80.157400
  C     20.279500    1.711620   81.115700
  H     17.153200    0.672338   80.469300
  C     19.439400    1.215980   78.625400
  H     19.200000    0.308429   78.224500
  H     20.511200    1.136930   78.512200
  C     18.836600    2.393790   77.812600
  H     19.388300    3.350860   77.988600
  H     17.784700    2.637360   78.138900
  C     18.560000    2.119310   76.296900
  H     19.440000    1.887040   75.710900
  H     18.186100    3.047840   75.904500
  H     17.921700    1.277570   76.016300
  H     25.146900    2.057220   80.792500
  H     17.216800    1.294650   82.796600

 Total Charge           Charge          ....    0
 Multiplicity           Mult            ....    1
 Number of Electrons    NEL             ....  134
 Basis Dimension        Dim             ....  322

ORBITAL ENERGIES
----------------

  NO   OCC          E(Eh)            E(eV)
   0   2.0000     -88.977558     -2421.2025
   1   2.0000     -88.963708     -2420.8256
   2   2.0000     -10.330258      -281.1006
   3   2.0000     -10.326111      -280.9878
   4   2.0000     -10.312721      -280.6234
   5   2.0000     -10.308798      -280.5166
   6   2.0000     -10.306201      -280.4460
   7   2.0000     -10.303468      -280.3716
   8   2.0000     -10.300830      -280.2998
   9   2.0000     -10.298226      -280.2290
  10   2.0000     -10.296330      -280.1774
  11   2.0000     -10.285598      -279.8853
  12   2.0000     -10.285181      -279.8740
  13   2.0000     -10.279274      -279.7133
  14   2.0000     -10.278552      -279.6936
  15   2.0000     -10.275201      -279.6024
  16   2.0000      -8.091642      -220.1848
  17   2.0000      -8.079373      -219.8509
  18   2.0000      -6.050017      -164.6293
  19   2.0000      -6.046383      -164.5304
  20   2.0000      -6.042461      -164.4237
  21   2.0000      -6.037843      -164.2980
  22   2.0000      -6.033708      -164.1856
  23   2.0000      -6.030188      -164.0898
  24   2.0000      -1.004241       -27.3268
  25   2.0000      -0.982799       -26.7433
  26   2.0000      -0.923700       -25.1352
  27   2.0000      -0.900373       -24.5004
  28   2.0000      -0.867073       -23.5942
  29   2.0000      -0.853540       -23.2260
  30   2.0000      -0.844991       -22.9934
  31   2.0000      -0.812545       -22.1105
  32   2.0000      -0.787805       -21.4373
  33   2.0000      -0.772311       -21.0157
  34   2.0000      -0.705158       -19.1883
  35   2.0000      -0.699240       -19.0273
  36   2.0000      -0.691910       -18.8278
  37   2.0000      -0.657257       -17.8849
  38   2.0000      -0.636009       -17.3067
  39   2.0000      -0.618370       -16.8267
  40   2.0000      -0.596583       -16.2338
  41   2.0000      -0.581542       -15.8246
  42   2.0000      -0.566791       -15.4232
  43   2.0000      -0.551292       -15.0014
  44   2.0000      -0.532346       -14.4859
  45   2.0000      -0.526419       -14.3246
  46   2.0000      -0.516296       -14.0491
  47   2.0000      -0.508000       -13.8234
  48   2.0000      -0.506418       -13.7803
  49   2.0000      -0.495817       -13.4919
  50   2.0000      -0.483236       -13.1495
  51   2.0000      -0.478166       -13.0116
  52   2.0000      -0.467830       -12.7303
  53   2.0000      -0.464397       -12.6369
  54   2.0000      -0.457305       -12.4439
  55   2.0000      -0.452141       -12.3034
  56   2.0000      -0.449114       -12.2210
  57   2.0000      -0.443553       -12.0697
  58   2.0000      -0.440443       -11.9851
  59   2.0000      -0.432002       -11.7554
  60   2.0000      -0.426502       -11.6057
  61   2.0000      -0.406251       -11.0547
  62   2.0000      -0.403394       -10.9769
  63   2.0000      -0.344007        -9.3609
  64   2.0000      -0.335239        -9.1223
  65   2.0000      -0.325865        -8.8672
  66   2.0000      -0.290667        -7.9095
  67   0.0000       0.036610         0.9962
  68   0.0000       0.064480         1.7546
  69   0.0000       0.109920         2.9911
  70   0.0000       0.124227         3.3804
  71   0.0000       0.125581         3.4172

MULLIKEN ATOMIC CHARGES
-----------------------
   0 S :    0.145407
   1 C :   -0.092673
   2 C :   -0.094618
   3 C :    0.011087
   4 C :   -0.187011
   5 H :    0.040504
   6 C :    0.052991
   7 H :    0.046558
   8 H :    0.004770
   9 C :   -0.078288
  10 H :    0.011450
  11 H :    0.031203
  12 C :    0.002652
  13 H :    0.016081
  14 H :    0.029502
  15 H :    0.027910
  16 S :    0.119943
  17 C :   -0.082240
  18 C :    0.003749
  19 C :   -0.057398
  20 C :   -0.173970
  21 H :   -0.013966
  22 C :    0.147149
  23 H :   -0.007052
  24 H :    0.016328
  25 C :   -0.101424
  26 H :    0.035794
  27 H :    0.035227
  28 C :   -0.049213
  29 H :    0.019566
  30 H :    0.030766
  31 H :    0.036877
  32 H :    0.030932
  33 H :    0.041406
Sum of atomic charges:    0.0000000

LOEWDIN ATOMIC CHARGES
----------------------
   0 S :    0.425352
   1 C :   -0.200756
   2 C :   -0.058510
   3 C :   -0.064706
   4 C :   -0.200487
   5 H :    0.042980
   6 C :   -0.031864
   7 H :    0.037728
   8 H :    0.027166
   9 C :   -0.045091
  10 H :    0.020571
  11 H :    0.023848
  12 C :   -0.054750
  13 H :    0.024191
  14 H :    0.021404
  15 H :    0.027529
  16 S :    0.422252
  17 C :   -0.191280
  18 C :   -0.060836
  19 C :   -0.046955
  20 C :   -0.216728
  21 H :    0.017867
  22 C :   -0.031877
  23 H :    0.018030
  24 H :    0.034121
  25 C :   -0.040447
  26 H :    0.026724
  27 H :    0.029847
  28 C :   -0.070169
  29 H :    0.019217
  30 H :    0.026459
  31 H :    0.027245
  32 H :    0.019291
  33 H :    0.022633

  Mayer bond orders larger than 0.100000
B(  0-S ,  1-C ) :   1.1411 B(  0-S ,  4-C ) :   1.1684 B(  1-C ,  2-C ) :   1.6162
B(  1-C ,  4-C ) :   0.1024 B(  1-C , 32-H ) :   0.9551 B(  2-C ,  3-C ) :   1.2602
B(  2-C ,  6-C ) :   1.0211 B(  3-C ,  4-C ) :   1.5606 B(  3-C ,  5-H ) :   0.9785
B(  4-C , 20-C ) :   1.0125 B(  6-C ,  7-H ) :   0.9419 B(  6-C ,  8-H ) :   0.9368
B(  6-C ,  9-C ) :   1.0601 B(  9-C , 10-H ) :   0.9506 B(  9-C , 11-H ) :   0.9546
B(  9-C , 12-C ) :   1.0872 B( 12-C , 13-H ) :   0.9689 B( 12-C , 14-H ) :   0.9722
B( 12-C , 15-H ) :   0.9722 B( 16-S , 17-C ) :   1.1425 B( 16-S , 20-C ) :   1.1665
B( 17-C , 18-C ) :   1.6317 B( 17-C , 33-H ) :   0.9699 B( 18-C , 19-C ) :   1.2245
B( 18-C , 21-H ) :   1.0013 B( 19-C , 20-C ) :   1.5858 B( 19-C , 22-C ) :   1.0415
B( 22-C , 23-H ) :   0.9376 B( 22-C , 24-H ) :   0.9181 B( 22-C , 25-C ) :   1.0445
B( 25-C , 26-H ) :   0.9544 B( 25-C , 27-H ) :   0.9636 B( 25-C , 28-C ) :   1.0697
B( 28-C , 29-H ) :   0.9756 B( 28-C , 30-H ) :   0.9750 B( 28-C , 31-H ) :   0.9766

Dispersion correction           -0.013700268
FINAL SINGLE POINT ENERGY     -1339.854172949832

DIPOLE MOMENT
-------------
                                X             Y             Z
Electronic contribution:     -3.94283     -15.76280      25.10498
Nuclear contribution   :      3.88702      16.06183     -25.68376
                        -----------------------------------------
Total Dipole Moment    :     -0.05581       0.29903      -0.57878
                        -----------------------------------------
Magnitude (a.u.)       :      0.65385
Magnitude (Debye)      :      1.66196

Rotational constants in cm-1:     0.016701     0.008281     0.006374
Rotational constants in MHz :   500.684662   248.268159   191.089264

                             ****ORCA TERMINATED NORMALLY****
TOTAL RUN TIME: 0 days 0 hours 0 minutes 33 seconds 685 msec
