                         Program Version 4.2.1 -  RELEASE  -
|  1> ! wB97X-D3 SP def2-SVP
|  2> %pal
|  3> nprocs 16
|  4> end
|  5>
|  6> * xyz 0 1
|  7> S 	 -11.8201 	 -6.90149 	 85.7574
|  8> C 	 -11.6597 	 -7.346 	 87.412
|  9> C 	 -12.8951 	 -7.30671 	 88.0959
| 10> C 	 -13.9401 	 -6.84347 	 87.2341
| 11> C 	 -13.607 	 -6.62876 	 85.8844
| 12> H 	 -14.9775 	 -6.68244 	 87.4985
| 13> C 	 -13.132 	 -7.62765 	 89.5769
| 14> H 	 -12.8822 	 -6.68148 	 90.1822
| 15> H 	 -12.3923 	 -8.35021 	 89.9305
| 16> C 	 -14.5305 	 -8.04816 	 89.9799
| 17> H 	 -14.6618 	 -7.7054 	 91.0204
| 18> H 	 -15.4186 	 -7.48834 	 89.5476
| 19> C 	 -14.8697 	 -9.55884 	 89.9206
| 20> H 	 -15.7395 	 -9.66168 	 90.5294
| 21> H 	 -15.2948 	 -9.71254 	 88.8534
| 22> H 	 -14.0771 	 -10.3369 	 90.0153
| 23> S 	 -13.8468 	 -5.40241 	 83.5064
| 24> C 	 -15.3179 	 -5.59459 	 82.5112
| 25> C 	 -16.2311 	 -6.3576 	 83.221
| 26> C 	 -15.8279 	 -6.76052 	 84.5273
| 27> C 	 -14.5248 	 -6.32711 	 84.789
| 28> H 	 -17.1879 	 -6.55492 	 82.7545
| 29> C 	 -16.6473 	 -7.6946 	 85.4271
| 30> H 	 -17.6102 	 -7.2165 	 85.4388
| 31> H 	 -16.2449 	 -7.86439 	 86.3669
| 32> C 	 -16.9048 	 -9.08883 	 84.8282
| 33> H 	 -17.3884 	 -9.11329 	 83.7948
| 34> H 	 -17.5296 	 -9.71433 	 85.4919
| 35> C 	 -15.6928 	 -10.0064 	 84.5254
| 36> H 	 -15.0153 	 -9.50663 	 83.7646
| 37> H 	 -16.0711 	 -10.9669 	 84.1102
| 38> H 	 -15.1171 	 -10.2475 	 85.3357
| 39> H 	 -10.6618 	 -7.66883 	 87.8453
| 40> H 	 -15.5292 	 -5.16063 	 81.5303
| 41> *
| 42>
| 43>                          ****END OF INPUT****

CARTESIAN COORDINATES (ANGSTROEM)
---------------------------------
  S    -11.820100   -6.901490   85.757400
  C    -11.659700   -7.346000   87.412000
  C    -12.895100   -7.306710   88.095900
  C    -13.940100   -6.843470   87.234100
  C    -13.607000   -6.628760   85.884400
  H    -14.977500   -6.682440   87.498500
  C    -13.132000   -7.627650   89.576900
  H    -12.882200   -6.681480   90.182200
  H    -12.392300   -8.350210   89.930500
  C    -14.530500   -8.048160   89.979900
  H    -14.661800   -7.705400   91.020400
  H    -15.418600   -7.488340   89.547600
  C    -14.869700   -9.558840   89.920600
  H    -15.739500   -9.661680   90.529400
  H    -15.294800   -9.712540   88.853400
  H    -14.077100  -10.336900   90.015300
  S    -13.846800   -5.402410   83.506400
  C    -15.317900   -5.594590   82.511200
  C    -16.231100   -6.357600   83.221000
  C    -15.827900   -6.760520   84.527300
  C    -14.524800   -6.327110   84.789000
  H    -17.187900   -6.554920   82.754500
  C    -16.647300   -7.694600   85.427100
  H    -17.610200   -7.216500   85.438800
  H    -16.244900   -7.864390   86.366900
  C    -16.904800   -9.088830   84.828200
  H    -17.388400   -9.113290   83.794800
  H    -17.529600   -9.714330   85.491900
  C    -15.692800  -10.006400   84.525400
  H    -15.015300   -9.506630   83.764600
  H    -16.071100  -10.966900   84.110200
  H    -15.117100  -10.247500   85.335700
  H    -10.661800   -7.668830   87.845300
  H    -15.529200   -5.160630   81.530300

 Total Charge           Charge          ....    0
 Multiplicity           Mult            ....    1
 Number of Electrons    NEL             ....  134
 Basis Dimension        Dim             ....  322

ORBITAL ENERGIES
----------------

  NO   OCC          E(Eh)            E(eV)
   0   2.0000     -88.968559     -2420.9576
   1   2.0000     -88.967212     -2420.9209
   2   2.0000     -10.335909      -281.2544
   3   2.0000     -10.330107      -281.0965
   4   2.0000     -10.322288      -280.8837
   5   2.0000     -10.321538      -280.8633
   6   2.0000     -10.308237      -280.5014
   7   2.0000     -10.307399      -280.4786
   8   2.0000     -10.302561      -280.3469
   9   2.0000     -10.297583      -280.2115
  10   2.0000     -10.295916      -280.1661
  11   2.0000     -10.295428      -280.1528
  12   2.0000     -10.291807      -280.0543
  13   2.0000     -10.291672      -280.0506
  14   2.0000     -10.287263      -279.9306
  15   2.0000     -10.269712      -279.4531
  16   2.0000      -8.082394      -219.9331
  17   2.0000      -8.081813      -219.9173
  18   2.0000      -6.040997      -164.3839
  19   2.0000      -6.040362      -164.3666
  20   2.0000      -6.036908      -164.2726
  21   2.0000      -6.036284      -164.2556
  22   2.0000      -6.033220      -164.1723
  23   2.0000      -6.032592      -164.1552
  24   2.0000      -1.004187       -27.3253
  25   2.0000      -0.979514       -26.6539
  26   2.0000      -0.908838       -24.7307
  27   2.0000      -0.906193       -24.6588
  28   2.0000      -0.870438       -23.6858
  29   2.0000      -0.848498       -23.0888
  30   2.0000      -0.841422       -22.8963
  31   2.0000      -0.813993       -22.1499
  32   2.0000      -0.785652       -21.3787
  33   2.0000      -0.773275       -21.0419
  34   2.0000      -0.707421       -19.2499
  35   2.0000      -0.689917       -18.7736
  36   2.0000      -0.688906       -18.7461
  37   2.0000      -0.659317       -17.9409
  38   2.0000      -0.636684       -17.3251
  39   2.0000      -0.623784       -16.9740
  40   2.0000      -0.598841       -16.2953
  41   2.0000      -0.563204       -15.3256
  42   2.0000      -0.552344       -15.0300
  43   2.0000      -0.551744       -15.0137
  44   2.0000      -0.541578       -14.7371
  45   2.0000      -0.526394       -14.3239
  46   2.0000      -0.519212       -14.1285
  47   2.0000      -0.513523       -13.9737
  48   2.0000      -0.502027       -13.6608
  49   2.0000      -0.497567       -13.5395
  50   2.0000      -0.489435       -13.3182
  51   2.0000      -0.484262       -13.1774
  52   2.0000      -0.475723       -12.9451
  53   2.0000      -0.466178       -12.6853
  54   2.0000      -0.455337       -12.3903
  55   2.0000      -0.447450       -12.1757
  56   2.0000      -0.439517       -11.9599
  57   2.0000      -0.437396       -11.9022
  58   2.0000      -0.432001       -11.7553
  59   2.0000      -0.425470       -11.5776
  60   2.0000      -0.418802       -11.3962
  61   2.0000      -0.410049       -11.1580
  62   2.0000      -0.398333       -10.8392
  63   2.0000      -0.357711        -9.7338
  64   2.0000      -0.334229        -9.0948
  65   2.0000      -0.326669        -8.8891
  66   2.0000      -0.282030        -7.6744
  67   0.0000       0.020539         0.5589
  68   0.0000       0.075695         2.0598
  69   0.0000       0.107850         2.9347
  70   0.0000       0.114061         3.1037
  71   0.0000       0.124267         3.3815

MULLIKEN ATOMIC CHARGES
-----------------------
   0 S :    0.114027
   1 C :   -0.155002
   2 C :   -0.067502
   3 C :   -0.002562
   4 C :   -0.122829
   5 H :    0.014711
   6 C :    0.066038
   7 H :    0.055626
   8 H :    0.026955
   9 C :   -0.119032
  10 H :    0.023519
  11 H :    0.035268
  12 C :   -0.057502
  13 H :    0.032409
  14 H :    0.033381
  15 H :    0.053565
  16 S :    0.100471
  17 C :   -0.097829
  18 C :   -0.048843
  19 C :   -0.057836
  20 C :   -0.165529
  21 H :    0.020112
  22 C :    0.180533
  23 H :    0.028518
  24 H :   -0.001848
  25 C :   -0.137113
  26 H :    0.035907
  27 H :    0.032124
  28 C :   -0.056635
  29 H :    0.048405
  30 H :    0.032577
  31 H :    0.014201
  32 H :    0.076926
  33 H :    0.064791
Sum of atomic charges:    0.0000000

LOEWDIN ATOMIC CHARGES
----------------------
   0 S :    0.397920
   1 C :   -0.218336
   2 C :   -0.069516
   3 C :   -0.067398
   4 C :   -0.181945
   5 H :    0.026185
   6 C :   -0.037886
   7 H :    0.046981
   8 H :    0.032618
   9 C :   -0.057264
  10 H :    0.025120
  11 H :    0.032633
  12 C :   -0.073603
  13 H :    0.023946
  14 H :    0.032460
  15 H :    0.031226
  16 S :    0.406546
  17 C :   -0.181847
  18 C :   -0.067752
  19 C :   -0.057179
  20 C :   -0.201345
  21 H :    0.031531
  22 C :   -0.019198
  23 H :    0.037698
  24 H :    0.019002
  25 C :   -0.046754
  26 H :    0.029640
  27 H :    0.024406
  28 C :   -0.066062
  29 H :    0.033074
  30 H :    0.029611
  31 H :    0.005947
  32 H :    0.043380
  33 H :    0.036161

  Mayer bond orders larger than 0.100000
B(  0-S ,  1-C ) :   1.1612 B(  0-S ,  4-C ) :   1.1367 B(  1-C ,  2-C ) :   1.5683
B(  1-C ,  4-C ) :   0.1056 B(  1-C , 32-H ) :   0.9608 B(  2-C ,  3-C ) :   1.2695
B(  2-C ,  6-C ) :   1.0173 B(  3-C ,  4-C ) :   1.5544 B(  3-C ,  5-H ) :   0.9849
B(  4-C , 20-C ) :   1.0754 B(  6-C ,  7-H ) :   0.9374 B(  6-C ,  8-H ) :   0.9443
B(  6-C ,  9-C ) :   1.0735 B(  9-C , 10-H ) :   0.9572 B(  9-C , 11-H ) :   0.9489
B(  9-C , 12-C ) :   1.0660 B( 12-C , 13-H ) :   0.9725 B( 12-C , 14-H ) :   0.9769
B( 12-C , 15-H ) :   0.9768 B( 16-S , 17-C ) :   1.1351 B( 16-S , 20-C ) :   1.1538
B( 17-C , 18-C ) :   1.6155 B( 17-C , 33-H ) :   0.9686 B( 18-C , 19-C ) :   1.2447
B( 18-C , 21-H ) :   0.9863 B( 19-C , 20-C ) :   1.5581 B( 19-C , 22-C ) :   1.0393
B( 22-C , 23-H ) :   0.9195 B( 22-C , 24-H ) :   0.9321 B( 22-C , 25-C ) :   1.0692
B( 25-C , 26-H ) :   0.9593 B( 25-C , 27-H ) :   0.9581 B( 25-C , 28-C ) :   1.0709
B( 28-C , 29-H ) :   0.9747 B( 28-C , 30-H ) :   0.9741 B( 28-C , 31-H ) :   0.9774

Dispersion correction           -0.015103622
FINAL SINGLE POINT ENERGY     -1339.867420264176

DIPOLE MOMENT
-------------
                                X             Y             Z
Electronic contribution:     15.66441      19.01261     -16.30607
Nuclear contribution   :    -16.17431     -19.34169      16.73579
                        -----------------------------------------
Total Dipole Moment    :     -0.50990      -0.32907       0.42972
                        -----------------------------------------
Magnitude (a.u.)       :      0.74361
Magnitude (Debye)      :      1.89009

Rotational constants in cm-1:     0.018408     0.009957     0.007432
Rotational constants in MHz :   551.871338   298.492245   222.803779

                             ****ORCA TERMINATED NORMALLY****
TOTAL RUN TIME: 0 days 0 hours 0 minutes 33 seconds 272 msec
