                         Program Version 4.2.1 -  RELEASE  -
|  1> ! wB97X-D3 SP def2-SVP
|  2> %pal
|  3> nprocs 16
|  4> end
|  5>
|  6> * xyz 0 1
|  7> S 	 22.2788 	 0.997156 	 81.9404
|  8> C 	 23.4663 	 1.71508 	 80.893
|  9> C 	 22.9562 	 2.66452 	 80.0167
| 10> C 	 21.6089 	 2.88788 	 80.2612
| 11> C 	 21.0069 	 1.94516 	 81.0937
| 12> H 	 21.0124 	 3.61456 	 79.8581
| 13> C 	 23.6184 	 3.44023 	 78.926
| 14> H 	 22.7968 	 4.03742 	 78.4322
| 15> H 	 24.0695 	 2.74324 	 78.1823
| 16> C 	 24.6825 	 4.49626 	 79.3589
| 17> H 	 24.271 	 5.20087 	 80.0909
| 18> H 	 25.5033 	 3.95207 	 79.8541
| 19> C 	 25.2151 	 5.23941 	 78.0992
| 20> H 	 24.4781 	 5.81539 	 77.5079
| 21> H 	 26.0826 	 5.81659 	 78.2789
| 22> H 	 25.5891 	 4.52331 	 77.3289
| 23> S 	 19.6026 	 2.1512 	 83.3245
| 24> C 	 17.8491 	 2.30677 	 83.3033
| 25> C 	 17.372 	 2.24175 	 82.0338
| 26> C 	 18.3952 	 2.18101 	 81.0154
| 27> C 	 19.6517 	 1.98855 	 81.5915
| 28> H 	 16.3102 	 2.3314 	 81.8701
| 29> C 	 18.0152 	 2.24924 	 79.5191
| 30> H 	 18.9031 	 1.99412 	 78.8881
| 31> H 	 17.7519 	 3.27531 	 79.307
| 32> C 	 16.8263 	 1.23732 	 79.1606
| 33> H 	 15.8407 	 1.56651 	 79.4618
| 34> H 	 17.0475 	 0.309399 	 79.6045
| 35> C 	 16.6796 	 1.02157 	 77.6936
| 36> H 	 16.1024 	 0.143608 	 77.6008
| 37> H 	 17.6302 	 0.879728 	 77.1472
| 38> H 	 16.1819 	 1.82404 	 77.2346
| 39> H 	 24.4437 	 1.48711 	 81.0305
| 40> H 	 17.2359 	 2.41079 	 84.1813
| 41> *
| 42>
| 43>                          ****END OF INPUT****

CARTESIAN COORDINATES (ANGSTROEM)
---------------------------------
  S     22.278800    0.997156   81.940400
  C     23.466300    1.715080   80.893000
  C     22.956200    2.664520   80.016700
  C     21.608900    2.887880   80.261200
  C     21.006900    1.945160   81.093700
  H     21.012400    3.614560   79.858100
  C     23.618400    3.440230   78.926000
  H     22.796800    4.037420   78.432200
  H     24.069500    2.743240   78.182300
  C     24.682500    4.496260   79.358900
  H     24.271000    5.200870   80.090900
  H     25.503300    3.952070   79.854100
  C     25.215100    5.239410   78.099200
  H     24.478100    5.815390   77.507900
  H     26.082600    5.816590   78.278900
  H     25.589100    4.523310   77.328900
  S     19.602600    2.151200   83.324500
  C     17.849100    2.306770   83.303300
  C     17.372000    2.241750   82.033800
  C     18.395200    2.181010   81.015400
  C     19.651700    1.988550   81.591500
  H     16.310200    2.331400   81.870100
  C     18.015200    2.249240   79.519100
  H     18.903100    1.994120   78.888100
  H     17.751900    3.275310   79.307000
  C     16.826300    1.237320   79.160600
  H     15.840700    1.566510   79.461800
  H     17.047500    0.309399   79.604500
  C     16.679600    1.021570   77.693600
  H     16.102400    0.143608   77.600800
  H     17.630200    0.879728   77.147200
  H     16.181900    1.824040   77.234600
  H     24.443700    1.487110   81.030500
  H     17.235900    2.410790   84.181300

 Total Charge           Charge          ....    0
 Multiplicity           Mult            ....    1
 Number of Electrons    NEL             ....  134
 Basis Dimension        Dim             ....  322

ORBITAL ENERGIES
----------------

  NO   OCC          E(Eh)            E(eV)
   0   2.0000     -88.967614     -2420.9319
   1   2.0000     -88.959031     -2420.6983
   2   2.0000     -10.327532      -281.0264
   3   2.0000     -10.323148      -280.9071
   4   2.0000     -10.311562      -280.5919
   5   2.0000     -10.307374      -280.4779
   6   2.0000     -10.305819      -280.4356
   7   2.0000     -10.299326      -280.2589
   8   2.0000     -10.298237      -280.2293
   9   2.0000     -10.296243      -280.1750
  10   2.0000     -10.294051      -280.1154
  11   2.0000     -10.289791      -279.9994
  12   2.0000     -10.284347      -279.8513
  13   2.0000     -10.282209      -279.7931
  14   2.0000     -10.281084      -279.7625
  15   2.0000     -10.266476      -279.3650
  16   2.0000      -8.081776      -219.9163
  17   2.0000      -8.074130      -219.7083
  18   2.0000      -6.040244      -164.3634
  19   2.0000      -6.036415      -164.2592
  20   2.0000      -6.032753      -164.1596
  21   2.0000      -6.032590      -164.1551
  22   2.0000      -6.028623      -164.0472
  23   2.0000      -6.024699      -163.9404
  24   2.0000      -1.005814       -27.3696
  25   2.0000      -0.982113       -26.7247
  26   2.0000      -0.908689       -24.7267
  27   2.0000      -0.905119       -24.6295
  28   2.0000      -0.869845       -23.6697
  29   2.0000      -0.856821       -23.3153
  30   2.0000      -0.848981       -23.1019
  31   2.0000      -0.812499       -22.1092
  32   2.0000      -0.777852       -21.1664
  33   2.0000      -0.768421       -20.9098
  34   2.0000      -0.708130       -19.2692
  35   2.0000      -0.703409       -19.1407
  36   2.0000      -0.696646       -18.9567
  37   2.0000      -0.662167       -18.0185
  38   2.0000      -0.648168       -17.6376
  39   2.0000      -0.619556       -16.8590
  40   2.0000      -0.592849       -16.1322
  41   2.0000      -0.572151       -15.5690
  42   2.0000      -0.567378       -15.4391
  43   2.0000      -0.556408       -15.1406
  44   2.0000      -0.532442       -14.4885
  45   2.0000      -0.522541       -14.2191
  46   2.0000      -0.517406       -14.0793
  47   2.0000      -0.511385       -13.9155
  48   2.0000      -0.503429       -13.6990
  49   2.0000      -0.494760       -13.4631
  50   2.0000      -0.489703       -13.3255
  51   2.0000      -0.479921       -13.0593
  52   2.0000      -0.475847       -12.9485
  53   2.0000      -0.465062       -12.6550
  54   2.0000      -0.455655       -12.3990
  55   2.0000      -0.447864       -12.1870
  56   2.0000      -0.445278       -12.1166
  57   2.0000      -0.433353       -11.7921
  58   2.0000      -0.430551       -11.7159
  59   2.0000      -0.428661       -11.6645
  60   2.0000      -0.427490       -11.6326
  61   2.0000      -0.422827       -11.5057
  62   2.0000      -0.415754       -11.3132
  63   2.0000      -0.349663        -9.5148
  64   2.0000      -0.330117        -8.9829
  65   2.0000      -0.324425        -8.8281
  66   2.0000      -0.286019        -7.7830
  67   0.0000       0.027422         0.7462
  68   0.0000       0.070419         1.9162
  69   0.0000       0.106817         2.9066
  70   0.0000       0.121847         3.3156
  71   0.0000       0.140110         3.8126

MULLIKEN ATOMIC CHARGES
-----------------------
   0 S :    0.100456
   1 C :   -0.087912
   2 C :   -0.026965
   3 C :    0.044165
   4 C :   -0.152198
   5 H :   -0.019737
   6 C :    0.020440
   7 H :    0.028679
   8 H :    0.047106
   9 C :   -0.070602
  10 H :    0.039463
  11 H :    0.032694
  12 C :   -0.048001
  13 H :    0.035141
  14 H :    0.028898
  15 H :    0.018945
  16 S :    0.086645
  17 C :   -0.081546
  18 C :   -0.028887
  19 C :   -0.053960
  20 C :   -0.144325
  21 H :    0.015058
  22 C :    0.062836
  23 H :    0.030855
  24 H :    0.035027
  25 C :   -0.077069
  26 H :    0.026653
  27 H :    0.029248
  28 C :   -0.014047
  29 H :    0.022539
  30 H :    0.026648
  31 H :    0.017411
  32 H :    0.005108
  33 H :    0.051235
Sum of atomic charges:   -0.0000000

LOEWDIN ATOMIC CHARGES
----------------------
   0 S :    0.395178
   1 C :   -0.176794
   2 C :   -0.066159
   3 C :   -0.043578
   4 C :   -0.183511
   5 H :    0.016856
   6 C :   -0.034818
   7 H :    0.034809
   8 H :    0.038011
   9 C :   -0.036940
  10 H :    0.026717
  11 H :    0.024676
  12 C :   -0.073349
  13 H :    0.027681
  14 H :    0.020300
  15 H :    0.028277
  16 S :    0.396321
  17 C :   -0.179020
  18 C :   -0.070934
  19 C :   -0.058505
  20 C :   -0.200499
  21 H :    0.030003
  22 C :   -0.027463
  23 H :    0.033027
  24 H :    0.029126
  25 C :   -0.031581
  26 H :    0.023667
  27 H :    0.020446
  28 C :   -0.057760
  29 H :    0.023999
  30 H :    0.025549
  31 H :    0.016848
  32 H :    0.001962
  33 H :    0.027456

  Mayer bond orders larger than 0.100000
B(  0-S ,  1-C ) :   1.1545 B(  0-S ,  4-C ) :   1.1414 B(  1-C ,  2-C ) :   1.5628
B(  1-C ,  4-C ) :   0.1034 B(  1-C , 32-H ) :   0.9850 B(  2-C ,  3-C ) :   1.2721
B(  2-C ,  6-C ) :   1.0148 B(  3-C ,  4-C ) :   1.5525 B(  3-C ,  5-H ) :   1.0004
B(  4-C , 20-C ) :   1.0448 B(  6-C ,  7-H ) :   0.9470 B(  6-C ,  8-H ) :   0.9374
B(  6-C ,  9-C ) :   1.0590 B(  9-C , 10-H ) :   0.9583 B(  9-C , 11-H ) :   0.9568
B(  9-C , 12-C ) :   1.0753 B( 12-C , 13-H ) :   0.9761 B( 12-C , 14-H ) :   0.9751
B( 12-C , 15-H ) :   0.9712 B( 16-S , 17-C ) :   1.1345 B( 16-S , 20-C ) :   1.1413
B( 17-C , 18-C ) :   1.6399 B( 17-C , 33-H ) :   0.9687 B( 18-C , 19-C ) :   1.2107
B( 18-C , 21-H ) :   0.9913 B( 19-C , 20-C ) :   1.6154 B( 19-C , 22-C ) :   1.0441
B( 22-C , 23-H ) :   0.9433 B( 22-C , 24-H ) :   0.9313 B( 22-C , 25-C ) :   1.0574
B( 25-C , 26-H ) :   0.9479 B( 25-C , 27-H ) :   0.9649 B( 25-C , 28-C ) :   1.1015
B( 28-C , 29-H ) :   0.9718 B( 28-C , 30-H ) :   0.9722 B( 28-C , 31-H ) :   0.9741

Dispersion correction           -0.013197110
FINAL SINGLE POINT ENERGY     -1339.870044944278

DIPOLE MOMENT
-------------
                                X             Y             Z
Electronic contribution:      0.09369      -9.20487      25.66349
Nuclear contribution   :     -0.24302       9.57506     -26.19886
                        -----------------------------------------
Total Dipole Moment    :     -0.14933       0.37019      -0.53537
                        -----------------------------------------
Magnitude (a.u.)       :      0.66781
Magnitude (Debye)      :      1.69743

Rotational constants in cm-1:     0.018003     0.007559     0.006050
Rotational constants in MHz :   539.728794   226.622111   181.380402

                             ****ORCA TERMINATED NORMALLY****
TOTAL RUN TIME: 0 days 0 hours 0 minutes 33 seconds 584 msec
