                         Program Version 4.2.1 -  RELEASE  -
|  1> ! wB97X-D3 SP def2-SVP
|  2> %pal
|  3> nprocs 16
|  4> end
|  5>
|  6> * xyz 0 1
|  7> S 	 -40.7262 	 -6.27351 	 96.0049
|  8> C 	 -39.7006 	 -6.39591 	 94.5692
|  9> C 	 -39.6699 	 -5.21874 	 93.9004
| 10> C 	 -40.5491 	 -4.28667 	 94.4852
| 11> C 	 -41.1381 	 -4.61792 	 95.6974
| 12> H 	 -40.8324 	 -3.44212 	 93.9418
| 13> C 	 -39.0116 	 -4.99478 	 92.5832
| 14> H 	 -38.1893 	 -5.69168 	 92.4772
| 15> H 	 -38.5044 	 -3.97604 	 92.666
| 16> C 	 -40.015 	 -5.14699 	 91.4742
| 17> H 	 -39.5536 	 -5.66624 	 90.6377
| 18> H 	 -40.8236 	 -5.77254 	 91.7223
| 19> C 	 -40.5534 	 -3.80985 	 90.8957
| 20> H 	 -39.8221 	 -3.41361 	 90.2328
| 21> H 	 -41.434 	 -4.0474 	 90.3149
| 22> H 	 -40.8029 	 -3.06334 	 91.6545
| 23> S 	 -42.2747 	 -2.15995 	 96.4215
| 24> C 	 -43.7767 	 -2.17053 	 97.278
| 25> C 	 -44.129 	 -3.41093 	 97.7187
| 26> C 	 -43.3595 	 -4.46292 	 97.0964
| 27> C 	 -42.2136 	 -3.94475 	 96.421
| 28> H 	 -44.9584 	 -3.45177 	 98.393
| 29> C 	 -43.7682 	 -5.89216 	 97.2851
| 30> H 	 -43.7535 	 -6.5432 	 96.3934
| 31> H 	 -44.8703 	 -5.74984 	 97.4185
| 32> C 	 -43.2934 	 -6.55047 	 98.5793
| 33> H 	 -43.9479 	 -6.23715 	 99.3907
| 34> H 	 -42.2759 	 -6.21476 	 98.8555
| 35> C 	 -43.479 	 -8.1228 	 98.5488
| 36> H 	 -44.4586 	 -8.39602 	 98.2371
| 37> H 	 -43.246 	 -8.50289 	 99.5669
| 38> H 	 -42.8654 	 -8.71626 	 97.8714
| 39> H 	 -39.0188 	 -7.27199 	 94.3714
| 40> H 	 -44.2985 	 -1.18845 	 97.6697
| 41> *
| 42>
| 43>                          ****END OF INPUT****

CARTESIAN COORDINATES (ANGSTROEM)
---------------------------------
  S    -40.726200   -6.273510   96.004900
  C    -39.700600   -6.395910   94.569200
  C    -39.669900   -5.218740   93.900400
  C    -40.549100   -4.286670   94.485200
  C    -41.138100   -4.617920   95.697400
  H    -40.832400   -3.442120   93.941800
  C    -39.011600   -4.994780   92.583200
  H    -38.189300   -5.691680   92.477200
  H    -38.504400   -3.976040   92.666000
  C    -40.015000   -5.146990   91.474200
  H    -39.553600   -5.666240   90.637700
  H    -40.823600   -5.772540   91.722300
  C    -40.553400   -3.809850   90.895700
  H    -39.822100   -3.413610   90.232800
  H    -41.434000   -4.047400   90.314900
  H    -40.802900   -3.063340   91.654500
  S    -42.274700   -2.159950   96.421500
  C    -43.776700   -2.170530   97.278000
  C    -44.129000   -3.410930   97.718700
  C    -43.359500   -4.462920   97.096400
  C    -42.213600   -3.944750   96.421000
  H    -44.958400   -3.451770   98.393000
  C    -43.768200   -5.892160   97.285100
  H    -43.753500   -6.543200   96.393400
  H    -44.870300   -5.749840   97.418500
  C    -43.293400   -6.550470   98.579300
  H    -43.947900   -6.237150   99.390700
  H    -42.275900   -6.214760   98.855500
  C    -43.479000   -8.122800   98.548800
  H    -44.458600   -8.396020   98.237100
  H    -43.246000   -8.502890   99.566900
  H    -42.865400   -8.716260   97.871400
  H    -39.018800   -7.271990   94.371400
  H    -44.298500   -1.188450   97.669700

 Total Charge           Charge          ....    0
 Multiplicity           Mult            ....    1
 Number of Electrons    NEL             ....  134
 Basis Dimension        Dim             ....  322

ORBITAL ENERGIES
----------------

  NO   OCC          E(Eh)            E(eV)
   0   2.0000     -88.966642     -2420.9054
   1   2.0000     -88.962891     -2420.8033
   2   2.0000     -10.335208      -281.2353
   3   2.0000     -10.330838      -281.1164
   4   2.0000     -10.322571      -280.8914
   5   2.0000     -10.313845      -280.6540
   6   2.0000     -10.310405      -280.5604
   7   2.0000     -10.292963      -280.0858
   8   2.0000     -10.292524      -280.0738
   9   2.0000     -10.292147      -280.0636
  10   2.0000     -10.291611      -280.0490
  11   2.0000     -10.289840      -280.0008
  12   2.0000     -10.284655      -279.8597
  13   2.0000     -10.280282      -279.7407
  14   2.0000     -10.277488      -279.6647
  15   2.0000     -10.275119      -279.6002
  16   2.0000      -8.081068      -219.8970
  17   2.0000      -8.077294      -219.7943
  18   2.0000      -6.039643      -164.3470
  19   2.0000      -6.035905      -164.2453
  20   2.0000      -6.035685      -164.2393
  21   2.0000      -6.031722      -164.1315
  22   2.0000      -6.031718      -164.1314
  23   2.0000      -6.028087      -164.0326
  24   2.0000      -1.006550       -27.3896
  25   2.0000      -0.985533       -26.8177
  26   2.0000      -0.918608       -24.9966
  27   2.0000      -0.906033       -24.6544
  28   2.0000      -0.869614       -23.6634
  29   2.0000      -0.848267       -23.0825
  30   2.0000      -0.841071       -22.8867
  31   2.0000      -0.813542       -22.1376
  32   2.0000      -0.786264       -21.3953
  33   2.0000      -0.769475       -20.9385
  34   2.0000      -0.708553       -19.2807
  35   2.0000      -0.703839       -19.1524
  36   2.0000      -0.690411       -18.7870
  37   2.0000      -0.659441       -17.9443
  38   2.0000      -0.633010       -17.2251
  39   2.0000      -0.623688       -16.9714
  40   2.0000      -0.596371       -16.2281
  41   2.0000      -0.572040       -15.5660
  42   2.0000      -0.555390       -15.1129
  43   2.0000      -0.546681       -14.8760
  44   2.0000      -0.534537       -14.5455
  45   2.0000      -0.526321       -14.3219
  46   2.0000      -0.523175       -14.2363
  47   2.0000      -0.515690       -14.0326
  48   2.0000      -0.497441       -13.5361
  49   2.0000      -0.493995       -13.4423
  50   2.0000      -0.488240       -13.2857
  51   2.0000      -0.480154       -13.0657
  52   2.0000      -0.471079       -12.8187
  53   2.0000      -0.468492       -12.7483
  54   2.0000      -0.457004       -12.4357
  55   2.0000      -0.448551       -12.2057
  56   2.0000      -0.445951       -12.1350
  57   2.0000      -0.440427       -11.9846
  58   2.0000      -0.431170       -11.7327
  59   2.0000      -0.422298       -11.4913
  60   2.0000      -0.419539       -11.4162
  61   2.0000      -0.412442       -11.2231
  62   2.0000      -0.403786       -10.9876
  63   2.0000      -0.357867        -9.7381
  64   2.0000      -0.329597        -8.9688
  65   2.0000      -0.327413        -8.9094
  66   2.0000      -0.284252        -7.7349
  67   0.0000       0.021496         0.5849
  68   0.0000       0.084241         2.2923
  69   0.0000       0.110408         3.0044
  70   0.0000       0.121407         3.3037
  71   0.0000       0.127158         3.4601

MULLIKEN ATOMIC CHARGES
-----------------------
   0 S :    0.084059
   1 C :   -0.151220
   2 C :   -0.088568
   3 C :    0.014258
   4 C :   -0.095563
   5 H :   -0.023489
   6 C :    0.062045
   7 H :    0.014560
   8 H :    0.045412
   9 C :   -0.044606
  10 H :    0.021122
  11 H :    0.028409
  12 C :   -0.043610
  13 H :    0.028135
  14 H :    0.031998
  15 H :    0.034101
  16 S :    0.104067
  17 C :   -0.132652
  18 C :   -0.020788
  19 C :   -0.063518
  20 C :   -0.120577
  21 H :    0.016272
  22 C :    0.020238
  23 H :    0.045861
  24 H :    0.023020
  25 C :   -0.055190
  26 H :    0.027772
  27 H :    0.040141
  28 C :   -0.047517
  29 H :    0.018479
  30 H :    0.036985
  31 H :    0.029123
  32 H :    0.067903
  33 H :    0.093339
Sum of atomic charges:   -0.0000000

LOEWDIN ATOMIC CHARGES
----------------------
   0 S :    0.413856
   1 C :   -0.200635
   2 C :   -0.068506
   3 C :   -0.065186
   4 C :   -0.192402
   5 H :    0.013999
   6 C :   -0.032385
   7 H :    0.028286
   8 H :    0.041393
   9 C :   -0.036520
  10 H :    0.026776
  11 H :    0.021052
  12 C :   -0.056652
  13 H :    0.020956
  14 H :    0.027100
  15 H :    0.022130
  16 S :    0.399216
  17 C :   -0.206815
  18 C :   -0.074140
  19 C :   -0.052763
  20 C :   -0.186230
  21 H :    0.030767
  22 C :   -0.055342
  23 H :    0.031812
  24 H :    0.038887
  25 C :   -0.036474
  26 H :    0.025355
  27 H :    0.023074
  28 C :   -0.064941
  29 H :    0.018537
  30 H :    0.030092
  31 H :    0.022346
  32 H :    0.039854
  33 H :    0.053504

  Mayer bond orders larger than 0.100000
B(  0-S ,  1-C ) :   1.1380 B(  0-S ,  4-C ) :   1.1550 B(  1-C ,  2-C ) :   1.6060
B(  1-C , 32-H ) :   0.9572 B(  2-C ,  3-C ) :   1.2703 B(  2-C ,  6-C ) :   1.0389
B(  3-C ,  4-C ) :   1.5395 B(  3-C ,  5-H ) :   0.9961 B(  4-C , 20-C ) :   1.0680
B(  6-C ,  7-H ) :   0.9374 B(  6-C ,  8-H ) :   0.9442 B(  6-C ,  9-C ) :   1.0417
B(  9-C , 10-H ) :   0.9541 B(  9-C , 11-H ) :   0.9628 B(  9-C , 12-C ) :   1.0755
B( 12-C , 13-H ) :   0.9779 B( 12-C , 14-H ) :   0.9737 B( 12-C , 15-H ) :   0.9777
B( 16-S , 17-C ) :   1.1537 B( 16-S , 20-C ) :   1.1335 B( 17-C , 18-C ) :   1.6404
B( 17-C , 33-H ) :   0.9471 B( 18-C , 19-C ) :   1.2264 B( 18-C , 21-H ) :   0.9876
B( 19-C , 20-C ) :   1.5595 B( 19-C , 22-C ) :   1.0495 B( 22-C , 23-H ) :   0.9464
B( 22-C , 24-H ) :   0.9218 B( 22-C , 25-C ) :   1.0444 B( 25-C , 26-H ) :   0.9551
B( 25-C , 27-H ) :   0.9646 B( 25-C , 28-C ) :   1.0699 B( 28-C , 29-H ) :   0.9734
B( 28-C , 30-H ) :   0.9768 B( 28-C , 31-H ) :   0.9792

Dispersion correction           -0.014485647
FINAL SINGLE POINT ENERGY     -1339.868773908742

DIPOLE MOMENT
-------------
                                X             Y             Z
Electronic contribution:      2.62694      10.43304       8.71152
Nuclear contribution   :     -2.83930     -10.60087      -8.99155
                        -----------------------------------------
Total Dipole Moment    :     -0.21236      -0.16783      -0.28003
                        -----------------------------------------
Magnitude (a.u.)       :      0.38946
Magnitude (Debye)      :      0.98994

Rotational constants in cm-1:     0.018962     0.009021     0.006738
Rotational constants in MHz :   568.480809   270.437177   201.990074

                             ****ORCA TERMINATED NORMALLY****
TOTAL RUN TIME: 0 days 0 hours 0 minutes 29 seconds 768 msec
