                         Program Version 4.2.1 -  RELEASE  -
|  1> ! wB97X-D3 SP def2-SVP
|  2> %pal
|  3> nprocs 16
|  4> end
|  5>
|  6> * xyz 0 1
|  7> S 	 -1.13344 	 5.33838 	 82.8264
|  8> C 	 -0.528698 	 5.22755 	 81.167
|  9> C 	 -1.38775 	 5.74748 	 80.2147
| 10> C 	 -2.65183 	 6.14798 	 80.8843
| 11> C 	 -2.59634 	 6.16707 	 82.2715
| 12> H 	 -3.48964 	 6.6104 	 80.3271
| 13> C 	 -1.19896 	 5.77159 	 78.6922
| 14> H 	 -1.23139 	 4.70539 	 78.4224
| 15> H 	 -0.191301 	 6.04006 	 78.4183
| 16> C 	 -2.23393 	 6.59311 	 77.8071
| 17> H 	 -2.23292 	 6.18392 	 76.8037
| 18> H 	 -3.35378 	 6.36475 	 78.0763
| 19> C 	 -2.01114 	 8.10238 	 77.8414
| 20> H 	 -0.943503 	 8.26967 	 77.4605
| 21> H 	 -2.7544 	 8.52943 	 77.1628
| 22> H 	 -2.13307 	 8.57038 	 78.8407
| 23> S 	 -3.2687 	 7.75282 	 84.4129
| 24> C 	 -4.89735 	 7.81253 	 84.998
| 25> C 	 -5.68141 	 6.97654 	 84.2665
| 26> C 	 -4.9909 	 6.28595 	 83.2366
| 27> C 	 -3.65341 	 6.56003 	 83.1848
| 28> H 	 -6.67137 	 6.84544 	 84.4518
| 29> C 	 -5.72776 	 5.44699 	 82.2382
| 30> H 	 -6.42962 	 4.82341 	 82.8478
| 31> H 	 -4.97974 	 4.92921 	 81.591
| 32> C 	 -6.50936 	 6.36197 	 81.2939
| 33> H 	 -5.78777 	 6.92922 	 80.7197
| 34> H 	 -7.17577 	 7.02525 	 81.8808
| 35> C 	 -7.31127 	 5.47818 	 80.2934
| 36> H 	 -6.68358 	 4.92083 	 79.5681
| 37> H 	 -7.96293 	 6.15521 	 79.7652
| 38> H 	 -7.93422 	 4.69805 	 80.8018
| 39> H 	 0.227315 	 4.54171 	 80.862
| 40> H 	 -5.05955 	 8.49294 	 85.8371
| 41> *
| 42>
| 43>                          ****END OF INPUT****

CARTESIAN COORDINATES (ANGSTROEM)
---------------------------------
  S     -1.133440    5.338380   82.826400
  C     -0.528698    5.227550   81.167000
  C     -1.387750    5.747480   80.214700
  C     -2.651830    6.147980   80.884300
  C     -2.596340    6.167070   82.271500
  H     -3.489640    6.610400   80.327100
  C     -1.198960    5.771590   78.692200
  H     -1.231390    4.705390   78.422400
  H     -0.191301    6.040060   78.418300
  C     -2.233930    6.593110   77.807100
  H     -2.232920    6.183920   76.803700
  H     -3.353780    6.364750   78.076300
  C     -2.011140    8.102380   77.841400
  H     -0.943503    8.269670   77.460500
  H     -2.754400    8.529430   77.162800
  H     -2.133070    8.570380   78.840700
  S     -3.268700    7.752820   84.412900
  C     -4.897350    7.812530   84.998000
  C     -5.681410    6.976540   84.266500
  C     -4.990900    6.285950   83.236600
  C     -3.653410    6.560030   83.184800
  H     -6.671370    6.845440   84.451800
  C     -5.727760    5.446990   82.238200
  H     -6.429620    4.823410   82.847800
  H     -4.979740    4.929210   81.591000
  C     -6.509360    6.361970   81.293900
  H     -5.787770    6.929220   80.719700
  H     -7.175770    7.025250   81.880800
  C     -7.311270    5.478180   80.293400
  H     -6.683580    4.920830   79.568100
  H     -7.962930    6.155210   79.765200
  H     -7.934220    4.698050   80.801800
  H      0.227315    4.541710   80.862000
  H     -5.059550    8.492940   85.837100

 Total Charge           Charge          ....    0
 Multiplicity           Mult            ....    1
 Number of Electrons    NEL             ....  134
 Basis Dimension        Dim             ....  322

ORBITAL ENERGIES
----------------

  NO   OCC          E(Eh)            E(eV)
   0   2.0000     -88.966168     -2420.8925
   1   2.0000     -88.956612     -2420.6325
   2   2.0000     -10.332849      -281.1711
   3   2.0000     -10.320509      -280.8353
   4   2.0000     -10.317351      -280.7494
   5   2.0000     -10.312201      -280.6093
   6   2.0000     -10.310519      -280.5635
   7   2.0000     -10.303958      -280.3850
   8   2.0000     -10.302850      -280.3548
   9   2.0000     -10.302051      -280.3331
  10   2.0000     -10.295083      -280.1434
  11   2.0000     -10.291527      -280.0467
  12   2.0000     -10.289928      -280.0032
  13   2.0000     -10.288889      -279.9749
  14   2.0000     -10.285103      -279.8719
  15   2.0000     -10.282659      -279.8054
  16   2.0000      -8.080205      -219.8736
  17   2.0000      -8.072439      -219.6622
  18   2.0000      -6.038856      -164.3256
  19   2.0000      -6.034878      -164.2174
  20   2.0000      -6.030834      -164.1073
  21   2.0000      -6.030774      -164.1057
  22   2.0000      -6.026752      -163.9963
  23   2.0000      -6.023287      -163.9020
  24   2.0000      -1.007108       -27.4048
  25   2.0000      -0.980288       -26.6750
  26   2.0000      -0.912874       -24.8406
  27   2.0000      -0.905526       -24.6406
  28   2.0000      -0.871715       -23.7206
  29   2.0000      -0.848811       -23.0973
  30   2.0000      -0.841182       -22.8897
  31   2.0000      -0.814782       -22.1713
  32   2.0000      -0.781924       -21.2772
  33   2.0000      -0.770399       -20.9636
  34   2.0000      -0.706123       -19.2146
  35   2.0000      -0.695222       -18.9179
  36   2.0000      -0.691402       -18.8140
  37   2.0000      -0.669399       -18.2153
  38   2.0000      -0.635823       -17.3016
  39   2.0000      -0.620479       -16.8841
  40   2.0000      -0.601550       -16.3690
  41   2.0000      -0.572944       -15.5906
  42   2.0000      -0.563917       -15.3450
  43   2.0000      -0.549067       -14.9409
  44   2.0000      -0.530934       -14.4475
  45   2.0000      -0.525384       -14.2964
  46   2.0000      -0.519914       -14.1476
  47   2.0000      -0.514173       -13.9914
  48   2.0000      -0.510632       -13.8950
  49   2.0000      -0.492928       -13.4132
  50   2.0000      -0.489591       -13.3224
  51   2.0000      -0.480049       -13.0628
  52   2.0000      -0.469955       -12.7881
  53   2.0000      -0.466254       -12.6874
  54   2.0000      -0.459973       -12.5165
  55   2.0000      -0.445073       -12.1111
  56   2.0000      -0.443120       -12.0579
  57   2.0000      -0.436149       -11.8682
  58   2.0000      -0.432434       -11.7671
  59   2.0000      -0.430748       -11.7213
  60   2.0000      -0.427730       -11.6391
  61   2.0000      -0.412880       -11.2350
  62   2.0000      -0.407679       -11.0935
  63   2.0000      -0.347293        -9.4503
  64   2.0000      -0.328396        -8.9361
  65   2.0000      -0.325251        -8.8505
  66   2.0000      -0.293924        -7.9981
  67   0.0000       0.034791         0.9467
  68   0.0000       0.066900         1.8204
  69   0.0000       0.110763         3.0140
  70   0.0000       0.121093         3.2951
  71   0.0000       0.124793         3.3958

MULLIKEN ATOMIC CHARGES
-----------------------
   0 S :    0.110462
   1 C :   -0.110885
   2 C :   -0.098083
   3 C :   -0.007212
   4 C :   -0.124401
   5 H :    0.020821
   6 C :    0.060970
   7 H :    0.041871
   8 H :    0.027287
   9 C :   -0.111839
  10 H :    0.030298
  11 H :    0.032131
  12 C :   -0.060033
  13 H :    0.042649
  14 H :    0.042391
  15 H :    0.056507
  16 S :    0.083613
  17 C :   -0.090178
  18 C :    0.014919
  19 C :   -0.035101
  20 C :   -0.164449
  21 H :   -0.023862
  22 C :    0.048493
  23 H :    0.033498
  24 H :    0.037341
  25 C :   -0.091948
  26 H :    0.027182
  27 H :    0.034465
  28 C :   -0.037638
  29 H :    0.034683
  30 H :    0.031676
  31 H :    0.031900
  32 H :    0.042671
  33 H :    0.069802
Sum of atomic charges:   -0.0000000

LOEWDIN ATOMIC CHARGES
----------------------
   0 S :    0.391430
   1 C :   -0.196167
   2 C :   -0.054820
   3 C :   -0.068598
   4 C :   -0.186580
   5 H :    0.029260
   6 C :   -0.035669
   7 H :    0.039728
   8 H :    0.030384
   9 C :   -0.050262
  10 H :    0.025255
  11 H :    0.028663
  12 C :   -0.071895
  13 H :    0.033843
  14 H :    0.028775
  15 H :    0.031909
  16 S :    0.401936
  17 C :   -0.175792
  18 C :   -0.065820
  19 C :   -0.056438
  20 C :   -0.204800
  21 H :    0.013976
  22 C :   -0.033371
  23 H :    0.034398
  24 H :    0.036031
  25 C :   -0.034748
  26 H :    0.020632
  27 H :    0.024898
  28 C :   -0.068252
  29 H :    0.026770
  30 H :    0.022316
  31 H :    0.027182
  32 H :    0.023737
  33 H :    0.032087

  Mayer bond orders larger than 0.100000
B(  0-S ,  1-C ) :   1.1262 B(  0-S ,  4-C ) :   1.1391 B(  1-C ,  2-C ) :   1.6502
B(  1-C , 32-H ) :   0.9663 B(  2-C ,  3-C ) :   1.2243 B(  2-C ,  6-C ) :   1.0007
B(  3-C ,  4-C ) :   1.5968 B(  3-C ,  5-H ) :   0.9768 B(  4-C , 20-C ) :   1.0274
B(  6-C ,  7-H ) :   0.9355 B(  6-C ,  8-H ) :   0.9453 B(  6-C ,  9-C ) :   1.0708
B(  9-C , 10-H ) :   0.9543 B(  9-C , 11-H ) :   0.9498 B(  9-C , 12-C ) :   1.0699
B( 12-C , 13-H ) :   0.9724 B( 12-C , 14-H ) :   0.9729 B( 12-C , 15-H ) :   0.9754
B( 16-S , 17-C ) :   1.1727 B( 16-S , 20-C ) :   1.1338 B( 17-C , 18-C ) :   1.5607
B( 17-C , 33-H ) :   0.9732 B( 18-C , 19-C ) :   1.2382 B( 18-C , 21-H ) :   1.0139
B( 19-C , 20-C ) :   1.6125 B( 19-C , 22-C ) :   1.0557 B( 22-C , 23-H ) :   0.9272
B( 22-C , 24-H ) :   0.9301 B( 22-C , 25-C ) :   1.0742 B( 25-C , 26-H ) :   0.9492
B( 25-C , 27-H ) :   0.9558 B( 25-C , 28-C ) :   1.0792 B( 28-C , 29-H ) :   0.9738
B( 28-C , 30-H ) :   0.9751 B( 28-C , 31-H ) :   0.9751

Dispersion correction           -0.014659672
FINAL SINGLE POINT ENERGY     -1339.878677730089

DIPOLE MOMENT
-------------
                                X             Y             Z
Electronic contribution:     13.55102       0.29019      26.60523
Nuclear contribution   :    -14.01131      -0.38426     -27.31132
                        -----------------------------------------
Total Dipole Moment    :     -0.46030      -0.09407      -0.70609
                        -----------------------------------------
Magnitude (a.u.)       :      0.84811
Magnitude (Debye)      :      2.15572

Rotational constants in cm-1:     0.016126     0.009969     0.007379
Rotational constants in MHz :   483.435885   298.866954   221.228171

                             ****ORCA TERMINATED NORMALLY****
TOTAL RUN TIME: 0 days 0 hours 0 minutes 36 seconds 299 msec
