                         Program Version 4.2.1 -  RELEASE  -
|  1> ! wB97X-D3 SP def2-SVP
|  2> %pal
|  3> nprocs 16
|  4> end
|  5>
|  6> * xyz 0 1
|  7> S 	 34.3403 	 27.7594 	 55.4014
|  8> C 	 35.0853 	 29.0706 	 54.5677
|  9> C 	 36.2508 	 28.7429 	 53.906
| 10> C 	 36.5843 	 27.3995 	 54.1537
| 11> C 	 35.6873 	 26.6986 	 54.9587
| 12> H 	 37.4673 	 26.7939 	 53.8513
| 13> C 	 37.0932 	 29.6049 	 52.9637
| 14> H 	 36.6067 	 30.528 	 52.7199
| 15> H 	 37.1726 	 29.1062 	 52.062
| 16> C 	 38.4893 	 30.0388 	 53.5316
| 17> H 	 39.132 	 29.18 	 53.7258
| 18> H 	 39.0022 	 30.4045 	 52.6339
| 19> C 	 38.4082 	 30.9282 	 54.7875
| 20> H 	 37.8969 	 31.9261 	 54.7111
| 21> H 	 37.9767 	 30.4235 	 55.6464
| 22> H 	 39.4252 	 31.1064 	 55.0595
| 23> S 	 35.4388 	 25.3021 	 57.3046
| 24> C 	 35.3722 	 23.493 	 57.2582
| 25> C 	 35.6532 	 23.0016 	 55.9377
| 26> C 	 35.9049 	 24.0821 	 55.0137
| 27> C 	 35.6992 	 25.3509 	 55.5546
| 28> H 	 35.6787 	 21.9385 	 55.8119
| 29> C 	 36.3692 	 23.8157 	 53.5738
| 30> H 	 37.4386 	 23.51 	 53.6134
| 31> H 	 36.3078 	 24.707 	 52.9317
| 32> C 	 35.5393 	 22.7528 	 52.8705
| 33> H 	 34.4734 	 23.0537 	 52.8424
| 34> H 	 35.5876 	 21.8712 	 53.447
| 35> C 	 35.8639 	 22.4479 	 51.3841
| 36> H 	 36.7783 	 21.8638 	 51.2428
| 37> H 	 35.9356 	 23.3074 	 50.7371
| 38> H 	 34.9675 	 21.9455 	 51.1453
| 39> H 	 34.6067 	 30.055 	 54.4625
| 40> H 	 35.228 	 22.8526 	 58.1752
| 41> *
| 42>
| 43>                          ****END OF INPUT****

CARTESIAN COORDINATES (ANGSTROEM)
---------------------------------
  S     34.340300   27.759400   55.401400
  C     35.085300   29.070600   54.567700
  C     36.250800   28.742900   53.906000
  C     36.584300   27.399500   54.153700
  C     35.687300   26.698600   54.958700
  H     37.467300   26.793900   53.851300
  C     37.093200   29.604900   52.963700
  H     36.606700   30.528000   52.719900
  H     37.172600   29.106200   52.062000
  C     38.489300   30.038800   53.531600
  H     39.132000   29.180000   53.725800
  H     39.002200   30.404500   52.633900
  C     38.408200   30.928200   54.787500
  H     37.896900   31.926100   54.711100
  H     37.976700   30.423500   55.646400
  H     39.425200   31.106400   55.059500
  S     35.438800   25.302100   57.304600
  C     35.372200   23.493000   57.258200
  C     35.653200   23.001600   55.937700
  C     35.904900   24.082100   55.013700
  C     35.699200   25.350900   55.554600
  H     35.678700   21.938500   55.811900
  C     36.369200   23.815700   53.573800
  H     37.438600   23.510000   53.613400
  H     36.307800   24.707000   52.931700
  C     35.539300   22.752800   52.870500
  H     34.473400   23.053700   52.842400
  H     35.587600   21.871200   53.447000
  C     35.863900   22.447900   51.384100
  H     36.778300   21.863800   51.242800
  H     35.935600   23.307400   50.737100
  H     34.967500   21.945500   51.145300
  H     34.606700   30.055000   54.462500
  H     35.228000   22.852600   58.175200

 Total Charge           Charge          ....    0
 Multiplicity           Mult            ....    1
 Number of Electrons    NEL             ....  134
 Basis Dimension        Dim             ....  322

ORBITAL ENERGIES
----------------

  NO   OCC          E(Eh)            E(eV)
   0   2.0000     -88.967093     -2420.9177
   1   2.0000     -88.964910     -2420.8583
   2   2.0000     -10.331546      -281.1357
   3   2.0000     -10.330332      -281.1026
   4   2.0000     -10.329960      -281.0925
   5   2.0000     -10.312127      -280.6072
   6   2.0000     -10.309478      -280.5352
   7   2.0000     -10.304237      -280.3926
   8   2.0000     -10.299550      -280.2650
   9   2.0000     -10.295310      -280.1496
  10   2.0000     -10.293175      -280.0915
  11   2.0000     -10.291014      -280.0327
  12   2.0000     -10.286804      -279.9182
  13   2.0000     -10.282254      -279.7944
  14   2.0000     -10.278376      -279.6888
  15   2.0000     -10.274284      -279.5775
  16   2.0000      -8.080396      -219.8788
  17   2.0000      -8.079837      -219.8635
  18   2.0000      -6.038993      -164.3294
  19   2.0000      -6.038191      -164.3075
  20   2.0000      -6.035157      -164.2250
  21   2.0000      -6.034346      -164.2029
  22   2.0000      -6.031081      -164.1141
  23   2.0000      -6.030709      -164.1039
  24   2.0000      -1.001787       -27.2600
  25   2.0000      -0.975184       -26.5361
  26   2.0000      -0.908259       -24.7150
  27   2.0000      -0.904488       -24.6124
  28   2.0000      -0.861858       -23.4524
  29   2.0000      -0.849347       -23.1119
  30   2.0000      -0.843474       -22.9521
  31   2.0000      -0.810349       -22.0507
  32   2.0000      -0.785774       -21.3820
  33   2.0000      -0.772502       -21.0209
  34   2.0000      -0.707103       -19.2412
  35   2.0000      -0.696359       -18.9489
  36   2.0000      -0.690208       -18.7815
  37   2.0000      -0.656973       -17.8771
  38   2.0000      -0.642046       -17.4710
  39   2.0000      -0.617319       -16.7981
  40   2.0000      -0.590909       -16.0795
  41   2.0000      -0.567940       -15.4544
  42   2.0000      -0.564344       -15.3566
  43   2.0000      -0.552897       -15.0451
  44   2.0000      -0.531638       -14.4666
  45   2.0000      -0.528293       -14.3756
  46   2.0000      -0.520985       -14.1767
  47   2.0000      -0.506887       -13.7931
  48   2.0000      -0.492909       -13.4127
  49   2.0000      -0.488356       -13.2888
  50   2.0000      -0.487532       -13.2664
  51   2.0000      -0.480922       -13.0866
  52   2.0000      -0.475225       -12.9315
  53   2.0000      -0.463482       -12.6120
  54   2.0000      -0.459047       -12.4913
  55   2.0000      -0.446376       -12.1465
  56   2.0000      -0.442844       -12.0504
  57   2.0000      -0.434437       -11.8216
  58   2.0000      -0.429868       -11.6973
  59   2.0000      -0.428185       -11.6515
  60   2.0000      -0.425366       -11.5748
  61   2.0000      -0.414305       -11.2738
  62   2.0000      -0.411270       -11.1912
  63   2.0000      -0.345065        -9.3897
  64   2.0000      -0.332428        -9.0458
  65   2.0000      -0.327903        -8.9227
  66   2.0000      -0.287937        -7.8352
  67   0.0000       0.028658         0.7798
  68   0.0000       0.066602         1.8123
  69   0.0000       0.104843         2.8529
  70   0.0000       0.117516         3.1978
  71   0.0000       0.135444         3.6856

MULLIKEN ATOMIC CHARGES
-----------------------
   0 S :    0.114402
   1 C :   -0.131482
   2 C :   -0.081758
   3 C :    0.021747
   4 C :   -0.183639
   5 H :    0.025147
   6 C :    0.116369
   7 H :    0.005770
   8 H :    0.012977
   9 C :   -0.086490
  10 H :    0.023196
  11 H :    0.025185
  12 C :   -0.039207
  13 H :    0.039282
  14 H :    0.044858
  15 H :    0.025188
  16 S :    0.101258
  17 C :   -0.132688
  18 C :   -0.039470
  19 C :   -0.015357
  20 C :   -0.153922
  21 H :    0.026098
  22 C :    0.083627
  23 H :    0.042003
  24 H :    0.021656
  25 C :   -0.129893
  26 H :    0.035188
  27 H :    0.019175
  28 C :   -0.014181
  29 H :    0.036360
  30 H :    0.024963
  31 H :    0.028026
  32 H :    0.052186
  33 H :    0.083427
Sum of atomic charges:    0.0000000

LOEWDIN ATOMIC CHARGES
----------------------
   0 S :    0.410904
   1 C :   -0.206404
   2 C :   -0.068663
   3 C :   -0.066822
   4 C :   -0.189955
   5 H :    0.038062
   6 C :   -0.021334
   7 H :    0.025897
   8 H :    0.022151
   9 C :   -0.040421
  10 H :    0.022666
  11 H :    0.026192
  12 C :   -0.067202
  13 H :    0.030486
  14 H :    0.030714
  15 H :    0.024969
  16 S :    0.378589
  17 C :   -0.179526
  18 C :   -0.066946
  19 C :   -0.053912
  20 C :   -0.198016
  21 H :    0.030438
  22 C :   -0.035517
  23 H :    0.035679
  24 H :    0.028851
  25 C :   -0.040193
  26 H :    0.030232
  27 H :    0.013712
  28 C :   -0.059532
  29 H :    0.024824
  30 H :    0.022325
  31 H :    0.026544
  32 H :    0.030718
  33 H :    0.040492

  Mayer bond orders larger than 0.100000
B(  0-S ,  1-C ) :   1.1541 B(  0-S ,  4-C ) :   1.1530 B(  1-C ,  2-C ) :   1.6035
B(  1-C ,  4-C ) :   0.1011 B(  1-C , 32-H ) :   0.9608 B(  2-C ,  3-C ) :   1.2368
B(  2-C ,  6-C ) :   1.0202 B(  3-C ,  4-C ) :   1.5846 B(  3-C ,  5-H ) :   0.9867
B(  4-C , 20-C ) :   1.0283 B(  6-C ,  7-H ) :   0.9394 B(  6-C ,  8-H ) :   0.9376
B(  6-C ,  9-C ) :   1.0731 B(  9-C , 10-H ) :   0.9571 B(  9-C , 11-H ) :   0.9567
B(  9-C , 12-C ) :   1.0634 B( 12-C , 13-H ) :   0.9768 B( 12-C , 14-H ) :   0.9728
B( 12-C , 15-H ) :   0.9724 B( 16-S , 17-C ) :   1.1444 B( 16-S , 20-C ) :   1.1366
B( 17-C , 18-C ) :   1.6074 B( 17-C , 20-C ) :   0.1048 B( 17-C , 33-H ) :   0.9604
B( 18-C , 19-C ) :   1.2170 B( 18-C , 21-H ) :   0.9923 B( 19-C , 20-C ) :   1.6053
B( 19-C , 22-C ) :   1.0398 B( 22-C , 23-H ) :   0.9334 B( 22-C , 24-H ) :   0.9344
B( 22-C , 25-C ) :   1.0619 B( 25-C , 26-H ) :   0.9635 B( 25-C , 27-H ) :   0.9530
B( 25-C , 28-C ) :   1.0785 B( 28-C , 29-H ) :   0.9752 B( 28-C , 30-H ) :   0.9741
B( 28-C , 31-H ) :   0.9778

Dispersion correction           -0.013761280
FINAL SINGLE POINT ENERGY     -1339.875208305368

DIPOLE MOMENT
-------------
                                X             Y             Z
Electronic contribution:    -13.13965      -0.78679      19.64159
Nuclear contribution   :     13.52949       0.63714     -20.12743
                        -----------------------------------------
Total Dipole Moment    :      0.38984      -0.14965      -0.48584
                        -----------------------------------------
Magnitude (a.u.)       :      0.64063
Magnitude (Debye)      :      1.62836

Rotational constants in cm-1:     0.018214     0.008083     0.006505
Rotational constants in MHz :   546.031848   242.314691   195.023812

                             ****ORCA TERMINATED NORMALLY****
TOTAL RUN TIME: 0 days 0 hours 0 minutes 34 seconds 337 msec
