                         Program Version 4.2.1 -  RELEASE  -
|  1> ! wB97X-D3 SP def2-SVP
|  2> %pal
|  3> nprocs 16
|  4> end
|  5>
|  6> * xyz 0 1
|  7> S 	 -91.1921 	 52.5187 	 122.105
|  8> C 	 -90.0628 	 51.2498 	 122.209
|  9> C 	 -90.582 	 50.1868 	 122.882
| 10> C 	 -91.8745 	 50.4465 	 123.334
| 11> C 	 -92.2838 	 51.68 	 123.094
| 12> H 	 -92.4449 	 49.8191 	 124.01
| 13> C 	 -89.8629 	 48.9031 	 123.255
| 14> H 	 -90.0558 	 48.9079 	 124.306
| 15> H 	 -88.8025 	 48.9228 	 123.023
| 16> C 	 -90.2925 	 47.6404 	 122.495
| 17> H 	 -91.3858 	 47.6138 	 122.638
| 18> H 	 -90.2668 	 47.7967 	 121.366
| 19> C 	 -89.6372 	 46.3898 	 122.977
| 20> H 	 -88.5925 	 46.544 	 122.984
| 21> H 	 -89.8257 	 46.2842 	 124.042
| 22> H 	 -89.8384 	 45.4643 	 122.538
| 23> S 	 -94.5714 	 53.1086 	 122.508
| 24> C 	 -95.6761 	 53.4638 	 123.777
| 25> C 	 -95.1983 	 53.0849 	 124.977
| 26> C 	 -93.9481 	 52.3959 	 124.867
| 27> C 	 -93.4965 	 52.2992 	 123.581
| 28> H 	 -95.8229 	 53.241 	 125.832
| 29> C 	 -93.2062 	 51.9259 	 126.121
| 30> H 	 -92.4459 	 51.1575 	 125.895
| 31> H 	 -93.8649 	 51.3608 	 126.793
| 32> C 	 -92.4532 	 53.0372 	 126.932
| 33> H 	 -92.2009 	 52.5913 	 127.923
| 34> H 	 -93.0954 	 53.9035 	 127.084
| 35> C 	 -91.1482 	 53.4501 	 126.257
| 36> H 	 -91.3743 	 54.0559 	 125.331
| 37> H 	 -90.4961 	 52.6222 	 125.941
| 38> H 	 -90.4971 	 54.0095 	 126.929
| 39> H 	 -89.1487 	 51.3244 	 121.657
| 40> H 	 -96.6178 	 54.0046 	 123.652
| 41> *
| 42>
| 43>                          ****END OF INPUT****

CARTESIAN COORDINATES (ANGSTROEM)
---------------------------------
  S    -91.192100   52.518700  122.105000
  C    -90.062800   51.249800  122.209000
  C    -90.582000   50.186800  122.882000
  C    -91.874500   50.446500  123.334000
  C    -92.283800   51.680000  123.094000
  H    -92.444900   49.819100  124.010000
  C    -89.862900   48.903100  123.255000
  H    -90.055800   48.907900  124.306000
  H    -88.802500   48.922800  123.023000
  C    -90.292500   47.640400  122.495000
  H    -91.385800   47.613800  122.638000
  H    -90.266800   47.796700  121.366000
  C    -89.637200   46.389800  122.977000
  H    -88.592500   46.544000  122.984000
  H    -89.825700   46.284200  124.042000
  H    -89.838400   45.464300  122.538000
  S    -94.571400   53.108600  122.508000
  C    -95.676100   53.463800  123.777000
  C    -95.198300   53.084900  124.977000
  C    -93.948100   52.395900  124.867000
  C    -93.496500   52.299200  123.581000
  H    -95.822900   53.241000  125.832000
  C    -93.206200   51.925900  126.121000
  H    -92.445900   51.157500  125.895000
  H    -93.864900   51.360800  126.793000
  C    -92.453200   53.037200  126.932000
  H    -92.200900   52.591300  127.923000
  H    -93.095400   53.903500  127.084000
  C    -91.148200   53.450100  126.257000
  H    -91.374300   54.055900  125.331000
  H    -90.496100   52.622200  125.941000
  H    -90.497100   54.009500  126.929000
  H    -89.148700   51.324400  121.657000
  H    -96.617800   54.004600  123.652000

 Total Charge           Charge          ....    0
 Multiplicity           Mult            ....    1
 Number of Electrons    NEL             ....  134
 Basis Dimension        Dim             ....  322

ORBITAL ENERGIES
----------------

  NO   OCC          E(Eh)            E(eV)
   0   2.0000     -88.962703     -2420.7982
   1   2.0000     -88.961135     -2420.7555
   2   2.0000     -10.320150      -280.8256
   3   2.0000     -10.316148      -280.7167
   4   2.0000     -10.311747      -280.5969
   5   2.0000     -10.305569      -280.4288
   6   2.0000     -10.300815      -280.2994
   7   2.0000     -10.294481      -280.1271
   8   2.0000     -10.292125      -280.0629
   9   2.0000     -10.289515      -279.9919
  10   2.0000     -10.288856      -279.9740
  11   2.0000     -10.288318      -279.9594
  12   2.0000     -10.287694      -279.9424
  13   2.0000     -10.281829      -279.7828
  14   2.0000     -10.274270      -279.5771
  15   2.0000     -10.269239      -279.4402
  16   2.0000      -8.078844      -219.8365
  17   2.0000      -8.078328      -219.8225
  18   2.0000      -6.037266      -164.2824
  19   2.0000      -6.036579      -164.2637
  20   2.0000      -6.033149      -164.1703
  21   2.0000      -6.032457      -164.1515
  22   2.0000      -6.029623      -164.0744
  23   2.0000      -6.029254      -164.0644
  24   2.0000      -1.025847       -27.9147
  25   2.0000      -0.999975       -27.2107
  26   2.0000      -0.917703       -24.9720
  27   2.0000      -0.901906       -24.5421
  28   2.0000      -0.878490       -23.9049
  29   2.0000      -0.860137       -23.4055
  30   2.0000      -0.845676       -23.0120
  31   2.0000      -0.822107       -22.3707
  32   2.0000      -0.785869       -21.3846
  33   2.0000      -0.771879       -21.0039
  34   2.0000      -0.706841       -19.2341
  35   2.0000      -0.699867       -19.0444
  36   2.0000      -0.691346       -18.8125
  37   2.0000      -0.661668       -18.0049
  38   2.0000      -0.648648       -17.6506
  39   2.0000      -0.631764       -17.1912
  40   2.0000      -0.601071       -16.3560
  41   2.0000      -0.571766       -15.5586
  42   2.0000      -0.562009       -15.2930
  43   2.0000      -0.547658       -14.9025
  44   2.0000      -0.538952       -14.6656
  45   2.0000      -0.528639       -14.3850
  46   2.0000      -0.521714       -14.1966
  47   2.0000      -0.514521       -14.0008
  48   2.0000      -0.503264       -13.6945
  49   2.0000      -0.498848       -13.5743
  50   2.0000      -0.494373       -13.4526
  51   2.0000      -0.485543       -13.2123
  52   2.0000      -0.472287       -12.8516
  53   2.0000      -0.469512       -12.7761
  54   2.0000      -0.464963       -12.6523
  55   2.0000      -0.456296       -12.4164
  56   2.0000      -0.441624       -12.0172
  57   2.0000      -0.434114       -11.8129
  58   2.0000      -0.427198       -11.6246
  59   2.0000      -0.425121       -11.5681
  60   2.0000      -0.423816       -11.5326
  61   2.0000      -0.411917       -11.2088
  62   2.0000      -0.403553       -10.9812
  63   2.0000      -0.352257        -9.5854
  64   2.0000      -0.334292        -9.0966
  65   2.0000      -0.330822        -9.0021
  66   2.0000      -0.298252        -8.1158
  67   0.0000       0.042587         1.1589
  68   0.0000       0.078410         2.1336
  69   0.0000       0.118492         3.2243
  70   0.0000       0.125195         3.4067
  71   0.0000       0.137587         3.7439

MULLIKEN ATOMIC CHARGES
-----------------------
   0 S :    0.116651
   1 C :   -0.130085
   2 C :   -0.069686
   3 C :    0.021637
   4 C :   -0.147229
   5 H :    0.012053
   6 C :    0.071536
   7 H :    0.029695
   8 H :    0.014290
   9 C :   -0.106225
  10 H :    0.015692
  11 H :    0.038170
  12 C :    0.036462
  13 H :    0.005803
  14 H :    0.011734
  15 H :    0.029650
  16 S :    0.111017
  17 C :   -0.094903
  18 C :   -0.026934
  19 C :   -0.025457
  20 C :   -0.148893
  21 H :    0.012283
  22 C :    0.054720
  23 H :    0.007496
  24 H :    0.023093
  25 C :   -0.061898
  26 H :    0.030621
  27 H :    0.032967
  28 C :   -0.070565
  29 H :    0.046847
  30 H :    0.029583
  31 H :    0.030776
  32 H :    0.039331
  33 H :    0.059771
Sum of atomic charges:   -0.0000000

LOEWDIN ATOMIC CHARGES
----------------------
   0 S :    0.441541
   1 C :   -0.204004
   2 C :   -0.064859
   3 C :   -0.066901
   4 C :   -0.203559
   5 H :    0.032393
   6 C :   -0.024894
   7 H :    0.030375
   8 H :    0.027288
   9 C :   -0.049052
  10 H :    0.019185
  11 H :    0.031976
  12 C :   -0.060339
  13 H :    0.020309
  14 H :    0.029103
  15 H :    0.021741
  16 S :    0.420697
  17 C :   -0.190876
  18 C :   -0.071207
  19 C :   -0.058728
  20 C :   -0.207282
  21 H :    0.031299
  22 C :   -0.035973
  23 H :    0.026689
  24 H :    0.028830
  25 C :   -0.037731
  26 H :    0.026728
  27 H :    0.022892
  28 C :   -0.074587
  29 H :    0.032071
  30 H :    0.025398
  31 H :    0.023832
  32 H :    0.023337
  33 H :    0.034307

  Mayer bond orders larger than 0.100000
B(  0-S ,  1-C ) :   1.1505 B(  0-S ,  4-C ) :   1.1710 B(  1-C ,  2-C ) :   1.5988
B(  1-C , 32-H ) :   0.9783 B(  2-C ,  3-C ) :   1.2436 B(  2-C ,  6-C ) :   1.0089
B(  3-C ,  4-C ) :   1.5982 B(  3-C ,  5-H ) :   0.9969 B(  4-C , 20-C ) :   1.0047
B(  6-C ,  7-H ) :   0.9405 B(  6-C ,  8-H ) :   0.9434 B(  6-C ,  9-C ) :   1.0568
B(  9-C , 10-H ) :   0.9548 B(  9-C , 11-H ) :   0.9534 B(  9-C , 12-C ) :   1.0815
B( 12-C , 13-H ) :   0.9677 B( 12-C , 14-H ) :   0.9654 B( 12-C , 15-H ) :   0.9733
B( 16-S , 17-C ) :   1.1534 B( 16-S , 20-C ) :   1.1443 B( 17-C , 18-C ) :   1.6302
B( 17-C , 33-H ) :   0.9638 B( 18-C , 19-C ) :   1.2191 B( 18-C , 21-H ) :   0.9980
B( 19-C , 20-C ) :   1.6174 B( 19-C , 22-C ) :   1.0461 B( 22-C , 23-H ) :   0.9324
B( 22-C , 24-H ) :   0.9354 B( 22-C , 25-C ) :   1.0704 B( 25-C , 26-H ) :   0.9534
B( 25-C , 27-H ) :   0.9585 B( 25-C , 28-C ) :   1.0784 B( 28-C , 29-H ) :   0.9745
B( 28-C , 30-H ) :   0.9730 B( 28-C , 31-H ) :   0.9743

Dispersion correction           -0.015191209
FINAL SINGLE POINT ENERGY     -1339.888769568489

DIPOLE MOMENT
-------------
                                X             Y             Z
Electronic contribution:    -13.16015      16.60380     -14.94732
Nuclear contribution   :     13.26943     -16.94974      15.43937
                        -----------------------------------------
Total Dipole Moment    :      0.10928      -0.34594       0.49205
                        -----------------------------------------
Magnitude (a.u.)       :      0.61133
Magnitude (Debye)      :      1.55389

Rotational constants in cm-1:     0.020724     0.008202     0.007452
Rotational constants in MHz :   621.292199   245.897367   223.395540

                             ****ORCA TERMINATED NORMALLY****
TOTAL RUN TIME: 0 days 0 hours 0 minutes 32 seconds 823 msec
