                         Program Version 4.2.1 -  RELEASE  -
|  1> ! wB97X-D3 SP def2-SVP
|  2> %pal
|  3> nprocs 16
|  4> end
|  5>
|  6> * xyz 0 1
|  7> S 	 6.55279 	 -8.7633 	 71.6024
|  8> C 	 6.04011 	 -8.73658 	 69.9317
|  9> C 	 6.73606 	 -7.78115 	 69.1731
| 10> C 	 7.58261 	 -6.9702 	 70.0403
| 11> C 	 7.67901 	 -7.40118 	 71.3588
| 12> H 	 8.23373 	 -6.21507 	 69.7166
| 13> C 	 6.54933 	 -7.42072 	 67.6882
| 14> H 	 5.55386 	 -7.76696 	 67.3099
| 15> H 	 7.32902 	 -8.06546 	 67.2393
| 16> C 	 6.65158 	 -5.9389 	 67.2339
| 17> H 	 7.44799 	 -5.45354 	 67.791
| 18> H 	 6.61665 	 -5.82805 	 66.1064
| 19> C 	 5.37085 	 -5.18213 	 67.6639
| 20> H 	 4.96381 	 -5.50444 	 68.5882
| 21> H 	 5.50546 	 -4.11716 	 67.8293
| 22> H 	 4.65627 	 -5.30984 	 66.8129
| 23> S 	 9.61242 	 -8.36584 	 72.9439
| 24> C 	 10.5694 	 -7.23033 	 73.868
| 25> C 	 10.0618 	 -5.9492 	 73.847
| 26> C 	 8.99399 	 -5.84874 	 72.8866
| 27> C 	 8.6536 	 -7.05482 	 72.3502
| 28> H 	 10.5259 	 -5.10463 	 74.4357
| 29> C 	 8.29593 	 -4.48649 	 72.679
| 30> H 	 7.93817 	 -4.42155 	 71.6835
| 31> H 	 9.09965 	 -3.81314 	 72.6197
| 32> C 	 7.3104 	 -4.0185 	 73.8021
| 33> H 	 6.96648 	 -3.04435 	 73.4339
| 34> H 	 7.81985 	 -3.97095 	 74.7243
| 35> C 	 6.12523 	 -4.88373 	 73.9607
| 36> H 	 5.36928 	 -4.53464 	 74.7102
| 37> H 	 6.34277 	 -5.93421 	 74.3711
| 38> H 	 5.55233 	 -5.06623 	 73.0465
| 39> H 	 5.48945 	 -9.52477 	 69.4284
| 40> H 	 11.3708 	 -7.46931 	 74.6051
| 41> *
| 42>
| 43>                          ****END OF INPUT****

CARTESIAN COORDINATES (ANGSTROEM)
---------------------------------
  S      6.552790   -8.763300   71.602400
  C      6.040110   -8.736580   69.931700
  C      6.736060   -7.781150   69.173100
  C      7.582610   -6.970200   70.040300
  C      7.679010   -7.401180   71.358800
  H      8.233730   -6.215070   69.716600
  C      6.549330   -7.420720   67.688200
  H      5.553860   -7.766960   67.309900
  H      7.329020   -8.065460   67.239300
  C      6.651580   -5.938900   67.233900
  H      7.447990   -5.453540   67.791000
  H      6.616650   -5.828050   66.106400
  C      5.370850   -5.182130   67.663900
  H      4.963810   -5.504440   68.588200
  H      5.505460   -4.117160   67.829300
  H      4.656270   -5.309840   66.812900
  S      9.612420   -8.365840   72.943900
  C     10.569400   -7.230330   73.868000
  C     10.061800   -5.949200   73.847000
  C      8.993990   -5.848740   72.886600
  C      8.653600   -7.054820   72.350200
  H     10.525900   -5.104630   74.435700
  C      8.295930   -4.486490   72.679000
  H      7.938170   -4.421550   71.683500
  H      9.099650   -3.813140   72.619700
  C      7.310400   -4.018500   73.802100
  H      6.966480   -3.044350   73.433900
  H      7.819850   -3.970950   74.724300
  C      6.125230   -4.883730   73.960700
  H      5.369280   -4.534640   74.710200
  H      6.342770   -5.934210   74.371100
  H      5.552330   -5.066230   73.046500
  H      5.489450   -9.524770   69.428400
  H     11.370800   -7.469310   74.605100

 Total Charge           Charge          ....    0
 Multiplicity           Mult            ....    1
 Number of Electrons    NEL             ....  134
 Basis Dimension        Dim             ....  322

ORBITAL ENERGIES
----------------

  NO   OCC          E(Eh)            E(eV)
   0   2.0000     -88.967798     -2420.9369
   1   2.0000     -88.966740     -2420.9081
   2   2.0000     -10.330592      -281.1097
   3   2.0000     -10.321205      -280.8543
   4   2.0000     -10.318837      -280.7898
   5   2.0000     -10.315391      -280.6961
   6   2.0000     -10.309643      -280.5397
   7   2.0000     -10.301867      -280.3281
   8   2.0000     -10.301737      -280.3245
   9   2.0000     -10.298440      -280.2348
  10   2.0000     -10.296645      -280.1860
  11   2.0000     -10.293413      -280.0980
  12   2.0000     -10.286346      -279.9057
  13   2.0000     -10.285211      -279.8748
  14   2.0000     -10.274996      -279.5969
  15   2.0000     -10.274111      -279.5728
  16   2.0000      -8.082917      -219.9474
  17   2.0000      -8.080795      -219.8896
  18   2.0000      -6.041415      -164.3953
  19   2.0000      -6.039367      -164.3395
  20   2.0000      -6.037489      -164.2884
  21   2.0000      -6.035345      -164.2301
  22   2.0000      -6.033518      -164.1804
  23   2.0000      -6.031580      -164.1276
  24   2.0000      -1.008921       -27.4541
  25   2.0000      -0.979432       -26.6517
  26   2.0000      -0.909315       -24.7437
  27   2.0000      -0.907486       -24.6940
  28   2.0000      -0.871350       -23.7106
  29   2.0000      -0.851939       -23.1824
  30   2.0000      -0.842000       -22.9120
  31   2.0000      -0.813161       -22.1272
  32   2.0000      -0.783440       -21.3185
  33   2.0000      -0.771000       -20.9800
  34   2.0000      -0.707952       -19.2644
  35   2.0000      -0.694779       -18.9059
  36   2.0000      -0.689702       -18.7677
  37   2.0000      -0.659681       -17.9508
  38   2.0000      -0.638279       -17.3684
  39   2.0000      -0.622953       -16.9514
  40   2.0000      -0.597237       -16.2517
  41   2.0000      -0.566483       -15.4148
  42   2.0000      -0.552353       -15.0303
  43   2.0000      -0.549623       -14.9560
  44   2.0000      -0.545117       -14.8334
  45   2.0000      -0.538275       -14.6472
  46   2.0000      -0.516408       -14.0522
  47   2.0000      -0.504504       -13.7283
  48   2.0000      -0.501992       -13.6599
  49   2.0000      -0.498236       -13.5577
  50   2.0000      -0.490238       -13.3401
  51   2.0000      -0.472405       -12.8548
  52   2.0000      -0.465900       -12.6778
  53   2.0000      -0.460255       -12.5242
  54   2.0000      -0.456902       -12.4329
  55   2.0000      -0.446888       -12.1605
  56   2.0000      -0.445793       -12.1306
  57   2.0000      -0.435059       -11.8385
  58   2.0000      -0.432194       -11.7606
  59   2.0000      -0.429067       -11.6755
  60   2.0000      -0.418494       -11.3878
  61   2.0000      -0.414943       -11.2912
  62   2.0000      -0.408256       -11.1092
  63   2.0000      -0.348278        -9.4771
  64   2.0000      -0.332592        -9.0503
  65   2.0000      -0.325950        -8.8696
  66   2.0000      -0.292995        -7.9728
  67   0.0000       0.031337         0.8527
  68   0.0000       0.065875         1.7926
  69   0.0000       0.114706         3.1213
  70   0.0000       0.119612         3.2548
  71   0.0000       0.126723         3.4483

MULLIKEN ATOMIC CHARGES
-----------------------
   0 S :    0.102018
   1 C :   -0.109594
   2 C :   -0.117137
   3 C :    0.049204
   4 C :   -0.163009
   5 H :   -0.003573
   6 C :    0.037882
   7 H :    0.029722
   8 H :    0.052237
   9 C :   -0.071222
  10 H :    0.034268
  11 H :    0.053395
  12 C :   -0.076699
  13 H :    0.033033
  14 H :    0.030384
  15 H :    0.034619
  16 S :    0.124607
  17 C :   -0.099814
  18 C :   -0.062806
  19 C :   -0.076427
  20 C :   -0.153795
  21 H :    0.044609
  22 C :    0.120400
  23 H :   -0.002143
  24 H :    0.001021
  25 C :    0.002632
  26 H :    0.032163
  27 H :    0.021048
  28 C :   -0.096647
  29 H :    0.034189
  30 H :    0.040059
  31 H :    0.033473
  32 H :    0.054917
  33 H :    0.066989
Sum of atomic charges:   -0.0000000

LOEWDIN ATOMIC CHARGES
----------------------
   0 S :    0.391220
   1 C :   -0.207992
   2 C :   -0.057815
   3 C :   -0.061549
   4 C :   -0.180241
   5 H :    0.019127
   6 C :   -0.038758
   7 H :    0.032674
   8 H :    0.038681
   9 C :   -0.042359
  10 H :    0.020760
  11 H :    0.039893
  12 C :   -0.069088
  13 H :    0.019323
  14 H :    0.024388
  15 H :    0.028006
  16 S :    0.418351
  17 C :   -0.193688
  18 C :   -0.077113
  19 C :   -0.055814
  20 C :   -0.211200
  21 H :    0.043358
  22 C :   -0.023051
  23 H :    0.022466
  24 H :    0.024046
  25 C :   -0.029873
  26 H :    0.030901
  27 H :    0.021062
  28 C :   -0.080625
  29 H :    0.028975
  30 H :    0.032262
  31 H :    0.025148
  32 H :    0.030773
  33 H :    0.037753

  Mayer bond orders larger than 0.100000
B(  0-S ,  1-C ) :   1.1325 B(  0-S ,  4-C ) :   1.1360 B(  1-C ,  2-C ) :   1.6295
B(  1-C , 32-H ) :   0.9611 B(  2-C ,  3-C ) :   1.2313 B(  2-C ,  6-C ) :   1.0016
B(  3-C ,  4-C ) :   1.5966 B(  3-C ,  5-H ) :   0.9887 B(  4-C , 20-C ) :   1.0500
B(  6-C ,  7-H ) :   0.9530 B(  6-C ,  8-H ) :   0.9315 B(  6-C ,  9-C ) :   1.0717
B(  9-C , 10-H ) :   0.9557 B(  9-C , 11-H ) :   0.9611 B(  9-C , 12-C ) :   1.0599
B( 12-C , 13-H ) :   0.9791 B( 12-C , 14-H ) :   0.9771 B( 12-C , 15-H ) :   0.9807
B( 16-S , 17-C ) :   1.1460 B( 16-S , 20-C ) :   1.1344 B( 17-C , 18-C ) :   1.6394
B( 17-C , 33-H ) :   0.9581 B( 18-C , 19-C ) :   1.2245 B( 18-C , 21-H ) :   0.9772
B( 19-C , 20-C ) :   1.6226 B( 19-C , 22-C ) :   1.0328 B( 22-C , 23-H ) :   0.9285
B( 22-C , 24-H ) :   0.9226 B( 22-C , 25-C ) :   1.0736 B( 25-C , 26-H ) :   0.9490
B( 25-C , 27-H ) :   0.9525 B( 25-C , 28-C ) :   1.0894 B( 28-C , 29-H ) :   0.9710
B( 28-C , 30-H ) :   0.9698 B( 28-C , 31-H ) :   0.9739

Dispersion correction           -0.015052458
FINAL SINGLE POINT ENERGY     -1339.868582458543

DIPOLE MOMENT
-------------
                                X             Y             Z
Electronic contribution:     11.10674     -20.59079      10.41290
Nuclear contribution   :    -11.00554      21.12450     -10.65290
                        -----------------------------------------
Total Dipole Moment    :      0.10120       0.53371      -0.24000
                        -----------------------------------------
Magnitude (a.u.)       :      0.59388
Magnitude (Debye)      :      1.50952

Rotational constants in cm-1:     0.018913     0.009157     0.007665
Rotational constants in MHz :   566.982655   274.526945   229.803977

                             ****ORCA TERMINATED NORMALLY****
TOTAL RUN TIME: 0 days 0 hours 0 minutes 33 seconds 662 msec
