                         Program Version 4.2.1 -  RELEASE  -
|  1> ! wB97X-D3 SP def2-SVP
|  2> %pal
|  3> nprocs 16
|  4> end
|  5>
|  6> * xyz 0 1
|  7> S 	 12.4908 	 -1.18383 	 65.0749
|  8> C 	 11.6825 	 -0.146246 	 63.918
|  9> C 	 12.5638 	 0.557217 	 63.1582
| 10> C 	 13.9185 	 0.216938 	 63.4686
| 11> C 	 14.0462 	 -0.529806 	 64.611
| 12> H 	 14.9193 	 0.456586 	 63.0423
| 13> C 	 12.2138 	 1.55923 	 62.0691
| 14> H 	 11.4261 	 1.1557 	 61.509
| 15> H 	 13.0175 	 1.66066 	 61.3349
| 16> C 	 11.7844 	 2.97882 	 62.6079
| 17> H 	 11.7188 	 3.66479 	 61.742
| 18> H 	 10.7374 	 2.90034 	 62.9942
| 19> C 	 12.6644 	 3.51493 	 63.7159
| 20> H 	 13.7262 	 3.64304 	 63.4216
| 21> H 	 12.2236 	 4.48461 	 64.0724
| 22> H 	 12.6544 	 2.78226 	 64.5164
| 23> S 	 15.861 	 -2.69982 	 65.2627
| 24> C 	 17.4288 	 -2.35364 	 66.0383
| 25> C 	 17.4987 	 -0.988625 	 66.1277
| 26> C 	 16.4791 	 -0.238769 	 65.538
| 27> C 	 15.3643 	 -0.992367 	 65.1246
| 28> H 	 18.3756 	 -0.555069 	 66.5869
| 29> C 	 16.5133 	 1.24984 	 65.5829
| 30> H 	 16.1625 	 1.69178 	 64.672
| 31> H 	 17.4886 	 1.57793 	 65.61
| 32> C 	 15.655 	 1.83587 	 66.6629
| 33> H 	 14.5396 	 1.70701 	 66.4272
| 34> H 	 15.829 	 2.85124 	 66.8065
| 35> C 	 15.9033 	 1.16651 	 68.1208
| 36> H 	 15.2452 	 1.63551 	 68.9179
| 37> H 	 16.9175 	 1.33811 	 68.3901
| 38> H 	 15.7753 	 0.0802464 	 68.1317
| 39> H 	 10.6267 	 0.0358625 	 63.7819
| 40> H 	 18.1139 	 -3.07736 	 66.3574
| 41> *
| 42>
| 43>                          ****END OF INPUT****

CARTESIAN COORDINATES (ANGSTROEM)
---------------------------------
  S     12.490800   -1.183830   65.074900
  C     11.682500   -0.146246   63.918000
  C     12.563800    0.557217   63.158200
  C     13.918500    0.216938   63.468600
  C     14.046200   -0.529806   64.611000
  H     14.919300    0.456586   63.042300
  C     12.213800    1.559230   62.069100
  H     11.426100    1.155700   61.509000
  H     13.017500    1.660660   61.334900
  C     11.784400    2.978820   62.607900
  H     11.718800    3.664790   61.742000
  H     10.737400    2.900340   62.994200
  C     12.664400    3.514930   63.715900
  H     13.726200    3.643040   63.421600
  H     12.223600    4.484610   64.072400
  H     12.654400    2.782260   64.516400
  S     15.861000   -2.699820   65.262700
  C     17.428800   -2.353640   66.038300
  C     17.498700   -0.988625   66.127700
  C     16.479100   -0.238769   65.538000
  C     15.364300   -0.992367   65.124600
  H     18.375600   -0.555069   66.586900
  C     16.513300    1.249840   65.582900
  H     16.162500    1.691780   64.672000
  H     17.488600    1.577930   65.610000
  C     15.655000    1.835870   66.662900
  H     14.539600    1.707010   66.427200
  H     15.829000    2.851240   66.806500
  C     15.903300    1.166510   68.120800
  H     15.245200    1.635510   68.917900
  H     16.917500    1.338110   68.390100
  H     15.775300    0.080246   68.131700
  H     10.626700    0.035862   63.781900
  H     18.113900   -3.077360   66.357400

 Total Charge           Charge          ....    0
 Multiplicity           Mult            ....    1
 Number of Electrons    NEL             ....  134
 Basis Dimension        Dim             ....  322

ORBITAL ENERGIES
----------------

  NO   OCC          E(Eh)            E(eV)
   0   2.0000     -88.970802     -2421.0186
   1   2.0000     -88.963298     -2420.8144
   2   2.0000     -10.334495      -281.2159
   3   2.0000     -10.332308      -281.1564
   4   2.0000     -10.319045      -280.7955
   5   2.0000     -10.315402      -280.6964
   6   2.0000     -10.303114      -280.3620
   7   2.0000     -10.299879      -280.2740
   8   2.0000     -10.297244      -280.2022
   9   2.0000     -10.293632      -280.1040
  10   2.0000     -10.291355      -280.0420
  11   2.0000     -10.290882      -280.0291
  12   2.0000     -10.284902      -279.8664
  13   2.0000     -10.279829      -279.7284
  14   2.0000     -10.277933      -279.6768
  15   2.0000     -10.274994      -279.5968
  16   2.0000      -8.085239      -220.0105
  17   2.0000      -8.076954      -219.7851
  18   2.0000      -6.043847      -164.4615
  19   2.0000      -6.039851      -164.3527
  20   2.0000      -6.035824      -164.2431
  21   2.0000      -6.035560      -164.2359
  22   2.0000      -6.031424      -164.1234
  23   2.0000      -6.027839      -164.0258
  24   2.0000      -1.007910       -27.4266
  25   2.0000      -0.987412       -26.8688
  26   2.0000      -0.910163       -24.7668
  27   2.0000      -0.909512       -24.7491
  28   2.0000      -0.869969       -23.6731
  29   2.0000      -0.847763       -23.0688
  30   2.0000      -0.834245       -22.7009
  31   2.0000      -0.817340       -22.2410
  32   2.0000      -0.785490       -21.3743
  33   2.0000      -0.777419       -21.1547
  34   2.0000      -0.711666       -19.3654
  35   2.0000      -0.697910       -18.9911
  36   2.0000      -0.690469       -18.7886
  37   2.0000      -0.661953       -18.0126
  38   2.0000      -0.643361       -17.5067
  39   2.0000      -0.610615       -16.6157
  40   2.0000      -0.595927       -16.2160
  41   2.0000      -0.576840       -15.6966
  42   2.0000      -0.560949       -15.2642
  43   2.0000      -0.551347       -15.0029
  44   2.0000      -0.547951       -14.9105
  45   2.0000      -0.537021       -14.6131
  46   2.0000      -0.511789       -13.9265
  47   2.0000      -0.510324       -13.8866
  48   2.0000      -0.505466       -13.7544
  49   2.0000      -0.494532       -13.4569
  50   2.0000      -0.486947       -13.2505
  51   2.0000      -0.481282       -13.0963
  52   2.0000      -0.472081       -12.8460
  53   2.0000      -0.468119       -12.7382
  54   2.0000      -0.460064       -12.5190
  55   2.0000      -0.442597       -12.0437
  56   2.0000      -0.440380       -11.9834
  57   2.0000      -0.436753       -11.8847
  58   2.0000      -0.431547       -11.7430
  59   2.0000      -0.426145       -11.5960
  60   2.0000      -0.417477       -11.3601
  61   2.0000      -0.410567       -11.1721
  62   2.0000      -0.405961       -11.0468
  63   2.0000      -0.347995        -9.4694
  64   2.0000      -0.332011        -9.0345
  65   2.0000      -0.329850        -8.9757
  66   2.0000      -0.297382        -8.0922
  67   0.0000       0.025166         0.6848
  68   0.0000       0.065171         1.7734
  69   0.0000       0.113955         3.1009
  70   0.0000       0.125040         3.4025
  71   0.0000       0.130771         3.5585

MULLIKEN ATOMIC CHARGES
-----------------------
   0 S :    0.123563
   1 C :   -0.102299
   2 C :   -0.104175
   3 C :    0.010890
   4 C :   -0.173301
   5 H :    0.037759
   6 C :    0.100508
   7 H :    0.013916
   8 H :    0.024712
   9 C :   -0.099031
  10 H :    0.035158
  11 H :    0.029342
  12 C :   -0.055658
  13 H :    0.034385
  14 H :    0.042788
  15 H :    0.047792
  16 S :    0.085644
  17 C :   -0.077374
  18 C :   -0.031197
  19 C :   -0.071673
  20 C :   -0.145509
  21 H :    0.015710
  22 C :    0.164980
  23 H :    0.000189
  24 H :   -0.008887
  25 C :   -0.085217
  26 H :    0.057732
  27 H :    0.019027
  28 C :   -0.089018
  29 H :    0.043470
  30 H :    0.014970
  31 H :    0.053164
  32 H :    0.041647
  33 H :    0.045991
Sum of atomic charges:    0.0000000

LOEWDIN ATOMIC CHARGES
----------------------
   0 S :    0.408271
   1 C :   -0.192288
   2 C :   -0.066089
   3 C :   -0.061680
   4 C :   -0.195549
   5 H :    0.041964
   6 C :   -0.028665
   7 H :    0.023838
   8 H :    0.031322
   9 C :   -0.041745
  10 H :    0.024195
  11 H :    0.025050
  12 C :   -0.069717
  13 H :    0.025506
  14 H :    0.033055
  15 H :    0.025449
  16 S :    0.379836
  17 C :   -0.163697
  18 C :   -0.073392
  19 C :   -0.059437
  20 C :   -0.187406
  21 H :    0.030163
  22 C :   -0.030099
  23 H :    0.028978
  24 H :    0.019218
  25 C :   -0.029260
  26 H :    0.033207
  27 H :    0.013867
  28 C :   -0.071314
  29 H :    0.031930
  30 H :    0.012918
  31 H :    0.025952
  32 H :    0.031625
  33 H :    0.023996

  Mayer bond orders larger than 0.100000
B(  0-S ,  1-C ) :   1.1305 B(  0-S ,  4-C ) :   1.1353 B(  1-C ,  2-C ) :   1.6377
B(  1-C , 32-H ) :   0.9654 B(  2-C ,  3-C ) :   1.2020 B(  2-C ,  6-C ) :   1.0186
B(  3-C ,  4-C ) :   1.6058 B(  3-C ,  5-H ) :   0.9828 B(  4-C , 20-C ) :   1.0441
B(  6-C ,  7-H ) :   0.9380 B(  6-C ,  8-H ) :   0.9447 B(  6-C ,  9-C ) :   1.0633
B(  9-C , 10-H ) :   0.9588 B(  9-C , 11-H ) :   0.9556 B(  9-C , 12-C ) :   1.0835
B( 12-C , 13-H ) :   0.9756 B( 12-C , 14-H ) :   0.9707 B( 12-C , 15-H ) :   0.9646
B( 16-S , 17-C ) :   1.1530 B( 16-S , 20-C ) :   1.1440 B( 17-C , 18-C ) :   1.5677
B( 17-C , 20-C ) :   0.1115 B( 17-C , 33-H ) :   0.9812 B( 18-C , 19-C ) :   1.2849
B( 18-C , 21-H ) :   0.9889 B( 19-C , 20-C ) :   1.5441 B( 19-C , 22-C ) :   1.0604
B( 22-C , 23-H ) :   0.9154 B( 22-C , 24-H ) :   0.9197 B( 22-C , 25-C ) :   1.0786
B( 25-C , 26-H ) :   0.9533 B( 25-C , 27-H ) :   0.9564 B( 25-C , 28-C ) :   1.0654
B( 28-C , 29-H ) :   0.9772 B( 28-C , 30-H ) :   0.9775 B( 28-C , 31-H ) :   0.9739

Dispersion correction           -0.016592705
FINAL SINGLE POINT ENERGY     -1339.871865344800

DIPOLE MOMENT
-------------
                                X             Y             Z
Electronic contribution:      0.62686     -25.92295      -0.64490
Nuclear contribution   :     -0.47076      26.56090       0.42395
                        -----------------------------------------
Total Dipole Moment    :      0.15611       0.63795      -0.22095
                        -----------------------------------------
Magnitude (a.u.)       :      0.69294
Magnitude (Debye)      :      1.76132

Rotational constants in cm-1:     0.021271     0.009437     0.007697
Rotational constants in MHz :   637.679878   282.899551   230.764586

                             ****ORCA TERMINATED NORMALLY****
TOTAL RUN TIME: 0 days 0 hours 0 minutes 37 seconds 874 msec
