                         Program Version 4.2.1 -  RELEASE  -
|  1> ! wB97X-D3 SP def2-SVP
|  2> %pal
|  3> nprocs 16
|  4> end
|  5>
|  6> * xyz 0 1
|  7> S 	 -78.39 	 48.5813 	 135.577
|  8> C 	 -78.0238 	 47.2423 	 136.555
|  9> C 	 -76.7873 	 47.4415 	 137.156
| 10> C 	 -76.1398 	 48.6582 	 136.772
| 11> C 	 -76.9096 	 49.4032 	 135.985
| 12> H 	 -75.1628 	 49.0198 	 137.121
| 13> C 	 -76.186 	 46.3358 	 138.042
| 14> H 	 -76.7897 	 45.4389 	 137.989
| 15> H 	 -76.52 	 46.651 	 139.102
| 16> C 	 -74.6913 	 45.9449 	 138.022
| 17> H 	 -74.735 	 45.2429 	 137.164
| 18> H 	 -74.08 	 46.895 	 137.904
| 19> C 	 -74.2191 	 45.1622 	 139.304
| 20> H 	 -73.2121 	 44.6914 	 139.245
| 21> H 	 -74.3461 	 45.7957 	 140.213
| 22> H 	 -74.9247 	 44.2615 	 139.352
| 23> S 	 -77.6549 	 52.0722 	 135.88
| 24> C 	 -76.5397 	 53.1901 	 135.186
| 25> C 	 -75.2939 	 52.6722 	 135.095
| 26> C 	 -75.2751 	 51.2432 	 135.209
| 27> C 	 -76.5409 	 50.7678 	 135.568
| 28> H 	 -74.5355 	 53.2841 	 134.797
| 29> C 	 -73.9278 	 50.5491 	 134.904
| 30> H 	 -73.604 	 51.0692 	 133.981
| 31> H 	 -74.1177 	 49.5049 	 134.654
| 32> C 	 -72.8712 	 50.6239 	 136.006
| 33> H 	 -72.8596 	 49.7804 	 136.639
| 34> H 	 -73.1641 	 51.5757 	 136.509
| 35> C 	 -71.4306 	 50.6869 	 135.489
| 36> H 	 -71.2519 	 51.4295 	 134.704
| 37> H 	 -71.211 	 49.7419 	 135.004
| 38> H 	 -70.7041 	 50.8739 	 136.266
| 39> H 	 -78.4578 	 46.2666 	 136.57
| 40> H 	 -76.6 	 54.2692 	 135.214
| 41> *
| 42>
| 43>                          ****END OF INPUT****

CARTESIAN COORDINATES (ANGSTROEM)
---------------------------------
  S    -78.390000   48.581300  135.577000
  C    -78.023800   47.242300  136.555000
  C    -76.787300   47.441500  137.156000
  C    -76.139800   48.658200  136.772000
  C    -76.909600   49.403200  135.985000
  H    -75.162800   49.019800  137.121000
  C    -76.186000   46.335800  138.042000
  H    -76.789700   45.438900  137.989000
  H    -76.520000   46.651000  139.102000
  C    -74.691300   45.944900  138.022000
  H    -74.735000   45.242900  137.164000
  H    -74.080000   46.895000  137.904000
  C    -74.219100   45.162200  139.304000
  H    -73.212100   44.691400  139.245000
  H    -74.346100   45.795700  140.213000
  H    -74.924700   44.261500  139.352000
  S    -77.654900   52.072200  135.880000
  C    -76.539700   53.190100  135.186000
  C    -75.293900   52.672200  135.095000
  C    -75.275100   51.243200  135.209000
  C    -76.540900   50.767800  135.568000
  H    -74.535500   53.284100  134.797000
  C    -73.927800   50.549100  134.904000
  H    -73.604000   51.069200  133.981000
  H    -74.117700   49.504900  134.654000
  C    -72.871200   50.623900  136.006000
  H    -72.859600   49.780400  136.639000
  H    -73.164100   51.575700  136.509000
  C    -71.430600   50.686900  135.489000
  H    -71.251900   51.429500  134.704000
  H    -71.211000   49.741900  135.004000
  H    -70.704100   50.873900  136.266000
  H    -78.457800   46.266600  136.570000
  H    -76.600000   54.269200  135.214000

 Total Charge           Charge          ....    0
 Multiplicity           Mult            ....    1
 Number of Electrons    NEL             ....  134
 Basis Dimension        Dim             ....  322

ORBITAL ENERGIES
----------------

  NO   OCC          E(Eh)            E(eV)
   0   2.0000     -88.966106     -2420.8908
   1   2.0000     -88.965906     -2420.8854
   2   2.0000     -10.328764      -281.0600
   3   2.0000     -10.323911      -280.9279
   4   2.0000     -10.308085      -280.4973
   5   2.0000     -10.307566      -280.4831
   6   2.0000     -10.304290      -280.3940
   7   2.0000     -10.302974      -280.3582
   8   2.0000     -10.301628      -280.3216
   9   2.0000     -10.297173      -280.2003
  10   2.0000     -10.295758      -280.1618
  11   2.0000     -10.295611      -280.1578
  12   2.0000     -10.290724      -280.0248
  13   2.0000     -10.288602      -279.9671
  14   2.0000     -10.282045      -279.7887
  15   2.0000     -10.278757      -279.6992
  16   2.0000      -8.081516      -219.9092
  17   2.0000      -8.081431      -219.9069
  18   2.0000      -6.040022      -164.3574
  19   2.0000      -6.039977      -164.3561
  20   2.0000      -6.036001      -164.2479
  21   2.0000      -6.035816      -164.2429
  22   2.0000      -6.032297      -164.1471
  23   2.0000      -6.031972      -164.1383
  24   2.0000      -1.014684       -27.6109
  25   2.0000      -0.992792       -27.0152
  26   2.0000      -0.912143       -24.8207
  27   2.0000      -0.904346       -24.6085
  28   2.0000      -0.875477       -23.8229
  29   2.0000      -0.854755       -23.2591
  30   2.0000      -0.845709       -23.0129
  31   2.0000      -0.821089       -22.3430
  32   2.0000      -0.782362       -21.2892
  33   2.0000      -0.768401       -20.9093
  34   2.0000      -0.709962       -19.3190
  35   2.0000      -0.697228       -18.9725
  36   2.0000      -0.688138       -18.7252
  37   2.0000      -0.663037       -18.0422
  38   2.0000      -0.641117       -17.4457
  39   2.0000      -0.625022       -17.0077
  40   2.0000      -0.595514       -16.2048
  41   2.0000      -0.571785       -15.5591
  42   2.0000      -0.567918       -15.4538
  43   2.0000      -0.563830       -15.3426
  44   2.0000      -0.525677       -14.3044
  45   2.0000      -0.524279       -14.2664
  46   2.0000      -0.519068       -14.1246
  47   2.0000      -0.513749       -13.9798
  48   2.0000      -0.504388       -13.7251
  49   2.0000      -0.499166       -13.5830
  50   2.0000      -0.492459       -13.4005
  51   2.0000      -0.482432       -13.1276
  52   2.0000      -0.469435       -12.7740
  53   2.0000      -0.462249       -12.5784
  54   2.0000      -0.459238       -12.4965
  55   2.0000      -0.456266       -12.4156
  56   2.0000      -0.450949       -12.2709
  57   2.0000      -0.439226       -11.9520
  58   2.0000      -0.426877       -11.6159
  59   2.0000      -0.425429       -11.5765
  60   2.0000      -0.420456       -11.4412
  61   2.0000      -0.416100       -11.3227
  62   2.0000      -0.412838       -11.2339
  63   2.0000      -0.356660        -9.7052
  64   2.0000      -0.330578        -8.9955
  65   2.0000      -0.326368        -8.8809
  66   2.0000      -0.293181        -7.9779
  67   0.0000       0.033987         0.9248
  68   0.0000       0.074975         2.0402
  69   0.0000       0.109780         2.9873
  70   0.0000       0.122114         3.3229
  71   0.0000       0.130225         3.5436

MULLIKEN ATOMIC CHARGES
-----------------------
   0 S :    0.125010
   1 C :   -0.105331
   2 C :   -0.085473
   3 C :    0.021850
   4 C :   -0.145591
   5 H :    0.007123
   6 C :    0.010865
   7 H :    0.001926
   8 H :    0.035248
   9 C :   -0.075375
  10 H :    0.046659
  11 H :    0.048152
  12 C :   -0.093977
  13 H :    0.052897
  14 H :    0.051058
  15 H :    0.034584
  16 S :    0.115349
  17 C :   -0.067602
  18 C :   -0.027894
  19 C :   -0.060087
  20 C :   -0.142610
  21 H :   -0.013625
  22 C :    0.057885
  23 H :    0.034445
  24 H :    0.027846
  25 C :   -0.060162
  26 H :    0.034674
  27 H :    0.037661
  28 C :   -0.052118
  29 H :    0.024377
  30 H :    0.027165
  31 H :    0.037879
  32 H :    0.045021
  33 H :    0.052170
Sum of atomic charges:    0.0000000

LOEWDIN ATOMIC CHARGES
----------------------
   0 S :    0.428818
   1 C :   -0.218820
   2 C :   -0.059500
   3 C :   -0.066132
   4 C :   -0.196899
   5 H :    0.035633
   6 C :   -0.048143
   7 H :    0.022015
   8 H :    0.036175
   9 C :   -0.048978
  10 H :    0.032956
  11 H :    0.027990
  12 C :   -0.075541
  13 H :    0.031503
  14 H :    0.029819
  15 H :    0.030917
  16 S :    0.417503
  17 C :   -0.192915
  18 C :   -0.062043
  19 C :   -0.056662
  20 C :   -0.195228
  21 H :    0.015108
  22 C :   -0.030373
  23 H :    0.036149
  24 H :    0.028384
  25 C :   -0.040376
  26 H :    0.019538
  27 H :    0.029425
  28 C :   -0.063389
  29 H :    0.022060
  30 H :    0.024902
  31 H :    0.026233
  32 H :    0.029606
  33 H :    0.030265

  Mayer bond orders larger than 0.100000
B(  0-S ,  1-C ) :   1.1384 B(  0-S ,  4-C ) :   1.1565 B(  1-C ,  2-C ) :   1.6056
B(  1-C , 32-H ) :   0.9692 B(  2-C ,  3-C ) :   1.2387 B(  2-C ,  6-C ) :   1.0186
B(  3-C ,  4-C ) :   1.5886 B(  3-C ,  5-H ) :   0.9942 B(  4-C , 20-C ) :   1.0149
B(  6-C ,  7-H ) :   0.9443 B(  6-C ,  8-H ) :   0.9356 B(  6-C ,  9-C ) :   1.0331
B(  9-C , 10-H ) :   0.9609 B(  9-C , 11-H ) :   0.9563 B(  9-C , 12-C ) :   1.0706
B( 12-C , 13-H ) :   0.9750 B( 12-C , 14-H ) :   0.9757 B( 12-C , 15-H ) :   0.9753
B( 16-S , 17-C ) :   1.1446 B( 16-S , 20-C ) :   1.1551 B( 17-C , 18-C ) :   1.6472
B( 17-C , 33-H ) :   0.9600 B( 18-C , 19-C ) :   1.2266 B( 18-C , 21-H ) :   0.9953
B( 19-C , 20-C ) :   1.6059 B( 19-C , 22-C ) :   1.0366 B( 22-C , 23-H ) :   0.9437
B( 22-C , 24-H ) :   0.9308 B( 22-C , 25-C ) :   1.0523 B( 25-C , 26-H ) :   0.9509
B( 25-C , 27-H ) :   0.9619 B( 25-C , 28-C ) :   1.0805 B( 28-C , 29-H ) :   0.9767
B( 28-C , 30-H ) :   0.9746 B( 28-C , 31-H ) :   0.9742

Dispersion correction           -0.013867517
FINAL SINGLE POINT ENERGY     -1339.860189781729

DIPOLE MOMENT
-------------
                                X             Y             Z
Electronic contribution:    -28.29589      14.12953      -9.25618
Nuclear contribution   :     29.04867     -14.36327       9.47179
                        -----------------------------------------
Total Dipole Moment    :      0.75278      -0.23373       0.21561
                        -----------------------------------------
Magnitude (a.u.)       :      0.81719
Magnitude (Debye)      :      2.07714

Rotational constants in cm-1:     0.015834     0.009467     0.006357
Rotational constants in MHz :   474.688639   283.807780   190.566836

                             ****ORCA TERMINATED NORMALLY****
TOTAL RUN TIME: 0 days 0 hours 0 minutes 32 seconds 591 msec
