                         Program Version 4.2.1 -  RELEASE  -
|  1> ! wB97X-D3 SP def2-SVP
|  2> %pal
|  3> nprocs 16
|  4> end
|  5>
|  6> * xyz 0 1
|  7> S 	 -31.7075 	 68.4392 	 118.906
|  8> C 	 -32.8511 	 67.1753 	 119.362
|  9> C 	 -32.2136 	 65.9344 	 119.621
| 10> C 	 -30.7983 	 66.0479 	 119.391
| 11> C 	 -30.3998 	 67.3183 	 119.134
| 12> H 	 -30.1151 	 65.1661 	 119.522
| 13> C 	 -32.9064 	 64.69 	 120.155
| 14> H 	 -32.7875 	 63.8662 	 119.494
| 15> H 	 -34.0136 	 64.7719 	 120.042
| 16> C 	 -32.4801 	 64.2361 	 121.559
| 17> H 	 -32.775 	 63.1772 	 121.596
| 18> H 	 -31.3906 	 64.1478 	 121.575
| 19> C 	 -33.0071 	 65.1525 	 122.725
| 20> H 	 -32.9085 	 64.6347 	 123.689
| 21> H 	 -32.5017 	 66.0918 	 122.783
| 22> H 	 -34.186 	 65.2143 	 122.648
| 23> S 	 -28.2994 	 68.7344 	 120.111
| 24> C 	 -26.8637 	 68.9094 	 119.175
| 25> C 	 -26.8209 	 68.0085 	 118.121
| 26> C 	 -28.073 	 67.3549 	 117.997
| 27> C 	 -29.034 	 67.7734 	 118.89
| 28> H 	 -25.9939 	 67.945 	 117.397
| 29> C 	 -28.3551 	 66.3546 	 116.894
| 30> H 	 -29.3646 	 65.9705 	 117.098
| 31> H 	 -27.7499 	 65.5191 	 116.997
| 32> C 	 -28.2983 	 66.9167 	 115.454
| 33> H 	 -27.4551 	 67.5544 	 115.521
| 34> H 	 -29.2302 	 67.4989 	 115.304
| 35> C 	 -28.1009 	 65.7262 	 114.442
| 36> H 	 -29.019 	 65.0973 	 114.498
| 37> H 	 -27.2448 	 65.1203 	 114.765
| 38> H 	 -28.0751 	 66.0718 	 113.393
| 39> H 	 -33.9196 	 67.4759 	 119.41
| 40> H 	 -26 	 69.5026 	 119.479
| 41> *
| 42>
| 43>                          ****END OF INPUT****

CARTESIAN COORDINATES (ANGSTROEM)
---------------------------------
  S    -31.707500   68.439200  118.906000
  C    -32.851100   67.175300  119.362000
  C    -32.213600   65.934400  119.621000
  C    -30.798300   66.047900  119.391000
  C    -30.399800   67.318300  119.134000
  H    -30.115100   65.166100  119.522000
  C    -32.906400   64.690000  120.155000
  H    -32.787500   63.866200  119.494000
  H    -34.013600   64.771900  120.042000
  C    -32.480100   64.236100  121.559000
  H    -32.775000   63.177200  121.596000
  H    -31.390600   64.147800  121.575000
  C    -33.007100   65.152500  122.725000
  H    -32.908500   64.634700  123.689000
  H    -32.501700   66.091800  122.783000
  H    -34.186000   65.214300  122.648000
  S    -28.299400   68.734400  120.111000
  C    -26.863700   68.909400  119.175000
  C    -26.820900   68.008500  118.121000
  C    -28.073000   67.354900  117.997000
  C    -29.034000   67.773400  118.890000
  H    -25.993900   67.945000  117.397000
  C    -28.355100   66.354600  116.894000
  H    -29.364600   65.970500  117.098000
  H    -27.749900   65.519100  116.997000
  C    -28.298300   66.916700  115.454000
  H    -27.455100   67.554400  115.521000
  H    -29.230200   67.498900  115.304000
  C    -28.100900   65.726200  114.442000
  H    -29.019000   65.097300  114.498000
  H    -27.244800   65.120300  114.765000
  H    -28.075100   66.071800  113.393000
  H    -33.919600   67.475900  119.410000
  H    -26.000000   69.502600  119.479000

 Total Charge           Charge          ....    0
 Multiplicity           Mult            ....    1
 Number of Electrons    NEL             ....  134
 Basis Dimension        Dim             ....  322

ORBITAL ENERGIES
----------------

  NO   OCC          E(Eh)            E(eV)
   0   2.0000     -88.965783     -2420.8820
   1   2.0000     -88.962387     -2420.7896
   2   2.0000     -10.325164      -280.9620
   3   2.0000     -10.321515      -280.8627
   4   2.0000     -10.316567      -280.7281
   5   2.0000     -10.315195      -280.6907
   6   2.0000     -10.307996      -280.4948
   7   2.0000     -10.298424      -280.2344
   8   2.0000     -10.296071      -280.1703
   9   2.0000     -10.293674      -280.1051
  10   2.0000     -10.292971      -280.0860
  11   2.0000     -10.292843      -280.0825
  12   2.0000     -10.288013      -279.9511
  13   2.0000     -10.284828      -279.8644
  14   2.0000     -10.283494      -279.8281
  15   2.0000     -10.276804      -279.6460
  16   2.0000      -8.080812      -219.8901
  17   2.0000      -8.078356      -219.8232
  18   2.0000      -6.039203      -164.3351
  19   2.0000      -6.036685      -164.2666
  20   2.0000      -6.035338      -164.2299
  21   2.0000      -6.032746      -164.1594
  22   2.0000      -6.031617      -164.1286
  23   2.0000      -6.029179      -164.0623
  24   2.0000      -1.011331       -27.5197
  25   2.0000      -0.985608       -26.8198
  26   2.0000      -0.907647       -24.6983
  27   2.0000      -0.905437       -24.6382
  28   2.0000      -0.865215       -23.5437
  29   2.0000      -0.846854       -23.0441
  30   2.0000      -0.842791       -22.9335
  31   2.0000      -0.810587       -22.0572
  32   2.0000      -0.781526       -21.2664
  33   2.0000      -0.767117       -20.8743
  34   2.0000      -0.706201       -19.2167
  35   2.0000      -0.698666       -19.0117
  36   2.0000      -0.687816       -18.7164
  37   2.0000      -0.659017       -17.9328
  38   2.0000      -0.642300       -17.4779
  39   2.0000      -0.623313       -16.9612
  40   2.0000      -0.596035       -16.2189
  41   2.0000      -0.567377       -15.4391
  42   2.0000      -0.561517       -15.2796
  43   2.0000      -0.544634       -14.8202
  44   2.0000      -0.536804       -14.6072
  45   2.0000      -0.518007       -14.0957
  46   2.0000      -0.514914       -14.0115
  47   2.0000      -0.508704       -13.8425
  48   2.0000      -0.497732       -13.5440
  49   2.0000      -0.493858       -13.4386
  50   2.0000      -0.489654       -13.3242
  51   2.0000      -0.473402       -12.8819
  52   2.0000      -0.470312       -12.7978
  53   2.0000      -0.458296       -12.4709
  54   2.0000      -0.457986       -12.4624
  55   2.0000      -0.451163       -12.2768
  56   2.0000      -0.446406       -12.1473
  57   2.0000      -0.435815       -11.8591
  58   2.0000      -0.432383       -11.7657
  59   2.0000      -0.421506       -11.4698
  60   2.0000      -0.420471       -11.4416
  61   2.0000      -0.417906       -11.3718
  62   2.0000      -0.413787       -11.2597
  63   2.0000      -0.340621        -9.2688
  64   2.0000      -0.329188        -8.9577
  65   2.0000      -0.326012        -8.8712
  66   2.0000      -0.300611        -8.1800
  67   0.0000       0.038808         1.0560
  68   0.0000       0.066324         1.8048
  69   0.0000       0.114384         3.1125
  70   0.0000       0.117092         3.1862
  71   0.0000       0.126417         3.4400

MULLIKEN ATOMIC CHARGES
-----------------------
   0 S :    0.115092
   1 C :   -0.150604
   2 C :   -0.078536
   3 C :    0.029381
   4 C :   -0.175656
   5 H :    0.037518
   6 C :    0.063183
   7 H :    0.014970
   8 H :    0.018245
   9 C :   -0.072044
  10 H :    0.025972
  11 H :    0.025377
  12 C :   -0.063055
  13 H :    0.035204
  14 H :    0.055677
  15 H :    0.039123
  16 S :    0.118613
  17 C :   -0.093424
  18 C :   -0.046885
  19 C :   -0.045560
  20 C :   -0.162264
  21 H :    0.033721
  22 C :    0.079304
  23 H :    0.013472
  24 H :    0.002784
  25 C :   -0.058037
  26 H :    0.013333
  27 H :    0.043292
  28 C :   -0.063738
  29 H :    0.034160
  30 H :    0.039435
  31 H :    0.045149
  32 H :    0.067351
  33 H :    0.059448
Sum of atomic charges:    0.0000000

LOEWDIN ATOMIC CHARGES
----------------------
   0 S :    0.408262
   1 C :   -0.196294
   2 C :   -0.060854
   3 C :   -0.063632
   4 C :   -0.204329
   5 H :    0.042641
   6 C :   -0.040042
   7 H :    0.027334
   8 H :    0.033695
   9 C :   -0.042693
  10 H :    0.027112
  11 H :    0.022613
  12 C :   -0.069633
  13 H :    0.027139
  14 H :    0.026541
  15 H :    0.037193
  16 S :    0.432250
  17 C :   -0.191224
  18 C :   -0.077213
  19 C :   -0.056351
  20 C :   -0.220151
  21 H :    0.036232
  22 C :   -0.031117
  23 H :    0.028452
  24 H :    0.016502
  25 C :   -0.032780
  26 H :    0.012043
  27 H :    0.031616
  28 C :   -0.068817
  29 H :    0.029175
  30 H :    0.026426
  31 H :    0.028357
  32 H :    0.031564
  33 H :    0.029984

  Mayer bond orders larger than 0.100000
B(  0-S ,  1-C ) :   1.1446 B(  0-S ,  4-C ) :   1.1638 B(  1-C ,  2-C ) :   1.5921
B(  1-C , 32-H ) :   0.9682 B(  2-C ,  3-C ) :   1.2364 B(  2-C ,  6-C ) :   1.0283
B(  3-C ,  4-C ) :   1.5946 B(  3-C ,  5-H ) :   0.9866 B(  4-C , 20-C ) :   0.9852
B(  6-C ,  7-H ) :   0.9320 B(  6-C ,  8-H ) :   0.9399 B(  6-C ,  9-C ) :   1.0756
B(  9-C , 10-H ) :   0.9547 B(  9-C , 11-H ) :   0.9552 B(  9-C , 12-C ) :   1.0592
B( 12-C , 13-H ) :   0.9753 B( 12-C , 14-H ) :   0.9775 B( 12-C , 15-H ) :   0.9756
B( 16-S , 17-C ) :   1.1793 B( 16-S , 20-C ) :   1.1583 B( 17-C , 18-C ) :   1.5808
B( 17-C , 20-C ) :   0.1027 B( 17-C , 33-H ) :   0.9668 B( 18-C , 19-C ) :   1.2519
B( 18-C , 21-H ) :   0.9876 B( 19-C , 20-C ) :   1.6048 B( 19-C , 22-C ) :   1.0443
B( 22-C , 23-H ) :   0.9250 B( 22-C , 24-H ) :   0.9328 B( 22-C , 25-C ) :   1.0505
B( 25-C , 26-H ) :   0.9665 B( 25-C , 27-H ) :   0.9556 B( 25-C , 28-C ) :   1.0694
B( 28-C , 29-H ) :   0.9764 B( 28-C , 30-H ) :   0.9762 B( 28-C , 31-H ) :   0.9755

Dispersion correction           -0.014242617
FINAL SINGLE POINT ENERGY     -1339.879066866623

DIPOLE MOMENT
-------------
                                X             Y             Z
Electronic contribution:      3.94298      19.59057       5.57258
Nuclear contribution   :     -3.93896     -20.19290      -5.64387
                        -----------------------------------------
Total Dipole Moment    :      0.00401      -0.60233      -0.07129
                        -----------------------------------------
Magnitude (a.u.)       :      0.60655
Magnitude (Debye)      :      1.54172

Rotational constants in cm-1:     0.018889     0.008197     0.006975
Rotational constants in MHz :   566.284788   245.740909   209.110387

                             ****ORCA TERMINATED NORMALLY****
TOTAL RUN TIME: 0 days 0 hours 0 minutes 27 seconds 136 msec
