                         Program Version 4.2.1 -  RELEASE  -
|  1> ! wB97X-D3 SP def2-SVP
|  2> %pal
|  3> nprocs 16
|  4> end
|  5>
|  6> * xyz 0 1
|  7> S 	 -107.475 	 41.9745 	 132.244
|  8> C 	 -106.075 	 42.2797 	 133.297
|  9> C 	 -104.935 	 42.1722 	 132.531
| 10> C 	 -105.172 	 41.9928 	 131.148
| 11> C 	 -106.486 	 41.8062 	 130.779
| 12> H 	 -104.399 	 41.8907 	 130.474
| 13> C 	 -103.528 	 42.5165 	 132.95
| 14> H 	 -103.566 	 43.1368 	 133.862
| 15> H 	 -103.015 	 43.1539 	 132.186
| 16> C 	 -102.569 	 41.3374 	 133.17
| 17> H 	 -101.521 	 41.7506 	 133.363
| 18> H 	 -102.939 	 40.8747 	 134.083
| 19> C 	 -102.449 	 40.1654 	 132.201
| 20> H 	 -101.62 	 39.5571 	 132.416
| 21> H 	 -103.421 	 39.6236 	 132.161
| 22> H 	 -102.371 	 40.5985 	 131.208
| 23> S 	 -108.308 	 42.5172 	 128.943
| 24> C 	 -108.518 	 41.597 	 127.484
| 25> C 	 -107.562 	 40.6534 	 127.365
| 26> C 	 -106.607 	 40.6021 	 128.464
| 27> C 	 -107.007 	 41.4857 	 129.438
| 28> H 	 -107.603 	 39.9931 	 126.486
| 29> C 	 -105.496 	 39.55 	 128.537
| 30> H 	 -105.902 	 38.5562 	 128.508
| 31> H 	 -105.227 	 39.5249 	 129.592
| 32> C 	 -104.196 	 39.6909 	 127.691
| 33> H 	 -103.495 	 38.9505 	 127.984
| 34> H 	 -103.671 	 40.6042 	 128.029
| 35> C 	 -104.437 	 39.7289 	 126.122
| 36> H 	 -105.145 	 38.9136 	 125.966
| 37> H 	 -103.681 	 39.3667 	 125.569
| 38> H 	 -104.819 	 40.6049 	 125.547
| 39> H 	 -106.134 	 42.5963 	 134.329
| 40> H 	 -109.353 	 41.6535 	 126.759
| 41> *
| 42>
| 43>                          ****END OF INPUT****

CARTESIAN COORDINATES (ANGSTROEM)
---------------------------------
  S    -107.475000   41.974500  132.244000
  C    -106.075000   42.279700  133.297000
  C    -104.935000   42.172200  132.531000
  C    -105.172000   41.992800  131.148000
  C    -106.486000   41.806200  130.779000
  H    -104.399000   41.890700  130.474000
  C    -103.528000   42.516500  132.950000
  H    -103.566000   43.136800  133.862000
  H    -103.015000   43.153900  132.186000
  C    -102.569000   41.337400  133.170000
  H    -101.521000   41.750600  133.363000
  H    -102.939000   40.874700  134.083000
  C    -102.449000   40.165400  132.201000
  H    -101.620000   39.557100  132.416000
  H    -103.421000   39.623600  132.161000
  H    -102.371000   40.598500  131.208000
  S    -108.308000   42.517200  128.943000
  C    -108.518000   41.597000  127.484000
  C    -107.562000   40.653400  127.365000
  C    -106.607000   40.602100  128.464000
  C    -107.007000   41.485700  129.438000
  H    -107.603000   39.993100  126.486000
  C    -105.496000   39.550000  128.537000
  H    -105.902000   38.556200  128.508000
  H    -105.227000   39.524900  129.592000
  C    -104.196000   39.690900  127.691000
  H    -103.495000   38.950500  127.984000
  H    -103.671000   40.604200  128.029000
  C    -104.437000   39.728900  126.122000
  H    -105.145000   38.913600  125.966000
  H    -103.681000   39.366700  125.569000
  H    -104.819000   40.604900  125.547000
  H    -106.134000   42.596300  134.329000
  H    -109.353000   41.653500  126.759000

 Total Charge           Charge          ....    0
 Multiplicity           Mult            ....    1
 Number of Electrons    NEL             ....  134
 Basis Dimension        Dim             ....  322

ORBITAL ENERGIES
----------------

  NO   OCC          E(Eh)            E(eV)
   0   2.0000     -88.965858     -2420.8841
   1   2.0000     -88.963500     -2420.8199
   2   2.0000     -10.332944      -281.1737
   3   2.0000     -10.328902      -281.0637
   4   2.0000     -10.319801      -280.8160
   5   2.0000     -10.313555      -280.6461
   6   2.0000     -10.309065      -280.5239
   7   2.0000     -10.299139      -280.2538
   8   2.0000     -10.297362      -280.2055
   9   2.0000     -10.295644      -280.1587
  10   2.0000     -10.293810      -280.1088
  11   2.0000     -10.292247      -280.0663
  12   2.0000     -10.288086      -279.9531
  13   2.0000     -10.285826      -279.8915
  14   2.0000     -10.276518      -279.6383
  15   2.0000     -10.275549      -279.6119
  16   2.0000      -8.079679      -219.8593
  17   2.0000      -8.079095      -219.8434
  18   2.0000      -6.038390      -164.3129
  19   2.0000      -6.037676      -164.2935
  20   2.0000      -6.034210      -164.1992
  21   2.0000      -6.033511      -164.1802
  22   2.0000      -6.030356      -164.0943
  23   2.0000      -6.029678      -164.0759
  24   2.0000      -1.008800       -27.4508
  25   2.0000      -0.986031       -26.8313
  26   2.0000      -0.910066       -24.7641
  27   2.0000      -0.902808       -24.5667
  28   2.0000      -0.871107       -23.7040
  29   2.0000      -0.849289       -23.1103
  30   2.0000      -0.843314       -22.9477
  31   2.0000      -0.819932       -22.3115
  32   2.0000      -0.789957       -21.4958
  33   2.0000      -0.779346       -21.2071
  34   2.0000      -0.716137       -19.4871
  35   2.0000      -0.699032       -19.0216
  36   2.0000      -0.691201       -18.8085
  37   2.0000      -0.658772       -17.9261
  38   2.0000      -0.641955       -17.4685
  39   2.0000      -0.620795       -16.8927
  40   2.0000      -0.593121       -16.1396
  41   2.0000      -0.574025       -15.6200
  42   2.0000      -0.550420       -14.9777
  43   2.0000      -0.548963       -14.9380
  44   2.0000      -0.545447       -14.8424
  45   2.0000      -0.541578       -14.7371
  46   2.0000      -0.517086       -14.0706
  47   2.0000      -0.506701       -13.7880
  48   2.0000      -0.502536       -13.6747
  49   2.0000      -0.500811       -13.6278
  50   2.0000      -0.489456       -13.3188
  51   2.0000      -0.481478       -13.1017
  52   2.0000      -0.480139       -13.0652
  53   2.0000      -0.465679       -12.6718
  54   2.0000      -0.461822       -12.5668
  55   2.0000      -0.449144       -12.2218
  56   2.0000      -0.443447       -12.0668
  57   2.0000      -0.436889       -11.8883
  58   2.0000      -0.433058       -11.7841
  59   2.0000      -0.427395       -11.6300
  60   2.0000      -0.415281       -11.3004
  61   2.0000      -0.411266       -11.1911
  62   2.0000      -0.403817       -10.9884
  63   2.0000      -0.348561        -9.4848
  64   2.0000      -0.331774        -9.0280
  65   2.0000      -0.328973        -8.9518
  66   2.0000      -0.299625        -8.1532
  67   0.0000       0.028268         0.7692
  68   0.0000       0.076656         2.0859
  69   0.0000       0.114592         3.1182
  70   0.0000       0.121054         3.2941
  71   0.0000       0.124230         3.3805

MULLIKEN ATOMIC CHARGES
-----------------------
   0 S :    0.099492
   1 C :   -0.127233
   2 C :   -0.063736
   3 C :    0.058820
   4 C :   -0.126844
   5 H :   -0.032441
   6 C :    0.038575
   7 H :    0.026820
   8 H :    0.036160
   9 C :   -0.112440
  10 H :    0.038116
  11 H :    0.019396
  12 C :   -0.027308
  13 H :    0.038891
  14 H :    0.046774
  15 H :    0.012608
  16 S :    0.108548
  17 C :   -0.088323
  18 C :   -0.052000
  19 C :   -0.007784
  20 C :   -0.167361
  21 H :    0.024010
  22 C :    0.045750
  23 H :    0.027474
  24 H :    0.008184
  25 C :   -0.032423
  26 H :    0.026585
  27 H :    0.027696
  28 C :   -0.029047
  29 H :    0.009798
  30 H :   -0.000180
  31 H :    0.055448
  32 H :    0.054971
  33 H :    0.063002
Sum of atomic charges:   -0.0000000

LOEWDIN ATOMIC CHARGES
----------------------
   0 S :    0.384850
   1 C :   -0.184161
   2 C :   -0.069838
   3 C :   -0.053966
   4 C :   -0.185878
   5 H :    0.014591
   6 C :   -0.035632
   7 H :    0.033676
   8 H :    0.033736
   9 C :   -0.048766
  10 H :    0.029337
  11 H :    0.019595
  12 C :   -0.064028
  13 H :    0.024128
  14 H :    0.032018
  15 H :    0.017944
  16 S :    0.413416
  17 C :   -0.195885
  18 C :   -0.072336
  19 C :   -0.052181
  20 C :   -0.194712
  21 H :    0.034482
  22 C :   -0.038304
  23 H :    0.030666
  24 H :    0.033283
  25 C :   -0.028552
  26 H :    0.025583
  27 H :    0.024421
  28 C :   -0.072309
  29 H :    0.026150
  30 H :    0.010096
  31 H :    0.037120
  32 H :    0.032497
  33 H :    0.038958

  Mayer bond orders larger than 0.100000
B(  0-S ,  1-C ) :   1.1304 B(  0-S ,  4-C ) :   1.1453 B(  1-C ,  2-C ) :   1.5970
B(  1-C , 32-H ) :   0.9716 B(  2-C ,  3-C ) :   1.2477 B(  2-C ,  6-C ) :   1.0179
B(  3-C ,  4-C ) :   1.5587 B(  3-C ,  5-H ) :   1.0121 B(  4-C , 20-C ) :   1.0163
B(  6-C ,  7-H ) :   0.9454 B(  6-C ,  8-H ) :   0.9479 B(  6-C ,  9-C ) :   1.0667
B(  9-C , 10-H ) :   0.9571 B(  9-C , 11-H ) :   0.9538 B(  9-C , 12-C ) :   1.0899
B( 12-C , 13-H ) :   0.9703 B( 12-C , 14-H ) :   0.9675 B( 12-C , 15-H ) :   0.9725
B( 16-S , 17-C ) :   1.1252 B( 16-S , 20-C ) :   1.1538 B( 17-C , 18-C ) :   1.6682
B( 17-C , 33-H ) :   0.9606 B( 18-C , 19-C ) :   1.1942 B( 18-C , 21-H ) :   0.9839
B( 19-C , 20-C ) :   1.6287 B( 19-C , 22-C ) :   1.0316 B( 22-C , 23-H ) :   0.9381
B( 22-C , 24-H ) :   0.9243 B( 22-C , 25-C ) :   1.0808 B( 25-C , 26-H ) :   0.9522
B( 25-C , 27-H ) :   0.9553 B( 25-C , 28-C ) :   1.0593 B( 28-C , 29-H ) :   0.9709
B( 28-C , 30-H ) :   0.9703 B( 28-C , 31-H ) :   0.9769

Dispersion correction           -0.015186761
FINAL SINGLE POINT ENERGY     -1339.864487514013

DIPOLE MOMENT
-------------
                                X             Y             Z
Electronic contribution:    -26.63565      12.15750       4.64251
Nuclear contribution   :     27.24114     -12.50319      -4.82843
                        -----------------------------------------
Total Dipole Moment    :      0.60549      -0.34568      -0.18592
                        -----------------------------------------
Magnitude (a.u.)       :      0.72158
Magnitude (Debye)      :      1.83412

Rotational constants in cm-1:     0.017430     0.010128     0.006807
Rotational constants in MHz :   522.549270   303.621472   204.058841

                             ****ORCA TERMINATED NORMALLY****
TOTAL RUN TIME: 0 days 0 hours 0 minutes 35 seconds 48 msec
