                         Program Version 4.2.1 -  RELEASE  -
|  1> ! wB97X-D3 SP def2-SVP
|  2> %pal
|  3> nprocs 16
|  4> end
|  5>
|  6> * xyz 0 1
|  7> S 	 42.2521 	 12.4876 	 89.2035
|  8> C 	 42.7579 	 10.9332 	 89.6049
|  9> C 	 41.7182 	 9.98075 	 89.5532
| 10> C 	 40.4883 	 10.6118 	 89.3301
| 11> C 	 40.5673 	 11.9965 	 89.3805
| 12> H 	 39.5423 	 10.1687 	 89.2905
| 13> C 	 41.9435 	 8.48408 	 89.663
| 14> H 	 42.7223 	 8.16802 	 88.9735
| 15> H 	 41.0654 	 8.05029 	 89.2071
| 16> C 	 42.0504 	 7.77179 	 91.0088
| 17> H 	 41.0432 	 7.82722 	 91.5153
| 18> H 	 42.2748 	 6.76677 	 90.9364
| 19> C 	 43.1387 	 8.35332 	 91.8561
| 20> H 	 42.8873 	 9.38266 	 91.8454
| 21> H 	 43.0411 	 7.88345 	 92.8312
| 22> H 	 44.1439 	 8.06989 	 91.4996
| 23> S 	 39.753 	 14.4491 	 88.551
| 24> C 	 38.1558 	 14.9507 	 89.0289
| 25> C 	 37.4308 	 13.9702 	 89.7625
| 26> C 	 38.1753 	 12.7539 	 89.965
| 27> C 	 39.4417 	 12.887 	 89.2622
| 28> H 	 36.4417 	 14.1442 	 90.1384
| 29> C 	 37.6328 	 11.6901 	 90.8515
| 30> H 	 38.3104 	 10.9111 	 90.6432
| 31> H 	 36.7119 	 11.28 	 90.4352
| 32> C 	 37.4272 	 11.9765 	 92.3675
| 33> H 	 36.3866 	 12.4047 	 92.4747
| 34> H 	 38.1264 	 12.7123 	 92.6662
| 35> C 	 37.5295 	 10.6967 	 93.2035
| 36> H 	 37.2402 	 10.9418 	 94.2755
| 37> H 	 38.5207 	 10.3625 	 93.2415
| 38> H 	 36.9806 	 9.86384 	 92.7343
| 39> H 	 43.8382 	 10.6446 	 89.5739
| 40> H 	 37.7584 	 15.8988 	 88.8429
| 41> *
| 42>
| 43>                          ****END OF INPUT****

CARTESIAN COORDINATES (ANGSTROEM)
---------------------------------
  S     42.252100   12.487600   89.203500
  C     42.757900   10.933200   89.604900
  C     41.718200    9.980750   89.553200
  C     40.488300   10.611800   89.330100
  C     40.567300   11.996500   89.380500
  H     39.542300   10.168700   89.290500
  C     41.943500    8.484080   89.663000
  H     42.722300    8.168020   88.973500
  H     41.065400    8.050290   89.207100
  C     42.050400    7.771790   91.008800
  H     41.043200    7.827220   91.515300
  H     42.274800    6.766770   90.936400
  C     43.138700    8.353320   91.856100
  H     42.887300    9.382660   91.845400
  H     43.041100    7.883450   92.831200
  H     44.143900    8.069890   91.499600
  S     39.753000   14.449100   88.551000
  C     38.155800   14.950700   89.028900
  C     37.430800   13.970200   89.762500
  C     38.175300   12.753900   89.965000
  C     39.441700   12.887000   89.262200
  H     36.441700   14.144200   90.138400
  C     37.632800   11.690100   90.851500
  H     38.310400   10.911100   90.643200
  H     36.711900   11.280000   90.435200
  C     37.427200   11.976500   92.367500
  H     36.386600   12.404700   92.474700
  H     38.126400   12.712300   92.666200
  C     37.529500   10.696700   93.203500
  H     37.240200   10.941800   94.275500
  H     38.520700   10.362500   93.241500
  H     36.980600    9.863840   92.734300
  H     43.838200   10.644600   89.573900
  H     37.758400   15.898800   88.842900

 Total Charge           Charge          ....    0
 Multiplicity           Mult            ....    1
 Number of Electrons    NEL             ....  134
 Basis Dimension        Dim             ....  322

ORBITAL ENERGIES
----------------

  NO   OCC          E(Eh)            E(eV)
   0   2.0000     -88.974030     -2421.1065
   1   2.0000     -88.967922     -2420.9402
   2   2.0000     -10.330937      -281.1191
   3   2.0000     -10.325061      -280.9592
   4   2.0000     -10.316376      -280.7229
   5   2.0000     -10.311769      -280.5975
   6   2.0000     -10.309578      -280.5379
   7   2.0000     -10.300871      -280.3010
   8   2.0000     -10.296309      -280.1768
   9   2.0000     -10.291136      -280.0360
  10   2.0000     -10.287968      -279.9498
  11   2.0000     -10.286986      -279.9231
  12   2.0000     -10.286350      -279.9058
  13   2.0000     -10.281757      -279.7808
  14   2.0000     -10.278263      -279.6858
  15   2.0000     -10.266371      -279.3622
  16   2.0000      -8.088646      -220.1032
  17   2.0000      -8.083622      -219.9665
  18   2.0000      -6.047029      -164.5480
  19   2.0000      -6.043287      -164.4462
  20   2.0000      -6.041942      -164.4096
  21   2.0000      -6.039478      -164.3425
  22   2.0000      -6.038128      -164.3058
  23   2.0000      -6.034419      -164.2049
  24   2.0000      -1.010116       -27.4866
  25   2.0000      -0.982641       -26.7390
  26   2.0000      -0.915881       -24.9224
  27   2.0000      -0.912382       -24.8272
  28   2.0000      -0.868116       -23.6227
  29   2.0000      -0.861276       -23.4365
  30   2.0000      -0.852678       -23.2026
  31   2.0000      -0.810055       -22.0427
  32   2.0000      -0.785968       -21.3873
  33   2.0000      -0.768678       -20.9168
  34   2.0000      -0.710815       -19.3423
  35   2.0000      -0.697678       -18.9848
  36   2.0000      -0.691696       -18.8220
  37   2.0000      -0.662010       -18.0142
  38   2.0000      -0.640561       -17.4305
  39   2.0000      -0.619868       -16.8675
  40   2.0000      -0.597604       -16.2616
  41   2.0000      -0.577056       -15.7025
  42   2.0000      -0.564695       -15.3661
  43   2.0000      -0.549422       -14.9505
  44   2.0000      -0.543691       -14.7946
  45   2.0000      -0.529463       -14.4074
  46   2.0000      -0.520294       -14.1579
  47   2.0000      -0.513398       -13.9703
  48   2.0000      -0.497254       -13.5310
  49   2.0000      -0.495320       -13.4783
  50   2.0000      -0.487259       -13.2590
  51   2.0000      -0.483438       -13.1550
  52   2.0000      -0.474662       -12.9162
  53   2.0000      -0.465232       -12.6596
  54   2.0000      -0.462173       -12.5764
  55   2.0000      -0.458002       -12.4629
  56   2.0000      -0.443279       -12.0622
  57   2.0000      -0.437012       -11.8917
  58   2.0000      -0.435680       -11.8554
  59   2.0000      -0.430992       -11.7279
  60   2.0000      -0.420794       -11.4504
  61   2.0000      -0.415228       -11.2989
  62   2.0000      -0.406844       -11.0708
  63   2.0000      -0.356366        -9.6972
  64   2.0000      -0.336487        -9.1563
  65   2.0000      -0.329274        -8.9600
  66   2.0000      -0.272150        -7.4056
  67   0.0000       0.015615         0.4249
  68   0.0000       0.073725         2.0062
  69   0.0000       0.095827         2.6076
  70   0.0000       0.114049         3.1034
  71   0.0000       0.128118         3.4863

MULLIKEN ATOMIC CHARGES
-----------------------
   0 S :    0.116651
   1 C :   -0.117564
   2 C :   -0.114600
   3 C :    0.023015
   4 C :   -0.139928
   5 H :    0.003967
   6 C :    0.070416
   7 H :    0.027044
   8 H :    0.008101
   9 C :   -0.045419
  10 H :    0.027057
  11 H :    0.008303
  12 C :   -0.043191
  13 H :    0.041349
  14 H :    0.027315
  15 H :    0.028487
  16 S :    0.116271
  17 C :   -0.074954
  18 C :   -0.019385
  19 C :   -0.096706
  20 C :   -0.141305
  21 H :    0.013059
  22 C :    0.110319
  23 H :   -0.034017
  24 H :    0.030207
  25 C :   -0.048457
  26 H :    0.036619
  27 H :    0.033985
  28 C :   -0.056878
  29 H :    0.048235
  30 H :    0.025729
  31 H :    0.036048
  32 H :    0.065480
  33 H :    0.034748
Sum of atomic charges:    0.0000000

LOEWDIN ATOMIC CHARGES
----------------------
   0 S :    0.425507
   1 C :   -0.226836
   2 C :   -0.066388
   3 C :   -0.060147
   4 C :   -0.188958
   5 H :    0.020838
   6 C :   -0.037123
   7 H :    0.030557
   8 H :    0.030308
   9 C :   -0.036031
  10 H :    0.027430
  11 H :    0.013318
  12 C :   -0.063786
  13 H :    0.021529
  14 H :    0.025703
  15 H :    0.025563
  16 S :    0.419395
  17 C :   -0.184488
  18 C :   -0.058769
  19 C :   -0.047643
  20 C :   -0.200996
  21 H :    0.027623
  22 C :   -0.040032
  23 H :    0.018683
  24 H :    0.036470
  25 C :   -0.030993
  26 H :    0.029039
  27 H :    0.021830
  28 C :   -0.063969
  29 H :    0.036711
  30 H :    0.017991
  31 H :    0.028135
  32 H :    0.035604
  33 H :    0.013928

  Mayer bond orders larger than 0.100000
B(  0-S ,  1-C ) :   1.1718 B(  0-S ,  4-C ) :   1.1540 B(  1-C ,  2-C ) :   1.5426
B(  1-C , 32-H ) :   0.9623 B(  2-C ,  3-C ) :   1.2985 B(  2-C ,  6-C ) :   1.0203
B(  3-C ,  4-C ) :   1.5145 B(  3-C ,  5-H ) :   0.9940 B(  4-C , 20-C ) :   1.1074
B(  6-C ,  7-H ) :   0.9388 B(  6-C ,  8-H ) :   0.9349 B(  6-C ,  9-C ) :   1.0787
B(  9-C , 10-H ) :   0.9548 B(  9-C , 11-H ) :   0.9484 B(  9-C , 12-C ) :   1.0864
B( 12-C , 13-H ) :   0.9740 B( 12-C , 14-H ) :   0.9706 B( 12-C , 15-H ) :   0.9741
B( 16-S , 17-C ) :   1.1575 B( 16-S , 20-C ) :   1.1499 B( 17-C , 18-C ) :   1.5831
B( 17-C , 33-H ) :   0.9756 B( 18-C , 19-C ) :   1.2643 B( 18-C , 21-H ) :   0.9911
B( 19-C , 20-C ) :   1.5206 B( 19-C , 22-C ) :   1.0535 B( 22-C , 23-H ) :   0.9154
B( 22-C , 24-H ) :   0.9162 B( 22-C , 25-C ) :   1.0460 B( 25-C , 26-H ) :   0.9526
B( 25-C , 27-H ) :   0.9616 B( 25-C , 28-C ) :   1.0875 B( 28-C , 29-H ) :   0.9730
B( 28-C , 30-H ) :   0.9742 B( 28-C , 31-H ) :   0.9740

Dispersion correction           -0.014154212
FINAL SINGLE POINT ENERGY     -1339.853245604005

DIPOLE MOMENT
-------------
                                X             Y             Z
Electronic contribution:      5.39196      23.70866     -19.11999
Nuclear contribution   :     -5.71351     -24.14378      19.38590
                        -----------------------------------------
Total Dipole Moment    :     -0.32155      -0.43512       0.26591
                        -----------------------------------------
Magnitude (a.u.)       :      0.60285
Magnitude (Debye)      :      1.53234

Rotational constants in cm-1:     0.017929     0.009575     0.006758
Rotational constants in MHz :   537.510741   287.062906   202.605723

                             ****ORCA TERMINATED NORMALLY****
TOTAL RUN TIME: 0 days 0 hours 0 minutes 32 seconds 271 msec
