                         Program Version 4.2.1 -  RELEASE  -
|  1> ! wB97X-D3 SP def2-SVP
|  2> %pal
|  3> nprocs 16
|  4> end
|  5>
|  6> * xyz 0 1
|  7> S 	 36.6034 	 -1.98586 	 76.3622
|  8> C 	 36.3754 	 -3.6571 	 75.8967
|  9> C 	 35.1733 	 -3.74383 	 75.2481
| 10> C 	 34.4833 	 -2.523 	 75.1251
| 11> C 	 35.0495 	 -1.44522 	 75.7373
| 12> H 	 33.575 	 -2.46147 	 74.5774
| 13> C 	 34.7341 	 -5.06403 	 74.8653
| 14> H 	 33.6554 	 -4.96793 	 75.0946
| 15> H 	 35.0568 	 -5.72546 	 75.6626
| 16> C 	 35.0611 	 -5.54013 	 73.5026
| 17> H 	 36.1264 	 -5.48956 	 73.2558
| 18> H 	 34.8286 	 -6.5617 	 73.6188
| 19> C 	 34.1267 	 -5.0137 	 72.375
| 20> H 	 33.1398 	 -4.90114 	 72.7402
| 21> H 	 34.407 	 -4.06735 	 72.0734
| 22> H 	 34.0419 	 -5.72498 	 71.5445
| 23> S 	 33.6199 	 0.66137 	 74.5746
| 24> C 	 33.4993 	 2.16542 	 75.4171
| 25> C 	 34.0005 	 2.02232 	 76.6864
| 26> C 	 34.5137 	 0.723216 	 77.025
| 27> C 	 34.4404 	 -0.0948136 	 75.9045
| 28> H 	 33.9856 	 2.87049 	 77.4661
| 29> C 	 34.9941 	 0.292911 	 78.3872
| 30> H 	 35.4161 	 -0.70172 	 78.3607
| 31> H 	 34.1691 	 0.39581 	 79.0188
| 32> C 	 36.1534 	 1.07794 	 78.9945
| 33> H 	 35.7648 	 2.1321 	 79.0948
| 34> H 	 37.1054 	 1.11469 	 78.3155
| 35> C 	 36.5435 	 0.526953 	 80.4423
| 36> H 	 36.0642 	 1.01725 	 81.3007
| 37> H 	 37.5895 	 0.792683 	 80.7545
| 38> H 	 36.3632 	 -0.531063 	 80.5396
| 39> H 	 37.0874 	 -4.48318 	 75.9978
| 40> H 	 32.9843 	 3.07415 	 75.0034
| 41> *
| 42>
| 43>                          ****END OF INPUT****

CARTESIAN COORDINATES (ANGSTROEM)
---------------------------------
  S     36.603400   -1.985860   76.362200
  C     36.375400   -3.657100   75.896700
  C     35.173300   -3.743830   75.248100
  C     34.483300   -2.523000   75.125100
  C     35.049500   -1.445220   75.737300
  H     33.575000   -2.461470   74.577400
  C     34.734100   -5.064030   74.865300
  H     33.655400   -4.967930   75.094600
  H     35.056800   -5.725460   75.662600
  C     35.061100   -5.540130   73.502600
  H     36.126400   -5.489560   73.255800
  H     34.828600   -6.561700   73.618800
  C     34.126700   -5.013700   72.375000
  H     33.139800   -4.901140   72.740200
  H     34.407000   -4.067350   72.073400
  H     34.041900   -5.724980   71.544500
  S     33.619900    0.661370   74.574600
  C     33.499300    2.165420   75.417100
  C     34.000500    2.022320   76.686400
  C     34.513700    0.723216   77.025000
  C     34.440400   -0.094814   75.904500
  H     33.985600    2.870490   77.466100
  C     34.994100    0.292911   78.387200
  H     35.416100   -0.701720   78.360700
  H     34.169100    0.395810   79.018800
  C     36.153400    1.077940   78.994500
  H     35.764800    2.132100   79.094800
  H     37.105400    1.114690   78.315500
  C     36.543500    0.526953   80.442300
  H     36.064200    1.017250   81.300700
  H     37.589500    0.792683   80.754500
  H     36.363200   -0.531063   80.539600
  H     37.087400   -4.483180   75.997800
  H     32.984300    3.074150   75.003400

 Total Charge           Charge          ....    0
 Multiplicity           Mult            ....    1
 Number of Electrons    NEL             ....  134
 Basis Dimension        Dim             ....  322

ORBITAL ENERGIES
----------------

  NO   OCC          E(Eh)            E(eV)
   0   2.0000     -88.967627     -2420.9322
   1   2.0000     -88.963741     -2420.8265
   2   2.0000     -10.331319      -281.1295
   3   2.0000     -10.329192      -281.0716
   4   2.0000     -10.321952      -280.8746
   5   2.0000     -10.309987      -280.5490
   6   2.0000     -10.303103      -280.3617
   7   2.0000     -10.301409      -280.3156
   8   2.0000     -10.299407      -280.2611
   9   2.0000     -10.286413      -279.9075
  10   2.0000     -10.285602      -279.8855
  11   2.0000     -10.283809      -279.8367
  12   2.0000     -10.282328      -279.7964
  13   2.0000     -10.281040      -279.7613
  14   2.0000     -10.280736      -279.7530
  15   2.0000     -10.270504      -279.4746
  16   2.0000      -8.082940      -219.9480
  17   2.0000      -8.077752      -219.8068
  18   2.0000      -6.041495      -164.3974
  19   2.0000      -6.037358      -164.2849
  20   2.0000      -6.036361      -164.2577
  21   2.0000      -6.033631      -164.1834
  22   2.0000      -6.032197      -164.1444
  23   2.0000      -6.028596      -164.0464
  24   2.0000      -1.010194       -27.4888
  25   2.0000      -0.991682       -26.9850
  26   2.0000      -0.923249       -25.1229
  27   2.0000      -0.907727       -24.7005
  28   2.0000      -0.868962       -23.6457
  29   2.0000      -0.848503       -23.0889
  30   2.0000      -0.843101       -22.9419
  31   2.0000      -0.818708       -22.2782
  32   2.0000      -0.784446       -21.3459
  33   2.0000      -0.774005       -21.0617
  34   2.0000      -0.712386       -19.3850
  35   2.0000      -0.701733       -19.0951
  36   2.0000      -0.691831       -18.8257
  37   2.0000      -0.658840       -17.9279
  38   2.0000      -0.635446       -17.2914
  39   2.0000      -0.616727       -16.7820
  40   2.0000      -0.600221       -16.3329
  41   2.0000      -0.577863       -15.7245
  42   2.0000      -0.565831       -15.3971
  43   2.0000      -0.550636       -14.9836
  44   2.0000      -0.540087       -14.6965
  45   2.0000      -0.522851       -14.2275
  46   2.0000      -0.520315       -14.1585
  47   2.0000      -0.509418       -13.8620
  48   2.0000      -0.505641       -13.7592
  49   2.0000      -0.502052       -13.6615
  50   2.0000      -0.490085       -13.3359
  51   2.0000      -0.480037       -13.0625
  52   2.0000      -0.475538       -12.9400
  53   2.0000      -0.469790       -12.7836
  54   2.0000      -0.461556       -12.5596
  55   2.0000      -0.447796       -12.1851
  56   2.0000      -0.444907       -12.1065
  57   2.0000      -0.438594       -11.9348
  58   2.0000      -0.426871       -11.6158
  59   2.0000      -0.421297       -11.4641
  60   2.0000      -0.419918       -11.4265
  61   2.0000      -0.410835       -11.1794
  62   2.0000      -0.400599       -10.9008
  63   2.0000      -0.353971        -9.6320
  64   2.0000      -0.331758        -9.0276
  65   2.0000      -0.326231        -8.8772
  66   2.0000      -0.291308        -7.9269
  67   0.0000       0.028704         0.7811
  68   0.0000       0.079546         2.1645
  69   0.0000       0.111252         3.0273
  70   0.0000       0.122817         3.3420
  71   0.0000       0.131569         3.5802

MULLIKEN ATOMIC CHARGES
-----------------------
   0 S :    0.095830
   1 C :   -0.135219
   2 C :   -0.096221
   3 C :    0.026562
   4 C :   -0.110538
   5 H :   -0.009309
   6 C :    0.015622
   7 H :    0.021104
   8 H :    0.021012
   9 C :   -0.007145
  10 H :    0.030313
  11 H :    0.013419
  12 C :   -0.007734
  13 H :    0.006840
  14 H :    0.023128
  15 H :    0.036600
  16 S :    0.112916
  17 C :   -0.111820
  18 C :   -0.055338
  19 C :   -0.050803
  20 C :   -0.153231
  21 H :    0.043377
  22 C :    0.113748
  23 H :    0.022261
  24 H :    0.025300
  25 C :   -0.140566
  26 H :    0.032177
  27 H :    0.057342
  28 C :   -0.055841
  29 H :    0.027291
  30 H :    0.034347
  31 H :    0.036372
  32 H :    0.055999
  33 H :    0.082205
Sum of atomic charges:   -0.0000000

LOEWDIN ATOMIC CHARGES
----------------------
   0 S :    0.408071
   1 C :   -0.200422
   2 C :   -0.073486
   3 C :   -0.071494
   4 C :   -0.179430
   5 H :    0.022697
   6 C :   -0.042509
   7 H :    0.036615
   8 H :    0.033521
   9 C :   -0.034069
  10 H :    0.027400
  11 H :    0.022646
  12 C :   -0.051286
  13 H :    0.019494
  14 H :    0.015209
  15 H :    0.030835
  16 S :    0.420648
  17 C :   -0.203701
  18 C :   -0.079887
  19 C :   -0.057432
  20 C :   -0.197205
  21 H :    0.040930
  22 C :   -0.032812
  23 H :    0.018827
  24 H :    0.029259
  25 C :   -0.045469
  26 H :    0.021961
  27 H :    0.035794
  28 C :   -0.078620
  29 H :    0.026959
  30 H :    0.033187
  31 H :    0.022574
  32 H :    0.035951
  33 H :    0.045245

  Mayer bond orders larger than 0.100000
B(  0-S ,  1-C ) :   1.1317 B(  0-S ,  4-C ) :   1.1525 B(  1-C ,  2-C ) :   1.5874
B(  1-C , 32-H ) :   0.9698 B(  2-C ,  3-C ) :   1.2810 B(  2-C ,  6-C ) :   1.0144
B(  3-C ,  4-C ) :   1.5352 B(  3-C ,  5-H ) :   1.0005 B(  4-C , 20-C ) :   1.0265
B(  6-C ,  7-H ) :   0.9331 B(  6-C ,  8-H ) :   0.9406 B(  6-C ,  9-C ) :   1.0735
B(  9-C , 10-H ) :   0.9546 B(  9-C , 11-H ) :   0.9472 B(  9-C , 12-C ) :   1.0748
B( 12-C , 13-H ) :   0.9715 B( 12-C , 14-H ) :   0.9773 B( 12-C , 15-H ) :   0.9758
B( 16-S , 17-C ) :   1.1500 B( 16-S , 20-C ) :   1.1548 B( 17-C , 18-C ) :   1.6023
B( 17-C , 33-H ) :   0.9631 B( 18-C , 19-C ) :   1.2485 B( 18-C , 21-H ) :   0.9732
B( 19-C , 20-C ) :   1.5769 B( 19-C , 22-C ) :   1.0488 B( 22-C , 23-H ) :   0.9223
B( 22-C , 24-H ) :   0.9281 B( 22-C , 25-C ) :   1.0563 B( 25-C , 26-H ) :   0.9576
B( 25-C , 27-H ) :   0.9605 B( 25-C , 28-C ) :   1.0590 B( 28-C , 29-H ) :   0.9750
B( 28-C , 30-H ) :   0.9764 B( 28-C , 31-H ) :   0.9787

Dispersion correction           -0.014117560
FINAL SINGLE POINT ENERGY     -1339.861940520277

DIPOLE MOMENT
-------------
                                X             Y             Z
Electronic contribution:     -1.60756      10.27211      -6.44190
Nuclear contribution   :      1.38413     -10.52844       6.61178
                        -----------------------------------------
Total Dipole Moment    :     -0.22343      -0.25632       0.16988
                        -----------------------------------------
Magnitude (a.u.)       :      0.38010
Magnitude (Debye)      :      0.96615

Rotational constants in cm-1:     0.020709     0.008338     0.006232
Rotational constants in MHz :   620.845523   249.960554   186.818654

                             ****ORCA TERMINATED NORMALLY****
TOTAL RUN TIME: 0 days 0 hours 0 minutes 29 seconds 656 msec
