                         Program Version 4.2.1 -  RELEASE  -
|  1> ! wB97X-D3 SP def2-SVP
|  2> %pal
|  3> nprocs 16
|  4> end
|  5>
|  6> * xyz 0 1
|  7> S 	 8.10591 	 -17.9161 	 57.5519
|  8> C 	 8.56722 	 -17.032 	 58.9455
|  9> C 	 9.34698 	 -16.0125 	 58.6068
| 10> C 	 9.65201 	 -15.8594 	 57.2563
| 11> C 	 9.14728 	 -16.8801 	 56.4912
| 12> H 	 10.1784 	 -15.0263 	 56.7462
| 13> C 	 9.76134 	 -15.007 	 59.6407
| 14> H 	 8.95285 	 -14.7375 	 60.3139
| 15> H 	 9.97125 	 -14.0342 	 59.1834
| 16> C 	 10.9421 	 -15.395 	 60.5631
| 17> H 	 11.0883 	 -14.6533 	 61.4113
| 18> H 	 10.689 	 -16.3383 	 61.0308
| 19> C 	 12.2176 	 -15.6532 	 59.7084
| 20> H 	 13.0629 	 -15.9717 	 60.27
| 21> H 	 12.1593 	 -16.4918 	 58.999
| 22> H 	 12.4875 	 -14.7814 	 59.166
| 23> S 	 10.9662 	 -17.6674 	 54.5858
| 24> C 	 10.5188 	 -17.6787 	 52.9904
| 25> C 	 9.16399 	 -17.3177 	 52.8076
| 26> C 	 8.51033 	 -16.9352 	 54.0566
| 27> C 	 9.40916 	 -17.0698 	 55.0863
| 28> H 	 8.78287 	 -17.4275 	 51.8641
| 29> C 	 6.98201 	 -16.5039 	 54.182
| 30> H 	 6.92123 	 -15.6084 	 53.5101
| 31> H 	 6.77121 	 -16.1397 	 55.1669
| 32> C 	 6.0367 	 -17.6423 	 53.8032
| 33> H 	 6.1871 	 -18.3689 	 54.5564
| 34> H 	 6.35471 	 -18.0186 	 52.7869
| 35> C 	 4.55456 	 -17.2905 	 53.8015
| 36> H 	 4.20868 	 -16.9593 	 54.7543
| 37> H 	 3.94022 	 -18.1986 	 53.5617
| 38> H 	 4.3337 	 -16.5134 	 52.9971
| 39> H 	 8.21915 	 -17.3603 	 59.9427
| 40> H 	 11.2232 	 -17.9527 	 52.2015
| 41> *
| 42>
| 43>                          ****END OF INPUT****

CARTESIAN COORDINATES (ANGSTROEM)
---------------------------------
  S      8.105910  -17.916100   57.551900
  C      8.567220  -17.032000   58.945500
  C      9.346980  -16.012500   58.606800
  C      9.652010  -15.859400   57.256300
  C      9.147280  -16.880100   56.491200
  H     10.178400  -15.026300   56.746200
  C      9.761340  -15.007000   59.640700
  H      8.952850  -14.737500   60.313900
  H      9.971250  -14.034200   59.183400
  C     10.942100  -15.395000   60.563100
  H     11.088300  -14.653300   61.411300
  H     10.689000  -16.338300   61.030800
  C     12.217600  -15.653200   59.708400
  H     13.062900  -15.971700   60.270000
  H     12.159300  -16.491800   58.999000
  H     12.487500  -14.781400   59.166000
  S     10.966200  -17.667400   54.585800
  C     10.518800  -17.678700   52.990400
  C      9.163990  -17.317700   52.807600
  C      8.510330  -16.935200   54.056600
  C      9.409160  -17.069800   55.086300
  H      8.782870  -17.427500   51.864100
  C      6.982010  -16.503900   54.182000
  H      6.921230  -15.608400   53.510100
  H      6.771210  -16.139700   55.166900
  C      6.036700  -17.642300   53.803200
  H      6.187100  -18.368900   54.556400
  H      6.354710  -18.018600   52.786900
  C      4.554560  -17.290500   53.801500
  H      4.208680  -16.959300   54.754300
  H      3.940220  -18.198600   53.561700
  H      4.333700  -16.513400   52.997100
  H      8.219150  -17.360300   59.942700
  H     11.223200  -17.952700   52.201500

 Total Charge           Charge          ....    0
 Multiplicity           Mult            ....    1
 Number of Electrons    NEL             ....  134
 Basis Dimension        Dim             ....  322

ORBITAL ENERGIES
----------------

  NO   OCC          E(Eh)            E(eV)
   0   2.0000     -88.965792     -2420.8823
   1   2.0000     -88.962000     -2420.7791
   2   2.0000     -10.325952      -280.9834
   3   2.0000     -10.318179      -280.7719
   4   2.0000     -10.314208      -280.6639
   5   2.0000     -10.309070      -280.5240
   6   2.0000     -10.308923      -280.5200
   7   2.0000     -10.296992      -280.1954
   8   2.0000     -10.291891      -280.0566
   9   2.0000     -10.291439      -280.0443
  10   2.0000     -10.290096      -280.0077
  11   2.0000     -10.289157      -279.9822
  12   2.0000     -10.285474      -279.8820
  13   2.0000     -10.284247      -279.8486
  14   2.0000     -10.282249      -279.7942
  15   2.0000     -10.267568      -279.3947
  16   2.0000      -8.082485      -219.9356
  17   2.0000      -8.076642      -219.7766
  18   2.0000      -6.040661      -164.3747
  19   2.0000      -6.036667      -164.2661
  20   2.0000      -6.035112      -164.2237
  21   2.0000      -6.033522      -164.1805
  22   2.0000      -6.031149      -164.1159
  23   2.0000      -6.027460      -164.0155
  24   2.0000      -1.011798       -27.5324
  25   2.0000      -0.992870       -27.0174
  26   2.0000      -0.908242       -24.7145
  27   2.0000      -0.904299       -24.6072
  28   2.0000      -0.872576       -23.7440
  29   2.0000      -0.850725       -23.1494
  30   2.0000      -0.843371       -22.9493
  31   2.0000      -0.812160       -22.1000
  32   2.0000      -0.783460       -21.3190
  33   2.0000      -0.770333       -20.9618
  34   2.0000      -0.701809       -19.0972
  35   2.0000      -0.697670       -18.9846
  36   2.0000      -0.692371       -18.8404
  37   2.0000      -0.661763       -18.0075
  38   2.0000      -0.644332       -17.5332
  39   2.0000      -0.612763       -16.6741
  40   2.0000      -0.596011       -16.2183
  41   2.0000      -0.572364       -15.5748
  42   2.0000      -0.568166       -15.4606
  43   2.0000      -0.544689       -14.8217
  44   2.0000      -0.534265       -14.5381
  45   2.0000      -0.520990       -14.1769
  46   2.0000      -0.518444       -14.1076
  47   2.0000      -0.514377       -13.9969
  48   2.0000      -0.504562       -13.7298
  49   2.0000      -0.497947       -13.5498
  50   2.0000      -0.485656       -13.2154
  51   2.0000      -0.477128       -12.9833
  52   2.0000      -0.473479       -12.8840
  53   2.0000      -0.465183       -12.6583
  54   2.0000      -0.461204       -12.5500
  55   2.0000      -0.448683       -12.2093
  56   2.0000      -0.436748       -11.8845
  57   2.0000      -0.431214       -11.7339
  58   2.0000      -0.427417       -11.6306
  59   2.0000      -0.425594       -11.5810
  60   2.0000      -0.424125       -11.5410
  61   2.0000      -0.417781       -11.3684
  62   2.0000      -0.410191       -11.1619
  63   2.0000      -0.341108        -9.2820
  64   2.0000      -0.330083        -8.9820
  65   2.0000      -0.325436        -8.8556
  66   2.0000      -0.303914        -8.2699
  67   0.0000       0.042563         1.1582
  68   0.0000       0.062243         1.6937
  69   0.0000       0.105417         2.8686
  70   0.0000       0.122580         3.3356
  71   0.0000       0.137228         3.7342

MULLIKEN ATOMIC CHARGES
-----------------------
   0 S :    0.097210
   1 C :   -0.144953
   2 C :   -0.025031
   3 C :    0.020214
   4 C :   -0.178190
   5 H :    0.033728
   6 C :    0.048382
   7 H :    0.020321
   8 H :    0.014331
   9 C :   -0.070791
  10 H :    0.043545
  11 H :    0.018349
  12 C :   -0.045141
  13 H :    0.019203
  14 H :    0.038909
  15 H :    0.019339
  16 S :    0.147372
  17 C :   -0.114114
  18 C :   -0.019478
  19 C :   -0.017192
  20 C :   -0.206028
  21 H :   -0.016417
  22 C :    0.089835
  23 H :    0.034830
  24 H :    0.018408
  25 C :   -0.075799
  26 H :    0.023717
  27 H :    0.037392
  28 C :   -0.049292
  29 H :    0.027374
  30 H :    0.041719
  31 H :    0.038092
  32 H :    0.063363
  33 H :    0.066795
Sum of atomic charges:    0.0000000

LOEWDIN ATOMIC CHARGES
----------------------
   0 S :    0.385834
   1 C :   -0.195653
   2 C :   -0.080575
   3 C :   -0.057892
   4 C :   -0.177425
   5 H :    0.043911
   6 C :   -0.034015
   7 H :    0.027759
   8 H :    0.025609
   9 C :   -0.037670
  10 H :    0.030874
  11 H :    0.017955
  12 C :   -0.068864
  13 H :    0.020597
  14 H :    0.031356
  15 H :    0.017326
  16 S :    0.456260
  17 C :   -0.215199
  18 C :   -0.067787
  19 C :   -0.040097
  20 C :   -0.219997
  21 H :    0.011988
  22 C :   -0.022838
  23 H :    0.034169
  24 H :    0.021697
  25 C :   -0.041878
  26 H :    0.020621
  27 H :    0.029401
  28 C :   -0.068294
  29 H :    0.019213
  30 H :    0.033156
  31 H :    0.030751
  32 H :    0.037242
  33 H :    0.032464

  Mayer bond orders larger than 0.100000
B(  0-S ,  1-C ) :   1.1414 B(  0-S ,  4-C ) :   1.1281 B(  1-C ,  2-C ) :   1.6142
B(  1-C , 32-H ) :   0.9677 B(  2-C ,  3-C ) :   1.2306 B(  2-C ,  6-C ) :   1.0119
B(  3-C ,  4-C ) :   1.5895 B(  3-C ,  5-H ) :   0.9934 B(  4-C , 20-C ) :   1.0422
B(  6-C ,  7-H ) :   0.9441 B(  6-C ,  8-H ) :   0.9460 B(  6-C ,  9-C ) :   1.0722
B(  9-C , 10-H ) :   0.9580 B(  9-C , 11-H ) :   0.9563 B(  9-C , 12-C ) :   1.0691
B( 12-C , 13-H ) :   0.9735 B( 12-C , 14-H ) :   0.9720 B( 12-C , 15-H ) :   0.9789
B( 16-S , 17-C ) :   1.1962 B( 16-S , 20-C ) :   1.1584 B( 17-C , 18-C ) :   1.5745
B( 17-C , 33-H ) :   0.9665 B( 18-C , 19-C ) :   1.2340 B( 18-C , 21-H ) :   1.0068
B( 19-C , 20-C ) :   1.5967 B( 19-C , 22-C ) :   1.0268 B( 22-C , 23-H ) :   0.9384
B( 22-C , 24-H ) :   0.9314 B( 22-C , 25-C ) :   1.0600 B( 25-C , 26-H ) :   0.9507
B( 25-C , 27-H ) :   0.9580 B( 25-C , 28-C ) :   1.0921 B( 28-C , 29-H ) :   0.9724
B( 28-C , 30-H ) :   0.9729 B( 28-C , 31-H ) :   0.9743

Dispersion correction           -0.014720034
FINAL SINGLE POINT ENERGY     -1339.880795730129

DIPOLE MOMENT
-------------
                                X             Y             Z
Electronic contribution:      6.88999      -8.56150      -5.62881
Nuclear contribution   :     -7.01083       8.77699       5.62604
                        -----------------------------------------
Total Dipole Moment    :     -0.12084       0.21548      -0.00277
                        -----------------------------------------
Magnitude (a.u.)       :      0.24707
Magnitude (Debye)      :      0.62799

Rotational constants in cm-1:     0.020757     0.008439     0.006585
Rotational constants in MHz :   622.267152   252.994611   197.409220

                             ****ORCA TERMINATED NORMALLY****
TOTAL RUN TIME: 0 days 0 hours 0 minutes 28 seconds 689 msec
