                         Program Version 4.2.1 -  RELEASE  -
|  1> ! wB97X-D3 SP def2-SVP
|  2> %pal
|  3> nprocs 16
|  4> end
|  5>
|  6> * xyz 0 1
|  7> S 	 0.0994061 	 6.5321 	 81.509
|  8> C 	 -0.0633365 	 6.3313 	 79.733
|  9> C 	 -1.01758 	 7.14843 	 79.2469
| 10> C 	 -1.77674 	 7.76925 	 80.3187
| 11> C 	 -1.4668 	 7.36325 	 81.5542
| 12> H 	 -2.62182 	 8.37954 	 80.1914
| 13> C 	 -1.36724 	 7.40607 	 77.7614
| 14> H 	 -0.804459 	 8.17736 	 77.3322
| 15> H 	 -2.30986 	 7.83449 	 77.6196
| 16> C 	 -1.39203 	 6.15933 	 76.7975
| 17> H 	 -1.5006 	 6.45384 	 75.6821
| 18> H 	 -0.448421 	 5.63363 	 76.8414
| 19> C 	 -2.4496 	 5.15882 	 77.0331
| 20> H 	 -3.49419 	 5.54835 	 76.9781
| 21> H 	 -2.29985 	 4.3479 	 76.3043
| 22> H 	 -2.42304 	 4.58615 	 77.9723
| 23> S 	 -1.39571 	 9.56178 	 83.2812
| 24> C 	 -2.57102 	 9.69685 	 84.5249
| 25> C 	 -3.352 	 8.50095 	 84.6389
| 26> C 	 -3.03395 	 7.55934 	 83.5946
| 27> C 	 -1.99519 	 7.96612 	 82.7983
| 28> H 	 -4.20044 	 8.53276 	 85.3888
| 29> C 	 -3.80869 	 6.29 	 83.5114
| 30> H 	 -3.25518 	 5.50382 	 83.9495
| 31> H 	 -3.79819 	 5.95243 	 82.3908
| 32> C 	 -5.20512 	 6.22755 	 84.0626
| 33> H 	 -5.84168 	 7.02222 	 83.627
| 34> H 	 -5.0409 	 6.50136 	 85.1051
| 35> C 	 -5.85632 	 4.81693 	 84.0812
| 36> H 	 -6.0189 	 4.50735 	 83.0785
| 37> H 	 -6.81522 	 4.8388 	 84.5475
| 38> H 	 -5.22438 	 4.07451 	 84.4624
| 39> H 	 0.612285 	 5.80739 	 79.1157
| 40> H 	 -2.68675 	 10.549 	 85.2314
| 41> *
| 42>
| 43>                          ****END OF INPUT****

CARTESIAN COORDINATES (ANGSTROEM)
---------------------------------
  S      0.099406    6.532100   81.509000
  C     -0.063337    6.331300   79.733000
  C     -1.017580    7.148430   79.246900
  C     -1.776740    7.769250   80.318700
  C     -1.466800    7.363250   81.554200
  H     -2.621820    8.379540   80.191400
  C     -1.367240    7.406070   77.761400
  H     -0.804459    8.177360   77.332200
  H     -2.309860    7.834490   77.619600
  C     -1.392030    6.159330   76.797500
  H     -1.500600    6.453840   75.682100
  H     -0.448421    5.633630   76.841400
  C     -2.449600    5.158820   77.033100
  H     -3.494190    5.548350   76.978100
  H     -2.299850    4.347900   76.304300
  H     -2.423040    4.586150   77.972300
  S     -1.395710    9.561780   83.281200
  C     -2.571020    9.696850   84.524900
  C     -3.352000    8.500950   84.638900
  C     -3.033950    7.559340   83.594600
  C     -1.995190    7.966120   82.798300
  H     -4.200440    8.532760   85.388800
  C     -3.808690    6.290000   83.511400
  H     -3.255180    5.503820   83.949500
  H     -3.798190    5.952430   82.390800
  C     -5.205120    6.227550   84.062600
  H     -5.841680    7.022220   83.627000
  H     -5.040900    6.501360   85.105100
  C     -5.856320    4.816930   84.081200
  H     -6.018900    4.507350   83.078500
  H     -6.815220    4.838800   84.547500
  H     -5.224380    4.074510   84.462400
  H      0.612285    5.807390   79.115700
  H     -2.686750   10.549000   85.231400

 Total Charge           Charge          ....    0
 Multiplicity           Mult            ....    1
 Number of Electrons    NEL             ....  134
 Basis Dimension        Dim             ....  322

ORBITAL ENERGIES
----------------

  NO   OCC          E(Eh)            E(eV)
   0   2.0000     -88.967662     -2420.9332
   1   2.0000     -88.960120     -2420.7279
   2   2.0000     -10.325503      -280.9712
   3   2.0000     -10.324393      -280.9410
   4   2.0000     -10.323221      -280.9091
   5   2.0000     -10.312978      -280.6304
   6   2.0000     -10.304901      -280.4106
   7   2.0000     -10.304002      -280.3862
   8   2.0000     -10.301297      -280.3125
   9   2.0000     -10.293616      -280.1035
  10   2.0000     -10.289200      -279.9834
  11   2.0000     -10.288421      -279.9622
  12   2.0000     -10.288203      -279.9562
  13   2.0000     -10.286760      -279.9170
  14   2.0000     -10.276331      -279.6332
  15   2.0000     -10.271439      -279.5001
  16   2.0000      -8.082345      -219.9318
  17   2.0000      -8.074348      -219.7142
  18   2.0000      -6.040747      -164.3771
  19   2.0000      -6.036733      -164.2679
  20   2.0000      -6.033355      -164.1759
  21   2.0000      -6.033096      -164.1689
  22   2.0000      -6.029244      -164.0641
  23   2.0000      -6.024540      -163.9361
  24   2.0000      -1.004610       -27.3368
  25   2.0000      -0.982589       -26.7376
  26   2.0000      -0.913287       -24.8518
  27   2.0000      -0.908919       -24.7329
  28   2.0000      -0.868521       -23.6337
  29   2.0000      -0.851891       -23.1811
  30   2.0000      -0.843926       -22.9644
  31   2.0000      -0.811711       -22.0878
  32   2.0000      -0.788033       -21.4435
  33   2.0000      -0.779955       -21.2236
  34   2.0000      -0.707496       -19.2520
  35   2.0000      -0.700592       -19.0641
  36   2.0000      -0.690758       -18.7965
  37   2.0000      -0.649519       -17.6743
  38   2.0000      -0.645079       -17.5535
  39   2.0000      -0.614054       -16.7093
  40   2.0000      -0.598590       -16.2885
  41   2.0000      -0.574394       -15.6301
  42   2.0000      -0.565642       -15.3919
  43   2.0000      -0.553097       -15.0505
  44   2.0000      -0.537074       -14.6145
  45   2.0000      -0.528735       -14.3876
  46   2.0000      -0.516224       -14.0472
  47   2.0000      -0.512654       -13.9500
  48   2.0000      -0.504385       -13.7250
  49   2.0000      -0.496230       -13.5031
  50   2.0000      -0.488885       -13.3032
  51   2.0000      -0.474909       -12.9229
  52   2.0000      -0.471446       -12.8287
  53   2.0000      -0.470019       -12.7899
  54   2.0000      -0.459068       -12.4919
  55   2.0000      -0.450727       -12.2649
  56   2.0000      -0.442919       -12.0524
  57   2.0000      -0.438717       -11.9381
  58   2.0000      -0.428980       -11.6731
  59   2.0000      -0.426551       -11.6070
  60   2.0000      -0.419454       -11.4139
  61   2.0000      -0.412172       -11.2158
  62   2.0000      -0.405643       -11.0381
  63   2.0000      -0.333519        -9.0755
  64   2.0000      -0.327448        -8.9103
  65   2.0000      -0.324071        -8.8184
  66   2.0000      -0.312932        -8.5153
  67   0.0000       0.043442         1.1821
  68   0.0000       0.050683         1.3792
  69   0.0000       0.106253         2.8913
  70   0.0000       0.126654         3.4464
  71   0.0000       0.127975         3.4824

MULLIKEN ATOMIC CHARGES
-----------------------
   0 S :    0.080753
   1 C :   -0.107217
   2 C :   -0.060515
   3 C :    0.045235
   4 C :   -0.149200
   5 H :   -0.001612
   6 C :    0.141188
   7 H :    0.022240
   8 H :   -0.006614
   9 C :   -0.111219
  10 H :    0.039678
  11 H :    0.021689
  12 C :   -0.062186
  13 H :    0.033218
  14 H :    0.030191
  15 H :    0.033386
  16 S :    0.132343
  17 C :   -0.119011
  18 C :   -0.084163
  19 C :    0.005201
  20 C :   -0.183830
  21 H :    0.050413
  22 C :    0.053810
  23 H :    0.024715
  24 H :    0.033535
  25 C :   -0.118195
  26 H :    0.038622
  27 H :    0.030169
  28 C :    0.021450
  29 H :    0.012698
  30 H :    0.033127
  31 H :    0.017919
  32 H :    0.028868
  33 H :    0.073315
Sum of atomic charges:   -0.0000000

LOEWDIN ATOMIC CHARGES
----------------------
   0 S :    0.363093
   1 C :   -0.164278
   2 C :   -0.057102
   3 C :   -0.046580
   4 C :   -0.185440
   5 H :    0.024857
   6 C :   -0.025470
   7 H :    0.028871
   8 H :    0.022333
   9 C :   -0.046854
  10 H :    0.036987
  11 H :    0.018331
  12 C :   -0.076486
  13 H :    0.026090
  14 H :    0.030139
  15 H :    0.025922
  16 S :    0.421247
  17 C :   -0.202561
  18 C :   -0.088374
  19 C :   -0.050262
  20 C :   -0.206268
  21 H :    0.042295
  22 C :   -0.041106
  23 H :    0.029989
  24 H :    0.038505
  25 C :   -0.042979
  26 H :    0.027210
  27 H :    0.021399
  28 C :   -0.050587
  29 H :    0.021600
  30 H :    0.027381
  31 H :    0.020441
  32 H :    0.019607
  33 H :    0.038050

  Mayer bond orders larger than 0.100000
B(  0-S ,  1-C ) :   1.1157 B(  0-S ,  4-C ) :   1.1135 B(  1-C ,  2-C ) :   1.6689
B(  1-C , 32-H ) :   0.9748 B(  2-C ,  3-C ) :   1.1879 B(  2-C ,  6-C ) :   1.0013
B(  3-C ,  4-C ) :   1.6486 B(  3-C ,  5-H ) :   1.0059 B(  4-C , 20-C ) :   1.0038
B(  6-C ,  7-H ) :   0.9324 B(  6-C ,  8-H ) :   0.9403 B(  6-C ,  9-C ) :   1.0673
B(  9-C , 10-H ) :   0.9542 B(  9-C , 11-H ) :   0.9552 B(  9-C , 12-C ) :   1.0889
B( 12-C , 13-H ) :   0.9732 B( 12-C , 14-H ) :   0.9697 B( 12-C , 15-H ) :   0.9713
B( 16-S , 17-C ) :   1.1856 B( 16-S , 20-C ) :   1.1386 B( 17-C , 18-C ) :   1.5931
B( 17-C , 33-H ) :   0.9595 B( 18-C , 19-C ) :   1.2398 B( 18-C , 21-H ) :   0.9749
B( 19-C , 20-C ) :   1.6155 B( 19-C , 22-C ) :   1.0462 B( 22-C , 23-H ) :   0.9238
B( 22-C , 24-H ) :   0.9231 B( 22-C , 25-C ) :   1.0700 B( 25-C , 26-H ) :   0.9597
B( 25-C , 27-H ) :   0.9407 B( 25-C , 28-C ) :   1.0845 B( 28-C , 29-H ) :   0.9724
B( 28-C , 30-H ) :   0.9725 B( 28-C , 31-H ) :   0.9712

Dispersion correction           -0.013625473
FINAL SINGLE POINT ENERGY     -1339.858441283811

DIPOLE MOMENT
-------------
                                X             Y             Z
Electronic contribution:     18.74996      15.07942      12.25379
Nuclear contribution   :    -19.26510     -15.11706     -12.55776
                        -----------------------------------------
Total Dipole Moment    :     -0.51514      -0.03764      -0.30397
                        -----------------------------------------
Magnitude (a.u.)       :      0.59932
Magnitude (Debye)      :      1.52335

Rotational constants in cm-1:     0.017749     0.008003     0.006342
Rotational constants in MHz :   532.089669   239.931491   190.116075

                             ****ORCA TERMINATED NORMALLY****
TOTAL RUN TIME: 0 days 0 hours 0 minutes 32 seconds 816 msec
