                         Program Version 4.2.1 -  RELEASE  -
|  1> ! wB97X-D3 SP def2-SVP
|  2> %pal
|  3> nprocs 16
|  4> end
|  5>
|  6> * xyz 0 1
|  7> S 	 -30.0071 	 0.279081 	 101.295
|  8> C 	 -30.7667 	 -0.472395 	 102.699
|  9> C 	 -31.4037 	 0.451602 	 103.518
| 10> C 	 -31.1541 	 1.79261 	 103.072
| 11> C 	 -30.3676 	 1.87165 	 101.955
| 12> H 	 -31.492 	 2.64966 	 103.612
| 13> C 	 -32.3637 	 0.235249 	 104.705
| 14> H 	 -32.5725 	 -0.806992 	 104.545
| 15> H 	 -33.1938 	 0.860717 	 104.65
| 16> C 	 -31.8178 	 0.600294 	 106.097
| 17> H 	 -31.4976 	 1.73581 	 106.082
| 18> H 	 -32.6146 	 0.418729 	 106.83
| 19> C 	 -30.6691 	 -0.385772 	 106.536
| 20> H 	 -29.8995 	 -0.43997 	 105.869
| 21> H 	 -30.2445 	 -0.172072 	 107.563
| 22> H 	 -31.1006 	 -1.35261 	 106.575
| 23> S 	 -28.1361 	 3.31807 	 101.089
| 24> C 	 -28.4717 	 4.85546 	 100.364
| 25> C 	 -29.7497 	 5.33699 	 100.623
| 26> C 	 -30.6504 	 4.27375 	 101.081
| 27> C 	 -29.9516 	 3.10043 	 101.3
| 28> H 	 -30.0434 	 6.31166 	 100.375
| 29> C 	 -32.1474 	 4.49115 	 101.259
| 30> H 	 -32.7439 	 3.58261 	 101.248
| 31> H 	 -32.6977 	 5.05893 	 100.448
| 32> C 	 -32.4626 	 5.25107 	 102.508
| 33> H 	 -31.9658 	 6.20825 	 102.363
| 34> H 	 -31.9881 	 4.90043 	 103.417
| 35> C 	 -33.9827 	 5.44536 	 102.685
| 36> H 	 -34.3791 	 4.53248 	 103.129
| 37> H 	 -34.505 	 5.7404 	 101.798
| 38> H 	 -34.1621 	 6.20366 	 103.405
| 39> H 	 -30.9966 	 -1.52415 	 102.826
| 40> H 	 -27.6733 	 5.41669 	 99.9694
| 41> *
| 42>
| 43>                          ****END OF INPUT****

CARTESIAN COORDINATES (ANGSTROEM)
---------------------------------
  S    -30.007100    0.279081  101.295000
  C    -30.766700   -0.472395  102.699000
  C    -31.403700    0.451602  103.518000
  C    -31.154100    1.792610  103.072000
  C    -30.367600    1.871650  101.955000
  H    -31.492000    2.649660  103.612000
  C    -32.363700    0.235249  104.705000
  H    -32.572500   -0.806992  104.545000
  H    -33.193800    0.860717  104.650000
  C    -31.817800    0.600294  106.097000
  H    -31.497600    1.735810  106.082000
  H    -32.614600    0.418729  106.830000
  C    -30.669100   -0.385772  106.536000
  H    -29.899500   -0.439970  105.869000
  H    -30.244500   -0.172072  107.563000
  H    -31.100600   -1.352610  106.575000
  S    -28.136100    3.318070  101.089000
  C    -28.471700    4.855460  100.364000
  C    -29.749700    5.336990  100.623000
  C    -30.650400    4.273750  101.081000
  C    -29.951600    3.100430  101.300000
  H    -30.043400    6.311660  100.375000
  C    -32.147400    4.491150  101.259000
  H    -32.743900    3.582610  101.248000
  H    -32.697700    5.058930  100.448000
  C    -32.462600    5.251070  102.508000
  H    -31.965800    6.208250  102.363000
  H    -31.988100    4.900430  103.417000
  C    -33.982700    5.445360  102.685000
  H    -34.379100    4.532480  103.129000
  H    -34.505000    5.740400  101.798000
  H    -34.162100    6.203660  103.405000
  H    -30.996600   -1.524150  102.826000
  H    -27.673300    5.416690   99.969400

 Total Charge           Charge          ....    0
 Multiplicity           Mult            ....    1
 Number of Electrons    NEL             ....  134
 Basis Dimension        Dim             ....  322

ORBITAL ENERGIES
----------------

  NO   OCC          E(Eh)            E(eV)
   0   2.0000     -88.968129     -2420.9459
   1   2.0000     -88.962914     -2420.8040
   2   2.0000     -10.329791      -281.0879
   3   2.0000     -10.326392      -280.9954
   4   2.0000     -10.316508      -280.7264
   5   2.0000     -10.316252      -280.7195
   6   2.0000     -10.311425      -280.5882
   7   2.0000     -10.301412      -280.3157
   8   2.0000     -10.301360      -280.3142
   9   2.0000     -10.296276      -280.1759
  10   2.0000     -10.295227      -280.1474
  11   2.0000     -10.290538      -280.0198
  12   2.0000     -10.288907      -279.9754
  13   2.0000     -10.284756      -279.8624
  14   2.0000     -10.276933      -279.6496
  15   2.0000     -10.270515      -279.4749
  16   2.0000      -8.082292      -219.9303
  17   2.0000      -8.077209      -219.7920
  18   2.0000      -6.040928      -164.3820
  19   2.0000      -6.036983      -164.2747
  20   2.0000      -6.035666      -164.2388
  21   2.0000      -6.032843      -164.1620
  22   2.0000      -6.032153      -164.1432
  23   2.0000      -6.027674      -164.0213
  24   2.0000      -1.000807       -27.2333
  25   2.0000      -0.977500       -26.5991
  26   2.0000      -0.916778       -24.9468
  27   2.0000      -0.909740       -24.7553
  28   2.0000      -0.866444       -23.5772
  29   2.0000      -0.850251       -23.1365
  30   2.0000      -0.842844       -22.9350
  31   2.0000      -0.808989       -22.0137
  32   2.0000      -0.788031       -21.4434
  33   2.0000      -0.777905       -21.1679
  34   2.0000      -0.707370       -19.2485
  35   2.0000      -0.700104       -19.0508
  36   2.0000      -0.693897       -18.8819
  37   2.0000      -0.664119       -18.0716
  38   2.0000      -0.636239       -17.3129
  39   2.0000      -0.621933       -16.9237
  40   2.0000      -0.605625       -16.4799
  41   2.0000      -0.569680       -15.5018
  42   2.0000      -0.564749       -15.3676
  43   2.0000      -0.553313       -15.0564
  44   2.0000      -0.542750       -14.7690
  45   2.0000      -0.522879       -14.2283
  46   2.0000      -0.520271       -14.1573
  47   2.0000      -0.514953       -14.0126
  48   2.0000      -0.503138       -13.6911
  49   2.0000      -0.489854       -13.3296
  50   2.0000      -0.488009       -13.2794
  51   2.0000      -0.478877       -13.0309
  52   2.0000      -0.468432       -12.7467
  53   2.0000      -0.460866       -12.5408
  54   2.0000      -0.457280       -12.4432
  55   2.0000      -0.455626       -12.3982
  56   2.0000      -0.448806       -12.2126
  57   2.0000      -0.444010       -12.0821
  58   2.0000      -0.435174       -11.8417
  59   2.0000      -0.427050       -11.6206
  60   2.0000      -0.424527       -11.5520
  61   2.0000      -0.414936       -11.2910
  62   2.0000      -0.410246       -11.1634
  63   2.0000      -0.343499        -9.3471
  64   2.0000      -0.333364        -9.0713
  65   2.0000      -0.326043        -8.8721
  66   2.0000      -0.293824        -7.9954
  67   0.0000       0.027034         0.7356
  68   0.0000       0.068541         1.8651
  69   0.0000       0.098924         2.6919
  70   0.0000       0.106249         2.8912
  71   0.0000       0.126050         3.4300

MULLIKEN ATOMIC CHARGES
-----------------------
   0 S :    0.117531
   1 C :   -0.113660
   2 C :   -0.120351
   3 C :    0.040034
   4 C :   -0.142457
   5 H :   -0.014673
   6 C :    0.110878
   7 H :    0.012484
   8 H :    0.018114
   9 C :   -0.114616
  10 H :    0.051636
  11 H :    0.040900
  12 C :   -0.026903
  13 H :    0.020069
  14 H :    0.040502
  15 H :    0.012282
  16 S :    0.087553
  17 C :   -0.067310
  18 C :   -0.009206
  19 C :   -0.003735
  20 C :   -0.145226
  21 H :    0.003063
  22 C :    0.041953
  23 H :    0.022686
  24 H :    0.030620
  25 C :   -0.106097
  26 H :    0.015040
  27 H :    0.029403
  28 C :   -0.001882
  29 H :    0.030819
  30 H :    0.028187
  31 H :    0.022509
  32 H :    0.044616
  33 H :    0.045239
Sum of atomic charges:   -0.0000000

LOEWDIN ATOMIC CHARGES
----------------------
   0 S :    0.398317
   1 C :   -0.199950
   2 C :   -0.058990
   3 C :   -0.055379
   4 C :   -0.192346
   5 H :    0.024084
   6 C :   -0.024591
   7 H :    0.027159
   8 H :    0.025352
   9 C :   -0.039757
  10 H :    0.034073
  11 H :    0.026237
  12 C :   -0.060313
  13 H :    0.009736
  14 H :    0.032614
  15 H :    0.019738
  16 S :    0.368033
  17 C :   -0.169629
  18 C :   -0.060222
  19 C :   -0.041179
  20 C :   -0.170231
  21 H :    0.020743
  22 C :   -0.038467
  23 H :    0.027359
  24 H :    0.037800
  25 C :   -0.042207
  26 H :    0.020456
  27 H :    0.019461
  28 C :   -0.056242
  29 H :    0.027396
  30 H :    0.023015
  31 H :    0.023233
  32 H :    0.027411
  33 H :    0.017283

  Mayer bond orders larger than 0.100000
B(  0-S ,  1-C ) :   1.1263 B(  0-S ,  4-C ) :   1.1411 B(  1-C ,  2-C ) :   1.6374
B(  1-C , 32-H ) :   0.9582 B(  2-C ,  3-C ) :   1.2276 B(  2-C ,  6-C ) :   1.0130
B(  3-C ,  4-C ) :   1.5865 B(  3-C ,  5-H ) :   0.9974 B(  4-C , 20-C ) :   1.0396
B(  6-C ,  7-H ) :   0.9390 B(  6-C ,  8-H ) :   0.9405 B(  6-C ,  9-C ) :   1.0674
B(  9-C , 10-H ) :   0.9541 B(  9-C , 11-H ) :   0.9580 B(  9-C , 12-C ) :   1.0606
B( 12-C , 13-H ) :   0.9818 B( 12-C , 14-H ) :   0.9764 B( 12-C , 15-H ) :   0.9733
B( 16-S , 17-C ) :   1.1489 B( 16-S , 20-C ) :   1.1118 B( 17-C , 18-C ) :   1.6312
B( 17-C , 33-H ) :   0.9733 B( 18-C , 19-C ) :   1.1899 B( 18-C , 21-H ) :   0.9956
B( 19-C , 20-C ) :   1.6483 B( 19-C , 22-C ) :   1.0366 B( 22-C , 23-H ) :   0.9390
B( 22-C , 24-H ) :   0.9380 B( 22-C , 25-C ) :   1.0530 B( 25-C , 26-H ) :   0.9527
B( 25-C , 27-H ) :   0.9512 B( 25-C , 28-C ) :   1.0823 B( 28-C , 29-H ) :   0.9739
B( 28-C , 30-H ) :   0.9720 B( 28-C , 31-H ) :   0.9722

Dispersion correction           -0.014592336
FINAL SINGLE POINT ENERGY     -1339.862874532875

DIPOLE MOMENT
-------------
                                X             Y             Z
Electronic contribution:     19.92935      -4.97399     -19.72945
Nuclear contribution   :    -20.56715       5.33587      20.11742
                        -----------------------------------------
Total Dipole Moment    :     -0.63780       0.36188       0.38797
                        -----------------------------------------
Magnitude (a.u.)       :      0.82962
Magnitude (Debye)      :      2.10873

Rotational constants in cm-1:     0.016745     0.009456     0.007080
Rotational constants in MHz :   502.014545   283.483442   212.238609

                             ****ORCA TERMINATED NORMALLY****
TOTAL RUN TIME: 0 days 0 hours 0 minutes 30 seconds 550 msec
