                         Program Version 4.2.1 -  RELEASE  -
|  1> ! wB97X-D3 SP def2-SVP
|  2> %pal
|  3> nprocs 16
|  4> end
|  5>
|  6> * xyz 0 1
|  7> S 	 30.7158 	 -5.34413 	 78.8678
|  8> C 	 31.6333 	 -3.88696 	 78.7404
|  9> C 	 30.7766 	 -2.82667 	 78.6065
| 10> C 	 29.3912 	 -3.19957 	 78.6056
| 11> C 	 29.1902 	 -4.55326 	 78.7678
| 12> H 	 28.6442 	 -2.47299 	 78.2786
| 13> C 	 31.281 	 -1.41048 	 78.5494
| 14> H 	 30.4398 	 -0.663068 	 78.4541
| 15> H 	 31.6949 	 -1.42895 	 77.5472
| 16> C 	 32.4276 	 -1.061 	 79.511
| 17> H 	 33.296 	 -1.67082 	 79.2836
| 18> H 	 32.6382 	 0.0270557 	 79.3078
| 19> C 	 31.9391 	 -1.10808 	 80.9487
| 20> H 	 32.6614 	 -0.52892 	 81.5636
| 21> H 	 30.9617 	 -0.660127 	 81.1148
| 22> H 	 31.9199 	 -2.0669 	 81.4019
| 23> S 	 27.9939 	 -6.19116 	 76.8937
| 24> C 	 26.2598 	 -6.50369 	 76.9878
| 25> C 	 25.7275 	 -6.06209 	 78.1931
| 26> C 	 26.7071 	 -5.37429 	 79.0039
| 27> C 	 27.9833 	 -5.3129 	 78.4431
| 28> H 	 24.6383 	 -6.1191 	 78.331
| 29> C 	 26.3264 	 -4.5995 	 80.2625
| 30> H 	 25.2248 	 -4.64918 	 80.2976
| 31> H 	 26.6682 	 -3.56217 	 80.0746
| 32> C 	 26.8883 	 -5.14411 	 81.5605
| 33> H 	 26.8998 	 -4.48538 	 82.3819
| 34> H 	 27.9821 	 -5.36328 	 81.4528
| 35> C 	 26.1554 	 -6.3741 	 82.1293
| 36> H 	 25.9604 	 -7.01149 	 81.2637
| 37> H 	 25.261 	 -6.06077 	 82.6757
| 38> H 	 26.6869 	 -6.98287 	 82.8329
| 39> H 	 32.6852 	 -3.86665 	 78.8071
| 40> H 	 25.7792 	 -7.11778 	 76.2346
| 41> *
| 42>
| 43>                          ****END OF INPUT****

CARTESIAN COORDINATES (ANGSTROEM)
---------------------------------
  S     30.715800   -5.344130   78.867800
  C     31.633300   -3.886960   78.740400
  C     30.776600   -2.826670   78.606500
  C     29.391200   -3.199570   78.605600
  C     29.190200   -4.553260   78.767800
  H     28.644200   -2.472990   78.278600
  C     31.281000   -1.410480   78.549400
  H     30.439800   -0.663068   78.454100
  H     31.694900   -1.428950   77.547200
  C     32.427600   -1.061000   79.511000
  H     33.296000   -1.670820   79.283600
  H     32.638200    0.027056   79.307800
  C     31.939100   -1.108080   80.948700
  H     32.661400   -0.528920   81.563600
  H     30.961700   -0.660127   81.114800
  H     31.919900   -2.066900   81.401900
  S     27.993900   -6.191160   76.893700
  C     26.259800   -6.503690   76.987800
  C     25.727500   -6.062090   78.193100
  C     26.707100   -5.374290   79.003900
  C     27.983300   -5.312900   78.443100
  H     24.638300   -6.119100   78.331000
  C     26.326400   -4.599500   80.262500
  H     25.224800   -4.649180   80.297600
  H     26.668200   -3.562170   80.074600
  C     26.888300   -5.144110   81.560500
  H     26.899800   -4.485380   82.381900
  H     27.982100   -5.363280   81.452800
  C     26.155400   -6.374100   82.129300
  H     25.960400   -7.011490   81.263700
  H     25.261000   -6.060770   82.675700
  H     26.686900   -6.982870   82.832900
  H     32.685200   -3.866650   78.807100
  H     25.779200   -7.117780   76.234600

 Total Charge           Charge          ....    0
 Multiplicity           Mult            ....    1
 Number of Electrons    NEL             ....  134
 Basis Dimension        Dim             ....  322

ORBITAL ENERGIES
----------------

  NO   OCC          E(Eh)            E(eV)
   0   2.0000     -88.963657     -2420.8242
   1   2.0000     -88.962700     -2420.7981
   2   2.0000     -10.329226      -281.0725
   3   2.0000     -10.328460      -281.0517
   4   2.0000     -10.320804      -280.8434
   5   2.0000     -10.308199      -280.5004
   6   2.0000     -10.306814      -280.4627
   7   2.0000     -10.300153      -280.2814
   8   2.0000     -10.298216      -280.2287
   9   2.0000     -10.295569      -280.1567
  10   2.0000     -10.294430      -280.1257
  11   2.0000     -10.293228      -280.0930
  12   2.0000     -10.291833      -280.0550
  13   2.0000     -10.277641      -279.6688
  14   2.0000     -10.273390      -279.5531
  15   2.0000     -10.269912      -279.4585
  16   2.0000      -8.079410      -219.8519
  17   2.0000      -8.076950      -219.7850
  18   2.0000      -6.037877      -164.2990
  19   2.0000      -6.035478      -164.2337
  20   2.0000      -6.033589      -164.1823
  21   2.0000      -6.031453      -164.1242
  22   2.0000      -6.030318      -164.0933
  23   2.0000      -6.027768      -164.0239
  24   2.0000      -1.009662       -27.4743
  25   2.0000      -0.982019       -26.7221
  26   2.0000      -0.916056       -24.9271
  27   2.0000      -0.905351       -24.6358
  28   2.0000      -0.868528       -23.6339
  29   2.0000      -0.849212       -23.1082
  30   2.0000      -0.843029       -22.9400
  31   2.0000      -0.815302       -22.1855
  32   2.0000      -0.782263       -21.2865
  33   2.0000      -0.770457       -20.9652
  34   2.0000      -0.708130       -19.2692
  35   2.0000      -0.704541       -19.1715
  36   2.0000      -0.686803       -18.6889
  37   2.0000      -0.661652       -18.0045
  38   2.0000      -0.644056       -17.5256
  39   2.0000      -0.611107       -16.6291
  40   2.0000      -0.585981       -15.9454
  41   2.0000      -0.578502       -15.7419
  42   2.0000      -0.558314       -15.1925
  43   2.0000      -0.552720       -15.0403
  44   2.0000      -0.548486       -14.9251
  45   2.0000      -0.539298       -14.6750
  46   2.0000      -0.519896       -14.1471
  47   2.0000      -0.509000       -13.8506
  48   2.0000      -0.504381       -13.7249
  49   2.0000      -0.492748       -13.4084
  50   2.0000      -0.483947       -13.1689
  51   2.0000      -0.479271       -13.0416
  52   2.0000      -0.470164       -12.7938
  53   2.0000      -0.468438       -12.7469
  54   2.0000      -0.459402       -12.5010
  55   2.0000      -0.449054       -12.2194
  56   2.0000      -0.441547       -12.0151
  57   2.0000      -0.434855       -11.8330
  58   2.0000      -0.426742       -11.6122
  59   2.0000      -0.425687       -11.5835
  60   2.0000      -0.416090       -11.3224
  61   2.0000      -0.412654       -11.2289
  62   2.0000      -0.405480       -11.0337
  63   2.0000      -0.343744        -9.3537
  64   2.0000      -0.328817        -8.9476
  65   2.0000      -0.321742        -8.7550
  66   2.0000      -0.300946        -8.1892
  67   0.0000       0.034719         0.9447
  68   0.0000       0.057450         1.5633
  69   0.0000       0.120217         3.2713
  70   0.0000       0.125490         3.4147
  71   0.0000       0.127209         3.4615

MULLIKEN ATOMIC CHARGES
-----------------------
   0 S :    0.109643
   1 C :   -0.121621
   2 C :   -0.106547
   3 C :    0.045868
   4 C :   -0.156450
   5 H :    0.023944
   6 C :    0.040298
   7 H :    0.028600
   8 H :    0.034355
   9 C :   -0.069063
  10 H :    0.034617
  11 H :    0.038547
  12 C :   -0.036192
  13 H :    0.028185
  14 H :    0.029929
  15 H :    0.031839
  16 S :    0.100259
  17 C :   -0.111292
  18 C :   -0.031135
  19 C :   -0.064927
  20 C :   -0.148254
  21 H :    0.035641
  22 C :    0.085956
  23 H :    0.017082
  24 H :    0.041194
  25 C :   -0.057785
  26 H :    0.011908
  27 H :    0.034730
  28 C :   -0.057068
  29 H :    0.030185
  30 H :    0.031313
  31 H :    0.026595
  32 H :    0.034085
  33 H :    0.065560
Sum of atomic charges:    0.0000000

LOEWDIN ATOMIC CHARGES
----------------------
   0 S :    0.431442
   1 C :   -0.200028
   2 C :   -0.064469
   3 C :   -0.063790
   4 C :   -0.210687
   5 H :    0.034935
   6 C :   -0.044377
   7 H :    0.032946
   8 H :    0.036331
   9 C :   -0.038063
  10 H :    0.023723
  11 H :    0.034925
  12 C :   -0.066599
  13 H :    0.028286
  14 H :    0.027557
  15 H :    0.020922
  16 S :    0.389833
  17 C :   -0.176257
  18 C :   -0.079781
  19 C :   -0.055214
  20 C :   -0.194214
  21 H :    0.038196
  22 C :   -0.029773
  23 H :    0.029595
  24 H :    0.039425
  25 C :   -0.045406
  26 H :    0.015888
  27 H :    0.029635
  28 C :   -0.065454
  29 H :    0.024980
  30 H :    0.024467
  31 H :    0.023031
  32 H :    0.019088
  33 H :    0.028906

  Mayer bond orders larger than 0.100000
B(  0-S ,  1-C ) :   1.1440 B(  0-S ,  4-C ) :   1.1747 B(  1-C ,  2-C ) :   1.5812
B(  1-C , 32-H ) :   0.9813 B(  2-C ,  3-C ) :   1.2803 B(  2-C ,  6-C ) :   1.0024
B(  3-C ,  4-C ) :   1.5456 B(  3-C ,  5-H ) :   0.9866 B(  4-C , 20-C ) :   1.0091
B(  6-C ,  7-H ) :   0.9478 B(  6-C ,  8-H ) :   0.9280 B(  6-C ,  9-C ) :   1.0878
B(  9-C , 10-H ) :   0.9499 B(  9-C , 11-H ) :   0.9537 B(  9-C , 12-C ) :   1.0759
B( 12-C , 13-H ) :   0.9752 B( 12-C , 14-H ) :   0.9744 B( 12-C , 15-H ) :   0.9738
B( 16-S , 17-C ) :   1.1655 B( 16-S , 20-C ) :   1.1329 B( 17-C , 18-C ) :   1.6045
B( 17-C , 20-C ) :   0.1007 B( 17-C , 33-H ) :   0.9661 B( 18-C , 19-C ) :   1.2369
B( 18-C , 21-H ) :   0.9864 B( 19-C , 20-C ) :   1.6135 B( 19-C , 22-C ) :   1.0330
B( 22-C , 23-H ) :   0.9379 B( 22-C , 24-H ) :   0.9313 B( 22-C , 25-C ) :   1.0664
B( 25-C , 26-H ) :   0.9574 B( 25-C , 27-H ) :   0.9580 B( 25-C , 28-C ) :   1.0689
B( 28-C , 29-H ) :   0.9802 B( 28-C , 30-H ) :   0.9764 B( 28-C , 31-H ) :   0.9744

Dispersion correction           -0.014573336
FINAL SINGLE POINT ENERGY     -1339.881571309109

DIPOLE MOMENT
-------------
                                X             Y             Z
Electronic contribution:      0.52228     -14.65333     -18.13829
Nuclear contribution   :     -0.57956      15.23161      18.21157
                        -----------------------------------------
Total Dipole Moment    :     -0.05728       0.57827       0.07328
                        -----------------------------------------
Magnitude (a.u.)       :      0.58571
Magnitude (Debye)      :      1.48875

Rotational constants in cm-1:     0.021220     0.008272     0.006889
Rotational constants in MHz :   636.155056   247.982328   206.526935

                             ****ORCA TERMINATED NORMALLY****
TOTAL RUN TIME: 0 days 0 hours 0 minutes 30 seconds 688 msec
