                         Program Version 4.2.1 -  RELEASE  -
|  1> ! wB97X-D3 SP def2-SVP
|  2> %pal
|  3> nprocs 16
|  4> end
|  5>
|  6> * xyz 0 1
|  7> S 	 -4.6601 	 73.2322 	 47.7678
|  8> C 	 -3.1172 	 74.0591 	 47.626
|  9> C 	 -2.09631 	 73.3629 	 48.2179
| 10> C 	 -2.53825 	 72.2533 	 48.84
| 11> C 	 -3.88742 	 71.9647 	 48.6787
| 12> H 	 -1.93953 	 71.5647 	 49.4318
| 13> C 	 -0.64965 	 73.7538 	 48.288
| 14> H 	 -0.583037 	 74.8042 	 47.867
| 15> H 	 -0.114561 	 73.1221 	 47.5891
| 16> C 	 0.0623728 	 73.6081 	 49.6272
| 17> H 	 -0.477933 	 74.1773 	 50.3667
| 18> H 	 0.135404 	 72.6118 	 50.0236
| 19> C 	 1.46527 	 74.1373 	 49.4933
| 20> H 	 1.90608 	 74.0169 	 50.5134
| 21> H 	 2.03193 	 73.4444 	 48.8736
| 22> H 	 1.52008 	 75.083 	 49.0588
| 23> S 	 -5.88597 	 71.4719 	 50.4408
| 24> C 	 -6.05199 	 69.875 	 51.1227
| 25> C 	 -5.22178 	 68.9608 	 50.4725
| 26> C 	 -4.49563 	 69.5696 	 49.4071
| 27> C 	 -4.62794 	 70.9283 	 49.3613
| 28> H 	 -5.09787 	 67.9439 	 50.894
| 29> C 	 -3.60232 	 68.7503 	 48.44
| 30> H 	 -3.51983 	 67.7784 	 48.9042
| 31> H 	 -2.58274 	 69.085 	 48.4967
| 32> C 	 -3.98991 	 68.7068 	 47.0075
| 33> H 	 -3.14476 	 68.3077 	 46.4282
| 34> H 	 -4.25773 	 69.6858 	 46.6153
| 35> C 	 -5.36445 	 68.0286 	 46.9171
| 36> H 	 -5.35665 	 66.9949 	 47.2265
| 37> H 	 -5.62631 	 68.1801 	 45.8654
| 38> H 	 -6.15659 	 68.4789 	 47.4975
| 39> H 	 -3.00488 	 75.0132 	 47.0943
| 40> H 	 -6.67483 	 69.7305 	 52.0131
| 41> *
| 42>
| 43>                          ****END OF INPUT****

CARTESIAN COORDINATES (ANGSTROEM)
---------------------------------
  S     -4.660100   73.232200   47.767800
  C     -3.117200   74.059100   47.626000
  C     -2.096310   73.362900   48.217900
  C     -2.538250   72.253300   48.840000
  C     -3.887420   71.964700   48.678700
  H     -1.939530   71.564700   49.431800
  C     -0.649650   73.753800   48.288000
  H     -0.583037   74.804200   47.867000
  H     -0.114561   73.122100   47.589100
  C      0.062373   73.608100   49.627200
  H     -0.477933   74.177300   50.366700
  H      0.135404   72.611800   50.023600
  C      1.465270   74.137300   49.493300
  H      1.906080   74.016900   50.513400
  H      2.031930   73.444400   48.873600
  H      1.520080   75.083000   49.058800
  S     -5.885970   71.471900   50.440800
  C     -6.051990   69.875000   51.122700
  C     -5.221780   68.960800   50.472500
  C     -4.495630   69.569600   49.407100
  C     -4.627940   70.928300   49.361300
  H     -5.097870   67.943900   50.894000
  C     -3.602320   68.750300   48.440000
  H     -3.519830   67.778400   48.904200
  H     -2.582740   69.085000   48.496700
  C     -3.989910   68.706800   47.007500
  H     -3.144760   68.307700   46.428200
  H     -4.257730   69.685800   46.615300
  C     -5.364450   68.028600   46.917100
  H     -5.356650   66.994900   47.226500
  H     -5.626310   68.180100   45.865400
  H     -6.156590   68.478900   47.497500
  H     -3.004880   75.013200   47.094300
  H     -6.674830   69.730500   52.013100

 Total Charge           Charge          ....    0
 Multiplicity           Mult            ....    1
 Number of Electrons    NEL             ....  134
 Basis Dimension        Dim             ....  322

ORBITAL ENERGIES
----------------

  NO   OCC          E(Eh)            E(eV)
   0   2.0000     -88.968222     -2420.9484
   1   2.0000     -88.961792     -2420.7734
   2   2.0000     -10.324569      -280.9458
   3   2.0000     -10.320149      -280.8255
   4   2.0000     -10.319179      -280.7991
   5   2.0000     -10.312404      -280.6148
   6   2.0000     -10.301206      -280.3101
   7   2.0000     -10.298577      -280.2385
   8   2.0000     -10.293529      -280.1012
   9   2.0000     -10.289500      -279.9915
  10   2.0000     -10.283681      -279.8332
  11   2.0000     -10.282354      -279.7971
  12   2.0000     -10.282317      -279.7961
  13   2.0000     -10.279323      -279.7146
  14   2.0000     -10.274996      -279.5969
  15   2.0000     -10.266894      -279.3764
  16   2.0000      -8.082826      -219.9449
  17   2.0000      -8.077172      -219.7910
  18   2.0000      -6.041149      -164.3880
  19   2.0000      -6.037339      -164.2843
  20   2.0000      -6.035503      -164.2344
  21   2.0000      -6.033824      -164.1887
  22   2.0000      -6.031592      -164.1280
  23   2.0000      -6.028064      -164.0320
  24   2.0000      -1.012131       -27.5415
  25   2.0000      -0.988821       -26.9072
  26   2.0000      -0.919975       -25.0338
  27   2.0000      -0.912026       -24.8175
  28   2.0000      -0.873564       -23.7709
  29   2.0000      -0.854471       -23.2513
  30   2.0000      -0.844781       -22.9877
  31   2.0000      -0.810704       -22.0604
  32   2.0000      -0.782719       -21.2989
  33   2.0000      -0.772664       -21.0253
  34   2.0000      -0.711738       -19.3674
  35   2.0000      -0.699017       -19.0212
  36   2.0000      -0.687221       -18.7002
  37   2.0000      -0.663390       -18.0518
  38   2.0000      -0.640415       -17.4266
  39   2.0000      -0.623587       -16.9687
  40   2.0000      -0.593963       -16.1626
  41   2.0000      -0.576836       -15.6965
  42   2.0000      -0.567387       -15.4394
  43   2.0000      -0.550704       -14.9854
  44   2.0000      -0.545549       -14.8451
  45   2.0000      -0.530971       -14.4485
  46   2.0000      -0.516392       -14.0517
  47   2.0000      -0.508102       -13.8262
  48   2.0000      -0.499503       -13.5922
  49   2.0000      -0.498455       -13.5636
  50   2.0000      -0.489112       -13.3094
  51   2.0000      -0.482038       -13.1169
  52   2.0000      -0.473561       -12.8863
  53   2.0000      -0.471863       -12.8401
  54   2.0000      -0.455549       -12.3961
  55   2.0000      -0.448992       -12.2177
  56   2.0000      -0.442774       -12.0485
  57   2.0000      -0.436830       -11.8867
  58   2.0000      -0.433362       -11.7924
  59   2.0000      -0.425690       -11.5836
  60   2.0000      -0.423032       -11.5113
  61   2.0000      -0.419148       -11.4056
  62   2.0000      -0.398381       -10.8405
  63   2.0000      -0.342087        -9.3087
  64   2.0000      -0.334552        -9.1036
  65   2.0000      -0.330326        -8.9886
  66   2.0000      -0.290606        -7.9078
  67   0.0000       0.032698         0.8898
  68   0.0000       0.064441         1.7535
  69   0.0000       0.113909         3.0996
  70   0.0000       0.126282         3.4363
  71   0.0000       0.138224         3.7613

MULLIKEN ATOMIC CHARGES
-----------------------
   0 S :    0.115677
   1 C :   -0.159260
   2 C :   -0.015288
   3 C :    0.014468
   4 C :   -0.163695
   5 H :    0.007827
   6 C :    0.055802
   7 H :    0.021623
   8 H :    0.028982
   9 C :   -0.081949
  10 H :    0.029092
  11 H :    0.028465
  12 C :   -0.014889
  13 H :    0.038142
  14 H :    0.018468
  15 H :    0.023422
  16 S :    0.104865
  17 C :   -0.113619
  18 C :   -0.047947
  19 C :   -0.069683
  20 C :   -0.158481
  21 H :    0.038001
  22 C :    0.117342
  23 H :    0.000086
  24 H :    0.007695
  25 C :   -0.047480
  26 H :    0.038139
  27 H :    0.032523
  28 C :   -0.059940
  29 H :    0.021107
  30 H :    0.029373
  31 H :    0.043735
  32 H :    0.048943
  33 H :    0.068455
Sum of atomic charges:   -0.0000000

LOEWDIN ATOMIC CHARGES
----------------------
   0 S :    0.410534
   1 C :   -0.197866
   2 C :   -0.074517
   3 C :   -0.059622
   4 C :   -0.199059
   5 H :    0.031418
   6 C :   -0.029864
   7 H :    0.035008
   8 H :    0.031541
   9 C :   -0.039861
  10 H :    0.022757
  11 H :    0.022913
  12 C :   -0.054607
  13 H :    0.034442
  14 H :    0.023410
  15 H :    0.015458
  16 S :    0.408876
  17 C :   -0.187824
  18 C :   -0.078679
  19 C :   -0.057948
  20 C :   -0.202161
  21 H :    0.039388
  22 C :   -0.031683
  23 H :    0.024425
  24 H :    0.024015
  25 C :   -0.039416
  26 H :    0.030338
  27 H :    0.028658
  28 C :   -0.062550
  29 H :    0.017357
  30 H :    0.026217
  31 H :    0.028345
  32 H :    0.029270
  33 H :    0.031290

  Mayer bond orders larger than 0.100000
B(  0-S ,  1-C ) :   1.1458 B(  0-S ,  4-C ) :   1.1633 B(  1-C ,  2-C ) :   1.5723
B(  1-C ,  4-C ) :   0.1093 B(  1-C , 32-H ) :   0.9643 B(  2-C ,  3-C ) :   1.2913
B(  2-C ,  6-C ) :   1.0155 B(  3-C ,  4-C ) :   1.5467 B(  3-C ,  5-H ) :   0.9933
B(  4-C , 20-C ) :   1.0317 B(  6-C ,  7-H ) :   0.9416 B(  6-C ,  8-H ) :   0.9267
B(  6-C ,  9-C ) :   1.0747 B(  9-C , 10-H ) :   0.9568 B(  9-C , 11-H ) :   0.9433
B(  9-C , 12-C ) :   1.0957 B( 12-C , 13-H ) :   0.9713 B( 12-C , 14-H ) :   0.9720
B( 12-C , 15-H ) :   0.9746 B( 16-S , 17-C ) :   1.1686 B( 16-S , 20-C ) :   1.1428
B( 17-C , 18-C ) :   1.5930 B( 17-C , 20-C ) :   0.1013 B( 17-C , 33-H ) :   0.9675
B( 18-C , 19-C ) :   1.2372 B( 18-C , 21-H ) :   0.9865 B( 19-C , 20-C ) :   1.6132
B( 19-C , 22-C ) :   1.0276 B( 22-C , 23-H ) :   0.9301 B( 22-C , 24-H ) :   0.9248
B( 22-C , 25-C ) :   1.0826 B( 25-C , 26-H ) :   0.9534 B( 25-C , 27-H ) :   0.9567
B( 25-C , 28-C ) :   1.0598 B( 28-C , 29-H ) :   0.9773 B( 28-C , 30-H ) :   0.9774
B( 28-C , 31-H ) :   0.9741

Dispersion correction           -0.014497079
FINAL SINGLE POINT ENERGY     -1339.877759258557

DIPOLE MOMENT
-------------
                                X             Y             Z
Electronic contribution:    -20.61837       7.14640       4.85625
Nuclear contribution   :     21.25761      -7.33915      -4.73957
                        -----------------------------------------
Total Dipole Moment    :      0.63925      -0.19275       0.11668
                        -----------------------------------------
Magnitude (a.u.)       :      0.67779
Magnitude (Debye)      :      1.72281

Rotational constants in cm-1:     0.019932     0.007919     0.007527
Rotational constants in MHz :   597.532871   237.400884   225.640102

                             ****ORCA TERMINATED NORMALLY****
TOTAL RUN TIME: 0 days 0 hours 0 minutes 34 seconds 346 msec
