                         Program Version 4.2.1 -  RELEASE  -
|  1> ! wB97X-D3 SP def2-SVP
|  2> %pal
|  3> nprocs 16
|  4> end
|  5>
|  6> * xyz 0 1
|  7> S 	 41.4012 	 5.88226 	 87.0127
|  8> C 	 41.188 	 5.24941 	 88.6446
|  9> C 	 40.7367 	 6.27125 	 89.4832
| 10> C 	 40.5572 	 7.51763 	 88.7936
| 11> C 	 40.7484 	 7.44256 	 87.388
| 12> H 	 40.2822 	 8.49689 	 89.1853
| 13> C 	 40.4423 	 6.08651 	 90.9269
| 14> H 	 40.6725 	 6.97858 	 91.4328
| 15> H 	 40.9819 	 5.18732 	 91.2638
| 16> C 	 38.936 	 5.87966 	 91.1619
| 17> H 	 38.6082 	 6.03573 	 92.1443
| 18> H 	 38.4365 	 6.61953 	 90.5645
| 19> C 	 38.4798 	 4.36571 	 90.8933
| 20> H 	 37.3483 	 4.33397 	 90.6606
| 21> H 	 39.1267 	 3.92979 	 90.0809
| 22> H 	 38.7188 	 3.68951 	 91.6572
| 23> S 	 42.3739 	 9.03027 	 85.8615
| 24> C 	 41.7535 	 10.2692 	 84.8615
| 25> C 	 40.4032 	 10.4543 	 85.0831
| 26> C 	 39.8567 	 9.45296 	 85.9834
| 27> C 	 40.838 	 8.51786 	 86.4337
| 28> H 	 39.8478 	 11.1884 	 84.5256
| 29> C 	 38.4006 	 9.27792 	 86.3777
| 30> H 	 38.0801 	 10.0967 	 87.0598
| 31> H 	 38.2297 	 8.36913 	 86.8583
| 32> C 	 37.3661 	 9.38936 	 85.2038
| 33> H 	 37.7586 	 10.2282 	 84.6256
| 34> H 	 36.3426 	 9.61915 	 85.3957
| 35> C 	 37.4506 	 8.12701 	 84.3876
| 36> H 	 37.0511 	 7.26284 	 84.8824
| 37> H 	 38.5026 	 7.98615 	 84.0836
| 38> H 	 36.7981 	 8.17477 	 83.5276
| 39> H 	 41.4298 	 4.22033 	 88.9354
| 40> H 	 42.2093 	 10.8937 	 84.1493
| 41> *
| 42>
| 43>                          ****END OF INPUT****

CARTESIAN COORDINATES (ANGSTROEM)
---------------------------------
  S     41.401200    5.882260   87.012700
  C     41.188000    5.249410   88.644600
  C     40.736700    6.271250   89.483200
  C     40.557200    7.517630   88.793600
  C     40.748400    7.442560   87.388000
  H     40.282200    8.496890   89.185300
  C     40.442300    6.086510   90.926900
  H     40.672500    6.978580   91.432800
  H     40.981900    5.187320   91.263800
  C     38.936000    5.879660   91.161900
  H     38.608200    6.035730   92.144300
  H     38.436500    6.619530   90.564500
  C     38.479800    4.365710   90.893300
  H     37.348300    4.333970   90.660600
  H     39.126700    3.929790   90.080900
  H     38.718800    3.689510   91.657200
  S     42.373900    9.030270   85.861500
  C     41.753500   10.269200   84.861500
  C     40.403200   10.454300   85.083100
  C     39.856700    9.452960   85.983400
  C     40.838000    8.517860   86.433700
  H     39.847800   11.188400   84.525600
  C     38.400600    9.277920   86.377700
  H     38.080100   10.096700   87.059800
  H     38.229700    8.369130   86.858300
  C     37.366100    9.389360   85.203800
  H     37.758600   10.228200   84.625600
  H     36.342600    9.619150   85.395700
  C     37.450600    8.127010   84.387600
  H     37.051100    7.262840   84.882400
  H     38.502600    7.986150   84.083600
  H     36.798100    8.174770   83.527600
  H     41.429800    4.220330   88.935400
  H     42.209300   10.893700   84.149300

 Total Charge           Charge          ....    0
 Multiplicity           Mult            ....    1
 Number of Electrons    NEL             ....  134
 Basis Dimension        Dim             ....  322

ORBITAL ENERGIES
----------------

  NO   OCC          E(Eh)            E(eV)
   0   2.0000     -88.967439     -2420.9271
   1   2.0000     -88.966646     -2420.9055
   2   2.0000     -10.332319      -281.1567
   3   2.0000     -10.326749      -281.0051
   4   2.0000     -10.321467      -280.8614
   5   2.0000     -10.313479      -280.6440
   6   2.0000     -10.310807      -280.5713
   7   2.0000     -10.305601      -280.4296
   8   2.0000     -10.302114      -280.3348
   9   2.0000     -10.296696      -280.1873
  10   2.0000     -10.289395      -279.9887
  11   2.0000     -10.286354      -279.9059
  12   2.0000     -10.285003      -279.8692
  13   2.0000     -10.284296      -279.8499
  14   2.0000     -10.278733      -279.6985
  15   2.0000     -10.264575      -279.3133
  16   2.0000      -8.083105      -219.9525
  17   2.0000      -8.081355      -219.9048
  18   2.0000      -6.041544      -164.3988
  19   2.0000      -6.039818      -164.3518
  20   2.0000      -6.037266      -164.2824
  21   2.0000      -6.035640      -164.2381
  22   2.0000      -6.034071      -164.1954
  23   2.0000      -6.032385      -164.1495
  24   2.0000      -1.010198       -27.4889
  25   2.0000      -0.986332       -26.8395
  26   2.0000      -0.916348       -24.9351
  27   2.0000      -0.908917       -24.7329
  28   2.0000      -0.871017       -23.7016
  29   2.0000      -0.846073       -23.0228
  30   2.0000      -0.840444       -22.8696
  31   2.0000      -0.814846       -22.1731
  32   2.0000      -0.782198       -21.2847
  33   2.0000      -0.770335       -20.9619
  34   2.0000      -0.714739       -19.4490
  35   2.0000      -0.699270       -19.0281
  36   2.0000      -0.698067       -18.9954
  37   2.0000      -0.651876       -17.7385
  38   2.0000      -0.645016       -17.5518
  39   2.0000      -0.619716       -16.8633
  40   2.0000      -0.599427       -16.3112
  41   2.0000      -0.575691       -15.6654
  42   2.0000      -0.557634       -15.1740
  43   2.0000      -0.553120       -15.0512
  44   2.0000      -0.543327       -14.7847
  45   2.0000      -0.537581       -14.6283
  46   2.0000      -0.519124       -14.1261
  47   2.0000      -0.517537       -14.0829
  48   2.0000      -0.506794       -13.7906
  49   2.0000      -0.490731       -13.3535
  50   2.0000      -0.485858       -13.2209
  51   2.0000      -0.483998       -13.1703
  52   2.0000      -0.466953       -12.7064
  53   2.0000      -0.465635       -12.6706
  54   2.0000      -0.465135       -12.6570
  55   2.0000      -0.445603       -12.1255
  56   2.0000      -0.440968       -11.9994
  57   2.0000      -0.439043       -11.9470
  58   2.0000      -0.434604       -11.8262
  59   2.0000      -0.430087       -11.7033
  60   2.0000      -0.420329       -11.4377
  61   2.0000      -0.406647       -11.0654
  62   2.0000      -0.404636       -11.0107
  63   2.0000      -0.343168        -9.3381
  64   2.0000      -0.328942        -8.9510
  65   2.0000      -0.325137        -8.8474
  66   2.0000      -0.299047        -8.1375
  67   0.0000       0.028378         0.7722
  68   0.0000       0.064610         1.7581
  69   0.0000       0.114665         3.1202
  70   0.0000       0.119309         3.2466
  71   0.0000       0.132542         3.6066

MULLIKEN ATOMIC CHARGES
-----------------------
   0 S :    0.109303
   1 C :   -0.125852
   2 C :   -0.099472
   3 C :    0.049409
   4 C :   -0.191064
   5 H :    0.018883
   6 C :    0.097040
   7 H :    0.015805
   8 H :    0.025410
   9 C :   -0.038053
  10 H :    0.019908
  11 H :    0.023045
  12 C :   -0.088658
  13 H :    0.057571
  14 H :    0.022116
  15 H :    0.023425
  16 S :    0.135796
  17 C :   -0.060694
  18 C :   -0.050821
  19 C :   -0.052002
  20 C :   -0.154856
  21 H :    0.022107
  22 C :    0.081549
  23 H :    0.037554
  24 H :    0.014475
  25 C :   -0.072098
  26 H :    0.015033
  27 H :    0.022091
  28 C :   -0.042377
  29 H :    0.022663
  30 H :    0.044791
  31 H :    0.017827
  32 H :    0.063117
  33 H :    0.037028
Sum of atomic charges:    0.0000000

LOEWDIN ATOMIC CHARGES
----------------------
   0 S :    0.418484
   1 C :   -0.197612
   2 C :   -0.061951
   3 C :   -0.055866
   4 C :   -0.209323
   5 H :    0.033072
   6 C :   -0.025254
   7 H :    0.028009
   8 H :    0.032079
   9 C :   -0.028556
  10 H :    0.014962
  11 H :    0.021286
  12 C :   -0.074297
  13 H :    0.039333
  14 H :    0.025311
  15 H :    0.014317
  16 S :    0.447201
  17 C :   -0.193263
  18 C :   -0.074050
  19 C :   -0.048862
  20 C :   -0.226049
  21 H :    0.029073
  22 C :   -0.027683
  23 H :    0.036652
  24 H :    0.018410
  25 C :   -0.039702
  26 H :    0.019627
  27 H :    0.018773
  28 C :   -0.065423
  29 H :    0.021300
  30 H :    0.030946
  31 H :    0.020592
  32 H :    0.032515
  33 H :    0.025948

  Mayer bond orders larger than 0.100000
B(  0-S ,  1-C ) :   1.1503 B(  0-S ,  4-C ) :   1.1718 B(  1-C ,  2-C ) :   1.5712
B(  1-C ,  4-C ) :   0.1064 B(  1-C , 32-H ) :   0.9657 B(  2-C ,  3-C ) :   1.2542
B(  2-C ,  6-C ) :   1.0444 B(  3-C ,  4-C ) :   1.5357 B(  3-C ,  5-H ) :   0.9917
B(  4-C , 20-C ) :   1.0427 B(  6-C ,  7-H ) :   0.9283 B(  6-C ,  8-H ) :   0.9455
B(  6-C ,  9-C ) :   1.0696 B(  9-C , 10-H ) :   0.9604 B(  9-C , 11-H ) :   0.9596
B(  9-C , 12-C ) :   1.0552 B( 12-C , 13-H ) :   0.9755 B( 12-C , 14-H ) :   0.9773
B( 12-C , 15-H ) :   0.9769 B( 16-S , 17-C ) :   1.1739 B( 16-S , 20-C ) :   1.1605
B( 17-C , 18-C ) :   1.5947 B( 17-C , 33-H ) :   0.9700 B( 18-C , 19-C ) :   1.2540
B( 18-C , 21-H ) :   0.9883 B( 19-C , 20-C ) :   1.5472 B( 19-C , 22-C ) :   1.0574
B( 22-C , 23-H ) :   0.9296 B( 22-C , 24-H ) :   0.9392 B( 22-C , 25-C ) :   1.0579
B( 25-C , 26-H ) :   0.9563 B( 25-C , 27-H ) :   0.9576 B( 25-C , 28-C ) :   1.0860
B( 28-C , 29-H ) :   0.9727 B( 28-C , 30-H ) :   0.9754 B( 28-C , 31-H ) :   0.9708

Dispersion correction           -0.014522091
FINAL SINGLE POINT ENERGY     -1339.866177995865

DIPOLE MOMENT
-------------
                                X             Y             Z
Electronic contribution:     22.61575       4.14759      -9.02482
Nuclear contribution   :    -22.98720      -3.94427       9.39050
                        -----------------------------------------
Total Dipole Moment    :     -0.37145       0.20332       0.36568
                        -----------------------------------------
Magnitude (a.u.)       :      0.55949
Magnitude (Debye)      :      1.42212

Rotational constants in cm-1:     0.020652     0.008358     0.006964
Rotational constants in MHz :   619.124520   250.575358   208.775998

                             ****ORCA TERMINATED NORMALLY****
TOTAL RUN TIME: 0 days 0 hours 0 minutes 30 seconds 450 msec
