                         Program Version 4.2.1 -  RELEASE  -
|  1> ! wB97X-D3 SP def2-SVP
|  2> %pal
|  3> nprocs 16
|  4> end
|  5>
|  6> * xyz 0 1
|  7> S 	 -2.53495 	 -26.1801 	 56.2377
|  8> C 	 -3.06605 	 -26.0172 	 57.8994
|  9> C 	 -2.40838 	 -25.0064 	 58.4873
| 10> C 	 -1.48814 	 -24.2769 	 57.6373
| 11> C 	 -1.57093 	 -24.7071 	 56.3768
| 12> H 	 -0.739715 	 -23.4934 	 57.8662
| 13> C 	 -2.48793 	 -24.4974 	 59.9771
| 14> H 	 -1.39776 	 -24.4109 	 60.186
| 15> H 	 -3.05973 	 -25.1749 	 60.5884
| 16> C 	 -2.94499 	 -23.0113 	 60.2075
| 17> H 	 -2.8574 	 -22.7114 	 61.2919
| 18> H 	 -2.29681 	 -22.4105 	 59.6356
| 19> C 	 -4.47528 	 -22.7073 	 59.8012
| 20> H 	 -4.78168 	 -21.6367 	 60.0142
| 21> H 	 -4.59175 	 -22.9633 	 58.7513
| 22> H 	 -5.0643 	 -23.4574 	 60.3558
| 23> S 	 0.748972 	 -24.6537 	 54.9601
| 24> C 	 1.06905 	 -23.5392 	 53.7372
| 25> C 	 0.163116 	 -22.5218 	 53.7687
| 26> C 	 -0.875329 	 -22.7514 	 54.744
| 27> C 	 -0.832074 	 -24.037 	 55.3338
| 28> H 	 0.267786 	 -21.6629 	 53.0551
| 29> C 	 -2.10288 	 -21.8406 	 54.8737
| 30> H 	 -2.78217 	 -22.3372 	 55.5336
| 31> H 	 -2.63838 	 -21.7718 	 53.9398
| 32> C 	 -1.72978 	 -20.405 	 55.4369
| 33> H 	 -2.66187 	 -19.9709 	 55.7309
| 34> H 	 -1.33728 	 -19.7201 	 54.7924
| 35> C 	 -0.904894 	 -20.4448 	 56.675
| 36> H 	 -1.17791 	 -21.2166 	 57.3521
| 37> H 	 -0.978077 	 -19.5123 	 57.2618
| 38> H 	 0.18933 	 -20.59 	 56.5257
| 39> H 	 -3.80841 	 -26.6975 	 58.3014
| 40> H 	 1.97993 	 -23.6625 	 53.1414
| 41> *
| 42>
| 43>                          ****END OF INPUT****

CARTESIAN COORDINATES (ANGSTROEM)
---------------------------------
  S     -2.534950  -26.180100   56.237700
  C     -3.066050  -26.017200   57.899400
  C     -2.408380  -25.006400   58.487300
  C     -1.488140  -24.276900   57.637300
  C     -1.570930  -24.707100   56.376800
  H     -0.739715  -23.493400   57.866200
  C     -2.487930  -24.497400   59.977100
  H     -1.397760  -24.410900   60.186000
  H     -3.059730  -25.174900   60.588400
  C     -2.944990  -23.011300   60.207500
  H     -2.857400  -22.711400   61.291900
  H     -2.296810  -22.410500   59.635600
  C     -4.475280  -22.707300   59.801200
  H     -4.781680  -21.636700   60.014200
  H     -4.591750  -22.963300   58.751300
  H     -5.064300  -23.457400   60.355800
  S      0.748972  -24.653700   54.960100
  C      1.069050  -23.539200   53.737200
  C      0.163116  -22.521800   53.768700
  C     -0.875329  -22.751400   54.744000
  C     -0.832074  -24.037000   55.333800
  H      0.267786  -21.662900   53.055100
  C     -2.102880  -21.840600   54.873700
  H     -2.782170  -22.337200   55.533600
  H     -2.638380  -21.771800   53.939800
  C     -1.729780  -20.405000   55.436900
  H     -2.661870  -19.970900   55.730900
  H     -1.337280  -19.720100   54.792400
  C     -0.904894  -20.444800   56.675000
  H     -1.177910  -21.216600   57.352100
  H     -0.978077  -19.512300   57.261800
  H      0.189330  -20.590000   56.525700
  H     -3.808410  -26.697500   58.301400
  H      1.979930  -23.662500   53.141400

 Total Charge           Charge          ....    0
 Multiplicity           Mult            ....    1
 Number of Electrons    NEL             ....  134
 Basis Dimension        Dim             ....  322

ORBITAL ENERGIES
----------------

  NO   OCC          E(Eh)            E(eV)
   0   2.0000     -88.964003     -2420.8336
   1   2.0000     -88.955656     -2420.6065
   2   2.0000     -10.325834      -280.9802
   3   2.0000     -10.323769      -280.9240
   4   2.0000     -10.316216      -280.7185
   5   2.0000     -10.312922      -280.6289
   6   2.0000     -10.307805      -280.4896
   7   2.0000     -10.305692      -280.4321
   8   2.0000     -10.300615      -280.2940
   9   2.0000     -10.296598      -280.1847
  10   2.0000     -10.295057      -280.1428
  11   2.0000     -10.293988      -280.1137
  12   2.0000     -10.289076      -279.9800
  13   2.0000     -10.284996      -279.8690
  14   2.0000     -10.276517      -279.6382
  15   2.0000     -10.271709      -279.5074
  16   2.0000      -8.078978      -219.8402
  17   2.0000      -8.072602      -219.6667
  18   2.0000      -6.037628      -164.2922
  19   2.0000      -6.033622      -164.1832
  20   2.0000      -6.030872      -164.1084
  21   2.0000      -6.029380      -164.0678
  22   2.0000      -6.026708      -163.9951
  23   2.0000      -6.023560      -163.9094
  24   2.0000      -1.013907       -27.5898
  25   2.0000      -0.991846       -26.9895
  26   2.0000      -0.907798       -24.7024
  27   2.0000      -0.900032       -24.4911
  28   2.0000      -0.878098       -23.8943
  29   2.0000      -0.847223       -23.0541
  30   2.0000      -0.840625       -22.8746
  31   2.0000      -0.815333       -22.1863
  32   2.0000      -0.779106       -21.2006
  33   2.0000      -0.772919       -21.0322
  34   2.0000      -0.711462       -19.3599
  35   2.0000      -0.699005       -19.0209
  36   2.0000      -0.694438       -18.8966
  37   2.0000      -0.650396       -17.6982
  38   2.0000      -0.648570       -17.6485
  39   2.0000      -0.619876       -16.8677
  40   2.0000      -0.597409       -16.2563
  41   2.0000      -0.564648       -15.3649
  42   2.0000      -0.555357       -15.1120
  43   2.0000      -0.543933       -14.8012
  44   2.0000      -0.540173       -14.6989
  45   2.0000      -0.536838       -14.6081
  46   2.0000      -0.522311       -14.2128
  47   2.0000      -0.517795       -14.0899
  48   2.0000      -0.507534       -13.8107
  49   2.0000      -0.495355       -13.4793
  50   2.0000      -0.489037       -13.3074
  51   2.0000      -0.484610       -13.1869
  52   2.0000      -0.466793       -12.7021
  53   2.0000      -0.462275       -12.5792
  54   2.0000      -0.460756       -12.5378
  55   2.0000      -0.447878       -12.1874
  56   2.0000      -0.443601       -12.0710
  57   2.0000      -0.436923       -11.8893
  58   2.0000      -0.433835       -11.8052
  59   2.0000      -0.428214       -11.6523
  60   2.0000      -0.425110       -11.5678
  61   2.0000      -0.405643       -11.0381
  62   2.0000      -0.402283       -10.9467
  63   2.0000      -0.338653        -9.2152
  64   2.0000      -0.325787        -8.8651
  65   2.0000      -0.323793        -8.8108
  66   2.0000      -0.313121        -8.5205
  67   0.0000       0.039865         1.0848
  68   0.0000       0.062818         1.7094
  69   0.0000       0.114561         3.1174
  70   0.0000       0.116632         3.1737
  71   0.0000       0.130700         3.5565

MULLIKEN ATOMIC CHARGES
-----------------------
   0 S :    0.101694
   1 C :   -0.141243
   2 C :   -0.043217
   3 C :    0.002214
   4 C :   -0.154886
   5 H :    0.046801
   6 C :    0.064894
   7 H :    0.042515
   8 H :    0.021710
   9 C :   -0.089373
  10 H :    0.044953
  11 H :    0.018784
  12 C :   -0.082115
  13 H :    0.055513
  14 H :    0.040836
  15 H :    0.030052
  16 S :    0.096397
  17 C :   -0.092618
  18 C :   -0.041755
  19 C :   -0.044280
  20 C :   -0.184042
  21 H :    0.038781
  22 C :    0.077143
  23 H :    0.017441
  24 H :    0.036070
  25 C :   -0.020901
  26 H :    0.015607
  27 H :    0.010545
  28 C :   -0.055796
  29 H :    0.000562
  30 H :    0.029453
  31 H :    0.036141
  32 H :    0.053832
  33 H :    0.068289
Sum of atomic charges:   -0.0000000

LOEWDIN ATOMIC CHARGES
----------------------
   0 S :    0.386641
   1 C :   -0.190442
   2 C :   -0.064802
   3 C :   -0.059676
   4 C :   -0.195317
   5 H :    0.043391
   6 C :   -0.025688
   7 H :    0.042382
   8 H :    0.021285
   9 C :   -0.039010
  10 H :    0.030981
  11 H :    0.009045
  12 C :   -0.073868
  13 H :    0.033497
  14 H :    0.023229
  15 H :    0.024040
  16 S :    0.430233
  17 C :   -0.200054
  18 C :   -0.086332
  19 C :   -0.052315
  20 C :   -0.207541
  21 H :    0.041397
  22 C :   -0.021933
  23 H :    0.026699
  24 H :    0.031228
  25 C :   -0.032779
  26 H :    0.025773
  27 H :    0.011341
  28 C :   -0.069733
  29 H :    0.014151
  30 H :    0.029369
  31 H :    0.028616
  32 H :    0.032704
  33 H :    0.033490

  Mayer bond orders larger than 0.100000
B(  0-S ,  1-C ) :   1.1087 B(  0-S ,  4-C ) :   1.1246 B(  1-C ,  2-C ) :   1.6695
B(  1-C , 32-H ) :   0.9759 B(  2-C ,  3-C ) :   1.1596 B(  2-C ,  6-C ) :   1.0057
B(  3-C ,  4-C ) :   1.6474 B(  3-C ,  5-H ) :   0.9846 B(  4-C , 20-C ) :   1.0158
B(  6-C ,  7-H ) :   0.9383 B(  6-C ,  8-H ) :   0.9515 B(  6-C ,  9-C ) :   1.0665
B(  9-C , 10-H ) :   0.9585 B(  9-C , 11-H ) :   0.9576 B(  9-C , 12-C ) :   1.0599
B( 12-C , 13-H ) :   0.9768 B( 12-C , 14-H ) :   0.9784 B( 12-C , 15-H ) :   0.9779
B( 16-S , 17-C ) :   1.1886 B( 16-S , 20-C ) :   1.1639 B( 17-C , 18-C ) :   1.5739
B( 17-C , 20-C ) :   0.1028 B( 17-C , 33-H ) :   0.9688 B( 18-C , 19-C ) :   1.2388
B( 18-C , 21-H ) :   0.9913 B( 19-C , 20-C ) :   1.5637 B( 19-C , 22-C ) :   1.0518
B( 22-C , 23-H ) :   0.9347 B( 22-C , 24-H ) :   0.9478 B( 22-C , 25-C ) :   1.0618
B( 25-C , 26-H ) :   0.9532 B( 25-C , 27-H ) :   0.9583 B( 25-C , 28-C ) :   1.0901
B( 28-C , 29-H ) :   0.9717 B( 28-C , 30-H ) :   0.9690 B( 28-C , 31-H ) :   0.9650

Dispersion correction           -0.015974768
FINAL SINGLE POINT ENERGY     -1339.860388073187

DIPOLE MOMENT
-------------
                                X             Y             Z
Electronic contribution:      9.77267     -22.28407     -15.54540
Nuclear contribution   :     -9.85331      22.81890      15.82103
                        -----------------------------------------
Total Dipole Moment    :     -0.08064       0.53484       0.27563
                        -----------------------------------------
Magnitude (a.u.)       :      0.60706
Magnitude (Debye)      :      1.54303

Rotational constants in cm-1:     0.018263     0.010357     0.007670
Rotational constants in MHz :   547.501024   310.503836   229.933269

                             ****ORCA TERMINATED NORMALLY****
TOTAL RUN TIME: 0 days 0 hours 0 minutes 37 seconds 496 msec
