                         Program Version 4.2.1 -  RELEASE  -
|  1> ! wB97X-D3 SP def2-SVP
|  2> %pal
|  3> nprocs 16
|  4> end
|  5>
|  6> * xyz 0 1
|  7> S 	 -66.0306 	 53.0051 	 130.665
|  8> C 	 -65.6771 	 54.2753 	 131.833
|  9> C 	 -66.6291 	 54.5062 	 132.785
| 10> C 	 -67.6879 	 53.6306 	 132.592
| 11> C 	 -67.584 	 52.6952 	 131.543
| 12> H 	 -68.5344 	 53.5167 	 133.315
| 13> C 	 -66.501 	 55.4978 	 133.927
| 14> H 	 -65.5422 	 55.8901 	 133.76
| 15> H 	 -66.4241 	 54.9953 	 134.899
| 16> C 	 -67.4998 	 56.7173 	 133.883
| 17> H 	 -67.2408 	 57.2056 	 133.004
| 18> H 	 -68.5878 	 56.4499 	 133.915
| 19> C 	 -67.3401 	 57.709 	 135.068
| 20> H 	 -66.2775 	 57.8386 	 135.259
| 21> H 	 -67.7607 	 58.6705 	 134.899
| 22> H 	 -67.8456 	 57.2964 	 135.885
| 23> S 	 -67.8746 	 50.3273 	 130.385
| 24> C 	 -69.4426 	 49.8459 	 129.885
| 25> C 	 -70.421 	 50.6191 	 130.344
| 26> C 	 -69.8852 	 51.6983 	 131.119
| 27> C 	 -68.5081 	 51.6448 	 131.139
| 28> H 	 -71.456 	 50.3891 	 129.962
| 29> C 	 -70.7617 	 52.7722 	 131.691
| 30> H 	 -71.4321 	 53.0127 	 130.906
| 31> H 	 -70.1595 	 53.6777 	 131.896
| 32> C 	 -71.5377 	 52.4315 	 132.975
| 33> H 	 -72.0373 	 53.3136 	 133.428
| 34> H 	 -70.7992 	 52.0438 	 133.639
| 35> C 	 -72.6546 	 51.3403 	 132.859
| 36> H 	 -72.927 	 51.0751 	 133.884
| 37> H 	 -72.2402 	 50.4481 	 132.283
| 38> H 	 -73.54 	 51.7739 	 132.357
| 39> H 	 -64.8231 	 54.9797 	 131.66
| 40> H 	 -69.575 	 49.0136 	 129.268
| 41> *
| 42>
| 43>                          ****END OF INPUT****

CARTESIAN COORDINATES (ANGSTROEM)
---------------------------------
  S    -66.030600   53.005100  130.665000
  C    -65.677100   54.275300  131.833000
  C    -66.629100   54.506200  132.785000
  C    -67.687900   53.630600  132.592000
  C    -67.584000   52.695200  131.543000
  H    -68.534400   53.516700  133.315000
  C    -66.501000   55.497800  133.927000
  H    -65.542200   55.890100  133.760000
  H    -66.424100   54.995300  134.899000
  C    -67.499800   56.717300  133.883000
  H    -67.240800   57.205600  133.004000
  H    -68.587800   56.449900  133.915000
  C    -67.340100   57.709000  135.068000
  H    -66.277500   57.838600  135.259000
  H    -67.760700   58.670500  134.899000
  H    -67.845600   57.296400  135.885000
  S    -67.874600   50.327300  130.385000
  C    -69.442600   49.845900  129.885000
  C    -70.421000   50.619100  130.344000
  C    -69.885200   51.698300  131.119000
  C    -68.508100   51.644800  131.139000
  H    -71.456000   50.389100  129.962000
  C    -70.761700   52.772200  131.691000
  H    -71.432100   53.012700  130.906000
  H    -70.159500   53.677700  131.896000
  C    -71.537700   52.431500  132.975000
  H    -72.037300   53.313600  133.428000
  H    -70.799200   52.043800  133.639000
  C    -72.654600   51.340300  132.859000
  H    -72.927000   51.075100  133.884000
  H    -72.240200   50.448100  132.283000
  H    -73.540000   51.773900  132.357000
  H    -64.823100   54.979700  131.660000
  H    -69.575000   49.013600  129.268000

 Total Charge           Charge          ....    0
 Multiplicity           Mult            ....    1
 Number of Electrons    NEL             ....  134
 Basis Dimension        Dim             ....  322

ORBITAL ENERGIES
----------------

  NO   OCC          E(Eh)            E(eV)
   0   2.0000     -88.968609     -2420.9589
   1   2.0000     -88.962667     -2420.7972
   2   2.0000     -10.334772      -281.2234
   3   2.0000     -10.317794      -280.7615
   4   2.0000     -10.315768      -280.7063
   5   2.0000     -10.303347      -280.3683
   6   2.0000     -10.299596      -280.2663
   7   2.0000     -10.296926      -280.1936
   8   2.0000     -10.294485      -280.1272
   9   2.0000     -10.294067      -280.1158
  10   2.0000     -10.293316      -280.0954
  11   2.0000     -10.289077      -279.9800
  12   2.0000     -10.285777      -279.8902
  13   2.0000     -10.284181      -279.8468
  14   2.0000     -10.283270      -279.8220
  15   2.0000     -10.272089      -279.5178
  16   2.0000      -8.082185      -219.9274
  17   2.0000      -8.080859      -219.8914
  18   2.0000      -6.040695      -164.3757
  19   2.0000      -6.038997      -164.3295
  20   2.0000      -6.036976      -164.2745
  21   2.0000      -6.034999      -164.2207
  22   2.0000      -6.032897      -164.1635
  23   2.0000      -6.031670      -164.1301
  24   2.0000      -1.023649       -27.8549
  25   2.0000      -0.987243       -26.8643
  26   2.0000      -0.909992       -24.7621
  27   2.0000      -0.908282       -24.7156
  28   2.0000      -0.876448       -23.8494
  29   2.0000      -0.851166       -23.1614
  30   2.0000      -0.848697       -23.0942
  31   2.0000      -0.816559       -22.2197
  32   2.0000      -0.786002       -21.3882
  33   2.0000      -0.772890       -21.0314
  34   2.0000      -0.710150       -19.3242
  35   2.0000      -0.698816       -19.0158
  36   2.0000      -0.689959       -18.7747
  37   2.0000      -0.667549       -18.1649
  38   2.0000      -0.633221       -17.2308
  39   2.0000      -0.621624       -16.9152
  40   2.0000      -0.597111       -16.2482
  41   2.0000      -0.573224       -15.5982
  42   2.0000      -0.564751       -15.3677
  43   2.0000      -0.551785       -15.0148
  44   2.0000      -0.542202       -14.7541
  45   2.0000      -0.527456       -14.3528
  46   2.0000      -0.517122       -14.0716
  47   2.0000      -0.507174       -13.8009
  48   2.0000      -0.503739       -13.7074
  49   2.0000      -0.500018       -13.6062
  50   2.0000      -0.489496       -13.3199
  51   2.0000      -0.479908       -13.0590
  52   2.0000      -0.474893       -12.9225
  53   2.0000      -0.466462       -12.6931
  54   2.0000      -0.461134       -12.5481
  55   2.0000      -0.447682       -12.1821
  56   2.0000      -0.442719       -12.0470
  57   2.0000      -0.436239       -11.8707
  58   2.0000      -0.431931       -11.7534
  59   2.0000      -0.428948       -11.6723
  60   2.0000      -0.423210       -11.5161
  61   2.0000      -0.422064       -11.4849
  62   2.0000      -0.413062       -11.2400
  63   2.0000      -0.361042        -9.8245
  64   2.0000      -0.336548        -9.1579
  65   2.0000      -0.332720        -9.0538
  66   2.0000      -0.282719        -7.6932
  67   0.0000       0.026332         0.7165
  68   0.0000       0.079208         2.1554
  69   0.0000       0.110349         3.0027
  70   0.0000       0.124606         3.3907
  71   0.0000       0.132729         3.6117

MULLIKEN ATOMIC CHARGES
-----------------------
   0 S :    0.102669
   1 C :   -0.150547
   2 C :   -0.075836
   3 C :   -0.012345
   4 C :   -0.143590
   5 H :    0.026001
   6 C :    0.107418
   7 H :   -0.010266
   8 H :    0.041695
   9 C :   -0.085221
  10 H :    0.019460
  11 H :    0.041969
  12 C :   -0.017170
  13 H :    0.023592
  14 H :    0.029236
  15 H :    0.021774
  16 S :    0.110975
  17 C :   -0.079736
  18 C :   -0.041974
  19 C :   -0.077381
  20 C :   -0.117633
  21 H :    0.045332
  22 C :    0.089673
  23 H :    0.011620
  24 H :    0.025228
  25 C :   -0.075873
  26 H :    0.036876
  27 H :    0.023173
  28 C :   -0.080571
  29 H :    0.037366
  30 H :    0.049650
  31 H :    0.036199
  32 H :    0.060750
  33 H :    0.027488
Sum of atomic charges:   -0.0000000

LOEWDIN ATOMIC CHARGES
----------------------
   0 S :    0.373397
   1 C :   -0.196004
   2 C :   -0.072230
   3 C :   -0.070289
   4 C :   -0.167586
   5 H :    0.035448
   6 C :   -0.022354
   7 H :    0.022815
   8 H :    0.034096
   9 C :   -0.031202
  10 H :    0.014977
  11 H :    0.027949
  12 C :   -0.056378
  13 H :    0.023489
  14 H :    0.023532
  15 H :    0.017978
  16 S :    0.454615
  17 C :   -0.183664
  18 C :   -0.076568
  19 C :   -0.055911
  20 C :   -0.231528
  21 H :    0.047613
  22 C :   -0.034829
  23 H :    0.024299
  24 H :    0.033982
  25 C :   -0.039610
  26 H :    0.027672
  27 H :    0.017454
  28 C :   -0.072202
  29 H :    0.026642
  30 H :    0.032149
  31 H :    0.024085
  32 H :    0.033258
  33 H :    0.014907

  Mayer bond orders larger than 0.100000
B(  0-S ,  1-C ) :   1.1383 B(  0-S ,  4-C ) :   1.1315 B(  1-C ,  2-C ) :   1.6208
B(  1-C ,  4-C ) :   0.1037 B(  1-C , 32-H ) :   0.9476 B(  2-C ,  3-C ) :   1.2653
B(  2-C ,  6-C ) :   1.0204 B(  3-C ,  4-C ) :   1.5664 B(  3-C ,  5-H ) :   0.9791
B(  4-C , 20-C ) :   1.0650 B(  6-C ,  7-H ) :   0.9248 B(  6-C ,  8-H ) :   0.9424
B(  6-C ,  9-C ) :   1.0505 B(  9-C , 10-H ) :   0.9569 B(  9-C , 11-H ) :   0.9652
B(  9-C , 12-C ) :   1.0828 B( 12-C , 13-H ) :   0.9744 B( 12-C , 14-H ) :   0.9754
B( 12-C , 15-H ) :   0.9784 B( 16-S , 17-C ) :   1.1564 B( 16-S , 20-C ) :   1.1586
B( 17-C , 18-C ) :   1.6346 B( 17-C , 33-H ) :   0.9723 B( 18-C , 19-C ) :   1.2264
B( 18-C , 21-H ) :   0.9810 B( 19-C , 20-C ) :   1.5766 B( 19-C , 22-C ) :   1.0462
B( 22-C , 23-H ) :   0.9288 B( 22-C , 24-H ) :   0.9248 B( 22-C , 25-C ) :   1.0658
B( 25-C , 26-H ) :   0.9572 B( 25-C , 27-H ) :   0.9528 B( 25-C , 28-C ) :   1.0802
B( 28-C , 29-H ) :   0.9740 B( 28-C , 30-H ) :   0.9701 B( 28-C , 31-H ) :   0.9767

Dispersion correction           -0.013989106
FINAL SINGLE POINT ENERGY     -1339.871781615515

DIPOLE MOMENT
-------------
                                X             Y             Z
Electronic contribution:     16.20748     -18.03124     -19.10411
Nuclear contribution   :    -16.59349      18.40493      19.35925
                        -----------------------------------------
Total Dipole Moment    :     -0.38602       0.37369       0.25514
                        -----------------------------------------
Magnitude (a.u.)       :      0.59477
Magnitude (Debye)      :      1.51177

Rotational constants in cm-1:     0.018458     0.008785     0.006160
Rotational constants in MHz :   553.358349   263.373030   184.686059

                             ****ORCA TERMINATED NORMALLY****
TOTAL RUN TIME: 0 days 0 hours 0 minutes 34 seconds 742 msec
