                         Program Version 4.2.1 -  RELEASE  -
|  1> ! wB97X-D3 SP def2-SVP
|  2> %pal
|  3> nprocs 16
|  4> end
|  5>
|  6> * xyz 0 1
|  7> S 	 -28.4066 	 56.031 	 110.753
|  8> C 	 -29.2376 	 55.0681 	 111.875
|  9> C 	 -29.3906 	 55.6923 	 113.119
| 10> C 	 -28.8481 	 56.9783 	 113.184
| 11> C 	 -28.2472 	 57.2989 	 111.952
| 12> H 	 -28.8567 	 57.7625 	 113.959
| 13> C 	 -30.1814 	 55.1374 	 114.315
| 14> H 	 -30.5453 	 54.1062 	 114.141
| 15> H 	 -31.1009 	 55.772 	 114.405
| 16> C 	 -29.4691 	 55.2952 	 115.679
| 17> H 	 -28.9593 	 56.203 	 115.725
| 18> H 	 -30.1456 	 55.3668 	 116.508
| 19> C 	 -28.4782 	 54.1638 	 116.025
| 20> H 	 -27.5028 	 54.2728 	 115.412
| 21> H 	 -28.2959 	 54.3023 	 117.032
| 22> H 	 -28.8823 	 53.243 	 115.789
| 23> S 	 -25.9748 	 58.2504 	 110.766
| 24> C 	 -25.7163 	 59.9429 	 110.503
| 25> C 	 -26.6202 	 60.6897 	 111.155
| 26> C 	 -27.7137 	 59.9147 	 111.682
| 27> C 	 -27.5178 	 58.5304 	 111.585
| 28> H 	 -26.4841 	 61.7432 	 111.194
| 29> C 	 -28.9292 	 60.4994 	 112.408
| 30> H 	 -29.6299 	 59.7436 	 112.715
| 31> H 	 -29.4994 	 61.1771 	 111.843
| 32> C 	 -28.5358 	 61.2613 	 113.693
| 33> H 	 -29.3919 	 61.8971 	 114.01
| 34> H 	 -27.6914 	 61.9072 	 113.609
| 35> C 	 -28.1656 	 60.3465 	 114.851
| 36> H 	 -28.1351 	 60.7951 	 115.869
| 37> H 	 -27.2224 	 59.7232 	 114.708
| 38> H 	 -28.9243 	 59.6139 	 114.923
| 39> H 	 -29.6806 	 54.0618 	 111.65
| 40> H 	 -24.7855 	 60.3645 	 110.017
| 41> *
| 42>
| 43>                          ****END OF INPUT****

CARTESIAN COORDINATES (ANGSTROEM)
---------------------------------
  S    -28.406600   56.031000  110.753000
  C    -29.237600   55.068100  111.875000
  C    -29.390600   55.692300  113.119000
  C    -28.848100   56.978300  113.184000
  C    -28.247200   57.298900  111.952000
  H    -28.856700   57.762500  113.959000
  C    -30.181400   55.137400  114.315000
  H    -30.545300   54.106200  114.141000
  H    -31.100900   55.772000  114.405000
  C    -29.469100   55.295200  115.679000
  H    -28.959300   56.203000  115.725000
  H    -30.145600   55.366800  116.508000
  C    -28.478200   54.163800  116.025000
  H    -27.502800   54.272800  115.412000
  H    -28.295900   54.302300  117.032000
  H    -28.882300   53.243000  115.789000
  S    -25.974800   58.250400  110.766000
  C    -25.716300   59.942900  110.503000
  C    -26.620200   60.689700  111.155000
  C    -27.713700   59.914700  111.682000
  C    -27.517800   58.530400  111.585000
  H    -26.484100   61.743200  111.194000
  C    -28.929200   60.499400  112.408000
  H    -29.629900   59.743600  112.715000
  H    -29.499400   61.177100  111.843000
  C    -28.535800   61.261300  113.693000
  H    -29.391900   61.897100  114.010000
  H    -27.691400   61.907200  113.609000
  C    -28.165600   60.346500  114.851000
  H    -28.135100   60.795100  115.869000
  H    -27.222400   59.723200  114.708000
  H    -28.924300   59.613900  114.923000
  H    -29.680600   54.061800  111.650000
  H    -24.785500   60.364500  110.017000

 Total Charge           Charge          ....    0
 Multiplicity           Mult            ....    1
 Number of Electrons    NEL             ....  134
 Basis Dimension        Dim             ....  322

ORBITAL ENERGIES
----------------

  NO   OCC          E(Eh)            E(eV)
   0   2.0000     -88.971645     -2421.0415
   1   2.0000     -88.959528     -2420.7118
   2   2.0000     -10.332979      -281.1747
   3   2.0000     -10.329526      -281.0807
   4   2.0000     -10.316392      -280.7233
   5   2.0000     -10.315103      -280.6882
   6   2.0000     -10.308236      -280.5014
   7   2.0000     -10.302554      -280.3467
   8   2.0000     -10.297938      -280.2211
   9   2.0000     -10.296916      -280.1933
  10   2.0000     -10.290673      -280.0234
  11   2.0000     -10.288538      -279.9654
  12   2.0000     -10.286536      -279.9109
  13   2.0000     -10.279051      -279.7072
  14   2.0000     -10.278119      -279.6818
  15   2.0000     -10.268092      -279.4090
  16   2.0000      -8.086871      -220.0549
  17   2.0000      -8.074781      -219.7260
  18   2.0000      -6.045108      -164.4957
  19   2.0000      -6.041246      -164.3907
  20   2.0000      -6.037946      -164.3009
  21   2.0000      -6.033266      -164.1735
  22   2.0000      -6.029238      -164.0639
  23   2.0000      -6.025501      -163.9622
  24   2.0000      -1.009131       -27.4598
  25   2.0000      -0.988012       -26.8852
  26   2.0000      -0.911191       -24.7948
  27   2.0000      -0.908540       -24.7226
  28   2.0000      -0.869236       -23.6531
  29   2.0000      -0.855309       -23.2741
  30   2.0000      -0.843580       -22.9550
  31   2.0000      -0.815308       -22.1857
  32   2.0000      -0.783088       -21.3089
  33   2.0000      -0.771631       -20.9971
  34   2.0000      -0.710551       -19.3351
  35   2.0000      -0.697804       -18.9882
  36   2.0000      -0.689125       -18.7520
  37   2.0000      -0.655147       -17.8275
  38   2.0000      -0.639742       -17.4083
  39   2.0000      -0.624803       -17.0018
  40   2.0000      -0.602844       -16.4042
  41   2.0000      -0.568300       -15.4642
  42   2.0000      -0.553370       -15.0580
  43   2.0000      -0.552669       -15.0389
  44   2.0000      -0.538549       -14.6547
  45   2.0000      -0.530319       -14.4307
  46   2.0000      -0.519611       -14.1393
  47   2.0000      -0.516241       -14.0476
  48   2.0000      -0.499671       -13.5967
  49   2.0000      -0.495276       -13.4772
  50   2.0000      -0.488228       -13.2854
  51   2.0000      -0.483387       -13.1536
  52   2.0000      -0.470691       -12.8082
  53   2.0000      -0.466367       -12.6905
  54   2.0000      -0.456107       -12.4113
  55   2.0000      -0.452671       -12.3178
  56   2.0000      -0.442051       -12.0288
  57   2.0000      -0.441096       -12.0028
  58   2.0000      -0.436550       -11.8791
  59   2.0000      -0.426562       -11.6073
  60   2.0000      -0.422991       -11.5102
  61   2.0000      -0.414443       -11.2776
  62   2.0000      -0.411074       -11.1859
  63   2.0000      -0.350422        -9.5355
  64   2.0000      -0.333446        -9.0735
  65   2.0000      -0.328177        -8.9301
  66   2.0000      -0.289278        -7.8716
  67   0.0000       0.030513         0.8303
  68   0.0000       0.073176         1.9912
  69   0.0000       0.113229         3.0811
  70   0.0000       0.117149         3.1878
  71   0.0000       0.134029         3.6471

MULLIKEN ATOMIC CHARGES
-----------------------
   0 S :    0.145277
   1 C :   -0.139510
   2 C :   -0.064001
   3 C :    0.038333
   4 C :   -0.163497
   5 H :   -0.006857
   6 C :    0.053180
   7 H :    0.020160
   8 H :    0.042478
   9 C :   -0.071575
  10 H :    0.008911
  11 H :    0.014266
  12 C :   -0.011442
  13 H :    0.045193
  14 H :    0.020958
  15 H :    0.011620
  16 S :    0.082374
  17 C :   -0.103503
  18 C :   -0.023223
  19 C :   -0.033644
  20 C :   -0.159931
  21 H :    0.011887
  22 C :    0.110114
  23 H :    0.013357
  24 H :    0.016780
  25 C :   -0.084425
  26 H :    0.032226
  27 H :    0.027044
  28 C :   -0.081798
  29 H :    0.039826
  30 H :    0.053704
  31 H :    0.014800
  32 H :    0.063088
  33 H :    0.077830
Sum of atomic charges:   -0.0000000

LOEWDIN ATOMIC CHARGES
----------------------
   0 S :    0.443092
   1 C :   -0.229187
   2 C :   -0.066802
   3 C :   -0.062697
   4 C :   -0.194186
   5 H :    0.034770
   6 C :   -0.031250
   7 H :    0.026819
   8 H :    0.038851
   9 C :   -0.036841
  10 H :    0.014471
  11 H :    0.020098
  12 C :   -0.050625
  13 H :    0.037487
  14 H :    0.016180
  15 H :    0.010565
  16 S :    0.392100
  17 C :   -0.192403
  18 C :   -0.074283
  19 C :   -0.054567
  20 C :   -0.192432
  21 H :    0.029158
  22 C :   -0.021547
  23 H :    0.027929
  24 H :    0.025104
  25 C :   -0.038533
  26 H :    0.028566
  27 H :    0.018021
  28 C :   -0.075443
  29 H :    0.031733
  30 H :    0.034952
  31 H :    0.008009
  32 H :    0.038913
  33 H :    0.043979

  Mayer bond orders larger than 0.100000
B(  0-S ,  1-C ) :   1.1556 B(  0-S ,  4-C ) :   1.1845 B(  1-C ,  2-C ) :   1.5788
B(  1-C ,  4-C ) :   0.1028 B(  1-C , 32-H ) :   0.9598 B(  2-C ,  3-C ) :   1.2595
B(  2-C ,  6-C ) :   1.0225 B(  3-C ,  4-C ) :   1.5406 B(  3-C ,  5-H ) :   0.9823
B(  4-C , 20-C ) :   1.0290 B(  6-C ,  7-H ) :   0.9495 B(  6-C ,  8-H ) :   0.9389
B(  6-C ,  9-C ) :   1.0678 B(  9-C , 10-H ) :   0.9542 B(  9-C , 11-H ) :   0.9572
B(  9-C , 12-C ) :   1.0747 B( 12-C , 13-H ) :   0.9771 B( 12-C , 14-H ) :   0.9757
B( 12-C , 15-H ) :   0.9783 B( 16-S , 17-C ) :   1.1475 B( 16-S , 20-C ) :   1.1377
B( 17-C , 18-C ) :   1.6364 B( 17-C , 33-H ) :   0.9564 B( 18-C , 19-C ) :   1.2127
B( 18-C , 21-H ) :   0.9958 B( 19-C , 20-C ) :   1.6017 B( 19-C , 22-C ) :   1.0454
B( 22-C , 23-H ) :   0.9415 B( 22-C , 24-H ) :   0.9298 B( 22-C , 25-C ) :   1.0660
B( 25-C , 26-H ) :   0.9539 B( 25-C , 27-H ) :   0.9605 B( 25-C , 28-C ) :   1.0731
B( 28-C , 29-H ) :   0.9667 B( 28-C , 30-H ) :   0.9752 B( 28-C , 31-H ) :   0.9626

Dispersion correction           -0.014992165
FINAL SINGLE POINT ENERGY     -1339.875176683187

DIPOLE MOMENT
-------------
                                X             Y             Z
Electronic contribution:      9.34105      -2.68508     -26.26241
Nuclear contribution   :     -9.67043       3.01327      26.74472
                        -----------------------------------------
Total Dipole Moment    :     -0.32938       0.32818       0.48232
                        -----------------------------------------
Magnitude (a.u.)       :      0.66995
Magnitude (Debye)      :      1.70286

Rotational constants in cm-1:     0.018887     0.009402     0.007253
Rotational constants in MHz :   566.210809   281.861314   217.433053

                             ****ORCA TERMINATED NORMALLY****
TOTAL RUN TIME: 0 days 0 hours 0 minutes 31 seconds 929 msec
