                         Program Version 4.2.1 -  RELEASE  -
|  1> ! wB97X-D3 SP def2-SVP
|  2> %pal
|  3> nprocs 16
|  4> end
|  5>
|  6> * xyz 0 1
|  7> S 	 -68.8285 	 42.1232 	 120.883
|  8> C 	 -70.3846 	 42.9717 	 120.753
|  9> C 	 -71.5092 	 42.127 	 121.08
| 10> C 	 -71.0096 	 40.7652 	 121.349
| 11> C 	 -69.6381 	 40.5763 	 121.174
| 12> H 	 -71.5089 	 39.8222 	 121.502
| 13> C 	 -73.0106 	 42.3346 	 121.006
| 14> H 	 -73.3417 	 43.355 	 120.737
| 15> H 	 -73.4526 	 42.108 	 121.927
| 16> C 	 -73.757 	 41.458 	 120.012
| 17> H 	 -73.306 	 41.5253 	 119.019
| 18> H 	 -73.7097 	 40.4068 	 120.336
| 19> C 	 -75.2584 	 41.8653 	 119.859
| 20> H 	 -75.6131 	 41.5377 	 118.928
| 21> H 	 -76.0137 	 41.458 	 120.626
| 22> H 	 -75.3168 	 42.913 	 119.921
| 23> S 	 -67.7087 	 38.9886 	 119.978
| 24> C 	 -67.4243 	 37.3979 	 120.598
| 25> C 	 -68.0592 	 37.1549 	 121.798
| 26> C 	 -68.995 	 38.2996 	 122.062
| 27> C 	 -68.9275 	 39.337 	 121.17
| 28> H 	 -67.8306 	 36.2744 	 122.321
| 29> C 	 -69.8358 	 38.396 	 123.346
| 30> H 	 -70.3147 	 39.3537 	 123.463
| 31> H 	 -69.0968 	 38.1754 	 124.049
| 32> C 	 -70.9566 	 37.3103 	 123.343
| 33> H 	 -70.6447 	 36.3258 	 123.09
| 34> H 	 -71.6737 	 37.6957 	 122.537
| 35> C 	 -71.8448 	 37.2507 	 124.647
| 36> H 	 -72.5442 	 36.3822 	 124.613
| 37> H 	 -72.5168 	 38.1387 	 124.783
| 38> H 	 -71.0994 	 37.2098 	 125.435
| 39> H 	 -70.4314 	 43.9931 	 120.409
| 40> H 	 -66.7101 	 36.6731 	 120.189
| 41> *
| 42>
| 43>                          ****END OF INPUT****

CARTESIAN COORDINATES (ANGSTROEM)
---------------------------------
  S    -68.828500   42.123200  120.883000
  C    -70.384600   42.971700  120.753000
  C    -71.509200   42.127000  121.080000
  C    -71.009600   40.765200  121.349000
  C    -69.638100   40.576300  121.174000
  H    -71.508900   39.822200  121.502000
  C    -73.010600   42.334600  121.006000
  H    -73.341700   43.355000  120.737000
  H    -73.452600   42.108000  121.927000
  C    -73.757000   41.458000  120.012000
  H    -73.306000   41.525300  119.019000
  H    -73.709700   40.406800  120.336000
  C    -75.258400   41.865300  119.859000
  H    -75.613100   41.537700  118.928000
  H    -76.013700   41.458000  120.626000
  H    -75.316800   42.913000  119.921000
  S    -67.708700   38.988600  119.978000
  C    -67.424300   37.397900  120.598000
  C    -68.059200   37.154900  121.798000
  C    -68.995000   38.299600  122.062000
  C    -68.927500   39.337000  121.170000
  H    -67.830600   36.274400  122.321000
  C    -69.835800   38.396000  123.346000
  H    -70.314700   39.353700  123.463000
  H    -69.096800   38.175400  124.049000
  C    -70.956600   37.310300  123.343000
  H    -70.644700   36.325800  123.090000
  H    -71.673700   37.695700  122.537000
  C    -71.844800   37.250700  124.647000
  H    -72.544200   36.382200  124.613000
  H    -72.516800   38.138700  124.783000
  H    -71.099400   37.209800  125.435000
  H    -70.431400   43.993100  120.409000
  H    -66.710100   36.673100  120.189000

 Total Charge           Charge          ....    0
 Multiplicity           Mult            ....    1
 Number of Electrons    NEL             ....  134
 Basis Dimension        Dim             ....  322

ORBITAL ENERGIES
----------------

  NO   OCC          E(Eh)            E(eV)
   0   2.0000     -88.968442     -2420.9544
   1   2.0000     -88.964084     -2420.8358
   2   2.0000     -10.331132      -281.1244
   3   2.0000     -10.325694      -280.9764
   4   2.0000     -10.322506      -280.8897
   5   2.0000     -10.320736      -280.8415
   6   2.0000     -10.320268      -280.8288
   7   2.0000     -10.310176      -280.5541
   8   2.0000     -10.300471      -280.2901
   9   2.0000     -10.298828      -280.2453
  10   2.0000     -10.292908      -280.0843
  11   2.0000     -10.291886      -280.0565
  12   2.0000     -10.288435      -279.9626
  13   2.0000     -10.286893      -279.9206
  14   2.0000     -10.285529      -279.8835
  15   2.0000     -10.278939      -279.7042
  16   2.0000      -8.082262      -219.9295
  17   2.0000      -8.079542      -219.8555
  18   2.0000      -6.040880      -164.3807
  19   2.0000      -6.038158      -164.3066
  20   2.0000      -6.036919      -164.2729
  21   2.0000      -6.033994      -164.1933
  22   2.0000      -6.032955      -164.1651
  23   2.0000      -6.030082      -164.0869
  24   2.0000      -1.006077       -27.3767
  25   2.0000      -0.975355       -26.5407
  26   2.0000      -0.914299       -24.8793
  27   2.0000      -0.904250       -24.6059
  28   2.0000      -0.872524       -23.7426
  29   2.0000      -0.847279       -23.0556
  30   2.0000      -0.840575       -22.8732
  31   2.0000      -0.815332       -22.1863
  32   2.0000      -0.783372       -21.3166
  33   2.0000      -0.770527       -20.9671
  34   2.0000      -0.705264       -19.1912
  35   2.0000      -0.696585       -18.9551
  36   2.0000      -0.692223       -18.8364
  37   2.0000      -0.666211       -18.1285
  38   2.0000      -0.646681       -17.5971
  39   2.0000      -0.618339       -16.8258
  40   2.0000      -0.592287       -16.1169
  41   2.0000      -0.573765       -15.6129
  42   2.0000      -0.572240       -15.5714
  43   2.0000      -0.561393       -15.2763
  44   2.0000      -0.531011       -14.4496
  45   2.0000      -0.523585       -14.2475
  46   2.0000      -0.516430       -14.0528
  47   2.0000      -0.509244       -13.8572
  48   2.0000      -0.505813       -13.7639
  49   2.0000      -0.502150       -13.6642
  50   2.0000      -0.492347       -13.3975
  51   2.0000      -0.474037       -12.8992
  52   2.0000      -0.470971       -12.8158
  53   2.0000      -0.463370       -12.6089
  54   2.0000      -0.458249       -12.4696
  55   2.0000      -0.453781       -12.3480
  56   2.0000      -0.443339       -12.0639
  57   2.0000      -0.436062       -11.8659
  58   2.0000      -0.435695       -11.8559
  59   2.0000      -0.427464       -11.6319
  60   2.0000      -0.421544       -11.4708
  61   2.0000      -0.421198       -11.4614
  62   2.0000      -0.402993       -10.9660
  63   2.0000      -0.353334        -9.6147
  64   2.0000      -0.328750        -8.9457
  65   2.0000      -0.326103        -8.8737
  66   2.0000      -0.290564        -7.9067
  67   0.0000       0.027567         0.7501
  68   0.0000       0.070340         1.9141
  69   0.0000       0.105682         2.8757
  70   0.0000       0.120208         3.2710
  71   0.0000       0.123342         3.3563

MULLIKEN ATOMIC CHARGES
-----------------------
   0 S :    0.105735
   1 C :   -0.130426
   2 C :   -0.041791
   3 C :    0.011951
   4 C :   -0.173473
   5 H :    0.006926
   6 C :    0.090601
   7 H :    0.017099
   8 H :    0.020115
   9 C :   -0.112300
  10 H :    0.038681
  11 H :    0.035611
  12 C :   -0.034960
  13 H :    0.024985
  14 H :    0.041368
  15 H :    0.013988
  16 S :    0.107298
  17 C :   -0.095453
  18 C :   -0.008478
  19 C :   -0.084659
  20 C :   -0.117383
  21 H :    0.009060
  22 C :    0.108462
  23 H :    0.031566
  24 H :    0.017543
  25 C :   -0.124069
  26 H :    0.029725
  27 H :    0.031474
  28 C :   -0.054429
  29 H :    0.044855
  30 H :    0.038006
  31 H :    0.031836
  32 H :    0.055272
  33 H :    0.065264
Sum of atomic charges:   -0.0000000

LOEWDIN ATOMIC CHARGES
----------------------
   0 S :    0.385455
   1 C :   -0.190928
   2 C :   -0.047402
   3 C :   -0.063964
   4 C :   -0.181925
   5 H :    0.027718
   6 C :   -0.033762
   7 H :    0.029898
   8 H :    0.027757
   9 C :   -0.037135
  10 H :    0.026795
  11 H :    0.023300
  12 C :   -0.061728
  13 H :    0.020402
  14 H :    0.034546
  15 H :    0.014876
  16 S :    0.408038
  17 C :   -0.182975
  18 C :   -0.067657
  19 C :   -0.039767
  20 C :   -0.216023
  21 H :    0.026096
  22 C :   -0.022886
  23 H :    0.028955
  24 H :    0.022618
  25 C :   -0.040495
  26 H :    0.015649
  27 H :    0.025373
  28 C :   -0.072129
  29 H :    0.030709
  30 H :    0.027857
  31 H :    0.021446
  32 H :    0.025991
  33 H :    0.035296

  Mayer bond orders larger than 0.100000
B(  0-S ,  1-C ) :   1.1346 B(  0-S ,  4-C ) :   1.1293 B(  1-C ,  2-C ) :   1.6024
B(  1-C , 32-H ) :   0.9718 B(  2-C ,  3-C ) :   1.1947 B(  2-C ,  6-C ) :   1.0430
B(  3-C ,  4-C ) :   1.6060 B(  3-C ,  5-H ) :   0.9820 B(  4-C , 20-C ) :   1.0803
B(  6-C ,  7-H ) :   0.9448 B(  6-C ,  8-H ) :   0.9307 B(  6-C ,  9-C ) :   1.0667
B(  9-C , 10-H ) :   0.9597 B(  9-C , 11-H ) :   0.9515 B(  9-C , 12-C ) :   1.0777
B( 12-C , 13-H ) :   0.9761 B( 12-C , 14-H ) :   0.9753 B( 12-C , 15-H ) :   0.9754
B( 16-S , 17-C ) :   1.1595 B( 16-S , 20-C ) :   1.1007 B( 17-C , 18-C ) :   1.6399
B( 17-C , 33-H ) :   0.9622 B( 18-C , 19-C ) :   1.1848 B( 18-C , 21-H ) :   1.0002
B( 19-C , 20-C ) :   1.6244 B( 19-C , 22-C ) :   1.0419 B( 22-C , 23-H ) :   0.9368
B( 22-C , 24-H ) :   0.9274 B( 22-C , 25-C ) :   1.0541 B( 25-C , 26-H ) :   0.9632
B( 25-C , 27-H ) :   0.9550 B( 25-C , 28-C ) :   1.0689 B( 28-C , 29-H ) :   0.9763
B( 28-C , 30-H ) :   0.9771 B( 28-C , 31-H ) :   0.9774

Dispersion correction           -0.013846773
FINAL SINGLE POINT ENERGY     -1339.859972607920

DIPOLE MOMENT
-------------
                                X             Y             Z
Electronic contribution:     29.10438       5.66358      -9.51411
Nuclear contribution   :    -29.57013      -5.99364       9.69730
                        -----------------------------------------
Total Dipole Moment    :     -0.46575      -0.33006       0.18319
                        -----------------------------------------
Magnitude (a.u.)       :      0.59952
Magnitude (Debye)      :      1.52386

Rotational constants in cm-1:     0.015938     0.009092     0.006739
Rotational constants in MHz :   477.812072   272.572248   202.041637

                             ****ORCA TERMINATED NORMALLY****
TOTAL RUN TIME: 0 days 0 hours 0 minutes 31 seconds 778 msec
