                         Program Version 4.2.1 -  RELEASE  -
|  1> ! wB97X-D3 SP def2-SVP
|  2> %pal
|  3> nprocs 16
|  4> end
|  5>
|  6> * xyz 0 1
|  7> S 	 8.87707 	 -20.003 	 84.749
|  8> C 	 7.72701 	 -20.7136 	 85.8038
|  9> C 	 6.70269 	 -19.8175 	 86.1351
| 10> C 	 6.98418 	 -18.5538 	 85.5783
| 11> C 	 8.10171 	 -18.4597 	 84.8701
| 12> H 	 6.3154 	 -17.6901 	 85.6006
| 13> C 	 5.54595 	 -20.1055 	 87.0168
| 14> H 	 5.2098 	 -19.2454 	 87.4789
| 15> H 	 5.88672 	 -20.8147 	 87.7907
| 16> C 	 4.42478 	 -20.9901 	 86.4056
| 17> H 	 3.63553 	 -21.207 	 87.1552
| 18> H 	 3.8843 	 -20.3287 	 85.7244
| 19> C 	 4.87746 	 -22.3329 	 85.8916
| 20> H 	 4.03972 	 -22.7775 	 85.3999
| 21> H 	 5.67331 	 -22.2576 	 85.2167
| 22> H 	 5.12595 	 -22.9455 	 86.7051
| 23> S 	 8.14749 	 -17.4485 	 82.322
| 24> C 	 9.05477 	 -16.044 	 81.9044
| 25> C 	 9.51093 	 -15.3936 	 83.0548
| 26> C 	 9.09192 	 -16.1154 	 84.2623
| 27> C 	 8.46005 	 -17.3291 	 84.0187
| 28> H 	 9.88078 	 -14.4024 	 83.0038
| 29> C 	 9.41602 	 -15.6175 	 85.6397
| 30> H 	 10.4605 	 -15.7411 	 85.8671
| 31> H 	 8.91652 	 -16.1948 	 86.404
| 32> C 	 9.12482 	 -14.1271 	 85.9942
| 33> H 	 8.75463 	 -14.0594 	 87.0071
| 34> H 	 8.24949 	 -13.9183 	 85.4223
| 35> C 	 10.2636 	 -13.0355 	 85.7418
| 36> H 	 10.0909 	 -12.1362 	 86.3062
| 37> H 	 10.2775 	 -12.831 	 84.6494
| 38> H 	 11.1871 	 -13.396 	 86.0894
| 39> H 	 7.75432 	 -21.7768 	 86.1196
| 40> H 	 9.11101 	 -15.6196 	 80.8777
| 41> *
| 42>
| 43>                          ****END OF INPUT****

CARTESIAN COORDINATES (ANGSTROEM)
---------------------------------
  S      8.877070  -20.003000   84.749000
  C      7.727010  -20.713600   85.803800
  C      6.702690  -19.817500   86.135100
  C      6.984180  -18.553800   85.578300
  C      8.101710  -18.459700   84.870100
  H      6.315400  -17.690100   85.600600
  C      5.545950  -20.105500   87.016800
  H      5.209800  -19.245400   87.478900
  H      5.886720  -20.814700   87.790700
  C      4.424780  -20.990100   86.405600
  H      3.635530  -21.207000   87.155200
  H      3.884300  -20.328700   85.724400
  C      4.877460  -22.332900   85.891600
  H      4.039720  -22.777500   85.399900
  H      5.673310  -22.257600   85.216700
  H      5.125950  -22.945500   86.705100
  S      8.147490  -17.448500   82.322000
  C      9.054770  -16.044000   81.904400
  C      9.510930  -15.393600   83.054800
  C      9.091920  -16.115400   84.262300
  C      8.460050  -17.329100   84.018700
  H      9.880780  -14.402400   83.003800
  C      9.416020  -15.617500   85.639700
  H     10.460500  -15.741100   85.867100
  H      8.916520  -16.194800   86.404000
  C      9.124820  -14.127100   85.994200
  H      8.754630  -14.059400   87.007100
  H      8.249490  -13.918300   85.422300
  C     10.263600  -13.035500   85.741800
  H     10.090900  -12.136200   86.306200
  H     10.277500  -12.831000   84.649400
  H     11.187100  -13.396000   86.089400
  H      7.754320  -21.776800   86.119600
  H      9.111010  -15.619600   80.877700

 Total Charge           Charge          ....    0
 Multiplicity           Mult            ....    1
 Number of Electrons    NEL             ....  134
 Basis Dimension        Dim             ....  322

ORBITAL ENERGIES
----------------

  NO   OCC          E(Eh)            E(eV)
   0   2.0000     -88.966123     -2420.8913
   1   2.0000     -88.961659     -2420.7698
   2   2.0000     -10.322295      -280.8839
   3   2.0000     -10.320958      -280.8476
   4   2.0000     -10.319567      -280.8097
   5   2.0000     -10.315907      -280.7101
   6   2.0000     -10.305073      -280.4153
   7   2.0000     -10.297779      -280.2168
   8   2.0000     -10.295284      -280.1489
   9   2.0000     -10.286647      -279.9139
  10   2.0000     -10.286015      -279.8967
  11   2.0000     -10.284843      -279.8648
  12   2.0000     -10.283578      -279.8304
  13   2.0000     -10.282499      -279.8010
  14   2.0000     -10.279812      -279.7279
  15   2.0000     -10.266387      -279.3626
  16   2.0000      -8.081829      -219.9178
  17   2.0000      -8.077331      -219.7953
  18   2.0000      -6.040192      -164.3620
  19   2.0000      -6.036184      -164.2529
  20   2.0000      -6.035794      -164.2423
  21   2.0000      -6.032689      -164.1578
  22   2.0000      -6.031552      -164.1269
  23   2.0000      -6.028228      -164.0364
  24   2.0000      -1.014763       -27.6131
  25   2.0000      -0.988735       -26.9049
  26   2.0000      -0.917358       -24.9626
  27   2.0000      -0.901213       -24.5232
  28   2.0000      -0.870762       -23.6946
  29   2.0000      -0.856613       -23.3096
  30   2.0000      -0.840797       -22.8792
  31   2.0000      -0.818570       -22.2744
  32   2.0000      -0.788893       -21.4669
  33   2.0000      -0.775787       -21.1102
  34   2.0000      -0.707430       -19.2501
  35   2.0000      -0.699358       -19.0305
  36   2.0000      -0.691793       -18.8246
  37   2.0000      -0.658045       -17.9063
  38   2.0000      -0.646553       -17.5936
  39   2.0000      -0.622530       -16.9399
  40   2.0000      -0.598018       -16.2729
  41   2.0000      -0.575464       -15.6592
  42   2.0000      -0.559040       -15.2123
  43   2.0000      -0.552712       -15.0401
  44   2.0000      -0.542175       -14.7533
  45   2.0000      -0.533047       -14.5049
  46   2.0000      -0.519011       -14.1230
  47   2.0000      -0.514003       -13.9867
  48   2.0000      -0.503411       -13.6985
  49   2.0000      -0.499988       -13.6054
  50   2.0000      -0.489277       -13.3139
  51   2.0000      -0.483023       -13.1437
  52   2.0000      -0.472522       -12.8580
  53   2.0000      -0.471129       -12.8201
  54   2.0000      -0.463926       -12.6241
  55   2.0000      -0.448639       -12.2081
  56   2.0000      -0.447412       -12.1747
  57   2.0000      -0.441896       -12.0246
  58   2.0000      -0.426148       -11.5961
  59   2.0000      -0.424961       -11.5638
  60   2.0000      -0.419544       -11.4164
  61   2.0000      -0.413433       -11.2501
  62   2.0000      -0.409984       -11.1562
  63   2.0000      -0.343123        -9.3368
  64   2.0000      -0.325206        -8.8493
  65   2.0000      -0.322590        -8.7781
  66   2.0000      -0.304640        -8.2897
  67   0.0000       0.045128         1.2280
  68   0.0000       0.057742         1.5712
  69   0.0000       0.114379         3.1124
  70   0.0000       0.124915         3.3991
  71   0.0000       0.132664         3.6100

MULLIKEN ATOMIC CHARGES
-----------------------
   0 S :    0.132302
   1 C :   -0.142941
   2 C :   -0.085501
   3 C :    0.028497
   4 C :   -0.154479
   5 H :    0.014654
   6 C :    0.107405
   7 H :    0.004312
   8 H :    0.017454
   9 C :   -0.096618
  10 H :    0.026611
  11 H :    0.020122
  12 C :    0.002006
  13 H :    0.028571
  14 H :    0.031159
  15 H :    0.015855
  16 S :    0.115482
  17 C :   -0.112672
  18 C :   -0.011306
  19 C :   -0.037827
  20 C :   -0.182473
  21 H :    0.008105
  22 C :    0.081993
  23 H :    0.025890
  24 H :    0.017059
  25 C :   -0.100754
  26 H :    0.022859
  27 H :    0.017837
  28 C :   -0.027208
  29 H :    0.032208
  30 H :    0.040222
  31 H :    0.020210
  32 H :    0.064406
  33 H :    0.076561
Sum of atomic charges:   -0.0000000

LOEWDIN ATOMIC CHARGES
----------------------
   0 S :    0.434845
   1 C :   -0.207290
   2 C :   -0.066655
   3 C :   -0.059635
   4 C :   -0.211487
   5 H :    0.035562
   6 C :   -0.029640
   7 H :    0.019583
   8 H :    0.035651
   9 C :   -0.037201
  10 H :    0.026152
  11 H :    0.017323
  12 C :   -0.053161
  13 H :    0.030742
  14 H :    0.017006
  15 H :    0.019874
  16 S :    0.425887
  17 C :   -0.195770
  18 C :   -0.073612
  19 C :   -0.051197
  20 C :   -0.213458
  21 H :    0.024483
  22 C :   -0.035862
  23 H :    0.029794
  24 H :    0.031055
  25 C :   -0.039626
  26 H :    0.023194
  27 H :    0.017994
  28 C :   -0.058843
  29 H :    0.026479
  30 H :    0.027691
  31 H :    0.016335
  32 H :    0.034203
  33 H :    0.039584

  Mayer bond orders larger than 0.100000
B(  0-S ,  1-C ) :   1.1666 B(  0-S ,  4-C ) :   1.1518 B(  1-C ,  2-C ) :   1.5717
B(  1-C , 32-H ) :   0.9596 B(  2-C ,  3-C ) :   1.2604 B(  2-C ,  6-C ) :   1.0337
B(  3-C ,  4-C ) :   1.5941 B(  3-C ,  5-H ) :   0.9940 B(  4-C , 20-C ) :   1.0039
B(  6-C ,  7-H ) :   0.9406 B(  6-C ,  8-H ) :   0.9358 B(  6-C ,  9-C ) :   1.0627
B(  9-C , 10-H ) :   0.9563 B(  9-C , 11-H ) :   0.9573 B(  9-C , 12-C ) :   1.0802
B( 12-C , 13-H ) :   0.9659 B( 12-C , 14-H ) :   0.9708 B( 12-C , 15-H ) :   0.9713
B( 16-S , 17-C ) :   1.1805 B( 16-S , 20-C ) :   1.1493 B( 17-C , 18-C ) :   1.5883
B( 17-C , 33-H ) :   0.9618 B( 18-C , 19-C ) :   1.2384 B( 18-C , 21-H ) :   0.9927
B( 19-C , 20-C ) :   1.5964 B( 19-C , 22-C ) :   1.0671 B( 22-C , 23-H ) :   0.9349
B( 22-C , 24-H ) :   0.9297 B( 22-C , 25-C ) :   1.0526 B( 25-C , 26-H ) :   0.9618
B( 25-C , 27-H ) :   0.9639 B( 25-C , 28-C ) :   1.0635 B( 28-C , 29-H ) :   0.9740
B( 28-C , 30-H ) :   0.9799 B( 28-C , 31-H ) :   0.9772

Dispersion correction           -0.014111824
FINAL SINGLE POINT ENERGY     -1339.869659703238

DIPOLE MOMENT
-------------
                                X             Y             Z
Electronic contribution:      8.00939      -6.06146     -15.30148
Nuclear contribution   :     -8.35596       6.24869      15.68244
                        -----------------------------------------
Total Dipole Moment    :     -0.34657       0.18723       0.38097
                        -----------------------------------------
Magnitude (a.u.)       :      0.54800
Magnitude (Debye)      :      1.39290

Rotational constants in cm-1:     0.024218     0.007086     0.006241
Rotational constants in MHz :   726.051829   212.427783   187.093040

                             ****ORCA TERMINATED NORMALLY****
TOTAL RUN TIME: 0 days 0 hours 0 minutes 33 seconds 197 msec
