                         Program Version 4.2.1 -  RELEASE  -
|  1> ! wB97X-D3 SP def2-SVP
|  2> %pal
|  3> nprocs 16
|  4> end
|  5>
|  6> * xyz 0 1
|  7> S 	 -25.0447 	 33.0886 	 39.5765
|  8> C 	 -23.4793 	 32.3235 	 39.375
|  9> C 	 -23.3709 	 31.2267 	 40.2033
| 10> C 	 -24.6223 	 30.9159 	 40.8325
| 11> C 	 -25.6507 	 31.8283 	 40.6781
| 12> H 	 -24.8988 	 30.0355 	 41.4346
| 13> C 	 -22.161 	 30.2719 	 40.3485
| 14> H 	 -21.5962 	 30.51 	 41.2576
| 15> H 	 -21.4806 	 30.5749 	 39.5743
| 16> C 	 -22.5009 	 28.7988 	 40.0926
| 17> H 	 -22.9964 	 28.4518 	 41.0339
| 18> H 	 -23.1727 	 28.7429 	 39.228
| 19> C 	 -21.3011 	 27.8483 	 39.8224
| 20> H 	 -20.7197 	 28.1034 	 38.9398
| 21> H 	 -20.681 	 27.9331 	 40.7452
| 22> H 	 -21.6012 	 26.8258 	 39.6731
| 23> S 	 -28.3365 	 31.9378 	 40.1289
| 24> C 	 -29.5302 	 31.9382 	 41.3082
| 25> C 	 -28.9516 	 32.0425 	 42.5505
| 26> C 	 -27.5082 	 31.8854 	 42.514
| 27> C 	 -27.0055 	 31.8118 	 41.1931
| 28> H 	 -29.5566 	 32.2337 	 43.4022
| 29> C 	 -26.6746 	 31.8645 	 43.7769
| 30> H 	 -25.7506 	 31.2861 	 43.5768
| 31> H 	 -27.2089 	 31.2983 	 44.4886
| 32> C 	 -26.271 	 33.2331 	 44.341
| 33> H 	 -25.7073 	 33.8148 	 43.6367
| 34> H 	 -25.6036 	 33.0727 	 45.2639
| 35> C 	 -27.5006 	 34.1481 	 44.7836
| 36> H 	 -28.0971 	 33.6333 	 45.5532
| 37> H 	 -28.075 	 34.4432 	 43.9305
| 38> H 	 -27.1714 	 35.0559 	 45.3762
| 39> H 	 -22.7434 	 32.7373 	 38.7032
| 40> H 	 -30.5268 	 32.1042 	 40.9813
| 41> *
| 42>
| 43>                          ****END OF INPUT****

CARTESIAN COORDINATES (ANGSTROEM)
---------------------------------
  S    -25.044700   33.088600   39.576500
  C    -23.479300   32.323500   39.375000
  C    -23.370900   31.226700   40.203300
  C    -24.622300   30.915900   40.832500
  C    -25.650700   31.828300   40.678100
  H    -24.898800   30.035500   41.434600
  C    -22.161000   30.271900   40.348500
  H    -21.596200   30.510000   41.257600
  H    -21.480600   30.574900   39.574300
  C    -22.500900   28.798800   40.092600
  H    -22.996400   28.451800   41.033900
  H    -23.172700   28.742900   39.228000
  C    -21.301100   27.848300   39.822400
  H    -20.719700   28.103400   38.939800
  H    -20.681000   27.933100   40.745200
  H    -21.601200   26.825800   39.673100
  S    -28.336500   31.937800   40.128900
  C    -29.530200   31.938200   41.308200
  C    -28.951600   32.042500   42.550500
  C    -27.508200   31.885400   42.514000
  C    -27.005500   31.811800   41.193100
  H    -29.556600   32.233700   43.402200
  C    -26.674600   31.864500   43.776900
  H    -25.750600   31.286100   43.576800
  H    -27.208900   31.298300   44.488600
  C    -26.271000   33.233100   44.341000
  H    -25.707300   33.814800   43.636700
  H    -25.603600   33.072700   45.263900
  C    -27.500600   34.148100   44.783600
  H    -28.097100   33.633300   45.553200
  H    -28.075000   34.443200   43.930500
  H    -27.171400   35.055900   45.376200
  H    -22.743400   32.737300   38.703200
  H    -30.526800   32.104200   40.981300

 Total Charge           Charge          ....    0
 Multiplicity           Mult            ....    1
 Number of Electrons    NEL             ....  134
 Basis Dimension        Dim             ....  322

ORBITAL ENERGIES
----------------

  NO   OCC          E(Eh)            E(eV)
   0   2.0000     -88.962189     -2420.7842
   1   2.0000     -88.961070     -2420.7538
   2   2.0000     -10.331535      -281.1354
   3   2.0000     -10.326190      -280.9899
   4   2.0000     -10.317703      -280.7590
   5   2.0000     -10.312658      -280.6217
   6   2.0000     -10.308663      -280.5130
   7   2.0000     -10.305862      -280.4368
   8   2.0000     -10.295134      -280.1448
   9   2.0000     -10.294485      -280.1272
  10   2.0000     -10.293660      -280.1047
  11   2.0000     -10.292442      -280.0716
  12   2.0000     -10.292110      -280.0625
  13   2.0000     -10.288133      -279.9543
  14   2.0000     -10.281800      -279.7820
  15   2.0000     -10.280791      -279.7545
  16   2.0000      -8.078242      -219.8201
  17   2.0000      -8.076637      -219.7765
  18   2.0000      -6.036501      -164.2615
  19   2.0000      -6.035222      -164.2267
  20   2.0000      -6.032081      -164.1413
  21   2.0000      -6.031101      -164.1146
  22   2.0000      -6.029444      -164.0695
  23   2.0000      -6.027402      -164.0139
  24   2.0000      -1.012290       -27.5458
  25   2.0000      -0.986635       -26.8477
  26   2.0000      -0.907979       -24.7074
  27   2.0000      -0.904920       -24.6241
  28   2.0000      -0.873426       -23.7671
  29   2.0000      -0.842805       -22.9339
  30   2.0000      -0.838807       -22.8251
  31   2.0000      -0.817311       -22.2402
  32   2.0000      -0.783681       -21.3250
  33   2.0000      -0.773629       -21.0515
  34   2.0000      -0.709578       -19.3086
  35   2.0000      -0.694998       -18.9119
  36   2.0000      -0.689338       -18.7578
  37   2.0000      -0.663958       -18.0672
  38   2.0000      -0.645920       -17.5764
  39   2.0000      -0.616487       -16.7755
  40   2.0000      -0.597984       -16.2720
  41   2.0000      -0.573927       -15.6173
  42   2.0000      -0.562137       -15.2965
  43   2.0000      -0.550869       -14.9899
  44   2.0000      -0.535710       -14.5774
  45   2.0000      -0.522441       -14.2164
  46   2.0000      -0.517634       -14.0855
  47   2.0000      -0.512590       -13.9483
  48   2.0000      -0.508630       -13.8405
  49   2.0000      -0.496946       -13.5226
  50   2.0000      -0.489378       -13.3167
  51   2.0000      -0.482016       -13.1163
  52   2.0000      -0.476254       -12.9595
  53   2.0000      -0.472891       -12.8680
  54   2.0000      -0.459300       -12.4982
  55   2.0000      -0.447899       -12.1880
  56   2.0000      -0.439674       -11.9641
  57   2.0000      -0.433144       -11.7865
  58   2.0000      -0.430006       -11.7011
  59   2.0000      -0.417551       -11.3621
  60   2.0000      -0.417019       -11.3477
  61   2.0000      -0.414009       -11.2658
  62   2.0000      -0.411586       -11.1998
  63   2.0000      -0.346230        -9.4214
  64   2.0000      -0.328924        -8.9505
  65   2.0000      -0.326635        -8.8882
  66   2.0000      -0.299103        -8.1390
  67   0.0000       0.032614         0.8875
  68   0.0000       0.069568         1.8931
  69   0.0000       0.116368         3.1665
  70   0.0000       0.124777         3.3953
  71   0.0000       0.135743         3.6937

MULLIKEN ATOMIC CHARGES
-----------------------
   0 S :    0.095626
   1 C :   -0.130474
   2 C :   -0.081952
   3 C :    0.018255
   4 C :   -0.155856
   5 H :    0.023433
   6 C :    0.096620
   7 H :    0.042460
   8 H :   -0.002469
   9 C :   -0.117030
  10 H :    0.043068
  11 H :    0.044260
  12 C :   -0.044421
  13 H :    0.033315
  14 H :    0.034705
  15 H :    0.036613
  16 S :    0.112465
  17 C :   -0.078150
  18 C :   -0.028762
  19 C :   -0.064625
  20 C :   -0.166007
  21 H :    0.013036
  22 C :    0.107100
  23 H :    0.022567
  24 H :    0.013487
  25 C :   -0.078166
  26 H :    0.035043
  27 H :    0.040744
  28 C :   -0.092320
  29 H :    0.025877
  30 H :    0.051814
  31 H :    0.040022
  32 H :    0.053755
  33 H :    0.055966
Sum of atomic charges:    0.0000000

LOEWDIN ATOMIC CHARGES
----------------------
   0 S :    0.385268
   1 C :   -0.188499
   2 C :   -0.065229
   3 C :   -0.067583
   4 C :   -0.187265
   5 H :    0.034593
   6 C :   -0.032966
   7 H :    0.033861
   8 H :    0.023378
   9 C :   -0.043177
  10 H :    0.027712
  11 H :    0.028019
  12 C :   -0.065376
  13 H :    0.023256
  14 H :    0.029658
  15 H :    0.025607
  16 S :    0.459277
  17 C :   -0.198971
  18 C :   -0.072066
  19 C :   -0.047404
  20 C :   -0.227079
  21 H :    0.026709
  22 C :   -0.034987
  23 H :    0.035697
  24 H :    0.024056
  25 C :   -0.034881
  26 H :    0.021966
  27 H :    0.031894
  28 C :   -0.075408
  29 H :    0.021423
  30 H :    0.021663
  31 H :    0.033216
  32 H :    0.029003
  33 H :    0.024637

  Mayer bond orders larger than 0.100000
B(  0-S ,  1-C ) :   1.1430 B(  0-S ,  4-C ) :   1.1317 B(  1-C ,  2-C ) :   1.6118
B(  1-C , 32-H ) :   0.9711 B(  2-C ,  3-C ) :   1.2189 B(  2-C ,  6-C ) :   1.0202
B(  3-C ,  4-C ) :   1.6111 B(  3-C ,  5-H ) :   0.9849 B(  4-C , 20-C ) :   1.0502
B(  6-C ,  7-H ) :   0.9337 B(  6-C ,  8-H ) :   0.9385 B(  6-C ,  9-C ) :   1.0562
B(  9-C , 10-H ) :   0.9514 B(  9-C , 11-H ) :   0.9610 B(  9-C , 12-C ) :   1.0853
B( 12-C , 13-H ) :   0.9751 B( 12-C , 14-H ) :   0.9759 B( 12-C , 15-H ) :   0.9756
B( 16-S , 17-C ) :   1.2047 B( 16-S , 20-C ) :   1.1724 B( 17-C , 18-C ) :   1.5375
B( 17-C , 33-H ) :   0.9744 B( 18-C , 19-C ) :   1.2782 B( 18-C , 21-H ) :   1.0004
B( 19-C , 20-C ) :   1.5327 B( 19-C , 22-C ) :   1.0443 B( 22-C , 23-H ) :   0.9280
B( 22-C , 24-H ) :   0.9319 B( 22-C , 25-C ) :   1.0717 B( 25-C , 26-H ) :   0.9586
B( 25-C , 27-H ) :   0.9571 B( 25-C , 28-C ) :   1.0699 B( 28-C , 29-H ) :   0.9766
B( 28-C , 30-H ) :   0.9742 B( 28-C , 31-H ) :   0.9746

Dispersion correction           -0.014203417
FINAL SINGLE POINT ENERGY     -1339.887716306455

DIPOLE MOMENT
-------------
                                X             Y             Z
Electronic contribution:    -14.52548       8.84902     -14.71071
Nuclear contribution   :     14.75235      -9.07526      15.06168
                        -----------------------------------------
Total Dipole Moment    :      0.22687      -0.22625       0.35097
                        -----------------------------------------
Magnitude (a.u.)       :      0.47522
Magnitude (Debye)      :      1.20792

Rotational constants in cm-1:     0.020780     0.007347     0.006767
Rotational constants in MHz :   622.974063   220.245138   202.862624

                             ****ORCA TERMINATED NORMALLY****
TOTAL RUN TIME: 0 days 0 hours 0 minutes 33 seconds 928 msec
