                         Program Version 4.2.1 -  RELEASE  -
|  1> ! wB97X-D3 SP def2-SVP
|  2> %pal
|  3> nprocs 16
|  4> end
|  5>
|  6> * xyz 0 1
|  7> S 	 36.6228 	 29.646 	 92.2841
|  8> C 	 35.2552 	 30.606 	 91.7717
|  9> C 	 34.1192 	 30.2494 	 92.4625
| 10> C 	 34.3016 	 29.139 	 93.3174
| 11> C 	 35.603 	 28.6801 	 93.3455
| 12> H 	 33.4901 	 28.611 	 93.8972
| 13> C 	 32.7456 	 30.9141 	 92.1857
| 14> H 	 32.8939 	 31.7612 	 91.5419
| 15> H 	 32.2546 	 31.1801 	 93.0474
| 16> C 	 31.6582 	 30.0562 	 91.4403
| 17> H 	 31.3712 	 29.1074 	 91.911
| 18> H 	 30.7178 	 30.5652 	 91.3826
| 19> C 	 32.1587 	 29.6044 	 90.1076
| 20> H 	 32.6353 	 28.6129 	 90.1858
| 21> H 	 31.3494 	 29.4468 	 89.4685
| 22> H 	 32.774 	 30.3096 	 89.6388
| 23> S 	 37.5036 	 27.9304 	 95.1706
| 24> C 	 37.4806 	 26.3382 	 95.9082
| 25> C 	 36.4664 	 25.5869 	 95.35
| 26> C 	 35.6331 	 26.2963 	 94.4453
| 27> C 	 36.1123 	 27.5707 	 94.1398
| 28> H 	 36.2665 	 24.5656 	 95.5837
| 29> C 	 34.365 	 25.7535 	 93.8786
| 30> H 	 33.5189 	 26.5164 	 94.1396
| 31> H 	 34.0308 	 24.8839 	 94.4709
| 32> C 	 34.1957 	 25.3635 	 92.4154
| 33> H 	 34.9603 	 24.6441 	 92.275
| 34> H 	 34.5304 	 26.1673 	 91.6613
| 35> C 	 32.8287 	 24.7722 	 92.131
| 36> H 	 32.0204 	 25.4458 	 92.3477
| 37> H 	 32.726 	 23.7959 	 92.613
| 38> H 	 32.77 	 24.6423 	 91.0799
| 39> H 	 35.2136 	 31.4295 	 91.047
| 40> H 	 38.2104 	 26.065 	 96.6364
| 41> *
| 42>
| 43>                          ****END OF INPUT****

CARTESIAN COORDINATES (ANGSTROEM)
---------------------------------
  S     36.622800   29.646000   92.284100
  C     35.255200   30.606000   91.771700
  C     34.119200   30.249400   92.462500
  C     34.301600   29.139000   93.317400
  C     35.603000   28.680100   93.345500
  H     33.490100   28.611000   93.897200
  C     32.745600   30.914100   92.185700
  H     32.893900   31.761200   91.541900
  H     32.254600   31.180100   93.047400
  C     31.658200   30.056200   91.440300
  H     31.371200   29.107400   91.911000
  H     30.717800   30.565200   91.382600
  C     32.158700   29.604400   90.107600
  H     32.635300   28.612900   90.185800
  H     31.349400   29.446800   89.468500
  H     32.774000   30.309600   89.638800
  S     37.503600   27.930400   95.170600
  C     37.480600   26.338200   95.908200
  C     36.466400   25.586900   95.350000
  C     35.633100   26.296300   94.445300
  C     36.112300   27.570700   94.139800
  H     36.266500   24.565600   95.583700
  C     34.365000   25.753500   93.878600
  H     33.518900   26.516400   94.139600
  H     34.030800   24.883900   94.470900
  C     34.195700   25.363500   92.415400
  H     34.960300   24.644100   92.275000
  H     34.530400   26.167300   91.661300
  C     32.828700   24.772200   92.131000
  H     32.020400   25.445800   92.347700
  H     32.726000   23.795900   92.613000
  H     32.770000   24.642300   91.079900
  H     35.213600   31.429500   91.047000
  H     38.210400   26.065000   96.636400

 Total Charge           Charge          ....    0
 Multiplicity           Mult            ....    1
 Number of Electrons    NEL             ....  134
 Basis Dimension        Dim             ....  322

ORBITAL ENERGIES
----------------

  NO   OCC          E(Eh)            E(eV)
   0   2.0000     -88.969472     -2420.9824
   1   2.0000     -88.963213     -2420.8121
   2   2.0000     -10.331620      -281.1377
   3   2.0000     -10.328007      -281.0394
   4   2.0000     -10.319120      -280.7975
   5   2.0000     -10.315270      -280.6928
   6   2.0000     -10.303138      -280.3626
   7   2.0000     -10.300872      -280.3010
   8   2.0000     -10.297145      -280.1996
   9   2.0000     -10.296809      -280.1904
  10   2.0000     -10.294468      -280.1267
  11   2.0000     -10.288709      -279.9700
  12   2.0000     -10.286006      -279.8965
  13   2.0000     -10.281958      -279.7863
  14   2.0000     -10.275746      -279.6173
  15   2.0000     -10.261388      -279.2266
  16   2.0000      -8.083807      -219.9716
  17   2.0000      -8.077881      -219.8103
  18   2.0000      -6.042359      -164.4210
  19   2.0000      -6.038348      -164.3118
  20   2.0000      -6.036320      -164.2566
  21   2.0000      -6.034553      -164.2085
  22   2.0000      -6.032311      -164.1475
  23   2.0000      -6.028797      -164.0519
  24   2.0000      -1.006802       -27.3965
  25   2.0000      -0.984725       -26.7957
  26   2.0000      -0.911811       -24.8116
  27   2.0000      -0.911007       -24.7898
  28   2.0000      -0.871178       -23.7059
  29   2.0000      -0.856098       -23.2956
  30   2.0000      -0.847129       -23.0516
  31   2.0000      -0.815252       -22.1841
  32   2.0000      -0.785487       -21.3742
  33   2.0000      -0.774244       -21.0683
  34   2.0000      -0.711038       -19.3483
  35   2.0000      -0.697275       -18.9738
  36   2.0000      -0.692502       -18.8439
  37   2.0000      -0.667827       -18.1725
  38   2.0000      -0.637289       -17.3415
  39   2.0000      -0.619617       -16.8606
  40   2.0000      -0.601097       -16.3567
  41   2.0000      -0.568095       -15.4586
  42   2.0000      -0.563882       -15.3440
  43   2.0000      -0.557182       -15.1617
  44   2.0000      -0.543253       -14.7827
  45   2.0000      -0.525952       -14.3119
  46   2.0000      -0.519874       -14.1465
  47   2.0000      -0.519161       -14.1271
  48   2.0000      -0.502644       -13.6777
  49   2.0000      -0.498068       -13.5531
  50   2.0000      -0.491859       -13.3842
  51   2.0000      -0.483761       -13.1638
  52   2.0000      -0.470105       -12.7922
  53   2.0000      -0.468413       -12.7462
  54   2.0000      -0.457742       -12.4558
  55   2.0000      -0.450288       -12.2530
  56   2.0000      -0.445536       -12.1236
  57   2.0000      -0.435837       -11.8597
  58   2.0000      -0.431222       -11.7342
  59   2.0000      -0.428249       -11.6533
  60   2.0000      -0.421022       -11.4566
  61   2.0000      -0.413263       -11.2455
  62   2.0000      -0.407409       -11.0862
  63   2.0000      -0.350010        -9.5242
  64   2.0000      -0.333078        -9.0635
  65   2.0000      -0.329352        -8.9621
  66   2.0000      -0.290575        -7.9069
  67   0.0000       0.027584         0.7506
  68   0.0000       0.069002         1.8776
  69   0.0000       0.111211         3.0262
  70   0.0000       0.114641         3.1195
  71   0.0000       0.131369         3.5747

MULLIKEN ATOMIC CHARGES
-----------------------
   0 S :    0.120504
   1 C :   -0.120458
   2 C :   -0.088757
   3 C :    0.005576
   4 C :   -0.140865
   5 H :    0.035353
   6 C :    0.122151
   7 H :    0.013978
   8 H :    0.010361
   9 C :   -0.103056
  10 H :    0.019060
  11 H :    0.024606
  12 C :   -0.004578
  13 H :    0.037970
  14 H :    0.007428
  15 H :    0.006894
  16 S :    0.091157
  17 C :   -0.085608
  18 C :   -0.002863
  19 C :   -0.023156
  20 C :   -0.142962
  21 H :    0.006012
  22 C :    0.001581
  23 H :    0.025325
  24 H :    0.008681
  25 C :   -0.068446
  26 H :    0.012968
  27 H :    0.048373
  28 C :   -0.012165
  29 H :    0.026425
  30 H :    0.037200
  31 H :    0.022985
  32 H :    0.050530
  33 H :    0.057794
Sum of atomic charges:   -0.0000000

LOEWDIN ATOMIC CHARGES
----------------------
   0 S :    0.406473
   1 C :   -0.201587
   2 C :   -0.063794
   3 C :   -0.066211
   4 C :   -0.192691
   5 H :    0.041299
   6 C :   -0.013474
   7 H :    0.026080
   8 H :    0.018892
   9 C :   -0.041669
  10 H :    0.023127
  11 H :    0.020197
  12 C :   -0.059650
  13 H :    0.032307
  14 H :    0.018523
  15 H :    0.012451
  16 S :    0.399552
  17 C :   -0.176076
  18 C :   -0.066387
  19 C :   -0.062421
  20 C :   -0.188864
  21 H :    0.027685
  22 C :   -0.044529
  23 H :    0.033735
  24 H :    0.029266
  25 C :   -0.046253
  26 H :    0.018610
  27 H :    0.034537
  28 C :   -0.057828
  29 H :    0.023063
  30 H :    0.029608
  31 H :    0.025874
  32 H :    0.034180
  33 H :    0.025977

  Mayer bond orders larger than 0.100000
B(  0-S ,  1-C ) :   1.1326 B(  0-S ,  4-C ) :   1.1469 B(  1-C ,  2-C ) :   1.6184
B(  1-C , 32-H ) :   0.9605 B(  2-C ,  3-C ) :   1.2466 B(  2-C ,  6-C ) :   1.0288
B(  3-C ,  4-C ) :   1.5717 B(  3-C ,  5-H ) :   0.9827 B(  4-C , 20-C ) :   1.0393
B(  6-C ,  7-H ) :   0.9453 B(  6-C ,  8-H ) :   0.9362 B(  6-C ,  9-C ) :   1.0699
B(  9-C , 10-H ) :   0.9565 B(  9-C , 11-H ) :   0.9609 B(  9-C , 12-C ) :   1.0751
B( 12-C , 13-H ) :   0.9747 B( 12-C , 14-H ) :   0.9679 B( 12-C , 15-H ) :   0.9783
B( 16-S , 17-C ) :   1.1632 B( 16-S , 20-C ) :   1.1488 B( 17-C , 18-C ) :   1.5614
B( 17-C , 20-C ) :   0.1069 B( 17-C , 33-H ) :   0.9761 B( 18-C , 19-C ) :   1.2728
B( 18-C , 21-H ) :   0.9939 B( 19-C , 20-C ) :   1.5730 B( 19-C , 22-C ) :   1.0473
B( 22-C , 23-H ) :   0.9300 B( 22-C , 24-H ) :   0.9287 B( 22-C , 25-C ) :   1.0592
B( 25-C , 26-H ) :   0.9464 B( 25-C , 27-H ) :   0.9523 B( 25-C , 28-C ) :   1.0858
B( 28-C , 29-H ) :   0.9749 B( 28-C , 30-H ) :   0.9713 B( 28-C , 31-H ) :   0.9698

Dispersion correction           -0.015048382
FINAL SINGLE POINT ENERGY     -1339.876487035287

DIPOLE MOMENT
-------------
                                X             Y             Z
Electronic contribution:     27.21109       7.71163      13.42110
Nuclear contribution   :    -27.90188      -8.01904     -13.53976
                        -----------------------------------------
Total Dipole Moment    :     -0.69079      -0.30741      -0.11866
                        -----------------------------------------
Magnitude (a.u.)       :      0.76536
Magnitude (Debye)      :      1.94538

Rotational constants in cm-1:     0.018416     0.009913     0.007162
Rotational constants in MHz :   552.084826   297.177696   214.725094

                             ****ORCA TERMINATED NORMALLY****
TOTAL RUN TIME: 0 days 0 hours 0 minutes 31 seconds 758 msec
