                         Program Version 4.2.1 -  RELEASE  -
|  1> ! wB97X-D3 SP def2-SVP
|  2> %pal
|  3> nprocs 16
|  4> end
|  5>
|  6> * xyz 0 1
|  7> S 	 44.1135 	 9.79314 	 81.2889
|  8> C 	 45.0233 	 10.5833 	 80.1387
|  9> C 	 45.5334 	 11.7871 	 80.6564
| 10> C 	 45.1189 	 12.1179 	 82.0172
| 11> C 	 44.2873 	 11.1467 	 82.4419
| 12> H 	 45.3433 	 12.9406 	 82.6869
| 13> C 	 46.5391 	 12.744 	 80.0185
| 14> H 	 46.8492 	 12.193 	 79.1694
| 15> H 	 47.5448 	 12.8074 	 80.479
| 16> C 	 46.1777 	 14.1785 	 79.6433
| 17> H 	 45.8391 	 14.5898 	 80.6141
| 18> H 	 47.1278 	 14.6275 	 79.2928
| 19> C 	 45.0468 	 14.2864 	 78.6113
| 20> H 	 44.922 	 15.331 	 78.4058
| 21> H 	 45.4637 	 13.8667 	 77.6588
| 22> H 	 44.0886 	 13.8913 	 78.9958
| 23> S 	 44.6171 	 10.9233 	 85.2175
| 24> C 	 43.3491 	 11.4176 	 86.2801
| 25> C 	 42.2739 	 11.8661 	 85.5786
| 26> C 	 42.3651 	 11.6936 	 84.143
| 27> C 	 43.6033 	 11.1694 	 83.7615
| 28> H 	 41.4799 	 12.3543 	 86.0938
| 29> C 	 41.2754 	 12.1585 	 83.219
| 30> H 	 40.9115 	 11.3688 	 82.6572
| 31> H 	 41.8494 	 12.8392 	 82.5709
| 32> C 	 40.1992 	 12.9697 	 83.7564
| 33> H 	 40.6632 	 13.9139 	 84.1847
| 34> H 	 39.6414 	 12.3991 	 84.5034
| 35> C 	 39.213 	 13.3125 	 82.6282
| 36> H 	 38.2962 	 13.7575 	 83.1196
| 37> H 	 38.9885 	 12.4638 	 81.9539
| 38> H 	 39.6318 	 14.0892 	 82.006
| 39> H 	 45.2224 	 10.1562 	 79.1801
| 40> H 	 43.384 	 11.3835 	 87.3794
| 41> *
| 42>
| 43>                          ****END OF INPUT****

CARTESIAN COORDINATES (ANGSTROEM)
---------------------------------
  S     44.113500    9.793140   81.288900
  C     45.023300   10.583300   80.138700
  C     45.533400   11.787100   80.656400
  C     45.118900   12.117900   82.017200
  C     44.287300   11.146700   82.441900
  H     45.343300   12.940600   82.686900
  C     46.539100   12.744000   80.018500
  H     46.849200   12.193000   79.169400
  H     47.544800   12.807400   80.479000
  C     46.177700   14.178500   79.643300
  H     45.839100   14.589800   80.614100
  H     47.127800   14.627500   79.292800
  C     45.046800   14.286400   78.611300
  H     44.922000   15.331000   78.405800
  H     45.463700   13.866700   77.658800
  H     44.088600   13.891300   78.995800
  S     44.617100   10.923300   85.217500
  C     43.349100   11.417600   86.280100
  C     42.273900   11.866100   85.578600
  C     42.365100   11.693600   84.143000
  C     43.603300   11.169400   83.761500
  H     41.479900   12.354300   86.093800
  C     41.275400   12.158500   83.219000
  H     40.911500   11.368800   82.657200
  H     41.849400   12.839200   82.570900
  C     40.199200   12.969700   83.756400
  H     40.663200   13.913900   84.184700
  H     39.641400   12.399100   84.503400
  C     39.213000   13.312500   82.628200
  H     38.296200   13.757500   83.119600
  H     38.988500   12.463800   81.953900
  H     39.631800   14.089200   82.006000
  H     45.222400   10.156200   79.180100
  H     43.384000   11.383500   87.379400

 Total Charge           Charge          ....    0
 Multiplicity           Mult            ....    1
 Number of Electrons    NEL             ....  134
 Basis Dimension        Dim             ....  322

ORBITAL ENERGIES
----------------

  NO   OCC          E(Eh)            E(eV)
   0   2.0000     -88.965689     -2420.8795
   1   2.0000     -88.960878     -2420.7486
   2   2.0000     -10.327557      -281.0271
   3   2.0000     -10.325397      -280.9683
   4   2.0000     -10.314789      -280.6797
   5   2.0000     -10.314653      -280.6760
   6   2.0000     -10.306512      -280.4544
   7   2.0000     -10.304245      -280.3928
   8   2.0000     -10.294739      -280.1341
   9   2.0000     -10.287928      -279.9488
  10   2.0000     -10.287311      -279.9320
  11   2.0000     -10.286487      -279.9095
  12   2.0000     -10.283100      -279.8174
  13   2.0000     -10.281042      -279.7614
  14   2.0000     -10.278223      -279.6847
  15   2.0000     -10.277824      -279.6738
  16   2.0000      -8.081601      -219.9115
  17   2.0000      -8.075494      -219.7454
  18   2.0000      -6.039993      -164.3566
  19   2.0000      -6.035896      -164.2451
  20   2.0000      -6.034073      -164.1955
  21   2.0000      -6.032450      -164.1513
  22   2.0000      -6.029969      -164.0838
  23   2.0000      -6.026241      -163.9823
  24   2.0000      -1.005984       -27.3742
  25   2.0000      -0.985061       -26.8049
  26   2.0000      -0.924254       -25.1502
  27   2.0000      -0.906972       -24.6800
  28   2.0000      -0.875079       -23.8121
  29   2.0000      -0.848999       -23.1024
  30   2.0000      -0.844603       -22.9828
  31   2.0000      -0.814421       -22.1615
  32   2.0000      -0.780974       -21.2514
  33   2.0000      -0.769203       -20.9311
  34   2.0000      -0.702093       -19.1049
  35   2.0000      -0.697464       -18.9790
  36   2.0000      -0.688057       -18.7230
  37   2.0000      -0.652869       -17.7655
  38   2.0000      -0.643197       -17.5023
  39   2.0000      -0.617659       -16.8074
  40   2.0000      -0.601415       -16.3653
  41   2.0000      -0.587241       -15.9796
  42   2.0000      -0.568008       -15.4563
  43   2.0000      -0.546195       -14.8627
  44   2.0000      -0.538425       -14.6513
  45   2.0000      -0.528025       -14.3683
  46   2.0000      -0.521474       -14.1900
  47   2.0000      -0.509394       -13.8613
  48   2.0000      -0.505789       -13.7632
  49   2.0000      -0.500367       -13.6157
  50   2.0000      -0.486654       -13.2425
  51   2.0000      -0.477881       -13.0038
  52   2.0000      -0.471329       -12.8255
  53   2.0000      -0.463209       -12.6046
  54   2.0000      -0.459314       -12.4986
  55   2.0000      -0.447675       -12.1819
  56   2.0000      -0.445968       -12.1354
  57   2.0000      -0.436223       -11.8702
  58   2.0000      -0.426993       -11.6191
  59   2.0000      -0.422909       -11.5079
  60   2.0000      -0.419992       -11.4286
  61   2.0000      -0.411496       -11.1974
  62   2.0000      -0.403504       -10.9799
  63   2.0000      -0.345105        -9.3908
  64   2.0000      -0.327546        -8.9130
  65   2.0000      -0.316846        -8.6218
  66   2.0000      -0.305336        -8.3086
  67   0.0000       0.047171         1.2836
  68   0.0000       0.057881         1.5750
  69   0.0000       0.108313         2.9473
  70   0.0000       0.126102         3.4314
  71   0.0000       0.134334         3.6554

MULLIKEN ATOMIC CHARGES
-----------------------
   0 S :    0.122564
   1 C :   -0.093433
   2 C :   -0.103566
   3 C :    0.046972
   4 C :   -0.182644
   5 H :    0.031993
   6 C :    0.059097
   7 H :   -0.021172
   8 H :    0.032372
   9 C :   -0.081814
  10 H :    0.024640
  11 H :    0.036066
  12 C :   -0.039863
  13 H :    0.025336
  14 H :    0.031380
  15 H :    0.052221
  16 S :    0.095904
  17 C :   -0.080705
  18 C :   -0.047564
  19 C :   -0.033628
  20 C :   -0.179352
  21 H :    0.012148
  22 C :    0.118032
  23 H :    0.015539
  24 H :    0.024591
  25 C :   -0.116671
  26 H :    0.041198
  27 H :    0.033587
  28 C :   -0.041345
  29 H :    0.042927
  30 H :    0.039342
  31 H :    0.026175
  32 H :    0.046096
  33 H :    0.063578
Sum of atomic charges:   -0.0000000

LOEWDIN ATOMIC CHARGES
----------------------
   0 S :    0.425323
   1 C :   -0.216500
   2 C :   -0.061905
   3 C :   -0.053138
   4 C :   -0.188264
   5 H :    0.041499
   6 C :   -0.050734
   7 H :    0.015822
   8 H :    0.036656
   9 C :   -0.042081
  10 H :    0.021296
  11 H :    0.029511
  12 C :   -0.067254
  13 H :    0.021715
  14 H :    0.030140
  15 H :    0.032259
  16 S :    0.395017
  17 C :   -0.191065
  18 C :   -0.082028
  19 C :   -0.043374
  20 C :   -0.200309
  21 H :    0.026260
  22 C :   -0.036191
  23 H :    0.023357
  24 H :    0.041081
  25 C :   -0.048163
  26 H :    0.033870
  27 H :    0.021390
  28 C :   -0.063562
  29 H :    0.033671
  30 H :    0.029001
  31 H :    0.022107
  32 H :    0.027493
  33 H :    0.037102

  Mayer bond orders larger than 0.100000
B(  0-S ,  1-C ) :   1.1556 B(  0-S ,  4-C ) :   1.1466 B(  1-C ,  2-C ) :   1.6041
B(  1-C , 32-H ) :   0.9721 B(  2-C ,  3-C ) :   1.1930 B(  2-C ,  6-C ) :   1.0255
B(  3-C ,  4-C ) :   1.6224 B(  3-C ,  5-H ) :   0.9955 B(  4-C , 20-C ) :   0.9952
B(  6-C ,  7-H ) :   0.9263 B(  6-C ,  8-H ) :   0.9420 B(  6-C ,  9-C ) :   1.0683
B(  9-C , 10-H ) :   0.9554 B(  9-C , 11-H ) :   0.9525 B(  9-C , 12-C ) :   1.0826
B( 12-C , 13-H ) :   0.9736 B( 12-C , 14-H ) :   0.9736 B( 12-C , 15-H ) :   0.9729
B( 16-S , 17-C ) :   1.1611 B( 16-S , 20-C ) :   1.1344 B( 17-C , 18-C ) :   1.6059
B( 17-C , 33-H ) :   0.9582 B( 18-C , 19-C ) :   1.2493 B( 18-C , 21-H ) :   0.9900
B( 19-C , 20-C ) :   1.6063 B( 19-C , 22-C ) :   1.0112 B( 22-C , 23-H ) :   0.9224
B( 22-C , 24-H ) :   0.9189 B( 22-C , 25-C ) :   1.1163 B( 25-C , 26-H ) :   0.9450
B( 25-C , 27-H ) :   0.9418 B( 25-C , 28-C ) :   1.0825 B( 28-C , 29-H ) :   0.9731
B( 28-C , 30-H ) :   0.9722 B( 28-C , 31-H ) :   0.9738

Dispersion correction           -0.013986559
FINAL SINGLE POINT ENERGY     -1339.864735944517

DIPOLE MOMENT
-------------
                                X             Y             Z
Electronic contribution:      9.44600     -20.36498      13.64473
Nuclear contribution   :     -9.59824      20.91460     -13.81761
                        -----------------------------------------
Total Dipole Moment    :     -0.15224       0.54963      -0.17287
                        -----------------------------------------
Magnitude (a.u.)       :      0.59595
Magnitude (Debye)      :      1.51478

Rotational constants in cm-1:     0.016619     0.008641     0.007083
Rotational constants in MHz :   498.216470   259.049673   212.329414

                             ****ORCA TERMINATED NORMALLY****
TOTAL RUN TIME: 0 days 0 hours 0 minutes 29 seconds 409 msec
