                         Program Version 4.2.1 -  RELEASE  -
|  1> ! wB97X-D3 SP def2-SVP
|  2> %pal
|  3> nprocs 16
|  4> end
|  5>
|  6> * xyz 0 1
|  7> S 	 -36.5252 	 46.8216 	 94.8591
|  8> C 	 -35.515 	 47.5222 	 96.0715
|  9> C 	 -36.1696 	 48.3414 	 96.9247
| 10> C 	 -37.5893 	 48.405 	 96.6412
| 11> C 	 -37.984 	 47.6672 	 95.5134
| 12> H 	 -38.2566 	 48.9075 	 97.3057
| 13> C 	 -35.5023 	 49.0163 	 98.0759
| 14> H 	 -35.9649 	 49.9962 	 98.0775
| 15> H 	 -34.4566 	 49.2747 	 97.8527
| 16> C 	 -35.6626 	 48.2726 	 99.4314
| 17> H 	 -36.4673 	 47.5537 	 99.452
| 18> H 	 -34.626 	 47.8563 	 99.5404
| 19> C 	 -36.0241 	 49.3703 	 100.485
| 20> H 	 -35.3463 	 50.2203 	 100.401
| 21> H 	 -37.0772 	 49.7118 	 100.32
| 22> H 	 -35.9152 	 48.9257 	 101.473
| 23> S 	 -39.4951 	 46.1272 	 93.8562
| 24> C 	 -41.2147 	 46.4664 	 93.7535
| 25> C 	 -41.5975 	 47.6669 	 94.3544
| 26> C 	 -40.4847 	 48.2071 	 95.0954
| 27> C 	 -39.3191 	 47.502 	 94.9465
| 28> H 	 -42.5356 	 48.1182 	 94.3246
| 29> C 	 -40.7915 	 49.498 	 95.9695
| 30> H 	 -41.4932 	 50.1477 	 95.3704
| 31> H 	 -39.9506 	 50.1351 	 96.0365
| 32> C 	 -41.2825 	 49.1725 	 97.3335
| 33> H 	 -40.5492 	 48.7645 	 98.0333
| 34> H 	 -42.1077 	 48.4961 	 97.1774
| 35> C 	 -41.785 	 50.4289 	 97.9861
| 36> H 	 -40.8945 	 51.149 	 98.1869
| 37> H 	 -42.0866 	 50.1287 	 99.0062
| 38> H 	 -42.6888 	 50.8534 	 97.6128
| 39> H 	 -34.4574 	 47.3871 	 96.1025
| 40> H 	 -41.9719 	 45.9206 	 93.0561
| 41> *
| 42>
| 43>                          ****END OF INPUT****

CARTESIAN COORDINATES (ANGSTROEM)
---------------------------------
  S    -36.525200   46.821600   94.859100
  C    -35.515000   47.522200   96.071500
  C    -36.169600   48.341400   96.924700
  C    -37.589300   48.405000   96.641200
  C    -37.984000   47.667200   95.513400
  H    -38.256600   48.907500   97.305700
  C    -35.502300   49.016300   98.075900
  H    -35.964900   49.996200   98.077500
  H    -34.456600   49.274700   97.852700
  C    -35.662600   48.272600   99.431400
  H    -36.467300   47.553700   99.452000
  H    -34.626000   47.856300   99.540400
  C    -36.024100   49.370300  100.485000
  H    -35.346300   50.220300  100.401000
  H    -37.077200   49.711800  100.320000
  H    -35.915200   48.925700  101.473000
  S    -39.495100   46.127200   93.856200
  C    -41.214700   46.466400   93.753500
  C    -41.597500   47.666900   94.354400
  C    -40.484700   48.207100   95.095400
  C    -39.319100   47.502000   94.946500
  H    -42.535600   48.118200   94.324600
  C    -40.791500   49.498000   95.969500
  H    -41.493200   50.147700   95.370400
  H    -39.950600   50.135100   96.036500
  C    -41.282500   49.172500   97.333500
  H    -40.549200   48.764500   98.033300
  H    -42.107700   48.496100   97.177400
  C    -41.785000   50.428900   97.986100
  H    -40.894500   51.149000   98.186900
  H    -42.086600   50.128700   99.006200
  H    -42.688800   50.853400   97.612800
  H    -34.457400   47.387100   96.102500
  H    -41.971900   45.920600   93.056100

 Total Charge           Charge          ....    0
 Multiplicity           Mult            ....    1
 Number of Electrons    NEL             ....  134
 Basis Dimension        Dim             ....  322

ORBITAL ENERGIES
----------------

  NO   OCC          E(Eh)            E(eV)
   0   2.0000     -88.969266     -2420.9768
   1   2.0000     -88.963934     -2420.8317
   2   2.0000     -10.337593      -281.3002
   3   2.0000     -10.329140      -281.0702
   4   2.0000     -10.327982      -281.0387
   5   2.0000     -10.305489      -280.4266
   6   2.0000     -10.304263      -280.3933
   7   2.0000     -10.295530      -280.1556
   8   2.0000     -10.294580      -280.1298
   9   2.0000     -10.294561      -280.1293
  10   2.0000     -10.293450      -280.0990
  11   2.0000     -10.292880      -280.0835
  12   2.0000     -10.288402      -279.9617
  13   2.0000     -10.284623      -279.8588
  14   2.0000     -10.284187      -279.8470
  15   2.0000     -10.283805      -279.8366
  16   2.0000      -8.083717      -219.9691
  17   2.0000      -8.078242      -219.8201
  18   2.0000      -6.042320      -164.4199
  19   2.0000      -6.038462      -164.3149
  20   2.0000      -6.037006      -164.2753
  21   2.0000      -6.034196      -164.1988
  22   2.0000      -6.032853      -164.1623
  23   2.0000      -6.028746      -164.0505
  24   2.0000      -1.002926       -27.2910
  25   2.0000      -0.981049       -26.6957
  26   2.0000      -0.919696       -25.0262
  27   2.0000      -0.910355       -24.7720
  28   2.0000      -0.868344       -23.6289
  29   2.0000      -0.854042       -23.2397
  30   2.0000      -0.842799       -22.9337
  31   2.0000      -0.811844       -22.0914
  32   2.0000      -0.781388       -21.2627
  33   2.0000      -0.767551       -20.8861
  34   2.0000      -0.703516       -19.1436
  35   2.0000      -0.700576       -19.0637
  36   2.0000      -0.691914       -18.8279
  37   2.0000      -0.670673       -18.2500
  38   2.0000      -0.637506       -17.3474
  39   2.0000      -0.623964       -16.9789
  40   2.0000      -0.595156       -16.1950
  41   2.0000      -0.578755       -15.7487
  42   2.0000      -0.566469       -15.4144
  43   2.0000      -0.557410       -15.1679
  44   2.0000      -0.530219       -14.4280
  45   2.0000      -0.523567       -14.2470
  46   2.0000      -0.515119       -14.0171
  47   2.0000      -0.513112       -13.9625
  48   2.0000      -0.501778       -13.6541
  49   2.0000      -0.498160       -13.5556
  50   2.0000      -0.494459       -13.4549
  51   2.0000      -0.478372       -13.0172
  52   2.0000      -0.469029       -12.7629
  53   2.0000      -0.464825       -12.6485
  54   2.0000      -0.459971       -12.5164
  55   2.0000      -0.455246       -12.3879
  56   2.0000      -0.444141       -12.0857
  57   2.0000      -0.439241       -11.9523
  58   2.0000      -0.432056       -11.7569
  59   2.0000      -0.425777       -11.5860
  60   2.0000      -0.421934       -11.4814
  61   2.0000      -0.412847       -11.2341
  62   2.0000      -0.406358       -11.0576
  63   2.0000      -0.362972        -9.8770
  64   2.0000      -0.337116        -9.1734
  65   2.0000      -0.324724        -8.8362
  66   2.0000      -0.280915        -7.6441
  67   0.0000       0.021230         0.5777
  68   0.0000       0.077389         2.1059
  69   0.0000       0.096495         2.6258
  70   0.0000       0.119198         3.2435
  71   0.0000       0.123134         3.3507

MULLIKEN ATOMIC CHARGES
-----------------------
   0 S :    0.087397
   1 C :   -0.106066
   2 C :   -0.091129
   3 C :    0.003002
   4 C :   -0.092663
   5 H :   -0.018510
   6 C :    0.039149
   7 H :    0.018402
   8 H :    0.026023
   9 C :   -0.049640
  10 H :    0.045760
  11 H :    0.045664
  12 C :   -0.082553
  13 H :    0.036598
  14 H :    0.042553
  15 H :    0.036509
  16 S :    0.104204
  17 C :   -0.106951
  18 C :   -0.004268
  19 C :   -0.073894
  20 C :   -0.111425
  21 H :   -0.002028
  22 C :    0.041415
  23 H :    0.030493
  24 H :    0.005594
  25 C :   -0.040341
  26 H :    0.039686
  27 H :    0.019627
  28 C :   -0.061282
  29 H :    0.042744
  30 H :    0.022483
  31 H :    0.033865
  32 H :    0.033619
  33 H :    0.085963
Sum of atomic charges:    0.0000000

LOEWDIN ATOMIC CHARGES
----------------------
   0 S :    0.376373
   1 C :   -0.197995
   2 C :   -0.067274
   3 C :   -0.064535
   4 C :   -0.164565
   5 H :    0.021304
   6 C :   -0.036626
   7 H :    0.026426
   8 H :    0.032129
   9 C :   -0.034322
  10 H :    0.025013
  11 H :    0.034239
  12 C :   -0.064887
  13 H :    0.022507
  14 H :    0.029083
  15 H :    0.022843
  16 S :    0.396806
  17 C :   -0.193075
  18 C :   -0.063321
  19 C :   -0.050774
  20 C :   -0.191218
  21 H :    0.022208
  22 C :   -0.028894
  23 H :    0.036835
  24 H :    0.017135
  25 C :   -0.043290
  26 H :    0.028496
  27 H :    0.024312
  28 C :   -0.069226
  29 H :    0.035627
  30 H :    0.026730
  31 H :    0.020136
  32 H :    0.023850
  33 H :    0.047951

  Mayer bond orders larger than 0.100000
B(  0-S ,  1-C ) :   1.1220 B(  0-S ,  4-C ) :   1.1285 B(  1-C ,  2-C ) :   1.6410
B(  1-C , 32-H ) :   0.9655 B(  2-C ,  3-C ) :   1.2330 B(  2-C ,  6-C ) :   1.0334
B(  3-C ,  4-C ) :   1.5684 B(  3-C ,  5-H ) :   0.9949 B(  4-C , 20-C ) :   1.0890
B(  6-C ,  7-H ) :   0.9429 B(  6-C ,  8-H ) :   0.9418 B(  6-C ,  9-C ) :   1.0199
B(  9-C , 10-H ) :   0.9685 B(  9-C , 11-H ) :   0.9584 B(  9-C , 12-C ) :   1.0691
B( 12-C , 13-H ) :   0.9785 B( 12-C , 14-H ) :   0.9773 B( 12-C , 15-H ) :   0.9752
B( 16-S , 17-C ) :   1.1520 B( 16-S , 20-C ) :   1.1124 B( 17-C , 18-C ) :   1.6116
B( 17-C , 33-H ) :   0.9516 B( 18-C , 19-C ) :   1.2340 B( 18-C , 21-H ) :   0.9961
B( 19-C , 20-C ) :   1.6391 B( 19-C , 22-C ) :   1.0204 B( 22-C , 23-H ) :   0.9437
B( 22-C , 24-H ) :   0.9301 B( 22-C , 25-C ) :   1.0740 B( 25-C , 26-H ) :   0.9482
B( 25-C , 27-H ) :   0.9468 B( 25-C , 28-C ) :   1.0970 B( 28-C , 29-H ) :   0.9689
B( 28-C , 30-H ) :   0.9706 B( 28-C , 31-H ) :   0.9738

Dispersion correction           -0.013918968
FINAL SINGLE POINT ENERGY     -1339.866161523915

DIPOLE MOMENT
-------------
                                X             Y             Z
Electronic contribution:      3.69082     -18.71835     -26.95571
Nuclear contribution   :     -3.93520      19.20714      27.51472
                        -----------------------------------------
Total Dipole Moment    :     -0.24438       0.48879       0.55901
                        -----------------------------------------
Magnitude (a.u.)       :      0.78175
Magnitude (Debye)      :      1.98706

Rotational constants in cm-1:     0.016580     0.009668     0.006401
Rotational constants in MHz :   497.060469   289.854329   191.910434

                             ****ORCA TERMINATED NORMALLY****
TOTAL RUN TIME: 0 days 0 hours 0 minutes 30 seconds 30 msec
