                         Program Version 4.2.1 -  RELEASE  -
|  1> ! wB97X-D3 SP def2-SVP
|  2> %pal
|  3> nprocs 16
|  4> end
|  5>
|  6> * xyz 0 1
|  7> S 	 -32.7705 	 29.0598 	 44.741
|  8> C 	 -31.4692 	 27.9616 	 44.5249
|  9> C 	 -30.2377 	 28.6323 	 44.4285
| 10> C 	 -30.4076 	 30.0217 	 44.4041
| 11> C 	 -31.7348 	 30.4413 	 44.5247
| 12> H 	 -29.7258 	 30.8383 	 44.3351
| 13> C 	 -28.85 	 27.9482 	 44.4398
| 14> H 	 -28.7411 	 27.0275 	 45.0612
| 15> H 	 -28.183 	 28.7515 	 44.8105
| 16> C 	 -28.3671 	 27.5557 	 42.9434
| 17> H 	 -29.0886 	 26.8384 	 42.482
| 18> H 	 -28.4608 	 28.4342 	 42.225
| 19> C 	 -26.9201 	 26.9476 	 42.9148
| 20> H 	 -26.9825 	 26.0349 	 43.5088
| 21> H 	 -26.6153 	 26.8378 	 41.8675
| 22> H 	 -26.124 	 27.4806 	 43.3926
| 23> S 	 -32.9517 	 32.1731 	 46.2235
| 24> C 	 -33.2652 	 33.8132 	 45.7957
| 25> C 	 -32.5813 	 34.1328 	 44.6363
| 26> C 	 -31.9478 	 33.0138 	 44.0173
| 27> C 	 -32.1681 	 31.8587 	 44.7195
| 28> H 	 -32.4094 	 35.1788 	 44.3278
| 29> C 	 -31.1448 	 33.1567 	 42.7564
| 30> H 	 -31.8774 	 33.3525 	 41.945
| 31> H 	 -30.7508 	 32.1875 	 42.448
| 32> C 	 -29.9555 	 34.1225 	 42.7883
| 33> H 	 -30.3873 	 35.1612 	 42.917
| 34> H 	 -29.3531 	 34.0656 	 41.8539
| 35> C 	 -29.0111 	 34.1013 	 44.0806
| 36> H 	 -28.9208 	 33.0994 	 44.4169
| 37> H 	 -29.5622 	 34.5132 	 44.9152
| 38> H 	 -28.0685 	 34.6419 	 43.9919
| 39> H 	 -31.5549 	 26.8374 	 44.6729
| 40> H 	 -33.9038 	 34.472 	 46.4221
| 41> *
| 42>
| 43>                          ****END OF INPUT****

CARTESIAN COORDINATES (ANGSTROEM)
---------------------------------
  S    -32.770500   29.059800   44.741000
  C    -31.469200   27.961600   44.524900
  C    -30.237700   28.632300   44.428500
  C    -30.407600   30.021700   44.404100
  C    -31.734800   30.441300   44.524700
  H    -29.725800   30.838300   44.335100
  C    -28.850000   27.948200   44.439800
  H    -28.741100   27.027500   45.061200
  H    -28.183000   28.751500   44.810500
  C    -28.367100   27.555700   42.943400
  H    -29.088600   26.838400   42.482000
  H    -28.460800   28.434200   42.225000
  C    -26.920100   26.947600   42.914800
  H    -26.982500   26.034900   43.508800
  H    -26.615300   26.837800   41.867500
  H    -26.124000   27.480600   43.392600
  S    -32.951700   32.173100   46.223500
  C    -33.265200   33.813200   45.795700
  C    -32.581300   34.132800   44.636300
  C    -31.947800   33.013800   44.017300
  C    -32.168100   31.858700   44.719500
  H    -32.409400   35.178800   44.327800
  C    -31.144800   33.156700   42.756400
  H    -31.877400   33.352500   41.945000
  H    -30.750800   32.187500   42.448000
  C    -29.955500   34.122500   42.788300
  H    -30.387300   35.161200   42.917000
  H    -29.353100   34.065600   41.853900
  C    -29.011100   34.101300   44.080600
  H    -28.920800   33.099400   44.416900
  H    -29.562200   34.513200   44.915200
  H    -28.068500   34.641900   43.991900
  H    -31.554900   26.837400   44.672900
  H    -33.903800   34.472000   46.422100

 Total Charge           Charge          ....    0
 Multiplicity           Mult            ....    1
 Number of Electrons    NEL             ....  134
 Basis Dimension        Dim             ....  322

ORBITAL ENERGIES
----------------

  NO   OCC          E(Eh)            E(eV)
   0   2.0000     -88.970348     -2421.0063
   1   2.0000     -88.962764     -2420.7999
   2   2.0000     -10.329224      -281.0725
   3   2.0000     -10.325276      -280.9650
   4   2.0000     -10.319721      -280.8139
   5   2.0000     -10.319201      -280.7997
   6   2.0000     -10.305712      -280.4327
   7   2.0000     -10.305646      -280.4309
   8   2.0000     -10.300652      -280.2950
   9   2.0000     -10.300400      -280.2881
  10   2.0000     -10.298711      -280.2422
  11   2.0000     -10.295798      -280.1629
  12   2.0000     -10.293133      -280.0904
  13   2.0000     -10.292335      -280.0687
  14   2.0000     -10.280192      -279.7383
  15   2.0000     -10.277644      -279.6689
  16   2.0000      -8.085345      -220.0134
  17   2.0000      -8.078775      -219.8346
  18   2.0000      -6.043671      -164.4566
  19   2.0000      -6.039654      -164.3473
  20   2.0000      -6.037132      -164.2787
  21   2.0000      -6.036445      -164.2600
  22   2.0000      -6.033125      -164.1697
  23   2.0000      -6.029587      -164.0734
  24   2.0000      -1.012105       -27.5408
  25   2.0000      -0.990751       -26.9597
  26   2.0000      -0.906857       -24.6768
  27   2.0000      -0.896081       -24.3836
  28   2.0000      -0.864729       -23.5305
  29   2.0000      -0.850858       -23.1530
  30   2.0000      -0.843967       -22.9655
  31   2.0000      -0.811827       -22.0909
  32   2.0000      -0.785080       -21.3631
  33   2.0000      -0.770164       -20.9572
  34   2.0000      -0.701921       -19.1002
  35   2.0000      -0.696740       -18.9593
  36   2.0000      -0.689622       -18.7656
  37   2.0000      -0.660409       -17.9706
  38   2.0000      -0.644923       -17.5492
  39   2.0000      -0.616687       -16.7809
  40   2.0000      -0.597709       -16.2645
  41   2.0000      -0.562525       -15.3071
  42   2.0000      -0.552635       -15.0380
  43   2.0000      -0.548161       -14.9162
  44   2.0000      -0.539611       -14.6836
  45   2.0000      -0.521523       -14.1914
  46   2.0000      -0.518165       -14.1000
  47   2.0000      -0.505113       -13.7448
  48   2.0000      -0.498009       -13.5515
  49   2.0000      -0.494792       -13.4640
  50   2.0000      -0.492431       -13.3997
  51   2.0000      -0.481805       -13.1106
  52   2.0000      -0.473408       -12.8821
  53   2.0000      -0.468649       -12.7526
  54   2.0000      -0.462840       -12.5945
  55   2.0000      -0.452952       -12.3254
  56   2.0000      -0.447617       -12.1803
  57   2.0000      -0.441499       -12.0138
  58   2.0000      -0.433521       -11.7967
  59   2.0000      -0.422501       -11.4968
  60   2.0000      -0.419795       -11.4232
  61   2.0000      -0.415733       -11.3127
  62   2.0000      -0.399395       -10.8681
  63   2.0000      -0.344710        -9.3800
  64   2.0000      -0.331566        -9.0224
  65   2.0000      -0.328947        -8.9511
  66   2.0000      -0.295805        -8.0493
  67   0.0000       0.032359         0.8805
  68   0.0000       0.069781         1.8988
  69   0.0000       0.110477         3.0062
  70   0.0000       0.122929         3.3451
  71   0.0000       0.133702         3.6382

MULLIKEN ATOMIC CHARGES
-----------------------
   0 S :    0.131619
   1 C :   -0.143491
   2 C :   -0.064487
   3 C :    0.061148
   4 C :   -0.175952
   5 H :   -0.017268
   6 C :    0.042012
   7 H :    0.041519
   8 H :    0.035672
   9 C :   -0.124595
  10 H :    0.037722
  11 H :    0.035961
  12 C :   -0.032894
  13 H :    0.028547
  14 H :    0.043835
  15 H :    0.025042
  16 S :    0.111621
  17 C :   -0.112104
  18 C :   -0.041590
  19 C :   -0.056761
  20 C :   -0.169646
  21 H :    0.031891
  22 C :    0.084024
  23 H :    0.046678
  24 H :    0.013663
  25 C :   -0.122886
  26 H :    0.034623
  27 H :    0.049566
  28 C :   -0.027679
  29 H :    0.009392
  30 H :    0.024904
  31 H :    0.050552
  32 H :    0.075764
  33 H :    0.073599
Sum of atomic charges:    0.0000000

LOEWDIN ATOMIC CHARGES
----------------------
   0 S :    0.436233
   1 C :   -0.221814
   2 C :   -0.067934
   3 C :   -0.059616
   4 C :   -0.206911
   5 H :    0.025024
   6 C :   -0.031201
   7 H :    0.032947
   8 H :    0.034161
   9 C :   -0.046428
  10 H :    0.025907
  11 H :    0.025706
  12 C :   -0.070866
  13 H :    0.026037
  14 H :    0.031183
  15 H :    0.020534
  16 S :    0.425645
  17 C :   -0.196507
  18 C :   -0.076726
  19 C :   -0.066703
  20 C :   -0.204169
  21 H :    0.035473
  22 C :   -0.038823
  23 H :    0.042672
  24 H :    0.027519
  25 C :   -0.043159
  26 H :    0.025231
  27 H :    0.029885
  28 C :   -0.066915
  29 H :    0.014684
  30 H :    0.027184
  31 H :    0.031068
  32 H :    0.043814
  33 H :    0.036865

  Mayer bond orders larger than 0.100000
B(  0-S ,  1-C ) :   1.1712 B(  0-S ,  4-C ) :   1.1779 B(  1-C ,  2-C ) :   1.5561
B(  1-C ,  4-C ) :   0.1050 B(  1-C , 32-H ) :   0.9598 B(  2-C ,  3-C ) :   1.2829
B(  2-C ,  6-C ) :   1.0162 B(  3-C ,  4-C ) :   1.5361 B(  3-C ,  5-H ) :   0.9997
B(  4-C , 20-C ) :   1.0032 B(  6-C ,  7-H ) :   0.9506 B(  6-C ,  8-H ) :   0.9454
B(  6-C ,  9-C ) :   1.0421 B(  9-C , 10-H ) :   0.9598 B(  9-C , 11-H ) :   0.9620
B(  9-C , 12-C ) :   1.0655 B( 12-C , 13-H ) :   0.9740 B( 12-C , 14-H ) :   0.9752
B( 12-C , 15-H ) :   0.9785 B( 16-S , 17-C ) :   1.1665 B( 16-S , 20-C ) :   1.1679
B( 17-C , 18-C ) :   1.5835 B( 17-C , 33-H ) :   0.9673 B( 18-C , 19-C ) :   1.2476
B( 18-C , 21-H ) :   0.9862 B( 19-C , 20-C ) :   1.6018 B( 19-C , 22-C ) :   1.0454
B( 22-C , 23-H ) :   0.9343 B( 22-C , 24-H ) :   0.9303 B( 22-C , 25-C ) :   1.0602
B( 25-C , 26-H ) :   0.9600 B( 25-C , 27-H ) :   0.9618 B( 25-C , 28-C ) :   1.0603
B( 28-C , 29-H ) :   0.9773 B( 28-C , 30-H ) :   0.9654 B( 28-C , 31-H ) :   0.9751

Dispersion correction           -0.014691615
FINAL SINGLE POINT ENERGY     -1339.875552392339

DIPOLE MOMENT
-------------
                                X             Y             Z
Electronic contribution:    -26.55877       0.15859      12.72959
Nuclear contribution   :     27.08780      -0.04495     -12.83606
                        -----------------------------------------
Total Dipole Moment    :      0.52903       0.11364      -0.10646
                        -----------------------------------------
Magnitude (a.u.)       :      0.55147
Magnitude (Debye)      :      1.40173

Rotational constants in cm-1:     0.019444     0.008449     0.006411
Rotational constants in MHz :   582.921997   253.280333   192.188698

                             ****ORCA TERMINATED NORMALLY****
TOTAL RUN TIME: 0 days 0 hours 0 minutes 34 seconds 21 msec
