                         Program Version 4.2.1 -  RELEASE  -
|  1> ! wB97X-D3 SP def2-SVP
|  2> %pal
|  3> nprocs 16
|  4> end
|  5>
|  6> * xyz 0 1
|  7> S 	 -89.5571 	 46.877 	 126.813
|  8> C 	 -90.6454 	 47.4568 	 125.543
|  9> C 	 -90.0053 	 48.2917 	 124.606
| 10> C 	 -88.617 	 48.3208 	 124.853
| 11> C 	 -88.1548 	 47.676 	 126.012
| 12> H 	 -87.8907 	 48.7896 	 124.163
| 13> C 	 -90.7684 	 49.0178 	 123.478
| 14> H 	 -91.824 	 48.6344 	 123.412
| 15> H 	 -90.3173 	 48.6027 	 122.524
| 16> C 	 -90.8296 	 50.5736 	 123.64
| 17> H 	 -91.3628 	 50.91 	 124.472
| 18> H 	 -89.8701 	 50.9566 	 123.955
| 19> C 	 -91.374 	 51.2812 	 122.334
| 20> H 	 -91.3572 	 52.3422 	 122.413
| 21> H 	 -90.6815 	 51.0327 	 121.569
| 22> H 	 -92.3344 	 50.9081 	 122.083
| 23> S 	 -86.1444 	 46.0019 	 126.87
| 24> C 	 -84.5278 	 46.7505 	 127.261
| 25> C 	 -84.5123 	 48.0665 	 126.783
| 26> C 	 -85.8127 	 48.5456 	 126.342
| 27> C 	 -86.7595 	 47.5467 	 126.405
| 28> H 	 -83.5879 	 48.6379 	 126.828
| 29> C 	 -85.9558 	 49.9641 	 125.888
| 30> H 	 -86.8388 	 50.2831 	 125.346
| 31> H 	 -85.0991 	 50.0871 	 125.216
| 32> C 	 -85.7416 	 50.9599 	 127.079
| 33> H 	 -85.5646 	 51.8862 	 126.512
| 34> H 	 -84.816 	 50.6913 	 127.647
| 35> C 	 -86.9318 	 51.2214 	 128
| 36> H 	 -86.7865 	 52.1707 	 128.624
| 37> H 	 -87.1869 	 50.4237 	 128.654
| 38> H 	 -87.7392 	 51.4531 	 127.319
| 39> H 	 -91.7197 	 47.3323 	 125.525
| 40> H 	 -83.6584 	 46.1883 	 127.504
| 41> *
| 42>
| 43>                          ****END OF INPUT****

CARTESIAN COORDINATES (ANGSTROEM)
---------------------------------
  S    -89.557100   46.877000  126.813000
  C    -90.645400   47.456800  125.543000
  C    -90.005300   48.291700  124.606000
  C    -88.617000   48.320800  124.853000
  C    -88.154800   47.676000  126.012000
  H    -87.890700   48.789600  124.163000
  C    -90.768400   49.017800  123.478000
  H    -91.824000   48.634400  123.412000
  H    -90.317300   48.602700  122.524000
  C    -90.829600   50.573600  123.640000
  H    -91.362800   50.910000  124.472000
  H    -89.870100   50.956600  123.955000
  C    -91.374000   51.281200  122.334000
  H    -91.357200   52.342200  122.413000
  H    -90.681500   51.032700  121.569000
  H    -92.334400   50.908100  122.083000
  S    -86.144400   46.001900  126.870000
  C    -84.527800   46.750500  127.261000
  C    -84.512300   48.066500  126.783000
  C    -85.812700   48.545600  126.342000
  C    -86.759500   47.546700  126.405000
  H    -83.587900   48.637900  126.828000
  C    -85.955800   49.964100  125.888000
  H    -86.838800   50.283100  125.346000
  H    -85.099100   50.087100  125.216000
  C    -85.741600   50.959900  127.079000
  H    -85.564600   51.886200  126.512000
  H    -84.816000   50.691300  127.647000
  C    -86.931800   51.221400  128.000000
  H    -86.786500   52.170700  128.624000
  H    -87.186900   50.423700  128.654000
  H    -87.739200   51.453100  127.319000
  H    -91.719700   47.332300  125.525000
  H    -83.658400   46.188300  127.504000

 Total Charge           Charge          ....    0
 Multiplicity           Mult            ....    1
 Number of Electrons    NEL             ....  134
 Basis Dimension        Dim             ....  322

ORBITAL ENERGIES
----------------

  NO   OCC          E(Eh)            E(eV)
   0   2.0000     -88.970143     -2421.0007
   1   2.0000     -88.965520     -2420.8749
   2   2.0000     -10.334367      -281.2124
   3   2.0000     -10.325866      -280.9811
   4   2.0000     -10.322803      -280.8978
   5   2.0000     -10.316993      -280.7397
   6   2.0000     -10.308264      -280.5021
   7   2.0000     -10.304350      -280.3956
   8   2.0000     -10.303883      -280.3829
   9   2.0000     -10.302095      -280.3343
  10   2.0000     -10.297240      -280.2021
  11   2.0000     -10.293993      -280.1138
  12   2.0000     -10.289535      -279.9925
  13   2.0000     -10.288619      -279.9676
  14   2.0000     -10.275898      -279.6214
  15   2.0000     -10.275635      -279.6142
  16   2.0000      -8.083257      -219.9566
  17   2.0000      -8.079602      -219.8572
  18   2.0000      -6.041844      -164.4069
  19   2.0000      -6.038246      -164.3090
  20   2.0000      -6.038005      -164.3025
  21   2.0000      -6.034347      -164.2029
  22   2.0000      -6.034022      -164.1941
  23   2.0000      -6.030112      -164.0877
  24   2.0000      -1.000197       -27.2167
  25   2.0000      -0.975070       -26.5330
  26   2.0000      -0.907940       -24.7063
  27   2.0000      -0.902166       -24.5492
  28   2.0000      -0.866579       -23.5808
  29   2.0000      -0.848979       -23.1019
  30   2.0000      -0.843149       -22.9433
  31   2.0000      -0.811483       -22.0816
  32   2.0000      -0.782211       -21.2850
  33   2.0000      -0.770717       -20.9723
  34   2.0000      -0.714625       -19.4459
  35   2.0000      -0.700887       -19.0721
  36   2.0000      -0.691486       -18.8163
  37   2.0000      -0.660772       -17.9805
  38   2.0000      -0.635596       -17.2954
  39   2.0000      -0.619566       -16.8592
  40   2.0000      -0.600846       -16.3499
  41   2.0000      -0.562077       -15.2949
  42   2.0000      -0.553290       -15.0558
  43   2.0000      -0.546945       -14.8831
  44   2.0000      -0.542404       -14.7596
  45   2.0000      -0.528398       -14.3784
  46   2.0000      -0.519415       -14.1340
  47   2.0000      -0.502332       -13.6691
  48   2.0000      -0.499295       -13.5865
  49   2.0000      -0.495595       -13.4858
  50   2.0000      -0.489962       -13.3325
  51   2.0000      -0.483763       -13.1638
  52   2.0000      -0.469533       -12.7766
  53   2.0000      -0.467635       -12.7250
  54   2.0000      -0.455600       -12.3975
  55   2.0000      -0.450536       -12.2597
  56   2.0000      -0.444311       -12.0903
  57   2.0000      -0.441434       -12.0120
  58   2.0000      -0.434730       -11.8296
  59   2.0000      -0.427406       -11.6303
  60   2.0000      -0.426199       -11.5975
  61   2.0000      -0.410732       -11.1766
  62   2.0000      -0.408514       -11.1162
  63   2.0000      -0.350777        -9.5451
  64   2.0000      -0.332063        -9.0359
  65   2.0000      -0.327414        -8.9094
  66   2.0000      -0.285209        -7.7609
  67   0.0000       0.022960         0.6248
  68   0.0000       0.072701         1.9783
  69   0.0000       0.098099         2.6694
  70   0.0000       0.115030         3.1301
  71   0.0000       0.132004         3.5920

MULLIKEN ATOMIC CHARGES
-----------------------
   0 S :    0.111847
   1 C :   -0.118845
   2 C :   -0.089227
   3 C :    0.001856
   4 C :   -0.154532
   5 H :    0.029442
   6 C :    0.027566
   7 H :    0.025605
   8 H :    0.047951
   9 C :   -0.046750
  10 H :    0.014175
  11 H :    0.011554
  12 C :   -0.012261
  13 H :    0.030878
  14 H :    0.021153
  15 H :    0.028948
  16 S :    0.097404
  17 C :   -0.092142
  18 C :   -0.041549
  19 C :   -0.032878
  20 C :   -0.137609
  21 H :    0.030982
  22 C :    0.063469
  23 H :    0.020568
  24 H :    0.031623
  25 C :   -0.107964
  26 H :    0.024868
  27 H :    0.035478
  28 C :   -0.030083
  29 H :    0.042677
  30 H :    0.043478
  31 H :    0.020375
  32 H :    0.047036
  33 H :    0.054907
Sum of atomic charges:   -0.0000000

LOEWDIN ATOMIC CHARGES
----------------------
   0 S :    0.381985
   1 C :   -0.191256
   2 C :   -0.068210
   3 C :   -0.065754
   4 C :   -0.180805
   5 H :    0.034115
   6 C :   -0.034171
   7 H :    0.033087
   8 H :    0.039416
   9 C :   -0.035240
  10 H :    0.018296
  11 H :    0.019553
  12 C :   -0.051522
  13 H :    0.023755
  14 H :    0.021748
  15 H :    0.020968
  16 S :    0.382527
  17 C :   -0.163982
  18 C :   -0.058691
  19 C :   -0.058506
  20 C :   -0.205711
  21 H :    0.032749
  22 C :   -0.032738
  23 H :    0.025907
  24 H :    0.037959
  25 C :   -0.040214
  26 H :    0.024263
  27 H :    0.023112
  28 C :   -0.065511
  29 H :    0.036435
  30 H :    0.022322
  31 H :    0.023733
  32 H :    0.026419
  33 H :    0.023960

  Mayer bond orders larger than 0.100000
B(  0-S ,  1-C ) :   1.1430 B(  0-S ,  4-C ) :   1.1329 B(  1-C ,  2-C ) :   1.5997
B(  1-C ,  4-C ) :   0.1069 B(  1-C , 32-H ) :   0.9621 B(  2-C ,  3-C ) :   1.2700
B(  2-C ,  6-C ) :   1.0184 B(  3-C ,  4-C ) :   1.5603 B(  3-C ,  5-H ) :   0.9775
B(  4-C , 20-C ) :   1.0668 B(  6-C ,  7-H ) :   0.9433 B(  6-C ,  8-H ) :   0.9481
B(  6-C ,  9-C ) :   1.0389 B(  9-C , 10-H ) :   0.9539 B(  9-C , 11-H ) :   0.9603
B(  9-C , 12-C ) :   1.0725 B( 12-C , 13-H ) :   0.9757 B( 12-C , 14-H ) :   0.9790
B( 12-C , 15-H ) :   0.9779 B( 16-S , 17-C ) :   1.1215 B( 16-S , 20-C ) :   1.1347
B( 17-C , 18-C ) :   1.6365 B( 17-C , 33-H ) :   0.9717 B( 18-C , 19-C ) :   1.2141
B( 18-C , 21-H ) :   0.9806 B( 19-C , 20-C ) :   1.6024 B( 19-C , 22-C ) :   1.0416
B( 22-C , 23-H ) :   0.9372 B( 22-C , 24-H ) :   0.9276 B( 22-C , 25-C ) :   1.0733
B( 25-C , 26-H ) :   0.9546 B( 25-C , 27-H ) :   0.9567 B( 25-C , 28-C ) :   1.0735
B( 28-C , 29-H ) :   0.9731 B( 28-C , 30-H ) :   0.9778 B( 28-C , 31-H ) :   0.9707

Dispersion correction           -0.014330555
FINAL SINGLE POINT ENERGY     -1339.873233215820

DIPOLE MOMENT
-------------
                                X             Y             Z
Electronic contribution:      5.88758     -27.57339      10.93381
Nuclear contribution   :     -5.78735      28.27186     -11.40228
                        -----------------------------------------
Total Dipole Moment    :      0.10023       0.69847      -0.46847
                        -----------------------------------------
Magnitude (a.u.)       :      0.84698
Magnitude (Debye)      :      2.15285

Rotational constants in cm-1:     0.018774     0.008649     0.006826
Rotational constants in MHz :   562.840407   259.295189   204.641870

                             ****ORCA TERMINATED NORMALLY****
TOTAL RUN TIME: 0 days 0 hours 0 minutes 33 seconds 86 msec
