                         Program Version 4.2.1 -  RELEASE  -
|  1> ! wB97X-D3 SP def2-SVP
|  2> %pal
|  3> nprocs 16
|  4> end
|  5>
|  6> * xyz 0 1
|  7> S 	 -7.70025 	 62.2082 	 53.4398
|  8> C 	 -7.94816 	 61.9435 	 55.0789
|  9> C 	 -6.7793 	 62.1524 	 55.7727
| 10> C 	 -5.64803 	 62.5828 	 54.9514
| 11> C 	 -6.02054 	 62.6933 	 53.605
| 12> H 	 -4.63883 	 62.8687 	 55.196
| 13> C 	 -6.7092 	 61.914 	 57.2788
| 14> H 	 -7.35586 	 61.0472 	 57.5556
| 15> H 	 -7.12374 	 62.8235 	 57.7534
| 16> C 	 -5.24421 	 61.6063 	 57.7884
| 17> H 	 -4.67688 	 60.9494 	 57.0255
| 18> H 	 -4.78953 	 62.6256 	 57.9078
| 19> C 	 -5.15986 	 60.9225 	 59.1138
| 20> H 	 -5.65239 	 61.5377 	 59.8112
| 21> H 	 -5.65157 	 59.9684 	 59.1006
| 22> H 	 -4.19422 	 60.9201 	 59.6119
| 23> S 	 -3.72459 	 62.3461 	 52.2626
| 24> C 	 -3.35341 	 63.363 	 50.9674
| 25> C 	 -4.26459 	 64.3697 	 50.7746
| 26> C 	 -5.37415 	 64.248 	 51.6832
| 27> C 	 -5.22938 	 63.1811 	 52.4695
| 28> H 	 -4.26038 	 65.0876 	 49.9157
| 29> C 	 -6.45783 	 65.208 	 51.8106
| 30> H 	 -7.4023 	 64.667 	 51.8504
| 31> H 	 -6.46283 	 65.911 	 50.9587
| 32> C 	 -6.28871 	 66.1331 	 53.0018
| 33> H 	 -5.19562 	 66.4646 	 53.1448
| 34> H 	 -6.47848 	 65.5167 	 53.9189
| 35> C 	 -7.08973 	 67.4074 	 52.8827
| 36> H 	 -8.19444 	 67.3121 	 52.8297
| 37> H 	 -6.77202 	 67.9707 	 51.9795
| 38> H 	 -6.85681 	 67.9671 	 53.7434
| 39> H 	 -8.86258 	 61.5794 	 55.5289
| 40> H 	 -2.39398 	 63.284 	 50.4904
| 41> *
| 42>
| 43>                          ****END OF INPUT****

CARTESIAN COORDINATES (ANGSTROEM)
---------------------------------
  S     -7.700250   62.208200   53.439800
  C     -7.948160   61.943500   55.078900
  C     -6.779300   62.152400   55.772700
  C     -5.648030   62.582800   54.951400
  C     -6.020540   62.693300   53.605000
  H     -4.638830   62.868700   55.196000
  C     -6.709200   61.914000   57.278800
  H     -7.355860   61.047200   57.555600
  H     -7.123740   62.823500   57.753400
  C     -5.244210   61.606300   57.788400
  H     -4.676880   60.949400   57.025500
  H     -4.789530   62.625600   57.907800
  C     -5.159860   60.922500   59.113800
  H     -5.652390   61.537700   59.811200
  H     -5.651570   59.968400   59.100600
  H     -4.194220   60.920100   59.611900
  S     -3.724590   62.346100   52.262600
  C     -3.353410   63.363000   50.967400
  C     -4.264590   64.369700   50.774600
  C     -5.374150   64.248000   51.683200
  C     -5.229380   63.181100   52.469500
  H     -4.260380   65.087600   49.915700
  C     -6.457830   65.208000   51.810600
  H     -7.402300   64.667000   51.850400
  H     -6.462830   65.911000   50.958700
  C     -6.288710   66.133100   53.001800
  H     -5.195620   66.464600   53.144800
  H     -6.478480   65.516700   53.918900
  C     -7.089730   67.407400   52.882700
  H     -8.194440   67.312100   52.829700
  H     -6.772020   67.970700   51.979500
  H     -6.856810   67.967100   53.743400
  H     -8.862580   61.579400   55.528900
  H     -2.393980   63.284000   50.490400

 Total Charge           Charge          ....    0
 Multiplicity           Mult            ....    1
 Number of Electrons    NEL             ....  134
 Basis Dimension        Dim             ....  322

ORBITAL ENERGIES
----------------

  NO   OCC          E(Eh)            E(eV)
   0   2.0000     -88.962998     -2420.8062
   1   2.0000     -88.962410     -2420.7903
   2   2.0000     -10.328851      -281.0623
   3   2.0000     -10.314921      -280.6833
   4   2.0000     -10.311095      -280.5792
   5   2.0000     -10.307282      -280.4754
   6   2.0000     -10.302784      -280.3530
   7   2.0000     -10.298291      -280.2307
   8   2.0000     -10.297501      -280.2092
   9   2.0000     -10.295513      -280.1552
  10   2.0000     -10.294750      -280.1344
  11   2.0000     -10.292267      -280.0668
  12   2.0000     -10.286545      -279.9111
  13   2.0000     -10.282348      -279.7969
  14   2.0000     -10.274647      -279.5874
  15   2.0000     -10.269022      -279.4343
  16   2.0000      -8.079617      -219.8575
  17   2.0000      -8.078098      -219.8162
  18   2.0000      -6.037917      -164.3001
  19   2.0000      -6.036464      -164.2605
  20   2.0000      -6.033946      -164.1920
  21   2.0000      -6.032287      -164.1469
  22   2.0000      -6.030400      -164.0955
  23   2.0000      -6.029143      -164.0613
  24   2.0000      -1.016544       -27.6616
  25   2.0000      -0.992182       -26.9987
  26   2.0000      -0.918243       -24.9867
  27   2.0000      -0.905679       -24.6448
  28   2.0000      -0.873182       -23.7605
  29   2.0000      -0.857305       -23.3285
  30   2.0000      -0.847911       -23.0728
  31   2.0000      -0.815362       -22.1871
  32   2.0000      -0.783501       -21.3202
  33   2.0000      -0.768526       -20.9127
  34   2.0000      -0.705666       -19.2021
  35   2.0000      -0.690492       -18.7893
  36   2.0000      -0.677918       -18.4471
  37   2.0000      -0.671591       -18.2749
  38   2.0000      -0.642602       -17.4861
  39   2.0000      -0.611743       -16.6464
  40   2.0000      -0.599351       -16.3092
  41   2.0000      -0.573722       -15.6118
  42   2.0000      -0.565616       -15.3912
  43   2.0000      -0.562709       -15.3121
  44   2.0000      -0.526888       -14.3373
  45   2.0000      -0.523166       -14.2361
  46   2.0000      -0.516023       -14.0417
  47   2.0000      -0.511883       -13.9291
  48   2.0000      -0.508822       -13.8458
  49   2.0000      -0.505630       -13.7589
  50   2.0000      -0.487255       -13.2589
  51   2.0000      -0.483589       -13.1591
  52   2.0000      -0.475355       -12.9351
  53   2.0000      -0.463169       -12.6035
  54   2.0000      -0.459036       -12.4910
  55   2.0000      -0.453982       -12.3535
  56   2.0000      -0.450027       -12.2459
  57   2.0000      -0.433210       -11.7882
  58   2.0000      -0.428652       -11.6642
  59   2.0000      -0.425848       -11.5879
  60   2.0000      -0.413361       -11.2481
  61   2.0000      -0.409159       -11.1338
  62   2.0000      -0.405801       -11.0424
  63   2.0000      -0.345205        -9.3935
  64   2.0000      -0.331079        -9.0091
  65   2.0000      -0.325055        -8.8452
  66   2.0000      -0.297364        -8.0917
  67   0.0000       0.040854         1.1117
  68   0.0000       0.073991         2.0134
  69   0.0000       0.112920         3.0727
  70   0.0000       0.127191         3.4611
  71   0.0000       0.134734         3.6663

MULLIKEN ATOMIC CHARGES
-----------------------
   0 S :    0.117254
   1 C :   -0.114613
   2 C :   -0.098646
   3 C :    0.040399
   4 C :   -0.177655
   5 H :    0.013662
   6 C :    0.040649
   7 H :    0.030958
   8 H :    0.049277
   9 C :   -0.145853
  10 H :    0.055687
  11 H :    0.040181
  12 C :    0.008210
  13 H :   -0.000116
  14 H :    0.032874
  15 H :    0.030250
  16 S :    0.119184
  17 C :   -0.079378
  18 C :   -0.046295
  19 C :   -0.031258
  20 C :   -0.180339
  21 H :    0.034803
  22 C :    0.109974
  23 H :    0.030123
  24 H :   -0.000748
  25 C :   -0.128607
  26 H :    0.036402
  27 H :    0.044172
  28 C :   -0.024950
  29 H :    0.035480
  30 H :    0.032390
  31 H :    0.026141
  32 H :    0.048024
  33 H :    0.052361
Sum of atomic charges:    0.0000000

LOEWDIN ATOMIC CHARGES
----------------------
   0 S :    0.434043
   1 C :   -0.223616
   2 C :   -0.066945
   3 C :   -0.068983
   4 C :   -0.195256
   5 H :    0.029760
   6 C :   -0.036245
   7 H :    0.029952
   8 H :    0.036263
   9 C :   -0.051493
  10 H :    0.033335
  11 H :    0.029468
  12 C :   -0.069176
  13 H :    0.018974
  14 H :    0.023551
  15 H :    0.031121
  16 S :    0.439291
  17 C :   -0.195672
  18 C :   -0.075009
  19 C :   -0.057032
  20 C :   -0.208422
  21 H :    0.039201
  22 C :   -0.037475
  23 H :    0.029096
  24 H :    0.027548
  25 C :   -0.045491
  26 H :    0.032682
  27 H :    0.028733
  28 C :   -0.066836
  29 H :    0.027354
  30 H :    0.027800
  31 H :    0.022141
  32 H :    0.032557
  33 H :    0.024779

  Mayer bond orders larger than 0.100000
B(  0-S ,  1-C ) :   1.1509 B(  0-S ,  4-C ) :   1.1748 B(  1-C ,  2-C ) :   1.6065
B(  1-C , 32-H ) :   0.9740 B(  2-C ,  3-C ) :   1.2303 B(  2-C ,  6-C ) :   1.0092
B(  3-C ,  4-C ) :   1.5592 B(  3-C ,  5-H ) :   0.9964 B(  4-C , 20-C ) :   0.9946
B(  6-C ,  7-H ) :   0.9539 B(  6-C ,  8-H ) :   0.9341 B(  6-C ,  9-C ) :   1.0596
B(  9-C , 10-H ) :   0.9619 B(  9-C , 11-H ) :   0.9463 B(  9-C , 12-C ) :   1.0985
B( 12-C , 13-H ) :   0.9618 B( 12-C , 14-H ) :   0.9726 B( 12-C , 15-H ) :   0.9675
B( 16-S , 17-C ) :   1.1763 B( 16-S , 20-C ) :   1.1409 B( 17-C , 18-C ) :   1.6011
B( 17-C , 33-H ) :   0.9681 B( 18-C , 19-C ) :   1.2344 B( 18-C , 21-H ) :   0.9828
B( 19-C , 20-C ) :   1.6268 B( 19-C , 22-C ) :   1.0715 B( 22-C , 23-H ) :   0.9135
B( 22-C , 24-H ) :   0.9247 B( 22-C , 25-C ) :   1.0585 B( 25-C , 26-H ) :   0.9553
B( 25-C , 27-H ) :   0.9479 B( 25-C , 28-C ) :   1.0900 B( 28-C , 29-H ) :   0.9716
B( 28-C , 30-H ) :   0.9700 B( 28-C , 31-H ) :   0.9718

Dispersion correction           -0.014489193
FINAL SINGLE POINT ENERGY     -1339.883313329523

DIPOLE MOMENT
-------------
                                X             Y             Z
Electronic contribution:      2.36552     -10.81969     -17.88579
Nuclear contribution   :     -2.31660      11.15745      18.27294
                        -----------------------------------------
Total Dipole Moment    :      0.04893       0.33776       0.38715
                        -----------------------------------------
Magnitude (a.u.)       :      0.51610
Magnitude (Debye)      :      1.31181

Rotational constants in cm-1:     0.018844     0.008342     0.007165
Rotational constants in MHz :   564.939066   250.082112   214.799360

                             ****ORCA TERMINATED NORMALLY****
TOTAL RUN TIME: 0 days 0 hours 0 minutes 34 seconds 371 msec
