                         Program Version 4.2.1 -  RELEASE  -
|  1> ! wB97X-D3 SP def2-SVP
|  2> %pal
|  3> nprocs 16
|  4> end
|  5>
|  6> * xyz 0 1
|  7> S 	 13.7389 	 24.7302 	 64.333
|  8> C 	 14.1372 	 23.236 	 63.6226
|  9> C 	 13.0137 	 22.4781 	 63.3972
| 10> C 	 11.7795 	 23.2011 	 63.5926
| 11> C 	 12.0271 	 24.4991 	 64.0708
| 12> H 	 10.7519 	 22.8747 	 63.4391
| 13> C 	 13.0747 	 20.9998 	 63.0034
| 14> H 	 14.1274 	 20.6197 	 62.6607
| 15> H 	 12.46 	 20.9488 	 62.0773
| 16> C 	 12.5504 	 20.0377 	 64.0772
| 17> H 	 12.962 	 18.9907 	 63.9659
| 18> H 	 12.8827 	 20.381 	 65.0437
| 19> C 	 11.0326 	 19.8815 	 64.0997
| 20> H 	 10.5348 	 20.8248 	 64.1956
| 21> H 	 10.7592 	 19.3254 	 63.1895
| 22> H 	 10.7045 	 19.2602 	 64.9247
| 23> S 	 11.0894 	 26.2625 	 65.8878
| 24> C 	 9.56636 	 27.1249 	 65.574
| 25> C 	 9.07882 	 26.8697 	 64.3018
| 26> C 	 9.85624 	 25.9331 	 63.5969
| 27> C 	 11.0075 	 25.5699 	 64.2612
| 28> H 	 8.0755 	 27.1985 	 63.9889
| 29> C 	 9.39891 	 25.445 	 62.1927
| 30> H 	 9.78266 	 24.4178 	 61.886
| 31> H 	 9.99397 	 25.8969 	 61.3973
| 32> C 	 7.88216 	 25.5345 	 61.8305
| 33> H 	 7.86307 	 25.0251 	 60.8508
| 34> H 	 7.57106 	 26.565 	 61.8955
| 35> C 	 6.84103 	 24.784 	 62.7039
| 36> H 	 6.82539 	 23.6584 	 62.6127
| 37> H 	 5.85367 	 25.0766 	 62.4857
| 38> H 	 7.05766 	 25.0241 	 63.7878
| 39> H 	 15.1165 	 23.0396 	 63.3474
| 40> H 	 8.92069 	 27.5194 	 66.3956
| 41> *
| 42>
| 43>                          ****END OF INPUT****

CARTESIAN COORDINATES (ANGSTROEM)
---------------------------------
  S     13.738900   24.730200   64.333000
  C     14.137200   23.236000   63.622600
  C     13.013700   22.478100   63.397200
  C     11.779500   23.201100   63.592600
  C     12.027100   24.499100   64.070800
  H     10.751900   22.874700   63.439100
  C     13.074700   20.999800   63.003400
  H     14.127400   20.619700   62.660700
  H     12.460000   20.948800   62.077300
  C     12.550400   20.037700   64.077200
  H     12.962000   18.990700   63.965900
  H     12.882700   20.381000   65.043700
  C     11.032600   19.881500   64.099700
  H     10.534800   20.824800   64.195600
  H     10.759200   19.325400   63.189500
  H     10.704500   19.260200   64.924700
  S     11.089400   26.262500   65.887800
  C      9.566360   27.124900   65.574000
  C      9.078820   26.869700   64.301800
  C      9.856240   25.933100   63.596900
  C     11.007500   25.569900   64.261200
  H      8.075500   27.198500   63.988900
  C      9.398910   25.445000   62.192700
  H      9.782660   24.417800   61.886000
  H      9.993970   25.896900   61.397300
  C      7.882160   25.534500   61.830500
  H      7.863070   25.025100   60.850800
  H      7.571060   26.565000   61.895500
  C      6.841030   24.784000   62.703900
  H      6.825390   23.658400   62.612700
  H      5.853670   25.076600   62.485700
  H      7.057660   25.024100   63.787800
  H     15.116500   23.039600   63.347400
  H      8.920690   27.519400   66.395600

 Total Charge           Charge          ....    0
 Multiplicity           Mult            ....    1
 Number of Electrons    NEL             ....  134
 Basis Dimension        Dim             ....  322

ORBITAL ENERGIES
----------------

  NO   OCC          E(Eh)            E(eV)
   0   2.0000     -88.967313     -2420.9237
   1   2.0000     -88.964775     -2420.8546
   2   2.0000     -10.333854      -281.1985
   3   2.0000     -10.331392      -281.1315
   4   2.0000     -10.324103      -280.9331
   5   2.0000     -10.309143      -280.5260
   6   2.0000     -10.305749      -280.4337
   7   2.0000     -10.304225      -280.3922
   8   2.0000     -10.302175      -280.3364
   9   2.0000     -10.301233      -280.3108
  10   2.0000     -10.299033      -280.2509
  11   2.0000     -10.298964      -280.2491
  12   2.0000     -10.296044      -280.1696
  13   2.0000     -10.286722      -279.9159
  14   2.0000     -10.283374      -279.8248
  15   2.0000     -10.273794      -279.5642
  16   2.0000      -8.081548      -219.9101
  17   2.0000      -8.080681      -219.8865
  18   2.0000      -6.040010      -164.3570
  19   2.0000      -6.039073      -164.3315
  20   2.0000      -6.036227      -164.2541
  21   2.0000      -6.034972      -164.2199
  22   2.0000      -6.032279      -164.1466
  23   2.0000      -6.031554      -164.1269
  24   2.0000      -1.007313       -27.4104
  25   2.0000      -0.986462       -26.8430
  26   2.0000      -0.908291       -24.7159
  27   2.0000      -0.902428       -24.5563
  28   2.0000      -0.868957       -23.6455
  29   2.0000      -0.850187       -23.1348
  30   2.0000      -0.843932       -22.9646
  31   2.0000      -0.815233       -22.1836
  32   2.0000      -0.785364       -21.3708
  33   2.0000      -0.772124       -21.0106
  34   2.0000      -0.701276       -19.0827
  35   2.0000      -0.694679       -18.9032
  36   2.0000      -0.690735       -18.7958
  37   2.0000      -0.662012       -18.0143
  38   2.0000      -0.649563       -17.6755
  39   2.0000      -0.616091       -16.7647
  40   2.0000      -0.602052       -16.3827
  41   2.0000      -0.569718       -15.5028
  42   2.0000      -0.549533       -14.9536
  43   2.0000      -0.545044       -14.8314
  44   2.0000      -0.539608       -14.6835
  45   2.0000      -0.535706       -14.5773
  46   2.0000      -0.517435       -14.0801
  47   2.0000      -0.508374       -13.8336
  48   2.0000      -0.501514       -13.6469
  49   2.0000      -0.500257       -13.6127
  50   2.0000      -0.490328       -13.3425
  51   2.0000      -0.489056       -13.3079
  52   2.0000      -0.475134       -12.9290
  53   2.0000      -0.463533       -12.6134
  54   2.0000      -0.453132       -12.3304
  55   2.0000      -0.447545       -12.1783
  56   2.0000      -0.443864       -12.0782
  57   2.0000      -0.439644       -11.9633
  58   2.0000      -0.430434       -11.7127
  59   2.0000      -0.424361       -11.5475
  60   2.0000      -0.417459       -11.3596
  61   2.0000      -0.413244       -11.2449
  62   2.0000      -0.405822       -11.0430
  63   2.0000      -0.352037        -9.5794
  64   2.0000      -0.334894        -9.1129
  65   2.0000      -0.328911        -8.9501
  66   2.0000      -0.287223        -7.8157
  67   0.0000       0.028384         0.7724
  68   0.0000       0.061161         1.6643
  69   0.0000       0.101062         2.7500
  70   0.0000       0.121272         3.3000
  71   0.0000       0.134729         3.6662

MULLIKEN ATOMIC CHARGES
-----------------------
   0 S :    0.114734
   1 C :   -0.103481
   2 C :   -0.072323
   3 C :    0.013017
   4 C :   -0.152632
   5 H :    0.032002
   6 C :    0.022701
   7 H :    0.038847
   8 H :    0.030592
   9 C :   -0.069799
  10 H :    0.035362
  11 H :    0.028789
  12 C :   -0.046828
  13 H :    0.026818
  14 H :    0.030179
  15 H :    0.030097
  16 S :    0.091018
  17 C :   -0.108362
  18 C :   -0.045334
  19 C :   -0.026726
  20 C :   -0.131175
  21 H :    0.029190
  22 C :    0.044396
  23 H :    0.013039
  24 H :    0.038986
  25 C :   -0.083940
  26 H :    0.042088
  27 H :    0.040233
  28 C :   -0.073336
  29 H :    0.035504
  30 H :    0.028218
  31 H :    0.039938
  32 H :    0.028626
  33 H :    0.079561
Sum of atomic charges:   -0.0000000

LOEWDIN ATOMIC CHARGES
----------------------
   0 S :    0.423915
   1 C :   -0.200279
   2 C :   -0.061904
   3 C :   -0.069127
   4 C :   -0.197078
   5 H :    0.032891
   6 C :   -0.040365
   7 H :    0.039648
   8 H :    0.029513
   9 C :   -0.044480
  10 H :    0.030528
  11 H :    0.021475
  12 C :   -0.064527
  13 H :    0.018260
  14 H :    0.026292
  15 H :    0.026454
  16 S :    0.390427
  17 C :   -0.183812
  18 C :   -0.073510
  19 C :   -0.060629
  20 C :   -0.184987
  21 H :    0.035967
  22 C :   -0.044182
  23 H :    0.035466
  24 H :    0.039817
  25 C :   -0.041668
  26 H :    0.035568
  27 H :    0.022050
  28 C :   -0.074589
  29 H :    0.028594
  30 H :    0.018602
  31 H :    0.029803
  32 H :    0.015837
  33 H :    0.040029

  Mayer bond orders larger than 0.100000
B(  0-S ,  1-C ) :   1.1482 B(  0-S ,  4-C ) :   1.1736 B(  1-C ,  2-C ) :   1.5941
B(  1-C , 32-H ) :   0.9851 B(  2-C ,  3-C ) :   1.2347 B(  2-C ,  6-C ) :   1.0199
B(  3-C ,  4-C ) :   1.5642 B(  3-C ,  5-H ) :   0.9846 B(  4-C , 20-C ) :   1.0008
B(  6-C ,  7-H ) :   0.9503 B(  6-C ,  8-H ) :   0.9430 B(  6-C ,  9-C ) :   1.0476
B(  9-C , 10-H ) :   0.9587 B(  9-C , 11-H ) :   0.9564 B(  9-C , 12-C ) :   1.0851
B( 12-C , 13-H ) :   0.9739 B( 12-C , 14-H ) :   0.9751 B( 12-C , 15-H ) :   0.9699
B( 16-S , 17-C ) :   1.1557 B( 16-S , 20-C ) :   1.1428 B( 17-C , 18-C ) :   1.6097
B( 17-C , 20-C ) :   0.1016 B( 17-C , 33-H ) :   0.9573 B( 18-C , 19-C ) :   1.2567
B( 18-C , 21-H ) :   0.9752 B( 19-C , 20-C ) :   1.6282 B( 19-C , 22-C ) :   1.0099
B( 22-C , 23-H ) :   0.9366 B( 22-C , 24-H ) :   0.9315 B( 22-C , 25-C ) :   1.0722
B( 25-C , 26-H ) :   0.9532 B( 25-C , 27-H ) :   0.9523 B( 25-C , 28-C ) :   1.0766
B( 28-C , 29-H ) :   0.9753 B( 28-C , 30-H ) :   0.9757 B( 28-C , 31-H ) :   0.9722

Dispersion correction           -0.014270682
FINAL SINGLE POINT ENERGY     -1339.863750398549

DIPOLE MOMENT
-------------
                                X             Y             Z
Electronic contribution:     17.19063      19.11293      11.96965
Nuclear contribution   :    -17.66856     -19.57130     -12.32851
                        -----------------------------------------
Total Dipole Moment    :     -0.47793      -0.45836      -0.35886
                        -----------------------------------------
Magnitude (a.u.)       :      0.75319
Magnitude (Debye)      :      1.91446

Rotational constants in cm-1:     0.017415     0.009098     0.006990
Rotational constants in MHz :   522.094110   272.748169   209.565740

                             ****ORCA TERMINATED NORMALLY****
TOTAL RUN TIME: 0 days 0 hours 0 minutes 34 seconds 646 msec
