                         Program Version 4.2.1 -  RELEASE  -
|  1> ! wB97X-D3 SP def2-SVP
|  2> %pal
|  3> nprocs 16
|  4> end
|  5>
|  6> * xyz 0 1
|  7> S 	 -4.65191 	 -13.7873 	 80.2265
|  8> C 	 -3.55632 	 -12.4721 	 80.0504
|  9> C 	 -4.12577 	 -11.2892 	 80.3384
| 10> C 	 -5.48293 	 -11.4325 	 80.7211
| 11> C 	 -5.95266 	 -12.7499 	 80.6107
| 12> H 	 -6.07964 	 -10.6286 	 81.17
| 13> C 	 -3.36007 	 -9.92626 	 80.4373
| 14> H 	 -2.37709 	 -10.1295 	 80.7168
| 15> H 	 -3.66427 	 -9.34405 	 81.322
| 16> C 	 -3.40608 	 -9.02151 	 79.1952
| 17> H 	 -2.69763 	 -8.16306 	 79.2818
| 18> H 	 -2.87 	 -9.53593 	 78.4077
| 19> C 	 -4.79649 	 -8.59125 	 78.7273
| 20> H 	 -4.62317 	 -8.07548 	 77.7691
| 21> H 	 -5.44471 	 -9.46704 	 78.5135
| 22> H 	 -5.18635 	 -7.84035 	 79.502
| 23> S 	 -8.68329 	 -12.3409 	 80.671
| 24> C 	 -9.72437 	 -13.6389 	 81.234
| 25> C 	 -8.96427 	 -14.5919 	 81.8968
| 26> C 	 -7.54905 	 -14.4415 	 81.7407
| 27> C 	 -7.25475 	 -13.2893 	 81.0444
| 28> H 	 -9.42078 	 -15.3599 	 82.5362
| 29> C 	 -6.63457 	 -15.445 	 82.4961
| 30> H 	 -6.0145 	 -15.8266 	 81.6734
| 31> H 	 -7.27589 	 -16.2068 	 82.9087
| 32> C 	 -5.8029 	 -14.8508 	 83.6739
| 33> H 	 -5.17773 	 -14.0314 	 83.2398
| 34> H 	 -5.20651 	 -15.6588 	 84.0437
| 35> C 	 -6.79735 	 -14.4072 	 84.8429
| 36> H 	 -7.74017 	 -14.1266 	 84.3789
| 37> H 	 -6.52399 	 -13.519 	 85.4464
| 38> H 	 -7.23913 	 -15.1102 	 85.5293
| 39> H 	 -2.55555 	 -12.4817 	 79.7297
| 40> H 	 -10.7792 	 -13.7586 	 81.1959
| 41> *
| 42>
| 43>                          ****END OF INPUT****

CARTESIAN COORDINATES (ANGSTROEM)
---------------------------------
  S     -4.651910  -13.787300   80.226500
  C     -3.556320  -12.472100   80.050400
  C     -4.125770  -11.289200   80.338400
  C     -5.482930  -11.432500   80.721100
  C     -5.952660  -12.749900   80.610700
  H     -6.079640  -10.628600   81.170000
  C     -3.360070   -9.926260   80.437300
  H     -2.377090  -10.129500   80.716800
  H     -3.664270   -9.344050   81.322000
  C     -3.406080   -9.021510   79.195200
  H     -2.697630   -8.163060   79.281800
  H     -2.870000   -9.535930   78.407700
  C     -4.796490   -8.591250   78.727300
  H     -4.623170   -8.075480   77.769100
  H     -5.444710   -9.467040   78.513500
  H     -5.186350   -7.840350   79.502000
  S     -8.683290  -12.340900   80.671000
  C     -9.724370  -13.638900   81.234000
  C     -8.964270  -14.591900   81.896800
  C     -7.549050  -14.441500   81.740700
  C     -7.254750  -13.289300   81.044400
  H     -9.420780  -15.359900   82.536200
  C     -6.634570  -15.445000   82.496100
  H     -6.014500  -15.826600   81.673400
  H     -7.275890  -16.206800   82.908700
  C     -5.802900  -14.850800   83.673900
  H     -5.177730  -14.031400   83.239800
  H     -5.206510  -15.658800   84.043700
  C     -6.797350  -14.407200   84.842900
  H     -7.740170  -14.126600   84.378900
  H     -6.523990  -13.519000   85.446400
  H     -7.239130  -15.110200   85.529300
  H     -2.555550  -12.481700   79.729700
  H    -10.779200  -13.758600   81.195900

 Total Charge           Charge          ....    0
 Multiplicity           Mult            ....    1
 Number of Electrons    NEL             ....  134
 Basis Dimension        Dim             ....  322

ORBITAL ENERGIES
----------------

  NO   OCC          E(Eh)            E(eV)
   0   2.0000     -88.970757     -2421.0174
   1   2.0000     -88.969481     -2420.9827
   2   2.0000     -10.330856      -281.1169
   3   2.0000     -10.329439      -281.0783
   4   2.0000     -10.316200      -280.7181
   5   2.0000     -10.305418      -280.4247
   6   2.0000     -10.301595      -280.3206
   7   2.0000     -10.297793      -280.2172
   8   2.0000     -10.295166      -280.1457
   9   2.0000     -10.294129      -280.1175
  10   2.0000     -10.293975      -280.1133
  11   2.0000     -10.293686      -280.1054
  12   2.0000     -10.291065      -280.0341
  13   2.0000     -10.286125      -279.8997
  14   2.0000     -10.284604      -279.8583
  15   2.0000     -10.276044      -279.6254
  16   2.0000      -8.086132      -220.0348
  17   2.0000      -8.083668      -219.9678
  18   2.0000      -6.044649      -164.4833
  19   2.0000      -6.042368      -164.4212
  20   2.0000      -6.040473      -164.3696
  21   2.0000      -6.038352      -164.3119
  22   2.0000      -6.036933      -164.2733
  23   2.0000      -6.034169      -164.1981
  24   2.0000      -1.013675       -27.5835
  25   2.0000      -0.988763       -26.9056
  26   2.0000      -0.908285       -24.7157
  27   2.0000      -0.900846       -24.5133
  28   2.0000      -0.869660       -23.6647
  29   2.0000      -0.848707       -23.0945
  30   2.0000      -0.838707       -22.8224
  31   2.0000      -0.812894       -22.1200
  32   2.0000      -0.785254       -21.3678
  33   2.0000      -0.776047       -21.1173
  34   2.0000      -0.713094       -19.4043
  35   2.0000      -0.695555       -18.9270
  36   2.0000      -0.692516       -18.8443
  37   2.0000      -0.666679       -18.1412
  38   2.0000      -0.637828       -17.3562
  39   2.0000      -0.612196       -16.6587
  40   2.0000      -0.586308       -15.9543
  41   2.0000      -0.574344       -15.6287
  42   2.0000      -0.555791       -15.1239
  43   2.0000      -0.547865       -14.9082
  44   2.0000      -0.545107       -14.8331
  45   2.0000      -0.538525       -14.6540
  46   2.0000      -0.513818       -13.9817
  47   2.0000      -0.502941       -13.6857
  48   2.0000      -0.501764       -13.6537
  49   2.0000      -0.493645       -13.4328
  50   2.0000      -0.486229       -13.2310
  51   2.0000      -0.476121       -12.9559
  52   2.0000      -0.469860       -12.7855
  53   2.0000      -0.466104       -12.6833
  54   2.0000      -0.462916       -12.5966
  55   2.0000      -0.446166       -12.1408
  56   2.0000      -0.439430       -11.9575
  57   2.0000      -0.435984       -11.8637
  58   2.0000      -0.431218       -11.7341
  59   2.0000      -0.427040       -11.6204
  60   2.0000      -0.424025       -11.5383
  61   2.0000      -0.409940       -11.1550
  62   2.0000      -0.408439       -11.1142
  63   2.0000      -0.356933        -9.7126
  64   2.0000      -0.336285        -9.1508
  65   2.0000      -0.330783        -9.0011
  66   2.0000      -0.286819        -7.8048
  67   0.0000       0.024766         0.6739
  68   0.0000       0.076463         2.0807
  69   0.0000       0.100633         2.7384
  70   0.0000       0.125913         3.4263
  71   0.0000       0.136079         3.7029

MULLIKEN ATOMIC CHARGES
-----------------------
   0 S :    0.112547
   1 C :   -0.090146
   2 C :   -0.091129
   3 C :   -0.002538
   4 C :   -0.134449
   5 H :    0.022515
   6 C :    0.092123
   7 H :   -0.002801
   8 H :    0.023652
   9 C :   -0.080764
  10 H :    0.025725
  11 H :    0.011114
  12 C :   -0.071130
  13 H :    0.037917
  14 H :    0.060871
  15 H :    0.047071
  16 S :    0.119416
  17 C :   -0.075028
  18 C :   -0.055285
  19 C :   -0.074519
  20 C :   -0.149883
  21 H :    0.025813
  22 C :    0.048210
  23 H :    0.042797
  24 H :    0.017016
  25 C :   -0.019833
  26 H :    0.054925
  27 H :    0.037512
  28 C :   -0.077377
  29 H :    0.014413
  30 H :    0.042065
  31 H :    0.023331
  32 H :    0.021325
  33 H :    0.044524
Sum of atomic charges:    0.0000000

LOEWDIN ATOMIC CHARGES
----------------------
   0 S :    0.448648
   1 C :   -0.200586
   2 C :   -0.063528
   3 C :   -0.073285
   4 C :   -0.204458
   5 H :    0.032234
   6 C :   -0.027167
   7 H :    0.020064
   8 H :    0.031899
   9 C :   -0.051698
  10 H :    0.027322
  11 H :    0.018326
  12 C :   -0.072991
  13 H :    0.030035
  14 H :    0.033362
  15 H :    0.034353
  16 S :    0.409883
  17 C :   -0.185247
  18 C :   -0.072519
  19 C :   -0.066305
  20 C :   -0.196157
  21 H :    0.031562
  22 C :   -0.029333
  23 H :    0.027299
  24 H :    0.025453
  25 C :   -0.028853
  26 H :    0.031674
  27 H :    0.023094
  28 C :   -0.084385
  29 H :    0.026038
  30 H :    0.031342
  31 H :    0.024439
  32 H :    0.022442
  33 H :    0.027041

  Mayer bond orders larger than 0.100000
B(  0-S ,  1-C ) :   1.1385 B(  0-S ,  4-C ) :   1.1741 B(  1-C ,  2-C ) :   1.6358
B(  1-C , 32-H ) :   0.9636 B(  2-C ,  3-C ) :   1.2735 B(  2-C ,  6-C ) :   1.0000
B(  3-C ,  4-C ) :   1.5319 B(  3-C ,  5-H ) :   0.9880 B(  4-C , 20-C ) :   1.0339
B(  6-C ,  7-H ) :   0.9370 B(  6-C ,  8-H ) :   0.9477 B(  6-C ,  9-C ) :   1.0737
B(  9-C , 10-H ) :   0.9518 B(  9-C , 11-H ) :   0.9520 B(  9-C , 12-C ) :   1.0788
B( 12-C , 13-H ) :   0.9714 B( 12-C , 14-H ) :   0.9698 B( 12-C , 15-H ) :   0.9748
B( 16-S , 17-C ) :   1.1418 B( 16-S , 20-C ) :   1.1416 B( 17-C , 18-C ) :   1.6174
B( 17-C , 33-H ) :   0.9710 B( 18-C , 19-C ) :   1.2517 B( 18-C , 21-H ) :   0.9773
B( 19-C , 20-C ) :   1.5892 B( 19-C , 22-C ) :   1.0191 B( 22-C , 23-H ) :   0.9308
B( 22-C , 24-H ) :   0.9400 B( 22-C , 25-C ) :   1.0699 B( 25-C , 26-H ) :   0.9589
B( 25-C , 27-H ) :   0.9605 B( 25-C , 28-C ) :   1.0394 B( 28-C , 29-H ) :   0.9791
B( 28-C , 30-H ) :   0.9779 B( 28-C , 31-H ) :   0.9750

Dispersion correction           -0.015269150
FINAL SINGLE POINT ENERGY     -1339.868560128363

DIPOLE MOMENT
-------------
                                X             Y             Z
Electronic contribution:     -8.43730      -8.30885      -7.82832
Nuclear contribution   :      8.63796       8.38272       8.12986
                        -----------------------------------------
Total Dipole Moment    :      0.20066       0.07387       0.30154
                        -----------------------------------------
Magnitude (a.u.)       :      0.36966
Magnitude (Debye)      :      0.93960

Rotational constants in cm-1:     0.021729     0.008573     0.007155
Rotational constants in MHz :   651.410784   257.022500   214.489946

                             ****ORCA TERMINATED NORMALLY****
TOTAL RUN TIME: 0 days 0 hours 0 minutes 35 seconds 17 msec
