                         Program Version 4.2.1 -  RELEASE  -
|  1> ! wB97X-D3 SP def2-SVP
|  2> %pal
|  3> nprocs 16
|  4> end
|  5>
|  6> * xyz 0 1
|  7> S 	 -36.668 	 41.4057 	 97.4383
|  8> C 	 -35.4979 	 41.4939 	 96.181
|  9> C 	 -35.1364 	 40.2058 	 95.7016
| 10> C 	 -35.7186 	 39.1957 	 96.5115
| 11> C 	 -36.4813 	 39.6367 	 97.5882
| 12> H 	 -35.5877 	 38.1335 	 96.2399
| 13> C 	 -34.274 	 39.9243 	 94.4771
| 14> H 	 -34.2722 	 40.7887 	 93.8784
| 15> H 	 -34.7452 	 39.1095 	 93.9201
| 16> C 	 -32.8305 	 39.6335 	 94.7843
| 17> H 	 -32.3626 	 40.5002 	 95.2225
| 18> H 	 -32.6902 	 38.8064 	 95.4411
| 19> C 	 -32.0406 	 39.3426 	 93.5407
| 20> H 	 -32.0616 	 40.0924 	 92.848
| 21> H 	 -30.9712 	 39.1495 	 93.7361
| 22> H 	 -32.4157 	 38.4433 	 93.0829
| 23> S 	 -38.756 	 39.4904 	 99.0694
| 24> C 	 -39.1716 	 37.9758 	 99.8503
| 25> C 	 -38.0408 	 37.1362 	 99.8675
| 26> C 	 -37.0084 	 37.6191 	 99.072
| 27> C 	 -37.2851 	 38.8478 	 98.5346
| 28> H 	 -38.1639 	 36.13 	 100.327
| 29> C 	 -35.6072 	 37.0057 	 99.0743
| 30> H 	 -35.0993 	 37.3758 	 98.2107
| 31> H 	 -35.8089 	 35.9441 	 98.7515
| 32> C 	 -34.8328 	 37.0443 	 100.412
| 33> H 	 -35.3569 	 36.5462 	 101.224
| 34> H 	 -34.637 	 38.0904 	 100.816
| 35> C 	 -33.4902 	 36.3555 	 100.142
| 36> H 	 -33.0044 	 36.9914 	 99.422
| 37> H 	 -33.5158 	 35.4225 	 99.5775
| 38> H 	 -32.9108 	 36.4243 	 101.011
| 39> H 	 -35.1142 	 42.4584 	 95.7553
| 40> H 	 -40.1676 	 37.8192 	 100.354
| 41> *
| 42>
| 43>                          ****END OF INPUT****

CARTESIAN COORDINATES (ANGSTROEM)
---------------------------------
  S    -36.668000   41.405700   97.438300
  C    -35.497900   41.493900   96.181000
  C    -35.136400   40.205800   95.701600
  C    -35.718600   39.195700   96.511500
  C    -36.481300   39.636700   97.588200
  H    -35.587700   38.133500   96.239900
  C    -34.274000   39.924300   94.477100
  H    -34.272200   40.788700   93.878400
  H    -34.745200   39.109500   93.920100
  C    -32.830500   39.633500   94.784300
  H    -32.362600   40.500200   95.222500
  H    -32.690200   38.806400   95.441100
  C    -32.040600   39.342600   93.540700
  H    -32.061600   40.092400   92.848000
  H    -30.971200   39.149500   93.736100
  H    -32.415700   38.443300   93.082900
  S    -38.756000   39.490400   99.069400
  C    -39.171600   37.975800   99.850300
  C    -38.040800   37.136200   99.867500
  C    -37.008400   37.619100   99.072000
  C    -37.285100   38.847800   98.534600
  H    -38.163900   36.130000  100.327000
  C    -35.607200   37.005700   99.074300
  H    -35.099300   37.375800   98.210700
  H    -35.808900   35.944100   98.751500
  C    -34.832800   37.044300  100.412000
  H    -35.356900   36.546200  101.224000
  H    -34.637000   38.090400  100.816000
  C    -33.490200   36.355500  100.142000
  H    -33.004400   36.991400   99.422000
  H    -33.515800   35.422500   99.577500
  H    -32.910800   36.424300  101.011000
  H    -35.114200   42.458400   95.755300
  H    -40.167600   37.819200  100.354000

 Total Charge           Charge          ....    0
 Multiplicity           Mult            ....    1
 Number of Electrons    NEL             ....  134
 Basis Dimension        Dim             ....  322

ORBITAL ENERGIES
----------------

  NO   OCC          E(Eh)            E(eV)
   0   2.0000     -88.968029     -2420.9432
   1   2.0000     -88.965397     -2420.8715
   2   2.0000     -10.334234      -281.2088
   3   2.0000     -10.322293      -280.8839
   4   2.0000     -10.321508      -280.8625
   5   2.0000     -10.319177      -280.7991
   6   2.0000     -10.302722      -280.3513
   7   2.0000     -10.296453      -280.1807
   8   2.0000     -10.296381      -280.1788
   9   2.0000     -10.294161      -280.1184
  10   2.0000     -10.291658      -280.0503
  11   2.0000     -10.291610      -280.0489
  12   2.0000     -10.289245      -279.9846
  13   2.0000     -10.277617      -279.6682
  14   2.0000     -10.269526      -279.4480
  15   2.0000     -10.267376      -279.3895
  16   2.0000      -8.082493      -219.9358
  17   2.0000      -8.081334      -219.9043
  18   2.0000      -6.041015      -164.3844
  19   2.0000      -6.039580      -164.3453
  20   2.0000      -6.037037      -164.2761
  21   2.0000      -6.035743      -164.2409
  22   2.0000      -6.033298      -164.1744
  23   2.0000      -6.032245      -164.1457
  24   2.0000      -1.012315       -27.5465
  25   2.0000      -0.985317       -26.8118
  26   2.0000      -0.920301       -25.0427
  27   2.0000      -0.907792       -24.7023
  28   2.0000      -0.868154       -23.6237
  29   2.0000      -0.857714       -23.3396
  30   2.0000      -0.849630       -23.1196
  31   2.0000      -0.812813       -22.1178
  32   2.0000      -0.780819       -21.2472
  33   2.0000      -0.767812       -20.8932
  34   2.0000      -0.706063       -19.2130
  35   2.0000      -0.701824       -19.0976
  36   2.0000      -0.694098       -18.8874
  37   2.0000      -0.662668       -18.0321
  38   2.0000      -0.634828       -17.2745
  39   2.0000      -0.625437       -17.0190
  40   2.0000      -0.594905       -16.1882
  41   2.0000      -0.577935       -15.7264
  42   2.0000      -0.561790       -15.2871
  43   2.0000      -0.554294       -15.0831
  44   2.0000      -0.537062       -14.6142
  45   2.0000      -0.526229       -14.3194
  46   2.0000      -0.518078       -14.0976
  47   2.0000      -0.511802       -13.9269
  48   2.0000      -0.506752       -13.7894
  49   2.0000      -0.497720       -13.5436
  50   2.0000      -0.488551       -13.2942
  51   2.0000      -0.482769       -13.1368
  52   2.0000      -0.469957       -12.7882
  53   2.0000      -0.467732       -12.7276
  54   2.0000      -0.452201       -12.3050
  55   2.0000      -0.448797       -12.2124
  56   2.0000      -0.445851       -12.1322
  57   2.0000      -0.441937       -12.0257
  58   2.0000      -0.436179       -11.8690
  59   2.0000      -0.429427       -11.6853
  60   2.0000      -0.421475       -11.4689
  61   2.0000      -0.417158       -11.3514
  62   2.0000      -0.411614       -11.2006
  63   2.0000      -0.356865        -9.7108
  64   2.0000      -0.336260        -9.1501
  65   2.0000      -0.326897        -8.8953
  66   2.0000      -0.278605        -7.5812
  67   0.0000       0.023077         0.6280
  68   0.0000       0.074160         2.0180
  69   0.0000       0.101757         2.7690
  70   0.0000       0.118487         3.2242
  71   0.0000       0.135421         3.6850

MULLIKEN ATOMIC CHARGES
-----------------------
   0 S :    0.102749
   1 C :   -0.134481
   2 C :   -0.105411
   3 C :    0.003005
   4 C :   -0.126629
   5 H :    0.028105
   6 C :    0.087923
   7 H :    0.001769
   8 H :    0.028166
   9 C :   -0.044781
  10 H :    0.019495
  11 H :    0.017747
  12 C :   -0.010653
  13 H :    0.004837
  14 H :    0.030894
  15 H :    0.013673
  16 S :    0.105674
  17 C :   -0.137366
  18 C :   -0.051851
  19 C :   -0.057338
  20 C :   -0.112232
  21 H :    0.038385
  22 C :    0.064863
  23 H :   -0.011183
  24 H :    0.022489
  25 C :   -0.062145
  26 H :    0.028965
  27 H :    0.046037
  28 C :   -0.002402
  29 H :    0.011417
  30 H :    0.028598
  31 H :    0.024776
  32 H :    0.066473
  33 H :    0.080431
Sum of atomic charges:   -0.0000000

LOEWDIN ATOMIC CHARGES
----------------------
   0 S :    0.402674
   1 C :   -0.216325
   2 C :   -0.061720
   3 C :   -0.071902
   4 C :   -0.178451
   5 H :    0.033966
   6 C :   -0.024585
   7 H :    0.024594
   8 H :    0.033233
   9 C :   -0.034953
  10 H :    0.024034
  11 H :    0.018939
  12 C :   -0.056042
  13 H :    0.009081
  14 H :    0.030607
  15 H :    0.020961
  16 S :    0.426477
  17 C :   -0.196907
  18 C :   -0.072700
  19 C :   -0.073076
  20 C :   -0.211569
  21 H :    0.040607
  22 C :   -0.030552
  23 H :    0.020128
  24 H :    0.035175
  25 C :   -0.034437
  26 H :    0.020647
  27 H :    0.035832
  28 C :   -0.062879
  29 H :    0.024870
  30 H :    0.027255
  31 H :    0.019479
  32 H :    0.037547
  33 H :    0.039994

  Mayer bond orders larger than 0.100000
B(  0-S ,  1-C ) :   1.1585 B(  0-S ,  4-C ) :   1.1486 B(  1-C ,  2-C ) :   1.5723
B(  1-C ,  4-C ) :   0.1066 B(  1-C , 32-H ) :   0.9613 B(  2-C ,  3-C ) :   1.2936
B(  2-C ,  6-C ) :   1.0275 B(  3-C ,  4-C ) :   1.5395 B(  3-C ,  5-H ) :   0.9753
B(  4-C , 20-C ) :   1.0533 B(  6-C ,  7-H ) :   0.9323 B(  6-C ,  8-H ) :   0.9411
B(  6-C ,  9-C ) :   1.0764 B(  9-C , 10-H ) :   0.9503 B(  9-C , 11-H ) :   0.9559
B(  9-C , 12-C ) :   1.0937 B( 12-C , 13-H ) :   0.9724 B( 12-C , 14-H ) :   0.9713
B( 12-C , 15-H ) :   0.9714 B( 16-S , 17-C ) :   1.1682 B( 16-S , 20-C ) :   1.1584
B( 17-C , 18-C ) :   1.5642 B( 17-C , 20-C ) :   0.1036 B( 17-C , 33-H ) :   0.9652
B( 18-C , 19-C ) :   1.2719 B( 18-C , 21-H ) :   0.9865 B( 19-C , 20-C ) :   1.5695
B( 19-C , 22-C ) :   1.0394 B( 22-C , 23-H ) :   0.9308 B( 22-C , 24-H ) :   0.9267
B( 22-C , 25-C ) :   1.0586 B( 25-C , 26-H ) :   0.9539 B( 25-C , 27-H ) :   0.9549
B( 25-C , 28-C ) :   1.0771 B( 28-C , 29-H ) :   0.9717 B( 28-C , 30-H ) :   0.9730
B( 28-C , 31-H ) :   0.9706

Dispersion correction           -0.013501962
FINAL SINGLE POINT ENERGY     -1339.872077752402

DIPOLE MOMENT
-------------
                                X             Y             Z
Electronic contribution:    -27.07209      14.23230       8.19243
Nuclear contribution   :     27.50387     -14.61380      -8.39769
                        -----------------------------------------
Total Dipole Moment    :      0.43177      -0.38150      -0.20525
                        -----------------------------------------
Magnitude (a.u.)       :      0.61164
Magnitude (Debye)      :      1.55466

Rotational constants in cm-1:     0.017785     0.008720     0.006389
Rotational constants in MHz :   533.192907   261.411416   191.532781

                             ****ORCA TERMINATED NORMALLY****
TOTAL RUN TIME: 0 days 0 hours 0 minutes 27 seconds 524 msec
