                         Program Version 4.2.1 -  RELEASE  -
|  1> ! wB97X-D3 SP def2-SVP
|  2> %pal
|  3> nprocs 16
|  4> end
|  5>
|  6> * xyz 0 1
|  7> S 	 -31.9796 	 75.5748 	 164.245
|  8> C 	 -30.9749 	 75.2376 	 162.876
|  9> C 	 -31.3149 	 75.9959 	 161.754
| 10> C 	 -32.4536 	 76.8791 	 162.053
| 11> C 	 -33.0528 	 76.5948 	 163.286
| 12> H 	 -32.959 	 77.5113 	 161.367
| 13> C 	 -30.5239 	 76.0835 	 160.459
| 14> H 	 -31.042 	 75.6145 	 159.687
| 15> H 	 -29.5982 	 75.5351 	 160.662
| 16> C 	 -30.0756 	 77.4704 	 160.011
| 17> H 	 -30.9399 	 78.1888 	 159.862
| 18> H 	 -29.5483 	 78.0198 	 160.826
| 19> C 	 -29.1038 	 77.2843 	 158.877
| 20> H 	 -28.4066 	 76.5062 	 159.162
| 21> H 	 -29.5635 	 76.9876 	 157.965
| 22> H 	 -28.5149 	 78.1709 	 158.635
| 23> S 	 -34.3638 	 77.6408 	 165.415
| 24> C 	 -36.0899 	 77.7963 	 165.42
| 25> C 	 -36.6421 	 77.4828 	 164.237
| 26> C 	 -35.644 	 77.0332 	 163.283
| 27> C 	 -34.368 	 76.9594 	 163.808
| 28> H 	 -37.735 	 77.6193 	 164.089
| 29> C 	 -35.9181 	 76.579 	 161.847
| 30> H 	 -35.0456 	 76.3387 	 161.232
| 31> H 	 -36.1321 	 77.4577 	 161.298
| 32> C 	 -36.9277 	 75.4334 	 161.711
| 33> H 	 -37.1839 	 75.4727 	 160.704
| 34> H 	 -37.8358 	 75.6955 	 162.207
| 35> C 	 -36.5317 	 74.0475 	 162.325
| 36> H 	 -37.1668 	 73.2401 	 161.928
| 37> H 	 -36.4953 	 74.0126 	 163.447
| 38> H 	 -35.5439 	 73.894 	 161.924
| 39> H 	 -30.104 	 74.5849 	 163.028
| 40> H 	 -36.7639 	 77.8868 	 166.278
| 41> *
| 42>
| 43>                          ****END OF INPUT****

CARTESIAN COORDINATES (ANGSTROEM)
---------------------------------
  S    -31.979600   75.574800  164.245000
  C    -30.974900   75.237600  162.876000
  C    -31.314900   75.995900  161.754000
  C    -32.453600   76.879100  162.053000
  C    -33.052800   76.594800  163.286000
  H    -32.959000   77.511300  161.367000
  C    -30.523900   76.083500  160.459000
  H    -31.042000   75.614500  159.687000
  H    -29.598200   75.535100  160.662000
  C    -30.075600   77.470400  160.011000
  H    -30.939900   78.188800  159.862000
  H    -29.548300   78.019800  160.826000
  C    -29.103800   77.284300  158.877000
  H    -28.406600   76.506200  159.162000
  H    -29.563500   76.987600  157.965000
  H    -28.514900   78.170900  158.635000
  S    -34.363800   77.640800  165.415000
  C    -36.089900   77.796300  165.420000
  C    -36.642100   77.482800  164.237000
  C    -35.644000   77.033200  163.283000
  C    -34.368000   76.959400  163.808000
  H    -37.735000   77.619300  164.089000
  C    -35.918100   76.579000  161.847000
  H    -35.045600   76.338700  161.232000
  H    -36.132100   77.457700  161.298000
  C    -36.927700   75.433400  161.711000
  H    -37.183900   75.472700  160.704000
  H    -37.835800   75.695500  162.207000
  C    -36.531700   74.047500  162.325000
  H    -37.166800   73.240100  161.928000
  H    -36.495300   74.012600  163.447000
  H    -35.543900   73.894000  161.924000
  H    -30.104000   74.584900  163.028000
  H    -36.763900   77.886800  166.278000

 Total Charge           Charge          ....    0
 Multiplicity           Mult            ....    1
 Number of Electrons    NEL             ....  134
 Basis Dimension        Dim             ....  322

ORBITAL ENERGIES
----------------

  NO   OCC          E(Eh)            E(eV)
   0   2.0000     -88.963160     -2420.8106
   1   2.0000     -88.959539     -2420.7121
   2   2.0000     -10.332709      -281.1673
   3   2.0000     -10.324478      -280.9433
   4   2.0000     -10.317733      -280.7598
   5   2.0000     -10.312036      -280.6048
   6   2.0000     -10.308330      -280.5039
   7   2.0000     -10.306050      -280.4419
   8   2.0000     -10.298794      -280.2444
   9   2.0000     -10.295787      -280.1626
  10   2.0000     -10.292048      -280.0609
  11   2.0000     -10.289391      -279.9886
  12   2.0000     -10.286207      -279.9019
  13   2.0000     -10.278387      -279.6891
  14   2.0000     -10.277417      -279.6627
  15   2.0000     -10.275335      -279.6061
  16   2.0000      -8.078359      -219.8233
  17   2.0000      -8.075155      -219.7361
  18   2.0000      -6.036846      -164.2709
  19   2.0000      -6.033742      -164.1865
  20   2.0000      -6.032783      -164.1604
  21   2.0000      -6.029580      -164.0732
  22   2.0000      -6.029123      -164.0608
  23   2.0000      -6.025731      -163.9685
  24   2.0000      -1.006636       -27.3920
  25   2.0000      -0.982890       -26.7458
  26   2.0000      -0.917862       -24.9763
  27   2.0000      -0.905101       -24.6290
  28   2.0000      -0.872860       -23.7517
  29   2.0000      -0.848610       -23.0919
  30   2.0000      -0.839730       -22.8502
  31   2.0000      -0.817666       -22.2498
  32   2.0000      -0.782784       -21.3006
  33   2.0000      -0.772185       -21.0122
  34   2.0000      -0.711428       -19.3589
  35   2.0000      -0.700059       -19.0496
  36   2.0000      -0.691448       -18.8153
  37   2.0000      -0.655921       -17.8485
  38   2.0000      -0.642757       -17.4903
  39   2.0000      -0.621927       -16.9235
  40   2.0000      -0.600412       -16.3380
  41   2.0000      -0.574342       -15.6286
  42   2.0000      -0.564841       -15.3701
  43   2.0000      -0.548432       -14.9236
  44   2.0000      -0.536432       -14.5971
  45   2.0000      -0.523631       -14.2487
  46   2.0000      -0.514398       -13.9975
  47   2.0000      -0.510273       -13.8852
  48   2.0000      -0.507424       -13.8077
  49   2.0000      -0.499400       -13.5894
  50   2.0000      -0.487500       -13.2656
  51   2.0000      -0.476969       -12.9790
  52   2.0000      -0.470932       -12.8147
  53   2.0000      -0.462160       -12.5760
  54   2.0000      -0.459904       -12.5146
  55   2.0000      -0.452744       -12.3198
  56   2.0000      -0.447276       -12.1710
  57   2.0000      -0.443599       -12.0709
  58   2.0000      -0.436721       -11.8838
  59   2.0000      -0.424186       -11.5427
  60   2.0000      -0.415636       -11.3100
  61   2.0000      -0.411679       -11.2023
  62   2.0000      -0.400978       -10.9112
  63   2.0000      -0.347816        -9.4646
  64   2.0000      -0.328452        -8.9376
  65   2.0000      -0.327240        -8.9046
  66   2.0000      -0.293887        -7.9971
  67   0.0000       0.027637         0.7520
  68   0.0000       0.075757         2.0614
  69   0.0000       0.110289         3.0011
  70   0.0000       0.126500         3.4422
  71   0.0000       0.133988         3.6460

MULLIKEN ATOMIC CHARGES
-----------------------
   0 S :    0.106670
   1 C :   -0.126488
   2 C :   -0.100649
   3 C :    0.054842
   4 C :   -0.151320
   5 H :    0.005921
   6 C :    0.085792
   7 H :    0.026342
   8 H :    0.014562
   9 C :   -0.114483
  10 H :    0.038227
  11 H :    0.033299
  12 C :   -0.012948
  13 H :    0.021411
  14 H :    0.022377
  15 H :    0.032804
  16 S :    0.090906
  17 C :   -0.075306
  18 C :   -0.065287
  19 C :   -0.040139
  20 C :   -0.145242
  21 H :    0.038760
  22 C :    0.056676
  23 H :    0.010528
  24 H :    0.014119
  25 C :   -0.035796
  26 H :    0.007855
  27 H :    0.010625
  28 C :   -0.050570
  29 H :    0.039903
  30 H :    0.057579
  31 H :    0.025294
  32 H :    0.061781
  33 H :    0.061954
Sum of atomic charges:    0.0000000

LOEWDIN ATOMIC CHARGES
----------------------
   0 S :    0.405090
   1 C :   -0.203416
   2 C :   -0.060077
   3 C :   -0.056121
   4 C :   -0.187955
   5 H :    0.022180
   6 C :   -0.027811
   7 H :    0.023854
   8 H :    0.031979
   9 C :   -0.048547
  10 H :    0.026533
  11 H :    0.029459
  12 C :   -0.060590
  13 H :    0.026182
  14 H :    0.020458
  15 H :    0.028065
  16 S :    0.400327
  17 C :   -0.191888
  18 C :   -0.078043
  19 C :   -0.052493
  20 C :   -0.200438
  21 H :    0.041493
  22 C :   -0.037125
  23 H :    0.030099
  24 H :    0.028926
  25 C :   -0.036048
  26 H :    0.017256
  27 H :    0.015348
  28 C :   -0.063826
  29 H :    0.029638
  30 H :    0.036160
  31 H :    0.022604
  32 H :    0.030857
  33 H :    0.037873

  Mayer bond orders larger than 0.100000
B(  0-S ,  1-C ) :   1.1448 B(  0-S ,  4-C ) :   1.1532 B(  1-C ,  2-C ) :   1.6146
B(  1-C , 32-H ) :   0.9653 B(  2-C ,  3-C ) :   1.2184 B(  2-C ,  6-C ) :   1.0237
B(  3-C ,  4-C ) :   1.5775 B(  3-C ,  5-H ) :   0.9930 B(  4-C , 20-C ) :   1.0278
B(  6-C ,  7-H ) :   0.9324 B(  6-C ,  8-H ) :   0.9447 B(  6-C ,  9-C ) :   1.0637
B(  9-C , 10-H ) :   0.9497 B(  9-C , 11-H ) :   0.9556 B(  9-C , 12-C ) :   1.0823
B( 12-C , 13-H ) :   0.9706 B( 12-C , 14-H ) :   0.9745 B( 12-C , 15-H ) :   0.9725
B( 16-S , 17-C ) :   1.1421 B( 16-S , 20-C ) :   1.1309 B( 17-C , 18-C ) :   1.6584
B( 17-C , 33-H ) :   0.9560 B( 18-C , 19-C ) :   1.2072 B( 18-C , 21-H ) :   0.9845
B( 19-C , 20-C ) :   1.6245 B( 19-C , 22-C ) :   1.0341 B( 22-C , 23-H ) :   0.9323
B( 22-C , 24-H ) :   0.9236 B( 22-C , 25-C ) :   1.0781 B( 25-C , 26-H ) :   0.9513
B( 25-C , 27-H ) :   0.9573 B( 25-C , 28-C ) :   1.0571 B( 28-C , 29-H ) :   0.9748
B( 28-C , 30-H ) :   0.9745 B( 28-C , 31-H ) :   0.9790

Dispersion correction           -0.014245514
FINAL SINGLE POINT ENERGY     -1339.868512047635

DIPOLE MOMENT
-------------
                                X             Y             Z
Electronic contribution:     -1.29530       4.05006      25.02855
Nuclear contribution   :      1.17514      -4.08274     -25.72801
                        -----------------------------------------
Total Dipole Moment    :     -0.12016      -0.03268      -0.69946
                        -----------------------------------------
Magnitude (a.u.)       :      0.71045
Magnitude (Debye)      :      1.80583

Rotational constants in cm-1:     0.020321     0.007826     0.006840
Rotational constants in MHz :   609.196228   234.607032   205.058693

                             ****ORCA TERMINATED NORMALLY****
TOTAL RUN TIME: 0 days 0 hours 0 minutes 35 seconds 290 msec
