                         Program Version 4.2.1 -  RELEASE  -
|  1> ! wB97X-D3 SP def2-SVP
|  2> %pal
|  3> nprocs 16
|  4> end
|  5>
|  6> * xyz 0 1
|  7> S 	 -15.9184 	 47.1554 	 30.4834
|  8> C 	 -14.506 	 48.1043 	 30.077
|  9> C 	 -13.7387 	 48.4682 	 31.1793
| 10> C 	 -14.2554 	 47.7307 	 32.3665
| 11> C 	 -15.3751 	 46.9443 	 32.1318
| 12> H 	 -13.9091 	 47.8296 	 33.3465
| 13> C 	 -12.5831 	 49.4363 	 31.2119
| 14> H 	 -12.4057 	 49.6742 	 32.3
| 15> H 	 -13.0292 	 50.3806 	 30.902
| 16> C 	 -11.3354 	 49.0076 	 30.419
| 17> H 	 -11.7624 	 48.951 	 29.3742
| 18> H 	 -10.7248 	 49.8929 	 30.3628
| 19> C 	 -10.5063 	 47.7777 	 30.8428
| 20> H 	 -11.0278 	 46.8795 	 30.7756
| 21> H 	 -9.57837 	 47.6621 	 30.3687
| 22> H 	 -10.2914 	 47.9413 	 31.9193
| 23> S 	 -17.763 	 46.9941 	 33.3255
| 24> C 	 -18.1021 	 45.9337 	 34.7209
| 25> C 	 -17.0523 	 45.1023 	 34.9376
| 26> C 	 -15.9346 	 45.3213 	 34.1305
| 27> C 	 -16.2081 	 46.2633 	 33.1059
| 28> H 	 -17.103 	 44.4028 	 35.6745
| 29> C 	 -14.6681 	 44.6419 	 34.3254
| 30> H 	 -14.5378 	 44.7313 	 35.4213
| 31> H 	 -13.8345 	 45.2296 	 33.8907
| 32> C 	 -14.5239 	 43.1849 	 33.9005
| 33> H 	 -14.8167 	 43.252 	 32.8249
| 34> H 	 -15.3312 	 42.6161 	 34.2949
| 35> C 	 -13.1064 	 42.5421 	 33.9124
| 36> H 	 -13.2173 	 41.5645 	 33.62
| 37> H 	 -12.6971 	 42.6316 	 34.9646
| 38> H 	 -12.3945 	 43.0864 	 33.3371
| 39> H 	 -14.2368 	 48.3974 	 29.0222
| 40> H 	 -18.9816 	 45.885 	 35.4002
| 41> *
| 42>
| 43>                          ****END OF INPUT****

CARTESIAN COORDINATES (ANGSTROEM)
---------------------------------
  S    -15.918400   47.155400   30.483400
  C    -14.506000   48.104300   30.077000
  C    -13.738700   48.468200   31.179300
  C    -14.255400   47.730700   32.366500
  C    -15.375100   46.944300   32.131800
  H    -13.909100   47.829600   33.346500
  C    -12.583100   49.436300   31.211900
  H    -12.405700   49.674200   32.300000
  H    -13.029200   50.380600   30.902000
  C    -11.335400   49.007600   30.419000
  H    -11.762400   48.951000   29.374200
  H    -10.724800   49.892900   30.362800
  C    -10.506300   47.777700   30.842800
  H    -11.027800   46.879500   30.775600
  H     -9.578370   47.662100   30.368700
  H    -10.291400   47.941300   31.919300
  S    -17.763000   46.994100   33.325500
  C    -18.102100   45.933700   34.720900
  C    -17.052300   45.102300   34.937600
  C    -15.934600   45.321300   34.130500
  C    -16.208100   46.263300   33.105900
  H    -17.103000   44.402800   35.674500
  C    -14.668100   44.641900   34.325400
  H    -14.537800   44.731300   35.421300
  H    -13.834500   45.229600   33.890700
  C    -14.523900   43.184900   33.900500
  H    -14.816700   43.252000   32.824900
  H    -15.331200   42.616100   34.294900
  C    -13.106400   42.542100   33.912400
  H    -13.217300   41.564500   33.620000
  H    -12.697100   42.631600   34.964600
  H    -12.394500   43.086400   33.337100
  H    -14.236800   48.397400   29.022200
  H    -18.981600   45.885000   35.400200

 Total Charge           Charge          ....    0
 Multiplicity           Mult            ....    1
 Number of Electrons    NEL             ....  134
 Basis Dimension        Dim             ....  322

ORBITAL ENERGIES
----------------

  NO   OCC          E(Eh)            E(eV)
   0   2.0000     -88.965430     -2420.8724
   1   2.0000     -88.964930     -2420.8588
   2   2.0000     -10.327923      -281.0371
   3   2.0000     -10.324967      -280.9566
   4   2.0000     -10.317864      -280.7634
   5   2.0000     -10.317547      -280.7547
   6   2.0000     -10.306355      -280.4502
   7   2.0000     -10.298930      -280.2481
   8   2.0000     -10.298037      -280.2238
   9   2.0000     -10.294859      -280.1373
  10   2.0000     -10.294281      -280.1216
  11   2.0000     -10.286061      -279.8980
  12   2.0000     -10.283737      -279.8347
  13   2.0000     -10.280987      -279.7599
  14   2.0000     -10.277436      -279.6633
  15   2.0000     -10.275415      -279.6083
  16   2.0000      -8.079846      -219.8638
  17   2.0000      -8.079710      -219.8601
  18   2.0000      -6.038442      -164.3144
  19   2.0000      -6.038277      -164.3099
  20   2.0000      -6.034311      -164.2019
  21   2.0000      -6.034248      -164.2002
  22   2.0000      -6.030592      -164.1008
  23   2.0000      -6.030376      -164.0949
  24   2.0000      -1.006430       -27.3863
  25   2.0000      -0.980673       -26.6855
  26   2.0000      -0.912903       -24.8414
  27   2.0000      -0.909084       -24.7374
  28   2.0000      -0.871628       -23.7182
  29   2.0000      -0.851557       -23.1721
  30   2.0000      -0.844873       -22.9902
  31   2.0000      -0.816884       -22.2285
  32   2.0000      -0.787812       -21.4375
  33   2.0000      -0.771214       -20.9858
  34   2.0000      -0.710622       -19.3370
  35   2.0000      -0.706616       -19.2280
  36   2.0000      -0.693099       -18.8602
  37   2.0000      -0.666332       -18.1318
  38   2.0000      -0.637895       -17.3580
  39   2.0000      -0.610377       -16.6092
  40   2.0000      -0.594410       -16.1747
  41   2.0000      -0.574336       -15.6285
  42   2.0000      -0.559427       -15.2228
  43   2.0000      -0.552328       -15.0296
  44   2.0000      -0.541425       -14.7329
  45   2.0000      -0.531661       -14.4672
  46   2.0000      -0.513288       -13.9673
  47   2.0000      -0.507800       -13.8180
  48   2.0000      -0.504764       -13.7353
  49   2.0000      -0.496428       -13.5085
  50   2.0000      -0.493105       -13.4181
  51   2.0000      -0.482343       -13.1252
  52   2.0000      -0.473724       -12.8907
  53   2.0000      -0.467599       -12.7240
  54   2.0000      -0.463407       -12.6099
  55   2.0000      -0.449523       -12.2321
  56   2.0000      -0.447409       -12.1746
  57   2.0000      -0.441062       -12.0019
  58   2.0000      -0.434738       -11.8298
  59   2.0000      -0.429107       -11.6766
  60   2.0000      -0.421265       -11.4632
  61   2.0000      -0.410526       -11.1710
  62   2.0000      -0.400306       -10.8929
  63   2.0000      -0.348864        -9.4931
  64   2.0000      -0.326333        -8.8800
  65   2.0000      -0.325259        -8.8508
  66   2.0000      -0.290420        -7.9027
  67   0.0000       0.035430         0.9641
  68   0.0000       0.062165         1.6916
  69   0.0000       0.108415         2.9501
  70   0.0000       0.122408         3.3309
  71   0.0000       0.128421         3.4945

MULLIKEN ATOMIC CHARGES
-----------------------
   0 S :    0.109438
   1 C :   -0.146247
   2 C :   -0.111494
   3 C :    0.061324
   4 C :   -0.168261
   5 H :   -0.008999
   6 C :    0.051546
   7 H :    0.020334
   8 H :    0.038361
   9 C :   -0.073973
  10 H :    0.024484
  11 H :    0.024669
  12 C :    0.007885
  13 H :    0.030414
  14 H :    0.030568
  15 H :    0.023963
  16 S :    0.107717
  17 C :   -0.096713
  18 C :    0.003152
  19 C :   -0.034451
  20 C :   -0.145508
  21 H :   -0.026581
  22 C :    0.054574
  23 H :    0.020780
  24 H :    0.016441
  25 C :   -0.081550
  26 H :    0.026752
  27 H :    0.014071
  28 C :    0.005246
  29 H :    0.030720
  30 H :    0.028225
  31 H :    0.028728
  32 H :    0.069705
  33 H :    0.064683
Sum of atomic charges:   -0.0000000

LOEWDIN ATOMIC CHARGES
----------------------
   0 S :    0.403763
   1 C :   -0.207987
   2 C :   -0.062801
   3 C :   -0.054891
   4 C :   -0.202897
   5 H :    0.018403
   6 C :   -0.040071
   7 H :    0.031899
   8 H :    0.038862
   9 C :   -0.040454
  10 H :    0.026584
  11 H :    0.022722
  12 C :   -0.053689
  13 H :    0.020618
  14 H :    0.023852
  15 H :    0.032254
  16 S :    0.407543
  17 C :   -0.182294
  18 C :   -0.060868
  19 C :   -0.057790
  20 C :   -0.204544
  21 H :    0.015574
  22 C :   -0.042764
  23 H :    0.031641
  24 H :    0.032363
  25 C :   -0.042141
  26 H :    0.030391
  27 H :    0.016785
  28 C :   -0.050947
  29 H :    0.018635
  30 H :    0.030427
  31 H :    0.023641
  32 H :    0.036952
  33 H :    0.041229

  Mayer bond orders larger than 0.100000
B(  0-S ,  1-C ) :   1.1397 B(  0-S ,  4-C ) :   1.1406 B(  1-C ,  2-C ) :   1.6274
B(  1-C , 32-H ) :   0.9586 B(  2-C ,  3-C ) :   1.2150 B(  2-C ,  6-C ) :   1.0113
B(  3-C ,  4-C ) :   1.5927 B(  3-C ,  5-H ) :   0.9977 B(  4-C , 20-C ) :   1.0166
B(  6-C ,  7-H ) :   0.9398 B(  6-C ,  8-H ) :   0.9367 B(  6-C ,  9-C ) :   1.0696
B(  9-C , 10-H ) :   0.9548 B(  9-C , 11-H ) :   0.9548 B(  9-C , 12-C ) :   1.0647
B( 12-C , 13-H ) :   0.9759 B( 12-C , 14-H ) :   0.9743 B( 12-C , 15-H ) :   0.9720
B( 16-S , 17-C ) :   1.1405 B( 16-S , 20-C ) :   1.1572 B( 17-C , 18-C ) :   1.6129
B( 17-C , 20-C ) :   0.1018 B( 17-C , 33-H ) :   0.9608 B( 18-C , 19-C ) :   1.2556
B( 18-C , 21-H ) :   1.0023 B( 19-C , 20-C ) :   1.5596 B( 19-C , 22-C ) :   1.0678
B( 22-C , 23-H ) :   0.9161 B( 22-C , 24-H ) :   0.9266 B( 22-C , 25-C ) :   1.0626
B( 25-C , 26-H ) :   0.9511 B( 25-C , 27-H ) :   0.9559 B( 25-C , 28-C ) :   1.0765
B( 28-C , 29-H ) :   0.9735 B( 28-C , 30-H ) :   0.9759 B( 28-C , 31-H ) :   0.9731

Dispersion correction           -0.013924612
FINAL SINGLE POINT ENERGY     -1339.860697784943

DIPOLE MOMENT
-------------
                                X             Y             Z
Electronic contribution:    -27.10285       7.30367      -2.91045
Nuclear contribution   :     27.71465      -7.28868       3.21211
                        -----------------------------------------
Total Dipole Moment    :      0.61180       0.01498       0.30166
                        -----------------------------------------
Magnitude (a.u.)       :      0.68229
Magnitude (Debye)      :      1.73425

Rotational constants in cm-1:     0.017362     0.008865     0.006626
Rotational constants in MHz :   520.513058   265.777367   198.641689

                             ****ORCA TERMINATED NORMALLY****
TOTAL RUN TIME: 0 days 0 hours 0 minutes 33 seconds 152 msec
