                         Program Version 4.2.1 -  RELEASE  -
|  1> ! wB97X-D3 SP def2-SVP
|  2> %pal
|  3> nprocs 16
|  4> end
|  5>
|  6> * xyz 0 1
|  7> S 	 2.91596 	 -12.9325 	 100.794
|  8> C 	 4.18813 	 -11.9369 	 101.425
|  9> C 	 5.41405 	 -12.5156 	 101.352
| 10> C 	 5.28308 	 -13.8799 	 100.968
| 11> C 	 3.96917 	 -14.2846 	 100.595
| 12> H 	 6.05455 	 -14.6008 	 100.98
| 13> C 	 6.72974 	 -11.8916 	 101.562
| 14> H 	 7.30146 	 -12.3945 	 102.31
| 15> H 	 6.65646 	 -10.8725 	 102.04
| 16> C 	 7.55571 	 -11.8188 	 100.273
| 17> H 	 8.61543 	 -11.5407 	 100.436
| 18> H 	 7.65325 	 -12.8134 	 99.8593
| 19> C 	 6.92417 	 -10.8702 	 99.1979
| 20> H 	 7.27145 	 -9.85213 	 99.3688
| 21> H 	 7.34704 	 -11.0964 	 98.2831
| 22> H 	 5.83276 	 -10.9058 	 99.0857
| 23> S 	 1.83953 	 -15.833 	 99.7781
| 24> C 	 2.01975 	 -17.3911 	 99.1049
| 25> C 	 3.39992 	 -17.79 	 99.1419
| 26> C 	 4.25472 	 -16.8332 	 99.8339
| 27> C 	 3.56271 	 -15.5857 	 100.079
| 28> H 	 3.66037 	 -18.76 	 98.7413
| 29> C 	 5.74538 	 -17.1193 	 99.934
| 30> H 	 6.38898 	 -16.3466 	 99.558
| 31> H 	 6.04353 	 -17.9244 	 99.1704
| 32> C 	 6.1737 	 -17.5316 	 101.36
| 33> H 	 5.56895 	 -18.4089 	 101.69
| 34> H 	 6.00929 	 -16.672 	 101.962
| 35> C 	 7.73193 	 -17.9309 	 101.44
| 36> H 	 8.01571 	 -18.0816 	 102.465
| 37> H 	 8.38041 	 -17.1119 	 101.1
| 38> H 	 8.0783 	 -18.7655 	 100.736
| 39> H 	 4.0826 	 -10.8892 	 101.639
| 40> H 	 1.19381 	 -18.0288 	 98.7708
| 41> *
| 42>
| 43>                          ****END OF INPUT****

CARTESIAN COORDINATES (ANGSTROEM)
---------------------------------
  S      2.915960  -12.932500  100.794000
  C      4.188130  -11.936900  101.425000
  C      5.414050  -12.515600  101.352000
  C      5.283080  -13.879900  100.968000
  C      3.969170  -14.284600  100.595000
  H      6.054550  -14.600800  100.980000
  C      6.729740  -11.891600  101.562000
  H      7.301460  -12.394500  102.310000
  H      6.656460  -10.872500  102.040000
  C      7.555710  -11.818800  100.273000
  H      8.615430  -11.540700  100.436000
  H      7.653250  -12.813400   99.859300
  C      6.924170  -10.870200   99.197900
  H      7.271450   -9.852130   99.368800
  H      7.347040  -11.096400   98.283100
  H      5.832760  -10.905800   99.085700
  S      1.839530  -15.833000   99.778100
  C      2.019750  -17.391100   99.104900
  C      3.399920  -17.790000   99.141900
  C      4.254720  -16.833200   99.833900
  C      3.562710  -15.585700  100.079000
  H      3.660370  -18.760000   98.741300
  C      5.745380  -17.119300   99.934000
  H      6.388980  -16.346600   99.558000
  H      6.043530  -17.924400   99.170400
  C      6.173700  -17.531600  101.360000
  H      5.568950  -18.408900  101.690000
  H      6.009290  -16.672000  101.962000
  C      7.731930  -17.930900  101.440000
  H      8.015710  -18.081600  102.465000
  H      8.380410  -17.111900  101.100000
  H      8.078300  -18.765500  100.736000
  H      4.082600  -10.889200  101.639000
  H      1.193810  -18.028800   98.770800

 Total Charge           Charge          ....    0
 Multiplicity           Mult            ....    1
 Number of Electrons    NEL             ....  134
 Basis Dimension        Dim             ....  322

ORBITAL ENERGIES
----------------

  NO   OCC          E(Eh)            E(eV)
   0   2.0000     -88.970103     -2420.9996
   1   2.0000     -88.969546     -2420.9844
   2   2.0000     -10.340132      -281.3693
   3   2.0000     -10.336046      -281.2581
   4   2.0000     -10.323289      -280.9110
   5   2.0000     -10.317659      -280.7578
   6   2.0000     -10.309493      -280.5356
   7   2.0000     -10.303762      -280.3796
   8   2.0000     -10.298557      -280.2380
   9   2.0000     -10.297271      -280.2030
  10   2.0000     -10.294621      -280.1309
  11   2.0000     -10.292620      -280.0764
  12   2.0000     -10.292266      -280.0668
  13   2.0000     -10.290088      -280.0075
  14   2.0000     -10.288451      -279.9630
  15   2.0000     -10.270335      -279.4700
  16   2.0000      -8.085007      -220.0042
  17   2.0000      -8.084699      -219.9958
  18   2.0000      -6.043439      -164.4503
  19   2.0000      -6.043302      -164.4466
  20   2.0000      -6.039306      -164.3379
  21   2.0000      -6.039118      -164.3328
  22   2.0000      -6.036048      -164.2492
  23   2.0000      -6.035377      -164.2309
  24   2.0000      -1.008776       -27.4502
  25   2.0000      -0.984169       -26.7806
  26   2.0000      -0.916198       -24.9310
  27   2.0000      -0.904640       -24.6165
  28   2.0000      -0.867352       -23.6019
  29   2.0000      -0.848231       -23.0815
  30   2.0000      -0.841727       -22.9046
  31   2.0000      -0.808988       -22.0137
  32   2.0000      -0.786184       -21.3932
  33   2.0000      -0.775027       -21.0895
  34   2.0000      -0.711689       -19.3660
  35   2.0000      -0.701483       -19.0883
  36   2.0000      -0.692918       -18.8553
  37   2.0000      -0.664573       -18.0840
  38   2.0000      -0.637804       -17.3555
  39   2.0000      -0.626280       -17.0420
  40   2.0000      -0.597603       -16.2616
  41   2.0000      -0.572994       -15.5920
  42   2.0000      -0.559985       -15.2380
  43   2.0000      -0.551983       -15.0202
  44   2.0000      -0.538294       -14.6477
  45   2.0000      -0.522390       -14.2149
  46   2.0000      -0.513444       -13.9715
  47   2.0000      -0.509768       -13.8715
  48   2.0000      -0.505852       -13.7649
  49   2.0000      -0.498388       -13.5618
  50   2.0000      -0.495322       -13.4784
  51   2.0000      -0.483938       -13.1686
  52   2.0000      -0.468985       -12.7617
  53   2.0000      -0.460737       -12.5373
  54   2.0000      -0.458065       -12.4646
  55   2.0000      -0.450598       -12.2614
  56   2.0000      -0.443319       -12.0633
  57   2.0000      -0.440001       -11.9730
  58   2.0000      -0.434322       -11.8185
  59   2.0000      -0.428525       -11.6608
  60   2.0000      -0.422688       -11.5019
  61   2.0000      -0.418253       -11.3813
  62   2.0000      -0.409788       -11.1509
  63   2.0000      -0.364043        -9.9061
  64   2.0000      -0.335027        -9.1165
  65   2.0000      -0.328618        -8.9422
  66   2.0000      -0.277037        -7.5386
  67   0.0000       0.012542         0.3413
  68   0.0000       0.090596         2.4652
  69   0.0000       0.098426         2.6783
  70   0.0000       0.111477         3.0334
  71   0.0000       0.129443         3.5223

MULLIKEN ATOMIC CHARGES
-----------------------
   0 S :    0.111254
   1 C :   -0.107239
   2 C :   -0.062410
   3 C :   -0.003842
   4 C :   -0.104964
   5 H :   -0.024106
   6 C :    0.083113
   7 H :    0.021614
   8 H :    0.020104
   9 C :   -0.092683
  10 H :    0.030856
  11 H :    0.023586
  12 C :   -0.026421
  13 H :    0.023114
  14 H :    0.009618
  15 H :    0.049926
  16 S :    0.104330
  17 C :   -0.103399
  18 C :   -0.043061
  19 C :   -0.018492
  20 C :   -0.118294
  21 H :    0.023137
  22 C :   -0.018010
  23 H :    0.028342
  24 H :    0.027768
  25 C :   -0.061350
  26 H :    0.047292
  27 H :    0.032665
  28 C :   -0.070127
  29 H :    0.040279
  30 H :    0.019970
  31 H :    0.044107
  32 H :    0.039435
  33 H :    0.073888
Sum of atomic charges:    0.0000000

LOEWDIN ATOMIC CHARGES
----------------------
   0 S :    0.420298
   1 C :   -0.197776
   2 C :   -0.063513
   3 C :   -0.060176
   4 C :   -0.197410
   5 H :    0.016078
   6 C :   -0.035370
   7 H :    0.028905
   8 H :    0.034302
   9 C :   -0.036187
  10 H :    0.027675
  11 H :    0.018830
  12 C :   -0.061373
  13 H :    0.025048
  14 H :    0.016033
  15 H :    0.030536
  16 S :    0.425114
  17 C :   -0.209336
  18 C :   -0.069537
  19 C :   -0.051744
  20 C :   -0.190703
  21 H :    0.029861
  22 C :   -0.045135
  23 H :    0.023522
  24 H :    0.036853
  25 C :   -0.031558
  26 H :    0.032141
  27 H :    0.018827
  28 C :   -0.076332
  29 H :    0.023728
  30 H :    0.021910
  31 H :    0.033672
  32 H :    0.026092
  33 H :    0.036726

  Mayer bond orders larger than 0.100000
B(  0-S ,  1-C ) :   1.1337 B(  0-S ,  4-C ) :   1.1558 B(  1-C ,  2-C ) :   1.6098
B(  1-C , 32-H ) :   0.9613 B(  2-C ,  3-C ) :   1.2532 B(  2-C ,  6-C ) :   1.0422
B(  3-C ,  4-C ) :   1.5274 B(  3-C ,  5-H ) :   0.9943 B(  4-C , 20-C ) :   1.1165
B(  6-C ,  7-H ) :   0.9303 B(  6-C ,  8-H ) :   0.9397 B(  6-C ,  9-C ) :   1.0691
B(  9-C , 10-H ) :   0.9553 B(  9-C , 11-H ) :   0.9604 B(  9-C , 12-C ) :   1.0672
B( 12-C , 13-H ) :   0.9755 B( 12-C , 14-H ) :   0.9719 B( 12-C , 15-H ) :   0.9784
B( 16-S , 17-C ) :   1.1852 B( 16-S , 20-C ) :   1.1535 B( 17-C , 18-C ) :   1.5501
B( 17-C , 20-C ) :   0.1078 B( 17-C , 33-H ) :   0.9674 B( 18-C , 19-C ) :   1.2887
B( 18-C , 21-H ) :   0.9892 B( 19-C , 20-C ) :   1.5002 B( 19-C , 22-C ) :   1.0383
B( 22-C , 23-H ) :   0.9426 B( 22-C , 24-H ) :   0.9438 B( 22-C , 25-C ) :   1.0458
B( 25-C , 26-H ) :   0.9571 B( 25-C , 27-H ) :   0.9574 B( 25-C , 28-C ) :   1.0693
B( 28-C , 29-H ) :   0.9775 B( 28-C , 30-H ) :   0.9739 B( 28-C , 31-H ) :   0.9765

Dispersion correction           -0.014492013
FINAL SINGLE POINT ENERGY     -1339.874422466648

DIPOLE MOMENT
-------------
                                X             Y             Z
Electronic contribution:    -29.42434       0.37293      -0.90124
Nuclear contribution   :     30.09336      -0.51543       0.82598
                        -----------------------------------------
Total Dipole Moment    :      0.66902      -0.14250      -0.07526
                        -----------------------------------------
Magnitude (a.u.)       :      0.68816
Magnitude (Debye)      :      1.74916

Rotational constants in cm-1:     0.016749     0.009849     0.006940
Rotational constants in MHz :   502.136558   295.254647   208.043998

                             ****ORCA TERMINATED NORMALLY****
TOTAL RUN TIME: 0 days 0 hours 0 minutes 34 seconds 304 msec
