                         Program Version 4.2.1 -  RELEASE  -
|  1> ! wB97X-D3 SP def2-SVP
|  2> %pal
|  3> nprocs 16
|  4> end
|  5>
|  6> * xyz 0 1
|  7> S 	 -34.1151 	 77.8771 	 155.384
|  8> C 	 -32.8931 	 79.0349 	 156.029
|  9> C 	 -31.704 	 78.3865 	 156.285
| 10> C 	 -31.8972 	 76.9671 	 156.219
| 11> C 	 -33.1242 	 76.5255 	 155.687
| 12> H 	 -31.0817 	 76.356 	 156.528
| 13> C 	 -30.4693 	 79.1567 	 156.666
| 14> H 	 -30.5598 	 80.1457 	 156.249
| 15> H 	 -29.6022 	 78.5999 	 156.24
| 16> C 	 -30.2467 	 79.4303 	 158.143
| 17> H 	 -31.106 	 79.8456 	 158.555
| 18> H 	 -30.1208 	 78.4919 	 158.733
| 19> C 	 -29.0789 	 80.3449 	 158.406
| 20> H 	 -28.1741 	 79.8279 	 158.139
| 21> H 	 -29.0751 	 81.3063 	 157.865
| 22> H 	 -29.0516 	 80.5056 	 159.477
| 23> S 	 -33.3923 	 74.8077 	 153.571
| 24> C 	 -33.6963 	 73.0923 	 153.931
| 25> C 	 -34.0444 	 72.8371 	 155.23
| 26> C 	 -33.7557 	 74.0236 	 156.007
| 27> C 	 -33.4857 	 75.1761 	 155.273
| 28> H 	 -34.3627 	 71.939 	 155.564
| 29> C 	 -33.9905 	 73.862 	 157.508
| 30> H 	 -33.2967 	 74.5495 	 158.03
| 31> H 	 -33.574 	 72.8469 	 157.856
| 32> C 	 -35.429 	 74.0011 	 158.043
| 33> H 	 -35.2755 	 74.2317 	 159.099
| 34> H 	 -35.8618 	 73.0189 	 157.876
| 35> C 	 -36.2316 	 75.0113 	 157.258
| 36> H 	 -37.1918 	 75.0425 	 157.788
| 37> H 	 -36.5006 	 74.6931 	 156.277
| 38> H 	 -35.7444 	 75.9838 	 157.14
| 39> H 	 -32.9385 	 80.0967 	 155.882
| 40> H 	 -33.6379 	 72.2637 	 153.227
| 41> *
| 42>
| 43>                          ****END OF INPUT****

CARTESIAN COORDINATES (ANGSTROEM)
---------------------------------
  S    -34.115100   77.877100  155.384000
  C    -32.893100   79.034900  156.029000
  C    -31.704000   78.386500  156.285000
  C    -31.897200   76.967100  156.219000
  C    -33.124200   76.525500  155.687000
  H    -31.081700   76.356000  156.528000
  C    -30.469300   79.156700  156.666000
  H    -30.559800   80.145700  156.249000
  H    -29.602200   78.599900  156.240000
  C    -30.246700   79.430300  158.143000
  H    -31.106000   79.845600  158.555000
  H    -30.120800   78.491900  158.733000
  C    -29.078900   80.344900  158.406000
  H    -28.174100   79.827900  158.139000
  H    -29.075100   81.306300  157.865000
  H    -29.051600   80.505600  159.477000
  S    -33.392300   74.807700  153.571000
  C    -33.696300   73.092300  153.931000
  C    -34.044400   72.837100  155.230000
  C    -33.755700   74.023600  156.007000
  C    -33.485700   75.176100  155.273000
  H    -34.362700   71.939000  155.564000
  C    -33.990500   73.862000  157.508000
  H    -33.296700   74.549500  158.030000
  H    -33.574000   72.846900  157.856000
  C    -35.429000   74.001100  158.043000
  H    -35.275500   74.231700  159.099000
  H    -35.861800   73.018900  157.876000
  C    -36.231600   75.011300  157.258000
  H    -37.191800   75.042500  157.788000
  H    -36.500600   74.693100  156.277000
  H    -35.744400   75.983800  157.140000
  H    -32.938500   80.096700  155.882000
  H    -33.637900   72.263700  153.227000

 Total Charge           Charge          ....    0
 Multiplicity           Mult            ....    1
 Number of Electrons    NEL             ....  134
 Basis Dimension        Dim             ....  322

ORBITAL ENERGIES
----------------

  NO   OCC          E(Eh)            E(eV)
   0   2.0000     -88.967103     -2420.9180
   1   2.0000     -88.967065     -2420.9169
   2   2.0000     -10.331775      -281.1419
   3   2.0000     -10.326923      -281.0099
   4   2.0000     -10.319893      -280.8186
   5   2.0000     -10.312767      -280.6247
   6   2.0000     -10.304665      -280.4042
   7   2.0000     -10.300307      -280.2856
   8   2.0000     -10.294111      -280.1170
   9   2.0000     -10.293978      -280.1134
  10   2.0000     -10.290561      -280.0204
  11   2.0000     -10.287617      -279.9403
  12   2.0000     -10.282153      -279.7916
  13   2.0000     -10.280979      -279.7597
  14   2.0000     -10.276736      -279.6442
  15   2.0000     -10.265467      -279.3376
  16   2.0000      -8.081579      -219.9109
  17   2.0000      -8.081462      -219.9078
  18   2.0000      -6.040231      -164.3630
  19   2.0000      -6.040005      -164.3569
  20   2.0000      -6.036221      -164.2539
  21   2.0000      -6.035847      -164.2437
  22   2.0000      -6.032360      -164.1489
  23   2.0000      -6.032082      -164.1413
  24   2.0000      -1.005522       -27.3616
  25   2.0000      -0.982481       -26.7347
  26   2.0000      -0.920406       -25.0455
  27   2.0000      -0.905069       -24.6282
  28   2.0000      -0.874943       -23.8084
  29   2.0000      -0.848870       -23.0989
  30   2.0000      -0.841787       -22.9062
  31   2.0000      -0.812690       -22.1144
  32   2.0000      -0.785312       -21.3694
  33   2.0000      -0.770750       -20.9732
  34   2.0000      -0.709169       -19.2975
  35   2.0000      -0.700537       -19.0626
  36   2.0000      -0.683662       -18.6034
  37   2.0000      -0.667760       -18.1707
  38   2.0000      -0.638645       -17.3784
  39   2.0000      -0.623834       -16.9754
  40   2.0000      -0.587679       -15.9916
  41   2.0000      -0.577125       -15.7044
  42   2.0000      -0.568670       -15.4743
  43   2.0000      -0.553676       -15.0663
  44   2.0000      -0.541396       -14.7321
  45   2.0000      -0.529230       -14.4011
  46   2.0000      -0.519513       -14.1367
  47   2.0000      -0.506565       -13.7843
  48   2.0000      -0.503866       -13.7109
  49   2.0000      -0.501131       -13.6365
  50   2.0000      -0.498235       -13.5577
  51   2.0000      -0.474739       -12.9183
  52   2.0000      -0.466903       -12.7051
  53   2.0000      -0.460372       -12.5274
  54   2.0000      -0.457484       -12.4488
  55   2.0000      -0.452216       -12.3054
  56   2.0000      -0.445804       -12.1309
  57   2.0000      -0.437586       -11.9073
  58   2.0000      -0.426554       -11.6071
  59   2.0000      -0.421147       -11.4600
  60   2.0000      -0.419911       -11.4264
  61   2.0000      -0.416449       -11.3322
  62   2.0000      -0.401667       -10.9299
  63   2.0000      -0.339989        -9.2516
  64   2.0000      -0.331858        -9.0303
  65   2.0000      -0.322370        -8.7721
  66   2.0000      -0.301232        -8.1969
  67   0.0000       0.040068         1.0903
  68   0.0000       0.054127         1.4729
  69   0.0000       0.107416         2.9229
  70   0.0000       0.117275         3.1912
  71   0.0000       0.124096         3.3768

MULLIKEN ATOMIC CHARGES
-----------------------
   0 S :    0.109120
   1 C :   -0.117860
   2 C :   -0.113108
   3 C :    0.072047
   4 C :   -0.165170
   5 H :   -0.007855
   6 C :    0.065477
   7 H :    0.012355
   8 H :    0.033953
   9 C :   -0.053661
  10 H :    0.005952
  11 H :    0.024941
  12 C :   -0.029884
  13 H :    0.021526
  14 H :    0.034658
  15 H :    0.034165
  16 S :    0.117021
  17 C :   -0.084581
  18 C :    0.023090
  19 C :   -0.049766
  20 C :   -0.149307
  21 H :   -0.021945
  22 C :    0.005517
  23 H :    0.022850
  24 H :    0.026911
  25 C :   -0.047369
  26 H :    0.041091
  27 H :    0.023266
  28 C :   -0.017993
  29 H :    0.029379
  30 H :    0.024192
  31 H :    0.030975
  32 H :    0.045923
  33 H :    0.054091
Sum of atomic charges:    0.0000000

LOEWDIN ATOMIC CHARGES
----------------------
   0 S :    0.414366
   1 C :   -0.187422
   2 C :   -0.058812
   3 C :   -0.058518
   4 C :   -0.212785
   5 H :    0.023466
   6 C :   -0.029880
   7 H :    0.030194
   8 H :    0.035803
   9 C :   -0.039188
  10 H :    0.013749
  11 H :    0.027754
  12 C :   -0.061710
  13 H :    0.022189
  14 H :    0.026723
  15 H :    0.029065
  16 S :    0.400608
  17 C :   -0.164270
  18 C :   -0.052466
  19 C :   -0.045959
  20 C :   -0.214173
  21 H :    0.014355
  22 C :   -0.045853
  23 H :    0.025471
  24 H :    0.032903
  25 C :   -0.037957
  26 H :    0.030342
  27 H :    0.022797
  28 C :   -0.065644
  29 H :    0.029134
  30 H :    0.022886
  31 H :    0.020899
  32 H :    0.023029
  33 H :    0.028906

  Mayer bond orders larger than 0.100000
B(  0-S ,  1-C ) :   1.1305 B(  0-S ,  4-C ) :   1.1734 B(  1-C ,  2-C ) :   1.6051
B(  1-C ,  4-C ) :   0.1027 B(  1-C , 32-H ) :   0.9642 B(  2-C ,  3-C ) :   1.2645
B(  2-C ,  6-C ) :   1.0364 B(  3-C ,  4-C ) :   1.5424 B(  3-C ,  5-H ) :   1.0006
B(  4-C , 20-C ) :   1.0149 B(  6-C ,  7-H ) :   0.9337 B(  6-C ,  8-H ) :   0.9347
B(  6-C ,  9-C ) :   1.0741 B(  9-C , 10-H ) :   0.9502 B(  9-C , 11-H ) :   0.9487
B(  9-C , 12-C ) :   1.0920 B( 12-C , 13-H ) :   0.9734 B( 12-C , 14-H ) :   0.9727
B( 12-C , 15-H ) :   0.9716 B( 16-S , 17-C ) :   1.1486 B( 16-S , 20-C ) :   1.1258
B( 17-C , 18-C ) :   1.6295 B( 17-C , 33-H ) :   0.9630 B( 18-C , 19-C ) :   1.2069
B( 18-C , 21-H ) :   1.0080 B( 19-C , 20-C ) :   1.6229 B( 19-C , 22-C ) :   1.0554
B( 22-C , 23-H ) :   0.9330 B( 22-C , 24-H ) :   0.9429 B( 22-C , 25-C ) :   1.0533
B( 25-C , 26-H ) :   0.9561 B( 25-C , 27-H ) :   0.9506 B( 25-C , 28-C ) :   1.1021
B( 28-C , 29-H ) :   0.9699 B( 28-C , 30-H ) :   0.9602 B( 28-C , 31-H ) :   0.9721

Dispersion correction           -0.014776021
FINAL SINGLE POINT ENERGY     -1339.866554988469

DIPOLE MOMENT
-------------
                                X             Y             Z
Electronic contribution:     -7.30763      -5.75027     -20.48160
Nuclear contribution   :      7.67263       5.62048      20.85928
                        -----------------------------------------
Total Dipole Moment    :      0.36500      -0.12979       0.37768
                        -----------------------------------------
Magnitude (a.u.)       :      0.54103
Magnitude (Debye)      :      1.37518

Rotational constants in cm-1:     0.022586     0.007329     0.006801
Rotational constants in MHz :   677.099443   219.714753   203.883598

                             ****ORCA TERMINATED NORMALLY****
TOTAL RUN TIME: 0 days 0 hours 0 minutes 34 seconds 263 msec
