                         Program Version 4.2.1 -  RELEASE  -
|  1> ! wB97X-D3 SP def2-SVP
|  2> %pal
|  3> nprocs 16
|  4> end
|  5>
|  6> * xyz 0 1
|  7> S 	 -106.261 	 43.1303 	 123.862
|  8> C 	 -106.068 	 44.4523 	 124.946
|  9> C 	 -105.186 	 45.4104 	 124.477
| 10> C 	 -105.009 	 45.144 	 123.045
| 11> C 	 -105.796 	 44.2043 	 122.494
| 12> H 	 -104.302 	 45.7149 	 122.452
| 13> C 	 -104.394 	 46.3938 	 125.386
| 14> H 	 -104.859 	 46.5864 	 126.371
| 15> H 	 -104.273 	 47.3651 	 124.922
| 16> C 	 -102.988 	 45.8713 	 125.744
| 17> H 	 -103.127 	 45.0066 	 126.462
| 18> H 	 -102.494 	 45.496 	 124.819
| 19> C 	 -102.162 	 46.9657 	 126.397
| 20> H 	 -102.732 	 47.5357 	 127.192
| 21> H 	 -101.14 	 46.7012 	 126.626
| 22> H 	 -102.1 	 47.6833 	 125.649
| 23> S 	 -105.936 	 42.2775 	 120.651
| 24> C 	 -105.88 	 42.6219 	 118.998
| 25> C 	 -105.956 	 44.0258 	 118.757
| 26> C 	 -105.899 	 44.794 	 119.966
| 27> C 	 -105.845 	 43.9538 	 121.081
| 28> H 	 -106.013 	 44.3477 	 117.771
| 29> C 	 -105.96 	 46.3301 	 120.023
| 30> H 	 -106.053 	 46.545 	 121.029
| 31> H 	 -106.87 	 46.689 	 119.5
| 32> C 	 -104.716 	 46.9901 	 119.386
| 33> H 	 -104.502 	 46.6292 	 118.34
| 34> H 	 -103.941 	 46.6461 	 120.04
| 35> C 	 -104.85 	 48.5321 	 119.336
| 36> H 	 -105.207 	 48.8634 	 120.333
| 37> H 	 -105.549 	 49.0051 	 118.619
| 38> H 	 -103.87 	 48.9392 	 119.241
| 39> H 	 -106.219 	 44.3547 	 126.029
| 40> H 	 -105.979 	 41.896 	 118.274
| 41> *
| 42>
| 43>                          ****END OF INPUT****

CARTESIAN COORDINATES (ANGSTROEM)
---------------------------------
  S    -106.261000   43.130300  123.862000
  C    -106.068000   44.452300  124.946000
  C    -105.186000   45.410400  124.477000
  C    -105.009000   45.144000  123.045000
  C    -105.796000   44.204300  122.494000
  H    -104.302000   45.714900  122.452000
  C    -104.394000   46.393800  125.386000
  H    -104.859000   46.586400  126.371000
  H    -104.273000   47.365100  124.922000
  C    -102.988000   45.871300  125.744000
  H    -103.127000   45.006600  126.462000
  H    -102.494000   45.496000  124.819000
  C    -102.162000   46.965700  126.397000
  H    -102.732000   47.535700  127.192000
  H    -101.140000   46.701200  126.626000
  H    -102.100000   47.683300  125.649000
  S    -105.936000   42.277500  120.651000
  C    -105.880000   42.621900  118.998000
  C    -105.956000   44.025800  118.757000
  C    -105.899000   44.794000  119.966000
  C    -105.845000   43.953800  121.081000
  H    -106.013000   44.347700  117.771000
  C    -105.960000   46.330100  120.023000
  H    -106.053000   46.545000  121.029000
  H    -106.870000   46.689000  119.500000
  C    -104.716000   46.990100  119.386000
  H    -104.502000   46.629200  118.340000
  H    -103.941000   46.646100  120.040000
  C    -104.850000   48.532100  119.336000
  H    -105.207000   48.863400  120.333000
  H    -105.549000   49.005100  118.619000
  H    -103.870000   48.939200  119.241000
  H    -106.219000   44.354700  126.029000
  H    -105.979000   41.896000  118.274000

 Total Charge           Charge          ....    0
 Multiplicity           Mult            ....    1
 Number of Electrons    NEL             ....  134
 Basis Dimension        Dim             ....  322

ORBITAL ENERGIES
----------------

  NO   OCC          E(Eh)            E(eV)
   0   2.0000     -88.966359     -2420.8977
   1   2.0000     -88.963548     -2420.8212
   2   2.0000     -10.328052      -281.0406
   3   2.0000     -10.325631      -280.9747
   4   2.0000     -10.312223      -280.6098
   5   2.0000     -10.312213      -280.6096
   6   2.0000     -10.307881      -280.4917
   7   2.0000     -10.307416      -280.4790
   8   2.0000     -10.301320      -280.3132
   9   2.0000     -10.294415      -280.1253
  10   2.0000     -10.294101      -280.1167
  11   2.0000     -10.293669      -280.1050
  12   2.0000     -10.291592      -280.0484
  13   2.0000     -10.288645      -279.9683
  14   2.0000     -10.280986      -279.7599
  15   2.0000     -10.278037      -279.6796
  16   2.0000      -8.082644      -219.9399
  17   2.0000      -8.078361      -219.8234
  18   2.0000      -6.040905      -164.3814
  19   2.0000      -6.037197      -164.2805
  20   2.0000      -6.036890      -164.2721
  21   2.0000      -6.033648      -164.1839
  22   2.0000      -6.033517      -164.1803
  23   2.0000      -6.028092      -164.0327
  24   2.0000      -1.012458       -27.5504
  25   2.0000      -0.987690       -26.8764
  26   2.0000      -0.913440       -24.8560
  27   2.0000      -0.910403       -24.7733
  28   2.0000      -0.875782       -23.8312
  29   2.0000      -0.853922       -23.2364
  30   2.0000      -0.842809       -22.9340
  31   2.0000      -0.814955       -22.1760
  32   2.0000      -0.784508       -21.3476
  33   2.0000      -0.772201       -21.0126
  34   2.0000      -0.705011       -19.1843
  35   2.0000      -0.699960       -19.0469
  36   2.0000      -0.693800       -18.8793
  37   2.0000      -0.668577       -18.1929
  38   2.0000      -0.637161       -17.3380
  39   2.0000      -0.624517       -16.9940
  40   2.0000      -0.597447       -16.2573
  41   2.0000      -0.570375       -15.5207
  42   2.0000      -0.569233       -15.4896
  43   2.0000      -0.561954       -15.2915
  44   2.0000      -0.530393       -14.4327
  45   2.0000      -0.525161       -14.2904
  46   2.0000      -0.517842       -14.0912
  47   2.0000      -0.510893       -13.9021
  48   2.0000      -0.510585       -13.8937
  49   2.0000      -0.500834       -13.6284
  50   2.0000      -0.493051       -13.4166
  51   2.0000      -0.482774       -13.1370
  52   2.0000      -0.466908       -12.7052
  53   2.0000      -0.465112       -12.6564
  54   2.0000      -0.457060       -12.4372
  55   2.0000      -0.451971       -12.2988
  56   2.0000      -0.449182       -12.2229
  57   2.0000      -0.435481       -11.8500
  58   2.0000      -0.434840       -11.8326
  59   2.0000      -0.431729       -11.7479
  60   2.0000      -0.423990       -11.5374
  61   2.0000      -0.419382       -11.4120
  62   2.0000      -0.415715       -11.3122
  63   2.0000      -0.359548        -9.7838
  64   2.0000      -0.332677        -9.0526
  65   2.0000      -0.319551        -8.6954
  66   2.0000      -0.282464        -7.6862
  67   0.0000       0.019169         0.5216
  68   0.0000       0.067929         1.8484
  69   0.0000       0.095856         2.6084
  70   0.0000       0.118404         3.2219
  71   0.0000       0.132819         3.6142

MULLIKEN ATOMIC CHARGES
-----------------------
   0 S :    0.095053
   1 C :   -0.099161
   2 C :   -0.079639
   3 C :   -0.014590
   4 C :   -0.093880
   5 H :    0.012245
   6 C :    0.038882
   7 H :    0.028877
   8 H :    0.020704
   9 C :   -0.107506
  10 H :    0.036757
  11 H :    0.038173
  12 C :   -0.004252
  13 H :    0.032287
  14 H :    0.042154
  15 H :    0.000411
  16 S :    0.113517
  17 C :   -0.063284
  18 C :   -0.026718
  19 C :   -0.046734
  20 C :   -0.173092
  21 H :   -0.005680
  22 C :    0.102290
  23 H :    0.003442
  24 H :    0.033378
  25 C :   -0.095053
  26 H :    0.042293
  27 H :    0.023485
  28 C :   -0.031440
  29 H :    0.017986
  30 H :    0.046092
  31 H :    0.029489
  32 H :    0.052706
  33 H :    0.030807
Sum of atomic charges:   -0.0000000

LOEWDIN ATOMIC CHARGES
----------------------
   0 S :    0.376477
   1 C :   -0.198363
   2 C :   -0.061312
   3 C :   -0.062402
   4 C :   -0.178948
   5 H :    0.025039
   6 C :   -0.031068
   7 H :    0.034342
   8 H :    0.023334
   9 C :   -0.042699
  10 H :    0.025747
  11 H :    0.026505
  12 C :   -0.067260
  13 H :    0.033414
  14 H :    0.028529
  15 H :    0.015251
  16 S :    0.442754
  17 C :   -0.190528
  18 C :   -0.058628
  19 C :   -0.049290
  20 C :   -0.199863
  21 H :    0.019037
  22 C :   -0.022808
  23 H :    0.015838
  24 H :    0.033984
  25 C :   -0.037155
  26 H :    0.028728
  27 H :    0.020382
  28 C :   -0.068770
  29 H :    0.025790
  30 H :    0.030521
  31 H :    0.022946
  32 H :    0.029261
  33 H :    0.011211

  Mayer bond orders larger than 0.100000
B(  0-S ,  1-C ) :   1.1336 B(  0-S ,  4-C ) :   1.0972 B(  1-C ,  2-C ) :   1.6419
B(  1-C , 32-H ) :   0.9592 B(  2-C ,  3-C ) :   1.2022 B(  2-C ,  6-C ) :   1.0306
B(  3-C ,  4-C ) :   1.5823 B(  3-C ,  5-H ) :   0.9984 B(  4-C , 20-C ) :   1.1095
B(  6-C ,  7-H ) :   0.9429 B(  6-C ,  8-H ) :   0.9454 B(  6-C ,  9-C ) :   1.0511
B(  9-C , 10-H ) :   0.9566 B(  9-C , 11-H ) :   0.9584 B(  9-C , 12-C ) :   1.0752
B( 12-C , 13-H ) :   0.9692 B( 12-C , 14-H ) :   0.9714 B( 12-C , 15-H ) :   0.9687
B( 16-S , 17-C ) :   1.1922 B( 16-S , 20-C ) :   1.1500 B( 17-C , 18-C ) :   1.5606
B( 17-C , 20-C ) :   0.1022 B( 17-C , 33-H ) :   0.9796 B( 18-C , 19-C ) :   1.2523
B( 18-C , 21-H ) :   1.0058 B( 19-C , 20-C ) :   1.5559 B( 19-C , 22-C ) :   1.0399
B( 22-C , 23-H ) :   0.9250 B( 22-C , 24-H ) :   0.9361 B( 22-C , 25-C ) :   1.0572
B( 25-C , 26-H ) :   0.9594 B( 25-C , 27-H ) :   0.9527 B( 25-C , 28-C ) :   1.0797
B( 28-C , 29-H ) :   0.9707 B( 28-C , 30-H ) :   0.9760 B( 28-C , 31-H ) :   0.9744

Dispersion correction           -0.013687874
FINAL SINGLE POINT ENERGY     -1339.850070101376

DIPOLE MOMENT
-------------
                                X             Y             Z
Electronic contribution:    -14.32360     -27.48743      -4.01060
Nuclear contribution   :     14.74410      28.06989       3.91175
                        -----------------------------------------
Total Dipole Moment    :      0.42050       0.58246      -0.09885
                        -----------------------------------------
Magnitude (a.u.)       :      0.72516
Magnitude (Debye)      :      1.84320

Rotational constants in cm-1:     0.016667     0.008901     0.006330
Rotational constants in MHz :   499.665384   266.841699   189.764649

                             ****ORCA TERMINATED NORMALLY****
TOTAL RUN TIME: 0 days 0 hours 0 minutes 31 seconds 25 msec
