                         Program Version 4.2.1 -  RELEASE  -
|  1> ! wB97X-D3 SP def2-SVP
|  2> %pal
|  3> nprocs 16
|  4> end
|  5>
|  6> * xyz 0 1
|  7> S 	 -64.0698 	 39.5413 	 122.712
|  8> C 	 -64.9494 	 39.9119 	 121.282
|  9> C 	 -66.3368 	 40.1604 	 121.586
| 10> C 	 -66.507 	 40.2069 	 123
| 11> C 	 -65.3278 	 40.0755 	 123.759
| 12> H 	 -67.4668 	 40.4956 	 123.475
| 13> C 	 -67.5396 	 40.4791 	 120.716
| 14> H 	 -67.2999 	 41.0386 	 119.855
| 15> H 	 -68.3106 	 40.9879 	 121.294
| 16> C 	 -68.1914 	 39.1588 	 120.19
| 17> H 	 -67.4953 	 38.6229 	 119.496
| 18> H 	 -68.4083 	 38.5067 	 120.961
| 19> C 	 -69.5764 	 39.4248 	 119.488
| 20> H 	 -69.7639 	 38.6338 	 118.651
| 21> H 	 -70.3959 	 39.4144 	 120.22
| 22> H 	 -69.6167 	 40.4432 	 119.091
| 23> S 	 -63.9322 	 39.2667 	 126.009
| 24> C 	 -64.3236 	 39.8463 	 127.566
| 25> C 	 -65.2732 	 40.8481 	 127.384
| 26> C 	 -65.6653 	 41.2072 	 126.047
| 27> C 	 -65.0672 	 40.3445 	 125.168
| 28> H 	 -65.6969 	 41.3862 	 128.209
| 29> C 	 -66.7867 	 42.2134 	 125.758
| 30> H 	 -66.7927 	 42.6276 	 124.727
| 31> H 	 -66.5566 	 43.0724 	 126.413
| 32> C 	 -68.2038 	 41.7163 	 125.95
| 33> H 	 -68.4048 	 41.43 	 126.969
| 34> H 	 -68.4573 	 40.8182 	 125.405
| 35> C 	 -69.1957 	 42.7386 	 125.633
| 36> H 	 -68.7969 	 43.7031 	 126.013
| 37> H 	 -70.0973 	 42.5569 	 126.166
| 38> H 	 -69.2976 	 42.7098 	 124.49
| 39> H 	 -64.4948 	 39.665 	 120.319
| 40> H 	 -63.8885 	 39.484 	 128.491
| 41> *
| 42>
| 43>                          ****END OF INPUT****

CARTESIAN COORDINATES (ANGSTROEM)
---------------------------------
  S    -64.069800   39.541300  122.712000
  C    -64.949400   39.911900  121.282000
  C    -66.336800   40.160400  121.586000
  C    -66.507000   40.206900  123.000000
  C    -65.327800   40.075500  123.759000
  H    -67.466800   40.495600  123.475000
  C    -67.539600   40.479100  120.716000
  H    -67.299900   41.038600  119.855000
  H    -68.310600   40.987900  121.294000
  C    -68.191400   39.158800  120.190000
  H    -67.495300   38.622900  119.496000
  H    -68.408300   38.506700  120.961000
  C    -69.576400   39.424800  119.488000
  H    -69.763900   38.633800  118.651000
  H    -70.395900   39.414400  120.220000
  H    -69.616700   40.443200  119.091000
  S    -63.932200   39.266700  126.009000
  C    -64.323600   39.846300  127.566000
  C    -65.273200   40.848100  127.384000
  C    -65.665300   41.207200  126.047000
  C    -65.067200   40.344500  125.168000
  H    -65.696900   41.386200  128.209000
  C    -66.786700   42.213400  125.758000
  H    -66.792700   42.627600  124.727000
  H    -66.556600   43.072400  126.413000
  C    -68.203800   41.716300  125.950000
  H    -68.404800   41.430000  126.969000
  H    -68.457300   40.818200  125.405000
  C    -69.195700   42.738600  125.633000
  H    -68.796900   43.703100  126.013000
  H    -70.097300   42.556900  126.166000
  H    -69.297600   42.709800  124.490000
  H    -64.494800   39.665000  120.319000
  H    -63.888500   39.484000  128.491000

 Total Charge           Charge          ....    0
 Multiplicity           Mult            ....    1
 Number of Electrons    NEL             ....  134
 Basis Dimension        Dim             ....  322

ORBITAL ENERGIES
----------------

  NO   OCC          E(Eh)            E(eV)
   0   2.0000     -88.966516     -2420.9020
   1   2.0000     -88.962401     -2420.7900
   2   2.0000     -10.329869      -281.0900
   3   2.0000     -10.328939      -281.0647
   4   2.0000     -10.319950      -280.8201
   5   2.0000     -10.319789      -280.8157
   6   2.0000     -10.310177      -280.5542
   7   2.0000     -10.304236      -280.3925
   8   2.0000     -10.299849      -280.2731
   9   2.0000     -10.298195      -280.2281
  10   2.0000     -10.295046      -280.1425
  11   2.0000     -10.293907      -280.1114
  12   2.0000     -10.288743      -279.9709
  13   2.0000     -10.286041      -279.8974
  14   2.0000     -10.280538      -279.7477
  15   2.0000     -10.278221      -279.6846
  16   2.0000      -8.082236      -219.9288
  17   2.0000      -8.077865      -219.8099
  18   2.0000      -6.040591      -164.3728
  19   2.0000      -6.036512      -164.2618
  20   2.0000      -6.036398      -164.2587
  21   2.0000      -6.033210      -164.1720
  22   2.0000      -6.032176      -164.1438
  23   2.0000      -6.028650      -164.0479
  24   2.0000      -1.009692       -27.4751
  25   2.0000      -0.986963       -26.8566
  26   2.0000      -0.924372       -25.1534
  27   2.0000      -0.910092       -24.7649
  28   2.0000      -0.869657       -23.6646
  29   2.0000      -0.857469       -23.3329
  30   2.0000      -0.845684       -23.0122
  31   2.0000      -0.806247       -21.9391
  32   2.0000      -0.782973       -21.3058
  33   2.0000      -0.771522       -20.9942
  34   2.0000      -0.701366       -19.0851
  35   2.0000      -0.698738       -19.0136
  36   2.0000      -0.693835       -18.8802
  37   2.0000      -0.666860       -18.1462
  38   2.0000      -0.641734       -17.4625
  39   2.0000      -0.624936       -17.0054
  40   2.0000      -0.607242       -16.5239
  41   2.0000      -0.576437       -15.6856
  42   2.0000      -0.563659       -15.3379
  43   2.0000      -0.557545       -15.1716
  44   2.0000      -0.538222       -14.6458
  45   2.0000      -0.521401       -14.1881
  46   2.0000      -0.519745       -14.1430
  47   2.0000      -0.511996       -13.9321
  48   2.0000      -0.506985       -13.7958
  49   2.0000      -0.500044       -13.6069
  50   2.0000      -0.497365       -13.5340
  51   2.0000      -0.478628       -13.0241
  52   2.0000      -0.469587       -12.7781
  53   2.0000      -0.468107       -12.7378
  54   2.0000      -0.458465       -12.4755
  55   2.0000      -0.447260       -12.1706
  56   2.0000      -0.444864       -12.1054
  57   2.0000      -0.438918       -11.9436
  58   2.0000      -0.437801       -11.9132
  59   2.0000      -0.427447       -11.6314
  60   2.0000      -0.422119       -11.4864
  61   2.0000      -0.414443       -11.2776
  62   2.0000      -0.411425       -11.1954
  63   2.0000      -0.354269        -9.6402
  64   2.0000      -0.331333        -9.0160
  65   2.0000      -0.328832        -8.9480
  66   2.0000      -0.283184        -7.7058
  67   0.0000       0.021688         0.5902
  68   0.0000       0.074228         2.0198
  69   0.0000       0.105158         2.8615
  70   0.0000       0.116364         3.1664
  71   0.0000       0.123010         3.3473

MULLIKEN ATOMIC CHARGES
-----------------------
   0 S :    0.116035
   1 C :   -0.126824
   2 C :   -0.084196
   3 C :    0.004496
   4 C :   -0.136574
   5 H :    0.001659
   6 C :    0.078552
   7 H :    0.025648
   8 H :    0.022020
   9 C :   -0.081010
  10 H :    0.037105
  11 H :    0.017590
  12 C :   -0.082203
  13 H :    0.056064
  14 H :    0.034145
  15 H :    0.029264
  16 S :    0.089282
  17 C :   -0.075640
  18 C :   -0.044483
  19 C :   -0.026615
  20 C :   -0.121173
  21 H :    0.005042
  22 C :    0.030655
  23 H :    0.032228
  24 H :    0.031860
  25 C :   -0.060532
  26 H :    0.006905
  27 H :    0.026397
  28 C :   -0.030025
  29 H :    0.025846
  30 H :    0.030113
  31 H :    0.040588
  32 H :    0.060171
  33 H :    0.067609
Sum of atomic charges:    0.0000000

LOEWDIN ATOMIC CHARGES
----------------------
   0 S :    0.438805
   1 C :   -0.214354
   2 C :   -0.056523
   3 C :   -0.070900
   4 C :   -0.202407
   5 H :    0.029905
   6 C :   -0.023306
   7 H :    0.026662
   8 H :    0.029448
   9 C :   -0.034625
  10 H :    0.026804
  11 H :    0.012367
  12 C :   -0.076529
  13 H :    0.039829
  14 H :    0.023881
  15 H :    0.020875
  16 S :    0.404122
  17 C :   -0.197972
  18 C :   -0.069907
  19 C :   -0.059466
  20 C :   -0.183745
  21 H :    0.021703
  22 C :   -0.031600
  23 H :    0.034908
  24 H :    0.035436
  25 C :   -0.050720
  26 H :    0.019633
  27 H :    0.020683
  28 C :   -0.060016
  29 H :    0.027267
  30 H :    0.023386
  31 H :    0.032379
  32 H :    0.027431
  33 H :    0.036543

  Mayer bond orders larger than 0.100000
B(  0-S ,  1-C ) :   1.1758 B(  0-S ,  4-C ) :   1.1804 B(  1-C ,  2-C ) :   1.5282
B(  1-C ,  4-C ) :   0.1156 B(  1-C , 32-H ) :   0.9719 B(  2-C ,  3-C ) :   1.2993
B(  2-C ,  6-C ) :   1.0340 B(  3-C ,  4-C ) :   1.5109 B(  3-C ,  5-H ) :   0.9849
B(  4-C , 20-C ) :   1.0477 B(  6-C ,  7-H ) :   0.9383 B(  6-C ,  8-H ) :   0.9464
B(  6-C ,  9-C ) :   1.0589 B(  9-C , 10-H ) :   0.9638 B(  9-C , 11-H ) :   0.9618
B(  9-C , 12-C ) :   1.0613 B( 12-C , 13-H ) :   0.9764 B( 12-C , 14-H ) :   0.9781
B( 12-C , 15-H ) :   0.9765 B( 16-S , 17-C ) :   1.1549 B( 16-S , 20-C ) :   1.1426
B( 17-C , 18-C ) :   1.5765 B( 17-C , 33-H ) :   0.9758 B( 18-C , 19-C ) :   1.2500
B( 18-C , 21-H ) :   0.9886 B( 19-C , 20-C ) :   1.5960 B( 19-C , 22-C ) :   1.0495
B( 22-C , 23-H ) :   0.9385 B( 22-C , 24-H ) :   0.9230 B( 22-C , 25-C ) :   1.0694
B( 25-C , 26-H ) :   0.9428 B( 25-C , 27-H ) :   0.9485 B( 25-C , 28-C ) :   1.0918
B( 28-C , 29-H ) :   0.9690 B( 28-C , 30-H ) :   0.9721 B( 28-C , 31-H ) :   0.9726

Dispersion correction           -0.013924111
FINAL SINGLE POINT ENERGY     -1339.868223808267

DIPOLE MOMENT
-------------
                                X             Y             Z
Electronic contribution:     29.76627      -9.22789       9.87651
Nuclear contribution   :    -30.44421       9.45293      -9.81008
                        -----------------------------------------
Total Dipole Moment    :     -0.67794       0.22504       0.06643
                        -----------------------------------------
Magnitude (a.u.)       :      0.71739
Magnitude (Debye)      :      1.82347

Rotational constants in cm-1:     0.017936     0.008917     0.006368
Rotational constants in MHz :   537.703919   267.310059   190.915344

                             ****ORCA TERMINATED NORMALLY****
TOTAL RUN TIME: 0 days 0 hours 0 minutes 32 seconds 21 msec
