                         Program Version 4.2.1 -  RELEASE  -
|  1> ! wB97X-D3 SP def2-SVP
|  2> %pal
|  3> nprocs 16
|  4> end
|  5>
|  6> * xyz 0 1
|  7> S 	 -118.583 	 47.0598 	 131.448
|  8> C 	 -118.568 	 47.09 	 133.202
|  9> C 	 -118.6 	 45.8112 	 133.716
| 10> C 	 -118.33 	 44.8257 	 132.724
| 11> C 	 -118.217 	 45.35 	 131.419
| 12> H 	 -118.25 	 43.7518 	 132.79
| 13> C 	 -118.821 	 45.4068 	 135.143
| 14> H 	 -118.933 	 44.3229 	 135.266
| 15> H 	 -119.856 	 45.6811 	 135.415
| 16> C 	 -117.758 	 45.7927 	 136.165
| 17> H 	 -117.83 	 45.2395 	 137.081
| 18> H 	 -116.812 	 45.5494 	 135.736
| 19> C 	 -117.818 	 47.2661 	 136.494
| 20> H 	 -117.083 	 47.3529 	 137.3
| 21> H 	 -117.474 	 47.8458 	 135.565
| 22> H 	 -118.785 	 47.6072 	 137.002
| 23> S 	 -119.613 	 44.8646 	 129.051
| 24> C 	 -119.224 	 43.4329 	 128.181
| 25> C 	 -117.994 	 42.9394 	 128.52
| 26> C 	 -117.491 	 43.6119 	 129.702
| 27> C 	 -118.32 	 44.6152 	 130.156
| 28> H 	 -117.707 	 42.1454 	 127.951
| 29> C 	 -116.105 	 43.1337 	 130.267
| 30> H 	 -115.994 	 42.1944 	 129.831
| 31> H 	 -116.132 	 43.0552 	 131.335
| 32> C 	 -114.936 	 44.0013 	 129.9
| 33> H 	 -114.661 	 44.033 	 128.821
| 34> H 	 -114.109 	 43.5061 	 130.415
| 35> C 	 -115.018 	 45.4681 	 130.477
| 36> H 	 -115.836 	 45.9958 	 129.982
| 37> H 	 -114.057 	 45.9301 	 130.239
| 38> H 	 -115.107 	 45.5902 	 131.59
| 39> H 	 -118.789 	 47.9773 	 133.776
| 40> H 	 -119.995 	 43.0476 	 127.476
| 41> *
| 42>
| 43>                          ****END OF INPUT****

CARTESIAN COORDINATES (ANGSTROEM)
---------------------------------
  S    -118.583000   47.059800  131.448000
  C    -118.568000   47.090000  133.202000
  C    -118.600000   45.811200  133.716000
  C    -118.330000   44.825700  132.724000
  C    -118.217000   45.350000  131.419000
  H    -118.250000   43.751800  132.790000
  C    -118.821000   45.406800  135.143000
  H    -118.933000   44.322900  135.266000
  H    -119.856000   45.681100  135.415000
  C    -117.758000   45.792700  136.165000
  H    -117.830000   45.239500  137.081000
  H    -116.812000   45.549400  135.736000
  C    -117.818000   47.266100  136.494000
  H    -117.083000   47.352900  137.300000
  H    -117.474000   47.845800  135.565000
  H    -118.785000   47.607200  137.002000
  S    -119.613000   44.864600  129.051000
  C    -119.224000   43.432900  128.181000
  C    -117.994000   42.939400  128.520000
  C    -117.491000   43.611900  129.702000
  C    -118.320000   44.615200  130.156000
  H    -117.707000   42.145400  127.951000
  C    -116.105000   43.133700  130.267000
  H    -115.994000   42.194400  129.831000
  H    -116.132000   43.055200  131.335000
  C    -114.936000   44.001300  129.900000
  H    -114.661000   44.033000  128.821000
  H    -114.109000   43.506100  130.415000
  C    -115.018000   45.468100  130.477000
  H    -115.836000   45.995800  129.982000
  H    -114.057000   45.930100  130.239000
  H    -115.107000   45.590200  131.590000
  H    -118.789000   47.977300  133.776000
  H    -119.995000   43.047600  127.476000

 Total Charge           Charge          ....    0
 Multiplicity           Mult            ....    1
 Number of Electrons    NEL             ....  134
 Basis Dimension        Dim             ....  322

ORBITAL ENERGIES
----------------

  NO   OCC          E(Eh)            E(eV)
   0   2.0000     -88.965894     -2420.8850
   1   2.0000     -88.961267     -2420.7592
   2   2.0000     -10.330709      -281.1129
   3   2.0000     -10.322867      -280.8995
   4   2.0000     -10.315460      -280.6979
   5   2.0000     -10.313753      -280.6515
   6   2.0000     -10.303975      -280.3854
   7   2.0000     -10.303069      -280.3608
   8   2.0000     -10.295501      -280.1548
   9   2.0000     -10.288895      -279.9751
  10   2.0000     -10.288244      -279.9573
  11   2.0000     -10.285576      -279.8848
  12   2.0000     -10.285016      -279.8695
  13   2.0000     -10.284292      -279.8498
  14   2.0000     -10.280965      -279.7593
  15   2.0000     -10.273059      -279.5441
  16   2.0000      -8.080493      -219.8814
  17   2.0000      -8.077636      -219.8036
  18   2.0000      -6.038946      -164.3281
  19   2.0000      -6.036018      -164.2484
  20   2.0000      -6.035073      -164.2227
  21   2.0000      -6.031971      -164.1383
  22   2.0000      -6.031287      -164.1197
  23   2.0000      -6.028372      -164.0403
  24   2.0000      -1.009929       -27.4816
  25   2.0000      -0.987030       -26.8585
  26   2.0000      -0.916158       -24.9299
  27   2.0000      -0.905210       -24.6320
  28   2.0000      -0.870620       -23.6908
  29   2.0000      -0.848933       -23.1006
  30   2.0000      -0.841151       -22.8889
  31   2.0000      -0.811283       -22.0761
  32   2.0000      -0.783732       -21.3264
  33   2.0000      -0.775766       -21.1097
  34   2.0000      -0.703367       -19.1396
  35   2.0000      -0.694571       -18.9002
  36   2.0000      -0.685920       -18.6648
  37   2.0000      -0.664456       -18.0808
  38   2.0000      -0.643236       -17.5033
  39   2.0000      -0.614787       -16.7292
  40   2.0000      -0.595459       -16.2033
  41   2.0000      -0.582486       -15.8503
  42   2.0000      -0.556527       -15.1439
  43   2.0000      -0.545425       -14.8418
  44   2.0000      -0.538118       -14.6429
  45   2.0000      -0.535000       -14.5581
  46   2.0000      -0.516829       -14.0636
  47   2.0000      -0.506184       -13.7740
  48   2.0000      -0.503719       -13.7069
  49   2.0000      -0.496921       -13.5219
  50   2.0000      -0.487979       -13.2786
  51   2.0000      -0.486420       -13.2361
  52   2.0000      -0.472815       -12.8659
  53   2.0000      -0.465681       -12.6718
  54   2.0000      -0.458724       -12.4825
  55   2.0000      -0.445103       -12.1119
  56   2.0000      -0.436970       -11.8906
  57   2.0000      -0.436229       -11.8704
  58   2.0000      -0.428288       -11.6543
  59   2.0000      -0.423972       -11.5369
  60   2.0000      -0.420596       -11.4450
  61   2.0000      -0.405293       -11.0286
  62   2.0000      -0.401698       -10.9308
  63   2.0000      -0.349440        -9.5087
  64   2.0000      -0.331411        -9.0181
  65   2.0000      -0.328150        -8.9294
  66   2.0000      -0.289352        -7.8737
  67   0.0000       0.031081         0.8458
  68   0.0000       0.062830         1.7097
  69   0.0000       0.107117         2.9148
  70   0.0000       0.122210         3.3255
  71   0.0000       0.137164         3.7324

MULLIKEN ATOMIC CHARGES
-----------------------
   0 S :    0.096344
   1 C :   -0.117855
   2 C :   -0.081000
   3 C :    0.031643
   4 C :   -0.163634
   5 H :    0.014322
   6 C :    0.058458
   7 H :    0.012124
   8 H :    0.028796
   9 C :   -0.034163
  10 H :    0.022260
  11 H :    0.021769
  12 C :   -0.098534
  13 H :    0.028176
  14 H :    0.056835
  15 H :    0.045030
  16 S :    0.109332
  17 C :   -0.134983
  18 C :    0.014899
  19 C :   -0.086316
  20 C :   -0.140324
  21 H :   -0.014127
  22 C :    0.161698
  23 H :   -0.001698
  24 H :    0.013056
  25 C :   -0.084229
  26 H :    0.036176
  27 H :    0.024945
  28 C :   -0.070468
  29 H :    0.045903
  30 H :    0.029358
  31 H :    0.042726
  32 H :    0.057168
  33 H :    0.076312
Sum of atomic charges:    0.0000000

LOEWDIN ATOMIC CHARGES
----------------------
   0 S :    0.406376
   1 C :   -0.199505
   2 C :   -0.060756
   3 C :   -0.058471
   4 C :   -0.185090
   5 H :    0.030697
   6 C :   -0.039337
   7 H :    0.031060
   8 H :    0.033031
   9 C :   -0.036799
  10 H :    0.021996
  11 H :    0.024228
  12 C :   -0.079651
  13 H :    0.024590
  14 H :    0.035885
  15 H :    0.032283
  16 S :    0.419342
  17 C :   -0.189194
  18 C :   -0.065924
  19 C :   -0.052602
  20 C :   -0.220131
  21 H :    0.018513
  22 C :   -0.020637
  23 H :    0.021204
  24 H :    0.026671
  25 C :   -0.039261
  26 H :    0.027938
  27 H :    0.024214
  28 C :   -0.071059
  29 H :    0.022922
  30 H :    0.024253
  31 H :    0.030820
  32 H :    0.026470
  33 H :    0.035927

  Mayer bond orders larger than 0.100000
B(  0-S ,  1-C ) :   1.1381 B(  0-S ,  4-C ) :   1.1567 B(  1-C ,  2-C ) :   1.5973
B(  1-C ,  4-C ) :   0.1000 B(  1-C , 32-H ) :   0.9626 B(  2-C ,  3-C ) :   1.2560
B(  2-C ,  6-C ) :   1.0210 B(  3-C ,  4-C ) :   1.5613 B(  3-C ,  5-H ) :   0.9927
B(  4-C , 20-C ) :   1.0376 B(  6-C ,  7-H ) :   0.9404 B(  6-C ,  8-H ) :   0.9358
B(  6-C ,  9-C ) :   1.0693 B(  9-C , 10-H ) :   0.9546 B(  9-C , 11-H ) :   0.9492
B(  9-C , 12-C ) :   1.0919 B( 12-C , 13-H ) :   0.9727 B( 12-C , 14-H ) :   0.9642
B( 12-C , 15-H ) :   0.9730 B( 16-S , 17-C ) :   1.1720 B( 16-S , 20-C ) :   1.1366
B( 17-C , 18-C ) :   1.6039 B( 17-C , 33-H ) :   0.9630 B( 18-C , 19-C ) :   1.2129
B( 18-C , 21-H ) :   1.0152 B( 19-C , 20-C ) :   1.6103 B( 19-C , 22-C ) :   1.0247
B( 22-C , 23-H ) :   0.9241 B( 22-C , 24-H ) :   0.9303 B( 22-C , 25-C ) :   1.0908
B( 25-C , 26-H ) :   0.9542 B( 25-C , 27-H ) :   0.9522 B( 25-C , 28-C ) :   1.0769
B( 28-C , 29-H ) :   0.9718 B( 28-C , 30-H ) :   0.9735 B( 28-C , 31-H ) :   0.9735

Dispersion correction           -0.015386379
FINAL SINGLE POINT ENERGY     -1339.863626877771

DIPOLE MOMENT
-------------
                                X             Y             Z
Electronic contribution:    -15.24088       1.92424     -18.89840
Nuclear contribution   :     15.36100      -2.47024      19.27746
                        -----------------------------------------
Total Dipole Moment    :      0.12012      -0.54600       0.37906
                        -----------------------------------------
Magnitude (a.u.)       :      0.67545
Magnitude (Debye)      :      1.71686

Rotational constants in cm-1:     0.023177     0.008215     0.007231
Rotational constants in MHz :   694.837424   246.290266   216.770622

                             ****ORCA TERMINATED NORMALLY****
TOTAL RUN TIME: 0 days 0 hours 0 minutes 35 seconds 307 msec
