                         Program Version 4.2.1 -  RELEASE  -
|  1> ! wB97X-D3 SP def2-SVP
|  2> %pal
|  3> nprocs 16
|  4> end
|  5>
|  6> * xyz 0 1
|  7> S 	 -73.5215 	 50.006 	 138.267
|  8> C 	 -71.8185 	 49.6667 	 138.556
|  9> C 	 -71.1355 	 49.2363 	 137.423
| 10> C 	 -72.0396 	 49.1561 	 136.303
| 11> C 	 -73.3588 	 49.5452 	 136.556
| 12> H 	 -71.7456 	 48.8623 	 135.295
| 13> C 	 -69.6884 	 48.7647 	 137.35
| 14> H 	 -68.9974 	 49.407 	 137.88
| 15> H 	 -69.3525 	 48.811 	 136.32
| 16> C 	 -69.4117 	 47.356 	 137.916
| 17> H 	 -70.1691 	 46.5811 	 137.665
| 18> H 	 -68.5096 	 46.9273 	 137.505
| 19> C 	 -69.4324 	 47.269 	 139.502
| 20> H 	 -70.3392 	 47.5122 	 139.925
| 21> H 	 -69.1617 	 46.2558 	 139.94
| 22> H 	 -68.6165 	 47.8947 	 139.817
| 23> S 	 -75.9873 	 49.1024 	 135.939
| 24> C 	 -76.6846 	 49.6064 	 134.441
| 25> C 	 -75.6609 	 50.0911 	 133.695
| 26> C 	 -74.4154 	 50.2108 	 134.324
| 27> C 	 -74.4247 	 49.7343 	 135.557
| 28> H 	 -75.8342 	 50.4819 	 132.691
| 29> C 	 -73.3074 	 50.8967 	 133.562
| 30> H 	 -72.5566 	 51.1709 	 134.295
| 31> H 	 -73.6651 	 51.9011 	 133.165
| 32> C 	 -72.6927 	 50.0947 	 132.421
| 33> H 	 -73.4833 	 49.7904 	 131.681
| 34> H 	 -72.403 	 49.13 	 132.868
| 35> C 	 -71.5256 	 50.9424 	 131.722
| 36> H 	 -71.8275 	 51.7831 	 131.141
| 37> H 	 -71.0288 	 50.1539 	 131.166
| 38> H 	 -70.9414 	 51.3642 	 132.495
| 39> H 	 -71.3202 	 49.5075 	 139.467
| 40> H 	 -77.7446 	 49.4 	 134.122
| 41> *
| 42>
| 43>                          ****END OF INPUT****

CARTESIAN COORDINATES (ANGSTROEM)
---------------------------------
  S    -73.521500   50.006000  138.267000
  C    -71.818500   49.666700  138.556000
  C    -71.135500   49.236300  137.423000
  C    -72.039600   49.156100  136.303000
  C    -73.358800   49.545200  136.556000
  H    -71.745600   48.862300  135.295000
  C    -69.688400   48.764700  137.350000
  H    -68.997400   49.407000  137.880000
  H    -69.352500   48.811000  136.320000
  C    -69.411700   47.356000  137.916000
  H    -70.169100   46.581100  137.665000
  H    -68.509600   46.927300  137.505000
  C    -69.432400   47.269000  139.502000
  H    -70.339200   47.512200  139.925000
  H    -69.161700   46.255800  139.940000
  H    -68.616500   47.894700  139.817000
  S    -75.987300   49.102400  135.939000
  C    -76.684600   49.606400  134.441000
  C    -75.660900   50.091100  133.695000
  C    -74.415400   50.210800  134.324000
  C    -74.424700   49.734300  135.557000
  H    -75.834200   50.481900  132.691000
  C    -73.307400   50.896700  133.562000
  H    -72.556600   51.170900  134.295000
  H    -73.665100   51.901100  133.165000
  C    -72.692700   50.094700  132.421000
  H    -73.483300   49.790400  131.681000
  H    -72.403000   49.130000  132.868000
  C    -71.525600   50.942400  131.722000
  H    -71.827500   51.783100  131.141000
  H    -71.028800   50.153900  131.166000
  H    -70.941400   51.364200  132.495000
  H    -71.320200   49.507500  139.467000
  H    -77.744600   49.400000  134.122000

 Total Charge           Charge          ....    0
 Multiplicity           Mult            ....    1
 Number of Electrons    NEL             ....  134
 Basis Dimension        Dim             ....  322

ORBITAL ENERGIES
----------------

  NO   OCC          E(Eh)            E(eV)
   0   2.0000     -88.970700     -2421.0158
   1   2.0000     -88.958843     -2420.6932
   2   2.0000     -10.335093      -281.2322
   3   2.0000     -10.321673      -280.8670
   4   2.0000     -10.318908      -280.7918
   5   2.0000     -10.312866      -280.6273
   6   2.0000     -10.305446      -280.4255
   7   2.0000     -10.299253      -280.2569
   8   2.0000     -10.298157      -280.2271
   9   2.0000     -10.295936      -280.1667
  10   2.0000     -10.292652      -280.0773
  11   2.0000     -10.291194      -280.0376
  12   2.0000     -10.291045      -280.0336
  13   2.0000     -10.286420      -279.9077
  14   2.0000     -10.280048      -279.7343
  15   2.0000     -10.279360      -279.7156
  16   2.0000      -8.084365      -219.9867
  17   2.0000      -8.075039      -219.7330
  18   2.0000      -6.043034      -164.4393
  19   2.0000      -6.039010      -164.3298
  20   2.0000      -6.035022      -164.2213
  21   2.0000      -6.033584      -164.1822
  22   2.0000      -6.029221      -164.0634
  23   2.0000      -6.025781      -163.9698
  24   2.0000      -1.016719       -27.6663
  25   2.0000      -0.984872       -26.7997
  26   2.0000      -0.908555       -24.7230
  27   2.0000      -0.908347       -24.7174
  28   2.0000      -0.869164       -23.6512
  29   2.0000      -0.851076       -23.1590
  30   2.0000      -0.843585       -22.9551
  31   2.0000      -0.813122       -22.1262
  32   2.0000      -0.785992       -21.3879
  33   2.0000      -0.779362       -21.2075
  34   2.0000      -0.707510       -19.2523
  35   2.0000      -0.702150       -19.1065
  36   2.0000      -0.699114       -19.0238
  37   2.0000      -0.667065       -18.1518
  38   2.0000      -0.639161       -17.3925
  39   2.0000      -0.618696       -16.8356
  40   2.0000      -0.600707       -16.3461
  41   2.0000      -0.574237       -15.6258
  42   2.0000      -0.556284       -15.1372
  43   2.0000      -0.543810       -14.7978
  44   2.0000      -0.542540       -14.7633
  45   2.0000      -0.534590       -14.5469
  46   2.0000      -0.518135       -14.0992
  47   2.0000      -0.512874       -13.9560
  48   2.0000      -0.504214       -13.7203
  49   2.0000      -0.499889       -13.6027
  50   2.0000      -0.498160       -13.5556
  51   2.0000      -0.479277       -13.0418
  52   2.0000      -0.474964       -12.9244
  53   2.0000      -0.463968       -12.6252
  54   2.0000      -0.457066       -12.4374
  55   2.0000      -0.448810       -12.2127
  56   2.0000      -0.446801       -12.1581
  57   2.0000      -0.440776       -11.9941
  58   2.0000      -0.438550       -11.9335
  59   2.0000      -0.426541       -11.6068
  60   2.0000      -0.419022       -11.4022
  61   2.0000      -0.411218       -11.1898
  62   2.0000      -0.406900       -11.0723
  63   2.0000      -0.350800        -9.5458
  64   2.0000      -0.333553        -9.0764
  65   2.0000      -0.329535        -8.9671
  66   2.0000      -0.298069        -8.1109
  67   0.0000       0.029132         0.7927
  68   0.0000       0.076382         2.0785
  69   0.0000       0.113107         3.0778
  70   0.0000       0.121961         3.3187
  71   0.0000       0.129002         3.5103

MULLIKEN ATOMIC CHARGES
-----------------------
   0 S :    0.119003
   1 C :   -0.082063
   2 C :   -0.110909
   3 C :    0.022726
   4 C :   -0.139312
   5 H :    0.003835
   6 C :    0.095150
   7 H :    0.024910
   8 H :    0.022006
   9 C :   -0.082889
  10 H :    0.034540
  11 H :    0.028837
  12 C :   -0.066162
  13 H :    0.029639
  14 H :    0.038486
  15 H :    0.023050
  16 S :    0.087613
  17 C :   -0.100266
  18 C :   -0.038582
  19 C :   -0.028025
  20 C :   -0.143777
  21 H :    0.015333
  22 C :    0.032173
  23 H :    0.021267
  24 H :    0.033436
  25 C :   -0.110947
  26 H :    0.034526
  27 H :    0.029370
  28 C :   -0.004308
  29 H :    0.036092
  30 H :    0.044404
  31 H :    0.020536
  32 H :    0.027550
  33 H :    0.082758
Sum of atomic charges:   -0.0000000

LOEWDIN ATOMIC CHARGES
----------------------
   0 S :    0.397531
   1 C :   -0.189242
   2 C :   -0.058819
   3 C :   -0.059138
   4 C :   -0.185416
   5 H :    0.028345
   6 C :   -0.029646
   7 H :    0.031364
   8 H :    0.032777
   9 C :   -0.039151
  10 H :    0.027817
  11 H :    0.022128
  12 C :   -0.064140
  13 H :    0.009963
  14 H :    0.035806
  15 H :    0.019020
  16 S :    0.412862
  17 C :   -0.194596
  18 C :   -0.074205
  19 C :   -0.070223
  20 C :   -0.200116
  21 H :    0.029425
  22 C :   -0.037468
  23 H :    0.025444
  24 H :    0.034969
  25 C :   -0.040335
  26 H :    0.025918
  27 H :    0.021717
  28 C :   -0.054468
  29 H :    0.024809
  30 H :    0.031424
  31 H :    0.020526
  32 H :    0.018160
  33 H :    0.046957

  Mayer bond orders larger than 0.100000
B(  0-S ,  1-C ) :   1.1366 B(  0-S ,  4-C ) :   1.1429 B(  1-C ,  2-C ) :   1.6189
B(  1-C , 32-H ) :   0.9622 B(  2-C ,  3-C ) :   1.2508 B(  2-C ,  6-C ) :   1.0282
B(  3-C ,  4-C ) :   1.5739 B(  3-C ,  5-H ) :   0.9918 B(  4-C , 20-C ) :   1.0075
B(  6-C ,  7-H ) :   0.9416 B(  6-C ,  8-H ) :   0.9376 B(  6-C ,  9-C ) :   1.0570
B(  9-C , 10-H ) :   0.9610 B(  9-C , 11-H ) :   0.9602 B(  9-C , 12-C ) :   1.0654
B( 12-C , 13-H ) :   0.9765 B( 12-C , 14-H ) :   0.9735 B( 12-C , 15-H ) :   0.9794
B( 16-S , 17-C ) :   1.1516 B( 16-S , 20-C ) :   1.1408 B( 17-C , 18-C ) :   1.5940
B( 17-C , 33-H ) :   0.9650 B( 18-C , 19-C ) :   1.2468 B( 18-C , 21-H ) :   0.9873
B( 19-C , 20-C ) :   1.6364 B( 19-C , 22-C ) :   1.0380 B( 22-C , 23-H ) :   0.9294
B( 22-C , 24-H ) :   0.9378 B( 22-C , 25-C ) :   1.0604 B( 25-C , 26-H ) :   0.9548
B( 25-C , 27-H ) :   0.9543 B( 25-C , 28-C ) :   1.0575 B( 28-C , 29-H ) :   0.9770
B( 28-C , 30-H ) :   0.9774 B( 28-C , 31-H ) :   0.9759

Dispersion correction           -0.014234521
FINAL SINGLE POINT ENERGY     -1339.872434084913

DIPOLE MOMENT
-------------
                                X             Y             Z
Electronic contribution:    -24.85460       3.34372       9.73522
Nuclear contribution   :     25.38809      -3.42876     -10.23918
                        -----------------------------------------
Total Dipole Moment    :      0.53350      -0.08504      -0.50396
                        -----------------------------------------
Magnitude (a.u.)       :      0.73880
Magnitude (Debye)      :      1.87788

Rotational constants in cm-1:     0.018625     0.008471     0.006376
Rotational constants in MHz :   558.356211   253.947192   191.135031

                             ****ORCA TERMINATED NORMALLY****
TOTAL RUN TIME: 0 days 0 hours 0 minutes 34 seconds 507 msec
