                         Program Version 4.2.1 -  RELEASE  -
|  1> ! wB97X-D3 SP def2-SVP
|  2> %pal
|  3> nprocs 16
|  4> end
|  5>
|  6> * xyz 0 1
|  7> S 	 47.2166 	 1.25029 	 85.3229
|  8> C 	 48.1207 	 1.21743 	 83.8966
|  9> C 	 49.3943 	 1.83403 	 83.9482
| 10> C 	 49.4993 	 2.57792 	 85.1243
| 11> C 	 48.4599 	 2.35843 	 85.959
| 12> H 	 50.3494 	 3.24249 	 85.3391
| 13> C 	 50.5092 	 1.79394 	 82.8945
| 14> H 	 51.3549 	 2.0509 	 83.4139
| 15> H 	 50.4337 	 2.68733 	 82.2244
| 16> C 	 50.8014 	 0.437467 	 82.235
| 17> H 	 50.8059 	 -0.343259 	 83.0351
| 18> H 	 49.9004 	 0.169536 	 81.6157
| 19> C 	 52.1787 	 0.410197 	 81.5244
| 20> H 	 52.9485 	 0.590842 	 82.2292
| 21> H 	 52.2303 	 -0.568711 	 81.0729
| 22> H 	 52.2643 	 1.20659 	 80.836
| 23> S 	 48.5555 	 4.60983 	 87.6104
| 24> C 	 48.609 	 4.37649 	 89.3189
| 25> C 	 48.2953 	 3.09246 	 89.6301
| 26> C 	 48.2117 	 2.1634 	 88.551
| 27> C 	 48.3513 	 2.87565 	 87.3429
| 28> H 	 48.2757 	 2.89059 	 90.6929
| 29> C 	 48.1583 	 0.642855 	 88.6858
| 30> H 	 47.423 	 0.288994 	 88.0241
| 31> H 	 47.8657 	 0.355326 	 89.7281
| 32> C 	 49.5071 	 -0.0547507 	 88.4491
| 33> H 	 50.3665 	 0.322003 	 89.0992
| 34> H 	 49.8701 	 0.273054 	 87.4162
| 35> C 	 49.4524 	 -1.57599 	 88.3288
| 36> H 	 49.2853 	 -2.05988 	 89.3428
| 37> H 	 50.2516 	 -1.94725 	 87.633
| 38> H 	 48.557 	 -1.71968 	 87.7015
| 39> H 	 47.8973 	 0.555779 	 83.0805
| 40> H 	 48.7668 	 5.12264 	 90.1517
| 41> *
| 42>
| 43>                          ****END OF INPUT****

CARTESIAN COORDINATES (ANGSTROEM)
---------------------------------
  S     47.216600    1.250290   85.322900
  C     48.120700    1.217430   83.896600
  C     49.394300    1.834030   83.948200
  C     49.499300    2.577920   85.124300
  C     48.459900    2.358430   85.959000
  H     50.349400    3.242490   85.339100
  C     50.509200    1.793940   82.894500
  H     51.354900    2.050900   83.413900
  H     50.433700    2.687330   82.224400
  C     50.801400    0.437467   82.235000
  H     50.805900   -0.343259   83.035100
  H     49.900400    0.169536   81.615700
  C     52.178700    0.410197   81.524400
  H     52.948500    0.590842   82.229200
  H     52.230300   -0.568711   81.072900
  H     52.264300    1.206590   80.836000
  S     48.555500    4.609830   87.610400
  C     48.609000    4.376490   89.318900
  C     48.295300    3.092460   89.630100
  C     48.211700    2.163400   88.551000
  C     48.351300    2.875650   87.342900
  H     48.275700    2.890590   90.692900
  C     48.158300    0.642855   88.685800
  H     47.423000    0.288994   88.024100
  H     47.865700    0.355326   89.728100
  C     49.507100   -0.054751   88.449100
  H     50.366500    0.322003   89.099200
  H     49.870100    0.273054   87.416200
  C     49.452400   -1.575990   88.328800
  H     49.285300   -2.059880   89.342800
  H     50.251600   -1.947250   87.633000
  H     48.557000   -1.719680   87.701500
  H     47.897300    0.555779   83.080500
  H     48.766800    5.122640   90.151700

 Total Charge           Charge          ....    0
 Multiplicity           Mult            ....    1
 Number of Electrons    NEL             ....  134
 Basis Dimension        Dim             ....  322

ORBITAL ENERGIES
----------------

  NO   OCC          E(Eh)            E(eV)
   0   2.0000     -88.973293     -2421.0864
   1   2.0000     -88.964785     -2420.8549
   2   2.0000     -10.327470      -281.0248
   3   2.0000     -10.326260      -280.9918
   4   2.0000     -10.312181      -280.6087
   5   2.0000     -10.309849      -280.5452
   6   2.0000     -10.303412      -280.3701
   7   2.0000     -10.300345      -280.2866
   8   2.0000     -10.296350      -280.1779
   9   2.0000     -10.293017      -280.0872
  10   2.0000     -10.291899      -280.0568
  11   2.0000     -10.290370      -280.0152
  12   2.0000     -10.289480      -279.9910
  13   2.0000     -10.286269      -279.9036
  14   2.0000     -10.284487      -279.8551
  15   2.0000     -10.277095      -279.6540
  16   2.0000      -8.088173      -220.0904
  17   2.0000      -8.079383      -219.8512
  18   2.0000      -6.046419      -164.5314
  19   2.0000      -6.042899      -164.4356
  20   2.0000      -6.038985      -164.3291
  21   2.0000      -6.037862      -164.2986
  22   2.0000      -6.033941      -164.1919
  23   2.0000      -6.030159      -164.0890
  24   2.0000      -1.008900       -27.4536
  25   2.0000      -0.986810       -26.8525
  26   2.0000      -0.911715       -24.8090
  27   2.0000      -0.905097       -24.6289
  28   2.0000      -0.866945       -23.5908
  29   2.0000      -0.860530       -23.4162
  30   2.0000      -0.846410       -23.0320
  31   2.0000      -0.813448       -22.1351
  32   2.0000      -0.784121       -21.3370
  33   2.0000      -0.767152       -20.8753
  34   2.0000      -0.711950       -19.3731
  35   2.0000      -0.693627       -18.8745
  36   2.0000      -0.680498       -18.5173
  37   2.0000      -0.656283       -17.8584
  38   2.0000      -0.637478       -17.3467
  39   2.0000      -0.618441       -16.8286
  40   2.0000      -0.592324       -16.1179
  41   2.0000      -0.567071       -15.4308
  42   2.0000      -0.561990       -15.2925
  43   2.0000      -0.558834       -15.2066
  44   2.0000      -0.534368       -14.5409
  45   2.0000      -0.517789       -14.0898
  46   2.0000      -0.514807       -14.0086
  47   2.0000      -0.508858       -13.8467
  48   2.0000      -0.504677       -13.7330
  49   2.0000      -0.501764       -13.6537
  50   2.0000      -0.485309       -13.2059
  51   2.0000      -0.477826       -13.0023
  52   2.0000      -0.474565       -12.9136
  53   2.0000      -0.470246       -12.7960
  54   2.0000      -0.459719       -12.5096
  55   2.0000      -0.455554       -12.3962
  56   2.0000      -0.439979       -11.9724
  57   2.0000      -0.436898       -11.8886
  58   2.0000      -0.433162       -11.7869
  59   2.0000      -0.425796       -11.5865
  60   2.0000      -0.423016       -11.5108
  61   2.0000      -0.415344       -11.3021
  62   2.0000      -0.402565       -10.9543
  63   2.0000      -0.349848        -9.5198
  64   2.0000      -0.331968        -9.0333
  65   2.0000      -0.329813        -8.9747
  66   2.0000      -0.287184        -7.8147
  67   0.0000       0.030860         0.8397
  68   0.0000       0.073965         2.0127
  69   0.0000       0.106461         2.8969
  70   0.0000       0.113801         3.0967
  71   0.0000       0.135251         3.6804

MULLIKEN ATOMIC CHARGES
-----------------------
   0 S :    0.131180
   1 C :   -0.107794
   2 C :   -0.121619
   3 C :    0.014637
   4 C :   -0.152863
   5 H :    0.026683
   6 C :    0.113698
   7 H :   -0.021468
   8 H :    0.044780
   9 C :   -0.134238
  10 H :    0.035226
  11 H :    0.041168
  12 C :    0.005807
  13 H :    0.024538
  14 H :    0.042003
  15 H :    0.022110
  16 S :    0.116746
  17 C :   -0.119225
  18 C :   -0.044027
  19 C :   -0.023602
  20 C :   -0.175565
  21 H :    0.009136
  22 C :    0.125296
  23 H :    0.006867
  24 H :    0.022236
  25 C :   -0.137987
  26 H :    0.040542
  27 H :    0.031382
  28 C :   -0.042307
  29 H :    0.051848
  30 H :    0.047417
  31 H :    0.018431
  32 H :    0.036601
  33 H :    0.072362
Sum of atomic charges:    0.0000000

LOEWDIN ATOMIC CHARGES
----------------------
   0 S :    0.429311
   1 C :   -0.215854
   2 C :   -0.059475
   3 C :   -0.059813
   4 C :   -0.184789
   5 H :    0.039974
   6 C :   -0.035815
   7 H :    0.015216
   8 H :    0.039846
   9 C :   -0.042875
  10 H :    0.028118
  11 H :    0.024616
  12 C :   -0.051622
  13 H :    0.022646
  14 H :    0.031221
  15 H :    0.019990
  16 S :    0.408853
  17 C :   -0.212621
  18 C :   -0.076773
  19 C :   -0.058222
  20 C :   -0.191265
  21 H :    0.028696
  22 C :   -0.029742
  23 H :    0.014377
  24 H :    0.034202
  25 C :   -0.056632
  26 H :    0.028099
  27 H :    0.028709
  28 C :   -0.078027
  29 H :    0.031565
  30 H :    0.037158
  31 H :    0.026534
  32 H :    0.018273
  33 H :    0.046122

  Mayer bond orders larger than 0.100000
B(  0-S ,  1-C ) :   1.1612 B(  0-S ,  4-C ) :   1.1477 B(  1-C ,  2-C ) :   1.5951
B(  1-C , 32-H ) :   0.9634 B(  2-C ,  3-C ) :   1.2708 B(  2-C ,  6-C ) :   1.0121
B(  3-C ,  4-C ) :   1.5752 B(  3-C ,  5-H ) :   0.9878 B(  4-C , 20-C ) :   1.0204
B(  6-C ,  7-H ) :   0.9308 B(  6-C ,  8-H ) :   0.9256 B(  6-C ,  9-C ) :   1.0557
B(  9-C , 10-H ) :   0.9600 B(  9-C , 11-H ) :   0.9554 B(  9-C , 12-C ) :   1.0768
B( 12-C , 13-H ) :   0.9736 B( 12-C , 14-H ) :   0.9742 B( 12-C , 15-H ) :   0.9760
B( 16-S , 17-C ) :   1.1395 B( 16-S , 20-C ) :   1.1569 B( 17-C , 18-C ) :   1.6419
B( 17-C , 33-H ) :   0.9558 B( 18-C , 19-C ) :   1.2434 B( 18-C , 21-H ) :   0.9857
B( 19-C , 20-C ) :   1.5638 B( 19-C , 22-C ) :   1.0494 B( 22-C , 23-H ) :   0.9204
B( 22-C , 24-H ) :   0.9315 B( 22-C , 25-C ) :   1.0615 B( 25-C , 26-H ) :   0.9539
B( 25-C , 27-H ) :   0.9548 B( 25-C , 28-C ) :   1.0740 B( 28-C , 29-H ) :   0.9731
B( 28-C , 30-H ) :   0.9729 B( 28-C , 31-H ) :   0.9688

Dispersion correction           -0.014640039
FINAL SINGLE POINT ENERGY     -1339.867403466184

DIPOLE MOMENT
-------------
                                X             Y             Z
Electronic contribution:    -16.16102      18.93899       8.11090
Nuclear contribution   :     16.66396     -19.25704      -8.23111
                        -----------------------------------------
Total Dipole Moment    :      0.50293      -0.31805      -0.12021
                        -----------------------------------------
Magnitude (a.u.)       :      0.60708
Magnitude (Debye)      :      1.54308

Rotational constants in cm-1:     0.019388     0.008178     0.006966
Rotational constants in MHz :   581.229916   245.155645   208.836775

                             ****ORCA TERMINATED NORMALLY****
TOTAL RUN TIME: 0 days 0 hours 0 minutes 31 seconds 744 msec
