                         Program Version 4.2.1 -  RELEASE  -
|  1> ! wB97X-D3 SP def2-SVP
|  2> %pal
|  3> nprocs 16
|  4> end
|  5>
|  6> * xyz 0 1
|  7> S 	 -11.882 	 -1.55731 	 79.9405
|  8> C 	 -11.5554 	 -0.7239 	 81.4454
|  9> C 	 -12.5466 	 0.16434 	 81.8546
| 10> C 	 -13.6464 	 0.0412643 	 81.006
| 11> C 	 -13.4513 	 -0.858182 	 79.9744
| 12> H 	 -14.5651 	 0.583741 	 81.1799
| 13> C 	 -12.6077 	 1.21876 	 83.004
| 14> H 	 -13.3308 	 0.771117 	 83.7055
| 15> H 	 -13.1675 	 2.14432 	 82.6703
| 16> C 	 -11.2363 	 1.70105 	 83.5593
| 17> H 	 -10.6704 	 0.823886 	 83.8883
| 18> H 	 -10.5186 	 2.08791 	 82.8203
| 19> C 	 -11.5077 	 2.68214 	 84.74
| 20> H 	 -11.5578 	 3.68257 	 84.3852
| 21> H 	 -12.2949 	 2.4234 	 85.4677
| 22> H 	 -10.656 	 2.96422 	 85.3103
| 23> S 	 -13.87 	 -1.42542 	 77.2648
| 24> C 	 -15.4536 	 -1.78248 	 76.695
| 25> C 	 -16.3912 	 -1.4696 	 77.7091
| 26> C 	 -15.8048 	 -1.201 	 78.9759
| 27> C 	 -14.4274 	 -1.10264 	 78.8795
| 28> H 	 -17.428 	 -1.53868 	 77.447
| 29> C 	 -16.751 	 -1.04258 	 80.1233
| 30> H 	 -16.1388 	 -0.945465 	 81.0072
| 31> H 	 -17.3832 	 -1.9233 	 80.1848
| 32> C 	 -17.7881 	 0.0871998 	 80.0313
| 33> H 	 -18.3107 	 -0.117312 	 80.9485
| 34> H 	 -18.4506 	 -0.0358893 	 79.2134
| 35> C 	 -17.2792 	 1.59308 	 80.0063
| 36> H 	 -16.3041 	 1.60468 	 79.4806
| 37> H 	 -16.9982 	 1.94035 	 81.0158
| 38> H 	 -17.9642 	 2.27178 	 79.4684
| 39> H 	 -10.6122 	 -0.811513 	 81.9438
| 40> H 	 -15.6638 	 -1.98068 	 75.6465
| 41> *
| 42>
| 43>                          ****END OF INPUT****

CARTESIAN COORDINATES (ANGSTROEM)
---------------------------------
  S    -11.882000   -1.557310   79.940500
  C    -11.555400   -0.723900   81.445400
  C    -12.546600    0.164340   81.854600
  C    -13.646400    0.041264   81.006000
  C    -13.451300   -0.858182   79.974400
  H    -14.565100    0.583741   81.179900
  C    -12.607700    1.218760   83.004000
  H    -13.330800    0.771117   83.705500
  H    -13.167500    2.144320   82.670300
  C    -11.236300    1.701050   83.559300
  H    -10.670400    0.823886   83.888300
  H    -10.518600    2.087910   82.820300
  C    -11.507700    2.682140   84.740000
  H    -11.557800    3.682570   84.385200
  H    -12.294900    2.423400   85.467700
  H    -10.656000    2.964220   85.310300
  S    -13.870000   -1.425420   77.264800
  C    -15.453600   -1.782480   76.695000
  C    -16.391200   -1.469600   77.709100
  C    -15.804800   -1.201000   78.975900
  C    -14.427400   -1.102640   78.879500
  H    -17.428000   -1.538680   77.447000
  C    -16.751000   -1.042580   80.123300
  H    -16.138800   -0.945465   81.007200
  H    -17.383200   -1.923300   80.184800
  C    -17.788100    0.087200   80.031300
  H    -18.310700   -0.117312   80.948500
  H    -18.450600   -0.035889   79.213400
  C    -17.279200    1.593080   80.006300
  H    -16.304100    1.604680   79.480600
  H    -16.998200    1.940350   81.015800
  H    -17.964200    2.271780   79.468400
  H    -10.612200   -0.811513   81.943800
  H    -15.663800   -1.980680   75.646500

 Total Charge           Charge          ....    0
 Multiplicity           Mult            ....    1
 Number of Electrons    NEL             ....  134
 Basis Dimension        Dim             ....  322

ORBITAL ENERGIES
----------------

  NO   OCC          E(Eh)            E(eV)
   0   2.0000     -88.970986     -2421.0236
   1   2.0000     -88.964614     -2420.8502
   2   2.0000     -10.327046      -281.0132
   3   2.0000     -10.325566      -280.9729
   4   2.0000     -10.315641      -280.7029
   5   2.0000     -10.310327      -280.5583
   6   2.0000     -10.306792      -280.4621
   7   2.0000     -10.300516      -280.2913
   8   2.0000     -10.297198      -280.2010
   9   2.0000     -10.296432      -280.1801
  10   2.0000     -10.291144      -280.0363
  11   2.0000     -10.288856      -279.9740
  12   2.0000     -10.286755      -279.9168
  13   2.0000     -10.286371      -279.9064
  14   2.0000     -10.284045      -279.8431
  15   2.0000     -10.277609      -279.6679
  16   2.0000      -8.086041      -220.0324
  17   2.0000      -8.079948      -219.8666
  18   2.0000      -6.044389      -164.4762
  19   2.0000      -6.040726      -164.3765
  20   2.0000      -6.038369      -164.3124
  21   2.0000      -6.036749      -164.2683
  22   2.0000      -6.034297      -164.2016
  23   2.0000      -6.030884      -164.1087
  24   2.0000      -1.009661       -27.4743
  25   2.0000      -0.987049       -26.8590
  26   2.0000      -0.910903       -24.7869
  27   2.0000      -0.905309       -24.6347
  28   2.0000      -0.863107       -23.4863
  29   2.0000      -0.855457       -23.2782
  30   2.0000      -0.843994       -22.9663
  31   2.0000      -0.806307       -21.9407
  32   2.0000      -0.785506       -21.3747
  33   2.0000      -0.776239       -21.1225
  34   2.0000      -0.718557       -19.5529
  35   2.0000      -0.705765       -19.2048
  36   2.0000      -0.687912       -18.7190
  37   2.0000      -0.660554       -17.9746
  38   2.0000      -0.636754       -17.3270
  39   2.0000      -0.620848       -16.8941
  40   2.0000      -0.598425       -16.2840
  41   2.0000      -0.564918       -15.3722
  42   2.0000      -0.558423       -15.1955
  43   2.0000      -0.550493       -14.9797
  44   2.0000      -0.532552       -14.4915
  45   2.0000      -0.530126       -14.4255
  46   2.0000      -0.523037       -14.2326
  47   2.0000      -0.514609       -14.0032
  48   2.0000      -0.498725       -13.5710
  49   2.0000      -0.491005       -13.3609
  50   2.0000      -0.487472       -13.2648
  51   2.0000      -0.477876       -13.0037
  52   2.0000      -0.470226       -12.7955
  53   2.0000      -0.467820       -12.7300
  54   2.0000      -0.461263       -12.5516
  55   2.0000      -0.452386       -12.3100
  56   2.0000      -0.449817       -12.2401
  57   2.0000      -0.439451       -11.9581
  58   2.0000      -0.435695       -11.8559
  59   2.0000      -0.430858       -11.7242
  60   2.0000      -0.423748       -11.5308
  61   2.0000      -0.413697       -11.2573
  62   2.0000      -0.404752       -11.0139
  63   2.0000      -0.349933        -9.5222
  64   2.0000      -0.335850        -9.1390
  65   2.0000      -0.327603        -8.9145
  66   2.0000      -0.282375        -7.6838
  67   0.0000       0.029608         0.8057
  68   0.0000       0.079047         2.1510
  69   0.0000       0.103462         2.8154
  70   0.0000       0.124402         3.3852
  71   0.0000       0.132228         3.5981

MULLIKEN ATOMIC CHARGES
-----------------------
   0 S :    0.127377
   1 C :   -0.145659
   2 C :   -0.035301
   3 C :   -0.010273
   4 C :   -0.121528
   5 H :   -0.008129
   6 C :    0.015050
   7 H :    0.047365
   8 H :    0.044452
   9 C :   -0.069853
  10 H :    0.029844
  11 H :    0.040287
  12 C :   -0.030233
  13 H :    0.018257
  14 H :    0.048282
  15 H :    0.006691
  16 S :    0.102866
  17 C :   -0.110664
  18 C :   -0.043978
  19 C :   -0.047415
  20 C :   -0.133291
  21 H :    0.014468
  22 C :    0.076237
  23 H :    0.015222
  24 H :    0.031965
  25 C :   -0.060557
  26 H :    0.029318
  27 H :    0.024209
  28 C :   -0.080829
  29 H :    0.043609
  30 H :    0.035671
  31 H :    0.049284
  32 H :    0.032180
  33 H :    0.065078
Sum of atomic charges:    0.0000000

LOEWDIN ATOMIC CHARGES
----------------------
   0 S :    0.424079
   1 C :   -0.203206
   2 C :   -0.058258
   3 C :   -0.068498
   4 C :   -0.194467
   5 H :    0.027264
   6 C :   -0.032658
   7 H :    0.038200
   8 H :    0.038135
   9 C :   -0.042445
  10 H :    0.021542
  11 H :    0.032621
  12 C :   -0.078290
  13 H :    0.027664
  14 H :    0.032866
  15 H :    0.025920
  16 S :    0.416139
  17 C :   -0.200349
  18 C :   -0.065021
  19 C :   -0.066904
  20 C :   -0.201806
  21 H :    0.025707
  22 C :   -0.028514
  23 H :    0.025218
  24 H :    0.038284
  25 C :   -0.031282
  26 H :    0.025803
  27 H :    0.016547
  28 C :   -0.076059
  29 H :    0.029423
  30 H :    0.024055
  31 H :    0.031577
  32 H :    0.016653
  33 H :    0.030060

  Mayer bond orders larger than 0.100000
B(  0-S ,  1-C ) :   1.1359 B(  0-S ,  4-C ) :   1.1666 B(  1-C ,  2-C ) :   1.6072
B(  1-C , 32-H ) :   0.9679 B(  2-C ,  3-C ) :   1.2806 B(  2-C ,  6-C ) :   0.9898
B(  3-C ,  4-C ) :   1.5398 B(  3-C ,  5-H ) :   0.9924 B(  4-C , 20-C ) :   1.0350
B(  6-C ,  7-H ) :   0.9399 B(  6-C ,  8-H ) :   0.9550 B(  6-C ,  9-C ) :   1.0481
B(  9-C , 10-H ) :   0.9561 B(  9-C , 11-H ) :   0.9607 B(  9-C , 12-C ) :   1.0767
B( 12-C , 13-H ) :   0.9664 B( 12-C , 14-H ) :   0.9779 B( 12-C , 15-H ) :   0.9628
B( 16-S , 17-C ) :   1.1678 B( 16-S , 20-C ) :   1.1494 B( 17-C , 18-C ) :   1.5787
B( 17-C , 33-H ) :   0.9694 B( 18-C , 19-C ) :   1.2478 B( 18-C , 21-H ) :   0.9956
B( 19-C , 20-C ) :   1.5730 B( 19-C , 22-C ) :   1.0517 B( 22-C , 23-H ) :   0.9292
B( 22-C , 24-H ) :   0.9259 B( 22-C , 25-C ) :   1.0782 B( 25-C , 26-H ) :   0.9582
B( 25-C , 27-H ) :   0.9585 B( 25-C , 28-C ) :   1.0605 B( 28-C , 29-H ) :   0.9759
B( 28-C , 30-H ) :   0.9738 B( 28-C , 31-H ) :   0.9759

Dispersion correction           -0.014292781
FINAL SINGLE POINT ENERGY     -1339.866984330047

DIPOLE MOMENT
-------------
                                X             Y             Z
Electronic contribution:      9.70166     -18.79508     -21.66443
Nuclear contribution   :    -10.03653      19.21023      22.08428
                        -----------------------------------------
Total Dipole Moment    :     -0.33487       0.41515       0.41985
                        -----------------------------------------
Magnitude (a.u.)       :      0.67880
Magnitude (Debye)      :      1.72536

Rotational constants in cm-1:     0.020270     0.008171     0.006180
Rotational constants in MHz :   607.665613   244.950100   185.264925

                             ****ORCA TERMINATED NORMALLY****
TOTAL RUN TIME: 0 days 0 hours 0 minutes 31 seconds 767 msec
