                         Program Version 4.2.1 -  RELEASE  -
|  1> ! wB97X-D3 SP def2-SVP
|  2> %pal
|  3> nprocs 16
|  4> end
|  5>
|  6> * xyz 0 1
|  7> S 	 -69.2097 	 36.9351 	 142.965
|  8> C 	 -70.4229 	 36.5876 	 141.695
|  9> C 	 -69.7421 	 36.1171 	 140.556
| 10> C 	 -68.3236 	 36.174 	 140.675
| 11> C 	 -67.8723 	 36.6451 	 141.864
| 12> H 	 -67.6177 	 35.9672 	 139.845
| 13> C 	 -70.5172 	 35.6745 	 139.359
| 14> H 	 -71.5663 	 35.5704 	 139.552
| 15> H 	 -70.1251 	 34.649 	 139.335
| 16> C 	 -70.3381 	 36.3343 	 137.927
| 17> H 	 -70.8076 	 37.3058 	 137.983
| 18> H 	 -69.3023 	 36.5153 	 137.799
| 19> C 	 -70.9494 	 35.5956 	 136.771
| 20> H 	 -70.4865 	 35.8428 	 135.775
| 21> H 	 -70.9159 	 34.4779 	 136.888
| 22> H 	 -71.9964 	 35.9034 	 136.807
| 23> S 	 -65.34 	 35.6387 	 142.108
| 24> C 	 -64.0754 	 36.7256 	 142.687
| 25> C 	 -64.5234 	 38.0234 	 142.988
| 26> C 	 -65.9753 	 38.1436 	 142.733
| 27> C 	 -66.4918 	 36.9208 	 142.231
| 28> H 	 -63.9558 	 38.8357 	 143.243
| 29> C 	 -66.6461 	 39.4539 	 142.704
| 30> H 	 -67.7042 	 39.3238 	 142.434
| 31> H 	 -66.3188 	 40.0606 	 141.873
| 32> C 	 -66.5496 	 40.3336 	 143.997
| 33> H 	 -66.9787 	 41.2865 	 143.716
| 34> H 	 -65.5761 	 40.625 	 144.269
| 35> C 	 -67.2901 	 39.9217 	 145.273
| 36> H 	 -68.2797 	 39.4681 	 145.065
| 37> H 	 -67.5381 	 40.737 	 145.979
| 38> H 	 -66.7395 	 39.1705 	 145.798
| 39> H 	 -71.5089 	 36.4481 	 141.783
| 40> H 	 -63.0251 	 36.3937 	 142.638
| 41> *
| 42>
| 43>                          ****END OF INPUT****

CARTESIAN COORDINATES (ANGSTROEM)
---------------------------------
  S    -69.209700   36.935100  142.965000
  C    -70.422900   36.587600  141.695000
  C    -69.742100   36.117100  140.556000
  C    -68.323600   36.174000  140.675000
  C    -67.872300   36.645100  141.864000
  H    -67.617700   35.967200  139.845000
  C    -70.517200   35.674500  139.359000
  H    -71.566300   35.570400  139.552000
  H    -70.125100   34.649000  139.335000
  C    -70.338100   36.334300  137.927000
  H    -70.807600   37.305800  137.983000
  H    -69.302300   36.515300  137.799000
  C    -70.949400   35.595600  136.771000
  H    -70.486500   35.842800  135.775000
  H    -70.915900   34.477900  136.888000
  H    -71.996400   35.903400  136.807000
  S    -65.340000   35.638700  142.108000
  C    -64.075400   36.725600  142.687000
  C    -64.523400   38.023400  142.988000
  C    -65.975300   38.143600  142.733000
  C    -66.491800   36.920800  142.231000
  H    -63.955800   38.835700  143.243000
  C    -66.646100   39.453900  142.704000
  H    -67.704200   39.323800  142.434000
  H    -66.318800   40.060600  141.873000
  C    -66.549600   40.333600  143.997000
  H    -66.978700   41.286500  143.716000
  H    -65.576100   40.625000  144.269000
  C    -67.290100   39.921700  145.273000
  H    -68.279700   39.468100  145.065000
  H    -67.538100   40.737000  145.979000
  H    -66.739500   39.170500  145.798000
  H    -71.508900   36.448100  141.783000
  H    -63.025100   36.393700  142.638000

 Total Charge           Charge          ....    0
 Multiplicity           Mult            ....    1
 Number of Electrons    NEL             ....  134
 Basis Dimension        Dim             ....  322

ORBITAL ENERGIES
----------------

  NO   OCC          E(Eh)            E(eV)
   0   2.0000     -88.970863     -2421.0203
   1   2.0000     -88.965739     -2420.8808
   2   2.0000     -10.328198      -281.0446
   3   2.0000     -10.327038      -281.0130
   4   2.0000     -10.325175      -280.9623
   5   2.0000     -10.316663      -280.7307
   6   2.0000     -10.306918      -280.4655
   7   2.0000     -10.303666      -280.3770
   8   2.0000     -10.298039      -280.2239
   9   2.0000     -10.293736      -280.1068
  10   2.0000     -10.291377      -280.0426
  11   2.0000     -10.289404      -279.9889
  12   2.0000     -10.285471      -279.8819
  13   2.0000     -10.284047      -279.8431
  14   2.0000     -10.281155      -279.7645
  15   2.0000     -10.271602      -279.5045
  16   2.0000      -8.085528      -220.0184
  17   2.0000      -8.079199      -219.8462
  18   2.0000      -6.044004      -164.4657
  19   2.0000      -6.040063      -164.3585
  20   2.0000      -6.037903      -164.2997
  21   2.0000      -6.036327      -164.2568
  22   2.0000      -6.033806      -164.1882
  23   2.0000      -6.029874      -164.0812
  24   2.0000      -1.003838       -27.3158
  25   2.0000      -0.978282       -26.6204
  26   2.0000      -0.909436       -24.7470
  27   2.0000      -0.905623       -24.6433
  28   2.0000      -0.869296       -23.6547
  29   2.0000      -0.851489       -23.1702
  30   2.0000      -0.845302       -23.0018
  31   2.0000      -0.816662       -22.2225
  32   2.0000      -0.783832       -21.3291
  33   2.0000      -0.764765       -20.8103
  34   2.0000      -0.709347       -19.3023
  35   2.0000      -0.701332       -19.0842
  36   2.0000      -0.689579       -18.7644
  37   2.0000      -0.667840       -18.1728
  38   2.0000      -0.632748       -17.2179
  39   2.0000      -0.619661       -16.8618
  40   2.0000      -0.601436       -16.3659
  41   2.0000      -0.565636       -15.3917
  42   2.0000      -0.560375       -15.2486
  43   2.0000      -0.545121       -14.8335
  44   2.0000      -0.540834       -14.7168
  45   2.0000      -0.520881       -14.1739
  46   2.0000      -0.519761       -14.1434
  47   2.0000      -0.512398       -13.9430
  48   2.0000      -0.499827       -13.6010
  49   2.0000      -0.498335       -13.5604
  50   2.0000      -0.491824       -13.3832
  51   2.0000      -0.480657       -13.0793
  52   2.0000      -0.470151       -12.7934
  53   2.0000      -0.460877       -12.5411
  54   2.0000      -0.456443       -12.4204
  55   2.0000      -0.453614       -12.3435
  56   2.0000      -0.447534       -12.1780
  57   2.0000      -0.438349       -11.9281
  58   2.0000      -0.426256       -11.5990
  59   2.0000      -0.425450       -11.5771
  60   2.0000      -0.421211       -11.4617
  61   2.0000      -0.414000       -11.2655
  62   2.0000      -0.408434       -11.1140
  63   2.0000      -0.344621        -9.3776
  64   2.0000      -0.332283        -9.0419
  65   2.0000      -0.323063        -8.7910
  66   2.0000      -0.291866        -7.9421
  67   0.0000       0.029709         0.8084
  68   0.0000       0.070481         1.9179
  69   0.0000       0.103825         2.8252
  70   0.0000       0.109729         2.9859
  71   0.0000       0.125717         3.4209

MULLIKEN ATOMIC CHARGES
-----------------------
   0 S :    0.108303
   1 C :   -0.132653
   2 C :   -0.093803
   3 C :    0.013782
   4 C :   -0.146614
   5 H :    0.026429
   6 C :    0.039261
   7 H :    0.008394
   8 H :    0.032674
   9 C :   -0.036709
  10 H :    0.029012
  11 H :    0.014357
  12 C :   -0.077083
  13 H :    0.051234
  14 H :    0.038707
  15 H :    0.035646
  16 S :    0.124652
  17 C :   -0.106916
  18 C :    0.021895
  19 C :   -0.022369
  20 C :   -0.165869
  21 H :   -0.009229
  22 C :    0.047591
  23 H :    0.024667
  24 H :    0.037631
  25 C :   -0.053908
  26 H :    0.013702
  27 H :    0.011738
  28 C :   -0.060529
  29 H :    0.026291
  30 H :    0.037463
  31 H :    0.030846
  32 H :    0.059708
  33 H :    0.071701
Sum of atomic charges:    0.0000000

LOEWDIN ATOMIC CHARGES
----------------------
   0 S :    0.394616
   1 C :   -0.202612
   2 C :   -0.058310
   3 C :   -0.076057
   4 C :   -0.186442
   5 H :    0.037256
   6 C :   -0.035486
   7 H :    0.023048
   8 H :    0.037955
   9 C :   -0.038834
  10 H :    0.025294
  11 H :    0.014717
  12 C :   -0.072453
  13 H :    0.036118
  14 H :    0.028764
  15 H :    0.028248
  16 S :    0.417403
  17 C :   -0.182621
  18 C :   -0.047802
  19 C :   -0.051022
  20 C :   -0.210809
  21 H :    0.016298
  22 C :   -0.037822
  23 H :    0.029918
  24 H :    0.038148
  25 C :   -0.038844
  26 H :    0.025128
  27 H :    0.013763
  28 C :   -0.070493
  29 H :    0.025180
  30 H :    0.030866
  31 H :    0.020385
  32 H :    0.035290
  33 H :    0.031211

  Mayer bond orders larger than 0.100000
B(  0-S ,  1-C ) :   1.1143 B(  0-S ,  4-C ) :   1.1453 B(  1-C ,  2-C ) :   1.6081
B(  1-C , 32-H ) :   0.9647 B(  2-C ,  3-C ) :   1.2339 B(  2-C ,  6-C ) :   1.0305
B(  3-C ,  4-C ) :   1.5832 B(  3-C ,  5-H ) :   0.9870 B(  4-C , 20-C ) :   1.0315
B(  6-C ,  7-H ) :   0.9455 B(  6-C ,  8-H ) :   0.9286 B(  6-C ,  9-C ) :   1.0531
B(  9-C , 10-H ) :   0.9584 B(  9-C , 11-H ) :   0.9580 B(  9-C , 12-C ) :   1.0716
B( 12-C , 13-H ) :   0.9733 B( 12-C , 14-H ) :   0.9777 B( 12-C , 15-H ) :   0.9789
B( 16-S , 17-C ) :   1.1504 B( 16-S , 20-C ) :   1.1527 B( 17-C , 18-C ) :   1.5990
B( 17-C , 33-H ) :   0.9655 B( 18-C , 19-C ) :   1.2233 B( 18-C , 21-H ) :   1.0017
B( 19-C , 20-C ) :   1.5634 B( 19-C , 22-C ) :   1.0670 B( 22-C , 23-H ) :   0.9230
B( 22-C , 24-H ) :   0.9330 B( 22-C , 25-C ) :   1.0690 B( 25-C , 26-H ) :   0.9515
B( 25-C , 27-H ) :   0.9581 B( 25-C , 28-C ) :   1.0721 B( 28-C , 29-H ) :   0.9730
B( 28-C , 30-H ) :   0.9755 B( 28-C , 31-H ) :   0.9773

Dispersion correction           -0.014192860
FINAL SINGLE POINT ENERGY     -1339.873054333938

DIPOLE MOMENT
-------------
                                X             Y             Z
Electronic contribution:     10.61268     -10.06020       9.82348
Nuclear contribution   :    -10.61731      10.31080     -10.31013
                        -----------------------------------------
Total Dipole Moment    :     -0.00463       0.25060      -0.48665
                        -----------------------------------------
Magnitude (a.u.)       :      0.54740
Magnitude (Debye)      :      1.39139

Rotational constants in cm-1:     0.020877     0.007565     0.006419
Rotational constants in MHz :   625.878207   226.791310   192.448871

                             ****ORCA TERMINATED NORMALLY****
TOTAL RUN TIME: 0 days 0 hours 0 minutes 32 seconds 640 msec
