                         Program Version 4.2.1 -  RELEASE  -
|  1> ! wB97X-D3 SP def2-SVP
|  2> %pal
|  3> nprocs 16
|  4> end
|  5>
|  6> * xyz 0 1
|  7> S 	 -54.9521 	 41.072 	 111.414
|  8> C 	 -54.6036 	 40.7487 	 109.737
|  9> C 	 -55.712 	 40.2117 	 109.1
| 10> C 	 -56.7083 	 39.8221 	 110.048
| 11> C 	 -56.478 	 40.3031 	 111.369
| 12> H 	 -57.6172 	 39.259 	 109.971
| 13> C 	 -55.9033 	 39.8485 	 107.65
| 14> H 	 -56.4255 	 38.8607 	 107.67
| 15> H 	 -54.9286 	 39.6964 	 107.086
| 16> C 	 -56.8203 	 40.809 	 106.888
| 17> H 	 -56.7905 	 40.6331 	 105.851
| 18> H 	 -57.8756 	 40.6646 	 107.299
| 19> C 	 -56.3729 	 42.2247 	 106.99
| 20> H 	 -55.4949 	 42.3833 	 106.316
| 21> H 	 -57.1595 	 42.8671 	 106.645
| 22> H 	 -56.1568 	 42.6153 	 108.018
| 23> S 	 -57.588 	 38.749 	 113.369
| 24> C 	 -58.7627 	 39.4805 	 114.474
| 25> C 	 -58.9542 	 40.8428 	 114.132
| 26> C 	 -58.2342 	 41.274 	 112.955
| 27> C 	 -57.4563 	 40.2609 	 112.454
| 28> H 	 -59.5872 	 41.4352 	 114.734
| 29> C 	 -58.4992 	 42.5897 	 112.282
| 30> H 	 -57.6081 	 43.0873 	 111.84
| 31> H 	 -58.5801 	 43.3174 	 113.137
| 32> C 	 -59.7738 	 42.5506 	 111.446
| 33> H 	 -60.5064 	 42.2946 	 112.16
| 34> H 	 -59.7494 	 41.8214 	 110.737
| 35> C 	 -60.2685 	 43.8727 	 110.928
| 36> H 	 -59.4644 	 44.3738 	 110.356
| 37> H 	 -60.6039 	 44.4782 	 111.73
| 38> H 	 -61.0833 	 43.7602 	 110.161
| 39> H 	 -53.7365 	 41.0361 	 109.175
| 40> H 	 -59.1327 	 39.1214 	 115.39
| 41> *
| 42>
| 43>                          ****END OF INPUT****

CARTESIAN COORDINATES (ANGSTROEM)
---------------------------------
  S    -54.952100   41.072000  111.414000
  C    -54.603600   40.748700  109.737000
  C    -55.712000   40.211700  109.100000
  C    -56.708300   39.822100  110.048000
  C    -56.478000   40.303100  111.369000
  H    -57.617200   39.259000  109.971000
  C    -55.903300   39.848500  107.650000
  H    -56.425500   38.860700  107.670000
  H    -54.928600   39.696400  107.086000
  C    -56.820300   40.809000  106.888000
  H    -56.790500   40.633100  105.851000
  H    -57.875600   40.664600  107.299000
  C    -56.372900   42.224700  106.990000
  H    -55.494900   42.383300  106.316000
  H    -57.159500   42.867100  106.645000
  H    -56.156800   42.615300  108.018000
  S    -57.588000   38.749000  113.369000
  C    -58.762700   39.480500  114.474000
  C    -58.954200   40.842800  114.132000
  C    -58.234200   41.274000  112.955000
  C    -57.456300   40.260900  112.454000
  H    -59.587200   41.435200  114.734000
  C    -58.499200   42.589700  112.282000
  H    -57.608100   43.087300  111.840000
  H    -58.580100   43.317400  113.137000
  C    -59.773800   42.550600  111.446000
  H    -60.506400   42.294600  112.160000
  H    -59.749400   41.821400  110.737000
  C    -60.268500   43.872700  110.928000
  H    -59.464400   44.373800  110.356000
  H    -60.603900   44.478200  111.730000
  H    -61.083300   43.760200  110.161000
  H    -53.736500   41.036100  109.175000
  H    -59.132700   39.121400  115.390000

 Total Charge           Charge          ....    0
 Multiplicity           Mult            ....    1
 Number of Electrons    NEL             ....  134
 Basis Dimension        Dim             ....  322

ORBITAL ENERGIES
----------------

  NO   OCC          E(Eh)            E(eV)
   0   2.0000     -88.969056     -2420.9711
   1   2.0000     -88.967757     -2420.9358
   2   2.0000     -10.326954      -281.0107
   3   2.0000     -10.326252      -280.9916
   4   2.0000     -10.319975      -280.8208
   5   2.0000     -10.313943      -280.6566
   6   2.0000     -10.304104      -280.3889
   7   2.0000     -10.302630      -280.3488
   8   2.0000     -10.297216      -280.2015
   9   2.0000     -10.296697      -280.1874
  10   2.0000     -10.294671      -280.1323
  11   2.0000     -10.293427      -280.0984
  12   2.0000     -10.284971      -279.8683
  13   2.0000     -10.276890      -279.6484
  14   2.0000     -10.273851      -279.5657
  15   2.0000     -10.272179      -279.5202
  16   2.0000      -8.083943      -219.9753
  17   2.0000      -8.081592      -219.9113
  18   2.0000      -6.042372      -164.4213
  19   2.0000      -6.040205      -164.3623
  20   2.0000      -6.038213      -164.3081
  21   2.0000      -6.036146      -164.2519
  22   2.0000      -6.034979      -164.2201
  23   2.0000      -6.032365      -164.1490
  24   2.0000      -1.005310       -27.3559
  25   2.0000      -0.981772       -26.7154
  26   2.0000      -0.916721       -24.9452
  27   2.0000      -0.914437       -24.8831
  28   2.0000      -0.868082       -23.6217
  29   2.0000      -0.852813       -23.2062
  30   2.0000      -0.848505       -23.0890
  31   2.0000      -0.809029       -22.0148
  32   2.0000      -0.782763       -21.3001
  33   2.0000      -0.773716       -21.0539
  34   2.0000      -0.707337       -19.2476
  35   2.0000      -0.699763       -19.0415
  36   2.0000      -0.691143       -18.8069
  37   2.0000      -0.666258       -18.1298
  38   2.0000      -0.641465       -17.4552
  39   2.0000      -0.612068       -16.6552
  40   2.0000      -0.593297       -16.1444
  41   2.0000      -0.573898       -15.6165
  42   2.0000      -0.570841       -15.5334
  43   2.0000      -0.553917       -15.0728
  44   2.0000      -0.548931       -14.9372
  45   2.0000      -0.524321       -14.2675
  46   2.0000      -0.520725       -14.1696
  47   2.0000      -0.515179       -14.0187
  48   2.0000      -0.509828       -13.8731
  49   2.0000      -0.497867       -13.5477
  50   2.0000      -0.487022       -13.2525
  51   2.0000      -0.473567       -12.8864
  52   2.0000      -0.469484       -12.7753
  53   2.0000      -0.465780       -12.6745
  54   2.0000      -0.454438       -12.3659
  55   2.0000      -0.450552       -12.2601
  56   2.0000      -0.439673       -11.9641
  57   2.0000      -0.434032       -11.8106
  58   2.0000      -0.429269       -11.6810
  59   2.0000      -0.424296       -11.5457
  60   2.0000      -0.422449       -11.4954
  61   2.0000      -0.416510       -11.3338
  62   2.0000      -0.409735       -11.1495
  63   2.0000      -0.333944        -9.0871
  64   2.0000      -0.328736        -8.9454
  65   2.0000      -0.326971        -8.8973
  66   2.0000      -0.304384        -8.2827
  67   0.0000       0.042308         1.1512
  68   0.0000       0.051319         1.3965
  69   0.0000       0.111332         3.0295
  70   0.0000       0.118400         3.2218
  71   0.0000       0.128558         3.4983

MULLIKEN ATOMIC CHARGES
-----------------------
   0 S :    0.133552
   1 C :   -0.108787
   2 C :   -0.075040
   3 C :    0.028285
   4 C :   -0.168339
   5 H :    0.006613
   6 C :    0.036070
   7 H :    0.038810
   8 H :    0.032621
   9 C :   -0.053750
  10 H :    0.023989
  11 H :    0.037167
  12 C :   -0.074362
  13 H :    0.030337
  14 H :    0.025951
  15 H :    0.048462
  16 S :    0.114259
  17 C :   -0.070684
  18 C :   -0.044323
  19 C :   -0.012801
  20 C :   -0.202809
  21 H :    0.004945
  22 C :    0.047954
  23 H :    0.025208
  24 H :    0.013476
  25 C :    0.014751
  26 H :    0.006997
  27 H :    0.006032
  28 C :   -0.042389
  29 H :    0.027669
  30 H :    0.028318
  31 H :    0.037649
  32 H :    0.041173
  33 H :    0.042995
Sum of atomic charges:    0.0000000

LOEWDIN ATOMIC CHARGES
----------------------
   0 S :    0.438429
   1 C :   -0.201432
   2 C :   -0.064023
   3 C :   -0.060072
   4 C :   -0.218791
   5 H :    0.027101
   6 C :   -0.038119
   7 H :    0.037738
   8 H :    0.032829
   9 C :   -0.043746
  10 H :    0.021892
  11 H :    0.029971
  12 C :   -0.072888
  13 H :    0.027849
  14 H :    0.023160
  15 H :    0.028802
  16 S :    0.395263
  17 C :   -0.177515
  18 C :   -0.059038
  19 C :   -0.054798
  20 C :   -0.194919
  21 H :    0.021582
  22 C :   -0.037490
  23 H :    0.029835
  24 H :    0.033781
  25 C :   -0.028449
  26 H :    0.024263
  27 H :    0.012317
  28 C :   -0.061339
  29 H :    0.024680
  30 H :    0.019822
  31 H :    0.033305
  32 H :    0.027855
  33 H :    0.022145

  Mayer bond orders larger than 0.100000
B(  0-S ,  1-C ) :   1.1536 B(  0-S ,  4-C ) :   1.1716 B(  1-C ,  2-C ) :   1.5819
B(  1-C , 32-H ) :   0.9706 B(  2-C ,  3-C ) :   1.2457 B(  2-C ,  6-C ) :   1.0216
B(  3-C ,  4-C ) :   1.5539 B(  3-C ,  5-H ) :   0.9917 B(  4-C , 20-C ) :   1.0202
B(  6-C ,  7-H ) :   0.9434 B(  6-C ,  8-H ) :   0.9455 B(  6-C ,  9-C ) :   1.0755
B(  9-C , 10-H ) :   0.9540 B(  9-C , 11-H ) :   0.9530 B(  9-C , 12-C ) :   1.0848
B( 12-C , 13-H ) :   0.9742 B( 12-C , 14-H ) :   0.9702 B( 12-C , 15-H ) :   0.9697
B( 16-S , 17-C ) :   1.1419 B( 16-S , 20-C ) :   1.1397 B( 17-C , 18-C ) :   1.6246
B( 17-C , 33-H ) :   0.9714 B( 18-C , 19-C ) :   1.2208 B( 18-C , 21-H ) :   0.9897
B( 19-C , 20-C ) :   1.6208 B( 19-C , 22-C ) :   1.0553 B( 22-C , 23-H ) :   0.9247
B( 22-C , 24-H ) :   0.9271 B( 22-C , 25-C ) :   1.0519 B( 25-C , 26-H ) :   0.9501
B( 25-C , 27-H ) :   0.9558 B( 25-C , 28-C ) :   1.0882 B( 28-C , 29-H ) :   0.9735
B( 28-C , 30-H ) :   0.9767 B( 28-C , 31-H ) :   0.9722

Dispersion correction           -0.015050091
FINAL SINGLE POINT ENERGY     -1339.868330103539

DIPOLE MOMENT
-------------
                                X             Y             Z
Electronic contribution:     11.90296     -15.68295      20.04417
Nuclear contribution   :    -12.26547      16.01007     -20.38209
                        -----------------------------------------
Total Dipole Moment    :     -0.36251       0.32712      -0.33792
                        -----------------------------------------
Magnitude (a.u.)       :      0.59381
Magnitude (Debye)      :      1.50934

Rotational constants in cm-1:     0.017855     0.009638     0.007456
Rotational constants in MHz :   535.286799   288.931894   223.517266

                             ****ORCA TERMINATED NORMALLY****
TOTAL RUN TIME: 0 days 0 hours 0 minutes 31 seconds 725 msec
