                         Program Version 4.2.1 -  RELEASE  -
|  1> ! wB97X-D3 SP def2-SVP
|  2> %pal
|  3> nprocs 16
|  4> end
|  5>
|  6> * xyz 0 1
|  7> S 	 -35.8445 	 46.4772 	 95.9005
|  8> C 	 -37.1888 	 46.5897 	 97.0241
|  9> C 	 -36.7231 	 46.6141 	 98.3313
| 10> C 	 -35.3026 	 46.5254 	 98.4143
| 11> C 	 -34.6307 	 46.4518 	 97.1967
| 12> H 	 -34.8783 	 46.6737 	 99.4347
| 13> C 	 -37.5505 	 46.4779 	 99.5623
| 14> H 	 -38.5671 	 46.8015 	 99.4865
| 15> H 	 -37.1393 	 47.1926 	 100.299
| 16> C 	 -37.7116 	 45.1077 	 100.032
| 17> H 	 -37.7349 	 44.4541 	 99.1093
| 18> H 	 -36.8643 	 44.6174 	 100.503
| 19> C 	 -38.9196 	 44.855 	 100.885
| 20> H 	 -39.0241 	 43.824 	 101.23
| 21> H 	 -38.7805 	 45.5051 	 101.716
| 22> H 	 -39.8861 	 45.164 	 100.39
| 23> S 	 -32.2807 	 45.7065 	 98.3914
| 24> C 	 -30.8491 	 45.6814 	 97.4487
| 25> C 	 -31.0545 	 46.0671 	 96.1289
| 26> C 	 -32.3913 	 46.4503 	 95.8765
| 27> C 	 -33.1998 	 46.3088 	 96.9756
| 28> H 	 -30.1903 	 46.1623 	 95.466
| 29> C 	 -32.7744 	 47.06 	 94.5794
| 30> H 	 -32.0756 	 47.7062 	 94.1855
| 31> H 	 -33.6138 	 47.6762 	 94.7748
| 32> C 	 -33.1477 	 46.0873 	 93.4467
| 33> H 	 -33.8006 	 46.6535 	 92.7893
| 34> H 	 -33.7545 	 45.3434 	 93.8943
| 35> C 	 -31.9726 	 45.4082 	 92.6392
| 36> H 	 -31.3428 	 44.8053 	 93.1973
| 37> H 	 -31.2829 	 46.1397 	 92.0937
| 38> H 	 -32.5353 	 44.7767 	 91.8897
| 39> H 	 -38.1475 	 46.3561 	 96.768
| 40> H 	 -29.8147 	 45.4344 	 97.7065
| 41> *
| 42>
| 43>                          ****END OF INPUT****

CARTESIAN COORDINATES (ANGSTROEM)
---------------------------------
  S    -35.844500   46.477200   95.900500
  C    -37.188800   46.589700   97.024100
  C    -36.723100   46.614100   98.331300
  C    -35.302600   46.525400   98.414300
  C    -34.630700   46.451800   97.196700
  H    -34.878300   46.673700   99.434700
  C    -37.550500   46.477900   99.562300
  H    -38.567100   46.801500   99.486500
  H    -37.139300   47.192600  100.299000
  C    -37.711600   45.107700  100.032000
  H    -37.734900   44.454100   99.109300
  H    -36.864300   44.617400  100.503000
  C    -38.919600   44.855000  100.885000
  H    -39.024100   43.824000  101.230000
  H    -38.780500   45.505100  101.716000
  H    -39.886100   45.164000  100.390000
  S    -32.280700   45.706500   98.391400
  C    -30.849100   45.681400   97.448700
  C    -31.054500   46.067100   96.128900
  C    -32.391300   46.450300   95.876500
  C    -33.199800   46.308800   96.975600
  H    -30.190300   46.162300   95.466000
  C    -32.774400   47.060000   94.579400
  H    -32.075600   47.706200   94.185500
  H    -33.613800   47.676200   94.774800
  C    -33.147700   46.087300   93.446700
  H    -33.800600   46.653500   92.789300
  H    -33.754500   45.343400   93.894300
  C    -31.972600   45.408200   92.639200
  H    -31.342800   44.805300   93.197300
  H    -31.282900   46.139700   92.093700
  H    -32.535300   44.776700   91.889700
  H    -38.147500   46.356100   96.768000
  H    -29.814700   45.434400   97.706500

 Total Charge           Charge          ....    0
 Multiplicity           Mult            ....    1
 Number of Electrons    NEL             ....  134
 Basis Dimension        Dim             ....  322

ORBITAL ENERGIES
----------------

  NO   OCC          E(Eh)            E(eV)
   0   2.0000     -88.970146     -2421.0008
   1   2.0000     -88.969016     -2420.9700
   2   2.0000     -10.339087      -281.3408
   3   2.0000     -10.330022      -281.0942
   4   2.0000     -10.317398      -280.7507
   5   2.0000     -10.308257      -280.5019
   6   2.0000     -10.299864      -280.2736
   7   2.0000     -10.299567      -280.2655
   8   2.0000     -10.296103      -280.1712
   9   2.0000     -10.291745      -280.0526
  10   2.0000     -10.285792      -279.8906
  11   2.0000     -10.284013      -279.8422
  12   2.0000     -10.283045      -279.8159
  13   2.0000     -10.280095      -279.7356
  14   2.0000     -10.278462      -279.6912
  15   2.0000     -10.276290      -279.6321
  16   2.0000      -8.084517      -219.9909
  17   2.0000      -8.082557      -219.9376
  18   2.0000      -6.043144      -164.4423
  19   2.0000      -6.041287      -164.3918
  20   2.0000      -6.039158      -164.3339
  21   2.0000      -6.037074      -164.2771
  22   2.0000      -6.035099      -164.2234
  23   2.0000      -6.033347      -164.1757
  24   2.0000      -1.007856       -27.4251
  25   2.0000      -0.985888       -26.8274
  26   2.0000      -0.926388       -25.2083
  27   2.0000      -0.911268       -24.7969
  28   2.0000      -0.872186       -23.7334
  29   2.0000      -0.852802       -23.2059
  30   2.0000      -0.846720       -23.0404
  31   2.0000      -0.812873       -22.1194
  32   2.0000      -0.788551       -21.4576
  33   2.0000      -0.776525       -21.1303
  34   2.0000      -0.712559       -19.3897
  35   2.0000      -0.699635       -19.0380
  36   2.0000      -0.695987       -18.9388
  37   2.0000      -0.671798       -18.2805
  38   2.0000      -0.634676       -17.2704
  39   2.0000      -0.626617       -17.0511
  40   2.0000      -0.603208       -16.4141
  41   2.0000      -0.573811       -15.6142
  42   2.0000      -0.564668       -15.3654
  43   2.0000      -0.546617       -14.8742
  44   2.0000      -0.542709       -14.7679
  45   2.0000      -0.531865       -14.4728
  46   2.0000      -0.520249       -14.1567
  47   2.0000      -0.517001       -14.0683
  48   2.0000      -0.501940       -13.6585
  49   2.0000      -0.498015       -13.5517
  50   2.0000      -0.494022       -13.4430
  51   2.0000      -0.479639       -13.0516
  52   2.0000      -0.474918       -12.9232
  53   2.0000      -0.467630       -12.7248
  54   2.0000      -0.463750       -12.6193
  55   2.0000      -0.451331       -12.2813
  56   2.0000      -0.443016       -12.0551
  57   2.0000      -0.433766       -11.8034
  58   2.0000      -0.431113       -11.7312
  59   2.0000      -0.427171       -11.6239
  60   2.0000      -0.420730       -11.4487
  61   2.0000      -0.417762       -11.3679
  62   2.0000      -0.399062       -10.8590
  63   2.0000      -0.363588        -9.8937
  64   2.0000      -0.335449        -9.1280
  65   2.0000      -0.331103        -9.0098
  66   2.0000      -0.280712        -7.6386
  67   0.0000       0.016548         0.4503
  68   0.0000       0.080747         2.1972
  69   0.0000       0.106330         2.8934
  70   0.0000       0.113493         3.0883
  71   0.0000       0.135195         3.6788

MULLIKEN ATOMIC CHARGES
-----------------------
   0 S :    0.087954
   1 C :   -0.073231
   2 C :   -0.102964
   3 C :   -0.029057
   4 C :   -0.095270
   5 H :    0.031734
   6 C :    0.089839
   7 H :   -0.000860
   8 H :    0.027983
   9 C :   -0.079466
  10 H :    0.025664
  11 H :    0.020145
  12 C :   -0.045654
  13 H :    0.041013
  14 H :    0.021770
  15 H :    0.035564
  16 S :    0.110008
  17 C :   -0.071985
  18 C :   -0.057812
  19 C :   -0.060489
  20 C :   -0.114100
  21 H :    0.022444
  22 C :    0.098449
  23 H :    0.000373
  24 H :    0.006393
  25 C :   -0.052850
  26 H :    0.027914
  27 H :    0.017482
  28 C :   -0.060952
  29 H :    0.024819
  30 H :    0.037091
  31 H :    0.046552
  32 H :    0.016952
  33 H :    0.054548
Sum of atomic charges:   -0.0000000

LOEWDIN ATOMIC CHARGES
----------------------
   0 S :    0.403909
   1 C :   -0.185310
   2 C :   -0.054349
   3 C :   -0.083829
   4 C :   -0.174788
   5 H :    0.035774
   6 C :   -0.038916
   7 H :    0.028697
   8 H :    0.034131
   9 C :   -0.053517
  10 H :    0.029515
  11 H :    0.023167
  12 C :   -0.063419
  13 H :    0.029861
  14 H :    0.020990
  15 H :    0.027834
  16 S :    0.413371
  17 C :   -0.195539
  18 C :   -0.074358
  19 C :   -0.055032
  20 C :   -0.179341
  21 H :    0.033675
  22 C :   -0.031192
  23 H :    0.021045
  24 H :    0.020282
  25 C :   -0.030136
  26 H :    0.025785
  27 H :    0.014964
  28 C :   -0.066522
  29 H :    0.010665
  30 H :    0.030194
  31 H :    0.037314
  32 H :    0.009344
  33 H :    0.035732

  Mayer bond orders larger than 0.100000
B(  0-S ,  1-C ) :   1.1298 B(  0-S ,  4-C ) :   1.1406 B(  1-C ,  2-C ) :   1.5972
B(  1-C , 32-H ) :   0.9759 B(  2-C ,  3-C ) :   1.2812 B(  2-C ,  6-C ) :   1.0518
B(  3-C ,  4-C ) :   1.5189 B(  3-C ,  5-H ) :   0.9764 B(  4-C , 20-C ) :   1.0984
B(  6-C ,  7-H ) :   0.9353 B(  6-C ,  8-H ) :   0.9203 B(  6-C ,  9-C ) :   1.0532
B(  9-C , 10-H ) :   0.9502 B(  9-C , 11-H ) :   0.9426 B(  9-C , 12-C ) :   1.0938
B( 12-C , 13-H ) :   0.9719 B( 12-C , 14-H ) :   0.9721 B( 12-C , 15-H ) :   0.9718
B( 16-S , 17-C ) :   1.1580 B( 16-S , 20-C ) :   1.1184 B( 17-C , 18-C ) :   1.6222
B( 17-C , 33-H ) :   0.9598 B( 18-C , 19-C ) :   1.2355 B( 18-C , 21-H ) :   0.9864
B( 19-C , 20-C ) :   1.5919 B( 19-C , 22-C ) :   1.0535 B( 22-C , 23-H ) :   0.9302
B( 22-C , 24-H ) :   0.9213 B( 22-C , 25-C ) :   1.0692 B( 25-C , 26-H ) :   0.9572
B( 25-C , 27-H ) :   0.9523 B( 25-C , 28-C ) :   1.0714 B( 28-C , 29-H ) :   0.9772
B( 28-C , 30-H ) :   0.9765 B( 28-C , 31-H ) :   0.9752

Dispersion correction           -0.014197995
FINAL SINGLE POINT ENERGY     -1339.867990568001

DIPOLE MOMENT
-------------
                                X             Y             Z
Electronic contribution:      8.91975       4.05735       2.06423
Nuclear contribution   :     -8.91414      -4.12318      -2.00206
                        -----------------------------------------
Total Dipole Moment    :      0.00561      -0.06583       0.06218
                        -----------------------------------------
Magnitude (a.u.)       :      0.09072
Magnitude (Debye)      :      0.23060

Rotational constants in cm-1:     0.024551     0.007560     0.006123
Rotational constants in MHz :   736.021762   226.628415   183.559314

                             ****ORCA TERMINATED NORMALLY****
TOTAL RUN TIME: 0 days 0 hours 0 minutes 31 seconds 165 msec
