                         Program Version 4.2.1 -  RELEASE  -
|  1> ! wB97X-D3 SP def2-SVP
|  2> %pal
|  3> nprocs 16
|  4> end
|  5>
|  6> * xyz 0 1
|  7> S 	 39.3964 	 13.5105 	 84.4786
|  8> C 	 39.6926 	 12.5892 	 82.9983
|  9> C 	 40.4999 	 11.5087 	 83.274
| 10> C 	 40.8255 	 11.4602 	 84.6765
| 11> C 	 40.2446 	 12.4052 	 85.4533
| 12> H 	 41.4716 	 10.7313 	 85.2276
| 13> C 	 40.9654 	 10.4665 	 82.2491
| 14> H 	 42.009 	 10.7897 	 81.9452
| 15> H 	 40.341 	 10.573 	 81.3714
| 16> C 	 41.196 	 9.03509 	 82.6906
| 17> H 	 41.9936 	 8.99972 	 83.4614
| 18> H 	 40.2391 	 8.69624 	 83.1221
| 19> C 	 41.6607 	 8.14173 	 81.5354
| 20> H 	 42.589 	 8.55289 	 81.1351
| 21> H 	 41.834 	 7.11903 	 81.9631
| 22> H 	 40.8318 	 8.15679 	 80.8076
| 23> S 	 40.955 	 14.2316 	 87.4651
| 24> C 	 41.1083 	 13.5751 	 89.0654
| 25> C 	 40.7475 	 12.2822 	 89.246
| 26> C 	 40.4589 	 11.6732 	 88.0047
| 27> C 	 40.4043 	 12.6157 	 86.9288
| 28> H 	 40.8871 	 11.8682 	 90.179
| 29> C 	 40.06 	 10.2489 	 87.8812
| 30> H 	 40.635 	 9.65203 	 88.5763
| 31> H 	 40.3865 	 9.93788 	 86.876
| 32> C 	 38.5888 	 10.0298 	 88.1217
| 33> H 	 38.0222 	 10.7854 	 87.4907
| 34> H 	 38.4643 	 10.3312 	 89.2094
| 35> C 	 37.9692 	 8.67584 	 87.8265
| 36> H 	 36.8607 	 8.7428 	 87.8561
| 37> H 	 38.4395 	 7.85838 	 88.3288
| 38> H 	 38.0404 	 8.3346 	 86.723
| 39> H 	 39.2021 	 12.6749 	 82.0946
| 40> H 	 41.4809 	 14.126 	 89.8665
| 41> *
| 42>
| 43>                          ****END OF INPUT****

CARTESIAN COORDINATES (ANGSTROEM)
---------------------------------
  S     39.396400   13.510500   84.478600
  C     39.692600   12.589200   82.998300
  C     40.499900   11.508700   83.274000
  C     40.825500   11.460200   84.676500
  C     40.244600   12.405200   85.453300
  H     41.471600   10.731300   85.227600
  C     40.965400   10.466500   82.249100
  H     42.009000   10.789700   81.945200
  H     40.341000   10.573000   81.371400
  C     41.196000    9.035090   82.690600
  H     41.993600    8.999720   83.461400
  H     40.239100    8.696240   83.122100
  C     41.660700    8.141730   81.535400
  H     42.589000    8.552890   81.135100
  H     41.834000    7.119030   81.963100
  H     40.831800    8.156790   80.807600
  S     40.955000   14.231600   87.465100
  C     41.108300   13.575100   89.065400
  C     40.747500   12.282200   89.246000
  C     40.458900   11.673200   88.004700
  C     40.404300   12.615700   86.928800
  H     40.887100   11.868200   90.179000
  C     40.060000   10.248900   87.881200
  H     40.635000    9.652030   88.576300
  H     40.386500    9.937880   86.876000
  C     38.588800   10.029800   88.121700
  H     38.022200   10.785400   87.490700
  H     38.464300   10.331200   89.209400
  C     37.969200    8.675840   87.826500
  H     36.860700    8.742800   87.856100
  H     38.439500    7.858380   88.328800
  H     38.040400    8.334600   86.723000
  H     39.202100   12.674900   82.094600
  H     41.480900   14.126000   89.866500

 Total Charge           Charge          ....    0
 Multiplicity           Mult            ....    1
 Number of Electrons    NEL             ....  134
 Basis Dimension        Dim             ....  322

ORBITAL ENERGIES
----------------

  NO   OCC          E(Eh)            E(eV)
   0   2.0000     -88.969898     -2420.9940
   1   2.0000     -88.962546     -2420.7940
   2   2.0000     -10.334524      -281.2167
   3   2.0000     -10.326237      -280.9912
   4   2.0000     -10.310055      -280.5509
   5   2.0000     -10.307990      -280.4947
   6   2.0000     -10.306976      -280.4671
   7   2.0000     -10.304153      -280.3903
   8   2.0000     -10.296566      -280.1838
   9   2.0000     -10.291380      -280.0427
  10   2.0000     -10.291227      -280.0385
  11   2.0000     -10.289869      -280.0016
  12   2.0000     -10.286757      -279.9169
  13   2.0000     -10.286167      -279.9008
  14   2.0000     -10.286076      -279.8983
  15   2.0000     -10.283466      -279.8273
  16   2.0000      -8.084207      -219.9825
  17   2.0000      -8.078020      -219.8141
  18   2.0000      -6.042574      -164.4268
  19   2.0000      -6.038923      -164.3274
  20   2.0000      -6.036586      -164.2639
  21   2.0000      -6.034999      -164.2207
  22   2.0000      -6.032363      -164.1489
  23   2.0000      -6.028734      -164.0502
  24   2.0000      -1.008082       -27.4313
  25   2.0000      -0.987302       -26.8659
  26   2.0000      -0.915165       -24.9029
  27   2.0000      -0.913249       -24.8508
  28   2.0000      -0.871917       -23.7261
  29   2.0000      -0.852329       -23.1931
  30   2.0000      -0.843762       -22.9599
  31   2.0000      -0.819635       -22.3034
  32   2.0000      -0.783970       -21.3329
  33   2.0000      -0.772615       -21.0239
  34   2.0000      -0.707384       -19.2489
  35   2.0000      -0.691350       -18.8126
  36   2.0000      -0.690035       -18.7768
  37   2.0000      -0.662208       -18.0196
  38   2.0000      -0.644169       -17.5287
  39   2.0000      -0.616957       -16.7883
  40   2.0000      -0.598045       -16.2736
  41   2.0000      -0.577455       -15.7134
  42   2.0000      -0.574948       -15.6451
  43   2.0000      -0.561288       -15.2734
  44   2.0000      -0.530274       -14.4295
  45   2.0000      -0.529836       -14.4176
  46   2.0000      -0.512652       -13.9500
  47   2.0000      -0.505343       -13.7511
  48   2.0000      -0.503928       -13.7126
  49   2.0000      -0.497227       -13.5302
  50   2.0000      -0.493818       -13.4375
  51   2.0000      -0.487012       -13.2523
  52   2.0000      -0.473709       -12.8903
  53   2.0000      -0.466476       -12.6934
  54   2.0000      -0.459762       -12.5108
  55   2.0000      -0.452721       -12.3192
  56   2.0000      -0.439011       -11.9461
  57   2.0000      -0.433203       -11.7880
  58   2.0000      -0.430723       -11.7206
  59   2.0000      -0.426821       -11.6144
  60   2.0000      -0.422009       -11.4835
  61   2.0000      -0.416078       -11.3221
  62   2.0000      -0.405997       -11.0477
  63   2.0000      -0.350296        -9.5321
  64   2.0000      -0.335780        -9.1370
  65   2.0000      -0.327276        -8.9056
  66   2.0000      -0.289631        -7.8813
  67   0.0000       0.032033         0.8717
  68   0.0000       0.069070         1.8795
  69   0.0000       0.109359         2.9758
  70   0.0000       0.121170         3.2972
  71   0.0000       0.127660         3.4738

MULLIKEN ATOMIC CHARGES
-----------------------
   0 S :    0.095624
   1 C :   -0.095099
   2 C :   -0.071622
   3 C :   -0.006018
   4 C :   -0.146443
   5 H :    0.032302
   6 C :    0.053044
   7 H :    0.038440
   8 H :    0.013801
   9 C :   -0.109300
  10 H :    0.036957
  11 H :    0.034394
  12 C :   -0.042302
  13 H :    0.033684
  14 H :    0.048453
  15 H :    0.037675
  16 S :    0.113394
  17 C :   -0.061659
  18 C :    0.004372
  19 C :   -0.071075
  20 C :   -0.136722
  21 H :   -0.009693
  22 C :    0.113694
  23 H :    0.012094
  24 H :   -0.000692
  25 C :   -0.096276
  26 H :    0.041910
  27 H :    0.031378
  28 C :   -0.042109
  29 H :    0.044362
  30 H :    0.030196
  31 H :    0.027391
  32 H :    0.018102
  33 H :    0.027742
Sum of atomic charges:   -0.0000000

LOEWDIN ATOMIC CHARGES
----------------------
   0 S :    0.410770
   1 C :   -0.187706
   2 C :   -0.055144
   3 C :   -0.082617
   4 C :   -0.207255
   5 H :    0.035299
   6 C :   -0.036809
   7 H :    0.040346
   8 H :    0.025140
   9 C :   -0.048088
  10 H :    0.024763
  11 H :    0.023008
  12 C :   -0.060811
  13 H :    0.024771
  14 H :    0.034490
  15 H :    0.027074
  16 S :    0.400829
  17 C :   -0.166456
  18 C :   -0.063755
  19 C :   -0.042684
  20 C :   -0.190032
  21 H :    0.023613
  22 C :   -0.038242
  23 H :    0.026476
  24 H :    0.026524
  25 C :   -0.047663
  26 H :    0.034900
  27 H :    0.029955
  28 C :   -0.078018
  29 H :    0.035591
  30 H :    0.019036
  31 H :    0.033736
  32 H :    0.014387
  33 H :    0.014572

  Mayer bond orders larger than 0.100000
B(  0-S ,  1-C ) :   1.1231 B(  0-S ,  4-C ) :   1.1596 B(  1-C ,  2-C ) :   1.6281
B(  1-C , 32-H ) :   0.9771 B(  2-C ,  3-C ) :   1.2178 B(  2-C ,  6-C ) :   1.0207
B(  3-C ,  4-C ) :   1.6103 B(  3-C ,  5-H ) :   0.9755 B(  4-C , 20-C ) :   0.9996
B(  6-C ,  7-H ) :   0.9287 B(  6-C ,  8-H ) :   0.9454 B(  6-C ,  9-C ) :   1.0686
B(  9-C , 10-H ) :   0.9450 B(  9-C , 11-H ) :   0.9586 B(  9-C , 12-C ) :   1.0828
B( 12-C , 13-H ) :   0.9735 B( 12-C , 14-H ) :   0.9736 B( 12-C , 15-H ) :   0.9762
B( 16-S , 17-C ) :   1.1638 B( 16-S , 20-C ) :   1.1405 B( 17-C , 18-C ) :   1.6252
B( 17-C , 33-H ) :   0.9660 B( 18-C , 19-C ) :   1.2310 B( 18-C , 21-H ) :   1.0018
B( 19-C , 20-C ) :   1.5843 B( 19-C , 22-C ) :   1.0657 B( 22-C , 23-H ) :   0.9197
B( 22-C , 24-H ) :   0.9186 B( 22-C , 25-C ) :   1.0669 B( 25-C , 26-H ) :   0.9545
B( 25-C , 27-H ) :   0.9497 B( 25-C , 28-C ) :   1.0878 B( 28-C , 29-H ) :   0.9709
B( 28-C , 30-H ) :   0.9726 B( 28-C , 31-H ) :   0.9686

Dispersion correction           -0.013832147
FINAL SINGLE POINT ENERGY     -1339.872076992668

DIPOLE MOMENT
-------------
                                X             Y             Z
Electronic contribution:      1.28824      29.86833       6.90594
Nuclear contribution   :     -1.09167     -30.57860      -6.85075
                        -----------------------------------------
Total Dipole Moment    :      0.19657      -0.71028       0.05520
                        -----------------------------------------
Magnitude (a.u.)       :      0.73904
Magnitude (Debye)      :      1.87849

Rotational constants in cm-1:     0.017156     0.008769     0.006808
Rotational constants in MHz :   514.315217   262.901287   204.089868

                             ****ORCA TERMINATED NORMALLY****
TOTAL RUN TIME: 0 days 0 hours 0 minutes 30 seconds 898 msec
