                         Program Version 4.2.1 -  RELEASE  -
|  1> ! wB97X-D3 SP def2-SVP
|  2> %pal
|  3> nprocs 16
|  4> end
|  5>
|  6> * xyz 0 1
|  7> S 	 -13.7308 	 76.7483 	 54.5589
|  8> C 	 -15.2567 	 77.0268 	 53.8552
|  9> C 	 -16.1756 	 75.9699 	 54.0071
| 10> C 	 -15.5573 	 74.8771 	 54.7482
| 11> C 	 -14.1849 	 75.113 	 54.9838
| 12> H 	 -15.955 	 73.944 	 55.0223
| 13> C 	 -17.6066 	 76.022 	 53.7529
| 14> H 	 -17.8806 	 75.1315 	 53.331
| 15> H 	 -17.9397 	 76.7398 	 52.9981
| 16> C 	 -18.4262 	 76.2373 	 55.056
| 17> H 	 -18.3288 	 75.3485 	 55.7139
| 18> H 	 -17.8975 	 77.0519 	 55.6263
| 19> C 	 -19.9267 	 76.4692 	 54.8197
| 20> H 	 -20.0488 	 77.3485 	 54.1693
| 21> H 	 -20.2518 	 75.6786 	 54.1282
| 22> H 	 -20.4121 	 76.3999 	 55.7798
| 23> S 	 -12.4879 	 74.9267 	 57.1806
| 24> C 	 -11.5669 	 73.4868 	 57.2672
| 25> C 	 -11.6603 	 72.7232 	 56.1121
| 26> C 	 -12.6526 	 73.1175 	 55.1884
| 27> C 	 -13.1753 	 74.3199 	 55.61
| 28> H 	 -11.0505 	 71.817 	 56.0879
| 29> C 	 -13.0823 	 72.2499 	 54.0505
| 30> H 	 -13.265 	 72.8832 	 53.1471
| 31> H 	 -14.1564 	 72.0529 	 54.3116
| 32> C 	 -12.3382 	 70.9349 	 53.7207
| 33> H 	 -12.224 	 70.3311 	 54.5414
| 34> H 	 -11.3402 	 71.2436 	 53.3287
| 35> C 	 -12.9259 	 70.0356 	 52.6853
| 36> H 	 -12.2279 	 69.3042 	 52.3414
| 37> H 	 -13.1884 	 70.6383 	 51.7872
| 38> H 	 -13.8599 	 69.5822 	 52.944
| 39> H 	 -15.588 	 78.0177 	 53.5902
| 40> H 	 -11.0041 	 73.1845 	 58.1601
| 41> *
| 42>
| 43>                          ****END OF INPUT****

CARTESIAN COORDINATES (ANGSTROEM)
---------------------------------
  S    -13.730800   76.748300   54.558900
  C    -15.256700   77.026800   53.855200
  C    -16.175600   75.969900   54.007100
  C    -15.557300   74.877100   54.748200
  C    -14.184900   75.113000   54.983800
  H    -15.955000   73.944000   55.022300
  C    -17.606600   76.022000   53.752900
  H    -17.880600   75.131500   53.331000
  H    -17.939700   76.739800   52.998100
  C    -18.426200   76.237300   55.056000
  H    -18.328800   75.348500   55.713900
  H    -17.897500   77.051900   55.626300
  C    -19.926700   76.469200   54.819700
  H    -20.048800   77.348500   54.169300
  H    -20.251800   75.678600   54.128200
  H    -20.412100   76.399900   55.779800
  S    -12.487900   74.926700   57.180600
  C    -11.566900   73.486800   57.267200
  C    -11.660300   72.723200   56.112100
  C    -12.652600   73.117500   55.188400
  C    -13.175300   74.319900   55.610000
  H    -11.050500   71.817000   56.087900
  C    -13.082300   72.249900   54.050500
  H    -13.265000   72.883200   53.147100
  H    -14.156400   72.052900   54.311600
  C    -12.338200   70.934900   53.720700
  H    -12.224000   70.331100   54.541400
  H    -11.340200   71.243600   53.328700
  C    -12.925900   70.035600   52.685300
  H    -12.227900   69.304200   52.341400
  H    -13.188400   70.638300   51.787200
  H    -13.859900   69.582200   52.944000
  H    -15.588000   78.017700   53.590200
  H    -11.004100   73.184500   58.160100

 Total Charge           Charge          ....    0
 Multiplicity           Mult            ....    1
 Number of Electrons    NEL             ....  134
 Basis Dimension        Dim             ....  322

ORBITAL ENERGIES
----------------

  NO   OCC          E(Eh)            E(eV)
   0   2.0000     -88.965934     -2420.8861
   1   2.0000     -88.962133     -2420.7827
   2   2.0000     -10.323754      -280.9236
   3   2.0000     -10.321139      -280.8525
   4   2.0000     -10.314715      -280.6777
   5   2.0000     -10.306248      -280.4473
   6   2.0000     -10.304437      -280.3980
   7   2.0000     -10.300675      -280.2956
   8   2.0000     -10.300510      -280.2911
   9   2.0000     -10.295116      -280.1443
  10   2.0000     -10.289113      -279.9810
  11   2.0000     -10.289098      -279.9806
  12   2.0000     -10.286535      -279.9109
  13   2.0000     -10.280866      -279.7566
  14   2.0000     -10.280660      -279.7510
  15   2.0000     -10.275946      -279.6227
  16   2.0000      -8.080446      -219.8801
  17   2.0000      -8.077768      -219.8072
  18   2.0000      -6.038832      -164.3250
  19   2.0000      -6.036023      -164.2485
  20   2.0000      -6.035121      -164.2240
  21   2.0000      -6.032139      -164.1429
  22   2.0000      -6.031200      -164.1173
  23   2.0000      -6.028765      -164.0510
  24   2.0000      -1.005102       -27.3502
  25   2.0000      -0.981845       -26.7173
  26   2.0000      -0.915659       -24.9164
  27   2.0000      -0.914327       -24.8801
  28   2.0000      -0.869963       -23.6729
  29   2.0000      -0.859569       -23.3901
  30   2.0000      -0.847804       -23.0699
  31   2.0000      -0.809316       -22.0226
  32   2.0000      -0.788986       -21.4694
  33   2.0000      -0.768383       -20.9088
  34   2.0000      -0.710390       -19.3307
  35   2.0000      -0.700635       -19.0652
  36   2.0000      -0.692752       -18.8507
  37   2.0000      -0.653676       -17.7874
  38   2.0000      -0.643333       -17.5060
  39   2.0000      -0.618262       -16.8238
  40   2.0000      -0.601038       -16.3551
  41   2.0000      -0.573695       -15.6110
  42   2.0000      -0.566742       -15.4218
  43   2.0000      -0.556259       -15.1366
  44   2.0000      -0.537163       -14.6170
  45   2.0000      -0.529198       -14.4002
  46   2.0000      -0.518107       -14.0984
  47   2.0000      -0.510898       -13.9022
  48   2.0000      -0.503825       -13.7098
  49   2.0000      -0.497740       -13.5442
  50   2.0000      -0.492323       -13.3968
  51   2.0000      -0.473093       -12.8735
  52   2.0000      -0.468491       -12.7483
  53   2.0000      -0.463219       -12.6048
  54   2.0000      -0.460217       -12.5231
  55   2.0000      -0.452462       -12.3121
  56   2.0000      -0.446969       -12.1626
  57   2.0000      -0.438840       -11.9414
  58   2.0000      -0.434187       -11.8148
  59   2.0000      -0.426032       -11.5929
  60   2.0000      -0.425222       -11.5709
  61   2.0000      -0.421516       -11.4700
  62   2.0000      -0.412542       -11.2258
  63   2.0000      -0.336198        -9.1484
  64   2.0000      -0.331935        -9.0324
  65   2.0000      -0.322291        -8.7700
  66   2.0000      -0.286861        -7.8059
  67   0.0000       0.035331         0.9614
  68   0.0000       0.058039         1.5793
  69   0.0000       0.116843         3.1795
  70   0.0000       0.120088         3.2678
  71   0.0000       0.129413         3.5215

MULLIKEN ATOMIC CHARGES
-----------------------
   0 S :    0.117980
   1 C :   -0.099375
   2 C :   -0.100908
   3 C :    0.055047
   4 C :   -0.204721
   5 H :   -0.006194
   6 C :    0.112142
   7 H :   -0.006345
   8 H :    0.013589
   9 C :   -0.134866
  10 H :    0.029361
  11 H :    0.039043
  12 C :   -0.010545
  13 H :    0.031488
  14 H :    0.019989
  15 H :    0.051012
  16 S :    0.121600
  17 C :   -0.096766
  18 C :   -0.068822
  19 C :    0.026162
  20 C :   -0.194327
  21 H :    0.019519
  22 C :    0.043535
  23 H :    0.039742
  24 H :    0.030015
  25 C :   -0.039480
  26 H :    0.018617
  27 H :    0.037239
  28 C :   -0.026975
  29 H :    0.034281
  30 H :    0.019160
  31 H :    0.025035
  32 H :    0.041462
  33 H :    0.063305
Sum of atomic charges:   -0.0000000

LOEWDIN ATOMIC CHARGES
----------------------
   0 S :    0.427208
   1 C :   -0.216826
   2 C :   -0.057195
   3 C :   -0.052337
   4 C :   -0.194826
   5 H :    0.020961
   6 C :   -0.036371
   7 H :    0.018163
   8 H :    0.030869
   9 C :   -0.040985
  10 H :    0.023183
  11 H :    0.026532
  12 C :   -0.066097
  13 H :    0.027487
  14 H :    0.026867
  15 H :    0.030671
  16 S :    0.395324
  17 C :   -0.196880
  18 C :   -0.080020
  19 C :   -0.043721
  20 C :   -0.198103
  21 H :    0.030484
  22 C :   -0.039745
  23 H :    0.041659
  24 H :    0.041049
  25 C :   -0.036875
  26 H :    0.013737
  27 H :    0.033581
  28 C :   -0.059098
  29 H :    0.027599
  30 H :    0.027752
  31 H :    0.020448
  32 H :    0.022221
  33 H :    0.033284

  Mayer bond orders larger than 0.100000
B(  0-S ,  1-C ) :   1.1564 B(  0-S ,  4-C ) :   1.1669 B(  1-C ,  2-C ) :   1.5927
B(  1-C , 32-H ) :   0.9646 B(  2-C ,  3-C ) :   1.2236 B(  2-C ,  6-C ) :   1.0642
B(  3-C ,  4-C ) :   1.5655 B(  3-C ,  5-H ) :   0.9987 B(  4-C , 20-C ) :   1.0573
B(  6-C ,  7-H ) :   0.9114 B(  6-C ,  8-H ) :   0.9396 B(  6-C ,  9-C ) :   1.0476
B(  9-C , 10-H ) :   0.9531 B(  9-C , 11-H ) :   0.9606 B(  9-C , 12-C ) :   1.0772
B( 12-C , 13-H ) :   0.9739 B( 12-C , 14-H ) :   0.9697 B( 12-C , 15-H ) :   0.9730
B( 16-S , 17-C ) :   1.1595 B( 16-S , 20-C ) :   1.1295 B( 17-C , 18-C ) :   1.6087
B( 17-C , 20-C ) :   0.1047 B( 17-C , 33-H ) :   0.9614 B( 18-C , 19-C ) :   1.2357
B( 18-C , 21-H ) :   0.9825 B( 19-C , 20-C ) :   1.5953 B( 19-C , 22-C ) :   1.0409
B( 22-C , 23-H ) :   0.9155 B( 22-C , 24-H ) :   0.9231 B( 22-C , 25-C ) :   1.0709
B( 25-C , 26-H ) :   0.9457 B( 25-C , 27-H ) :   0.9495 B( 25-C , 28-C ) :   1.1014
B( 28-C , 29-H ) :   0.9703 B( 28-C , 30-H ) :   0.9704 B( 28-C , 31-H ) :   0.9726

Dispersion correction           -0.013600971
FINAL SINGLE POINT ENERGY     -1339.866626899071

DIPOLE MOMENT
-------------
                                X             Y             Z
Electronic contribution:     18.06526      14.12266      11.63963
Nuclear contribution   :    -18.42866     -14.72512     -11.76237
                        -----------------------------------------
Total Dipole Moment    :     -0.36340      -0.60246      -0.12273
                        -----------------------------------------
Magnitude (a.u.)       :      0.71419
Magnitude (Debye)      :      1.81534

Rotational constants in cm-1:     0.018034     0.007646     0.006250
Rotational constants in MHz :   540.656413   229.233030   187.374195

                             ****ORCA TERMINATED NORMALLY****
TOTAL RUN TIME: 0 days 0 hours 0 minutes 30 seconds 643 msec
