                         Program Version 4.2.1 -  RELEASE  -
|  1> ! wB97X-D3 SP def2-SVP
|  2> %pal
|  3> nprocs 16
|  4> end
|  5>
|  6> * xyz 0 1
|  7> S 	 22.9052 	 9.61097 	 65.1507
|  8> C 	 23.0128 	 11.354 	 65.2802
|  9> C 	 22.4858 	 11.7313 	 66.4976
| 10> C 	 21.86 	 10.705 	 67.2683
| 11> C 	 22.0325 	 9.50296 	 66.6688
| 12> H 	 21.2696 	 10.7838 	 68.1945
| 13> C 	 22.2614 	 13.1909 	 66.9861
| 14> H 	 21.4957 	 13.2501 	 67.7522
| 15> H 	 21.8351 	 13.7784 	 66.2382
| 16> C 	 23.5909 	 13.9666 	 67.3201
| 17> H 	 24.0326 	 13.3422 	 68.0326
| 18> H 	 24.043 	 14.001 	 66.3603
| 19> C 	 23.5662 	 15.3539 	 67.9683
| 20> H 	 23.1278 	 15.0616 	 68.9067
| 21> H 	 24.6411 	 15.3881 	 68.2897
| 22> H 	 22.9692 	 16.1881 	 67.5536
| 23> S 	 20.4131 	 7.40156 	 65.9378
| 24> C 	 19.9452 	 6.33229 	 67.2559
| 25> C 	 20.7421 	 6.49864 	 68.357
| 26> C 	 21.5144 	 7.6948 	 68.3503
| 27> C 	 21.4143 	 8.24546 	 67.0655
| 28> H 	 20.598 	 5.86097 	 69.1867
| 29> C 	 22.3871 	 8.08999 	 69.541
| 30> H 	 22.063 	 9.0827 	 69.6445
| 31> H 	 23.4214 	 8.17657 	 69.2956
| 32> C 	 22.1876 	 7.26261 	 70.8512
| 33> H 	 22.4776 	 6.25003 	 70.6331
| 34> H 	 21.118 	 7.2642 	 70.96
| 35> C 	 22.8581 	 7.94196 	 72.0351
| 36> H 	 23.8684 	 8.05176 	 71.8139
| 37> H 	 22.7857 	 7.3521 	 72.9745
| 38> H 	 22.5207 	 8.93816 	 72.2008
| 39> H 	 23.4971 	 12.0555 	 64.6547
| 40> H 	 19.1765 	 5.57477 	 67.0959
| 41> *
| 42>
| 43>                          ****END OF INPUT****

CARTESIAN COORDINATES (ANGSTROEM)
---------------------------------
  S     22.905200    9.610970   65.150700
  C     23.012800   11.354000   65.280200
  C     22.485800   11.731300   66.497600
  C     21.860000   10.705000   67.268300
  C     22.032500    9.502960   66.668800
  H     21.269600   10.783800   68.194500
  C     22.261400   13.190900   66.986100
  H     21.495700   13.250100   67.752200
  H     21.835100   13.778400   66.238200
  C     23.590900   13.966600   67.320100
  H     24.032600   13.342200   68.032600
  H     24.043000   14.001000   66.360300
  C     23.566200   15.353900   67.968300
  H     23.127800   15.061600   68.906700
  H     24.641100   15.388100   68.289700
  H     22.969200   16.188100   67.553600
  S     20.413100    7.401560   65.937800
  C     19.945200    6.332290   67.255900
  C     20.742100    6.498640   68.357000
  C     21.514400    7.694800   68.350300
  C     21.414300    8.245460   67.065500
  H     20.598000    5.860970   69.186700
  C     22.387100    8.089990   69.541000
  H     22.063000    9.082700   69.644500
  H     23.421400    8.176570   69.295600
  C     22.187600    7.262610   70.851200
  H     22.477600    6.250030   70.633100
  H     21.118000    7.264200   70.960000
  C     22.858100    7.941960   72.035100
  H     23.868400    8.051760   71.813900
  H     22.785700    7.352100   72.974500
  H     22.520700    8.938160   72.200800
  H     23.497100   12.055500   64.654700
  H     19.176500    5.574770   67.095900

 Total Charge           Charge          ....    0
 Multiplicity           Mult            ....    1
 Number of Electrons    NEL             ....  134
 Basis Dimension        Dim             ....  322

ORBITAL ENERGIES
----------------

  NO   OCC          E(Eh)            E(eV)
   0   2.0000     -88.967684     -2420.9337
   1   2.0000     -88.964577     -2420.8492
   2   2.0000     -10.322813      -280.8980
   3   2.0000     -10.322191      -280.8811
   4   2.0000     -10.315055      -280.6869
   5   2.0000     -10.309564      -280.5375
   6   2.0000     -10.304004      -280.3862
   7   2.0000     -10.300228      -280.2835
   8   2.0000     -10.290026      -280.0058
   9   2.0000     -10.288947      -279.9765
  10   2.0000     -10.288630      -279.9679
  11   2.0000     -10.288063      -279.9524
  12   2.0000     -10.282105      -279.7903
  13   2.0000     -10.281893      -279.7845
  14   2.0000     -10.278193      -279.6839
  15   2.0000     -10.276535      -279.6387
  16   2.0000      -8.082712      -219.9418
  17   2.0000      -8.079212      -219.8465
  18   2.0000      -6.040991      -164.3837
  19   2.0000      -6.037828      -164.2977
  20   2.0000      -6.037410      -164.2863
  21   2.0000      -6.033722      -164.1859
  22   2.0000      -6.033464      -164.1789
  23   2.0000      -6.029880      -164.0814
  24   2.0000      -1.009195       -27.4616
  25   2.0000      -0.984701       -26.7951
  26   2.0000      -0.914100       -24.8739
  27   2.0000      -0.906205       -24.6591
  28   2.0000      -0.869632       -23.6639
  29   2.0000      -0.857519       -23.3343
  30   2.0000      -0.848107       -23.0782
  31   2.0000      -0.815858       -22.2006
  32   2.0000      -0.786498       -21.4017
  33   2.0000      -0.772107       -21.0101
  34   2.0000      -0.717056       -19.5121
  35   2.0000      -0.701284       -19.0829
  36   2.0000      -0.690828       -18.7984
  37   2.0000      -0.654945       -17.8220
  38   2.0000      -0.641437       -17.4544
  39   2.0000      -0.617263       -16.7966
  40   2.0000      -0.601445       -16.3662
  41   2.0000      -0.575978       -15.6732
  42   2.0000      -0.572234       -15.5713
  43   2.0000      -0.559682       -15.2297
  44   2.0000      -0.530540       -14.4367
  45   2.0000      -0.528601       -14.3840
  46   2.0000      -0.517116       -14.0714
  47   2.0000      -0.515276       -14.0214
  48   2.0000      -0.503496       -13.7008
  49   2.0000      -0.494534       -13.4570
  50   2.0000      -0.492366       -13.3980
  51   2.0000      -0.484314       -13.1788
  52   2.0000      -0.472998       -12.8709
  53   2.0000      -0.467532       -12.7222
  54   2.0000      -0.464066       -12.6279
  55   2.0000      -0.453925       -12.3519
  56   2.0000      -0.442759       -12.0481
  57   2.0000      -0.433781       -11.8038
  58   2.0000      -0.432328       -11.7643
  59   2.0000      -0.425725       -11.5846
  60   2.0000      -0.423580       -11.5262
  61   2.0000      -0.413956       -11.2643
  62   2.0000      -0.407949       -11.1009
  63   2.0000      -0.349225        -9.5029
  64   2.0000      -0.333673        -9.0797
  65   2.0000      -0.327147        -8.9021
  66   2.0000      -0.287831        -7.8323
  67   0.0000       0.032887         0.8949
  68   0.0000       0.068871         1.8741
  69   0.0000       0.110972         3.0197
  70   0.0000       0.129891         3.5345
  71   0.0000       0.132329         3.6009

MULLIKEN ATOMIC CHARGES
-----------------------
   0 S :    0.102823
   1 C :   -0.095367
   2 C :   -0.081632
   3 C :    0.004526
   4 C :   -0.160286
   5 H :    0.035511
   6 C :    0.072645
   7 H :    0.004307
   8 H :    0.006949
   9 C :   -0.100092
  10 H :    0.020572
  11 H :    0.022757
  12 C :   -0.021856
  13 H :    0.008241
  14 H :    0.042568
  15 H :    0.058083
  16 S :    0.127408
  17 C :   -0.109252
  18 C :   -0.014912
  19 C :   -0.067727
  20 C :   -0.157825
  21 H :    0.006014
  22 C :    0.109963
  23 H :   -0.006617
  24 H :    0.035309
  25 C :   -0.088171
  26 H :    0.038096
  27 H :    0.027670
  28 C :    0.012200
  29 H :    0.012144
  30 H :    0.042485
  31 H :    0.021612
  32 H :    0.033569
  33 H :    0.058284
Sum of atomic charges:    0.0000000

LOEWDIN ATOMIC CHARGES
----------------------
   0 S :    0.397143
   1 C :   -0.198299
   2 C :   -0.054938
   3 C :   -0.071778
   4 C :   -0.182791
   5 H :    0.039710
   6 C :   -0.032128
   7 H :    0.020161
   8 H :    0.018571
   9 C :   -0.033986
  10 H :    0.017973
  11 H :    0.013995
  12 C :   -0.076356
  13 H :    0.023789
  14 H :    0.044817
  15 H :    0.032122
  16 S :    0.414035
  17 C :   -0.181291
  18 C :   -0.068926
  19 C :   -0.047602
  20 C :   -0.211428
  21 H :    0.023728
  22 C :   -0.024610
  23 H :    0.024562
  24 H :    0.030366
  25 C :   -0.033790
  26 H :    0.023114
  27 H :    0.021602
  28 C :   -0.055819
  29 H :    0.018217
  30 H :    0.033911
  31 H :    0.024422
  32 H :    0.023674
  33 H :    0.027831

  Mayer bond orders larger than 0.100000
B(  0-S ,  1-C ) :   1.1132 B(  0-S ,  4-C ) :   1.1505 B(  1-C ,  2-C ) :   1.6365
B(  1-C , 32-H ) :   0.9721 B(  2-C ,  3-C ) :   1.2188 B(  2-C ,  6-C ) :   1.0181
B(  3-C ,  4-C ) :   1.6060 B(  3-C ,  5-H ) :   0.9853 B(  4-C , 20-C ) :   1.0261
B(  6-C ,  7-H ) :   0.9498 B(  6-C ,  8-H ) :   0.9424 B(  6-C ,  9-C ) :   1.0391
B(  9-C , 10-H ) :   0.9670 B(  9-C , 11-H ) :   0.9629 B(  9-C , 12-C ) :   1.0695
B( 12-C , 13-H ) :   0.9709 B( 12-C , 14-H ) :   0.9690 B( 12-C , 15-H ) :   0.9744
B( 16-S , 17-C ) :   1.1487 B( 16-S , 20-C ) :   1.1578 B( 17-C , 18-C ) :   1.6007
B( 17-C , 33-H ) :   0.9669 B( 18-C , 19-C ) :   1.2529 B( 18-C , 21-H ) :   0.9858
B( 19-C , 20-C ) :   1.5894 B( 19-C , 22-C ) :   1.0045 B( 22-C , 23-H ) :   0.9127
B( 22-C , 24-H ) :   0.9277 B( 22-C , 25-C ) :   1.0818 B( 25-C , 26-H ) :   0.9496
B( 25-C , 27-H ) :   0.9536 B( 25-C , 28-C ) :   1.0810 B( 28-C , 29-H ) :   0.9709
B( 28-C , 30-H ) :   0.9720 B( 28-C , 31-H ) :   0.9718

Dispersion correction           -0.013299925
FINAL SINGLE POINT ENERGY     -1339.843973179287

DIPOLE MOMENT
-------------
                                X             Y             Z
Electronic contribution:     -7.81718     -17.08913     -24.22497
Nuclear contribution   :      7.77054      17.29480      24.91407
                        -----------------------------------------
Total Dipole Moment    :     -0.04664       0.20568       0.68911
                        -----------------------------------------
Magnitude (a.u.)       :      0.72066
Magnitude (Debye)      :      1.83176

Rotational constants in cm-1:     0.017033     0.008192     0.005976
Rotational constants in MHz :   510.631323   245.599551   179.145048

                             ****ORCA TERMINATED NORMALLY****
TOTAL RUN TIME: 0 days 0 hours 0 minutes 27 seconds 706 msec
