                         Program Version 4.2.1 -  RELEASE  -
|  1> ! wB97X-D3 SP def2-SVP
|  2> %pal
|  3> nprocs 16
|  4> end
|  5>
|  6> * xyz 0 1
|  7> S 	 -101.205 	 42.482 	 129.638
|  8> C 	 -99.644 	 42.618 	 130.309
|  9> C 	 -98.7195 	 43.0974 	 129.405
| 10> C 	 -99.4052 	 43.5032 	 128.192
| 11> C 	 -100.772 	 43.2277 	 128.14
| 12> H 	 -98.9481 	 43.9261 	 127.341
| 13> C 	 -97.2455 	 43.1991 	 129.67
| 14> H 	 -97.229 	 43.1276 	 130.795
| 15> H 	 -96.8124 	 44.133 	 129.354
| 16> C 	 -96.3462 	 42.0478 	 129.273
| 17> H 	 -96.4613 	 41.1262 	 129.798
| 18> H 	 -96.6674 	 41.6939 	 128.282
| 19> C 	 -94.8783 	 42.4144 	 129.301
| 20> H 	 -94.3435 	 42.2878 	 130.261
| 21> H 	 -94.2527 	 41.8882 	 128.587
| 22> H 	 -94.7289 	 43.4819 	 129.152
| 23> S 	 -103.103 	 44.381 	 127.403
| 24> C 	 -103.491 	 44.433 	 125.715
| 25> C 	 -102.491 	 43.9266 	 124.932
| 26> C 	 -101.481 	 43.2817 	 125.677
| 27> C 	 -101.609 	 43.5383 	 127.039
| 28> H 	 -102.641 	 43.8581 	 123.886
| 29> C 	 -100.413 	 42.4451 	 125.085
| 30> H 	 -99.5116 	 42.7446 	 125.501
| 31> H 	 -100.353 	 42.4889 	 123.992
| 32> C 	 -100.548 	 40.8963 	 125.408
| 33> H 	 -101.605 	 40.6305 	 125.201
| 34> H 	 -100.322 	 40.5779 	 126.43
| 35> C 	 -99.8828 	 40.0528 	 124.316
| 36> H 	 -100.128 	 40.3414 	 123.281
| 37> H 	 -100.01 	 38.9928 	 124.408
| 38> H 	 -98.7966 	 40.1866 	 124.404
| 39> H 	 -99.4969 	 42.3271 	 131.344
| 40> H 	 -104.258 	 44.9711 	 125.17
| 41> *
| 42>
| 43>                          ****END OF INPUT****

CARTESIAN COORDINATES (ANGSTROEM)
---------------------------------
  S    -101.205000   42.482000  129.638000
  C    -99.644000   42.618000  130.309000
  C    -98.719500   43.097400  129.405000
  C    -99.405200   43.503200  128.192000
  C    -100.772000   43.227700  128.140000
  H    -98.948100   43.926100  127.341000
  C    -97.245500   43.199100  129.670000
  H    -97.229000   43.127600  130.795000
  H    -96.812400   44.133000  129.354000
  C    -96.346200   42.047800  129.273000
  H    -96.461300   41.126200  129.798000
  H    -96.667400   41.693900  128.282000
  C    -94.878300   42.414400  129.301000
  H    -94.343500   42.287800  130.261000
  H    -94.252700   41.888200  128.587000
  H    -94.728900   43.481900  129.152000
  S    -103.103000   44.381000  127.403000
  C    -103.491000   44.433000  125.715000
  C    -102.491000   43.926600  124.932000
  C    -101.481000   43.281700  125.677000
  C    -101.609000   43.538300  127.039000
  H    -102.641000   43.858100  123.886000
  C    -100.413000   42.445100  125.085000
  H    -99.511600   42.744600  125.501000
  H    -100.353000   42.488900  123.992000
  C    -100.548000   40.896300  125.408000
  H    -101.605000   40.630500  125.201000
  H    -100.322000   40.577900  126.430000
  C    -99.882800   40.052800  124.316000
  H    -100.128000   40.341400  123.281000
  H    -100.010000   38.992800  124.408000
  H    -98.796600   40.186600  124.404000
  H    -99.496900   42.327100  131.344000
  H    -104.258000   44.971100  125.170000

 Total Charge           Charge          ....    0
 Multiplicity           Mult            ....    1
 Number of Electrons    NEL             ....  134
 Basis Dimension        Dim             ....  322

ORBITAL ENERGIES
----------------

  NO   OCC          E(Eh)            E(eV)
   0   2.0000     -88.967803     -2420.9370
   1   2.0000     -88.964993     -2420.8605
   2   2.0000     -10.324453      -280.9426
   3   2.0000     -10.321941      -280.8743
   4   2.0000     -10.312677      -280.6222
   5   2.0000     -10.312616      -280.6205
   6   2.0000     -10.303552      -280.3739
   7   2.0000     -10.300347      -280.2867
   8   2.0000     -10.294125      -280.1174
   9   2.0000     -10.291202      -280.0378
  10   2.0000     -10.287630      -279.9406
  11   2.0000     -10.287402      -279.9344
  12   2.0000     -10.286360      -279.9061
  13   2.0000     -10.283620      -279.8315
  14   2.0000     -10.277845      -279.6744
  15   2.0000     -10.275930      -279.6223
  16   2.0000      -8.082643      -219.9399
  17   2.0000      -8.080933      -219.8934
  18   2.0000      -6.041105      -164.3868
  19   2.0000      -6.039355      -164.3392
  20   2.0000      -6.037126      -164.2785
  21   2.0000      -6.035113      -164.2238
  22   2.0000      -6.033454      -164.1786
  23   2.0000      -6.031878      -164.1357
  24   2.0000      -1.013344       -27.5745
  25   2.0000      -0.990157       -26.9435
  26   2.0000      -0.917365       -24.9628
  27   2.0000      -0.908256       -24.7149
  28   2.0000      -0.877871       -23.8881
  29   2.0000      -0.854913       -23.2634
  30   2.0000      -0.849155       -23.1067
  31   2.0000      -0.817270       -22.2390
  32   2.0000      -0.783652       -21.3242
  33   2.0000      -0.770382       -20.9632
  34   2.0000      -0.711605       -19.3638
  35   2.0000      -0.704909       -19.1815
  36   2.0000      -0.693256       -18.8645
  37   2.0000      -0.667107       -18.1529
  38   2.0000      -0.648121       -17.6363
  39   2.0000      -0.620023       -16.8717
  40   2.0000      -0.596400       -16.2289
  41   2.0000      -0.579734       -15.7754
  42   2.0000      -0.569297       -15.4914
  43   2.0000      -0.553751       -15.0683
  44   2.0000      -0.525414       -14.2972
  45   2.0000      -0.525164       -14.2904
  46   2.0000      -0.518302       -14.1037
  47   2.0000      -0.515560       -14.0291
  48   2.0000      -0.504815       -13.7367
  49   2.0000      -0.502761       -13.6808
  50   2.0000      -0.493074       -13.4172
  51   2.0000      -0.486600       -13.2411
  52   2.0000      -0.469676       -12.7805
  53   2.0000      -0.464804       -12.6480
  54   2.0000      -0.458281       -12.4705
  55   2.0000      -0.456427       -12.4200
  56   2.0000      -0.448596       -12.2069
  57   2.0000      -0.443897       -12.0791
  58   2.0000      -0.435173       -11.8417
  59   2.0000      -0.432686       -11.7740
  60   2.0000      -0.423586       -11.5264
  61   2.0000      -0.404679       -11.0119
  62   2.0000      -0.401061       -10.9134
  63   2.0000      -0.348472        -9.4824
  64   2.0000      -0.332832        -9.0568
  65   2.0000      -0.328723        -8.9450
  66   2.0000      -0.289726        -7.8838
  67   0.0000       0.027691         0.7535
  68   0.0000       0.075190         2.0460
  69   0.0000       0.115691         3.1481
  70   0.0000       0.119724         3.2579
  71   0.0000       0.134845         3.6693

MULLIKEN ATOMIC CHARGES
-----------------------
   0 S :    0.122690
   1 C :   -0.138675
   2 C :   -0.069193
   3 C :    0.029215
   4 C :   -0.156065
   5 H :   -0.002816
   6 C :    0.065645
   7 H :    0.024578
   8 H :    0.027525
   9 C :   -0.034138
  10 H :    0.018625
  11 H :    0.014894
  12 C :   -0.054194
  13 H :    0.030595
  14 H :    0.034160
  15 H :    0.016825
  16 S :    0.124003
  17 C :   -0.069258
  18 C :   -0.048466
  19 C :   -0.026750
  20 C :   -0.172547
  21 H :    0.006966
  22 C :    0.124333
  23 H :    0.000663
  24 H :    0.011695
  25 C :   -0.083622
  26 H :    0.029819
  27 H :    0.049661
  28 C :   -0.065566
  29 H :    0.031465
  30 H :    0.032661
  31 H :    0.018737
  32 H :    0.055211
  33 H :    0.051322
Sum of atomic charges:    0.0000000

LOEWDIN ATOMIC CHARGES
----------------------
   0 S :    0.431633
   1 C :   -0.206744
   2 C :   -0.065630
   3 C :   -0.056480
   4 C :   -0.213523
   5 H :    0.020264
   6 C :   -0.032617
   7 H :    0.040320
   8 H :    0.028335
   9 C :   -0.044857
  10 H :    0.023171
  11 H :    0.022687
  12 C :   -0.069964
  13 H :    0.028454
  14 H :    0.027893
  15 H :    0.022494
  16 S :    0.419525
  17 C :   -0.191383
  18 C :   -0.069933
  19 C :   -0.048401
  20 C :   -0.199572
  21 H :    0.026391
  22 C :   -0.022795
  23 H :    0.019489
  24 H :    0.032007
  25 C :   -0.034691
  26 H :    0.026703
  27 H :    0.027711
  28 C :   -0.071410
  29 H :    0.024865
  30 H :    0.023248
  31 H :    0.020720
  32 H :    0.028566
  33 H :    0.033524

  Mayer bond orders larger than 0.100000
B(  0-S ,  1-C ) :   1.1633 B(  0-S ,  4-C ) :   1.1494 B(  1-C ,  2-C ) :   1.5779
B(  1-C , 32-H ) :   0.9673 B(  2-C ,  3-C ) :   1.2517 B(  2-C ,  6-C ) :   1.0337
B(  3-C ,  4-C ) :   1.5447 B(  3-C ,  5-H ) :   1.0012 B(  4-C , 20-C ) :   1.0828
B(  6-C ,  7-H ) :   0.9353 B(  6-C ,  8-H ) :   0.9425 B(  6-C ,  9-C ) :   1.0625
B(  9-C , 10-H ) :   0.9506 B(  9-C , 11-H ) :   0.9566 B(  9-C , 12-C ) :   1.0720
B( 12-C , 13-H ) :   0.9750 B( 12-C , 14-H ) :   0.9742 B( 12-C , 15-H ) :   0.9759
B( 16-S , 17-C ) :   1.1557 B( 16-S , 20-C ) :   1.1376 B( 17-C , 18-C ) :   1.6253
B( 17-C , 20-C ) :   0.1011 B( 17-C , 33-H ) :   0.9590 B( 18-C , 19-C ) :   1.2551
B( 18-C , 21-H ) :   0.9873 B( 19-C , 20-C ) :   1.5610 B( 19-C , 22-C ) :   1.0707
B( 22-C , 23-H ) :   0.9127 B( 22-C , 24-H ) :   0.9357 B( 22-C , 25-C ) :   1.0447
B( 25-C , 26-H ) :   0.9619 B( 25-C , 27-H ) :   0.9572 B( 25-C , 28-C ) :   1.0800
B( 28-C , 29-H ) :   0.9737 B( 28-C , 30-H ) :   0.9752 B( 28-C , 31-H ) :   0.9735

Dispersion correction           -0.014028050
FINAL SINGLE POINT ENERGY     -1339.873200496179

DIPOLE MOMENT
-------------
                                X             Y             Z
Electronic contribution:    -26.80116      12.27679       8.88338
Nuclear contribution   :     27.32402     -12.45041      -9.20863
                        -----------------------------------------
Total Dipole Moment    :      0.52286      -0.17363      -0.32525
                        -----------------------------------------
Magnitude (a.u.)       :      0.63978
Magnitude (Debye)      :      1.62619

Rotational constants in cm-1:     0.018527     0.008608     0.006747
Rotational constants in MHz :   555.432614   258.067455   202.260146

                             ****ORCA TERMINATED NORMALLY****
TOTAL RUN TIME: 0 days 0 hours 0 minutes 35 seconds 17 msec
