                         Program Version 4.2.1 -  RELEASE  -
|  1> ! wB97X-D3 SP def2-SVP
|  2> %pal
|  3> nprocs 16
|  4> end
|  5>
|  6> * xyz 0 1
|  7> S 	 49.802 	 9.38668 	 85.2726
|  8> C 	 48.2416 	 10.1469 	 85.3293
|  9> C 	 47.7261 	 10.41 	 84.044
| 10> C 	 48.7526 	 10.0263 	 83.0835
| 11> C 	 49.8464 	 9.41672 	 83.5442
| 12> H 	 48.6887 	 10.2715 	 82.0443
| 13> C 	 46.4517 	 11.2305 	 83.748
| 14> H 	 46.7308 	 11.9968 	 83.0166
| 15> H 	 46.0133 	 11.7347 	 84.6359
| 16> C 	 45.3098 	 10.4586 	 83.0528
| 17> H 	 44.6342 	 11.124 	 82.5849
| 18> H 	 45.698 	 9.83917 	 82.2625
| 19> C 	 44.6141 	 9.5596 	 84.0557
| 20> H 	 43.7175 	 9.09268 	 83.7411
| 21> H 	 45.3691 	 8.76494 	 84.3535
| 22> H 	 44.3916 	 10.0691 	 84.9703
| 23> S 	 51.4777 	 9.49019 	 81.1967
| 24> C 	 52.5431 	 8.15746 	 80.8179
| 25> C 	 52.3957 	 7.13842 	 81.7883
| 26> C 	 51.4702 	 7.44243 	 82.8591
| 27> C 	 50.7924 	 8.67883 	 82.6531
| 28> H 	 52.8599 	 6.17648 	 81.7718
| 29> C 	 51.3327 	 6.58206 	 84.0365
| 30> H 	 51.2604 	 7.07711 	 84.9791
| 31> H 	 52.2567 	 6.02356 	 84.1856
| 32> C 	 50.1603 	 5.56763 	 83.9774
| 33> H 	 50.3638 	 4.73222 	 84.6466
| 34> H 	 50.0626 	 5.12123 	 82.991
| 35> C 	 48.7477 	 6.14585 	 84.4743
| 36> H 	 48.3724 	 6.80481 	 83.7347
| 37> H 	 48.8246 	 6.74668 	 85.3829
| 38> H 	 48.1942 	 5.21166 	 84.6305
| 39> H 	 47.7167 	 10.5383 	 86.2005
| 40> H 	 53.3349 	 8.21787 	 80.0384
| 41> *
| 42>
| 43>                          ****END OF INPUT****

CARTESIAN COORDINATES (ANGSTROEM)
---------------------------------
  S     49.802000    9.386680   85.272600
  C     48.241600   10.146900   85.329300
  C     47.726100   10.410000   84.044000
  C     48.752600   10.026300   83.083500
  C     49.846400    9.416720   83.544200
  H     48.688700   10.271500   82.044300
  C     46.451700   11.230500   83.748000
  H     46.730800   11.996800   83.016600
  H     46.013300   11.734700   84.635900
  C     45.309800   10.458600   83.052800
  H     44.634200   11.124000   82.584900
  H     45.698000    9.839170   82.262500
  C     44.614100    9.559600   84.055700
  H     43.717500    9.092680   83.741100
  H     45.369100    8.764940   84.353500
  H     44.391600   10.069100   84.970300
  S     51.477700    9.490190   81.196700
  C     52.543100    8.157460   80.817900
  C     52.395700    7.138420   81.788300
  C     51.470200    7.442430   82.859100
  C     50.792400    8.678830   82.653100
  H     52.859900    6.176480   81.771800
  C     51.332700    6.582060   84.036500
  H     51.260400    7.077110   84.979100
  H     52.256700    6.023560   84.185600
  C     50.160300    5.567630   83.977400
  H     50.363800    4.732220   84.646600
  H     50.062600    5.121230   82.991000
  C     48.747700    6.145850   84.474300
  H     48.372400    6.804810   83.734700
  H     48.824600    6.746680   85.382900
  H     48.194200    5.211660   84.630500
  H     47.716700   10.538300   86.200500
  H     53.334900    8.217870   80.038400

 Total Charge           Charge          ....    0
 Multiplicity           Mult            ....    1
 Number of Electrons    NEL             ....  134
 Basis Dimension        Dim             ....  322

ORBITAL ENERGIES
----------------

  NO   OCC          E(Eh)            E(eV)
   0   2.0000     -88.971610     -2421.0406
   1   2.0000     -88.969402     -2420.9805
   2   2.0000     -10.337963      -281.3103
   3   2.0000     -10.329191      -281.0716
   4   2.0000     -10.328192      -281.0444
   5   2.0000     -10.320056      -280.8230
   6   2.0000     -10.310915      -280.5743
   7   2.0000     -10.306049      -280.4418
   8   2.0000     -10.301513      -280.3184
   9   2.0000     -10.299524      -280.2643
  10   2.0000     -10.291148      -280.0364
  11   2.0000     -10.284432      -279.8536
  12   2.0000     -10.284270      -279.8492
  13   2.0000     -10.280717      -279.7525
  14   2.0000     -10.270756      -279.4815
  15   2.0000     -10.269511      -279.4476
  16   2.0000      -8.085998      -220.0312
  17   2.0000      -8.082947      -219.9482
  18   2.0000      -6.044665      -164.4837
  19   2.0000      -6.041563      -164.3993
  20   2.0000      -6.040499      -164.3703
  21   2.0000      -6.037518      -164.2892
  22   2.0000      -6.036643      -164.2654
  23   2.0000      -6.033770      -164.1872
  24   2.0000      -1.007270       -27.4092
  25   2.0000      -0.979232       -26.6463
  26   2.0000      -0.913073       -24.8460
  27   2.0000      -0.904732       -24.6190
  28   2.0000      -0.867123       -23.5956
  29   2.0000      -0.848433       -23.0870
  30   2.0000      -0.841261       -22.8919
  31   2.0000      -0.810124       -22.0446
  32   2.0000      -0.782650       -21.2970
  33   2.0000      -0.772349       -21.0167
  34   2.0000      -0.704831       -19.1794
  35   2.0000      -0.699649       -19.0384
  36   2.0000      -0.686685       -18.6856
  37   2.0000      -0.666912       -18.1476
  38   2.0000      -0.636854       -17.3297
  39   2.0000      -0.623066       -16.9545
  40   2.0000      -0.601463       -16.3666
  41   2.0000      -0.570581       -15.5263
  42   2.0000      -0.556413       -15.1408
  43   2.0000      -0.549041       -14.9402
  44   2.0000      -0.543572       -14.7914
  45   2.0000      -0.529521       -14.4090
  46   2.0000      -0.513717       -13.9790
  47   2.0000      -0.512232       -13.9385
  48   2.0000      -0.502707       -13.6794
  49   2.0000      -0.492728       -13.4078
  50   2.0000      -0.483636       -13.1604
  51   2.0000      -0.478827       -13.0295
  52   2.0000      -0.472783       -12.8651
  53   2.0000      -0.471237       -12.8230
  54   2.0000      -0.456630       -12.4255
  55   2.0000      -0.448161       -12.1951
  56   2.0000      -0.442073       -12.0294
  57   2.0000      -0.435704       -11.8561
  58   2.0000      -0.431779       -11.7493
  59   2.0000      -0.428039       -11.6475
  60   2.0000      -0.422517       -11.4973
  61   2.0000      -0.416759       -11.3406
  62   2.0000      -0.402075       -10.9410
  63   2.0000      -0.354782        -9.6541
  64   2.0000      -0.329440        -8.9645
  65   2.0000      -0.327521        -8.9123
  66   2.0000      -0.288630        -7.8540
  67   0.0000       0.026713         0.7269
  68   0.0000       0.068778         1.8715
  69   0.0000       0.103959         2.8289
  70   0.0000       0.116130         3.1601
  71   0.0000       0.124603         3.3906

MULLIKEN ATOMIC CHARGES
-----------------------
   0 S :    0.104462
   1 C :   -0.115125
   2 C :   -0.082605
   3 C :    0.002029
   4 C :   -0.099390
   5 H :    0.004877
   6 C :    0.034219
   7 H :    0.037058
   8 H :    0.032482
   9 C :   -0.045598
  10 H :    0.019562
  11 H :    0.025795
  12 C :   -0.046064
  13 H :    0.028508
  14 H :    0.040423
  15 H :    0.009711
  16 S :    0.092718
  17 C :   -0.105083
  18 C :   -0.014590
  19 C :   -0.060444
  20 C :   -0.133546
  21 H :    0.013261
  22 C :    0.059389
  23 H :    0.018229
  24 H :    0.014764
  25 C :   -0.086565
  26 H :    0.023093
  27 H :    0.027056
  28 C :   -0.048933
  29 H :    0.039505
  30 H :    0.032822
  31 H :    0.040755
  32 H :    0.052941
  33 H :    0.084282
Sum of atomic charges:    0.0000000

LOEWDIN ATOMIC CHARGES
----------------------
   0 S :    0.435828
   1 C :   -0.200109
   2 C :   -0.059325
   3 C :   -0.062737
   4 C :   -0.202817
   5 H :    0.023488
   6 C :   -0.027009
   7 H :    0.035557
   8 H :    0.032703
   9 C :   -0.037606
  10 H :    0.017009
  11 H :    0.023800
  12 C :   -0.065668
  13 H :    0.018400
  14 H :    0.035613
  15 H :    0.015927
  16 S :    0.392554
  17 C :   -0.195568
  18 C :   -0.065409
  19 C :   -0.056917
  20 C :   -0.177154
  21 H :    0.026987
  22 C :   -0.045039
  23 H :    0.020558
  24 H :    0.033780
  25 C :   -0.031295
  26 H :    0.019788
  27 H :    0.021330
  28 C :   -0.064760
  29 H :    0.019568
  30 H :    0.015406
  31 H :    0.029066
  32 H :    0.032236
  33 H :    0.041814

  Mayer bond orders larger than 0.100000
B(  0-S ,  1-C ) :   1.1473 B(  0-S ,  4-C ) :   1.1317 B(  1-C ,  2-C ) :   1.5999
B(  1-C , 32-H ) :   0.9649 B(  2-C ,  3-C ) :   1.2414 B(  2-C ,  6-C ) :   1.0223
B(  3-C ,  4-C ) :   1.5898 B(  3-C ,  5-H ) :   0.9949 B(  4-C , 20-C ) :   1.0217
B(  6-C ,  7-H ) :   0.9422 B(  6-C ,  8-H ) :   0.9510 B(  6-C ,  9-C ) :   1.0693
B(  9-C , 10-H ) :   0.9562 B(  9-C , 11-H ) :   0.9564 B(  9-C , 12-C ) :   1.0739
B( 12-C , 13-H ) :   0.9753 B( 12-C , 14-H ) :   0.9737 B( 12-C , 15-H ) :   0.9750
B( 16-S , 17-C ) :   1.1620 B( 16-S , 20-C ) :   1.1357 B( 17-C , 18-C ) :   1.5669
B( 17-C , 20-C ) :   0.1020 B( 17-C , 33-H ) :   0.9642 B( 18-C , 19-C ) :   1.2764
B( 18-C , 21-H ) :   0.9872 B( 19-C , 20-C ) :   1.5563 B( 19-C , 22-C ) :   1.0616
B( 22-C , 23-H ) :   0.9357 B( 22-C , 24-H ) :   0.9257 B( 22-C , 25-C ) :   1.0640
B( 25-C , 26-H ) :   0.9613 B( 25-C , 27-H ) :   0.9582 B( 25-C , 28-C ) :   1.0664
B( 28-C , 29-H ) :   0.9785 B( 28-C , 30-H ) :   0.9719 B( 28-C , 31-H ) :   0.9772

Dispersion correction           -0.015731038
FINAL SINGLE POINT ENERGY     -1339.873869016907

DIPOLE MOMENT
-------------
                                X             Y             Z
Electronic contribution:     20.62965       8.62292      -5.12727
Nuclear contribution   :    -20.84610      -8.69062       5.15802
                        -----------------------------------------
Total Dipole Moment    :     -0.21644      -0.06770       0.03075
                        -----------------------------------------
Magnitude (a.u.)       :      0.22886
Magnitude (Debye)      :      0.58172

Rotational constants in cm-1:     0.020827     0.008816     0.007588
Rotational constants in MHz :   624.390574   264.289478   227.496263

                             ****ORCA TERMINATED NORMALLY****
TOTAL RUN TIME: 0 days 0 hours 0 minutes 33 seconds 99 msec
