                         Program Version 4.2.1 -  RELEASE  -
|  1> ! wB97X-D3 SP def2-SVP
|  2> %pal
|  3> nprocs 16
|  4> end
|  5>
|  6> * xyz 0 1
|  7> S 	 -0.0269427 	 -8.37855 	 90.5732
|  8> C 	 0.469067 	 -7.16349 	 91.748
|  9> C 	 -0.542272 	 -6.63617 	 92.4771
| 10> C 	 -1.78569 	 -7.06119 	 91.9921
| 11> C 	 -1.64802 	 -7.99091 	 91.015
| 12> H 	 -2.77529 	 -6.74556 	 92.3618
| 13> C 	 -0.55471 	 -5.45913 	 93.3955
| 14> H 	 -1.52827 	 -5.30832 	 93.7746
| 15> H 	 -0.357515 	 -4.58094 	 92.7653
| 16> C 	 0.424416 	 -5.49409 	 94.5657
| 17> H 	 1.45477 	 -5.59393 	 94.2009
| 18> H 	 0.456897 	 -4.52558 	 95.1116
| 19> C 	 0.138839 	 -6.39544 	 95.6959
| 20> H 	 0.280328 	 -7.49943 	 95.4862
| 21> H 	 0.779476 	 -6.14564 	 96.5467
| 22> H 	 -0.849651 	 -6.34239 	 96.1337
| 23> S 	 -2.76765 	 -7.92085 	 88.4825
| 24> C 	 -4.3331 	 -8.61102 	 88.2322
| 25> C 	 -4.98122 	 -8.82948 	 89.4522
| 26> C 	 -4.05002 	 -8.73463 	 90.5493
| 27> C 	 -2.76218 	 -8.3328 	 90.1965
| 28> H 	 -6.01058 	 -8.97412 	 89.4256
| 29> C 	 -4.43466 	 -9.19734 	 91.9607
| 30> H 	 -5.41489 	 -8.74444 	 92.2722
| 31> H 	 -3.72537 	 -8.84743 	 92.6808
| 32> C 	 -4.52172 	 -10.7005 	 92.1362
| 33> H 	 -3.55735 	 -11.1491 	 91.9033
| 34> H 	 -5.21391 	 -11.1635 	 91.3722
| 35> C 	 -4.87147 	 -11.0287 	 93.6196
| 36> H 	 -4.09749 	 -10.7991 	 94.2896
| 37> H 	 -5.12163 	 -12.0479 	 93.7687
| 38> H 	 -5.79269 	 -10.4812 	 93.8653
| 39> H 	 1.57038 	 -6.91925 	 91.8338
| 40> H 	 -4.84619 	 -8.60296 	 87.2972
| 41> *
| 42>
| 43>                          ****END OF INPUT****

CARTESIAN COORDINATES (ANGSTROEM)
---------------------------------
  S     -0.026943   -8.378550   90.573200
  C      0.469067   -7.163490   91.748000
  C     -0.542272   -6.636170   92.477100
  C     -1.785690   -7.061190   91.992100
  C     -1.648020   -7.990910   91.015000
  H     -2.775290   -6.745560   92.361800
  C     -0.554710   -5.459130   93.395500
  H     -1.528270   -5.308320   93.774600
  H     -0.357515   -4.580940   92.765300
  C      0.424416   -5.494090   94.565700
  H      1.454770   -5.593930   94.200900
  H      0.456897   -4.525580   95.111600
  C      0.138839   -6.395440   95.695900
  H      0.280328   -7.499430   95.486200
  H      0.779476   -6.145640   96.546700
  H     -0.849651   -6.342390   96.133700
  S     -2.767650   -7.920850   88.482500
  C     -4.333100   -8.611020   88.232200
  C     -4.981220   -8.829480   89.452200
  C     -4.050020   -8.734630   90.549300
  C     -2.762180   -8.332800   90.196500
  H     -6.010580   -8.974120   89.425600
  C     -4.434660   -9.197340   91.960700
  H     -5.414890   -8.744440   92.272200
  H     -3.725370   -8.847430   92.680800
  C     -4.521720  -10.700500   92.136200
  H     -3.557350  -11.149100   91.903300
  H     -5.213910  -11.163500   91.372200
  C     -4.871470  -11.028700   93.619600
  H     -4.097490  -10.799100   94.289600
  H     -5.121630  -12.047900   93.768700
  H     -5.792690  -10.481200   93.865300
  H      1.570380   -6.919250   91.833800
  H     -4.846190   -8.602960   87.297200

 Total Charge           Charge          ....    0
 Multiplicity           Mult            ....    1
 Number of Electrons    NEL             ....  134
 Basis Dimension        Dim             ....  322

ORBITAL ENERGIES
----------------

  NO   OCC          E(Eh)            E(eV)
   0   2.0000     -88.970270     -2421.0041
   1   2.0000     -88.960571     -2420.7402
   2   2.0000     -10.320507      -280.8353
   3   2.0000     -10.319563      -280.8096
   4   2.0000     -10.316672      -280.7309
   5   2.0000     -10.311881      -280.6006
   6   2.0000     -10.301153      -280.3086
   7   2.0000     -10.295055      -280.1427
   8   2.0000     -10.290125      -280.0085
   9   2.0000     -10.289598      -279.9942
  10   2.0000     -10.289057      -279.9795
  11   2.0000     -10.286739      -279.9164
  12   2.0000     -10.286146      -279.9003
  13   2.0000     -10.284097      -279.8445
  14   2.0000     -10.276380      -279.6345
  15   2.0000     -10.270158      -279.4652
  16   2.0000      -8.085497      -220.0176
  17   2.0000      -8.075557      -219.7471
  18   2.0000      -6.043847      -164.4614
  19   2.0000      -6.040165      -164.3612
  20   2.0000      -6.036171      -164.2526
  21   2.0000      -6.033989      -164.1932
  22   2.0000      -6.030107      -164.0876
  23   2.0000      -6.026304      -163.9841
  24   2.0000      -1.015349       -27.6290
  25   2.0000      -0.984867       -26.7996
  26   2.0000      -0.919743       -25.0275
  27   2.0000      -0.904865       -24.6226
  28   2.0000      -0.873687       -23.7742
  29   2.0000      -0.861746       -23.4493
  30   2.0000      -0.842285       -22.9198
  31   2.0000      -0.811808       -22.0904
  32   2.0000      -0.787226       -21.4215
  33   2.0000      -0.770504       -20.9665
  34   2.0000      -0.708623       -19.2826
  35   2.0000      -0.699880       -19.0447
  36   2.0000      -0.690552       -18.7909
  37   2.0000      -0.661677       -18.0051
  38   2.0000      -0.640478       -17.4283
  39   2.0000      -0.615554       -16.7501
  40   2.0000      -0.593881       -16.1603
  41   2.0000      -0.576249       -15.6805
  42   2.0000      -0.562773       -15.3138
  43   2.0000      -0.558419       -15.1953
  44   2.0000      -0.544959       -14.8291
  45   2.0000      -0.520335       -14.1590
  46   2.0000      -0.513622       -13.9764
  47   2.0000      -0.511710       -13.9243
  48   2.0000      -0.505263       -13.7489
  49   2.0000      -0.490694       -13.3525
  50   2.0000      -0.489628       -13.3234
  51   2.0000      -0.482613       -13.1326
  52   2.0000      -0.476309       -12.9610
  53   2.0000      -0.466212       -12.6863
  54   2.0000      -0.460801       -12.5390
  55   2.0000      -0.451456       -12.2847
  56   2.0000      -0.443072       -12.0566
  57   2.0000      -0.440383       -11.9834
  58   2.0000      -0.433962       -11.8087
  59   2.0000      -0.425141       -11.5687
  60   2.0000      -0.419944       -11.4272
  61   2.0000      -0.409506       -11.1432
  62   2.0000      -0.407800       -11.0968
  63   2.0000      -0.345837        -9.4107
  64   2.0000      -0.335019        -9.1163
  65   2.0000      -0.323741        -8.8094
  66   2.0000      -0.290021        -7.8919
  67   0.0000       0.028712         0.7813
  68   0.0000       0.071714         1.9514
  69   0.0000       0.107862         2.9351
  70   0.0000       0.115800         3.1511
  71   0.0000       0.125554         3.4165

MULLIKEN ATOMIC CHARGES
-----------------------
   0 S :    0.126762
   1 C :   -0.180181
   2 C :   -0.029852
   3 C :    0.001131
   4 C :   -0.167309
   5 H :    0.033968
   6 C :    0.100430
   7 H :   -0.000752
   8 H :    0.046719
   9 C :   -0.074819
  10 H :    0.025347
  11 H :    0.023489
  12 C :   -0.062034
  13 H :    0.038898
  14 H :    0.030289
  15 H :    0.020810
  16 S :    0.102564
  17 C :   -0.092063
  18 C :   -0.015216
  19 C :   -0.043326
  20 C :   -0.122332
  21 H :    0.000119
  22 C :    0.054696
  23 H :    0.023356
  24 H :    0.003804
  25 C :   -0.080775
  26 H :    0.025527
  27 H :    0.033136
  28 C :   -0.013445
  29 H :    0.029534
  30 H :    0.021722
  31 H :    0.021045
  32 H :    0.067745
  33 H :    0.051014
Sum of atomic charges:    0.0000000

LOEWDIN ATOMIC CHARGES
----------------------
   0 S :    0.415147
   1 C :   -0.194441
   2 C :   -0.069692
   3 C :   -0.048594
   4 C :   -0.206024
   5 H :    0.039601
   6 C :   -0.024230
   7 H :    0.022105
   8 H :    0.043550
   9 C :   -0.050963
  10 H :    0.024562
  11 H :    0.031076
  12 C :   -0.073789
  13 H :    0.027930
  14 H :    0.029241
  15 H :    0.022306
  16 S :    0.403908
  17 C :   -0.187494
  18 C :   -0.062716
  19 C :   -0.058193
  20 C :   -0.196635
  21 H :    0.021842
  22 C :   -0.036471
  23 H :    0.030531
  24 H :    0.020624
  25 C :   -0.039830
  26 H :    0.023037
  27 H :    0.026269
  28 C :   -0.057840
  29 H :    0.020069
  30 H :    0.021575
  31 H :    0.025597
  32 H :    0.034478
  33 H :    0.023468

  Mayer bond orders larger than 0.100000
B(  0-S ,  1-C ) :   1.1329 B(  0-S ,  4-C ) :   1.1515 B(  1-C ,  2-C ) :   1.6148
B(  1-C , 32-H ) :   0.9591 B(  2-C ,  3-C ) :   1.2322 B(  2-C ,  6-C ) :   1.0197
B(  3-C ,  4-C ) :   1.5806 B(  3-C ,  5-H ) :   0.9878 B(  4-C , 20-C ) :   1.0495
B(  6-C ,  7-H ) :   0.9391 B(  6-C ,  8-H ) :   0.9332 B(  6-C ,  9-C ) :   1.0804
B(  9-C , 10-H ) :   0.9525 B(  9-C , 11-H ) :   0.9520 B(  9-C , 12-C ) :   1.0883
B( 12-C , 13-H ) :   0.9716 B( 12-C , 14-H ) :   0.9724 B( 12-C , 15-H ) :   0.9696
B( 16-S , 17-C ) :   1.1660 B( 16-S , 20-C ) :   1.1358 B( 17-C , 18-C ) :   1.5944
B( 17-C , 33-H ) :   0.9695 B( 18-C , 19-C ) :   1.2328 B( 18-C , 21-H ) :   1.0056
B( 19-C , 20-C ) :   1.5871 B( 19-C , 22-C ) :   1.0488 B( 22-C , 23-H ) :   0.9352
B( 22-C , 24-H ) :   0.9314 B( 22-C , 25-C ) :   1.0682 B( 25-C , 26-H ) :   0.9520
B( 25-C , 27-H ) :   0.9576 B( 25-C , 28-C ) :   1.0751 B( 28-C , 29-H ) :   0.9761
B( 28-C , 30-H ) :   0.9732 B( 28-C , 31-H ) :   0.9746

Dispersion correction           -0.013892222
FINAL SINGLE POINT ENERGY     -1339.871901525331

DIPOLE MOMENT
-------------
                                X             Y             Z
Electronic contribution:      5.62634       0.40207     -27.67170
Nuclear contribution   :     -5.84602      -0.05076      28.19033
                        -----------------------------------------
Total Dipole Moment    :     -0.21968       0.35131       0.51863
                        -----------------------------------------
Magnitude (a.u.)       :      0.66382
Magnitude (Debye)      :      1.68730

Rotational constants in cm-1:     0.018021     0.008813     0.006771
Rotational constants in MHz :   540.241026   264.221853   202.976955

                             ****ORCA TERMINATED NORMALLY****
TOTAL RUN TIME: 0 days 0 hours 0 minutes 32 seconds 246 msec
