                         Program Version 4.2.1 -  RELEASE  -
|  1> ! wB97X-D3 SP def2-SVP
|  2> %pal
|  3> nprocs 16
|  4> end
|  5>
|  6> * xyz 0 1
|  7> S 	 -4.49012 	 72.082 	 48.4245
|  8> C 	 -3.13745 	 73.1214 	 47.9803
|  9> C 	 -2.31607 	 73.4051 	 49.0729
| 10> C 	 -2.65386 	 72.6611 	 50.2231
| 11> C 	 -3.70347 	 71.7899 	 50.0204
| 12> H 	 -2.15979 	 72.5619 	 51.1396
| 13> C 	 -1.10888 	 74.3209 	 49.0708
| 14> H 	 -1.50202 	 75.1757 	 48.5054
| 15> H 	 -0.35429 	 73.8442 	 48.5375
| 16> C 	 -0.537551 	 74.8547 	 50.3401
| 17> H 	 -1.14193 	 75.6175 	 50.8532
| 18> H 	 -0.496335 	 73.9989 	 50.9292
| 19> C 	 0.850073 	 75.405 	 50.1141
| 20> H 	 1.26586 	 75.7738 	 51.037
| 21> H 	 1.54479 	 74.6377 	 49.7444
| 22> H 	 0.931504 	 76.2528 	 49.5005
| 23> S 	 -6.03838 	 70.875 	 51.1937
| 24> C 	 -6.0008 	 69.5779 	 52.4229
| 25> C 	 -4.67544 	 69.3305 	 52.7106
| 26> C 	 -3.69686 	 69.9849 	 51.8796
| 27> C 	 -4.31293 	 70.8206 	 50.9479
| 28> H 	 -4.47599 	 68.7434 	 53.5407
| 29> C 	 -2.30054 	 69.7327 	 51.9955
| 30> H 	 -2.16944 	 69.391 	 52.9673
| 31> H 	 -1.74486 	 70.7171 	 52.1662
| 32> C 	 -1.72018 	 68.9328 	 50.8658
| 33> H 	 -0.666555 	 68.8365 	 50.9187
| 34> H 	 -1.7468 	 69.4709 	 49.8654
| 35> C 	 -2.5138 	 67.6306 	 50.574
| 36> H 	 -2.44817 	 66.9977 	 51.5082
| 37> H 	 -2.12163 	 67.026 	 49.7086
| 38> H 	 -3.59509 	 67.7975 	 50.2991
| 39> H 	 -3.13451 	 73.6594 	 47.1143
| 40> H 	 -6.80705 	 69.2323 	 53.0199
| 41> *
| 42>
| 43>                          ****END OF INPUT****

CARTESIAN COORDINATES (ANGSTROEM)
---------------------------------
  S     -4.490120   72.082000   48.424500
  C     -3.137450   73.121400   47.980300
  C     -2.316070   73.405100   49.072900
  C     -2.653860   72.661100   50.223100
  C     -3.703470   71.789900   50.020400
  H     -2.159790   72.561900   51.139600
  C     -1.108880   74.320900   49.070800
  H     -1.502020   75.175700   48.505400
  H     -0.354290   73.844200   48.537500
  C     -0.537551   74.854700   50.340100
  H     -1.141930   75.617500   50.853200
  H     -0.496335   73.998900   50.929200
  C      0.850073   75.405000   50.114100
  H      1.265860   75.773800   51.037000
  H      1.544790   74.637700   49.744400
  H      0.931504   76.252800   49.500500
  S     -6.038380   70.875000   51.193700
  C     -6.000800   69.577900   52.422900
  C     -4.675440   69.330500   52.710600
  C     -3.696860   69.984900   51.879600
  C     -4.312930   70.820600   50.947900
  H     -4.475990   68.743400   53.540700
  C     -2.300540   69.732700   51.995500
  H     -2.169440   69.391000   52.967300
  H     -1.744860   70.717100   52.166200
  C     -1.720180   68.932800   50.865800
  H     -0.666555   68.836500   50.918700
  H     -1.746800   69.470900   49.865400
  C     -2.513800   67.630600   50.574000
  H     -2.448170   66.997700   51.508200
  H     -2.121630   67.026000   49.708600
  H     -3.595090   67.797500   50.299100
  H     -3.134510   73.659400   47.114300
  H     -6.807050   69.232300   53.019900

 Total Charge           Charge          ....    0
 Multiplicity           Mult            ....    1
 Number of Electrons    NEL             ....  134
 Basis Dimension        Dim             ....  322

ORBITAL ENERGIES
----------------

  NO   OCC          E(Eh)            E(eV)
   0   2.0000     -88.965523     -2420.8750
   1   2.0000     -88.964458     -2420.8460
   2   2.0000     -10.333426      -281.1868
   3   2.0000     -10.326820      -281.0070
   4   2.0000     -10.316834      -280.7353
   5   2.0000     -10.308042      -280.4961
   6   2.0000     -10.302024      -280.3323
   7   2.0000     -10.297263      -280.2028
   8   2.0000     -10.289771      -279.9989
   9   2.0000     -10.289510      -279.9918
  10   2.0000     -10.286306      -279.9046
  11   2.0000     -10.285538      -279.8837
  12   2.0000     -10.283973      -279.8411
  13   2.0000     -10.282495      -279.8009
  14   2.0000     -10.281068      -279.7621
  15   2.0000     -10.274140      -279.5736
  16   2.0000      -8.079268      -219.8481
  17   2.0000      -8.078609      -219.8301
  18   2.0000      -6.037743      -164.2953
  19   2.0000      -6.037241      -164.2817
  20   2.0000      -6.034042      -164.1946
  21   2.0000      -6.033122      -164.1696
  22   2.0000      -6.030013      -164.0850
  23   2.0000      -6.029349      -164.0669
  24   2.0000      -1.003514       -27.3070
  25   2.0000      -0.981330       -26.7033
  26   2.0000      -0.922545       -25.1037
  27   2.0000      -0.918162       -24.9845
  28   2.0000      -0.870753       -23.6944
  29   2.0000      -0.851407       -23.1680
  30   2.0000      -0.841604       -22.9012
  31   2.0000      -0.820169       -22.3179
  32   2.0000      -0.783426       -21.3181
  33   2.0000      -0.772920       -21.0322
  34   2.0000      -0.718115       -19.5409
  35   2.0000      -0.705030       -19.1849
  36   2.0000      -0.691103       -18.8059
  37   2.0000      -0.666533       -18.1373
  38   2.0000      -0.649008       -17.6604
  39   2.0000      -0.624033       -16.9808
  40   2.0000      -0.593590       -16.1524
  41   2.0000      -0.586663       -15.9639
  42   2.0000      -0.565575       -15.3901
  43   2.0000      -0.558064       -15.1857
  44   2.0000      -0.547621       -14.9015
  45   2.0000      -0.526920       -14.3382
  46   2.0000      -0.515910       -14.0386
  47   2.0000      -0.509827       -13.8731
  48   2.0000      -0.506663       -13.7870
  49   2.0000      -0.496808       -13.5188
  50   2.0000      -0.490524       -13.3478
  51   2.0000      -0.483209       -13.1488
  52   2.0000      -0.474631       -12.9154
  53   2.0000      -0.468688       -12.7536
  54   2.0000      -0.457431       -12.4473
  55   2.0000      -0.450812       -12.2672
  56   2.0000      -0.441910       -12.0250
  57   2.0000      -0.438368       -11.9286
  58   2.0000      -0.431421       -11.7396
  59   2.0000      -0.426663       -11.6101
  60   2.0000      -0.421366       -11.4660
  61   2.0000      -0.414118       -11.2687
  62   2.0000      -0.396924       -10.8008
  63   2.0000      -0.348985        -9.4964
  64   2.0000      -0.332790        -9.0557
  65   2.0000      -0.325345        -8.8531
  66   2.0000      -0.287000        -7.8097
  67   0.0000       0.021221         0.5775
  68   0.0000       0.068214         1.8562
  69   0.0000       0.100212         2.7269
  70   0.0000       0.119814         3.2603
  71   0.0000       0.141389         3.8474

MULLIKEN ATOMIC CHARGES
-----------------------
   0 S :    0.094822
   1 C :   -0.084669
   2 C :   -0.072904
   3 C :    0.046748
   4 C :   -0.161852
   5 H :   -0.019125
   6 C :    0.074511
   7 H :    0.025313
   8 H :    0.026133
   9 C :   -0.048400
  10 H :    0.037863
  11 H :    0.010022
  12 C :   -0.029359
  13 H :    0.019122
  14 H :    0.029883
  15 H :    0.019954
  16 S :    0.093962
  17 C :   -0.079570
  18 C :   -0.017008
  19 C :   -0.080016
  20 C :   -0.121690
  21 H :   -0.007561
  22 C :    0.109689
  23 H :   -0.009468
  24 H :    0.021353
  25 C :   -0.034445
  26 H :    0.016409
  27 H :    0.040792
  28 C :   -0.104713
  29 H :    0.034254
  30 H :    0.042815
  31 H :    0.065978
  32 H :    0.011315
  33 H :    0.049843
Sum of atomic charges:   -0.0000000

LOEWDIN ATOMIC CHARGES
----------------------
   0 S :    0.379231
   1 C :   -0.181877
   2 C :   -0.053492
   3 C :   -0.060994
   4 C :   -0.162768
   5 H :    0.020680
   6 C :   -0.029650
   7 H :    0.035236
   8 H :    0.026712
   9 C :   -0.036720
  10 H :    0.030684
  11 H :    0.014133
  12 C :   -0.057537
  13 H :    0.025667
  14 H :    0.027712
  15 H :    0.018696
  16 S :    0.393915
  17 C :   -0.173781
  18 C :   -0.057903
  19 C :   -0.062659
  20 C :   -0.196507
  21 H :    0.018544
  22 C :   -0.042631
  23 H :    0.023881
  24 H :    0.040385
  25 C :   -0.042853
  26 H :    0.019143
  27 H :    0.036700
  28 C :   -0.077349
  29 H :    0.024603
  30 H :    0.030713
  31 H :    0.036525
  32 H :    0.006274
  33 H :    0.027289

  Mayer bond orders larger than 0.100000
B(  0-S ,  1-C ) :   1.1323 B(  0-S ,  4-C ) :   1.1445 B(  1-C ,  2-C ) :   1.6159
B(  1-C ,  4-C ) :   0.1091 B(  1-C , 32-H ) :   0.9817 B(  2-C ,  3-C ) :   1.2291
B(  2-C ,  6-C ) :   0.9929 B(  3-C ,  4-C ) :   1.5864 B(  3-C ,  5-H ) :   0.9948
B(  4-C , 20-C ) :   1.0377 B(  6-C ,  7-H ) :   0.9320 B(  6-C ,  8-H ) :   0.9416
B(  6-C ,  9-C ) :   1.0868 B(  9-C , 10-H ) :   0.9524 B(  9-C , 11-H ) :   0.9401
B(  9-C , 12-C ) :   1.1025 B( 12-C , 13-H ) :   0.9687 B( 12-C , 14-H ) :   0.9719
B( 12-C , 15-H ) :   0.9740 B( 16-S , 17-C ) :   1.1335 B( 16-S , 20-C ) :   1.1546
B( 17-C , 18-C ) :   1.6128 B( 17-C , 33-H ) :   0.9720 B( 18-C , 19-C ) :   1.2388
B( 18-C , 21-H ) :   0.9955 B( 19-C , 20-C ) :   1.5620 B( 19-C , 22-C ) :   1.0688
B( 22-C , 23-H ) :   0.9122 B( 22-C , 24-H ) :   0.9133 B( 22-C , 25-C ) :   1.0622
B( 25-C , 26-H ) :   0.9552 B( 25-C , 27-H ) :   0.9510 B( 25-C , 28-C ) :   1.0634
B( 28-C , 29-H ) :   0.9779 B( 28-C , 30-H ) :   0.9745 B( 28-C , 31-H ) :   0.9680

Dispersion correction           -0.014897333
FINAL SINGLE POINT ENERGY     -1339.850968614435

DIPOLE MOMENT
-------------
                                X             Y             Z
Electronic contribution:    -26.00304      -1.86241      -3.68902
Nuclear contribution   :     26.69497       2.01535       4.08409
                        -----------------------------------------
Total Dipole Moment    :      0.69193       0.15295       0.39507
                        -----------------------------------------
Magnitude (a.u.)       :      0.81132
Magnitude (Debye)      :      2.06221

Rotational constants in cm-1:     0.020036     0.008432     0.007248
Rotational constants in MHz :   600.649895   252.770272   217.302369

                             ****ORCA TERMINATED NORMALLY****
TOTAL RUN TIME: 0 days 0 hours 0 minutes 32 seconds 911 msec
