                         Program Version 4.2.1 -  RELEASE  -
|  1> ! wB97X-D3 SP def2-SVP
|  2> %pal
|  3> nprocs 16
|  4> end
|  5>
|  6> * xyz 0 1
|  7> S 	 -7.2348 	 64.1446 	 48.2745
|  8> C 	 -7.92212 	 64.8047 	 49.7907
|  9> C 	 -6.95466 	 64.9846 	 50.7804
| 10> C 	 -5.616 	 64.6512 	 50.2319
| 11> C 	 -5.63297 	 64.294 	 48.9083
| 12> H 	 -4.62174 	 64.6868 	 50.6226
| 13> C 	 -7.14546 	 65.3194 	 52.242
| 14> H 	 -8.18405 	 65.7318 	 52.1966
| 15> H 	 -6.40669 	 66.0645 	 52.6173
| 16> C 	 -7.21942 	 64.1106 	 53.1627
| 17> H 	 -8.02359 	 63.446 	 52.8435
| 18> H 	 -6.26973 	 63.5969 	 53.0339
| 19> C 	 -7.54754 	 64.4977 	 54.6003
| 20> H 	 -6.6808 	 64.4816 	 55.299
| 21> H 	 -8.10928 	 65.3791 	 54.6126
| 22> H 	 -8.18509 	 63.7554 	 55.1277
| 23> S 	 -4.14003 	 62.4879 	 47.4301
| 24> C 	 -2.66239 	 63.097 	 46.684
| 25> C 	 -2.36977 	 64.384 	 47.0196
| 26> C 	 -3.47377 	 64.9902 	 47.7248
| 27> C 	 -4.47871 	 64.1028 	 48.0462
| 28> H 	 -1.47882 	 64.7932 	 46.6979
| 29> C 	 -3.63805 	 66.4538 	 47.964
| 30> H 	 -2.59446 	 66.8362 	 48.1978
| 31> H 	 -4.33318 	 66.6448 	 48.8228
| 32> C 	 -4.29531 	 67.1753 	 46.7632
| 33> H 	 -4.87874 	 66.4553 	 46.1826
| 34> H 	 -3.43873 	 67.341 	 46.1532
| 35> C 	 -5.0969 	 68.5128 	 47.0396
| 36> H 	 -5.33091 	 69.0144 	 46.1446
| 37> H 	 -4.45067 	 69.1737 	 47.7765
| 38> H 	 -5.98207 	 68.2482 	 47.5396
| 39> H 	 -8.96761 	 64.8806 	 50.008
| 40> H 	 -2.0952 	 62.4768 	 46.0538
| 41> *
| 42>
| 43>                          ****END OF INPUT****

CARTESIAN COORDINATES (ANGSTROEM)
---------------------------------
  S     -7.234800   64.144600   48.274500
  C     -7.922120   64.804700   49.790700
  C     -6.954660   64.984600   50.780400
  C     -5.616000   64.651200   50.231900
  C     -5.632970   64.294000   48.908300
  H     -4.621740   64.686800   50.622600
  C     -7.145460   65.319400   52.242000
  H     -8.184050   65.731800   52.196600
  H     -6.406690   66.064500   52.617300
  C     -7.219420   64.110600   53.162700
  H     -8.023590   63.446000   52.843500
  H     -6.269730   63.596900   53.033900
  C     -7.547540   64.497700   54.600300
  H     -6.680800   64.481600   55.299000
  H     -8.109280   65.379100   54.612600
  H     -8.185090   63.755400   55.127700
  S     -4.140030   62.487900   47.430100
  C     -2.662390   63.097000   46.684000
  C     -2.369770   64.384000   47.019600
  C     -3.473770   64.990200   47.724800
  C     -4.478710   64.102800   48.046200
  H     -1.478820   64.793200   46.697900
  C     -3.638050   66.453800   47.964000
  H     -2.594460   66.836200   48.197800
  H     -4.333180   66.644800   48.822800
  C     -4.295310   67.175300   46.763200
  H     -4.878740   66.455300   46.182600
  H     -3.438730   67.341000   46.153200
  C     -5.096900   68.512800   47.039600
  H     -5.330910   69.014400   46.144600
  H     -4.450670   69.173700   47.776500
  H     -5.982070   68.248200   47.539600
  H     -8.967610   64.880600   50.008000
  H     -2.095200   62.476800   46.053800

 Total Charge           Charge          ....    0
 Multiplicity           Mult            ....    1
 Number of Electrons    NEL             ....  134
 Basis Dimension        Dim             ....  322

ORBITAL ENERGIES
----------------

  NO   OCC          E(Eh)            E(eV)
   0   2.0000     -88.965636     -2420.8780
   1   2.0000     -88.962520     -2420.7932
   2   2.0000     -10.323560      -280.9184
   3   2.0000     -10.321002      -280.8487
   4   2.0000     -10.319584      -280.8102
   5   2.0000     -10.315448      -280.6976
   6   2.0000     -10.311425      -280.5881
   7   2.0000     -10.302659      -280.3496
   8   2.0000     -10.298523      -280.2371
   9   2.0000     -10.293424      -280.0983
  10   2.0000     -10.292287      -280.0674
  11   2.0000     -10.291984      -280.0591
  12   2.0000     -10.285456      -279.8815
  13   2.0000     -10.280995      -279.7601
  14   2.0000     -10.280320      -279.7417
  15   2.0000     -10.277696      -279.6703
  16   2.0000      -8.080163      -219.8724
  17   2.0000      -8.077353      -219.7959
  18   2.0000      -6.038791      -164.3239
  19   2.0000      -6.035782      -164.2420
  20   2.0000      -6.034735      -164.2135
  21   2.0000      -6.031930      -164.1372
  22   2.0000      -6.030772      -164.1057
  23   2.0000      -6.028115      -164.0333
  24   2.0000      -1.005240       -27.3540
  25   2.0000      -0.980037       -26.6682
  26   2.0000      -0.916171       -24.9303
  27   2.0000      -0.902533       -24.5592
  28   2.0000      -0.871448       -23.7133
  29   2.0000      -0.846375       -23.0310
  30   2.0000      -0.843404       -22.9502
  31   2.0000      -0.817252       -22.2386
  32   2.0000      -0.782029       -21.2801
  33   2.0000      -0.769840       -20.9484
  34   2.0000      -0.705627       -19.2011
  35   2.0000      -0.698087       -18.9959
  36   2.0000      -0.692829       -18.8528
  37   2.0000      -0.665504       -18.1093
  38   2.0000      -0.646988       -17.6055
  39   2.0000      -0.612212       -16.6591
  40   2.0000      -0.594178       -16.1684
  41   2.0000      -0.576405       -15.6848
  42   2.0000      -0.567577       -15.4446
  43   2.0000      -0.555204       -15.1079
  44   2.0000      -0.530438       -14.4340
  45   2.0000      -0.518898       -14.1199
  46   2.0000      -0.513885       -13.9835
  47   2.0000      -0.509494       -13.8640
  48   2.0000      -0.507679       -13.8147
  49   2.0000      -0.501301       -13.6411
  50   2.0000      -0.492189       -13.3932
  51   2.0000      -0.474933       -12.9236
  52   2.0000      -0.471301       -12.8248
  53   2.0000      -0.464672       -12.6444
  54   2.0000      -0.456474       -12.4213
  55   2.0000      -0.451919       -12.2973
  56   2.0000      -0.444574       -12.0975
  57   2.0000      -0.436116       -11.8673
  58   2.0000      -0.429140       -11.6775
  59   2.0000      -0.424578       -11.5534
  60   2.0000      -0.419194       -11.4069
  61   2.0000      -0.414239       -11.2720
  62   2.0000      -0.406940       -11.0734
  63   2.0000      -0.338777        -9.2186
  64   2.0000      -0.329068        -8.9544
  65   2.0000      -0.327524        -8.9124
  66   2.0000      -0.301267        -8.1979
  67   0.0000       0.036771         1.0006
  68   0.0000       0.064608         1.7581
  69   0.0000       0.110015         2.9937
  70   0.0000       0.117627         3.2008
  71   0.0000       0.122946         3.3455

MULLIKEN ATOMIC CHARGES
-----------------------
   0 S :    0.108148
   1 C :   -0.105600
   2 C :   -0.097181
   3 C :    0.060184
   4 C :   -0.183357
   5 H :    0.005880
   6 C :    0.035583
   7 H :    0.019727
   8 H :    0.049291
   9 C :   -0.060128
  10 H :    0.029074
  11 H :    0.030381
  12 C :   -0.033310
  13 H :    0.039088
  14 H :    0.020950
  15 H :    0.026711
  16 S :    0.097225
  17 C :   -0.075209
  18 C :    0.011373
  19 C :   -0.046133
  20 C :   -0.158999
  21 H :   -0.009904
  22 C :    0.035854
  23 H :    0.033581
  24 H :    0.033397
  25 C :   -0.066308
  26 H :    0.034706
  27 H :    0.010448
  28 C :   -0.038865
  29 H :    0.035442
  30 H :    0.042760
  31 H :    0.036671
  32 H :    0.039276
  33 H :    0.039244
Sum of atomic charges:   -0.0000000

LOEWDIN ATOMIC CHARGES
----------------------
   0 S :    0.394434
   1 C :   -0.185629
   2 C :   -0.053602
   3 C :   -0.060664
   4 C :   -0.202178
   5 H :    0.030121
   6 C :   -0.038463
   7 H :    0.032892
   8 H :    0.037133
   9 C :   -0.040539
  10 H :    0.027833
  11 H :    0.024137
  12 C :   -0.069603
  13 H :    0.031852
  14 H :    0.017410
  15 H :    0.031307
  16 S :    0.386595
  17 C :   -0.156797
  18 C :   -0.059581
  19 C :   -0.051488
  20 C :   -0.204160
  21 H :    0.021796
  22 C :   -0.039482
  23 H :    0.033173
  24 H :    0.032570
  25 C :   -0.041008
  26 H :    0.024813
  27 H :    0.016128
  28 C :   -0.057575
  29 H :    0.021296
  30 H :    0.037642
  31 H :    0.019778
  32 H :    0.023082
  33 H :    0.016775

  Mayer bond orders larger than 0.100000
B(  0-S ,  1-C ) :   1.1199 B(  0-S ,  4-C ) :   1.1400 B(  1-C ,  2-C ) :   1.6526
B(  1-C , 32-H ) :   0.9677 B(  2-C ,  3-C ) :   1.1669 B(  2-C ,  6-C ) :   1.0326
B(  3-C ,  4-C ) :   1.6392 B(  3-C ,  5-H ) :   0.9931 B(  4-C , 20-C ) :   1.0017
B(  6-C ,  7-H ) :   0.9288 B(  6-C ,  8-H ) :   0.9421 B(  6-C ,  9-C ) :   1.0765
B(  9-C , 10-H ) :   0.9555 B(  9-C , 11-H ) :   0.9588 B(  9-C , 12-C ) :   1.0716
B( 12-C , 13-H ) :   0.9744 B( 12-C , 14-H ) :   0.9738 B( 12-C , 15-H ) :   0.9761
B( 16-S , 17-C ) :   1.1512 B( 16-S , 20-C ) :   1.1296 B( 17-C , 18-C ) :   1.6271
B( 17-C , 33-H ) :   0.9736 B( 18-C , 19-C ) :   1.1975 B( 18-C , 21-H ) :   1.0096
B( 19-C , 20-C ) :   1.6282 B( 19-C , 22-C ) :   1.0642 B( 22-C , 23-H ) :   0.9325
B( 22-C , 24-H ) :   0.9323 B( 22-C , 25-C ) :   1.0373 B( 25-C , 26-H ) :   0.9607
B( 25-C , 27-H ) :   0.9550 B( 25-C , 28-C ) :   1.0723 B( 28-C , 29-H ) :   0.9751
B( 28-C , 30-H ) :   0.9765 B( 28-C , 31-H ) :   0.9766

Dispersion correction           -0.014440767
FINAL SINGLE POINT ENERGY     -1339.866327207886

DIPOLE MOMENT
-------------
                                X             Y             Z
Electronic contribution:      2.62866     -17.26201     -16.28933
Nuclear contribution   :     -2.45803      17.56178      16.61713
                        -----------------------------------------
Total Dipole Moment    :      0.17063       0.29977       0.32780
                        -----------------------------------------
Magnitude (a.u.)       :      0.47584
Magnitude (Debye)      :      1.20950

Rotational constants in cm-1:     0.019334     0.007922     0.006909
Rotational constants in MHz :   579.608773   237.497881   207.117521

                             ****ORCA TERMINATED NORMALLY****
TOTAL RUN TIME: 0 days 0 hours 0 minutes 34 seconds 43 msec
