                         Program Version 4.2.1 -  RELEASE  -
|  1> ! wB97X-D3 SP def2-SVP
|  2> %pal
|  3> nprocs 16
|  4> end
|  5>
|  6> * xyz 0 1
|  7> S 	 -34.8925 	 64.3689 	 109.224
|  8> C 	 -36.2867 	 64.457 	 110.26
|  9> C 	 -35.966 	 64.5875 	 111.6
| 10> C 	 -34.5725 	 64.3891 	 111.777
| 11> C 	 -33.8393 	 64.2831 	 110.602
| 12> H 	 -34.0307 	 64.3366 	 112.703
| 13> C 	 -36.9587 	 64.7314 	 112.798
| 14> H 	 -36.481 	 64.3237 	 113.693
| 15> H 	 -37.8195 	 64.1668 	 112.452
| 16> C 	 -37.461 	 66.1835 	 113.225
| 17> H 	 -38.1597 	 66.0088 	 114.075
| 18> H 	 -36.7012 	 66.8405 	 113.582
| 19> C 	 -38.2844 	 66.8165 	 112.108
| 20> H 	 -37.6551 	 66.7962 	 111.096
| 21> H 	 -39.1216 	 66.1358 	 111.929
| 22> H 	 -38.6146 	 67.8044 	 112.378
| 23> S 	 -31.4881 	 62.8787 	 110.953
| 24> C 	 -30.1431 	 63.47 	 110.085
| 25> C 	 -30.3452 	 64.7602 	 109.577
| 26> C 	 -31.6545 	 65.2375 	 109.84
| 27> C 	 -32.4269 	 64.307 	 110.464
| 28> H 	 -29.4831 	 65.2107 	 109.007
| 29> C 	 -32.0687 	 66.6635 	 109.437
| 30> H 	 -33.1723 	 66.7033 	 109.3
| 31> H 	 -31.7366 	 66.6881 	 108.347
| 32> C 	 -31.451 	 67.8399 	 110.13
| 33> H 	 -31.5987 	 68.8185 	 109.617
| 34> H 	 -30.3644 	 67.6689 	 110.142
| 35> C 	 -31.9268 	 67.9443 	 111.564
| 36> H 	 -31.9431 	 66.9899 	 112.076
| 37> H 	 -32.9037 	 68.4001 	 111.632
| 38> H 	 -31.12 	 68.4448 	 112.115
| 39> H 	 -37.3436 	 64.5415 	 109.92
| 40> H 	 -29.3102 	 62.8632 	 109.737
| 41> *
| 42>
| 43>                          ****END OF INPUT****

CARTESIAN COORDINATES (ANGSTROEM)
---------------------------------
  S    -34.892500   64.368900  109.224000
  C    -36.286700   64.457000  110.260000
  C    -35.966000   64.587500  111.600000
  C    -34.572500   64.389100  111.777000
  C    -33.839300   64.283100  110.602000
  H    -34.030700   64.336600  112.703000
  C    -36.958700   64.731400  112.798000
  H    -36.481000   64.323700  113.693000
  H    -37.819500   64.166800  112.452000
  C    -37.461000   66.183500  113.225000
  H    -38.159700   66.008800  114.075000
  H    -36.701200   66.840500  113.582000
  C    -38.284400   66.816500  112.108000
  H    -37.655100   66.796200  111.096000
  H    -39.121600   66.135800  111.929000
  H    -38.614600   67.804400  112.378000
  S    -31.488100   62.878700  110.953000
  C    -30.143100   63.470000  110.085000
  C    -30.345200   64.760200  109.577000
  C    -31.654500   65.237500  109.840000
  C    -32.426900   64.307000  110.464000
  H    -29.483100   65.210700  109.007000
  C    -32.068700   66.663500  109.437000
  H    -33.172300   66.703300  109.300000
  H    -31.736600   66.688100  108.347000
  C    -31.451000   67.839900  110.130000
  H    -31.598700   68.818500  109.617000
  H    -30.364400   67.668900  110.142000
  C    -31.926800   67.944300  111.564000
  H    -31.943100   66.989900  112.076000
  H    -32.903700   68.400100  111.632000
  H    -31.120000   68.444800  112.115000
  H    -37.343600   64.541500  109.920000
  H    -29.310200   62.863200  109.737000

 Total Charge           Charge          ....    0
 Multiplicity           Mult            ....    1
 Number of Electrons    NEL             ....  134
 Basis Dimension        Dim             ....  322

ORBITAL ENERGIES
----------------

  NO   OCC          E(Eh)            E(eV)
   0   2.0000     -88.969780     -2420.9908
   1   2.0000     -88.965502     -2420.8744
   2   2.0000     -10.322100      -280.8786
   3   2.0000     -10.320096      -280.8241
   4   2.0000     -10.316173      -280.7173
   5   2.0000     -10.314922      -280.6833
   6   2.0000     -10.302871      -280.3554
   7   2.0000     -10.302796      -280.3533
   8   2.0000     -10.301109      -280.3074
   9   2.0000     -10.296842      -280.1913
  10   2.0000     -10.293142      -280.0906
  11   2.0000     -10.290831      -280.0278
  12   2.0000     -10.290332      -280.0142
  13   2.0000     -10.285810      -279.8911
  14   2.0000     -10.284404      -279.8529
  15   2.0000     -10.267658      -279.3972
  16   2.0000      -8.084341      -219.9861
  17   2.0000      -8.080865      -219.8915
  18   2.0000      -6.042794      -164.4328
  19   2.0000      -6.039223      -164.3356
  20   2.0000      -6.038828      -164.3249
  21   2.0000      -6.035375      -164.2309
  22   2.0000      -6.035210      -164.2264
  23   2.0000      -6.031654      -164.1296
  24   2.0000      -1.011150       -27.5148
  25   2.0000      -0.986637       -26.8478
  26   2.0000      -0.910685       -24.7810
  27   2.0000      -0.905116       -24.6295
  28   2.0000      -0.870510       -23.6878
  29   2.0000      -0.852324       -23.1929
  30   2.0000      -0.848072       -23.0772
  31   2.0000      -0.806234       -21.9387
  32   2.0000      -0.782482       -21.2924
  33   2.0000      -0.772310       -21.0156
  34   2.0000      -0.706490       -19.2246
  35   2.0000      -0.694775       -18.9058
  36   2.0000      -0.688487       -18.7347
  37   2.0000      -0.658346       -17.9145
  38   2.0000      -0.638401       -17.3718
  39   2.0000      -0.614113       -16.7109
  40   2.0000      -0.593443       -16.1484
  41   2.0000      -0.565204       -15.3800
  42   2.0000      -0.552210       -15.0264
  43   2.0000      -0.550088       -14.9687
  44   2.0000      -0.543154       -14.7800
  45   2.0000      -0.536421       -14.5968
  46   2.0000      -0.522796       -14.2260
  47   2.0000      -0.519218       -14.1286
  48   2.0000      -0.500851       -13.6289
  49   2.0000      -0.490814       -13.3557
  50   2.0000      -0.481174       -13.0934
  51   2.0000      -0.476654       -12.9704
  52   2.0000      -0.474621       -12.9151
  53   2.0000      -0.461448       -12.5566
  54   2.0000      -0.452565       -12.3149
  55   2.0000      -0.447597       -12.1797
  56   2.0000      -0.444006       -12.0820
  57   2.0000      -0.436649       -11.8818
  58   2.0000      -0.429968       -11.7000
  59   2.0000      -0.425856       -11.5881
  60   2.0000      -0.416010       -11.3202
  61   2.0000      -0.413763       -11.2591
  62   2.0000      -0.413551       -11.2533
  63   2.0000      -0.340547        -9.2667
  64   2.0000      -0.333486        -9.0746
  65   2.0000      -0.329967        -8.9788
  66   2.0000      -0.291685        -7.9372
  67   0.0000       0.037355         1.0165
  68   0.0000       0.054486         1.4826
  69   0.0000       0.105246         2.8639
  70   0.0000       0.118133         3.2145
  71   0.0000       0.130681         3.5560

MULLIKEN ATOMIC CHARGES
-----------------------
   0 S :    0.133381
   1 C :   -0.142739
   2 C :   -0.079184
   3 C :    0.034385
   4 C :   -0.168174
   5 H :    0.001967
   6 C :    0.052181
   7 H :    0.033619
   8 H :    0.029744
   9 C :   -0.060508
  10 H :    0.035673
  11 H :    0.031613
  12 C :   -0.084009
  13 H :    0.052319
  14 H :    0.023837
  15 H :    0.040452
  16 S :    0.121558
  17 C :   -0.104515
  18 C :   -0.076333
  19 C :   -0.032182
  20 C :   -0.180035
  21 H :    0.043221
  22 C :    0.055946
  23 H :    0.025040
  24 H :    0.027642
  25 C :   -0.052417
  26 H :    0.040801
  27 H :    0.021492
  28 C :   -0.039779
  29 H :    0.027358
  30 H :    0.037915
  31 H :    0.025769
  32 H :    0.059106
  33 H :    0.064857
Sum of atomic charges:    0.0000000

LOEWDIN ATOMIC CHARGES
----------------------
   0 S :    0.430480
   1 C :   -0.211173
   2 C :   -0.067463
   3 C :   -0.058416
   4 C :   -0.203124
   5 H :    0.027336
   6 C :   -0.023177
   7 H :    0.032452
   8 H :    0.031221
   9 C :   -0.038133
  10 H :    0.028860
  11 H :    0.018099
  12 C :   -0.074564
  13 H :    0.037854
  14 H :    0.020902
  15 H :    0.022079
  16 S :    0.412046
  17 C :   -0.201381
  18 C :   -0.080218
  19 C :   -0.057319
  20 C :   -0.199452
  21 H :    0.042603
  22 C :   -0.040657
  23 H :    0.023688
  24 H :    0.037432
  25 C :   -0.045499
  26 H :    0.032756
  27 H :    0.024798
  28 C :   -0.066929
  29 H :    0.025235
  30 H :    0.024994
  31 H :    0.028476
  32 H :    0.033836
  33 H :    0.032357

  Mayer bond orders larger than 0.100000
B(  0-S ,  1-C ) :   1.1518 B(  0-S ,  4-C ) :   1.1469 B(  1-C ,  2-C ) :   1.5990
B(  1-C , 32-H ) :   0.9584 B(  2-C ,  3-C ) :   1.2597 B(  2-C ,  6-C ) :   1.0037
B(  3-C ,  4-C ) :   1.5698 B(  3-C ,  5-H ) :   0.9939 B(  4-C , 20-C ) :   1.0465
B(  6-C ,  7-H ) :   0.9468 B(  6-C ,  8-H ) :   0.9456 B(  6-C ,  9-C ) :   1.0640
B(  9-C , 10-H ) :   0.9554 B(  9-C , 11-H ) :   0.9594 B(  9-C , 12-C ) :   1.0730
B( 12-C , 13-H ) :   0.9710 B( 12-C , 14-H ) :   0.9757 B( 12-C , 15-H ) :   0.9729
B( 16-S , 17-C ) :   1.1689 B( 16-S , 20-C ) :   1.1271 B( 17-C , 18-C ) :   1.6185
B( 17-C , 33-H ) :   0.9624 B( 18-C , 19-C ) :   1.2185 B( 18-C , 21-H ) :   0.9828
B( 19-C , 20-C ) :   1.6108 B( 19-C , 22-C ) :   1.0306 B( 22-C , 23-H ) :   0.9301
B( 22-C , 24-H ) :   0.9284 B( 22-C , 25-C ) :   1.0785 B( 25-C , 26-H ) :   0.9515
B( 25-C , 27-H ) :   0.9532 B( 25-C , 28-C ) :   1.0798 B( 28-C , 29-H ) :   0.9744
B( 28-C , 30-H ) :   0.9751 B( 28-C , 31-H ) :   0.9723

Dispersion correction           -0.015058277
FINAL SINGLE POINT ENERGY     -1339.873952812496

DIPOLE MOMENT
-------------
                                X             Y             Z
Electronic contribution:     10.40592     -20.86900      -9.31657
Nuclear contribution   :    -10.48582      21.22799       9.46020
                        -----------------------------------------
Total Dipole Moment    :     -0.07990       0.35899       0.14364
                        -----------------------------------------
Magnitude (a.u.)       :      0.39483
Magnitude (Debye)      :      1.00357

Rotational constants in cm-1:     0.020966     0.008492     0.007327
Rotational constants in MHz :   628.532919   254.580565   219.656376

                             ****ORCA TERMINATED NORMALLY****
TOTAL RUN TIME: 0 days 0 hours 0 minutes 28 seconds 368 msec
