                         Program Version 4.2.1 -  RELEASE  -
|  1> ! wB97X-D3 SP def2-SVP
|  2> %pal
|  3> nprocs 16
|  4> end
|  5>
|  6> * xyz 0 1
|  7> S 	 6.62507 	 -11.7583 	 56.4676
|  8> C 	 4.89377 	 -11.6662 	 56.7322
|  9> C 	 4.26211 	 -12.8473 	 56.4512
| 10> C 	 5.25044 	 -13.9022 	 56.2345
| 11> C 	 6.61849 	 -13.5341 	 56.2423
| 12> H 	 5.0444 	 -14.9504 	 56.1152
| 13> C 	 2.8039 	 -13.0953 	 56.3682
| 14> H 	 2.47827 	 -13.1782 	 55.3364
| 15> H 	 2.21768 	 -12.1529 	 56.5368
| 16> C 	 2.22763 	 -14.2789 	 57.2239
| 17> H 	 1.213 	 -14.3281 	 57.0779
| 18> H 	 2.68004 	 -15.2765 	 56.9145
| 19> C 	 2.53101 	 -14.1572 	 58.7573
| 20> H 	 3.54057 	 -14.3228 	 59.0114
| 21> H 	 2.17322 	 -13.1584 	 59.138
| 22> H 	 2.0114 	 -14.9698 	 59.248
| 23> S 	 9.06176 	 -13.6494 	 55.1297
| 24> C 	 9.99318 	 -15.1213 	 55.2756
| 25> C 	 9.45579 	 -16.0193 	 56.19
| 26> C 	 8.14138 	 -15.5806 	 56.5213
| 27> C 	 7.81469 	 -14.3407 	 56.0712
| 28> H 	 10.0352 	 -16.9582 	 56.4145
| 29> C 	 7.31273 	 -16.4527 	 57.4975
| 30> H 	 7.74795 	 -17.4592 	 57.5624
| 31> H 	 6.27556 	 -16.5813 	 57.1236
| 32> C 	 7.16578 	 -15.8907 	 58.9558
| 33> H 	 6.85965 	 -14.8461 	 59.0338
| 34> H 	 8.19898 	 -15.9455 	 59.264
| 35> C 	 6.27146 	 -16.7323 	 59.8621
| 36> H 	 6.77701 	 -17.5516 	 60.3903
| 37> H 	 5.48704 	 -17.1828 	 59.2598
| 38> H 	 5.77353 	 -16.1547 	 60.6029
| 39> H 	 4.43862 	 -10.6539 	 56.8873
| 40> H 	 10.8963 	 -15.2538 	 54.7593
| 41> *
| 42>
| 43>                          ****END OF INPUT****

CARTESIAN COORDINATES (ANGSTROEM)
---------------------------------
  S      6.625070  -11.758300   56.467600
  C      4.893770  -11.666200   56.732200
  C      4.262110  -12.847300   56.451200
  C      5.250440  -13.902200   56.234500
  C      6.618490  -13.534100   56.242300
  H      5.044400  -14.950400   56.115200
  C      2.803900  -13.095300   56.368200
  H      2.478270  -13.178200   55.336400
  H      2.217680  -12.152900   56.536800
  C      2.227630  -14.278900   57.223900
  H      1.213000  -14.328100   57.077900
  H      2.680040  -15.276500   56.914500
  C      2.531010  -14.157200   58.757300
  H      3.540570  -14.322800   59.011400
  H      2.173220  -13.158400   59.138000
  H      2.011400  -14.969800   59.248000
  S      9.061760  -13.649400   55.129700
  C      9.993180  -15.121300   55.275600
  C      9.455790  -16.019300   56.190000
  C      8.141380  -15.580600   56.521300
  C      7.814690  -14.340700   56.071200
  H     10.035200  -16.958200   56.414500
  C      7.312730  -16.452700   57.497500
  H      7.747950  -17.459200   57.562400
  H      6.275560  -16.581300   57.123600
  C      7.165780  -15.890700   58.955800
  H      6.859650  -14.846100   59.033800
  H      8.198980  -15.945500   59.264000
  C      6.271460  -16.732300   59.862100
  H      6.777010  -17.551600   60.390300
  H      5.487040  -17.182800   59.259800
  H      5.773530  -16.154700   60.602900
  H      4.438620  -10.653900   56.887300
  H     10.896300  -15.253800   54.759300

 Total Charge           Charge          ....    0
 Multiplicity           Mult            ....    1
 Number of Electrons    NEL             ....  134
 Basis Dimension        Dim             ....  322

ORBITAL ENERGIES
----------------

  NO   OCC          E(Eh)            E(eV)
   0   2.0000     -88.968026     -2420.9431
   1   2.0000     -88.961952     -2420.7778
   2   2.0000     -10.336536      -281.2714
   3   2.0000     -10.324575      -280.9460
   4   2.0000     -10.318334      -280.7761
   5   2.0000     -10.316301      -280.7208
   6   2.0000     -10.305225      -280.4194
   7   2.0000     -10.305114      -280.4164
   8   2.0000     -10.302717      -280.3512
   9   2.0000     -10.297261      -280.2027
  10   2.0000     -10.296790      -280.1899
  11   2.0000     -10.296483      -280.1816
  12   2.0000     -10.292151      -280.0637
  13   2.0000     -10.281525      -279.7745
  14   2.0000     -10.276835      -279.6469
  15   2.0000     -10.273062      -279.5442
  16   2.0000      -8.083830      -219.9722
  17   2.0000      -8.076250      -219.7659
  18   2.0000      -6.042180      -164.4161
  19   2.0000      -6.038282      -164.3100
  20   2.0000      -6.034950      -164.2193
  21   2.0000      -6.034591      -164.2096
  22   2.0000      -6.030834      -164.1073
  23   2.0000      -6.026829      -163.9984
  24   2.0000      -1.012093       -27.5404
  25   2.0000      -0.982051       -26.7230
  26   2.0000      -0.907014       -24.6811
  27   2.0000      -0.902833       -24.5673
  28   2.0000      -0.871601       -23.7175
  29   2.0000      -0.853167       -23.2159
  30   2.0000      -0.839658       -22.8482
  31   2.0000      -0.813862       -22.1463
  32   2.0000      -0.782144       -21.2832
  33   2.0000      -0.773963       -21.0606
  34   2.0000      -0.710662       -19.3381
  35   2.0000      -0.698962       -19.0197
  36   2.0000      -0.690406       -18.7869
  37   2.0000      -0.669464       -18.2171
  38   2.0000      -0.638875       -17.3847
  39   2.0000      -0.620691       -16.8899
  40   2.0000      -0.596018       -16.2185
  41   2.0000      -0.567886       -15.4530
  42   2.0000      -0.561895       -15.2899
  43   2.0000      -0.546043       -14.8586
  44   2.0000      -0.539208       -14.6726
  45   2.0000      -0.523219       -14.2375
  46   2.0000      -0.516056       -14.0426
  47   2.0000      -0.512235       -13.9386
  48   2.0000      -0.502455       -13.6725
  49   2.0000      -0.500924       -13.6308
  50   2.0000      -0.489453       -13.3187
  51   2.0000      -0.482777       -13.1370
  52   2.0000      -0.471891       -12.8408
  53   2.0000      -0.464808       -12.6481
  54   2.0000      -0.456860       -12.4318
  55   2.0000      -0.450321       -12.2539
  56   2.0000      -0.445199       -12.1145
  57   2.0000      -0.436606       -11.8807
  58   2.0000      -0.429483       -11.6868
  59   2.0000      -0.426983       -11.6188
  60   2.0000      -0.418240       -11.3809
  61   2.0000      -0.411878       -11.2078
  62   2.0000      -0.410285       -11.1644
  63   2.0000      -0.356905        -9.7119
  64   2.0000      -0.335385        -9.1263
  65   2.0000      -0.324284        -8.8242
  66   2.0000      -0.287645        -7.8272
  67   0.0000       0.026362         0.7173
  68   0.0000       0.069712         1.8970
  69   0.0000       0.108630         2.9560
  70   0.0000       0.117062         3.1854
  71   0.0000       0.125890         3.4256

MULLIKEN ATOMIC CHARGES
-----------------------
   0 S :    0.081050
   1 C :   -0.148774
   2 C :   -0.043016
   3 C :    0.015337
   4 C :   -0.138826
   5 H :   -0.000484
   6 C :    0.050457
   7 H :    0.036442
   8 H :    0.012572
   9 C :   -0.066321
  10 H :    0.016550
  11 H :    0.035951
  12 C :   -0.047019
  13 H :    0.031445
  14 H :    0.037604
  15 H :    0.028207
  16 S :    0.115222
  17 C :   -0.086211
  18 C :   -0.047212
  19 C :   -0.046884
  20 C :   -0.124130
  21 H :    0.050243
  22 C :    0.040941
  23 H :    0.022255
  24 H :    0.019872
  25 C :   -0.077096
  26 H :    0.047481
  27 H :    0.022806
  28 C :   -0.022755
  29 H :    0.032547
  30 H :    0.016240
  31 H :    0.025871
  32 H :    0.071016
  33 H :    0.038620
Sum of atomic charges:   -0.0000000

LOEWDIN ATOMIC CHARGES
----------------------
   0 S :    0.373485
   1 C :   -0.196099
   2 C :   -0.066357
   3 C :   -0.062764
   4 C :   -0.178239
   5 H :    0.022242
   6 C :   -0.043360
   7 H :    0.036749
   8 H :    0.034999
   9 C :   -0.030342
  10 H :    0.012360
  11 H :    0.028746
  12 C :   -0.062332
  13 H :    0.018532
  14 H :    0.029587
  15 H :    0.025444
  16 S :    0.429185
  17 C :   -0.171034
  18 C :   -0.072865
  19 C :   -0.058045
  20 C :   -0.212122
  21 H :    0.048251
  22 C :   -0.029034
  23 H :    0.029225
  24 H :    0.022508
  25 C :   -0.041411
  26 H :    0.028488
  27 H :    0.022556
  28 C :   -0.065399
  29 H :    0.027506
  30 H :    0.022285
  31 H :    0.023373
  32 H :    0.038380
  33 H :    0.015502

  Mayer bond orders larger than 0.100000
B(  0-S ,  1-C ) :   1.1336 B(  0-S ,  4-C ) :   1.1283 B(  1-C ,  2-C ) :   1.6152
B(  1-C , 32-H ) :   0.9594 B(  2-C ,  3-C ) :   1.2098 B(  2-C ,  6-C ) :   1.0405
B(  3-C ,  4-C ) :   1.5909 B(  3-C ,  5-H ) :   0.9947 B(  4-C , 20-C ) :   1.0590
B(  6-C ,  7-H ) :   0.9309 B(  6-C ,  8-H ) :   0.9355 B(  6-C ,  9-C ) :   1.0663
B(  9-C , 10-H ) :   0.9570 B(  9-C , 11-H ) :   0.9553 B(  9-C , 12-C ) :   1.0724
B( 12-C , 13-H ) :   0.9756 B( 12-C , 14-H ) :   0.9770 B( 12-C , 15-H ) :   0.9741
B( 16-S , 17-C ) :   1.1725 B( 16-S , 20-C ) :   1.1395 B( 17-C , 18-C ) :   1.6008
B( 17-C , 33-H ) :   0.9743 B( 18-C , 19-C ) :   1.2362 B( 18-C , 21-H ) :   0.9835
B( 19-C , 20-C ) :   1.6067 B( 19-C , 22-C ) :   1.0452 B( 22-C , 23-H ) :   0.9413
B( 22-C , 24-H ) :   0.9337 B( 22-C , 25-C ) :   1.0522 B( 25-C , 26-H ) :   0.9624
B( 25-C , 27-H ) :   0.9579 B( 25-C , 28-C ) :   1.0727 B( 28-C , 29-H ) :   0.9753
B( 28-C , 30-H ) :   0.9751 B( 28-C , 31-H ) :   0.9754

Dispersion correction           -0.015239336
FINAL SINGLE POINT ENERGY     -1339.875464893110

DIPOLE MOMENT
-------------
                                X             Y             Z
Electronic contribution:     20.62287      15.48545     -17.56243
Nuclear contribution   :    -20.96756     -15.98278      17.71172
                        -----------------------------------------
Total Dipole Moment    :     -0.34470      -0.49733       0.14929
                        -----------------------------------------
Magnitude (a.u.)       :      0.62325
Magnitude (Debye)      :      1.58417

Rotational constants in cm-1:     0.018263     0.010084     0.007275
Rotational constants in MHz :   547.509725   302.301323   218.111565

                             ****ORCA TERMINATED NORMALLY****
TOTAL RUN TIME: 0 days 0 hours 0 minutes 32 seconds 134 msec
