                         Program Version 4.2.1 -  RELEASE  -
|  1> ! wB97X-D3 SP def2-SVP
|  2> %pal
|  3> nprocs 16
|  4> end
|  5>
|  6> * xyz 0 1
|  7> S 	 -40.6834 	 17.5407 	 74.8688
|  8> C 	 -39.4533 	 18.7082 	 75.2011
|  9> C 	 -38.4867 	 18.2409 	 76.02
| 10> C 	 -38.7661 	 16.8964 	 76.4231
| 11> C 	 -39.8268 	 16.3632 	 75.7804
| 12> H 	 -38.1615 	 16.3057 	 77.0731
| 13> C 	 -37.2677 	 19.0123 	 76.516
| 14> H 	 -37.1815 	 18.777 	 77.5894
| 15> H 	 -37.4893 	 20.0661 	 76.4864
| 16> C 	 -35.9285 	 18.6078 	 75.794
| 17> H 	 -36.0316 	 18.8686 	 74.739
| 18> H 	 -35.086 	 19.259 	 76.1362
| 19> C 	 -35.5425 	 17.1345 	 75.8169
| 20> H 	 -35.3686 	 16.8019 	 76.889
| 21> H 	 -36.3905 	 16.5843 	 75.4776
| 22> H 	 -34.59 	 16.9113 	 75.2716
| 23> S 	 -42.1399 	 14.9634 	 76.0329
| 24> C 	 -42.0208 	 13.2758 	 76.3162
| 25> C 	 -40.7185 	 12.7793 	 76.3298
| 26> C 	 -39.7553 	 13.8147 	 76.0578
| 27> C 	 -40.3525 	 15.0402 	 75.8659
| 28> H 	 -40.458 	 11.7358 	 76.5968
| 29> C 	 -38.2421 	 13.5218 	 76.0842
| 30> H 	 -38.213 	 12.5186 	 76.6145
| 31> H 	 -37.8123 	 14.2306 	 76.7301
| 32> C 	 -37.5173 	 13.4884 	 74.6433
| 33> H 	 -37.834 	 14.3798 	 74.0952
| 34> H 	 -37.798 	 12.5242 	 74.0787
| 35> C 	 -35.9811 	 13.6904 	 74.8586
| 36> H 	 -35.2891 	 13.9208 	 74.0017
| 37> H 	 -35.5579 	 12.6962 	 75.0902
| 38> H 	 -35.6699 	 14.421 	 75.614
| 39> H 	 -39.5219 	 19.7139 	 74.8799
| 40> H 	 -42.8425 	 12.6051 	 76.2898
| 41> *
| 42>
| 43>                          ****END OF INPUT****

CARTESIAN COORDINATES (ANGSTROEM)
---------------------------------
  S    -40.683400   17.540700   74.868800
  C    -39.453300   18.708200   75.201100
  C    -38.486700   18.240900   76.020000
  C    -38.766100   16.896400   76.423100
  C    -39.826800   16.363200   75.780400
  H    -38.161500   16.305700   77.073100
  C    -37.267700   19.012300   76.516000
  H    -37.181500   18.777000   77.589400
  H    -37.489300   20.066100   76.486400
  C    -35.928500   18.607800   75.794000
  H    -36.031600   18.868600   74.739000
  H    -35.086000   19.259000   76.136200
  C    -35.542500   17.134500   75.816900
  H    -35.368600   16.801900   76.889000
  H    -36.390500   16.584300   75.477600
  H    -34.590000   16.911300   75.271600
  S    -42.139900   14.963400   76.032900
  C    -42.020800   13.275800   76.316200
  C    -40.718500   12.779300   76.329800
  C    -39.755300   13.814700   76.057800
  C    -40.352500   15.040200   75.865900
  H    -40.458000   11.735800   76.596800
  C    -38.242100   13.521800   76.084200
  H    -38.213000   12.518600   76.614500
  H    -37.812300   14.230600   76.730100
  C    -37.517300   13.488400   74.643300
  H    -37.834000   14.379800   74.095200
  H    -37.798000   12.524200   74.078700
  C    -35.981100   13.690400   74.858600
  H    -35.289100   13.920800   74.001700
  H    -35.557900   12.696200   75.090200
  H    -35.669900   14.421000   75.614000
  H    -39.521900   19.713900   74.879900
  H    -42.842500   12.605100   76.289800

 Total Charge           Charge          ....    0
 Multiplicity           Mult            ....    1
 Number of Electrons    NEL             ....  134
 Basis Dimension        Dim             ....  322

ORBITAL ENERGIES
----------------

  NO   OCC          E(Eh)            E(eV)
   0   2.0000     -88.966640     -2420.9054
   1   2.0000     -88.962782     -2420.8004
   2   2.0000     -10.323508      -280.9169
   3   2.0000     -10.320770      -280.8424
   4   2.0000     -10.313649      -280.6486
   5   2.0000     -10.305632      -280.4305
   6   2.0000     -10.304294      -280.3941
   7   2.0000     -10.304168      -280.3907
   8   2.0000     -10.301316      -280.3131
   9   2.0000     -10.297761      -280.2163
  10   2.0000     -10.297635      -280.2129
  11   2.0000     -10.297604      -280.2120
  12   2.0000     -10.292435      -280.0714
  13   2.0000     -10.287927      -279.9487
  14   2.0000     -10.284477      -279.8549
  15   2.0000     -10.283300      -279.8228
  16   2.0000      -8.081438      -219.9071
  17   2.0000      -8.079082      -219.8430
  18   2.0000      -6.039923      -164.3547
  19   2.0000      -6.037540      -164.2898
  20   2.0000      -6.036046      -164.2492
  21   2.0000      -6.033486      -164.1795
  22   2.0000      -6.032116      -164.1422
  23   2.0000      -6.029692      -164.0763
  24   2.0000      -1.016214       -27.6526
  25   2.0000      -0.986169       -26.8350
  26   2.0000      -0.910282       -24.7700
  27   2.0000      -0.898247       -24.4426
  28   2.0000      -0.872304       -23.7366
  29   2.0000      -0.853196       -23.2166
  30   2.0000      -0.843584       -22.9551
  31   2.0000      -0.815825       -22.1997
  32   2.0000      -0.782955       -21.3053
  33   2.0000      -0.772352       -21.0168
  34   2.0000      -0.707450       -19.2507
  35   2.0000      -0.700080       -19.0502
  36   2.0000      -0.694478       -18.8977
  37   2.0000      -0.667809       -18.1720
  38   2.0000      -0.645244       -17.5580
  39   2.0000      -0.620294       -16.8791
  40   2.0000      -0.590397       -16.0655
  41   2.0000      -0.567573       -15.4444
  42   2.0000      -0.560566       -15.2538
  43   2.0000      -0.549281       -14.9467
  44   2.0000      -0.537653       -14.6303
  45   2.0000      -0.516880       -14.0650
  46   2.0000      -0.514246       -13.9933
  47   2.0000      -0.509765       -13.8714
  48   2.0000      -0.505581       -13.7576
  49   2.0000      -0.500352       -13.6153
  50   2.0000      -0.489885       -13.3304
  51   2.0000      -0.485057       -13.1991
  52   2.0000      -0.473288       -12.8788
  53   2.0000      -0.466607       -12.6970
  54   2.0000      -0.458407       -12.4739
  55   2.0000      -0.453265       -12.3340
  56   2.0000      -0.447516       -12.1775
  57   2.0000      -0.439666       -11.9639
  58   2.0000      -0.432514       -11.7693
  59   2.0000      -0.424665       -11.5557
  60   2.0000      -0.421762       -11.4767
  61   2.0000      -0.414469       -11.2783
  62   2.0000      -0.409784       -11.1508
  63   2.0000      -0.353049        -9.6070
  64   2.0000      -0.334464        -9.1012
  65   2.0000      -0.331949        -9.0328
  66   2.0000      -0.288018        -7.8374
  67   0.0000       0.026387         0.7180
  68   0.0000       0.077265         2.1025
  69   0.0000       0.100152         2.7253
  70   0.0000       0.121380         3.3029
  71   0.0000       0.127721         3.4755

MULLIKEN ATOMIC CHARGES
-----------------------
   0 S :    0.102795
   1 C :   -0.105469
   2 C :   -0.099722
   3 C :    0.013911
   4 C :   -0.131438
   5 H :   -0.006871
   6 C :    0.084357
   7 H :    0.030349
   8 H :    0.021104
   9 C :   -0.055295
  10 H :    0.025877
  11 H :    0.035802
  12 C :   -0.099171
  13 H :    0.030150
  14 H :    0.045917
  15 H :    0.053842
  16 S :    0.101500
  17 C :   -0.064166
  18 C :   -0.062681
  19 C :   -0.064618
  20 C :   -0.125069
  21 H :    0.030692
  22 C :    0.072824
  23 H :    0.029020
  24 H :    0.007069
  25 C :   -0.064676
  26 H :    0.050797
  27 H :    0.059609
  28 C :   -0.089336
  29 H :    0.035213
  30 H :    0.024479
  31 H :    0.038949
  32 H :    0.027649
  33 H :    0.046609
Sum of atomic charges:   -0.0000000

LOEWDIN ATOMIC CHARGES
----------------------
   0 S :    0.415647
   1 C :   -0.193208
   2 C :   -0.064123
   3 C :   -0.063824
   4 C :   -0.198779
   5 H :    0.023338
   6 C :   -0.027167
   7 H :    0.032724
   8 H :    0.029196
   9 C :   -0.042148
  10 H :    0.023776
  11 H :    0.026708
  12 C :   -0.073787
  13 H :    0.025510
  14 H :    0.020247
  15 H :    0.035730
  16 S :    0.399005
  17 C :   -0.189059
  18 C :   -0.075822
  19 C :   -0.055353
  20 C :   -0.184411
  21 H :    0.036386
  22 C :   -0.023776
  23 H :    0.037168
  24 H :    0.016788
  25 C :   -0.034741
  26 H :    0.026827
  27 H :    0.039700
  28 C :   -0.086825
  29 H :    0.030895
  30 H :    0.025422
  31 H :    0.025977
  32 H :    0.019924
  33 H :    0.022053

  Mayer bond orders larger than 0.100000
B(  0-S ,  1-C ) :   1.1278 B(  0-S ,  4-C ) :   1.1489 B(  1-C ,  2-C ) :   1.6492
B(  1-C , 32-H ) :   0.9712 B(  2-C ,  3-C ) :   1.2130 B(  2-C ,  6-C ) :   1.0143
B(  3-C ,  4-C ) :   1.5920 B(  3-C ,  5-H ) :   0.9982 B(  4-C , 20-C ) :   1.0516
B(  6-C ,  7-H ) :   0.9425 B(  6-C ,  8-H ) :   0.9415 B(  6-C ,  9-C ) :   1.0567
B(  9-C , 10-H ) :   0.9529 B(  9-C , 11-H ) :   0.9560 B(  9-C , 12-C ) :   1.0819
B( 12-C , 13-H ) :   0.9712 B( 12-C , 14-H ) :   0.9626 B( 12-C , 15-H ) :   0.9690
B( 16-S , 17-C ) :   1.1621 B( 16-S , 20-C ) :   1.1199 B( 17-C , 18-C ) :   1.6134
B( 17-C , 20-C ) :   0.1001 B( 17-C , 33-H ) :   0.9653 B( 18-C , 19-C ) :   1.2443
B( 18-C , 21-H ) :   0.9809 B( 19-C , 20-C ) :   1.6220 B( 19-C , 22-C ) :   1.0267
B( 22-C , 23-H ) :   0.9326 B( 22-C , 24-H ) :   0.9425 B( 22-C , 25-C ) :   1.0410
B( 25-C , 26-H ) :   0.9652 B( 25-C , 27-H ) :   0.9580 B( 25-C , 28-C ) :   1.0553
B( 28-C , 29-H ) :   0.9761 B( 28-C , 30-H ) :   0.9733 B( 28-C , 31-H ) :   0.9730

Dispersion correction           -0.016185712
FINAL SINGLE POINT ENERGY     -1339.879882616851

DIPOLE MOMENT
-------------
                                X             Y             Z
Electronic contribution:    -31.69126       3.16997      -0.31060
Nuclear contribution   :     32.30116      -3.27934       0.46523
                        -----------------------------------------
Total Dipole Moment    :      0.60990      -0.10936       0.15463
                        -----------------------------------------
Magnitude (a.u.)       :      0.63863
Magnitude (Debye)      :      1.62326

Rotational constants in cm-1:     0.018059     0.011083     0.007463
Rotational constants in MHz :   541.383633   332.253104   223.745586

                             ****ORCA TERMINATED NORMALLY****
TOTAL RUN TIME: 0 days 0 hours 0 minutes 31 seconds 372 msec
