                         Program Version 4.2.1 -  RELEASE  -
|  1> ! wB97X-D3 SP def2-SVP
|  2> %pal
|  3> nprocs 16
|  4> end
|  5>
|  6> * xyz 0 1
|  7> S 	 -45.5778 	 61.8398 	 136.188
|  8> C 	 -45.3015 	 60.2103 	 135.564
|  9> C 	 -46.4682 	 59.4564 	 135.526
| 10> C 	 -47.5851 	 60.2156 	 136.062
| 11> C 	 -47.2309 	 61.4654 	 136.481
| 12> H 	 -48.5606 	 59.7769 	 136.187
| 13> C 	 -46.6705 	 58.0215 	 135.092
| 14> H 	 -45.7657 	 57.5473 	 134.61
| 15> H 	 -47.427 	 57.9424 	 134.344
| 16> C 	 -47.2653 	 57.2163 	 136.263
| 17> H 	 -46.4101 	 57.1594 	 136.935
| 18> H 	 -48.0318 	 57.7197 	 136.82
| 19> C 	 -47.8541 	 55.79 	 136.088
| 20> H 	 -48.6873 	 55.8642 	 135.439
| 21> H 	 -47.1261 	 55.14 	 135.605
| 22> H 	 -48.1375 	 55.2565 	 137.064
| 23> S 	 -47.0402 	 63.507 	 138.367
| 24> C 	 -48.5115 	 63.9318 	 139.293
| 25> C 	 -49.6682 	 63.3885 	 138.685
| 26> C 	 -49.3404 	 62.5354 	 137.612
| 27> C 	 -47.9795 	 62.418 	 137.323
| 28> H 	 -50.6632 	 63.6648 	 139.021
| 29> C 	 -50.4739 	 61.936 	 136.768
| 30> H 	 -51.0383 	 61.2471 	 137.324
| 31> H 	 -49.9089 	 61.3459 	 136.09
| 32> C 	 -51.389 	 62.8942 	 135.987
| 33> H 	 -50.9295 	 63.5861 	 135.296
| 34> H 	 -51.8165 	 63.62 	 136.818
| 35> C 	 -52.4921 	 62.1622 	 135.267
| 36> H 	 -53.1116 	 62.9032 	 134.683
| 37> H 	 -53.2696 	 61.8233 	 135.948
| 38> H 	 -52.1464 	 61.3559 	 134.683
| 39> H 	 -44.2754 	 59.8958 	 135.451
| 40> H 	 -48.4555 	 64.6219 	 140.096
| 41> *
| 42>
| 43>                          ****END OF INPUT****

CARTESIAN COORDINATES (ANGSTROEM)
---------------------------------
  S    -45.577800   61.839800  136.188000
  C    -45.301500   60.210300  135.564000
  C    -46.468200   59.456400  135.526000
  C    -47.585100   60.215600  136.062000
  C    -47.230900   61.465400  136.481000
  H    -48.560600   59.776900  136.187000
  C    -46.670500   58.021500  135.092000
  H    -45.765700   57.547300  134.610000
  H    -47.427000   57.942400  134.344000
  C    -47.265300   57.216300  136.263000
  H    -46.410100   57.159400  136.935000
  H    -48.031800   57.719700  136.820000
  C    -47.854100   55.790000  136.088000
  H    -48.687300   55.864200  135.439000
  H    -47.126100   55.140000  135.605000
  H    -48.137500   55.256500  137.064000
  S    -47.040200   63.507000  138.367000
  C    -48.511500   63.931800  139.293000
  C    -49.668200   63.388500  138.685000
  C    -49.340400   62.535400  137.612000
  C    -47.979500   62.418000  137.323000
  H    -50.663200   63.664800  139.021000
  C    -50.473900   61.936000  136.768000
  H    -51.038300   61.247100  137.324000
  H    -49.908900   61.345900  136.090000
  C    -51.389000   62.894200  135.987000
  H    -50.929500   63.586100  135.296000
  H    -51.816500   63.620000  136.818000
  C    -52.492100   62.162200  135.267000
  H    -53.111600   62.903200  134.683000
  H    -53.269600   61.823300  135.948000
  H    -52.146400   61.355900  134.683000
  H    -44.275400   59.895800  135.451000
  H    -48.455500   64.621900  140.096000

 Total Charge           Charge          ....    0
 Multiplicity           Mult            ....    1
 Number of Electrons    NEL             ....  134
 Basis Dimension        Dim             ....  322

ORBITAL ENERGIES
----------------

  NO   OCC          E(Eh)            E(eV)
   0   2.0000     -88.967319     -2420.9238
   1   2.0000     -88.964180     -2420.8384
   2   2.0000     -10.332042      -281.1492
   3   2.0000     -10.331350      -281.1303
   4   2.0000     -10.323023      -280.9037
   5   2.0000     -10.316381      -280.7230
   6   2.0000     -10.309010      -280.5224
   7   2.0000     -10.302802      -280.3535
   8   2.0000     -10.299645      -280.2676
   9   2.0000     -10.298559      -280.2380
  10   2.0000     -10.294325      -280.1228
  11   2.0000     -10.293984      -280.1135
  12   2.0000     -10.284939      -279.8674
  13   2.0000     -10.284594      -279.8580
  14   2.0000     -10.283349      -279.8241
  15   2.0000     -10.277969      -279.6778
  16   2.0000      -8.080988      -219.8949
  17   2.0000      -8.079803      -219.8626
  18   2.0000      -6.039581      -164.3453
  19   2.0000      -6.038300      -164.3105
  20   2.0000      -6.035658      -164.2386
  21   2.0000      -6.034361      -164.2033
  22   2.0000      -6.031719      -164.1314
  23   2.0000      -6.030365      -164.0946
  24   2.0000      -1.007209       -27.4075
  25   2.0000      -0.979461       -26.6525
  26   2.0000      -0.914191       -24.8764
  27   2.0000      -0.908483       -24.7211
  28   2.0000      -0.866010       -23.5653
  29   2.0000      -0.855465       -23.2784
  30   2.0000      -0.843919       -22.9642
  31   2.0000      -0.814402       -22.1610
  32   2.0000      -0.785077       -21.3630
  33   2.0000      -0.773647       -21.0520
  34   2.0000      -0.705286       -19.1918
  35   2.0000      -0.699507       -19.0346
  36   2.0000      -0.694717       -18.9042
  37   2.0000      -0.664314       -18.0769
  38   2.0000      -0.644032       -17.5250
  39   2.0000      -0.629144       -17.1199
  40   2.0000      -0.596759       -16.2386
  41   2.0000      -0.568047       -15.4573
  42   2.0000      -0.566823       -15.4240
  43   2.0000      -0.556836       -15.1523
  44   2.0000      -0.532757       -14.4970
  45   2.0000      -0.525257       -14.2930
  46   2.0000      -0.517861       -14.0917
  47   2.0000      -0.516562       -14.0564
  48   2.0000      -0.508373       -13.8335
  49   2.0000      -0.498413       -13.5625
  50   2.0000      -0.495024       -13.4703
  51   2.0000      -0.479715       -13.0537
  52   2.0000      -0.471571       -12.8321
  53   2.0000      -0.462754       -12.5922
  54   2.0000      -0.461176       -12.5492
  55   2.0000      -0.455961       -12.4073
  56   2.0000      -0.449314       -12.2265
  57   2.0000      -0.435266       -11.8442
  58   2.0000      -0.432354       -11.7649
  59   2.0000      -0.423426       -11.5220
  60   2.0000      -0.417160       -11.3515
  61   2.0000      -0.414162       -11.2699
  62   2.0000      -0.406137       -11.0516
  63   2.0000      -0.356470        -9.7001
  64   2.0000      -0.337683        -9.1888
  65   2.0000      -0.326246        -8.8776
  66   2.0000      -0.282196        -7.6789
  67   0.0000       0.018399         0.5007
  68   0.0000       0.074106         2.0165
  69   0.0000       0.094819         2.5802
  70   0.0000       0.117722         3.2034
  71   0.0000       0.135637         3.6909

MULLIKEN ATOMIC CHARGES
-----------------------
   0 S :    0.081334
   1 C :   -0.138842
   2 C :   -0.058059
   3 C :   -0.023251
   4 C :   -0.087150
   5 H :    0.018620
   6 C :    0.105830
   7 H :    0.037083
   8 H :    0.015213
   9 C :   -0.133713
  10 H :    0.026759
  11 H :    0.033138
  12 C :   -0.044780
  13 H :    0.023476
  14 H :    0.025834
  15 H :    0.053449
  16 S :    0.083132
  17 C :   -0.091245
  18 C :   -0.018440
  19 C :   -0.079892
  20 C :   -0.106320
  21 H :    0.025085
  22 C :    0.112871
  23 H :    0.013418
  24 H :   -0.004701
  25 C :   -0.096380
  26 H :    0.036715
  27 H :    0.027199
  28 C :   -0.032586
  29 H :    0.035627
  30 H :    0.023716
  31 H :    0.033837
  32 H :    0.052301
  33 H :    0.050721
Sum of atomic charges:   -0.0000000

LOEWDIN ATOMIC CHARGES
----------------------
   0 S :    0.399090
   1 C :   -0.190111
   2 C :   -0.049795
   3 C :   -0.068405
   4 C :   -0.185496
   5 H :    0.027601
   6 C :   -0.029835
   7 H :    0.038233
   8 H :    0.024825
   9 C :   -0.047095
  10 H :    0.024137
  11 H :    0.021658
  12 C :   -0.067666
  13 H :    0.015976
  14 H :    0.021373
  15 H :    0.040883
  16 S :    0.377228
  17 C :   -0.161961
  18 C :   -0.064637
  19 C :   -0.057891
  20 C :   -0.189025
  21 H :    0.033453
  22 C :   -0.028035
  23 H :    0.023544
  24 H :    0.021198
  25 C :   -0.041367
  26 H :    0.024768
  27 H :    0.029236
  28 C :   -0.066556
  29 H :    0.035782
  30 H :    0.025327
  31 H :    0.019808
  32 H :    0.024792
  33 H :    0.018960

  Mayer bond orders larger than 0.100000
B(  0-S ,  1-C ) :   1.1240 B(  0-S ,  4-C ) :   1.1473 B(  1-C ,  2-C ) :   1.6264
B(  1-C , 32-H ) :   0.9738 B(  2-C ,  3-C ) :   1.2178 B(  2-C ,  6-C ) :   1.0355
B(  3-C ,  4-C ) :   1.5922 B(  3-C ,  5-H ) :   0.9784 B(  4-C , 20-C ) :   1.0447
B(  6-C ,  7-H ) :   0.9466 B(  6-C ,  8-H ) :   0.9336 B(  6-C ,  9-C ) :   1.0327
B(  9-C , 10-H ) :   0.9568 B(  9-C , 11-H ) :   0.9621 B(  9-C , 12-C ) :   1.0785
B( 12-C , 13-H ) :   0.9743 B( 12-C , 14-H ) :   0.9752 B( 12-C , 15-H ) :   0.9741
B( 16-S , 17-C ) :   1.1588 B( 16-S , 20-C ) :   1.1257 B( 17-C , 18-C ) :   1.5692
B( 17-C , 20-C ) :   0.1075 B( 17-C , 33-H ) :   0.9751 B( 18-C , 19-C ) :   1.2608
B( 18-C , 21-H ) :   0.9920 B( 19-C , 20-C ) :   1.5985 B( 19-C , 22-C ) :   1.0279
B( 22-C , 23-H ) :   0.9327 B( 22-C , 24-H ) :   0.9246 B( 22-C , 25-C ) :   1.0596
B( 25-C , 26-H ) :   0.9587 B( 25-C , 27-H ) :   0.9527 B( 25-C , 28-C ) :   1.0824
B( 28-C , 29-H ) :   0.9709 B( 28-C , 30-H ) :   0.9715 B( 28-C , 31-H ) :   0.9761

Dispersion correction           -0.013397954
FINAL SINGLE POINT ENERGY     -1339.865651969412

DIPOLE MOMENT
-------------
                                X             Y             Z
Electronic contribution:     20.76723      20.21922       8.19304
Nuclear contribution   :    -21.29723     -20.66252      -8.20328
                        -----------------------------------------
Total Dipole Moment    :     -0.53000      -0.44330      -0.01024
                        -----------------------------------------
Magnitude (a.u.)       :      0.69103
Magnitude (Debye)      :      1.75646

Rotational constants in cm-1:     0.015668     0.008997     0.006624
Rotational constants in MHz :   469.726162   269.729730   198.594836

                             ****ORCA TERMINATED NORMALLY****
TOTAL RUN TIME: 0 days 0 hours 0 minutes 32 seconds 466 msec
