                         Program Version 4.2.1 -  RELEASE  -
|  1> ! wB97X-D3 SP def2-SVP
|  2> %pal
|  3> nprocs 16
|  4> end
|  5>
|  6> * xyz 0 1
|  7> S 	 -39.1943 	 52.1679 	 116.063
|  8> C 	 -40.6735 	 53.0572 	 116.301
|  9> C 	 -41.5877 	 52.82 	 115.286
| 10> C 	 -41.0828 	 51.9539 	 114.245
| 11> C 	 -39.8039 	 51.4926 	 114.535
| 12> H 	 -41.5777 	 51.6274 	 113.339
| 13> C 	 -43.0258 	 53.3877 	 115.414
| 14> H 	 -43.1424 	 53.6624 	 116.481
| 15> H 	 -43.746 	 52.6902 	 114.988
| 16> C 	 -43.1325 	 54.7196 	 114.644
| 17> H 	 -42.8358 	 54.6931 	 113.651
| 18> H 	 -44.2134 	 55.0052 	 114.753
| 19> C 	 -42.2903 	 55.8757 	 115.135
| 20> H 	 -41.2199 	 55.6648 	 114.971
| 21> H 	 -42.615 	 56.7571 	 114.543
| 22> H 	 -42.4195 	 56.0928 	 116.187
| 23> S 	 -38.9129 	 48.9198 	 114.259
| 24> C 	 -37.9501 	 48.3964 	 112.906
| 25> C 	 -37.7239 	 49.4383 	 112.047
| 26> C 	 -38.375 	 50.686 	 112.444
| 27> C 	 -38.9871 	 50.5792 	 113.689
| 28> H 	 -37.1973 	 49.1559 	 111.141
| 29> C 	 -38.3794 	 51.9332 	 111.51
| 30> H 	 -37.5113 	 51.896 	 110.838
| 31> H 	 -38.1583 	 52.8254 	 112.191
| 32> C 	 -39.6916 	 52.0627 	 110.739
| 33> H 	 -40.4992 	 52.2871 	 111.417
| 34> H 	 -40.025 	 51.146 	 110.262
| 35> C 	 -39.6333 	 53.2211 	 109.726
| 36> H 	 -38.8219 	 53.0426 	 108.914
| 37> H 	 -39.3533 	 54.2537 	 110.157
| 38> H 	 -40.63 	 53.2358 	 109.306
| 39> H 	 -40.9365 	 53.6087 	 117.206
| 40> H 	 -37.915 	 47.3593 	 112.621
| 41> *
| 42>
| 43>                          ****END OF INPUT****

CARTESIAN COORDINATES (ANGSTROEM)
---------------------------------
  S    -39.194300   52.167900  116.063000
  C    -40.673500   53.057200  116.301000
  C    -41.587700   52.820000  115.286000
  C    -41.082800   51.953900  114.245000
  C    -39.803900   51.492600  114.535000
  H    -41.577700   51.627400  113.339000
  C    -43.025800   53.387700  115.414000
  H    -43.142400   53.662400  116.481000
  H    -43.746000   52.690200  114.988000
  C    -43.132500   54.719600  114.644000
  H    -42.835800   54.693100  113.651000
  H    -44.213400   55.005200  114.753000
  C    -42.290300   55.875700  115.135000
  H    -41.219900   55.664800  114.971000
  H    -42.615000   56.757100  114.543000
  H    -42.419500   56.092800  116.187000
  S    -38.912900   48.919800  114.259000
  C    -37.950100   48.396400  112.906000
  C    -37.723900   49.438300  112.047000
  C    -38.375000   50.686000  112.444000
  C    -38.987100   50.579200  113.689000
  H    -37.197300   49.155900  111.141000
  C    -38.379400   51.933200  111.510000
  H    -37.511300   51.896000  110.838000
  H    -38.158300   52.825400  112.191000
  C    -39.691600   52.062700  110.739000
  H    -40.499200   52.287100  111.417000
  H    -40.025000   51.146000  110.262000
  C    -39.633300   53.221100  109.726000
  H    -38.821900   53.042600  108.914000
  H    -39.353300   54.253700  110.157000
  H    -40.630000   53.235800  109.306000
  H    -40.936500   53.608700  117.206000
  H    -37.915000   47.359300  112.621000

 Total Charge           Charge          ....    0
 Multiplicity           Mult            ....    1
 Number of Electrons    NEL             ....  134
 Basis Dimension        Dim             ....  322

ORBITAL ENERGIES
----------------

  NO   OCC          E(Eh)            E(eV)
   0   2.0000     -88.968039     -2420.9434
   1   2.0000     -88.959879     -2420.7214
   2   2.0000     -10.336065      -281.2586
   3   2.0000     -10.329780      -281.0876
   4   2.0000     -10.314698      -280.6772
   5   2.0000     -10.313293      -280.6390
   6   2.0000     -10.312263      -280.6110
   7   2.0000     -10.304416      -280.3974
   8   2.0000     -10.301508      -280.3183
   9   2.0000     -10.300182      -280.2822
  10   2.0000     -10.298212      -280.2286
  11   2.0000     -10.296102      -280.1712
  12   2.0000     -10.290885      -280.0292
  13   2.0000     -10.286970      -279.9227
  14   2.0000     -10.280719      -279.7526
  15   2.0000     -10.275087      -279.5993
  16   2.0000      -8.082283      -219.9301
  17   2.0000      -8.075098      -219.7346
  18   2.0000      -6.040815      -164.3789
  19   2.0000      -6.036800      -164.2697
  20   2.0000      -6.033596      -164.1825
  21   2.0000      -6.033088      -164.1687
  22   2.0000      -6.029433      -164.0692
  23   2.0000      -6.025931      -163.9739
  24   2.0000      -1.001535       -27.2532
  25   2.0000      -0.981335       -26.7035
  26   2.0000      -0.911751       -24.8100
  27   2.0000      -0.905584       -24.6422
  28   2.0000      -0.867128       -23.5958
  29   2.0000      -0.846623       -23.0378
  30   2.0000      -0.843369       -22.9492
  31   2.0000      -0.816541       -22.2192
  32   2.0000      -0.779806       -21.2196
  33   2.0000      -0.767901       -20.8956
  34   2.0000      -0.704479       -19.1699
  35   2.0000      -0.694477       -18.8977
  36   2.0000      -0.683766       -18.6062
  37   2.0000      -0.657910       -17.9026
  38   2.0000      -0.643957       -17.5230
  39   2.0000      -0.618069       -16.8185
  40   2.0000      -0.590691       -16.0735
  41   2.0000      -0.571573       -15.5533
  42   2.0000      -0.559236       -15.2176
  43   2.0000      -0.553004       -15.0480
  44   2.0000      -0.541780       -14.7426
  45   2.0000      -0.528710       -14.3869
  46   2.0000      -0.518295       -14.1035
  47   2.0000      -0.510101       -13.8806
  48   2.0000      -0.507427       -13.8078
  49   2.0000      -0.499691       -13.5973
  50   2.0000      -0.483690       -13.1619
  51   2.0000      -0.476185       -12.9577
  52   2.0000      -0.469968       -12.7885
  53   2.0000      -0.460436       -12.5291
  54   2.0000      -0.456985       -12.4352
  55   2.0000      -0.449370       -12.2280
  56   2.0000      -0.444543       -12.0966
  57   2.0000      -0.434984       -11.8365
  58   2.0000      -0.433149       -11.7866
  59   2.0000      -0.429133       -11.6773
  60   2.0000      -0.415259       -11.2998
  61   2.0000      -0.412661       -11.2291
  62   2.0000      -0.407759       -11.0957
  63   2.0000      -0.340236        -9.2583
  64   2.0000      -0.328588        -8.9413
  65   2.0000      -0.325561        -8.8590
  66   2.0000      -0.305868        -8.3231
  67   0.0000       0.041147         1.1197
  68   0.0000       0.055143         1.5005
  69   0.0000       0.116343         3.1659
  70   0.0000       0.122874         3.3436
  71   0.0000       0.125479         3.4145

MULLIKEN ATOMIC CHARGES
-----------------------
   0 S :    0.122961
   1 C :   -0.125225
   2 C :   -0.118962
   3 C :    0.059951
   4 C :   -0.171364
   5 H :    0.023652
   6 C :    0.093510
   7 H :    0.026537
   8 H :    0.036296
   9 C :   -0.074344
  10 H :    0.016781
  11 H :    0.034631
  12 C :   -0.075851
  13 H :    0.048732
  14 H :    0.040385
  15 H :    0.018350
  16 S :    0.093490
  17 C :   -0.093181
  18 C :   -0.051327
  19 C :   -0.026656
  20 C :   -0.185400
  21 H :    0.024874
  22 C :    0.059058
  23 H :    0.021064
  24 H :    0.047505
  25 C :   -0.055018
  26 H :    0.015280
  27 H :    0.030506
  28 C :   -0.083767
  29 H :    0.042310
  30 H :    0.045869
  31 H :    0.038622
  32 H :    0.054479
  33 H :    0.066249
Sum of atomic charges:   -0.0000000

LOEWDIN ATOMIC CHARGES
----------------------
   0 S :    0.402323
   1 C :   -0.206063
   2 C :   -0.063563
   3 C :   -0.058675
   4 C :   -0.190196
   5 H :    0.032416
   6 C :   -0.023719
   7 H :    0.033887
   8 H :    0.032770
   9 C :   -0.042961
  10 H :    0.014985
  11 H :    0.027075
  12 C :   -0.067747
  13 H :    0.027796
  14 H :    0.032861
  15 H :    0.015229
  16 S :    0.404293
  17 C :   -0.189729
  18 C :   -0.076531
  19 C :   -0.051093
  20 C :   -0.204343
  21 H :    0.033561
  22 C :   -0.032469
  23 H :    0.027671
  24 H :    0.042701
  25 C :   -0.043634
  26 H :    0.021356
  27 H :    0.026576
  28 C :   -0.074675
  29 H :    0.030478
  30 H :    0.033168
  31 H :    0.024554
  32 H :    0.030848
  33 H :    0.030851

  Mayer bond orders larger than 0.100000
B(  0-S ,  1-C ) :   1.1359 B(  0-S ,  4-C ) :   1.1563 B(  1-C ,  2-C ) :   1.6219
B(  1-C , 32-H ) :   0.9622 B(  2-C ,  3-C ) :   1.2258 B(  2-C ,  6-C ) :   1.0178
B(  3-C ,  4-C ) :   1.5951 B(  3-C ,  5-H ) :   0.9867 B(  4-C , 20-C ) :   0.9972
B(  6-C ,  7-H ) :   0.9426 B(  6-C ,  8-H ) :   0.9426 B(  6-C ,  9-C ) :   1.0661
B(  9-C , 10-H ) :   0.9581 B(  9-C , 11-H ) :   0.9582 B(  9-C , 12-C ) :   1.0808
B( 12-C , 13-H ) :   0.9711 B( 12-C , 14-H ) :   0.9726 B( 12-C , 15-H ) :   0.9750
B( 16-S , 17-C ) :   1.1579 B( 16-S , 20-C ) :   1.1550 B( 17-C , 18-C ) :   1.6293
B( 17-C , 33-H ) :   0.9631 B( 18-C , 19-C ) :   1.2223 B( 18-C , 21-H ) :   0.9898
B( 19-C , 20-C ) :   1.6153 B( 19-C , 22-C ) :   1.0323 B( 22-C , 23-H ) :   0.9440
B( 22-C , 24-H ) :   0.9341 B( 22-C , 25-C ) :   1.0627 B( 25-C , 26-H ) :   0.9451
B( 25-C , 27-H ) :   0.9549 B( 25-C , 28-C ) :   1.0816 B( 28-C , 29-H ) :   0.9751
B( 28-C , 30-H ) :   0.9733 B( 28-C , 31-H ) :   0.9740

Dispersion correction           -0.014660439
FINAL SINGLE POINT ENERGY     -1339.880374319402

DIPOLE MOMENT
-------------
                                X             Y             Z
Electronic contribution:     12.94353     -21.37550      15.14567
Nuclear contribution   :    -13.40344      21.58983     -15.68171
                        -----------------------------------------
Total Dipole Moment    :     -0.45992       0.21433      -0.53604
                        -----------------------------------------
Magnitude (a.u.)       :      0.73810
Magnitude (Debye)      :      1.87611

Rotational constants in cm-1:     0.018441     0.009099     0.006845
Rotational constants in MHz :   552.859124   272.782998   205.213496

                             ****ORCA TERMINATED NORMALLY****
TOTAL RUN TIME: 0 days 0 hours 0 minutes 30 seconds 152 msec
