                         Program Version 4.2.1 -  RELEASE  -
|  1> ! wB97X-D3 SP def2-SVP
|  2> %pal
|  3> nprocs 16
|  4> end
|  5>
|  6> * xyz 0 1
|  7> S 	 -39.5684 	 51.6752 	 117.012
|  8> C 	 -40.4731 	 52.8285 	 117.999
|  9> C 	 -41.5851 	 53.2716 	 117.335
| 10> C 	 -41.6867 	 52.7766 	 116
| 11> C 	 -40.7316 	 51.8488 	 115.754
| 12> H 	 -42.5408 	 52.9469 	 115.358
| 13> C 	 -42.565 	 54.2255 	 117.871
| 14> H 	 -42.3754 	 54.3483 	 118.967
| 15> H 	 -43.5178 	 53.6916 	 117.891
| 16> C 	 -42.4843 	 55.6203 	 117.185
| 17> H 	 -42.5593 	 55.4326 	 116.116
| 18> H 	 -43.2804 	 56.2885 	 117.405
| 19> C 	 -41.1172 	 56.3301 	 117.374
| 20> H 	 -40.2387 	 55.6602 	 117.097
| 21> H 	 -40.9785 	 57.1911 	 116.697
| 22> H 	 -40.9455 	 56.8602 	 118.338
| 23> S 	 -40.6879 	 49.347 	 114.406
| 24> C 	 -40.2092 	 49.2062 	 112.761
| 25> C 	 -40.2095 	 50.462 	 112.159
| 26> C 	 -40.4328 	 51.5265 	 113.102
| 27> C 	 -40.5522 	 51.0964 	 114.446
| 28> H 	 -40.1389 	 50.7573 	 111.09
| 29> C 	 -40.3701 	 52.962 	 112.661
| 30> H 	 -39.6615 	 52.9109 	 111.9
| 31> H 	 -40.0348 	 53.4968 	 113.505
| 32> C 	 -41.7522 	 53.4383 	 112.094
| 33> H 	 -42.4994 	 53.272 	 112.877
| 34> H 	 -42.091 	 52.8401 	 111.297
| 35> C 	 -41.6496 	 54.9233 	 111.568
| 36> H 	 -40.8538 	 54.9897 	 110.793
| 37> H 	 -41.5415 	 55.5866 	 112.433
| 38> H 	 -42.6442 	 55.2411 	 111.181
| 39> H 	 -40.1624 	 53.1253 	 118.981
| 40> H 	 -40.1467 	 48.3903 	 112.129
| 41> *
| 42>
| 43>                          ****END OF INPUT****

CARTESIAN COORDINATES (ANGSTROEM)
---------------------------------
  S    -39.568400   51.675200  117.012000
  C    -40.473100   52.828500  117.999000
  C    -41.585100   53.271600  117.335000
  C    -41.686700   52.776600  116.000000
  C    -40.731600   51.848800  115.754000
  H    -42.540800   52.946900  115.358000
  C    -42.565000   54.225500  117.871000
  H    -42.375400   54.348300  118.967000
  H    -43.517800   53.691600  117.891000
  C    -42.484300   55.620300  117.185000
  H    -42.559300   55.432600  116.116000
  H    -43.280400   56.288500  117.405000
  C    -41.117200   56.330100  117.374000
  H    -40.238700   55.660200  117.097000
  H    -40.978500   57.191100  116.697000
  H    -40.945500   56.860200  118.338000
  S    -40.687900   49.347000  114.406000
  C    -40.209200   49.206200  112.761000
  C    -40.209500   50.462000  112.159000
  C    -40.432800   51.526500  113.102000
  C    -40.552200   51.096400  114.446000
  H    -40.138900   50.757300  111.090000
  C    -40.370100   52.962000  112.661000
  H    -39.661500   52.910900  111.900000
  H    -40.034800   53.496800  113.505000
  C    -41.752200   53.438300  112.094000
  H    -42.499400   53.272000  112.877000
  H    -42.091000   52.840100  111.297000
  C    -41.649600   54.923300  111.568000
  H    -40.853800   54.989700  110.793000
  H    -41.541500   55.586600  112.433000
  H    -42.644200   55.241100  111.181000
  H    -40.162400   53.125300  118.981000
  H    -40.146700   48.390300  112.129000

 Total Charge           Charge          ....    0
 Multiplicity           Mult            ....    1
 Number of Electrons    NEL             ....  134
 Basis Dimension        Dim             ....  322

ORBITAL ENERGIES
----------------

  NO   OCC          E(Eh)            E(eV)
   0   2.0000     -88.966908     -2420.9127
   1   2.0000     -88.964811     -2420.8556
   2   2.0000     -10.332803      -281.1699
   3   2.0000     -10.328839      -281.0620
   4   2.0000     -10.313132      -280.6346
   5   2.0000     -10.312772      -280.6248
   6   2.0000     -10.299439      -280.2620
   7   2.0000     -10.297037      -280.1966
   8   2.0000     -10.294718      -280.1335
   9   2.0000     -10.293903      -280.1113
  10   2.0000     -10.292657      -280.0774
  11   2.0000     -10.292012      -280.0599
  12   2.0000     -10.288288      -279.9585
  13   2.0000     -10.287188      -279.9286
  14   2.0000     -10.285588      -279.8851
  15   2.0000     -10.280120      -279.7363
  16   2.0000      -8.082067      -219.9242
  17   2.0000      -8.079593      -219.8569
  18   2.0000      -6.040542      -164.3715
  19   2.0000      -6.038125      -164.3057
  20   2.0000      -6.036512      -164.2619
  21   2.0000      -6.034029      -164.1943
  22   2.0000      -6.032827      -164.1616
  23   2.0000      -6.030387      -164.0952
  24   2.0000      -1.008367       -27.4391
  25   2.0000      -0.987356       -26.8673
  26   2.0000      -0.914025       -24.8719
  27   2.0000      -0.907065       -24.6825
  28   2.0000      -0.862180       -23.4611
  29   2.0000      -0.848965       -23.1015
  30   2.0000      -0.844268       -22.9737
  31   2.0000      -0.817104       -22.2345
  32   2.0000      -0.780664       -21.2430
  33   2.0000      -0.768860       -20.9217
  34   2.0000      -0.709542       -19.3076
  35   2.0000      -0.704268       -19.1641
  36   2.0000      -0.695687       -18.9306
  37   2.0000      -0.660312       -17.9680
  38   2.0000      -0.644339       -17.5333
  39   2.0000      -0.624226       -16.9860
  40   2.0000      -0.589513       -16.0415
  41   2.0000      -0.572763       -15.5857
  42   2.0000      -0.566796       -15.4233
  43   2.0000      -0.552015       -15.0211
  44   2.0000      -0.539322       -14.6757
  45   2.0000      -0.520449       -14.1621
  46   2.0000      -0.516183       -14.0460
  47   2.0000      -0.511850       -13.9281
  48   2.0000      -0.500661       -13.6237
  49   2.0000      -0.498630       -13.5684
  50   2.0000      -0.489693       -13.3252
  51   2.0000      -0.477385       -12.9903
  52   2.0000      -0.470868       -12.8130
  53   2.0000      -0.464395       -12.6368
  54   2.0000      -0.456179       -12.4133
  55   2.0000      -0.451045       -12.2736
  56   2.0000      -0.444276       -12.0894
  57   2.0000      -0.442487       -12.0407
  58   2.0000      -0.437060       -11.8930
  59   2.0000      -0.429247       -11.6804
  60   2.0000      -0.425093       -11.5674
  61   2.0000      -0.413401       -11.2492
  62   2.0000      -0.408588       -11.1183
  63   2.0000      -0.341139        -9.2829
  64   2.0000      -0.333683        -9.0800
  65   2.0000      -0.323525        -8.8036
  66   2.0000      -0.301015        -8.1910
  67   0.0000       0.036054         0.9811
  68   0.0000       0.068730         1.8702
  69   0.0000       0.118187         3.2160
  70   0.0000       0.120283         3.2731
  71   0.0000       0.121982         3.3193

MULLIKEN ATOMIC CHARGES
-----------------------
   0 S :    0.118221
   1 C :   -0.115963
   2 C :   -0.106746
   3 C :    0.025313
   4 C :   -0.140061
   5 H :    0.021688
   6 C :    0.069024
   7 H :    0.016541
   8 H :    0.039567
   9 C :   -0.032387
  10 H :    0.022658
  11 H :    0.028885
  12 C :   -0.106307
  13 H :    0.058418
  14 H :    0.027947
  15 H :    0.036692
  16 S :    0.113733
  17 C :   -0.040616
  18 C :   -0.049859
  19 C :   -0.091824
  20 C :   -0.167754
  21 H :    0.029016
  22 C :    0.123854
  23 H :    0.000920
  24 H :    0.021338
  25 C :   -0.077870
  26 H :    0.019741
  27 H :    0.015240
  28 C :   -0.046988
  29 H :    0.048530
  30 H :    0.034209
  31 H :    0.033447
  32 H :    0.039010
  33 H :    0.032383
Sum of atomic charges:   -0.0000000

LOEWDIN ATOMIC CHARGES
----------------------
   0 S :    0.412431
   1 C :   -0.186850
   2 C :   -0.064620
   3 C :   -0.064698
   4 C :   -0.193577
   5 H :    0.033960
   6 C :   -0.037812
   7 H :    0.031653
   8 H :    0.036058
   9 C :   -0.034265
  10 H :    0.023578
  11 H :    0.021441
  12 C :   -0.081511
  13 H :    0.036525
  14 H :    0.027293
  15 H :    0.026300
  16 S :    0.421449
  17 C :   -0.188560
  18 C :   -0.079068
  19 C :   -0.053676
  20 C :   -0.212239
  21 H :    0.035867
  22 C :   -0.020255
  23 H :    0.019873
  24 H :    0.026659
  25 C :   -0.031396
  26 H :    0.020784
  27 H :    0.015380
  28 C :   -0.068404
  29 H :    0.030694
  30 H :    0.025692
  31 H :    0.027633
  32 H :    0.024002
  33 H :    0.019662

  Mayer bond orders larger than 0.100000
B(  0-S ,  1-C ) :   1.1217 B(  0-S ,  4-C ) :   1.1732 B(  1-C ,  2-C ) :   1.6238
B(  1-C , 32-H ) :   0.9717 B(  2-C ,  3-C ) :   1.2156 B(  2-C ,  6-C ) :   1.0336
B(  3-C ,  4-C ) :   1.5946 B(  3-C ,  5-H ) :   0.9937 B(  4-C , 20-C ) :   0.9824
B(  6-C ,  7-H ) :   0.9408 B(  6-C ,  8-H ) :   0.9370 B(  6-C ,  9-C ) :   1.0477
B(  9-C , 10-H ) :   0.9589 B(  9-C , 11-H ) :   0.9591 B(  9-C , 12-C ) :   1.0704
B( 12-C , 13-H ) :   0.9720 B( 12-C , 14-H ) :   0.9728 B( 12-C , 15-H ) :   0.9759
B( 16-S , 17-C ) :   1.1726 B( 16-S , 20-C ) :   1.1493 B( 17-C , 18-C ) :   1.5608
B( 17-C , 20-C ) :   0.1016 B( 17-C , 33-H ) :   0.9738 B( 18-C , 19-C ) :   1.2969
B( 18-C , 21-H ) :   0.9745 B( 19-C , 20-C ) :   1.5632 B( 19-C , 22-C ) :   1.0424
B( 22-C , 23-H ) :   0.9315 B( 22-C , 24-H ) :   0.9352 B( 22-C , 25-C ) :   1.0554
B( 25-C , 26-H ) :   0.9564 B( 25-C , 27-H ) :   0.9572 B( 25-C , 28-C ) :   1.0756
B( 28-C , 29-H ) :   0.9747 B( 28-C , 30-H ) :   0.9765 B( 28-C , 31-H ) :   0.9748

Dispersion correction           -0.015035212
FINAL SINGLE POINT ENERGY     -1339.873569988687

DIPOLE MOMENT
-------------
                                X             Y             Z
Electronic contribution:      9.10787     -28.03425       6.66654
Nuclear contribution   :     -9.48625      28.63091      -6.90601
                        -----------------------------------------
Total Dipole Moment    :     -0.37838       0.59666      -0.23947
                        -----------------------------------------
Magnitude (a.u.)       :      0.74600
Magnitude (Debye)      :      1.89619

Rotational constants in cm-1:     0.017691     0.009894     0.006977
Rotational constants in MHz :   530.368255   296.615136   209.172733

                             ****ORCA TERMINATED NORMALLY****
TOTAL RUN TIME: 0 days 0 hours 0 minutes 30 seconds 962 msec
