                         Program Version 4.2.1 -  RELEASE  -
|  1> ! wB97X-D3 SP def2-SVP
|  2> %pal
|  3> nprocs 16
|  4> end
|  5>
|  6> * xyz 0 1
|  7> S 	 -47.7683 	 68.4227 	 127.635
|  8> C 	 -46.8878 	 68.0971 	 126.121
|  9> C 	 -47.0493 	 66.77 	 125.688
| 10> C 	 -47.7589 	 66.0092 	 126.657
| 11> C 	 -48.2439 	 66.7461 	 127.73
| 12> H 	 -47.917 	 64.9513 	 126.555
| 13> C 	 -46.4641 	 66.2357 	 124.393
| 14> H 	 -45.3548 	 66.0044 	 124.608
| 15> H 	 -46.4349 	 67.1041 	 123.631
| 16> C 	 -47.1743 	 65.062 	 123.735
| 17> H 	 -47.0083 	 64.0981 	 124.229
| 18> H 	 -48.2594 	 65.3102 	 123.516
| 19> C 	 -46.5219 	 64.6288 	 122.429
| 20> H 	 -46.909 	 65.2499 	 121.629
| 21> H 	 -45.4325 	 64.6009 	 122.564
| 22> H 	 -46.8136 	 63.6039 	 122.084
| 23> S 	 -48.5959 	 66.6292 	 130.33
| 24> C 	 -49.8262 	 65.6523 	 131.135
| 25> C 	 -50.5919 	 65.0507 	 130.161
| 26> C 	 -50.1745 	 65.3392 	 128.818
| 27> C 	 -49.1161 	 66.2089 	 128.781
| 28> H 	 -51.4071 	 64.3818 	 130.452
| 29> C 	 -50.8825 	 64.8676 	 127.552
| 30> H 	 -51.323 	 63.9159 	 127.763
| 31> H 	 -50.2028 	 64.7031 	 126.802
| 32> C 	 -51.8962 	 65.8366 	 127.044
| 33> H 	 -51.4655 	 66.9105 	 127.107
| 34> H 	 -52.755 	 65.7749 	 127.667
| 35> C 	 -52.3633 	 65.4377 	 125.586
| 36> H 	 -51.6033 	 65.8126 	 124.853
| 37> H 	 -53.3503 	 65.8764 	 125.388
| 38> H 	 -52.508 	 64.3499 	 125.582
| 39> H 	 -46.4135 	 68.8664 	 125.458
| 40> H 	 -49.8422 	 65.5046 	 132.263
| 41> *
| 42>
| 43>                          ****END OF INPUT****

CARTESIAN COORDINATES (ANGSTROEM)
---------------------------------
  S    -47.768300   68.422700  127.635000
  C    -46.887800   68.097100  126.121000
  C    -47.049300   66.770000  125.688000
  C    -47.758900   66.009200  126.657000
  C    -48.243900   66.746100  127.730000
  H    -47.917000   64.951300  126.555000
  C    -46.464100   66.235700  124.393000
  H    -45.354800   66.004400  124.608000
  H    -46.434900   67.104100  123.631000
  C    -47.174300   65.062000  123.735000
  H    -47.008300   64.098100  124.229000
  H    -48.259400   65.310200  123.516000
  C    -46.521900   64.628800  122.429000
  H    -46.909000   65.249900  121.629000
  H    -45.432500   64.600900  122.564000
  H    -46.813600   63.603900  122.084000
  S    -48.595900   66.629200  130.330000
  C    -49.826200   65.652300  131.135000
  C    -50.591900   65.050700  130.161000
  C    -50.174500   65.339200  128.818000
  C    -49.116100   66.208900  128.781000
  H    -51.407100   64.381800  130.452000
  C    -50.882500   64.867600  127.552000
  H    -51.323000   63.915900  127.763000
  H    -50.202800   64.703100  126.802000
  C    -51.896200   65.836600  127.044000
  H    -51.465500   66.910500  127.107000
  H    -52.755000   65.774900  127.667000
  C    -52.363300   65.437700  125.586000
  H    -51.603300   65.812600  124.853000
  H    -53.350300   65.876400  125.388000
  H    -52.508000   64.349900  125.582000
  H    -46.413500   68.866400  125.458000
  H    -49.842200   65.504600  132.263000

 Total Charge           Charge          ....    0
 Multiplicity           Mult            ....    1
 Number of Electrons    NEL             ....  134
 Basis Dimension        Dim             ....  322

ORBITAL ENERGIES
----------------

  NO   OCC          E(Eh)            E(eV)
   0   2.0000     -88.972687     -2421.0699
   1   2.0000     -88.959004     -2420.6976
   2   2.0000     -10.331618      -281.1376
   3   2.0000     -10.321372      -280.8588
   4   2.0000     -10.320048      -280.8228
   5   2.0000     -10.319183      -280.7993
   6   2.0000     -10.309532      -280.5366
   7   2.0000     -10.304436      -280.3980
   8   2.0000     -10.299976      -280.2766
   9   2.0000     -10.296859      -280.1918
  10   2.0000     -10.294376      -280.1242
  11   2.0000     -10.292360      -280.0693
  12   2.0000     -10.283288      -279.8225
  13   2.0000     -10.283010      -279.8149
  14   2.0000     -10.282849      -279.8105
  15   2.0000     -10.276734      -279.6442
  16   2.0000      -8.086430      -220.0429
  17   2.0000      -8.075131      -219.7355
  18   2.0000      -6.044951      -164.4915
  19   2.0000      -6.041108      -164.3869
  20   2.0000      -6.037212      -164.2809
  21   2.0000      -6.033541      -164.1810
  22   2.0000      -6.029241      -164.0640
  23   2.0000      -6.026100      -163.9785
  24   2.0000      -1.011306       -27.5190
  25   2.0000      -0.983050       -26.7502
  26   2.0000      -0.914947       -24.8970
  27   2.0000      -0.911317       -24.7982
  28   2.0000      -0.871772       -23.7221
  29   2.0000      -0.850430       -23.1414
  30   2.0000      -0.842394       -22.9227
  31   2.0000      -0.813733       -22.1428
  32   2.0000      -0.778223       -21.1765
  33   2.0000      -0.768933       -20.9237
  34   2.0000      -0.704723       -19.1765
  35   2.0000      -0.691539       -18.8177
  36   2.0000      -0.683997       -18.6125
  37   2.0000      -0.663622       -18.0581
  38   2.0000      -0.632789       -17.2191
  39   2.0000      -0.622824       -16.9479
  40   2.0000      -0.595885       -16.2149
  41   2.0000      -0.581640       -15.8272
  42   2.0000      -0.568679       -15.4745
  43   2.0000      -0.560516       -15.2524
  44   2.0000      -0.526140       -14.3170
  45   2.0000      -0.517291       -14.0762
  46   2.0000      -0.514020       -13.9872
  47   2.0000      -0.508704       -13.8425
  48   2.0000      -0.504834       -13.7372
  49   2.0000      -0.494174       -13.4472
  50   2.0000      -0.493490       -13.4285
  51   2.0000      -0.484532       -13.1848
  52   2.0000      -0.471142       -12.8204
  53   2.0000      -0.465476       -12.6662
  54   2.0000      -0.455101       -12.3839
  55   2.0000      -0.451801       -12.2941
  56   2.0000      -0.440534       -11.9875
  57   2.0000      -0.437829       -11.9139
  58   2.0000      -0.432463       -11.7679
  59   2.0000      -0.427975       -11.6458
  60   2.0000      -0.419163       -11.4060
  61   2.0000      -0.412090       -11.2135
  62   2.0000      -0.406364       -11.0577
  63   2.0000      -0.349391        -9.5074
  64   2.0000      -0.333543        -9.0762
  65   2.0000      -0.326811        -8.8930
  66   2.0000      -0.290013        -7.8917
  67   0.0000       0.030572         0.8319
  68   0.0000       0.071915         1.9569
  69   0.0000       0.109602         2.9824
  70   0.0000       0.118174         3.2157
  71   0.0000       0.129028         3.5110

MULLIKEN ATOMIC CHARGES
-----------------------
   0 S :    0.126439
   1 C :   -0.145124
   2 C :   -0.074773
   3 C :    0.020433
   4 C :   -0.124033
   5 H :    0.018226
   6 C :    0.006521
   7 H :    0.060094
   8 H :    0.039440
   9 C :   -0.103754
  10 H :    0.040331
  11 H :    0.052872
  12 C :   -0.065262
  13 H :    0.030725
  14 H :    0.036996
  15 H :    0.032946
  16 S :    0.090391
  17 C :   -0.124123
  18 C :   -0.038750
  19 C :   -0.073769
  20 C :   -0.147698
  21 H :    0.023623
  22 C :    0.152331
  23 H :    0.003218
  24 H :   -0.021446
  25 C :   -0.093690
  26 H :    0.053186
  27 H :    0.015521
  28 C :   -0.061991
  29 H :    0.053763
  30 H :    0.035892
  31 H :    0.031208
  32 H :    0.063433
  33 H :    0.086825
Sum of atomic charges:   -0.0000000

LOEWDIN ATOMIC CHARGES
----------------------
   0 S :    0.404911
   1 C :   -0.205294
   2 C :   -0.064163
   3 C :   -0.064207
   4 C :   -0.197495
   5 H :    0.029236
   6 C :   -0.045079
   7 H :    0.045579
   8 H :    0.039231
   9 C :   -0.057669
  10 H :    0.029897
  11 H :    0.035159
  12 C :   -0.067133
  13 H :    0.020919
  14 H :    0.026780
  15 H :    0.028701
  16 S :    0.423966
  17 C :   -0.197110
  18 C :   -0.073156
  19 C :   -0.060309
  20 C :   -0.212124
  21 H :    0.034318
  22 C :   -0.025814
  23 H :    0.025405
  24 H :    0.013765
  25 C :   -0.038815
  26 H :    0.036046
  27 H :    0.015603
  28 C :   -0.067712
  29 H :    0.032186
  30 H :    0.026323
  31 H :    0.024579
  32 H :    0.037260
  33 H :    0.046217

  Mayer bond orders larger than 0.100000
B(  0-S ,  1-C ) :   1.1295 B(  0-S ,  4-C ) :   1.1607 B(  1-C ,  2-C ) :   1.6044
B(  1-C ,  4-C ) :   0.1039 B(  1-C , 32-H ) :   0.9613 B(  2-C ,  3-C ) :   1.2641
B(  2-C ,  6-C ) :   1.0160 B(  3-C ,  4-C ) :   1.5556 B(  3-C ,  5-H ) :   0.9905
B(  4-C , 20-C ) :   1.0067 B(  6-C ,  7-H ) :   0.9301 B(  6-C ,  8-H ) :   0.9464
B(  6-C ,  9-C ) :   1.0757 B(  9-C , 10-H ) :   0.9483 B(  9-C , 11-H ) :   0.9582
B(  9-C , 12-C ) :   1.0746 B( 12-C , 13-H ) :   0.9753 B( 12-C , 14-H ) :   0.9719
B( 12-C , 15-H ) :   0.9780 B( 16-S , 17-C ) :   1.1553 B( 16-S , 20-C ) :   1.1699
B( 17-C , 18-C ) :   1.5877 B( 17-C , 33-H ) :   0.9632 B( 18-C , 19-C ) :   1.2499
B( 18-C , 21-H ) :   0.9917 B( 19-C , 20-C ) :   1.5922 B( 19-C , 22-C ) :   1.0488
B( 22-C , 23-H ) :   0.9130 B( 22-C , 24-H ) :   0.9251 B( 22-C , 25-C ) :   1.0712
B( 25-C , 26-H ) :   0.9592 B( 25-C , 27-H ) :   0.9532 B( 25-C , 28-C ) :   1.0718
B( 28-C , 29-H ) :   0.9762 B( 28-C , 30-H ) :   0.9767 B( 28-C , 31-H ) :   0.9731

Dispersion correction           -0.014140698
FINAL SINGLE POINT ENERGY     -1339.875406949462

DIPOLE MOMENT
-------------
                                X             Y             Z
Electronic contribution:      6.87032      14.04005      27.14486
Nuclear contribution   :     -7.03013     -14.56096     -27.66508
                        -----------------------------------------
Total Dipole Moment    :     -0.15981      -0.52091      -0.52022
                        -----------------------------------------
Magnitude (a.u.)       :      0.75334
Magnitude (Debye)      :      1.91483

Rotational constants in cm-1:     0.017867     0.009000     0.007002
Rotational constants in MHz :   535.625842   269.821764   209.918206

                             ****ORCA TERMINATED NORMALLY****
TOTAL RUN TIME: 0 days 0 hours 0 minutes 33 seconds 272 msec
