                         Program Version 4.2.1 -  RELEASE  -
|  1> ! wB97X-D3 SP def2-SVP
|  2> %pal
|  3> nprocs 16
|  4> end
|  5>
|  6> * xyz 0 1
|  7> S 	 16.932 	 17.567 	 38.0081
|  8> C 	 17.3974 	 17.3414 	 36.3201
|  9> C 	 16.4666 	 17.9507 	 35.4454
| 10> C 	 15.3635 	 18.4711 	 36.1866
| 11> C 	 15.4544 	 18.3954 	 37.5419
| 12> H 	 14.5379 	 18.9466 	 35.8005
| 13> C 	 16.5044 	 18.0881 	 33.9311
| 14> H 	 15.4952 	 17.8365 	 33.6202
| 15> H 	 17.1773 	 17.3313 	 33.4446
| 16> C 	 16.7145 	 19.4764 	 33.4368
| 17> H 	 16.7571 	 19.4228 	 32.3762
| 18> H 	 15.8873 	 20.0515 	 33.6704
| 19> C 	 17.9759 	 20.211 	 33.8882
| 20> H 	 18.8535 	 19.6279 	 33.5666
| 21> H 	 18.083 	 21.1777 	 33.4364
| 22> H 	 18.0347 	 20.3821 	 34.9698
| 23> S 	 15.7338 	 20.4744 	 39.3338
| 24> C 	 14.3603 	 21.2331 	 40.0204
| 25> C 	 13.2084 	 20.5763 	 39.6949
| 26> C 	 13.3829 	 19.5146 	 38.7468
| 27> C 	 14.704 	 19.2844 	 38.4653
| 28> H 	 12.1925 	 20.7453 	 39.8952
| 29> C 	 12.1769 	 18.8319 	 38.131
| 30> H 	 11.7775 	 18.053 	 38.6927
| 31> H 	 12.4968 	 18.2854 	 37.2372
| 32> C 	 10.9585 	 19.7243 	 37.6808
| 33> H 	 10.4222 	 20.0653 	 38.5164
| 34> H 	 10.244 	 19.0512 	 37.1745
| 35> C 	 11.2918 	 20.9147 	 36.7366
| 36> H 	 10.9572 	 20.7594 	 35.6659
| 37> H 	 12.3104 	 21.1573 	 36.7106
| 38> H 	 10.7517 	 21.732 	 37.1665
| 39> H 	 18.2589 	 16.8196 	 35.9677
| 40> H 	 14.2889 	 21.9102 	 40.7884
| 41> *
| 42>
| 43>                          ****END OF INPUT****

CARTESIAN COORDINATES (ANGSTROEM)
---------------------------------
  S     16.932000   17.567000   38.008100
  C     17.397400   17.341400   36.320100
  C     16.466600   17.950700   35.445400
  C     15.363500   18.471100   36.186600
  C     15.454400   18.395400   37.541900
  H     14.537900   18.946600   35.800500
  C     16.504400   18.088100   33.931100
  H     15.495200   17.836500   33.620200
  H     17.177300   17.331300   33.444600
  C     16.714500   19.476400   33.436800
  H     16.757100   19.422800   32.376200
  H     15.887300   20.051500   33.670400
  C     17.975900   20.211000   33.888200
  H     18.853500   19.627900   33.566600
  H     18.083000   21.177700   33.436400
  H     18.034700   20.382100   34.969800
  S     15.733800   20.474400   39.333800
  C     14.360300   21.233100   40.020400
  C     13.208400   20.576300   39.694900
  C     13.382900   19.514600   38.746800
  C     14.704000   19.284400   38.465300
  H     12.192500   20.745300   39.895200
  C     12.176900   18.831900   38.131000
  H     11.777500   18.053000   38.692700
  H     12.496800   18.285400   37.237200
  C     10.958500   19.724300   37.680800
  H     10.422200   20.065300   38.516400
  H     10.244000   19.051200   37.174500
  C     11.291800   20.914700   36.736600
  H     10.957200   20.759400   35.665900
  H     12.310400   21.157300   36.710600
  H     10.751700   21.732000   37.166500
  H     18.258900   16.819600   35.967700
  H     14.288900   21.910200   40.788400

 Total Charge           Charge          ....    0
 Multiplicity           Mult            ....    1
 Number of Electrons    NEL             ....  134
 Basis Dimension        Dim             ....  322

ORBITAL ENERGIES
----------------

  NO   OCC          E(Eh)            E(eV)
   0   2.0000     -88.968438     -2420.9543
   1   2.0000     -88.964365     -2420.8434
   2   2.0000     -10.330301      -281.1018
   3   2.0000     -10.328343      -281.0485
   4   2.0000     -10.318841      -280.7900
   5   2.0000     -10.308678      -280.5134
   6   2.0000     -10.305386      -280.4238
   7   2.0000     -10.299039      -280.2511
   8   2.0000     -10.294761      -280.1347
   9   2.0000     -10.289258      -279.9849
  10   2.0000     -10.288814      -279.9729
  11   2.0000     -10.286225      -279.9024
  12   2.0000     -10.284999      -279.8691
  13   2.0000     -10.275374      -279.6072
  14   2.0000     -10.275063      -279.5987
  15   2.0000     -10.271732      -279.5080
  16   2.0000      -8.082564      -219.9378
  17   2.0000      -8.079069      -219.8426
  18   2.0000      -6.041131      -164.3875
  19   2.0000      -6.037747      -164.2955
  20   2.0000      -6.037104      -164.2780
  21   2.0000      -6.033530      -164.1807
  22   2.0000      -6.033348      -164.1758
  23   2.0000      -6.029679      -164.0759
  24   2.0000      -1.005601       -27.3638
  25   2.0000      -0.984014       -26.7764
  26   2.0000      -0.918795       -25.0017
  27   2.0000      -0.905729       -24.6462
  28   2.0000      -0.867957       -23.6183
  29   2.0000      -0.850712       -23.1491
  30   2.0000      -0.845342       -23.0029
  31   2.0000      -0.814713       -22.1695
  32   2.0000      -0.788212       -21.4483
  33   2.0000      -0.780262       -21.2320
  34   2.0000      -0.708722       -19.2853
  35   2.0000      -0.700744       -19.0682
  36   2.0000      -0.699359       -19.0305
  37   2.0000      -0.665460       -18.1081
  38   2.0000      -0.646592       -17.5947
  39   2.0000      -0.622136       -16.9292
  40   2.0000      -0.602399       -16.3921
  41   2.0000      -0.567498       -15.4424
  42   2.0000      -0.556129       -15.1330
  43   2.0000      -0.553306       -15.0562
  44   2.0000      -0.546047       -14.8587
  45   2.0000      -0.539030       -14.6678
  46   2.0000      -0.518480       -14.1086
  47   2.0000      -0.510790       -13.8993
  48   2.0000      -0.503017       -13.6878
  49   2.0000      -0.499558       -13.5937
  50   2.0000      -0.490906       -13.3582
  51   2.0000      -0.476524       -12.9669
  52   2.0000      -0.468676       -12.7533
  53   2.0000      -0.465401       -12.6642
  54   2.0000      -0.465231       -12.6596
  55   2.0000      -0.445401       -12.1200
  56   2.0000      -0.444454       -12.0942
  57   2.0000      -0.441289       -12.0081
  58   2.0000      -0.434883       -11.8338
  59   2.0000      -0.423320       -11.5191
  60   2.0000      -0.422573       -11.4988
  61   2.0000      -0.416814       -11.3421
  62   2.0000      -0.412827       -11.2336
  63   2.0000      -0.348101        -9.4723
  64   2.0000      -0.331618        -9.0238
  65   2.0000      -0.326848        -8.8940
  66   2.0000      -0.295834        -8.0501
  67   0.0000       0.033936         0.9235
  68   0.0000       0.064370         1.7516
  69   0.0000       0.116163         3.1610
  70   0.0000       0.121536         3.3072
  71   0.0000       0.128970         3.5094

MULLIKEN ATOMIC CHARGES
-----------------------
   0 S :    0.105833
   1 C :   -0.111902
   2 C :   -0.091006
   3 C :    0.058235
   4 C :   -0.141945
   5 H :   -0.022107
   6 C :    0.077840
   7 H :    0.022083
   8 H :    0.029477
   9 C :   -0.036575
  10 H :    0.020584
  11 H :    0.010079
  12 C :   -0.052186
  13 H :    0.021668
  14 H :    0.026798
  15 H :    0.045895
  16 S :    0.104348
  17 C :   -0.018145
  18 C :   -0.003728
  19 C :   -0.073572
  20 C :   -0.166305
  21 H :   -0.016060
  22 C :    0.101639
  23 H :    0.021343
  24 H :    0.013174
  25 C :   -0.114210
  26 H :    0.022440
  27 H :    0.032804
  28 C :   -0.038544
  29 H :    0.042870
  30 H :    0.035088
  31 H :    0.026801
  32 H :    0.040277
  33 H :    0.027010
Sum of atomic charges:    0.0000000

LOEWDIN ATOMIC CHARGES
----------------------
   0 S :    0.398567
   1 C :   -0.188934
   2 C :   -0.056415
   3 C :   -0.049773
   4 C :   -0.196546
   5 H :    0.015672
   6 C :   -0.030454
   7 H :    0.034893
   8 H :    0.033057
   9 C :   -0.037502
  10 H :    0.025048
  11 H :    0.014467
  12 C :   -0.064031
  13 H :    0.024539
  14 H :    0.023637
  15 H :    0.028409
  16 S :    0.402750
  17 C :   -0.184538
  18 C :   -0.062313
  19 C :   -0.062667
  20 C :   -0.175718
  21 H :    0.020670
  22 C :   -0.029509
  23 H :    0.026419
  24 H :    0.031119
  25 C :   -0.037846
  26 H :    0.011051
  27 H :    0.031075
  28 C :   -0.065773
  29 H :    0.033890
  30 H :    0.018489
  31 H :    0.027006
  32 H :    0.023935
  33 H :    0.017328

  Mayer bond orders larger than 0.100000
B(  0-S ,  1-C ) :   1.1406 B(  0-S ,  4-C ) :   1.1437 B(  1-C ,  2-C ) :   1.5919
B(  1-C , 32-H ) :   0.9726 B(  2-C ,  3-C ) :   1.2433 B(  2-C ,  6-C ) :   1.0231
B(  3-C ,  4-C ) :   1.5826 B(  3-C ,  5-H ) :   0.9993 B(  4-C , 20-C ) :   1.0022
B(  6-C ,  7-H ) :   0.9326 B(  6-C ,  8-H ) :   0.9434 B(  6-C ,  9-C ) :   1.0878
B(  9-C , 10-H ) :   0.9491 B(  9-C , 11-H ) :   0.9500 B(  9-C , 12-C ) :   1.0844
B( 12-C , 13-H ) :   0.9748 B( 12-C , 14-H ) :   0.9727 B( 12-C , 15-H ) :   0.9734
B( 16-S , 17-C ) :   1.1472 B( 16-S , 20-C ) :   1.1303 B( 17-C , 18-C ) :   1.5986
B( 17-C , 33-H ) :   0.9693 B( 18-C , 19-C ) :   1.2573 B( 18-C , 21-H ) :   0.9900
B( 19-C , 20-C ) :   1.6411 B( 19-C , 22-C ) :   1.0376 B( 22-C , 23-H ) :   0.9282
B( 22-C , 24-H ) :   0.9349 B( 22-C , 25-C ) :   1.0765 B( 25-C , 26-H ) :   0.9653
B( 25-C , 27-H ) :   0.9561 B( 25-C , 28-C ) :   1.0523 B( 28-C , 29-H ) :   0.9800
B( 28-C , 30-H ) :   0.9811 B( 28-C , 31-H ) :   0.9782

Dispersion correction           -0.014813238
FINAL SINGLE POINT ENERGY     -1339.863012467546

DIPOLE MOMENT
-------------
                                X             Y             Z
Electronic contribution:     12.07166      -6.43657      20.37264
Nuclear contribution   :    -12.54666       6.55387     -20.92379
                        -----------------------------------------
Total Dipole Moment    :     -0.47500       0.11729      -0.55115
                        -----------------------------------------
Magnitude (a.u.)       :      0.73698
Magnitude (Debye)      :      1.87326

Rotational constants in cm-1:     0.018436     0.008966     0.007559
Rotational constants in MHz :   552.696741   268.802199   226.599607

                             ****ORCA TERMINATED NORMALLY****
TOTAL RUN TIME: 0 days 0 hours 0 minutes 35 seconds 542 msec
