                         Program Version 4.2.1 -  RELEASE  -
|  1> ! wB97X-D3 SP def2-SVP
|  2> %pal
|  3> nprocs 16
|  4> end
|  5>
|  6> * xyz 0 1
|  7> S 	 -75.8139 	 47.6001 	 123.016
|  8> C 	 -77.114 	 47.141 	 124.1
|  9> C 	 -78.1471 	 46.5944 	 123.309
| 10> C 	 -77.88 	 46.4282 	 121.902
| 11> C 	 -76.589 	 46.8288 	 121.613
| 12> H 	 -78.4719 	 45.9165 	 121.191
| 13> C 	 -79.4513 	 46.1243 	 123.949
| 14> H 	 -80.1141 	 46.9858 	 123.979
| 15> H 	 -79.3271 	 45.7961 	 124.996
| 16> C 	 -80.2257 	 45.0423 	 123.24
| 17> H 	 -81.2153 	 44.8382 	 123.668
| 18> H 	 -80.4628 	 45.3585 	 122.265
| 19> C 	 -79.4244 	 43.6345 	 123.279
| 20> H 	 -79.2105 	 43.2431 	 124.276
| 21> H 	 -79.8313 	 42.7973 	 122.856
| 22> H 	 -78.5233 	 43.7298 	 122.865
| 23> S 	 -75.4547 	 48.6023 	 119.741
| 24> C 	 -74.9642 	 47.9422 	 118.155
| 25> C 	 -75.0993 	 46.5768 	 118.132
| 26> C 	 -75.8098 	 46.0702 	 119.25
| 27> C 	 -76.0988 	 47.0115 	 120.231
| 28> H 	 -74.8323 	 45.947 	 117.329
| 29> C 	 -75.945 	 44.6206 	 119.421
| 30> H 	 -76.6898 	 44.2122 	 118.776
| 31> H 	 -76.4219 	 44.5699 	 120.392
| 32> C 	 -74.6875 	 43.7507 	 119.478
| 33> H 	 -74.1105 	 44.2654 	 120.221
| 34> H 	 -74.1563 	 43.7728 	 118.585
| 35> C 	 -74.9135 	 42.3294 	 119.985
| 36> H 	 -73.9294 	 41.8938 	 120.305
| 37> H 	 -75.236 	 41.7495 	 119.095
| 38> H 	 -75.7436 	 42.1196 	 120.662
| 39> H 	 -77.1761 	 47.2037 	 125.199
| 40> H 	 -74.3847 	 48.6283 	 117.604
| 41> *
| 42>
| 43>                          ****END OF INPUT****

CARTESIAN COORDINATES (ANGSTROEM)
---------------------------------
  S    -75.813900   47.600100  123.016000
  C    -77.114000   47.141000  124.100000
  C    -78.147100   46.594400  123.309000
  C    -77.880000   46.428200  121.902000
  C    -76.589000   46.828800  121.613000
  H    -78.471900   45.916500  121.191000
  C    -79.451300   46.124300  123.949000
  H    -80.114100   46.985800  123.979000
  H    -79.327100   45.796100  124.996000
  C    -80.225700   45.042300  123.240000
  H    -81.215300   44.838200  123.668000
  H    -80.462800   45.358500  122.265000
  C    -79.424400   43.634500  123.279000
  H    -79.210500   43.243100  124.276000
  H    -79.831300   42.797300  122.856000
  H    -78.523300   43.729800  122.865000
  S    -75.454700   48.602300  119.741000
  C    -74.964200   47.942200  118.155000
  C    -75.099300   46.576800  118.132000
  C    -75.809800   46.070200  119.250000
  C    -76.098800   47.011500  120.231000
  H    -74.832300   45.947000  117.329000
  C    -75.945000   44.620600  119.421000
  H    -76.689800   44.212200  118.776000
  H    -76.421900   44.569900  120.392000
  C    -74.687500   43.750700  119.478000
  H    -74.110500   44.265400  120.221000
  H    -74.156300   43.772800  118.585000
  C    -74.913500   42.329400  119.985000
  H    -73.929400   41.893800  120.305000
  H    -75.236000   41.749500  119.095000
  H    -75.743600   42.119600  120.662000
  H    -77.176100   47.203700  125.199000
  H    -74.384700   48.628300  117.604000

 Total Charge           Charge          ....    0
 Multiplicity           Mult            ....    1
 Number of Electrons    NEL             ....  134
 Basis Dimension        Dim             ....  322

ORBITAL ENERGIES
----------------

  NO   OCC          E(Eh)            E(eV)
   0   2.0000     -88.970759     -2421.0174
   1   2.0000     -88.962095     -2420.7817
   2   2.0000     -10.335888      -281.2538
   3   2.0000     -10.330358      -281.1033
   4   2.0000     -10.321544      -280.8635
   5   2.0000     -10.318674      -280.7854
   6   2.0000     -10.308084      -280.4972
   7   2.0000     -10.297732      -280.2155
   8   2.0000     -10.296960      -280.1945
   9   2.0000     -10.292285      -280.0673
  10   2.0000     -10.291101      -280.0351
  11   2.0000     -10.290003      -280.0052
  12   2.0000     -10.282666      -279.8056
  13   2.0000     -10.278594      -279.6948
  14   2.0000     -10.278464      -279.6912
  15   2.0000     -10.262834      -279.2659
  16   2.0000      -8.084525      -219.9911
  17   2.0000      -8.076181      -219.7641
  18   2.0000      -6.043168      -164.4430
  19   2.0000      -6.039114      -164.3326
  20   2.0000      -6.035225      -164.2268
  21   2.0000      -6.034679      -164.2120
  22   2.0000      -6.030873      -164.1084
  23   2.0000      -6.026900      -164.0003
  24   2.0000      -1.002802       -27.2876
  25   2.0000      -0.981116       -26.6975
  26   2.0000      -0.913244       -24.8506
  27   2.0000      -0.909083       -24.7374
  28   2.0000      -0.869353       -23.6563
  29   2.0000      -0.852661       -23.2021
  30   2.0000      -0.841442       -22.8968
  31   2.0000      -0.818179       -22.2638
  32   2.0000      -0.786632       -21.4053
  33   2.0000      -0.772831       -21.0298
  34   2.0000      -0.714465       -19.4416
  35   2.0000      -0.706314       -19.2198
  36   2.0000      -0.696677       -18.9576
  37   2.0000      -0.664211       -18.0741
  38   2.0000      -0.641405       -17.4535
  39   2.0000      -0.622806       -16.9474
  40   2.0000      -0.604476       -16.4486
  41   2.0000      -0.570701       -15.5296
  42   2.0000      -0.563038       -15.3211
  43   2.0000      -0.557139       -15.1605
  44   2.0000      -0.537618       -14.6293
  45   2.0000      -0.531647       -14.4669
  46   2.0000      -0.516648       -14.0587
  47   2.0000      -0.513400       -13.9703
  48   2.0000      -0.508948       -13.8492
  49   2.0000      -0.495597       -13.4859
  50   2.0000      -0.487621       -13.2688
  51   2.0000      -0.479204       -13.0398
  52   2.0000      -0.471975       -12.8431
  53   2.0000      -0.464191       -12.6313
  54   2.0000      -0.460910       -12.5420
  55   2.0000      -0.450311       -12.2536
  56   2.0000      -0.446531       -12.1507
  57   2.0000      -0.436376       -11.8744
  58   2.0000      -0.430208       -11.7066
  59   2.0000      -0.429442       -11.6857
  60   2.0000      -0.419847       -11.4246
  61   2.0000      -0.413109       -11.2413
  62   2.0000      -0.409979       -11.1561
  63   2.0000      -0.351213        -9.5570
  64   2.0000      -0.330474        -8.9927
  65   2.0000      -0.327343        -8.9075
  66   2.0000      -0.292346        -7.9551
  67   0.0000       0.026101         0.7102
  68   0.0000       0.059662         1.6235
  69   0.0000       0.109839         2.9889
  70   0.0000       0.121507         3.3064
  71   0.0000       0.130390         3.5481

MULLIKEN ATOMIC CHARGES
-----------------------
   0 S :    0.110281
   1 C :   -0.120801
   2 C :   -0.105786
   3 C :    0.050782
   4 C :   -0.143547
   5 H :    0.018037
   6 C :    0.057740
   7 H :    0.041290
   8 H :    0.027941
   9 C :   -0.069286
  10 H :    0.030232
  11 H :    0.017500
  12 C :    0.007312
  13 H :    0.012758
  14 H :    0.005787
  15 H :   -0.003609
  16 S :    0.071918
  17 C :   -0.080170
  18 C :    0.015100
  19 C :   -0.076473
  20 C :   -0.140639
  21 H :    0.008702
  22 C :    0.078735
  23 H :    0.016501
  24 H :   -0.001593
  25 C :   -0.031665
  26 H :    0.026468
  27 H :    0.016225
  28 C :   -0.068260
  29 H :    0.049551
  30 H :    0.023130
  31 H :    0.038299
  32 H :    0.064790
  33 H :    0.052750
Sum of atomic charges:    0.0000000

LOEWDIN ATOMIC CHARGES
----------------------
   0 S :    0.399658
   1 C :   -0.206641
   2 C :   -0.056824
   3 C :   -0.054546
   4 C :   -0.181246
   5 H :    0.029260
   6 C :   -0.037651
   7 H :    0.035881
   8 H :    0.031729
   9 C :   -0.031913
  10 H :    0.029160
  11 H :    0.013685
  12 C :   -0.056827
  13 H :    0.029412
  14 H :    0.014223
  15 H :    0.005478
  16 S :    0.370483
  17 C :   -0.155889
  18 C :   -0.058505
  19 C :   -0.061346
  20 C :   -0.184336
  21 H :    0.027080
  22 C :   -0.038211
  23 H :    0.022856
  24 H :    0.029090
  25 C :   -0.030839
  26 H :    0.025950
  27 H :    0.013712
  28 C :   -0.070450
  29 H :    0.035474
  30 H :    0.027111
  31 H :    0.027391
  32 H :    0.040833
  33 H :    0.016757

  Mayer bond orders larger than 0.100000
B(  0-S ,  1-C ) :   1.1260 B(  0-S ,  4-C ) :   1.1562 B(  1-C ,  2-C ) :   1.6022
B(  1-C , 32-H ) :   0.9693 B(  2-C ,  3-C ) :   1.2461 B(  2-C ,  6-C ) :   1.0117
B(  3-C ,  4-C ) :   1.5462 B(  3-C ,  5-H ) :   0.9918 B(  4-C , 20-C ) :   1.0324
B(  6-C ,  7-H ) :   0.9294 B(  6-C ,  8-H ) :   0.9500 B(  6-C ,  9-C ) :   1.0930
B(  9-C , 10-H ) :   0.9548 B(  9-C , 11-H ) :   0.9496 B(  9-C , 12-C ) :   1.0569
B( 12-C , 13-H ) :   0.9713 B( 12-C , 14-H ) :   0.9757 B( 12-C , 15-H ) :   0.9776
B( 16-S , 17-C ) :   1.1520 B( 16-S , 20-C ) :   1.1288 B( 17-C , 18-C ) :   1.5789
B( 17-C , 33-H ) :   0.9763 B( 18-C , 19-C ) :   1.2537 B( 18-C , 21-H ) :   0.9982
B( 19-C , 20-C ) :   1.5977 B( 19-C , 22-C ) :   1.0641 B( 22-C , 23-H ) :   0.9169
B( 22-C , 24-H ) :   0.9212 B( 22-C , 25-C ) :   1.0624 B( 25-C , 26-H ) :   0.9560
B( 25-C , 27-H ) :   0.9533 B( 25-C , 28-C ) :   1.0814 B( 28-C , 29-H ) :   0.9746
B( 28-C , 30-H ) :   0.9736 B( 28-C , 31-H ) :   0.9765

Dispersion correction           -0.014509071
FINAL SINGLE POINT ENERGY     -1339.849194073828

DIPOLE MOMENT
-------------
                                X             Y             Z
Electronic contribution:     10.38880      27.18977      -2.16024
Nuclear contribution   :    -10.63607     -27.76081       2.14956
                        -----------------------------------------
Total Dipole Moment    :     -0.24727      -0.57104      -0.01069
                        -----------------------------------------
Magnitude (a.u.)       :      0.62237
Magnitude (Debye)      :      1.58193

Rotational constants in cm-1:     0.016773     0.009706     0.007225
Rotational constants in MHz :   502.855462   290.970730   216.611706

                             ****ORCA TERMINATED NORMALLY****
TOTAL RUN TIME: 0 days 0 hours 0 minutes 33 seconds 155 msec
