                         Program Version 4.2.1 -  RELEASE  -
|  1> ! wB97X-D3 SP def2-SVP
|  2> %pal
|  3> nprocs 16
|  4> end
|  5>
|  6> * xyz 0 1
|  7> S 	 -10.6882 	 62.8168 	 52.7367
|  8> C 	 -11.0194 	 62.2231 	 54.2881
|  9> C 	 -10.3237 	 62.8988 	 55.2344
| 10> C 	 -9.52939 	 63.9627 	 54.6986
| 11> C 	 -9.45695 	 63.9235 	 53.2964
| 12> H 	 -8.87714 	 64.6356 	 55.2581
| 13> C 	 -10.6062 	 62.665 	 56.6974
| 14> H 	 -10.4055 	 61.6903 	 56.9779
| 15> H 	 -11.6979 	 62.8212 	 56.7699
| 16> C 	 -9.93029 	 63.5962 	 57.7669
| 17> H 	 -10.0222 	 64.7011 	 57.6029
| 18> H 	 -10.4903 	 63.2858 	 58.6838
| 19> C 	 -8.40197 	 63.2576 	 58.016
| 20> H 	 -7.80972 	 63.2651 	 57.0836
| 21> H 	 -8.02222 	 63.9167 	 58.7453
| 22> H 	 -8.40237 	 62.2886 	 58.4487
| 23> S 	 -9.32341 	 65.2668 	 50.95
| 24> C 	 -8.03885 	 66.4552 	 50.7309
| 25> C 	 -7.03008 	 66.2383 	 51.5971
| 26> C 	 -7.42501 	 65.376 	 52.6885
| 27> C 	 -8.62487 	 64.762 	 52.4513
| 28> H 	 -6.12676 	 66.7792 	 51.4117
| 29> C 	 -6.40227 	 65.016 	 53.7393
| 30> H 	 -6.43596 	 63.9466 	 53.6735
| 31> H 	 -6.86035 	 65.4606 	 54.6277
| 32> C 	 -4.93658 	 65.4703 	 53.7043
| 33> H 	 -4.52382 	 65.2155 	 54.7066
| 34> H 	 -4.90397 	 66.5364 	 53.404
| 35> C 	 -4.07064 	 64.8262 	 52.6594
| 36> H 	 -3.88797 	 63.7742 	 53.0027
| 37> H 	 -3.10207 	 65.2627 	 52.7114
| 38> H 	 -4.51785 	 64.9292 	 51.7145
| 39> H 	 -11.7073 	 61.385 	 54.4522
| 40> H 	 -7.78119 	 66.83 	 49.8207
| 41> *
| 42>
| 43>                          ****END OF INPUT****

CARTESIAN COORDINATES (ANGSTROEM)
---------------------------------
  S    -10.688200   62.816800   52.736700
  C    -11.019400   62.223100   54.288100
  C    -10.323700   62.898800   55.234400
  C     -9.529390   63.962700   54.698600
  C     -9.456950   63.923500   53.296400
  H     -8.877140   64.635600   55.258100
  C    -10.606200   62.665000   56.697400
  H    -10.405500   61.690300   56.977900
  H    -11.697900   62.821200   56.769900
  C     -9.930290   63.596200   57.766900
  H    -10.022200   64.701100   57.602900
  H    -10.490300   63.285800   58.683800
  C     -8.401970   63.257600   58.016000
  H     -7.809720   63.265100   57.083600
  H     -8.022220   63.916700   58.745300
  H     -8.402370   62.288600   58.448700
  S     -9.323410   65.266800   50.950000
  C     -8.038850   66.455200   50.730900
  C     -7.030080   66.238300   51.597100
  C     -7.425010   65.376000   52.688500
  C     -8.624870   64.762000   52.451300
  H     -6.126760   66.779200   51.411700
  C     -6.402270   65.016000   53.739300
  H     -6.435960   63.946600   53.673500
  H     -6.860350   65.460600   54.627700
  C     -4.936580   65.470300   53.704300
  H     -4.523820   65.215500   54.706600
  H     -4.903970   66.536400   53.404000
  C     -4.070640   64.826200   52.659400
  H     -3.887970   63.774200   53.002700
  H     -3.102070   65.262700   52.711400
  H     -4.517850   64.929200   51.714500
  H    -11.707300   61.385000   54.452200
  H     -7.781190   66.830000   49.820700

 Total Charge           Charge          ....    0
 Multiplicity           Mult            ....    1
 Number of Electrons    NEL             ....  134
 Basis Dimension        Dim             ....  322

ORBITAL ENERGIES
----------------

  NO   OCC          E(Eh)            E(eV)
   0   2.0000     -88.964034     -2420.8344
   1   2.0000     -88.960764     -2420.7455
   2   2.0000     -10.329862      -281.0898
   3   2.0000     -10.325279      -280.9651
   4   2.0000     -10.306525      -280.4548
   5   2.0000     -10.303868      -280.3825
   6   2.0000     -10.302557      -280.3468
   7   2.0000     -10.297565      -280.2110
   8   2.0000     -10.296048      -280.1697
   9   2.0000     -10.295787      -280.1626
  10   2.0000     -10.291376      -280.0426
  11   2.0000     -10.291244      -280.0390
  12   2.0000     -10.288755      -279.9712
  13   2.0000     -10.288390      -279.9613
  14   2.0000     -10.275700      -279.6160
  15   2.0000     -10.272678      -279.5338
  16   2.0000      -8.079876      -219.8646
  17   2.0000      -8.076185      -219.7642
  18   2.0000      -6.038289      -164.3102
  19   2.0000      -6.034766      -164.2143
  20   2.0000      -6.034174      -164.1982
  21   2.0000      -6.030801      -164.1064
  22   2.0000      -6.030744      -164.1049
  23   2.0000      -6.026631      -163.9930
  24   2.0000      -1.013422       -27.5766
  25   2.0000      -0.991937       -26.9920
  26   2.0000      -0.915817       -24.9207
  27   2.0000      -0.906803       -24.6754
  28   2.0000      -0.877388       -23.8749
  29   2.0000      -0.855774       -23.2868
  30   2.0000      -0.842599       -22.9283
  31   2.0000      -0.824354       -22.4318
  32   2.0000      -0.786109       -21.3911
  33   2.0000      -0.776109       -21.1190
  34   2.0000      -0.712858       -19.3979
  35   2.0000      -0.695333       -18.9210
  36   2.0000      -0.689891       -18.7729
  37   2.0000      -0.659461       -17.9448
  38   2.0000      -0.639942       -17.4137
  39   2.0000      -0.623770       -16.9736
  40   2.0000      -0.597045       -16.2464
  41   2.0000      -0.574992       -15.6463
  42   2.0000      -0.564611       -15.3638
  43   2.0000      -0.553034       -15.0488
  44   2.0000      -0.549148       -14.9431
  45   2.0000      -0.531876       -14.4731
  46   2.0000      -0.523585       -14.2475
  47   2.0000      -0.516354       -14.0507
  48   2.0000      -0.508952       -13.8493
  49   2.0000      -0.502041       -13.6612
  50   2.0000      -0.499108       -13.5814
  51   2.0000      -0.494108       -13.4454
  52   2.0000      -0.474198       -12.9036
  53   2.0000      -0.462813       -12.5938
  54   2.0000      -0.457225       -12.4417
  55   2.0000      -0.449626       -12.2349
  56   2.0000      -0.445549       -12.1240
  57   2.0000      -0.434030       -11.8105
  58   2.0000      -0.430169       -11.7055
  59   2.0000      -0.425786       -11.5862
  60   2.0000      -0.420139       -11.4326
  61   2.0000      -0.410960       -11.1828
  62   2.0000      -0.405700       -11.0396
  63   2.0000      -0.360932        -9.8215
  64   2.0000      -0.332383        -9.0446
  65   2.0000      -0.323362        -8.7991
  66   2.0000      -0.285567        -7.7707
  67   0.0000       0.021937         0.5969
  68   0.0000       0.079582         2.1655
  69   0.0000       0.107101         2.9144
  70   0.0000       0.122590         3.3359
  71   0.0000       0.130888         3.5617

MULLIKEN ATOMIC CHARGES
-----------------------
   0 S :    0.112153
   1 C :   -0.132724
   2 C :   -0.075168
   3 C :    0.007128
   4 C :   -0.125109
   5 H :    0.008646
   6 C :    0.065930
   7 H :    0.012992
   8 H :    0.046379
   9 C :   -0.126108
  10 H :    0.047019
  11 H :    0.036796
  12 C :   -0.035861
  13 H :    0.044833
  14 H :    0.030373
  15 H :    0.019359
  16 S :    0.079974
  17 C :   -0.020636
  18 C :   -0.071180
  19 C :   -0.083379
  20 C :   -0.122962
  21 H :    0.017601
  22 C :    0.058440
  23 H :    0.038884
  24 H :    0.045241
  25 C :   -0.089194
  26 H :    0.041012
  27 H :    0.029566
  28 C :   -0.030409
  29 H :    0.029525
  30 H :    0.028281
  31 H :    0.032397
  32 H :    0.056125
  33 H :    0.024075
Sum of atomic charges:    0.0000000

LOEWDIN ATOMIC CHARGES
----------------------
   0 S :    0.425767
   1 C :   -0.214875
   2 C :   -0.070583
   3 C :   -0.064648
   4 C :   -0.194139
   5 H :    0.028561
   6 C :   -0.029764
   7 H :    0.020674
   8 H :    0.040680
   9 C :   -0.043302
  10 H :    0.025571
  11 H :    0.031352
  12 C :   -0.062772
  13 H :    0.027288
  14 H :    0.020345
  15 H :    0.020125
  16 S :    0.396222
  17 C :   -0.170179
  18 C :   -0.063662
  19 C :   -0.058453
  20 C :   -0.197352
  21 H :    0.029779
  22 C :   -0.038118
  23 H :    0.034747
  24 H :    0.036096
  25 C :   -0.043683
  26 H :    0.034504
  27 H :    0.024791
  28 C :   -0.060562
  29 H :    0.029751
  30 H :    0.024085
  31 H :    0.017616
  32 H :    0.034502
  33 H :    0.009637

  Mayer bond orders larger than 0.100000
B(  0-S ,  1-C ) :   1.1522 B(  0-S ,  4-C ) :   1.1649 B(  1-C ,  2-C ) :   1.5963
B(  1-C , 32-H ) :   0.9733 B(  2-C ,  3-C ) :   1.2766 B(  2-C ,  6-C ) :   1.0003
B(  3-C ,  4-C ) :   1.5330 B(  3-C ,  5-H ) :   0.9836 B(  4-C , 20-C ) :   1.0626
B(  6-C ,  7-H ) :   0.9366 B(  6-C ,  8-H ) :   0.9470 B(  6-C ,  9-C ) :   1.0797
B(  9-C , 10-H ) :   0.9577 B(  9-C , 11-H ) :   0.9568 B(  9-C , 12-C ) :   1.0666
B( 12-C , 13-H ) :   0.9793 B( 12-C , 14-H ) :   0.9765 B( 12-C , 15-H ) :   0.9747
B( 16-S , 17-C ) :   1.1422 B( 16-S , 20-C ) :   1.1264 B( 17-C , 18-C ) :   1.6696
B( 17-C , 33-H ) :   0.9539 B( 18-C , 19-C ) :   1.2090 B( 18-C , 21-H ) :   0.9807
B( 19-C , 20-C ) :   1.6320 B( 19-C , 22-C ) :   1.0074 B( 22-C , 23-H ) :   0.9419
B( 22-C , 24-H ) :   0.9163 B( 22-C , 25-C ) :   1.0970 B( 25-C , 26-H ) :   0.9516
B( 25-C , 27-H ) :   0.9459 B( 25-C , 28-C ) :   1.0915 B( 28-C , 29-H ) :   0.9702
B( 28-C , 30-H ) :   0.9716 B( 28-C , 31-H ) :   0.9757

Dispersion correction           -0.014241507
FINAL SINGLE POINT ENERGY     -1339.852187228532

DIPOLE MOMENT
-------------
                                X             Y             Z
Electronic contribution:    -18.66365      -0.22261     -22.45386
Nuclear contribution   :     19.15753       0.15888      23.03231
                        -----------------------------------------
Total Dipole Moment    :      0.49388      -0.06373       0.57845
                        -----------------------------------------
Magnitude (a.u.)       :      0.76327
Magnitude (Debye)      :      1.94008

Rotational constants in cm-1:     0.017255     0.009554     0.006694
Rotational constants in MHz :   517.289003   286.408673   200.679961

                             ****ORCA TERMINATED NORMALLY****
TOTAL RUN TIME: 0 days 0 hours 0 minutes 34 seconds 938 msec
