                         Program Version 4.2.1 -  RELEASE  -
|  1> ! wB97X-D3 SP def2-SVP
|  2> %pal
|  3> nprocs 16
|  4> end
|  5>
|  6> * xyz 0 1
|  7> S 	 1.48786 	 -17.9001 	 83.536
|  8> C 	 2.15497 	 -19.3424 	 84.3393
|  9> C 	 3.10537 	 -18.9252 	 85.2016
| 10> C 	 3.65961 	 -17.6549 	 84.8737
| 11> C 	 2.78904 	 -16.873 	 84.0869
| 12> H 	 4.56353 	 -17.3112 	 85.2869
| 13> C 	 3.78791 	 -19.7322 	 86.2768
| 14> H 	 3.19467 	 -20.6441 	 86.5272
| 15> H 	 3.65405 	 -19.0804 	 87.0996
| 16> C 	 5.32275 	 -20.1417 	 85.9733
| 17> H 	 5.22411 	 -20.5842 	 84.9788
| 18> H 	 5.94026 	 -19.2731 	 85.892
| 19> C 	 5.90742 	 -21.0629 	 87.0274
| 20> H 	 6.96854 	 -21.0442 	 86.9228
| 21> H 	 5.64851 	 -20.8257 	 88.0772
| 22> H 	 5.53029 	 -22.0953 	 87.0195
| 23> S 	 1.31901 	 -14.8449 	 83.0037
| 24> C 	 1.89126 	 -13.2457 	 83.0484
| 25> C 	 3.12692 	 -13.1286 	 83.6097
| 26> C 	 3.7477 	 -14.3802 	 84.0173
| 27> C 	 2.81877 	 -15.4323 	 83.7469
| 28> H 	 3.59902 	 -12.2221 	 83.6831
| 29> C 	 5.08395 	 -14.6497 	 84.5883
| 30> H 	 5.5133 	 -15.501 	 84.0479
| 31> H 	 4.99483 	 -14.9917 	 85.618
| 32> C 	 6.14526 	 -13.4636 	 84.3767
| 33> H 	 5.83704 	 -12.6989 	 85.0463
| 34> H 	 6.33109 	 -13.0448 	 83.3733
| 35> C 	 7.57488 	 -13.9973 	 84.784
| 36> H 	 7.61888 	 -14.5919 	 85.6958
| 37> H 	 8.29386 	 -13.2022 	 84.8342
| 38> H 	 7.8399 	 -14.5159 	 83.8502
| 39> H 	 1.59175 	 -20.2595 	 84.4828
| 40> H 	 1.26558 	 -12.3952 	 82.8366
| 41> *
| 42>
| 43>                          ****END OF INPUT****

CARTESIAN COORDINATES (ANGSTROEM)
---------------------------------
  S      1.487860  -17.900100   83.536000
  C      2.154970  -19.342400   84.339300
  C      3.105370  -18.925200   85.201600
  C      3.659610  -17.654900   84.873700
  C      2.789040  -16.873000   84.086900
  H      4.563530  -17.311200   85.286900
  C      3.787910  -19.732200   86.276800
  H      3.194670  -20.644100   86.527200
  H      3.654050  -19.080400   87.099600
  C      5.322750  -20.141700   85.973300
  H      5.224110  -20.584200   84.978800
  H      5.940260  -19.273100   85.892000
  C      5.907420  -21.062900   87.027400
  H      6.968540  -21.044200   86.922800
  H      5.648510  -20.825700   88.077200
  H      5.530290  -22.095300   87.019500
  S      1.319010  -14.844900   83.003700
  C      1.891260  -13.245700   83.048400
  C      3.126920  -13.128600   83.609700
  C      3.747700  -14.380200   84.017300
  C      2.818770  -15.432300   83.746900
  H      3.599020  -12.222100   83.683100
  C      5.083950  -14.649700   84.588300
  H      5.513300  -15.501000   84.047900
  H      4.994830  -14.991700   85.618000
  C      6.145260  -13.463600   84.376700
  H      5.837040  -12.698900   85.046300
  H      6.331090  -13.044800   83.373300
  C      7.574880  -13.997300   84.784000
  H      7.618880  -14.591900   85.695800
  H      8.293860  -13.202200   84.834200
  H      7.839900  -14.515900   83.850200
  H      1.591750  -20.259500   84.482800
  H      1.265580  -12.395200   82.836600

 Total Charge           Charge          ....    0
 Multiplicity           Mult            ....    1
 Number of Electrons    NEL             ....  134
 Basis Dimension        Dim             ....  322

ORBITAL ENERGIES
----------------

  NO   OCC          E(Eh)            E(eV)
   0   2.0000     -88.965657     -2420.8786
   1   2.0000     -88.960312     -2420.7332
   2   2.0000     -10.336552      -281.2719
   3   2.0000     -10.332214      -281.1538
   4   2.0000     -10.311516      -280.5906
   5   2.0000     -10.311098      -280.5792
   6   2.0000     -10.308195      -280.5003
   7   2.0000     -10.301701      -280.3235
   8   2.0000     -10.296833      -280.1911
   9   2.0000     -10.295110      -280.1442
  10   2.0000     -10.293276      -280.0943
  11   2.0000     -10.292769      -280.0805
  12   2.0000     -10.289360      -279.9877
  13   2.0000     -10.288994      -279.9778
  14   2.0000     -10.282449      -279.7997
  15   2.0000     -10.280328      -279.7420
  16   2.0000      -8.081093      -219.8977
  17   2.0000      -8.074869      -219.7284
  18   2.0000      -6.039532      -164.3440
  19   2.0000      -6.035536      -164.2353
  20   2.0000      -6.033661      -164.1843
  21   2.0000      -6.031862      -164.1353
  22   2.0000      -6.029516      -164.0715
  23   2.0000      -6.025219      -163.9545
  24   2.0000      -1.005587       -27.3634
  25   2.0000      -0.984605       -26.7925
  26   2.0000      -0.909484       -24.7483
  27   2.0000      -0.906039       -24.6546
  28   2.0000      -0.869624       -23.6637
  29   2.0000      -0.855668       -23.2839
  30   2.0000      -0.842413       -22.9232
  31   2.0000      -0.815360       -22.1871
  32   2.0000      -0.783522       -21.3207
  33   2.0000      -0.770662       -20.9708
  34   2.0000      -0.712996       -19.4016
  35   2.0000      -0.706883       -19.2353
  36   2.0000      -0.698059       -18.9952
  37   2.0000      -0.655767       -17.8443
  38   2.0000      -0.633853       -17.2480
  39   2.0000      -0.624895       -17.0043
  40   2.0000      -0.601993       -16.3811
  41   2.0000      -0.575649       -15.6642
  42   2.0000      -0.564893       -15.3715
  43   2.0000      -0.559326       -15.2200
  44   2.0000      -0.531786       -14.4706
  45   2.0000      -0.525625       -14.3030
  46   2.0000      -0.518250       -14.1023
  47   2.0000      -0.511862       -13.9285
  48   2.0000      -0.506761       -13.7897
  49   2.0000      -0.498694       -13.5702
  50   2.0000      -0.489302       -13.3146
  51   2.0000      -0.482050       -13.1172
  52   2.0000      -0.475057       -12.9269
  53   2.0000      -0.468471       -12.7477
  54   2.0000      -0.461633       -12.5617
  55   2.0000      -0.454632       -12.3712
  56   2.0000      -0.448231       -12.1970
  57   2.0000      -0.444238       -12.0883
  58   2.0000      -0.432358       -11.7650
  59   2.0000      -0.425940       -11.5904
  60   2.0000      -0.422063       -11.4849
  61   2.0000      -0.414594       -11.2817
  62   2.0000      -0.405114       -11.0237
  63   2.0000      -0.360759        -9.8167
  64   2.0000      -0.333289        -9.0693
  65   2.0000      -0.321751        -8.7553
  66   2.0000      -0.279060        -7.5936
  67   0.0000       0.017021         0.4632
  68   0.0000       0.084381         2.2961
  69   0.0000       0.104136         2.8337
  70   0.0000       0.117312         3.1922
  71   0.0000       0.134132         3.6499

MULLIKEN ATOMIC CHARGES
-----------------------
   0 S :    0.067294
   1 C :   -0.096416
   2 C :   -0.102841
   3 C :   -0.022165
   4 C :   -0.077188
   5 H :   -0.019053
   6 C :    0.043811
   7 H :    0.020170
   8 H :    0.025901
   9 C :   -0.066755
  10 H :    0.044130
  11 H :    0.029116
  12 C :   -0.038411
  13 H :    0.034999
  14 H :    0.026786
  15 H :    0.031105
  16 S :    0.097829
  17 C :   -0.060615
  18 C :   -0.006483
  19 C :   -0.037611
  20 C :   -0.132858
  21 H :   -0.019368
  22 C :   -0.000199
  23 H :    0.047787
  24 H :    0.055422
  25 C :   -0.086370
  26 H :    0.031255
  27 H :    0.049703
  28 C :   -0.056196
  29 H :    0.042651
  30 H :    0.027237
  31 H :    0.036530
  32 H :    0.055029
  33 H :    0.055772
Sum of atomic charges:   -0.0000000

LOEWDIN ATOMIC CHARGES
----------------------
   0 S :    0.377318
   1 C :   -0.196057
   2 C :   -0.062055
   3 C :   -0.074481
   4 C :   -0.175793
   5 H :    0.015042
   6 C :   -0.031650
   7 H :    0.030127
   8 H :    0.025677
   9 C :   -0.030819
  10 H :    0.031238
  11 H :    0.019485
  12 C :   -0.071171
  13 H :    0.025026
  14 H :    0.029367
  15 H :    0.028304
  16 S :    0.415792
  17 C :   -0.196092
  18 C :   -0.064076
  19 C :   -0.047973
  20 C :   -0.185837
  21 H :    0.015425
  22 C :   -0.035943
  23 H :    0.037002
  24 H :    0.037419
  25 C :   -0.032473
  26 H :    0.013980
  27 H :    0.032323
  28 C :   -0.066127
  29 H :    0.024029
  30 H :    0.021768
  31 H :    0.030188
  32 H :    0.030554
  33 H :    0.030485

  Mayer bond orders larger than 0.100000
B(  0-S ,  1-C ) :   1.0972 B(  0-S ,  4-C ) :   1.1515 B(  1-C ,  2-C ) :   1.6440
B(  1-C , 32-H ) :   0.9605 B(  2-C ,  3-C ) :   1.2150 B(  2-C ,  6-C ) :   1.0332
B(  3-C ,  4-C ) :   1.5512 B(  3-C ,  5-H ) :   0.9959 B(  4-C , 20-C ) :   1.0915
B(  6-C ,  7-H ) :   0.9486 B(  6-C ,  8-H ) :   0.9314 B(  6-C ,  9-C ) :   1.0428
B(  9-C , 10-H ) :   0.9597 B(  9-C , 11-H ) :   0.9579 B(  9-C , 12-C ) :   1.0824
B( 12-C , 13-H ) :   0.9751 B( 12-C , 14-H ) :   0.9730 B( 12-C , 15-H ) :   0.9730
B( 16-S , 17-C ) :   1.1628 B( 16-S , 20-C ) :   1.1460 B( 17-C , 18-C ) :   1.5988
B( 17-C , 33-H ) :   0.9643 B( 18-C , 19-C ) :   1.2484 B( 18-C , 21-H ) :   1.0037
B( 19-C , 20-C ) :   1.5540 B( 19-C , 22-C ) :   1.0486 B( 22-C , 23-H ) :   0.9387
B( 22-C , 24-H ) :   0.9191 B( 22-C , 25-C ) :   1.0515 B( 25-C , 26-H ) :   0.9532
B( 25-C , 27-H ) :   0.9669 B( 25-C , 28-C ) :   1.0729 B( 28-C , 29-H ) :   0.9766
B( 28-C , 30-H ) :   0.9745 B( 28-C , 31-H ) :   0.9813

Dispersion correction           -0.013326958
FINAL SINGLE POINT ENERGY     -1339.856478309476

DIPOLE MOMENT
-------------
                                X             Y             Z
Electronic contribution:    -28.58562       6.22467     -14.86283
Nuclear contribution   :     29.24809      -6.06361      15.41368
                        -----------------------------------------
Total Dipole Moment    :      0.66247       0.16106       0.55086
                        -----------------------------------------
Magnitude (a.u.)       :      0.87649
Magnitude (Debye)      :      2.22787

Rotational constants in cm-1:     0.016164     0.008994     0.005914
Rotational constants in MHz :   484.574259   269.629322   177.292035

                             ****ORCA TERMINATED NORMALLY****
TOTAL RUN TIME: 0 days 0 hours 0 minutes 30 seconds 876 msec
