                         Program Version 4.2.1 -  RELEASE  -
|  1> ! wB97X-D3 SP def2-SVP
|  2> %pal
|  3> nprocs 16
|  4> end
|  5>
|  6> * xyz 0 1
|  7> S 	 5.96439 	 78.2813 	 45.9157
|  8> C 	 4.50089 	 77.5956 	 45.2436
|  9> C 	 4.30596 	 76.2434 	 45.58
| 10> C 	 5.14144 	 75.934 	 46.7069
| 11> C 	 6.01551 	 76.9297 	 47.0537
| 12> H 	 5.06396 	 75.0355 	 47.3249
| 13> C 	 3.19847 	 75.4028 	 45.0636
| 14> H 	 3.67662 	 74.4151 	 44.8137
| 15> H 	 3.00052 	 75.93 	 44.1733
| 16> C 	 1.95632 	 75.2178 	 45.9327
| 17> H 	 2.34469 	 74.8654 	 46.894
| 18> H 	 1.47653 	 76.2167 	 45.9405
| 19> C 	 0.952403 	 74.2193 	 45.4608
| 20> H 	 1.46357 	 73.3281 	 44.9832
| 21> H 	 0.343357 	 73.8293 	 46.2278
| 22> H 	 0.210661 	 74.6815 	 44.8118
| 23> S 	 8.62501 	 76.3381 	 47.4666
| 24> C 	 9.29918 	 76.5024 	 49.0498
| 25> C 	 8.32012 	 76.6268 	 49.9957
| 26> C 	 7.01807 	 76.8252 	 49.4849
| 27> C 	 7.03216 	 76.7895 	 48.053
| 28> H 	 8.55582 	 76.4757 	 51.0402
| 29> C 	 5.86516 	 76.9945 	 50.4648
| 30> H 	 5.87455 	 77.9873 	 50.8583
| 31> H 	 6.22457 	 76.3899 	 51.331
| 32> C 	 4.53713 	 76.4683 	 49.9457
| 33> H 	 4.56806 	 75.3655 	 49.6097
| 34> H 	 4.19656 	 76.9826 	 49.0391
| 35> C 	 3.41186 	 76.6225 	 50.9772
| 36> H 	 3.57488 	 77.541 	 51.5686
| 37> H 	 3.42055 	 75.8243 	 51.7146
| 38> H 	 2.41351 	 76.6135 	 50.4975
| 39> H 	 3.89302 	 78.1971 	 44.5179
| 40> H 	 10.3038 	 76.2907 	 49.2733
| 41> *
| 42>
| 43>                          ****END OF INPUT****

CARTESIAN COORDINATES (ANGSTROEM)
---------------------------------
  S      5.964390   78.281300   45.915700
  C      4.500890   77.595600   45.243600
  C      4.305960   76.243400   45.580000
  C      5.141440   75.934000   46.706900
  C      6.015510   76.929700   47.053700
  H      5.063960   75.035500   47.324900
  C      3.198470   75.402800   45.063600
  H      3.676620   74.415100   44.813700
  H      3.000520   75.930000   44.173300
  C      1.956320   75.217800   45.932700
  H      2.344690   74.865400   46.894000
  H      1.476530   76.216700   45.940500
  C      0.952403   74.219300   45.460800
  H      1.463570   73.328100   44.983200
  H      0.343357   73.829300   46.227800
  H      0.210661   74.681500   44.811800
  S      8.625010   76.338100   47.466600
  C      9.299180   76.502400   49.049800
  C      8.320120   76.626800   49.995700
  C      7.018070   76.825200   49.484900
  C      7.032160   76.789500   48.053000
  H      8.555820   76.475700   51.040200
  C      5.865160   76.994500   50.464800
  H      5.874550   77.987300   50.858300
  H      6.224570   76.389900   51.331000
  C      4.537130   76.468300   49.945700
  H      4.568060   75.365500   49.609700
  H      4.196560   76.982600   49.039100
  C      3.411860   76.622500   50.977200
  H      3.574880   77.541000   51.568600
  H      3.420550   75.824300   51.714600
  H      2.413510   76.613500   50.497500
  H      3.893020   78.197100   44.517900
  H     10.303800   76.290700   49.273300

 Total Charge           Charge          ....    0
 Multiplicity           Mult            ....    1
 Number of Electrons    NEL             ....  134
 Basis Dimension        Dim             ....  322

ORBITAL ENERGIES
----------------

  NO   OCC          E(Eh)            E(eV)
   0   2.0000     -88.964963     -2420.8597
   1   2.0000     -88.961949     -2420.7777
   2   2.0000     -10.323266      -280.9104
   3   2.0000     -10.321672      -280.8670
   4   2.0000     -10.319874      -280.8180
   5   2.0000     -10.306796      -280.4622
   6   2.0000     -10.303475      -280.3718
   7   2.0000     -10.301706      -280.3237
   8   2.0000     -10.293833      -280.1094
   9   2.0000     -10.292637      -280.0769
  10   2.0000     -10.288818      -279.9730
  11   2.0000     -10.288555      -279.9658
  12   2.0000     -10.288023      -279.9513
  13   2.0000     -10.285578      -279.8848
  14   2.0000     -10.277371      -279.6615
  15   2.0000     -10.276681      -279.6427
  16   2.0000      -8.079619      -219.8576
  17   2.0000      -8.077053      -219.7878
  18   2.0000      -6.037983      -164.3019
  19   2.0000      -6.035452      -164.2330
  20   2.0000      -6.034351      -164.2030
  21   2.0000      -6.031542      -164.1266
  22   2.0000      -6.030317      -164.0933
  23   2.0000      -6.027891      -164.0272
  24   2.0000      -1.004506       -27.3340
  25   2.0000      -0.981967       -26.7207
  26   2.0000      -0.918390       -24.9907
  27   2.0000      -0.907779       -24.7019
  28   2.0000      -0.871526       -23.7154
  29   2.0000      -0.852978       -23.2107
  30   2.0000      -0.848253       -23.0821
  31   2.0000      -0.813563       -22.1382
  32   2.0000      -0.782722       -21.2989
  33   2.0000      -0.766009       -20.8442
  34   2.0000      -0.708325       -19.2745
  35   2.0000      -0.700149       -19.0520
  36   2.0000      -0.686761       -18.6877
  37   2.0000      -0.654416       -17.8076
  38   2.0000      -0.640094       -17.4178
  39   2.0000      -0.617809       -16.8114
  40   2.0000      -0.595430       -16.2025
  41   2.0000      -0.579053       -15.7568
  42   2.0000      -0.560717       -15.2579
  43   2.0000      -0.557954       -15.1827
  44   2.0000      -0.529372       -14.4049
  45   2.0000      -0.521788       -14.1986
  46   2.0000      -0.514088       -13.9890
  47   2.0000      -0.510224       -13.8839
  48   2.0000      -0.508668       -13.8416
  49   2.0000      -0.498192       -13.5565
  50   2.0000      -0.491799       -13.3825
  51   2.0000      -0.481356       -13.0984
  52   2.0000      -0.473559       -12.8862
  53   2.0000      -0.463009       -12.5991
  54   2.0000      -0.455619       -12.3980
  55   2.0000      -0.449995       -12.2450
  56   2.0000      -0.442807       -12.0494
  57   2.0000      -0.436423       -11.8757
  58   2.0000      -0.434956       -11.8358
  59   2.0000      -0.425562       -11.5801
  60   2.0000      -0.419321       -11.4103
  61   2.0000      -0.416421       -11.3314
  62   2.0000      -0.408710       -11.1216
  63   2.0000      -0.335503        -9.1295
  64   2.0000      -0.326095        -8.8735
  65   2.0000      -0.320265        -8.7148
  66   2.0000      -0.296510        -8.0685
  67   0.0000       0.041500         1.1293
  68   0.0000       0.051008         1.3880
  69   0.0000       0.109577         2.9817
  70   0.0000       0.113907         3.0996
  71   0.0000       0.125130         3.4050

MULLIKEN ATOMIC CHARGES
-----------------------
   0 S :    0.120700
   1 C :   -0.150230
   2 C :   -0.087380
   3 C :    0.029383
   4 C :   -0.171824
   5 H :    0.018766
   6 C :    0.075278
   7 H :    0.032344
   8 H :    0.004122
   9 C :   -0.054300
  10 H :    0.023277
  11 H :    0.033997
  12 C :   -0.028521
  13 H :    0.034871
  14 H :    0.021684
  15 H :    0.029366
  16 S :    0.115435
  17 C :   -0.066319
  18 C :   -0.052321
  19 C :   -0.015047
  20 C :   -0.212492
  21 H :    0.015351
  22 C :    0.101228
  23 H :    0.035716
  24 H :    0.022114
  25 C :   -0.137312
  26 H :    0.038791
  27 H :    0.064111
  28 C :   -0.030894
  29 H :    0.026468
  30 H :    0.023477
  31 H :    0.038181
  32 H :    0.064551
  33 H :    0.037430
Sum of atomic charges:    0.0000000

LOEWDIN ATOMIC CHARGES
----------------------
   0 S :    0.397289
   1 C :   -0.197454
   2 C :   -0.064349
   3 C :   -0.050187
   4 C :   -0.204568
   5 H :    0.032057
   6 C :   -0.036595
   7 H :    0.037190
   8 H :    0.023378
   9 C :   -0.040934
  10 H :    0.024184
  11 H :    0.032253
  12 C :   -0.068210
  13 H :    0.032332
  14 H :    0.021911
  15 H :    0.026681
  16 S :    0.417682
  17 C :   -0.185537
  18 C :   -0.076682
  19 C :   -0.050374
  20 C :   -0.206434
  21 H :    0.030002
  22 C :   -0.029099
  23 H :    0.032681
  24 H :    0.037083
  25 C :   -0.051863
  26 H :    0.031270
  27 H :    0.029423
  28 C :   -0.068469
  29 H :    0.025478
  30 H :    0.020019
  31 H :    0.029549
  32 H :    0.031964
  33 H :    0.018325

  Mayer bond orders larger than 0.100000
B(  0-S ,  1-C ) :   1.1525 B(  0-S ,  4-C ) :   1.1291 B(  1-C ,  2-C ) :   1.5967
B(  1-C , 32-H ) :   0.9616 B(  2-C ,  3-C ) :   1.2116 B(  2-C ,  6-C ) :   1.0430
B(  3-C ,  4-C ) :   1.6060 B(  3-C ,  5-H ) :   0.9910 B(  4-C , 20-C ) :   1.0451
B(  6-C ,  7-H ) :   0.9244 B(  6-C ,  8-H ) :   0.9314 B(  6-C ,  9-C ) :   1.0703
B(  9-C , 10-H ) :   0.9547 B(  9-C , 11-H ) :   0.9532 B(  9-C , 12-C ) :   1.0912
B( 12-C , 13-H ) :   0.9712 B( 12-C , 14-H ) :   0.9706 B( 12-C , 15-H ) :   0.9741
B( 16-S , 17-C ) :   1.1616 B( 16-S , 20-C ) :   1.1689 B( 17-C , 18-C ) :   1.5962
B( 17-C , 20-C ) :   0.1068 B( 17-C , 33-H ) :   0.9711 B( 18-C , 19-C ) :   1.2736
B( 18-C , 21-H ) :   0.9863 B( 19-C , 20-C ) :   1.5568 B( 19-C , 22-C ) :   1.0197
B( 22-C , 23-H ) :   0.9233 B( 22-C , 24-H ) :   0.9382 B( 22-C , 25-C ) :   1.0679
B( 25-C , 26-H ) :   0.9540 B( 25-C , 27-H ) :   0.9513 B( 25-C , 28-C ) :   1.0788
B( 28-C , 29-H ) :   0.9720 B( 28-C , 30-H ) :   0.9747 B( 28-C , 31-H ) :   0.9756

Dispersion correction           -0.014625518
FINAL SINGLE POINT ENERGY     -1339.868196679164

DIPOLE MOMENT
-------------
                                X             Y             Z
Electronic contribution:     27.61992      10.67093      -8.36740
Nuclear contribution   :    -28.15790     -11.01612       8.66656
                        -----------------------------------------
Total Dipole Moment    :     -0.53798      -0.34519       0.29916
                        -----------------------------------------
Magnitude (a.u.)       :      0.70575
Magnitude (Debye)      :      1.79387

Rotational constants in cm-1:     0.018525     0.008955     0.007032
Rotational constants in MHz :   555.354765   268.473133   210.813645

                             ****ORCA TERMINATED NORMALLY****
TOTAL RUN TIME: 0 days 0 hours 0 minutes 33 seconds 207 msec
