                         Program Version 4.2.1 -  RELEASE  -
|  1> ! wB97X-D3 SP def2-SVP
|  2> %pal
|  3> nprocs 16
|  4> end
|  5>
|  6> * xyz 0 1
|  7> S 	 -31.7437 	 57.1891 	 108.619
|  8> C 	 -30.5998 	 55.8959 	 108.103
|  9> C 	 -30.023 	 55.3007 	 109.218
| 10> C 	 -30.7018 	 55.6736 	 110.422
| 11> C 	 -31.5552 	 56.7636 	 110.33
| 12> H 	 -30.5264 	 55.1785 	 111.42
| 13> C 	 -28.875 	 54.4077 	 109.117
| 14> H 	 -28.3212 	 54.8405 	 108.301
| 15> H 	 -29.22 	 53.4129 	 108.784
| 16> C 	 -28.0738 	 54.1151 	 110.4
| 17> H 	 -27.4332 	 54.9972 	 110.733
| 18> H 	 -28.7291 	 53.8361 	 111.196
| 19> C 	 -27.0759 	 52.9726 	 110.206
| 20> H 	 -27.4833 	 52.0148 	 109.759
| 21> H 	 -26.1361 	 53.1214 	 109.649
| 22> H 	 -26.8787 	 52.5058 	 111.205
| 23> S 	 -32.3144 	 59.2865 	 111.076
| 24> C 	 -32.9544 	 59.5581 	 112.637
| 25> C 	 -33.1992 	 58.3744 	 113.321
| 26> C 	 -32.8958 	 57.1979 	 112.533
| 27> C 	 -32.3302 	 57.5203 	 111.324
| 28> H 	 -33.6604 	 58.4156 	 114.303
| 29> C 	 -33.1563 	 55.7873 	 113.035
| 30> H 	 -32.3622 	 55.5433 	 113.771
| 31> H 	 -33.0577 	 54.9927 	 112.308
| 32> C 	 -34.534 	 55.5048 	 113.744
| 33> H 	 -35.1371 	 55.8768 	 112.92
| 34> H 	 -34.7835 	 56.1408 	 114.597
| 35> C 	 -34.7399 	 54.0304 	 114.055
| 36> H 	 -34.4594 	 53.5462 	 113.111
| 37> H 	 -35.736 	 53.7225 	 114.288
| 38> H 	 -34.1541 	 53.7114 	 114.877
| 39> H 	 -30.1634 	 55.7371 	 107.137
| 40> H 	 -33.1503 	 60.4905 	 113.005
| 41> *
| 42>
| 43>                          ****END OF INPUT****

CARTESIAN COORDINATES (ANGSTROEM)
---------------------------------
  S    -31.743700   57.189100  108.619000
  C    -30.599800   55.895900  108.103000
  C    -30.023000   55.300700  109.218000
  C    -30.701800   55.673600  110.422000
  C    -31.555200   56.763600  110.330000
  H    -30.526400   55.178500  111.420000
  C    -28.875000   54.407700  109.117000
  H    -28.321200   54.840500  108.301000
  H    -29.220000   53.412900  108.784000
  C    -28.073800   54.115100  110.400000
  H    -27.433200   54.997200  110.733000
  H    -28.729100   53.836100  111.196000
  C    -27.075900   52.972600  110.206000
  H    -27.483300   52.014800  109.759000
  H    -26.136100   53.121400  109.649000
  H    -26.878700   52.505800  111.205000
  S    -32.314400   59.286500  111.076000
  C    -32.954400   59.558100  112.637000
  C    -33.199200   58.374400  113.321000
  C    -32.895800   57.197900  112.533000
  C    -32.330200   57.520300  111.324000
  H    -33.660400   58.415600  114.303000
  C    -33.156300   55.787300  113.035000
  H    -32.362200   55.543300  113.771000
  H    -33.057700   54.992700  112.308000
  C    -34.534000   55.504800  113.744000
  H    -35.137100   55.876800  112.920000
  H    -34.783500   56.140800  114.597000
  C    -34.739900   54.030400  114.055000
  H    -34.459400   53.546200  113.111000
  H    -35.736000   53.722500  114.288000
  H    -34.154100   53.711400  114.877000
  H    -30.163400   55.737100  107.137000
  H    -33.150300   60.490500  113.005000

 Total Charge           Charge          ....    0
 Multiplicity           Mult            ....    1
 Number of Electrons    NEL             ....  134
 Basis Dimension        Dim             ....  322

ORBITAL ENERGIES
----------------

  NO   OCC          E(Eh)            E(eV)
   0   2.0000     -88.964922     -2420.8586
   1   2.0000     -88.963714     -2420.8257
   2   2.0000     -10.335148      -281.2337
   3   2.0000     -10.330338      -281.1028
   4   2.0000     -10.312936      -280.6293
   5   2.0000     -10.312274      -280.6112
   6   2.0000     -10.310013      -280.5497
   7   2.0000     -10.299106      -280.2529
   8   2.0000     -10.298814      -280.2450
   9   2.0000     -10.298014      -280.2232
  10   2.0000     -10.296733      -280.1884
  11   2.0000     -10.296434      -280.1802
  12   2.0000     -10.290322      -280.0139
  13   2.0000     -10.287566      -279.9389
  14   2.0000     -10.286927      -279.9215
  15   2.0000     -10.276212      -279.6299
  16   2.0000      -8.080213      -219.8738
  17   2.0000      -8.077174      -219.7911
  18   2.0000      -6.038641      -164.3198
  19   2.0000      -6.035978      -164.2473
  20   2.0000      -6.034671      -164.2117
  21   2.0000      -6.031865      -164.1354
  22   2.0000      -6.030974      -164.1111
  23   2.0000      -6.027691      -164.0218
  24   2.0000      -1.004499       -27.3338
  25   2.0000      -0.981147       -26.6984
  26   2.0000      -0.916266       -24.9329
  27   2.0000      -0.909904       -24.7597
  28   2.0000      -0.870468       -23.6866
  29   2.0000      -0.856022       -23.2936
  30   2.0000      -0.838919       -22.8282
  31   2.0000      -0.816955       -22.2305
  32   2.0000      -0.784615       -21.3505
  33   2.0000      -0.771977       -21.0066
  34   2.0000      -0.715469       -19.4689
  35   2.0000      -0.703807       -19.1516
  36   2.0000      -0.691905       -18.8277
  37   2.0000      -0.659302       -17.9405
  38   2.0000      -0.639945       -17.4138
  39   2.0000      -0.615865       -16.7585
  40   2.0000      -0.605603       -16.4793
  41   2.0000      -0.573156       -15.5964
  42   2.0000      -0.569460       -15.4958
  43   2.0000      -0.565761       -15.3952
  44   2.0000      -0.530280       -14.4297
  45   2.0000      -0.525971       -14.3124
  46   2.0000      -0.516531       -14.0555
  47   2.0000      -0.510300       -13.8860
  48   2.0000      -0.509914       -13.8755
  49   2.0000      -0.499109       -13.5814
  50   2.0000      -0.485754       -13.2180
  51   2.0000      -0.477091       -12.9823
  52   2.0000      -0.476102       -12.9554
  53   2.0000      -0.465715       -12.6727
  54   2.0000      -0.459773       -12.5111
  55   2.0000      -0.455483       -12.3943
  56   2.0000      -0.448290       -12.1986
  57   2.0000      -0.433149       -11.7866
  58   2.0000      -0.429063       -11.6754
  59   2.0000      -0.427788       -11.6407
  60   2.0000      -0.422488       -11.4965
  61   2.0000      -0.411650       -11.2016
  62   2.0000      -0.411206       -11.1895
  63   2.0000      -0.350178        -9.5288
  64   2.0000      -0.331017        -9.0074
  65   2.0000      -0.325965        -8.8700
  66   2.0000      -0.286508        -7.7963
  67   0.0000       0.024266         0.6603
  68   0.0000       0.069938         1.9031
  69   0.0000       0.109094         2.9686
  70   0.0000       0.117446         3.1959
  71   0.0000       0.131577         3.5804

MULLIKEN ATOMIC CHARGES
-----------------------
   0 S :    0.084783
   1 C :   -0.106047
   2 C :   -0.108932
   3 C :   -0.001538
   4 C :   -0.121991
   5 H :    0.027740
   6 C :    0.073076
   7 H :    0.027875
   8 H :    0.038191
   9 C :   -0.069275
  10 H :    0.053288
  11 H :    0.032218
  12 C :   -0.092437
  13 H :    0.020405
  14 H :    0.050151
  15 H :    0.029089
  16 S :    0.100921
  17 C :   -0.044886
  18 C :   -0.044091
  19 C :   -0.030807
  20 C :   -0.130059
  21 H :    0.023796
  22 C :    0.035246
  23 H :    0.033736
  24 H :    0.019841
  25 C :   -0.106323
  26 H :    0.034953
  27 H :    0.033155
  28 C :   -0.008940
  29 H :    0.026862
  30 H :    0.029960
  31 H :    0.027641
  32 H :    0.038448
  33 H :    0.023950
Sum of atomic charges:    0.0000000

LOEWDIN ATOMIC CHARGES
----------------------
   0 S :    0.371649
   1 C :   -0.188036
   2 C :   -0.061323
   3 C :   -0.077572
   4 C :   -0.178423
   5 H :    0.036541
   6 C :   -0.038941
   7 H :    0.034738
   8 H :    0.039862
   9 C :   -0.040078
  10 H :    0.038771
  11 H :    0.022957
  12 C :   -0.083496
  13 H :    0.026312
  14 H :    0.027938
  15 H :    0.031974
  16 S :    0.409388
  17 C :   -0.173696
  18 C :   -0.069375
  19 C :   -0.053587
  20 C :   -0.189073
  21 H :    0.032593
  22 C :   -0.033785
  23 H :    0.030790
  24 H :    0.026390
  25 C :   -0.043149
  26 H :    0.026876
  27 H :    0.019158
  28 C :   -0.057675
  29 H :    0.029827
  30 H :    0.025357
  31 H :    0.021843
  32 H :    0.024438
  33 H :    0.010809

  Mayer bond orders larger than 0.100000
B(  0-S ,  1-C ) :   1.1128 B(  0-S ,  4-C ) :   1.1405 B(  1-C ,  2-C ) :   1.6301
B(  1-C ,  4-C ) :   0.1071 B(  1-C , 32-H ) :   0.9692 B(  2-C ,  3-C ) :   1.2318
B(  2-C ,  6-C ) :   1.0267 B(  3-C ,  4-C ) :   1.5967 B(  3-C ,  5-H ) :   0.9746
B(  4-C , 20-C ) :   1.0224 B(  6-C ,  7-H ) :   0.9367 B(  6-C ,  8-H ) :   0.9259
B(  6-C ,  9-C ) :   1.0807 B(  9-C , 10-H ) :   0.9520 B(  9-C , 11-H ) :   0.9465
B(  9-C , 12-C ) :   1.0867 B( 12-C , 13-H ) :   0.9689 B( 12-C , 14-H ) :   0.9781
B( 12-C , 15-H ) :   0.9729 B( 16-S , 17-C ) :   1.1675 B( 16-S , 20-C ) :   1.1246
B( 17-C , 18-C ) :   1.6051 B( 17-C , 33-H ) :   0.9796 B( 18-C , 19-C ) :   1.2180
B( 18-C , 21-H ) :   0.9923 B( 19-C , 20-C ) :   1.6233 B( 19-C , 22-C ) :   1.0446
B( 22-C , 23-H ) :   0.9267 B( 22-C , 24-H ) :   0.9442 B( 22-C , 25-C ) :   1.0379
B( 25-C , 26-H ) :   0.9627 B( 25-C , 27-H ) :   0.9544 B( 25-C , 28-C ) :   1.0825
B( 28-C , 29-H ) :   0.9728 B( 28-C , 30-H ) :   0.9731 B( 28-C , 31-H ) :   0.9754

Dispersion correction           -0.013155062
FINAL SINGLE POINT ENERGY     -1339.865017708964

DIPOLE MOMENT
-------------
                                X             Y             Z
Electronic contribution:     -6.74519      25.84955     -12.54962
Nuclear contribution   :      6.96109     -26.38356      13.07754
                        -----------------------------------------
Total Dipole Moment    :      0.21590      -0.53401       0.52792
                        -----------------------------------------
Magnitude (a.u.)       :      0.78133
Magnitude (Debye)      :      1.98599

Rotational constants in cm-1:     0.016165     0.008224     0.006332
Rotational constants in MHz :   484.617597   246.552432   189.824260

                             ****ORCA TERMINATED NORMALLY****
TOTAL RUN TIME: 0 days 0 hours 0 minutes 29 seconds 196 msec
