                         Program Version 4.2.1 -  RELEASE  -
|  1> ! wB97X-D3 SP def2-SVP
|  2> %pal
|  3> nprocs 16
|  4> end
|  5>
|  6> * xyz 0 1
|  7> S 	 -12.9479 	 48.44 	 35.2323
|  8> C 	 -11.7093 	 47.4324 	 35.9195
|  9> C 	 -10.4416 	 47.8377 	 35.5112
| 10> C 	 -10.4926 	 49.0625 	 34.762
| 11> C 	 -11.7699 	 49.4976 	 34.5388
| 12> H 	 -9.55928 	 49.5248 	 34.2664
| 13> C 	 -9.10372 	 47.2028 	 35.7302
| 14> H 	 -8.81488 	 46.9098 	 34.7323
| 15> H 	 -9.19924 	 46.3991 	 36.4014
| 16> C 	 -8.02702 	 48.0788 	 36.3987
| 17> H 	 -7.84724 	 49.005 	 35.8339
| 18> H 	 -8.42842 	 48.3182 	 37.4386
| 19> C 	 -6.6855 	 47.3818 	 36.2775
| 20> H 	 -5.87422 	 48.1337 	 36.554
| 21> H 	 -6.6038 	 46.616 	 37.0326
| 22> H 	 -6.3899 	 47.1073 	 35.2194
| 23> S 	 -12.3386 	 50.5988 	 32.181
| 24> C 	 -12.4211 	 52.3652 	 31.9467
| 25> C 	 -12.427 	 52.9972 	 33.1237
| 26> C 	 -12.2827 	 52.1019 	 34.22
| 27> C 	 -12.1326 	 50.7611 	 33.8944
| 28> H 	 -12.4992 	 54.0537 	 33.0296
| 29> C 	 -12.0922 	 52.5796 	 35.6309
| 30> H 	 -11.878 	 53.709 	 35.5959
| 31> H 	 -11.2792 	 52.1392 	 36.0659
| 32> C 	 -13.3561 	 52.3528 	 36.5119
| 33> H 	 -13.2065 	 52.4793 	 37.5853
| 34> H 	 -13.5932 	 51.2794 	 36.3706
| 35> C 	 -14.4061 	 53.4209 	 36.0939
| 36> H 	 -14.1444 	 54.3841 	 36.5188
| 37> H 	 -15.4045 	 53.1939 	 36.4301
| 38> H 	 -14.5745 	 53.537 	 35.0219
| 39> H 	 -11.938 	 46.5602 	 36.4467
| 40> H 	 -12.4828 	 52.8731 	 31.1049
| 41> *
| 42>
| 43>                          ****END OF INPUT****

CARTESIAN COORDINATES (ANGSTROEM)
---------------------------------
  S    -12.947900   48.440000   35.232300
  C    -11.709300   47.432400   35.919500
  C    -10.441600   47.837700   35.511200
  C    -10.492600   49.062500   34.762000
  C    -11.769900   49.497600   34.538800
  H     -9.559280   49.524800   34.266400
  C     -9.103720   47.202800   35.730200
  H     -8.814880   46.909800   34.732300
  H     -9.199240   46.399100   36.401400
  C     -8.027020   48.078800   36.398700
  H     -7.847240   49.005000   35.833900
  H     -8.428420   48.318200   37.438600
  C     -6.685500   47.381800   36.277500
  H     -5.874220   48.133700   36.554000
  H     -6.603800   46.616000   37.032600
  H     -6.389900   47.107300   35.219400
  S    -12.338600   50.598800   32.181000
  C    -12.421100   52.365200   31.946700
  C    -12.427000   52.997200   33.123700
  C    -12.282700   52.101900   34.220000
  C    -12.132600   50.761100   33.894400
  H    -12.499200   54.053700   33.029600
  C    -12.092200   52.579600   35.630900
  H    -11.878000   53.709000   35.595900
  H    -11.279200   52.139200   36.065900
  C    -13.356100   52.352800   36.511900
  H    -13.206500   52.479300   37.585300
  H    -13.593200   51.279400   36.370600
  C    -14.406100   53.420900   36.093900
  H    -14.144400   54.384100   36.518800
  H    -15.404500   53.193900   36.430100
  H    -14.574500   53.537000   35.021900
  H    -11.938000   46.560200   36.446700
  H    -12.482800   52.873100   31.104900

 Total Charge           Charge          ....    0
 Multiplicity           Mult            ....    1
 Number of Electrons    NEL             ....  134
 Basis Dimension        Dim             ....  322

ORBITAL ENERGIES
----------------

  NO   OCC          E(Eh)            E(eV)
   0   2.0000     -88.968688     -2420.9611
   1   2.0000     -88.957388     -2420.6536
   2   2.0000     -10.329187      -281.0715
   3   2.0000     -10.323125      -280.9065
   4   2.0000     -10.312820      -280.6261
   5   2.0000     -10.302343      -280.3410
   6   2.0000     -10.301657      -280.3223
   7   2.0000     -10.301217      -280.3104
   8   2.0000     -10.299422      -280.2615
   9   2.0000     -10.294180      -280.1189
  10   2.0000     -10.288393      -279.9614
  11   2.0000     -10.286932      -279.9217
  12   2.0000     -10.286152      -279.9004
  13   2.0000     -10.283343      -279.8240
  14   2.0000     -10.280868      -279.7567
  15   2.0000     -10.270077      -279.4630
  16   2.0000      -8.083665      -219.9677
  17   2.0000      -8.072340      -219.6595
  18   2.0000      -6.042083      -164.4134
  19   2.0000      -6.038096      -164.3049
  20   2.0000      -6.034542      -164.2082
  21   2.0000      -6.030918      -164.1096
  22   2.0000      -6.026720      -163.9954
  23   2.0000      -6.023099      -163.8969
  24   2.0000      -1.010572       -27.4991
  25   2.0000      -0.988200       -26.8903
  26   2.0000      -0.918744       -25.0003
  27   2.0000      -0.901448       -24.5296
  28   2.0000      -0.877851       -23.8875
  29   2.0000      -0.852410       -23.1953
  30   2.0000      -0.836517       -22.7628
  31   2.0000      -0.822077       -22.3699
  32   2.0000      -0.780804       -21.2468
  33   2.0000      -0.767658       -20.8890
  34   2.0000      -0.712203       -19.3800
  35   2.0000      -0.694571       -18.9002
  36   2.0000      -0.690911       -18.8007
  37   2.0000      -0.665488       -18.1088
  38   2.0000      -0.643484       -17.5101
  39   2.0000      -0.626906       -17.0590
  40   2.0000      -0.591211       -16.0877
  41   2.0000      -0.577628       -15.7181
  42   2.0000      -0.573965       -15.6184
  43   2.0000      -0.551069       -14.9954
  44   2.0000      -0.542605       -14.7650
  45   2.0000      -0.520119       -14.1532
  46   2.0000      -0.519174       -14.1274
  47   2.0000      -0.515267       -14.0211
  48   2.0000      -0.506279       -13.7766
  49   2.0000      -0.502844       -13.6831
  50   2.0000      -0.479376       -13.0445
  51   2.0000      -0.475989       -12.9523
  52   2.0000      -0.473409       -12.8821
  53   2.0000      -0.465042       -12.6544
  54   2.0000      -0.457130       -12.4391
  55   2.0000      -0.453795       -12.3484
  56   2.0000      -0.438951       -11.9445
  57   2.0000      -0.434352       -11.8193
  58   2.0000      -0.427361       -11.6291
  59   2.0000      -0.419890       -11.4258
  60   2.0000      -0.416852       -11.3431
  61   2.0000      -0.416191       -11.3251
  62   2.0000      -0.407932       -11.1004
  63   2.0000      -0.338731        -9.2174
  64   2.0000      -0.331842        -9.0299
  65   2.0000      -0.317293        -8.6340
  66   2.0000      -0.311809        -8.4848
  67   0.0000       0.048335         1.3153
  68   0.0000       0.054450         1.4817
  69   0.0000       0.114640         3.1195
  70   0.0000       0.125644         3.4189
  71   0.0000       0.127807         3.4778

MULLIKEN ATOMIC CHARGES
-----------------------
   0 S :    0.129456
   1 C :   -0.112130
   2 C :   -0.083959
   3 C :    0.016244
   4 C :   -0.158724
   5 H :    0.052614
   6 C :    0.104619
   7 H :    0.032980
   8 H :    0.002478
   9 C :   -0.114702
  10 H :    0.029939
  11 H :    0.050565
  12 C :   -0.064824
  13 H :    0.035088
  14 H :    0.034934
  15 H :    0.048375
  16 S :    0.088733
  17 C :   -0.022200
  18 C :   -0.031796
  19 C :   -0.011122
  20 C :   -0.172347
  21 H :    0.009626
  22 C :    0.076352
  23 H :    0.018722
  24 H :    0.005748
  25 C :   -0.059959
  26 H :    0.030688
  27 H :    0.028400
  28 C :   -0.051123
  29 H :    0.026223
  30 H :    0.021305
  31 H :    0.029571
  32 H :    0.025532
  33 H :   -0.015304
Sum of atomic charges:   -0.0000000

LOEWDIN ATOMIC CHARGES
----------------------
   0 S :    0.427734
   1 C :   -0.194767
   2 C :   -0.061063
   3 C :   -0.063233
   4 C :   -0.214993
   5 H :    0.049346
   6 C :   -0.028825
   7 H :    0.033708
   8 H :    0.022324
   9 C :   -0.045354
  10 H :    0.021211
  11 H :    0.036257
  12 C :   -0.072523
  13 H :    0.032377
  14 H :    0.021199
  15 H :    0.035669
  16 S :    0.395703
  17 C :   -0.146912
  18 C :   -0.068324
  19 C :   -0.054079
  20 C :   -0.201716
  21 H :    0.033402
  22 C :   -0.026202
  23 H :    0.031898
  24 H :    0.014789
  25 C :   -0.036228
  26 H :    0.023092
  27 H :    0.018834
  28 C :   -0.067425
  29 H :    0.023937
  30 H :    0.021451
  31 H :    0.024143
  32 H :    0.015444
  33 H :   -0.000874

  Mayer bond orders larger than 0.100000
B(  0-S ,  1-C ) :   1.1415 B(  0-S ,  4-C ) :   1.1658 B(  1-C ,  2-C ) :   1.6002
B(  1-C , 32-H ) :   0.9788 B(  2-C ,  3-C ) :   1.2354 B(  2-C ,  6-C ) :   1.0271
B(  3-C ,  4-C ) :   1.5993 B(  3-C ,  5-H ) :   0.9764 B(  4-C , 20-C ) :   0.9777
B(  6-C ,  7-H ) :   0.9331 B(  6-C ,  8-H ) :   0.9395 B(  6-C ,  9-C ) :   1.0657
B(  9-C , 10-H ) :   0.9545 B(  9-C , 11-H ) :   0.9550 B(  9-C , 12-C ) :   1.0796
B( 12-C , 13-H ) :   0.9739 B( 12-C , 14-H ) :   0.9747 B( 12-C , 15-H ) :   0.9707
B( 16-S , 17-C ) :   1.1412 B( 16-S , 20-C ) :   1.1472 B( 17-C , 18-C ) :   1.6519
B( 17-C , 33-H ) :   0.9777 B( 18-C , 19-C ) :   1.2033 B( 18-C , 21-H ) :   1.0010
B( 19-C , 20-C ) :   1.6257 B( 19-C , 22-C ) :   1.0389 B( 22-C , 23-H ) :   0.9420
B( 22-C , 24-H ) :   0.9363 B( 22-C , 25-C ) :   1.0624 B( 25-C , 26-H ) :   0.9593
B( 25-C , 27-H ) :   0.9585 B( 25-C , 28-C ) :   1.0605 B( 28-C , 29-H ) :   0.9752
B( 28-C , 30-H ) :   0.9733 B( 28-C , 31-H ) :   0.9792

Dispersion correction           -0.014493189
FINAL SINGLE POINT ENERGY     -1339.856720221256

DIPOLE MOMENT
-------------
                                X             Y             Z
Electronic contribution:    -13.05528      -4.95072     -15.08830
Nuclear contribution   :     13.60605       5.03540      15.33568
                        -----------------------------------------
Total Dipole Moment    :      0.55077       0.08468       0.24737
                        -----------------------------------------
Magnitude (a.u.)       :      0.60968
Magnitude (Debye)      :      1.54968

Rotational constants in cm-1:     0.020315     0.007681     0.007293
Rotational constants in MHz :   609.039886   230.279662   218.641293

                             ****ORCA TERMINATED NORMALLY****
TOTAL RUN TIME: 0 days 0 hours 0 minutes 35 seconds 912 msec
