                         Program Version 4.2.1 -  RELEASE  -
|  1> ! wB97X-D3 SP def2-SVP
|  2> %pal
|  3> nprocs 16
|  4> end
|  5>
|  6> * xyz 0 1
|  7> S 	 -11.7527 	 -6.16947 	 80.3651
|  8> C 	 -12.1494 	 -7.82882 	 80.2269
|  9> C 	 -12.4274 	 -8.43323 	 81.4383
| 10> C 	 -12.1487 	 -7.50681 	 82.5019
| 11> C 	 -11.6452 	 -6.28036 	 82.0914
| 12> H 	 -12.3002 	 -7.65642 	 83.6393
| 13> C 	 -12.8246 	 -9.90872 	 81.6468
| 14> H 	 -12.4773 	 -10.1182 	 82.6695
| 15> H 	 -12.1446 	 -10.4955 	 80.9935
| 16> C 	 -14.2594 	 -10.1385 	 81.3505
| 17> H 	 -14.8198 	 -9.20483 	 81.2841
| 18> H 	 -14.4576 	 -10.6503 	 80.3826
| 19> C 	 -14.8489 	 -10.9408 	 82.5503
| 20> H 	 -15.9667 	 -10.9509 	 82.4495
| 21> H 	 -14.6003 	 -11.9203 	 82.5474
| 22> H 	 -14.6866 	 -10.5209 	 83.538
| 23> S 	 -12.7785 	 -4.0098 	 83.2293
| 24> C 	 -11.8479 	 -3.18929 	 84.4469
| 25> C 	 -10.6766 	 -3.85386 	 84.7336
| 26> C 	 -10.4658 	 -4.99931 	 83.9626
| 27> C 	 -11.4432 	 -5.16912 	 82.9878
| 28> H 	 -10.0975 	 -3.46023 	 85.501
| 29> C 	 -9.1813 	 -5.77071 	 84.1779
| 30> H 	 -9.50829 	 -6.77643 	 84.1925
| 31> H 	 -8.64493 	 -5.5234 	 85.0903
| 32> C 	 -8.16144 	 -5.62685 	 83.0811
| 33> H 	 -8.59566 	 -5.96794 	 82.1438
| 34> H 	 -7.34833 	 -6.26541 	 83.2139
| 35> C 	 -7.68169 	 -4.22401 	 82.6414
| 36> H 	 -6.78137 	 -4.13789 	 82.0652
| 37> H 	 -7.63041 	 -3.59244 	 83.4717
| 38> H 	 -8.54022 	 -3.90394 	 82.0632
| 39> H 	 -11.9392 	 -8.55865 	 79.4829
| 40> H 	 -12.135 	 -2.2551 	 84.9202
| 41> *
| 42>
| 43>                          ****END OF INPUT****

CARTESIAN COORDINATES (ANGSTROEM)
---------------------------------
  S    -11.752700   -6.169470   80.365100
  C    -12.149400   -7.828820   80.226900
  C    -12.427400   -8.433230   81.438300
  C    -12.148700   -7.506810   82.501900
  C    -11.645200   -6.280360   82.091400
  H    -12.300200   -7.656420   83.639300
  C    -12.824600   -9.908720   81.646800
  H    -12.477300  -10.118200   82.669500
  H    -12.144600  -10.495500   80.993500
  C    -14.259400  -10.138500   81.350500
  H    -14.819800   -9.204830   81.284100
  H    -14.457600  -10.650300   80.382600
  C    -14.848900  -10.940800   82.550300
  H    -15.966700  -10.950900   82.449500
  H    -14.600300  -11.920300   82.547400
  H    -14.686600  -10.520900   83.538000
  S    -12.778500   -4.009800   83.229300
  C    -11.847900   -3.189290   84.446900
  C    -10.676600   -3.853860   84.733600
  C    -10.465800   -4.999310   83.962600
  C    -11.443200   -5.169120   82.987800
  H    -10.097500   -3.460230   85.501000
  C     -9.181300   -5.770710   84.177900
  H     -9.508290   -6.776430   84.192500
  H     -8.644930   -5.523400   85.090300
  C     -8.161440   -5.626850   83.081100
  H     -8.595660   -5.967940   82.143800
  H     -7.348330   -6.265410   83.213900
  C     -7.681690   -4.224010   82.641400
  H     -6.781370   -4.137890   82.065200
  H     -7.630410   -3.592440   83.471700
  H     -8.540220   -3.903940   82.063200
  H    -11.939200   -8.558650   79.482900
  H    -12.135000   -2.255100   84.920200

 Total Charge           Charge          ....    0
 Multiplicity           Mult            ....    1
 Number of Electrons    NEL             ....  134
 Basis Dimension        Dim             ....  322

ORBITAL ENERGIES
----------------

  NO   OCC          E(Eh)            E(eV)
   0   2.0000     -88.968672     -2420.9606
   1   2.0000     -88.965411     -2420.8719
   2   2.0000     -10.325177      -280.9623
   3   2.0000     -10.324237      -280.9368
   4   2.0000     -10.314175      -280.6630
   5   2.0000     -10.306054      -280.4420
   6   2.0000     -10.300679      -280.2957
   7   2.0000     -10.300552      -280.2923
   8   2.0000     -10.300441      -280.2892
   9   2.0000     -10.295318      -280.1499
  10   2.0000     -10.288725      -279.9704
  11   2.0000     -10.285715      -279.8885
  12   2.0000     -10.282624      -279.8044
  13   2.0000     -10.273145      -279.5465
  14   2.0000     -10.270593      -279.4770
  15   2.0000     -10.262118      -279.2464
  16   2.0000      -8.083893      -219.9739
  17   2.0000      -8.079851      -219.8639
  18   2.0000      -6.042355      -164.4208
  19   2.0000      -6.038328      -164.3113
  20   2.0000      -6.038265      -164.3095
  21   2.0000      -6.034668      -164.2117
  22   2.0000      -6.034437      -164.2054
  23   2.0000      -6.030694      -164.1035
  24   2.0000      -1.009678       -27.4747
  25   2.0000      -0.987408       -26.8687
  26   2.0000      -0.917395       -24.9636
  27   2.0000      -0.911776       -24.8107
  28   2.0000      -0.871869       -23.7248
  29   2.0000      -0.849436       -23.1143
  30   2.0000      -0.846700       -23.0399
  31   2.0000      -0.811113       -22.0715
  32   2.0000      -0.788065       -21.4443
  33   2.0000      -0.776089       -21.1185
  34   2.0000      -0.710246       -19.3268
  35   2.0000      -0.707080       -19.2406
  36   2.0000      -0.688058       -18.7230
  37   2.0000      -0.662598       -18.0302
  38   2.0000      -0.636761       -17.3271
  39   2.0000      -0.612653       -16.6711
  40   2.0000      -0.594107       -16.1665
  41   2.0000      -0.572611       -15.5815
  42   2.0000      -0.561548       -15.2805
  43   2.0000      -0.557841       -15.1796
  44   2.0000      -0.550316       -14.9749
  45   2.0000      -0.527808       -14.3624
  46   2.0000      -0.526208       -14.3188
  47   2.0000      -0.514440       -13.9986
  48   2.0000      -0.502200       -13.6656
  49   2.0000      -0.490390       -13.3442
  50   2.0000      -0.486982       -13.2514
  51   2.0000      -0.480495       -13.0749
  52   2.0000      -0.470946       -12.8151
  53   2.0000      -0.467930       -12.7330
  54   2.0000      -0.453768       -12.3477
  55   2.0000      -0.451552       -12.2874
  56   2.0000      -0.450234       -12.2515
  57   2.0000      -0.441336       -12.0094
  58   2.0000      -0.437750       -11.9118
  59   2.0000      -0.420710       -11.4481
  60   2.0000      -0.410601       -11.1730
  61   2.0000      -0.409002       -11.1295
  62   2.0000      -0.404321       -11.0021
  63   2.0000      -0.339129        -9.2282
  64   2.0000      -0.330741        -8.9999
  65   2.0000      -0.326586        -8.8869
  66   2.0000      -0.300261        -8.1705
  67   0.0000       0.037551         1.0218
  68   0.0000       0.050077         1.3627
  69   0.0000       0.115776         3.1504
  70   0.0000       0.125362         3.4113
  71   0.0000       0.128971         3.5095

MULLIKEN ATOMIC CHARGES
-----------------------
   0 S :    0.131312
   1 C :   -0.074563
   2 C :   -0.161030
   3 C :    0.008216
   4 C :   -0.197391
   5 H :    0.045670
   6 C :    0.076424
   7 H :    0.029012
   8 H :    0.033477
   9 C :   -0.047212
  10 H :    0.046384
  11 H :    0.038934
  12 C :   -0.059451
  13 H :    0.024404
  14 H :    0.015823
  15 H :    0.035369
  16 S :    0.113633
  17 C :   -0.094383
  18 C :   -0.021031
  19 C :   -0.038002
  20 C :   -0.169934
  21 H :   -0.009345
  22 C :    0.152810
  23 H :    0.013609
  24 H :    0.020931
  25 C :   -0.081389
  26 H :    0.016084
  27 H :    0.009887
  28 C :   -0.023403
  29 H :    0.037323
  30 H :    0.004040
  31 H :    0.032659
  32 H :    0.035838
  33 H :    0.055293
Sum of atomic charges:    0.0000000

LOEWDIN ATOMIC CHARGES
----------------------
   0 S :    0.432329
   1 C :   -0.216557
   2 C :   -0.061150
   3 C :   -0.068889
   4 C :   -0.217935
   5 H :    0.044251
   6 C :   -0.031285
   7 H :    0.032074
   8 H :    0.035789
   9 C :   -0.041533
  10 H :    0.029400
  11 H :    0.032349
  12 C :   -0.057867
  13 H :    0.028834
  14 H :    0.008058
  15 H :    0.025071
  16 S :    0.400391
  17 C :   -0.182177
  18 C :   -0.069939
  19 C :   -0.047575
  20 C :   -0.199504
  21 H :    0.021451
  22 C :   -0.020079
  23 H :    0.031759
  24 H :    0.030990
  25 C :   -0.037746
  26 H :    0.022678
  27 H :    0.011880
  28 C :   -0.059262
  29 H :    0.026397
  30 H :    0.010380
  31 H :    0.029863
  32 H :    0.027967
  33 H :    0.029585

  Mayer bond orders larger than 0.100000
B(  0-S ,  1-C ) :   1.1534 B(  0-S ,  4-C ) :   1.1477 B(  1-C ,  2-C ) :   1.6056
B(  1-C , 32-H ) :   0.9567 B(  2-C ,  3-C ) :   1.2591 B(  2-C ,  6-C ) :   1.0154
B(  3-C ,  4-C ) :   1.5771 B(  3-C ,  5-H ) :   0.9752 B(  4-C , 20-C ) :   1.0271
B(  6-C ,  7-H ) :   0.9553 B(  6-C ,  8-H ) :   0.9366 B(  6-C ,  9-C ) :   1.0300
B(  9-C , 10-H ) :   0.9673 B(  9-C , 11-H ) :   0.9500 B(  9-C , 12-C ) :   1.0788
B( 12-C , 13-H ) :   0.9747 B( 12-C , 14-H ) :   0.9782 B( 12-C , 15-H ) :   0.9787
B( 16-S , 17-C ) :   1.1651 B( 16-S , 20-C ) :   1.1403 B( 17-C , 18-C ) :   1.6002
B( 17-C , 20-C ) :   0.1055 B( 17-C , 33-H ) :   0.9646 B( 18-C , 19-C ) :   1.2455
B( 18-C , 21-H ) :   1.0064 B( 19-C , 20-C ) :   1.5864 B( 19-C , 22-C ) :   1.0339
B( 22-C , 23-H ) :   0.9098 B( 22-C , 24-H ) :   0.9388 B( 22-C , 25-C ) :   1.0932
B( 25-C , 26-H ) :   0.9604 B( 25-C , 27-H ) :   0.9571 B( 25-C , 28-C ) :   1.0553
B( 28-C , 29-H ) :   0.9764 B( 28-C , 30-H ) :   0.9783 B( 28-C , 31-H ) :   0.9777

Dispersion correction           -0.014847877
FINAL SINGLE POINT ENERGY     -1339.847288305113

DIPOLE MOMENT
-------------
                                X             Y             Z
Electronic contribution:     -5.97119      16.34670      -4.47777
Nuclear contribution   :      6.10923     -16.86282       4.82514
                        -----------------------------------------
Total Dipole Moment    :      0.13803      -0.51613       0.34736
                        -----------------------------------------
Magnitude (a.u.)       :      0.63726
Magnitude (Debye)      :      1.61978

Rotational constants in cm-1:     0.021560     0.007700     0.007087
Rotational constants in MHz :   646.357874   230.845509   212.466986

                             ****ORCA TERMINATED NORMALLY****
TOTAL RUN TIME: 0 days 0 hours 0 minutes 33 seconds 631 msec
