                         Program Version 4.2.1 -  RELEASE  -
|  1> ! wB97X-D3 SP def2-SVP
|  2> %pal
|  3> nprocs 16
|  4> end
|  5>
|  6> * xyz 0 1
|  7> S 	 -25.5853 	 57.242 	 110.869
|  8> C 	 -24.5776 	 58.3104 	 109.865
|  9> C 	 -25.2957 	 59.3316 	 109.317
| 10> C 	 -26.7024 	 59.3216 	 109.817
| 11> C 	 -27.0115 	 58.1453 	 110.479
| 12> H 	 -27.4927 	 59.9708 	 109.444
| 13> C 	 -24.7762 	 60.4562 	 108.559
| 14> H 	 -24.0117 	 61.0555 	 109.191
| 15> H 	 -25.5794 	 61.0775 	 108.394
| 16> C 	 -23.9519 	 60.1562 	 107.292
| 17> H 	 -24.5653 	 59.7518 	 106.448
| 18> H 	 -23.7038 	 61.1746 	 106.922
| 19> C 	 -22.6447 	 59.3982 	 107.477
| 20> H 	 -22.1796 	 59.156 	 106.467
| 21> H 	 -22.002 	 59.8957 	 108.104
| 22> H 	 -22.8518 	 58.3766 	 107.835
| 23> S 	 -28.8265 	 56.1424 	 110.112
| 24> C 	 -30.3766 	 56.1759 	 110.967
| 25> C 	 -30.5796 	 57.3719 	 111.631
| 26> C 	 -29.4047 	 58.2442 	 111.565
| 27> C 	 -28.3672 	 57.7216 	 110.805
| 28> H 	 -31.4641 	 57.4684 	 112.189
| 29> C 	 -29.3676 	 59.4707 	 112.452
| 30> H 	 -28.4527 	 60.0241 	 112.144
| 31> H 	 -29.1607 	 59.1939 	 113.545
| 32> C 	 -30.6629 	 60.3396 	 112.389
| 33> H 	 -31.4577 	 59.8838 	 112.949
| 34> H 	 -31.1062 	 60.3736 	 111.307
| 35> C 	 -30.3723 	 61.7714 	 112.82
| 36> H 	 -29.8756 	 61.8798 	 113.81
| 37> H 	 -31.346 	 62.2386 	 112.837
| 38> H 	 -29.6896 	 62.313 	 112.112
| 39> H 	 -23.5596 	 58.1223 	 109.694
| 40> H 	 -31.1688 	 55.4414 	 110.904
| 41> *
| 42>
| 43>                          ****END OF INPUT****

CARTESIAN COORDINATES (ANGSTROEM)
---------------------------------
  S    -25.585300   57.242000  110.869000
  C    -24.577600   58.310400  109.865000
  C    -25.295700   59.331600  109.317000
  C    -26.702400   59.321600  109.817000
  C    -27.011500   58.145300  110.479000
  H    -27.492700   59.970800  109.444000
  C    -24.776200   60.456200  108.559000
  H    -24.011700   61.055500  109.191000
  H    -25.579400   61.077500  108.394000
  C    -23.951900   60.156200  107.292000
  H    -24.565300   59.751800  106.448000
  H    -23.703800   61.174600  106.922000
  C    -22.644700   59.398200  107.477000
  H    -22.179600   59.156000  106.467000
  H    -22.002000   59.895700  108.104000
  H    -22.851800   58.376600  107.835000
  S    -28.826500   56.142400  110.112000
  C    -30.376600   56.175900  110.967000
  C    -30.579600   57.371900  111.631000
  C    -29.404700   58.244200  111.565000
  C    -28.367200   57.721600  110.805000
  H    -31.464100   57.468400  112.189000
  C    -29.367600   59.470700  112.452000
  H    -28.452700   60.024100  112.144000
  H    -29.160700   59.193900  113.545000
  C    -30.662900   60.339600  112.389000
  H    -31.457700   59.883800  112.949000
  H    -31.106200   60.373600  111.307000
  C    -30.372300   61.771400  112.820000
  H    -29.875600   61.879800  113.810000
  H    -31.346000   62.238600  112.837000
  H    -29.689600   62.313000  112.112000
  H    -23.559600   58.122300  109.694000
  H    -31.168800   55.441400  110.904000

 Total Charge           Charge          ....    0
 Multiplicity           Mult            ....    1
 Number of Electrons    NEL             ....  134
 Basis Dimension        Dim             ....  322

ORBITAL ENERGIES
----------------

  NO   OCC          E(Eh)            E(eV)
   0   2.0000     -88.964606     -2420.8500
   1   2.0000     -88.962376     -2420.7893
   2   2.0000     -10.329742      -281.0866
   3   2.0000     -10.329001      -281.0664
   4   2.0000     -10.318308      -280.7754
   5   2.0000     -10.309120      -280.5254
   6   2.0000     -10.307477      -280.4807
   7   2.0000     -10.300023      -280.2779
   8   2.0000     -10.297462      -280.2082
   9   2.0000     -10.297375      -280.2058
  10   2.0000     -10.295000      -280.1412
  11   2.0000     -10.292276      -280.0671
  12   2.0000     -10.292259      -280.0666
  13   2.0000     -10.289939      -280.0035
  14   2.0000     -10.282444      -279.7995
  15   2.0000     -10.281345      -279.7696
  16   2.0000      -8.079335      -219.8499
  17   2.0000      -8.076443      -219.7712
  18   2.0000      -6.037986      -164.3020
  19   2.0000      -6.035097      -164.2233
  20   2.0000      -6.033836      -164.1890
  21   2.0000      -6.031071      -164.1138
  22   2.0000      -6.029938      -164.0830
  23   2.0000      -6.027044      -164.0042
  24   2.0000      -1.001089       -27.2410
  25   2.0000      -0.976833       -26.5810
  26   2.0000      -0.917598       -24.9691
  27   2.0000      -0.902648       -24.5623
  28   2.0000      -0.868161       -23.6238
  29   2.0000      -0.850054       -23.1311
  30   2.0000      -0.844514       -22.9804
  31   2.0000      -0.813277       -22.1304
  32   2.0000      -0.787555       -21.4305
  33   2.0000      -0.768008       -20.8986
  34   2.0000      -0.704667       -19.1750
  35   2.0000      -0.701785       -19.0965
  36   2.0000      -0.694808       -18.9067
  37   2.0000      -0.656136       -17.8544
  38   2.0000      -0.642499       -17.4833
  39   2.0000      -0.612003       -16.6535
  40   2.0000      -0.590197       -16.0601
  41   2.0000      -0.576371       -15.6839
  42   2.0000      -0.558729       -15.2038
  43   2.0000      -0.556411       -15.1407
  44   2.0000      -0.538279       -14.6473
  45   2.0000      -0.529202       -14.4003
  46   2.0000      -0.519825       -14.1452
  47   2.0000      -0.511078       -13.9071
  48   2.0000      -0.503714       -13.7068
  49   2.0000      -0.494284       -13.4501
  50   2.0000      -0.485775       -13.2186
  51   2.0000      -0.483630       -13.1602
  52   2.0000      -0.474034       -12.8991
  53   2.0000      -0.464189       -12.6312
  54   2.0000      -0.456696       -12.4273
  55   2.0000      -0.449327       -12.2268
  56   2.0000      -0.442270       -12.0348
  57   2.0000      -0.436037       -11.8652
  58   2.0000      -0.430544       -11.7157
  59   2.0000      -0.429015       -11.6741
  60   2.0000      -0.415613       -11.3094
  61   2.0000      -0.412130       -11.2146
  62   2.0000      -0.408012       -11.1026
  63   2.0000      -0.342615        -9.3230
  64   2.0000      -0.328496        -8.9388
  65   2.0000      -0.322173        -8.7668
  66   2.0000      -0.297200        -8.0872
  67   0.0000       0.033610         0.9146
  68   0.0000       0.066850         1.8191
  69   0.0000       0.106094         2.8870
  70   0.0000       0.116825         3.1790
  71   0.0000       0.122199         3.3252

MULLIKEN ATOMIC CHARGES
-----------------------
   0 S :    0.116281
   1 C :   -0.117727
   2 C :   -0.080779
   3 C :    0.034730
   4 C :   -0.160766
   5 H :    0.025024
   6 C :    0.073867
   7 H :    0.047500
   8 H :   -0.004274
   9 C :   -0.091775
  10 H :    0.036055
  11 H :    0.025643
  12 C :   -0.045771
  13 H :    0.043647
  14 H :    0.022167
  15 H :    0.038773
  16 S :    0.093500
  17 C :   -0.085165
  18 C :   -0.027132
  19 C :   -0.016557
  20 C :   -0.165060
  21 H :    0.007396
  22 C :    0.039003
  23 H :    0.024475
  24 H :    0.056927
  25 C :   -0.122573
  26 H :    0.033402
  27 H :    0.046266
  28 C :   -0.048383
  29 H :    0.037234
  30 H :    0.033902
  31 H :    0.041606
  32 H :    0.033581
  33 H :    0.054984
Sum of atomic charges:    0.0000000

LOEWDIN ATOMIC CHARGES
----------------------
   0 S :    0.398957
   1 C :   -0.179870
   2 C :   -0.059734
   3 C :   -0.062383
   4 C :   -0.202373
   5 H :    0.031821
   6 C :   -0.036681
   7 H :    0.046436
   8 H :    0.019531
   9 C :   -0.042370
  10 H :    0.026935
  11 H :    0.026032
  12 C :   -0.063835
  13 H :    0.040408
  14 H :    0.012104
  15 H :    0.026781
  16 S :    0.379285
  17 C :   -0.172327
  18 C :   -0.066834
  19 C :   -0.054056
  20 C :   -0.188466
  21 H :    0.024379
  22 C :   -0.041229
  23 H :    0.030296
  24 H :    0.043595
  25 C :   -0.048233
  26 H :    0.018482
  27 H :    0.035888
  28 C :   -0.069848
  29 H :    0.027626
  30 H :    0.025631
  31 H :    0.030391
  32 H :    0.014426
  33 H :    0.029236

  Mayer bond orders larger than 0.100000
B(  0-S ,  1-C ) :   1.1078 B(  0-S ,  4-C ) :   1.1530 B(  1-C ,  2-C ) :   1.6409
B(  1-C , 32-H ) :   0.9697 B(  2-C ,  3-C ) :   1.2031 B(  2-C ,  6-C ) :   1.0433
B(  3-C ,  4-C ) :   1.6028 B(  3-C ,  5-H ) :   0.9806 B(  4-C , 20-C ) :   1.0301
B(  6-C ,  7-H ) :   0.9346 B(  6-C ,  8-H ) :   0.9272 B(  6-C ,  9-C ) :   1.0693
B(  9-C , 10-H ) :   0.9559 B(  9-C , 11-H ) :   0.9539 B(  9-C , 12-C ) :   1.0830
B( 12-C , 13-H ) :   0.9663 B( 12-C , 14-H ) :   0.9756 B( 12-C , 15-H ) :   0.9647
B( 16-S , 17-C ) :   1.1378 B( 16-S , 20-C ) :   1.1198 B( 17-C , 18-C ) :   1.6602
B( 17-C , 33-H ) :   0.9634 B( 18-C , 19-C ) :   1.1828 B( 18-C , 21-H ) :   0.9959
B( 19-C , 20-C ) :   1.6357 B( 19-C , 22-C ) :   1.0520 B( 22-C , 23-H ) :   0.9410
B( 22-C , 24-H ) :   0.9319 B( 22-C , 25-C ) :   1.0369 B( 25-C , 26-H ) :   0.9513
B( 25-C , 27-H ) :   0.9613 B( 25-C , 28-C ) :   1.0848 B( 28-C , 29-H ) :   0.9720
B( 28-C , 30-H ) :   0.9732 B( 28-C , 31-H ) :   0.9752

Dispersion correction           -0.013670421
FINAL SINGLE POINT ENERGY     -1339.867873633516

DIPOLE MOMENT
-------------
                                X             Y             Z
Electronic contribution:     -2.74282     -22.73577       2.75505
Nuclear contribution   :      2.62359      23.30735      -2.78977
                        -----------------------------------------
Total Dipole Moment    :     -0.11924       0.57158      -0.03472
                        -----------------------------------------
Magnitude (a.u.)       :      0.58492
Magnitude (Debye)      :      1.48674

Rotational constants in cm-1:     0.020313     0.007556     0.006106
Rotational constants in MHz :   608.973936   226.519708   183.048635

                             ****ORCA TERMINATED NORMALLY****
TOTAL RUN TIME: 0 days 0 hours 0 minutes 29 seconds 152 msec
