                         Program Version 4.2.1 -  RELEASE  -
|  1> ! wB97X-D3 SP def2-SVP
|  2> %pal
|  3> nprocs 16
|  4> end
|  5>
|  6> * xyz 0 1
|  7> S 	 1.78685 	 78.31 	 46.5462
|  8> C 	 2.84665 	 76.8673 	 46.7127
|  9> C 	 4.17045 	 77.3087 	 46.5724
| 10> C 	 4.26698 	 78.7598 	 46.7583
| 11> C 	 3.03974 	 79.411 	 46.8351
| 12> H 	 5.12676 	 79.3525 	 47.0406
| 13> C 	 5.31219 	 76.3598 	 46.5393
| 14> H 	 5.70328 	 76.3279 	 45.5758
| 15> H 	 4.9762 	 75.3948 	 46.8079
| 16> C 	 6.48393 	 76.7517 	 47.454
| 17> H 	 7.24772 	 75.9811 	 47.4924
| 18> H 	 6.84318 	 77.7452 	 47.0699
| 19> C 	 6.08411 	 77.0779 	 48.8871
| 20> H 	 6.95751 	 77.5082 	 49.4331
| 21> H 	 5.22794 	 77.7201 	 48.9957
| 22> H 	 5.91617 	 76.1407 	 49.4357
| 23> S 	 3.26953 	 82.0494 	 46.1821
| 24> C 	 2.97579 	 83.2478 	 47.4291
| 25> C 	 2.58212 	 82.6217 	 48.6073
| 26> C 	 2.3878 	 81.2191 	 48.5273
| 27> C 	 2.77205 	 80.7364 	 47.2918
| 28> H 	 2.50728 	 83.1947 	 49.542
| 29> C 	 2.0241 	 80.3125 	 49.7056
| 30> H 	 2.20444 	 79.2795 	 49.4013
| 31> H 	 0.881335 	 80.4167 	 49.8135
| 32> C 	 2.78195 	 80.6394 	 51.0581
| 33> H 	 2.42976 	 79.902 	 51.716
| 34> H 	 2.42429 	 81.6537 	 51.3841
| 35> C 	 4.31732 	 80.445 	 51.0411
| 36> H 	 4.71052 	 80.9461 	 50.1915
| 37> H 	 4.75267 	 79.4297 	 51.0406
| 38> H 	 4.76409 	 80.9918 	 51.8446
| 39> H 	 2.3945 	 75.8725 	 46.5501
| 40> H 	 3.06856 	 84.2632 	 47.3355
| 41> *
| 42>
| 43>                          ****END OF INPUT****

CARTESIAN COORDINATES (ANGSTROEM)
---------------------------------
  S      1.786850   78.310000   46.546200
  C      2.846650   76.867300   46.712700
  C      4.170450   77.308700   46.572400
  C      4.266980   78.759800   46.758300
  C      3.039740   79.411000   46.835100
  H      5.126760   79.352500   47.040600
  C      5.312190   76.359800   46.539300
  H      5.703280   76.327900   45.575800
  H      4.976200   75.394800   46.807900
  C      6.483930   76.751700   47.454000
  H      7.247720   75.981100   47.492400
  H      6.843180   77.745200   47.069900
  C      6.084110   77.077900   48.887100
  H      6.957510   77.508200   49.433100
  H      5.227940   77.720100   48.995700
  H      5.916170   76.140700   49.435700
  S      3.269530   82.049400   46.182100
  C      2.975790   83.247800   47.429100
  C      2.582120   82.621700   48.607300
  C      2.387800   81.219100   48.527300
  C      2.772050   80.736400   47.291800
  H      2.507280   83.194700   49.542000
  C      2.024100   80.312500   49.705600
  H      2.204440   79.279500   49.401300
  H      0.881335   80.416700   49.813500
  C      2.781950   80.639400   51.058100
  H      2.429760   79.902000   51.716000
  H      2.424290   81.653700   51.384100
  C      4.317320   80.445000   51.041100
  H      4.710520   80.946100   50.191500
  H      4.752670   79.429700   51.040600
  H      4.764090   80.991800   51.844600
  H      2.394500   75.872500   46.550100
  H      3.068560   84.263200   47.335500

 Total Charge           Charge          ....    0
 Multiplicity           Mult            ....    1
 Number of Electrons    NEL             ....  134
 Basis Dimension        Dim             ....  322

ORBITAL ENERGIES
----------------

  NO   OCC          E(Eh)            E(eV)
   0   2.0000     -88.964972     -2420.8600
   1   2.0000     -88.959250     -2420.7043
   2   2.0000     -10.324402      -280.9413
   3   2.0000     -10.324012      -280.9306
   4   2.0000     -10.321440      -280.8607
   5   2.0000     -10.314703      -280.6774
   6   2.0000     -10.311143      -280.5805
   7   2.0000     -10.303948      -280.3847
   8   2.0000     -10.299616      -280.2668
   9   2.0000     -10.298117      -280.2260
  10   2.0000     -10.295281      -280.1488
  11   2.0000     -10.292841      -280.0824
  12   2.0000     -10.288773      -279.9717
  13   2.0000     -10.282729      -279.8073
  14   2.0000     -10.273872      -279.5663
  15   2.0000     -10.273697      -279.5615
  16   2.0000      -8.079058      -219.8423
  17   2.0000      -8.074592      -219.7208
  18   2.0000      -6.037614      -164.2918
  19   2.0000      -6.033600      -164.1826
  20   2.0000      -6.033011      -164.1666
  21   2.0000      -6.029856      -164.0807
  22   2.0000      -6.028940      -164.0558
  23   2.0000      -6.025451      -163.9609
  24   2.0000      -1.007146       -27.4058
  25   2.0000      -0.980987       -26.6940
  26   2.0000      -0.919714       -25.0267
  27   2.0000      -0.900642       -24.5077
  28   2.0000      -0.870230       -23.6802
  29   2.0000      -0.847188       -23.0532
  30   2.0000      -0.838854       -22.8264
  31   2.0000      -0.813904       -22.1475
  32   2.0000      -0.787401       -21.4263
  33   2.0000      -0.776292       -21.1240
  34   2.0000      -0.710035       -19.3210
  35   2.0000      -0.702668       -19.1206
  36   2.0000      -0.688686       -18.7401
  37   2.0000      -0.660566       -17.9749
  38   2.0000      -0.640436       -17.4272
  39   2.0000      -0.619061       -16.8455
  40   2.0000      -0.595959       -16.2169
  41   2.0000      -0.564468       -15.3600
  42   2.0000      -0.559560       -15.2264
  43   2.0000      -0.547802       -14.9064
  44   2.0000      -0.541314       -14.7299
  45   2.0000      -0.540536       -14.7087
  46   2.0000      -0.524362       -14.2686
  47   2.0000      -0.518107       -14.0984
  48   2.0000      -0.507204       -13.8017
  49   2.0000      -0.497365       -13.5340
  50   2.0000      -0.488366       -13.2891
  51   2.0000      -0.475371       -12.9355
  52   2.0000      -0.472773       -12.8648
  53   2.0000      -0.466156       -12.6847
  54   2.0000      -0.455397       -12.3920
  55   2.0000      -0.446361       -12.1461
  56   2.0000      -0.442551       -12.0424
  57   2.0000      -0.439568       -11.9612
  58   2.0000      -0.435404       -11.8479
  59   2.0000      -0.423544       -11.5252
  60   2.0000      -0.415782       -11.3140
  61   2.0000      -0.411391       -11.1945
  62   2.0000      -0.407470       -11.0878
  63   2.0000      -0.335642        -9.1333
  64   2.0000      -0.330671        -8.9980
  65   2.0000      -0.322969        -8.7884
  66   2.0000      -0.302478        -8.2308
  67   0.0000       0.032186         0.8758
  68   0.0000       0.061688         1.6786
  69   0.0000       0.102812         2.7977
  70   0.0000       0.123374         3.3572
  71   0.0000       0.128046         3.4843

MULLIKEN ATOMIC CHARGES
-----------------------
   0 S :    0.095954
   1 C :   -0.152269
   2 C :   -0.124182
   3 C :    0.051105
   4 C :   -0.192749
   5 H :    0.016741
   6 C :    0.181871
   7 H :    0.025959
   8 H :    0.003213
   9 C :   -0.120000
  10 H :    0.035360
  11 H :    0.034621
  12 C :   -0.074451
  13 H :    0.033823
  14 H :    0.049466
  15 H :    0.021688
  16 S :    0.105796
  17 C :   -0.050840
  18 C :   -0.060846
  19 C :    0.005372
  20 C :   -0.189776
  21 H :    0.024084
  22 C :    0.038850
  23 H :    0.034412
  24 H :    0.056796
  25 C :   -0.070763
  26 H :    0.026957
  27 H :    0.041318
  28 C :   -0.037858
  29 H :    0.020863
  30 H :    0.048681
  31 H :    0.024159
  32 H :    0.071763
  33 H :    0.024882
Sum of atomic charges:   -0.0000000

LOEWDIN ATOMIC CHARGES
----------------------
   0 S :    0.407035
   1 C :   -0.190846
   2 C :   -0.051500
   3 C :   -0.068026
   4 C :   -0.217333
   5 H :    0.030049
   6 C :   -0.024286
   7 H :    0.030182
   8 H :    0.024346
   9 C :   -0.039457
  10 H :    0.026140
  11 H :    0.026142
  12 C :   -0.072756
  13 H :    0.029845
  14 H :    0.020923
  15 H :    0.022659
  16 S :    0.392934
  17 C :   -0.168368
  18 C :   -0.074576
  19 C :   -0.052986
  20 C :   -0.195087
  21 H :    0.032471
  22 C :   -0.033213
  23 H :    0.027215
  24 H :    0.046281
  25 C :   -0.035031
  26 H :    0.021125
  27 H :    0.028579
  28 C :   -0.068265
  29 H :    0.020695
  30 H :    0.032721
  31 H :    0.026804
  32 H :    0.033107
  33 H :    0.012475

  Mayer bond orders larger than 0.100000
B(  0-S ,  1-C ) :   1.1298 B(  0-S ,  4-C ) :   1.1657 B(  1-C ,  2-C ) :   1.5964
B(  1-C , 32-H ) :   0.9683 B(  2-C ,  3-C ) :   1.1989 B(  2-C ,  6-C ) :   1.0353
B(  3-C ,  4-C ) :   1.5974 B(  3-C ,  5-H ) :   0.9850 B(  4-C , 20-C ) :   1.0106
B(  6-C ,  7-H ) :   0.9190 B(  6-C ,  8-H ) :   0.9380 B(  6-C ,  9-C ) :   1.0738
B(  9-C , 10-H ) :   0.9569 B(  9-C , 11-H ) :   0.9509 B(  9-C , 12-C ) :   1.0848
B( 12-C , 13-H ) :   0.9735 B( 12-C , 14-H ) :   0.9674 B( 12-C , 15-H ) :   0.9726
B( 16-S , 17-C ) :   1.1518 B( 16-S , 20-C ) :   1.1387 B( 17-C , 18-C ) :   1.6076
B( 17-C , 20-C ) :   0.1046 B( 17-C , 33-H ) :   0.9795 B( 18-C , 19-C ) :   1.2407
B( 18-C , 21-H ) :   0.9831 B( 19-C , 20-C ) :   1.5909 B( 19-C , 22-C ) :   1.0303
B( 22-C , 23-H ) :   0.9360 B( 22-C , 24-H ) :   0.9332 B( 22-C , 25-C ) :   1.0678
B( 25-C , 26-H ) :   0.9561 B( 25-C , 27-H ) :   0.9555 B( 25-C , 28-C ) :   1.0660
B( 28-C , 29-H ) :   0.9756 B( 28-C , 30-H ) :   0.9737 B( 28-C , 31-H ) :   0.9696

Dispersion correction           -0.016298721
FINAL SINGLE POINT ENERGY     -1339.867521525183

DIPOLE MOMENT
-------------
                                X             Y             Z
Electronic contribution:    -14.55777       9.48436     -19.98108
Nuclear contribution   :     14.96097      -9.69494      20.50869
                        -----------------------------------------
Total Dipole Moment    :      0.40320      -0.21058       0.52761
                        -----------------------------------------
Magnitude (a.u.)       :      0.69663
Magnitude (Debye)      :      1.77068

Rotational constants in cm-1:     0.018070     0.010096     0.008503
Rotational constants in MHz :   541.722206   302.666127   254.904251

                             ****ORCA TERMINATED NORMALLY****
TOTAL RUN TIME: 0 days 0 hours 0 minutes 35 seconds 43 msec
