                         Program Version 4.2.1 -  RELEASE  -
|  1> ! wB97X-D3 SP def2-SVP
|  2> %pal
|  3> nprocs 16
|  4> end
|  5>
|  6> * xyz 0 1
|  7> S 	 8.01841 	 22.4914 	 41.5005
|  8> C 	 6.57294 	 23.5763 	 41.2411
|  9> C 	 6.94292 	 24.9037 	 41.2719
| 10> C 	 8.33904 	 25.0876 	 41.4418
| 11> C 	 9.04235 	 23.9069 	 41.5332
| 12> H 	 8.91072 	 26.0025 	 41.6239
| 13> C 	 5.90781 	 26.0732 	 41.3029
| 14> H 	 5.54022 	 26.1866 	 42.2974
| 15> H 	 5.05088 	 25.7894 	 40.7495
| 16> C 	 6.25358 	 27.3889 	 40.6448
| 17> H 	 6.60883 	 28.0503 	 41.3838
| 18> H 	 7.08425 	 27.2805 	 39.9711
| 19> C 	 4.97546 	 28.0593 	 40.0604
| 20> H 	 4.59883 	 27.3089 	 39.3686
| 21> H 	 4.31683 	 28.4907 	 40.8269
| 22> H 	 5.33368 	 28.8475 	 39.3764
| 23> S 	 11.3264 	 23.9074 	 43.1407
| 24> C 	 12.8563 	 23.7126 	 42.2947
| 25> C 	 12.6201 	 23.6426 	 40.9644
| 26> C 	 11.2753 	 23.7585 	 40.5139
| 27> C 	 10.4593 	 23.6952 	 41.5787
| 28> H 	 13.4798 	 23.5724 	 40.3571
| 29> C 	 10.91 	 23.8292 	 39.0703
| 30> H 	 10.0741 	 23.0098 	 39.009
| 31> H 	 11.736 	 23.5663 	 38.4134
| 32> C 	 10.2511 	 25.2441 	 38.5933
| 33> H 	 10.9708 	 26.0579 	 38.7058
| 34> H 	 9.30936 	 25.5283 	 39.0795
| 35> C 	 9.80947 	 25.1361 	 37.1204
| 36> H 	 9.06694 	 24.4665 	 36.8514
| 37> H 	 10.768 	 24.8977 	 36.6361
| 38> H 	 9.26795 	 26.0306 	 36.7848
| 39> H 	 5.57239 	 23.2259 	 41.1837
| 40> H 	 13.8389 	 23.7269 	 42.6773
| 41> *
| 42>
| 43>                          ****END OF INPUT****

CARTESIAN COORDINATES (ANGSTROEM)
---------------------------------
  S      8.018410   22.491400   41.500500
  C      6.572940   23.576300   41.241100
  C      6.942920   24.903700   41.271900
  C      8.339040   25.087600   41.441800
  C      9.042350   23.906900   41.533200
  H      8.910720   26.002500   41.623900
  C      5.907810   26.073200   41.302900
  H      5.540220   26.186600   42.297400
  H      5.050880   25.789400   40.749500
  C      6.253580   27.388900   40.644800
  H      6.608830   28.050300   41.383800
  H      7.084250   27.280500   39.971100
  C      4.975460   28.059300   40.060400
  H      4.598830   27.308900   39.368600
  H      4.316830   28.490700   40.826900
  H      5.333680   28.847500   39.376400
  S     11.326400   23.907400   43.140700
  C     12.856300   23.712600   42.294700
  C     12.620100   23.642600   40.964400
  C     11.275300   23.758500   40.513900
  C     10.459300   23.695200   41.578700
  H     13.479800   23.572400   40.357100
  C     10.910000   23.829200   39.070300
  H     10.074100   23.009800   39.009000
  H     11.736000   23.566300   38.413400
  C     10.251100   25.244100   38.593300
  H     10.970800   26.057900   38.705800
  H      9.309360   25.528300   39.079500
  C      9.809470   25.136100   37.120400
  H      9.066940   24.466500   36.851400
  H     10.768000   24.897700   36.636100
  H      9.267950   26.030600   36.784800
  H      5.572390   23.225900   41.183700
  H     13.838900   23.726900   42.677300

 Total Charge           Charge          ....    0
 Multiplicity           Mult            ....    1
 Number of Electrons    NEL             ....  134
 Basis Dimension        Dim             ....  322

ORBITAL ENERGIES
----------------

  NO   OCC          E(Eh)            E(eV)
   0   2.0000     -88.965158     -2420.8650
   1   2.0000     -88.962284     -2420.7868
   2   2.0000     -10.322756      -280.8965
   3   2.0000     -10.317076      -280.7419
   4   2.0000     -10.315139      -280.6892
   5   2.0000     -10.310861      -280.5728
   6   2.0000     -10.305292      -280.4213
   7   2.0000     -10.304818      -280.4084
   8   2.0000     -10.297651      -280.2133
   9   2.0000     -10.293329      -280.0957
  10   2.0000     -10.291782      -280.0536
  11   2.0000     -10.285776      -279.8902
  12   2.0000     -10.285340      -279.8783
  13   2.0000     -10.282566      -279.8029
  14   2.0000     -10.280344      -279.7424
  15   2.0000     -10.271234      -279.4945
  16   2.0000      -8.078768      -219.8345
  17   2.0000      -8.076285      -219.7669
  18   2.0000      -6.037289      -164.2830
  19   2.0000      -6.034999      -164.2207
  20   2.0000      -6.033466      -164.1790
  21   2.0000      -6.031086      -164.1142
  22   2.0000      -6.029553      -164.0725
  23   2.0000      -6.026687      -163.9945
  24   2.0000      -1.006542       -27.3894
  25   2.0000      -0.979550       -26.6549
  26   2.0000      -0.914874       -24.8950
  27   2.0000      -0.899477       -24.4760
  28   2.0000      -0.871982       -23.7278
  29   2.0000      -0.852175       -23.1889
  30   2.0000      -0.842583       -22.9279
  31   2.0000      -0.813378       -22.1331
  32   2.0000      -0.783066       -21.3083
  33   2.0000      -0.771017       -20.9804
  34   2.0000      -0.714045       -19.4302
  35   2.0000      -0.700921       -19.0730
  36   2.0000      -0.691439       -18.8150
  37   2.0000      -0.661890       -18.0109
  38   2.0000      -0.645418       -17.5627
  39   2.0000      -0.614895       -16.7321
  40   2.0000      -0.592697       -16.1281
  41   2.0000      -0.578925       -15.7533
  42   2.0000      -0.567446       -15.4410
  43   2.0000      -0.561617       -15.2824
  44   2.0000      -0.527859       -14.3638
  45   2.0000      -0.524791       -14.2803
  46   2.0000      -0.517770       -14.0892
  47   2.0000      -0.511395       -13.9158
  48   2.0000      -0.506689       -13.7877
  49   2.0000      -0.498126       -13.5547
  50   2.0000      -0.489170       -13.3110
  51   2.0000      -0.480989       -13.0884
  52   2.0000      -0.469659       -12.7801
  53   2.0000      -0.467039       -12.7088
  54   2.0000      -0.455971       -12.4076
  55   2.0000      -0.448820       -12.2130
  56   2.0000      -0.438369       -11.9286
  57   2.0000      -0.433082       -11.7848
  58   2.0000      -0.429834       -11.6964
  59   2.0000      -0.425316       -11.5734
  60   2.0000      -0.420122       -11.4321
  61   2.0000      -0.417747       -11.3675
  62   2.0000      -0.408159       -11.1066
  63   2.0000      -0.333565        -9.0768
  64   2.0000      -0.328306        -8.9337
  65   2.0000      -0.318361        -8.6630
  66   2.0000      -0.312122        -8.4933
  67   0.0000       0.044448         1.2095
  68   0.0000       0.050225         1.3667
  69   0.0000       0.106222         2.8904
  70   0.0000       0.116740         3.1767
  71   0.0000       0.133561         3.6344

MULLIKEN ATOMIC CHARGES
-----------------------
   0 S :    0.099554
   1 C :   -0.116851
   2 C :   -0.082620
   3 C :    0.054127
   4 C :   -0.208036
   5 H :    0.023911
   6 C :    0.100253
   7 H :    0.037309
   8 H :   -0.005840
   9 C :   -0.074468
  10 H :    0.015065
  11 H :    0.026939
  12 C :   -0.068157
  13 H :    0.037358
  14 H :    0.058681
  15 H :    0.032266
  16 S :    0.095887
  17 C :   -0.062859
  18 C :   -0.027764
  19 C :    0.034129
  20 C :   -0.184538
  21 H :   -0.008111
  22 C :    0.033335
  23 H :    0.054894
  24 H :    0.026719
  25 C :   -0.084325
  26 H :    0.036587
  27 H :    0.048998
  28 C :   -0.037776
  29 H :    0.018403
  30 H :    0.029998
  31 H :    0.026313
  32 H :    0.033626
  33 H :    0.036993
Sum of atomic charges:    0.0000000

LOEWDIN ATOMIC CHARGES
----------------------
   0 S :    0.381700
   1 C :   -0.171759
   2 C :   -0.058730
   3 C :   -0.065227
   4 C :   -0.188687
   5 H :    0.037545
   6 C :   -0.026877
   7 H :    0.031966
   8 H :    0.021815
   9 C :   -0.042766
  10 H :    0.017676
  11 H :    0.021792
  12 C :   -0.063184
  13 H :    0.025718
  14 H :    0.032872
  15 H :    0.030565
  16 S :    0.373714
  17 C :   -0.171099
  18 C :   -0.069591
  19 C :   -0.052357
  20 C :   -0.197434
  21 H :    0.021047
  22 C :   -0.031895
  23 H :    0.050161
  24 H :    0.028981
  25 C :   -0.033112
  26 H :    0.022999
  27 H :    0.026093
  28 C :   -0.068100
  29 H :    0.015474
  30 H :    0.025763
  31 H :    0.029185
  32 H :    0.020242
  33 H :    0.025511

  Mayer bond orders larger than 0.100000
B(  0-S ,  1-C ) :   1.1186 B(  0-S ,  4-C ) :   1.1559 B(  1-C ,  2-C ) :   1.6420
B(  1-C ,  4-C ) :   0.1039 B(  1-C , 32-H ) :   0.9769 B(  2-C ,  3-C ) :   1.2088
B(  2-C ,  6-C ) :   1.0057 B(  3-C ,  4-C ) :   1.6126 B(  3-C ,  5-H ) :   0.9888
B(  4-C , 20-C ) :   1.0017 B(  6-C ,  7-H ) :   0.9328 B(  6-C ,  8-H ) :   0.9475
B(  6-C ,  9-C ) :   1.0585 B(  9-C , 10-H ) :   0.9434 B(  9-C , 11-H ) :   0.9635
B(  9-C , 12-C ) :   1.0897 B( 12-C , 13-H ) :   0.9749 B( 12-C , 14-H ) :   0.9762
B( 12-C , 15-H ) :   0.9732 B( 16-S , 17-C ) :   1.1261 B( 16-S , 20-C ) :   1.1187
B( 17-C , 18-C ) :   1.6618 B( 17-C , 33-H ) :   0.9696 B( 18-C , 19-C ) :   1.2015
B( 18-C , 21-H ) :   0.9931 B( 19-C , 20-C ) :   1.6372 B( 19-C , 22-C ) :   1.0425
B( 22-C , 23-H ) :   0.9307 B( 22-C , 24-H ) :   0.9395 B( 22-C , 25-C ) :   1.0452
B( 25-C , 26-H ) :   0.9583 B( 25-C , 27-H ) :   0.9530 B( 25-C , 28-C ) :   1.0776
B( 28-C , 29-H ) :   0.9766 B( 28-C , 30-H ) :   0.9767 B( 28-C , 31-H ) :   0.9711

Dispersion correction           -0.015054205
FINAL SINGLE POINT ENERGY     -1339.846540070468

DIPOLE MOMENT
-------------
                                X             Y             Z
Electronic contribution:     12.11548     -19.35766      19.97959
Nuclear contribution   :    -12.22529      19.94516     -20.38936
                        -----------------------------------------
Total Dipole Moment    :     -0.10982       0.58751      -0.40977
                        -----------------------------------------
Magnitude (a.u.)       :      0.72466
Magnitude (Debye)      :      1.84194

Rotational constants in cm-1:     0.018586     0.008756     0.007492
Rotational constants in MHz :   557.209161   262.505973   224.609669

                             ****ORCA TERMINATED NORMALLY****
TOTAL RUN TIME: 0 days 0 hours 0 minutes 34 seconds 670 msec
