                         Program Version 4.2.1 -  RELEASE  -
|  1> ! wB97X-D3 SP def2-SVP
|  2> %pal
|  3> nprocs 16
|  4> end
|  5>
|  6> * xyz 0 1
|  7> S 	 -69.7875 	 41.4723 	 120.118
|  8> C 	 -71.3831 	 42.0542 	 120.386
|  9> C 	 -71.9894 	 41.3296 	 121.368
| 10> C 	 -71.0792 	 40.5182 	 122.033
| 11> C 	 -69.7502 	 40.5567 	 121.553
| 12> H 	 -71.3629 	 39.8292 	 122.899
| 13> C 	 -73.4611 	 41.5139 	 121.833
| 14> H 	 -73.5431 	 42.5977 	 122.112
| 15> H 	 -73.6623 	 41.0681 	 122.851
| 16> C 	 -74.5793 	 41.0495 	 120.852
| 17> H 	 -74.3393 	 41.488 	 119.89
| 18> H 	 -74.7109 	 39.9339 	 120.754
| 19> C 	 -75.9067 	 41.6165 	 121.325
| 20> H 	 -76.7356 	 41.05 	 120.854
| 21> H 	 -76.0516 	 41.5495 	 122.437
| 22> H 	 -75.945 	 42.7055 	 121.128
| 23> S 	 -68.0267 	 38.5143 	 120.963
| 24> C 	 -66.9135 	 38.0299 	 122.213
| 25> C 	 -66.9233 	 38.8615 	 123.293
| 26> C 	 -67.9165 	 39.8686 	 123.199
| 27> C 	 -68.5865 	 39.8156 	 121.962
| 28> H 	 -66.2915 	 38.6038 	 124.134
| 29> C 	 -68.2402 	 40.8629 	 124.328
| 30> H 	 -69.2099 	 41.3762 	 124.107
| 31> H 	 -67.4684 	 41.6568 	 124.217
| 32> C 	 -68.2466 	 40.3857 	 125.725
| 33> H 	 -67.3567 	 39.8111 	 125.94
| 34> H 	 -69.0566 	 39.6281 	 125.904
| 35> C 	 -68.3121 	 41.4561 	 126.872
| 36> H 	 -68.3402 	 41.0139 	 127.87
| 37> H 	 -69.2154 	 42.0832 	 126.895
| 38> H 	 -67.428 	 42.1534 	 126.847
| 39> H 	 -71.8185 	 42.8269 	 119.76
| 40> H 	 -66.3439 	 37.1305 	 122.264
| 41> *
| 42>
| 43>                          ****END OF INPUT****

CARTESIAN COORDINATES (ANGSTROEM)
---------------------------------
  S    -69.787500   41.472300  120.118000
  C    -71.383100   42.054200  120.386000
  C    -71.989400   41.329600  121.368000
  C    -71.079200   40.518200  122.033000
  C    -69.750200   40.556700  121.553000
  H    -71.362900   39.829200  122.899000
  C    -73.461100   41.513900  121.833000
  H    -73.543100   42.597700  122.112000
  H    -73.662300   41.068100  122.851000
  C    -74.579300   41.049500  120.852000
  H    -74.339300   41.488000  119.890000
  H    -74.710900   39.933900  120.754000
  C    -75.906700   41.616500  121.325000
  H    -76.735600   41.050000  120.854000
  H    -76.051600   41.549500  122.437000
  H    -75.945000   42.705500  121.128000
  S    -68.026700   38.514300  120.963000
  C    -66.913500   38.029900  122.213000
  C    -66.923300   38.861500  123.293000
  C    -67.916500   39.868600  123.199000
  C    -68.586500   39.815600  121.962000
  H    -66.291500   38.603800  124.134000
  C    -68.240200   40.862900  124.328000
  H    -69.209900   41.376200  124.107000
  H    -67.468400   41.656800  124.217000
  C    -68.246600   40.385700  125.725000
  H    -67.356700   39.811100  125.940000
  H    -69.056600   39.628100  125.904000
  C    -68.312100   41.456100  126.872000
  H    -68.340200   41.013900  127.870000
  H    -69.215400   42.083200  126.895000
  H    -67.428000   42.153400  126.847000
  H    -71.818500   42.826900  119.760000
  H    -66.343900   37.130500  122.264000

 Total Charge           Charge          ....    0
 Multiplicity           Mult            ....    1
 Number of Electrons    NEL             ....  134
 Basis Dimension        Dim             ....  322

ORBITAL ENERGIES
----------------

  NO   OCC          E(Eh)            E(eV)
   0   2.0000     -88.968190     -2420.9475
   1   2.0000     -88.962694     -2420.7980
   2   2.0000     -10.323929      -280.9284
   3   2.0000     -10.323388      -280.9137
   4   2.0000     -10.312150      -280.6079
   5   2.0000     -10.309225      -280.5283
   6   2.0000     -10.306256      -280.4475
   7   2.0000     -10.302448      -280.3439
   8   2.0000     -10.296967      -280.1947
   9   2.0000     -10.295253      -280.1481
  10   2.0000     -10.292894      -280.0839
  11   2.0000     -10.291718      -280.0519
  12   2.0000     -10.290820      -280.0274
  13   2.0000     -10.289293      -279.9859
  14   2.0000     -10.285736      -279.8891
  15   2.0000     -10.283599      -279.8310
  16   2.0000      -8.083246      -219.9563
  17   2.0000      -8.078995      -219.8406
  18   2.0000      -6.041682      -164.4025
  19   2.0000      -6.037742      -164.2953
  20   2.0000      -6.037222      -164.2812
  21   2.0000      -6.034023      -164.1941
  22   2.0000      -6.033161      -164.1707
  23   2.0000      -6.030082      -164.0869
  24   2.0000      -1.014278       -27.5999
  25   2.0000      -0.991325       -26.9753
  26   2.0000      -0.908659       -24.7259
  27   2.0000      -0.907352       -24.6903
  28   2.0000      -0.874338       -23.7919
  29   2.0000      -0.848507       -23.0891
  30   2.0000      -0.847254       -23.0550
  31   2.0000      -0.811593       -22.0846
  32   2.0000      -0.780843       -21.2478
  33   2.0000      -0.769372       -20.9357
  34   2.0000      -0.704821       -19.1791
  35   2.0000      -0.698080       -18.9957
  36   2.0000      -0.695485       -18.9251
  37   2.0000      -0.653856       -17.7923
  38   2.0000      -0.639723       -17.4077
  39   2.0000      -0.616846       -16.7852
  40   2.0000      -0.597407       -16.2563
  41   2.0000      -0.572649       -15.5826
  42   2.0000      -0.561858       -15.2889
  43   2.0000      -0.557844       -15.1797
  44   2.0000      -0.528287       -14.3754
  45   2.0000      -0.521140       -14.1810
  46   2.0000      -0.514260       -13.9937
  47   2.0000      -0.509635       -13.8679
  48   2.0000      -0.504547       -13.7294
  49   2.0000      -0.494496       -13.4559
  50   2.0000      -0.491491       -13.3741
  51   2.0000      -0.476920       -12.9777
  52   2.0000      -0.471448       -12.8288
  53   2.0000      -0.462886       -12.5958
  54   2.0000      -0.457699       -12.4546
  55   2.0000      -0.453546       -12.3416
  56   2.0000      -0.442070       -12.0293
  57   2.0000      -0.441386       -12.0107
  58   2.0000      -0.436768       -11.8851
  59   2.0000      -0.422322       -11.4920
  60   2.0000      -0.418661       -11.3923
  61   2.0000      -0.412483       -11.2242
  62   2.0000      -0.410988       -11.1836
  63   2.0000      -0.343445        -9.3456
  64   2.0000      -0.332661        -9.0522
  65   2.0000      -0.328563        -8.9407
  66   2.0000      -0.292646        -7.9633
  67   0.0000       0.039416         1.0726
  68   0.0000       0.057810         1.5731
  69   0.0000       0.119890         3.2624
  70   0.0000       0.129306         3.5186
  71   0.0000       0.131485         3.5779

MULLIKEN ATOMIC CHARGES
-----------------------
   0 S :    0.118741
   1 C :   -0.135220
   2 C :   -0.039641
   3 C :    0.015080
   4 C :   -0.200388
   5 H :    0.031940
   6 C :   -0.009653
   7 H :    0.042186
   8 H :    0.025719
   9 C :   -0.053151
  10 H :    0.029650
  11 H :    0.049256
  12 C :   -0.077616
  13 H :    0.042316
  14 H :    0.030965
  15 H :    0.035801
  16 S :    0.129475
  17 C :   -0.081803
  18 C :   -0.049010
  19 C :   -0.015672
  20 C :   -0.161250
  21 H :    0.021251
  22 C :    0.087903
  23 H :    0.036526
  24 H :    0.036672
  25 C :   -0.090004
  26 H :    0.021020
  27 H :    0.032472
  28 C :   -0.069628
  29 H :    0.032373
  30 H :    0.031596
  31 H :    0.037582
  32 H :    0.050587
  33 H :    0.043927
Sum of atomic charges:    0.0000000

LOEWDIN ATOMIC CHARGES
----------------------
   0 S :    0.445393
   1 C :   -0.204227
   2 C :   -0.076948
   3 C :   -0.071339
   4 C :   -0.221026
   5 H :    0.040606
   6 C :   -0.038287
   7 H :    0.037538
   8 H :    0.031358
   9 C :   -0.043218
  10 H :    0.022538
  11 H :    0.033435
  12 C :   -0.073421
  13 H :    0.028905
  14 H :    0.026022
  15 H :    0.026587
  16 S :    0.421939
  17 C :   -0.183129
  18 C :   -0.073869
  19 C :   -0.045884
  20 C :   -0.216419
  21 H :    0.033328
  22 C :   -0.038902
  23 H :    0.036476
  24 H :    0.038606
  25 C :   -0.049438
  26 H :    0.020011
  27 H :    0.029190
  28 C :   -0.070581
  29 H :    0.027729
  30 H :    0.023863
  31 H :    0.028871
  32 H :    0.027944
  33 H :    0.026350

  Mayer bond orders larger than 0.100000
B(  0-S ,  1-C ) :   1.1730 B(  0-S ,  4-C ) :   1.1900 B(  1-C ,  2-C ) :   1.5461
B(  1-C ,  4-C ) :   0.1160 B(  1-C , 32-H ) :   0.9763 B(  2-C ,  3-C ) :   1.3211
B(  2-C ,  6-C ) :   0.9909 B(  3-C ,  4-C ) :   1.5057 B(  3-C ,  5-H ) :   0.9867
B(  4-C , 20-C ) :   1.0309 B(  6-C ,  7-H ) :   0.9534 B(  6-C ,  8-H ) :   0.9468
B(  6-C ,  9-C ) :   1.0497 B(  9-C , 10-H ) :   0.9589 B(  9-C , 11-H ) :   0.9584
B(  9-C , 12-C ) :   1.0750 B( 12-C , 13-H ) :   0.9748 B( 12-C , 14-H ) :   0.9736
B( 12-C , 15-H ) :   0.9760 B( 16-S , 17-C ) :   1.1550 B( 16-S , 20-C ) :   1.1539
B( 17-C , 18-C ) :   1.6308 B( 17-C , 33-H ) :   0.9651 B( 18-C , 19-C ) :   1.2374
B( 18-C , 21-H ) :   0.9878 B( 19-C , 20-C ) :   1.5921 B( 19-C , 22-C ) :   1.0358
B( 22-C , 23-H ) :   0.9303 B( 22-C , 24-H ) :   0.9286 B( 22-C , 25-C ) :   1.0682
B( 25-C , 26-H ) :   0.9488 B( 25-C , 27-H ) :   0.9534 B( 25-C , 28-C ) :   1.0803
B( 28-C , 29-H ) :   0.9751 B( 28-C , 30-H ) :   0.9775 B( 28-C , 31-H ) :   0.9750

Dispersion correction           -0.013322439
FINAL SINGLE POINT ENERGY     -1339.882750859719

DIPOLE MOMENT
-------------
                                X             Y             Z
Electronic contribution:     18.22169      -8.00633     -20.24928
Nuclear contribution   :    -18.55257       8.00436      20.79739
                        -----------------------------------------
Total Dipole Moment    :     -0.33088      -0.00197       0.54811
                        -----------------------------------------
Magnitude (a.u.)       :      0.64024
Magnitude (Debye)      :      1.62737

Rotational constants in cm-1:     0.018104     0.007576     0.006028
Rotational constants in MHz :   542.751496   227.118944   180.704585

                             ****ORCA TERMINATED NORMALLY****
TOTAL RUN TIME: 0 days 0 hours 0 minutes 32 seconds 781 msec
