                         Program Version 4.2.1 -  RELEASE  -
|  1> ! wB97X-D3 SP def2-SVP
|  2> %pal
|  3> nprocs 16
|  4> end
|  5>
|  6> * xyz 0 1
|  7> S 	 -107.544 	 45.569 	 121.67
|  8> C 	 -107.451 	 46.3926 	 123.173
|  9> C 	 -106.198 	 46.4302 	 123.728
| 10> C 	 -105.289 	 45.6115 	 122.933
| 11> C 	 -105.818 	 45.1559 	 121.769
| 12> H 	 -104.349 	 45.2713 	 123.257
| 13> C 	 -105.871 	 46.8487 	 125.206
| 14> H 	 -105.163 	 46.1572 	 125.697
| 15> H 	 -106.766 	 46.7531 	 125.791
| 16> C 	 -105.428 	 48.3 	 125.319
| 17> H 	 -105.303 	 48.4066 	 126.357
| 18> H 	 -104.475 	 48.547 	 124.737
| 19> C 	 -106.631 	 49.1741 	 124.858
| 20> H 	 -106.898 	 49.8168 	 125.714
| 21> H 	 -106.205 	 49.8959 	 124.154
| 22> H 	 -107.56 	 48.6953 	 124.655
| 23> S 	 -106.155 	 42.8505 	 120.441
| 24> C 	 -104.931 	 42.2824 	 119.295
| 25> C 	 -103.746 	 42.9516 	 119.463
| 26> C 	 -103.879 	 44.0111 	 120.39
| 27> C 	 -105.183 	 44.2288 	 120.834
| 28> H 	 -102.983 	 42.5212 	 118.874
| 29> C 	 -102.648 	 44.9157 	 120.725
| 30> H 	 -103.001 	 45.9572 	 120.755
| 31> H 	 -102.042 	 44.8328 	 119.769
| 32> C 	 -101.811 	 44.4801 	 121.931
| 33> H 	 -101.322 	 43.5191 	 121.812
| 34> H 	 -102.487 	 44.3298 	 122.817
| 35> C 	 -100.804 	 45.6433 	 122.256
| 36> H 	 -100.199 	 45.524 	 123.173
| 37> H 	 -101.226 	 46.5841 	 122.409
| 38> H 	 -100.089 	 45.7672 	 121.489
| 39> H 	 -108.345 	 46.7549 	 123.631
| 40> H 	 -105.044 	 41.5093 	 118.617
| 41> *
| 42>
| 43>                          ****END OF INPUT****

CARTESIAN COORDINATES (ANGSTROEM)
---------------------------------
  S    -107.544000   45.569000  121.670000
  C    -107.451000   46.392600  123.173000
  C    -106.198000   46.430200  123.728000
  C    -105.289000   45.611500  122.933000
  C    -105.818000   45.155900  121.769000
  H    -104.349000   45.271300  123.257000
  C    -105.871000   46.848700  125.206000
  H    -105.163000   46.157200  125.697000
  H    -106.766000   46.753100  125.791000
  C    -105.428000   48.300000  125.319000
  H    -105.303000   48.406600  126.357000
  H    -104.475000   48.547000  124.737000
  C    -106.631000   49.174100  124.858000
  H    -106.898000   49.816800  125.714000
  H    -106.205000   49.895900  124.154000
  H    -107.560000   48.695300  124.655000
  S    -106.155000   42.850500  120.441000
  C    -104.931000   42.282400  119.295000
  C    -103.746000   42.951600  119.463000
  C    -103.879000   44.011100  120.390000
  C    -105.183000   44.228800  120.834000
  H    -102.983000   42.521200  118.874000
  C    -102.648000   44.915700  120.725000
  H    -103.001000   45.957200  120.755000
  H    -102.042000   44.832800  119.769000
  C    -101.811000   44.480100  121.931000
  H    -101.322000   43.519100  121.812000
  H    -102.487000   44.329800  122.817000
  C    -100.804000   45.643300  122.256000
  H    -100.199000   45.524000  123.173000
  H    -101.226000   46.584100  122.409000
  H    -100.089000   45.767200  121.489000
  H    -108.345000   46.754900  123.631000
  H    -105.044000   41.509300  118.617000

 Total Charge           Charge          ....    0
 Multiplicity           Mult            ....    1
 Number of Electrons    NEL             ....  134
 Basis Dimension        Dim             ....  322

ORBITAL ENERGIES
----------------

  NO   OCC          E(Eh)            E(eV)
   0   2.0000     -88.965358     -2420.8705
   1   2.0000     -88.960406     -2420.7357
   2   2.0000     -10.327409      -281.0231
   3   2.0000     -10.324692      -280.9492
   4   2.0000     -10.312144      -280.6077
   5   2.0000     -10.308393      -280.5056
   6   2.0000     -10.304669      -280.4043
   7   2.0000     -10.303314      -280.3674
   8   2.0000     -10.297117      -280.1988
   9   2.0000     -10.296121      -280.1717
  10   2.0000     -10.295341      -280.1505
  11   2.0000     -10.291112      -280.0354
  12   2.0000     -10.288802      -279.9725
  13   2.0000     -10.287301      -279.9317
  14   2.0000     -10.274817      -279.5920
  15   2.0000     -10.273278      -279.5501
  16   2.0000      -8.080487      -219.8812
  17   2.0000      -8.075459      -219.7444
  18   2.0000      -6.039009      -164.3298
  19   2.0000      -6.035039      -164.2218
  20   2.0000      -6.033934      -164.1917
  21   2.0000      -6.031103      -164.1146
  22   2.0000      -6.030023      -164.0853
  23   2.0000      -6.026126      -163.9792
  24   2.0000      -1.008063       -27.4308
  25   2.0000      -0.984983       -26.8027
  26   2.0000      -0.912136       -24.8205
  27   2.0000      -0.901417       -24.5288
  28   2.0000      -0.873524       -23.7698
  29   2.0000      -0.849557       -23.1176
  30   2.0000      -0.840658       -22.8755
  31   2.0000      -0.815833       -22.1999
  32   2.0000      -0.781271       -21.2595
  33   2.0000      -0.772225       -21.0133
  34   2.0000      -0.710447       -19.3322
  35   2.0000      -0.699905       -19.0454
  36   2.0000      -0.691850       -18.8262
  37   2.0000      -0.665247       -18.1023
  38   2.0000      -0.646554       -17.5936
  39   2.0000      -0.623183       -16.9577
  40   2.0000      -0.589165       -16.0320
  41   2.0000      -0.574103       -15.6221
  42   2.0000      -0.560117       -15.2416
  43   2.0000      -0.551004       -14.9936
  44   2.0000      -0.543276       -14.7833
  45   2.0000      -0.522007       -14.2045
  46   2.0000      -0.517947       -14.0940
  47   2.0000      -0.507675       -13.8145
  48   2.0000      -0.506763       -13.7897
  49   2.0000      -0.499582       -13.5943
  50   2.0000      -0.486920       -13.2498
  51   2.0000      -0.483192       -13.1483
  52   2.0000      -0.472516       -12.8578
  53   2.0000      -0.464410       -12.6372
  54   2.0000      -0.455925       -12.4063
  55   2.0000      -0.447564       -12.1788
  56   2.0000      -0.446655       -12.1541
  57   2.0000      -0.441489       -12.0135
  58   2.0000      -0.432655       -11.7731
  59   2.0000      -0.421822       -11.4784
  60   2.0000      -0.419928       -11.4268
  61   2.0000      -0.409723       -11.1491
  62   2.0000      -0.407490       -11.0884
  63   2.0000      -0.353408        -9.6167
  64   2.0000      -0.329437        -8.9644
  65   2.0000      -0.328024        -8.9260
  66   2.0000      -0.289981        -7.8908
  67   0.0000       0.025539         0.6949
  68   0.0000       0.078005         2.1226
  69   0.0000       0.106218         2.8903
  70   0.0000       0.125872         3.4252
  71   0.0000       0.132428         3.6035

MULLIKEN ATOMIC CHARGES
-----------------------
   0 S :    0.111514
   1 C :   -0.126466
   2 C :   -0.046363
   3 C :    0.037315
   4 C :   -0.127216
   5 H :   -0.028515
   6 C :    0.011057
   7 H :    0.031754
   8 H :    0.021268
   9 C :   -0.054612
  10 H :    0.021806
  11 H :    0.049411
  12 C :   -0.042784
  13 H :    0.018843
  14 H :    0.041368
  15 H :    0.023864
  16 S :    0.087815
  17 C :   -0.069272
  18 C :   -0.025458
  19 C :   -0.031143
  20 C :   -0.122988
  21 H :    0.006015
  22 C :    0.012548
  23 H :    0.040047
  24 H :    0.031907
  25 C :   -0.054101
  26 H :    0.032374
  27 H :    0.036419
  28 C :   -0.019951
  29 H :    0.026900
  30 H :    0.014132
  31 H :    0.018377
  32 H :    0.050519
  33 H :    0.023613
Sum of atomic charges:   -0.0000000

LOEWDIN ATOMIC CHARGES
----------------------
   0 S :    0.402624
   1 C :   -0.192478
   2 C :   -0.062087
   3 C :   -0.047904
   4 C :   -0.190725
   5 H :    0.019854
   6 C :   -0.026732
   7 H :    0.028923
   8 H :    0.025430
   9 C :   -0.038365
  10 H :    0.016397
  11 H :    0.032401
  12 C :   -0.069647
  13 H :    0.028655
  14 H :    0.034033
  15 H :    0.018443
  16 S :    0.398703
  17 C :   -0.163492
  18 C :   -0.069257
  19 C :   -0.060720
  20 C :   -0.197253
  21 H :    0.031665
  22 C :   -0.035558
  23 H :    0.032985
  24 H :    0.035219
  25 C :   -0.036848
  26 H :    0.026390
  27 H :    0.024646
  28 C :   -0.062451
  29 H :    0.028383
  30 H :    0.016970
  31 H :    0.019522
  32 H :    0.020025
  33 H :    0.012247

  Mayer bond orders larger than 0.100000
B(  0-S ,  1-C ) :   1.1487 B(  0-S ,  4-C ) :   1.1261 B(  1-C ,  2-C ) :   1.6278
B(  1-C , 32-H ) :   0.9613 B(  2-C ,  3-C ) :   1.2210 B(  2-C ,  6-C ) :   1.0055
B(  3-C ,  4-C ) :   1.6057 B(  3-C ,  5-H ) :   0.9999 B(  4-C , 20-C ) :   1.0435
B(  6-C ,  7-H ) :   0.9526 B(  6-C ,  8-H ) :   0.9540 B(  6-C ,  9-C ) :   1.0719
B(  9-C , 10-H ) :   0.9607 B(  9-C , 11-H ) :   0.9632 B(  9-C , 12-C ) :   1.0552
B( 12-C , 13-H ) :   0.9730 B( 12-C , 14-H ) :   0.9769 B( 12-C , 15-H ) :   0.9806
B( 16-S , 17-C ) :   1.1448 B( 16-S , 20-C ) :   1.1478 B( 17-C , 18-C ) :   1.6283
B( 17-C , 20-C ) :   0.1039 B( 17-C , 33-H ) :   0.9751 B( 18-C , 19-C ) :   1.2169
B( 18-C , 21-H ) :   1.0047 B( 19-C , 20-C ) :   1.5933 B( 19-C , 22-C ) :   1.0228
B( 22-C , 23-H ) :   0.9485 B( 22-C , 24-H ) :   0.9426 B( 22-C , 25-C ) :   1.0517
B( 25-C , 26-H ) :   0.9512 B( 25-C , 27-H ) :   0.9576 B( 25-C , 28-C ) :   1.0695
B( 28-C , 29-H ) :   0.9747 B( 28-C , 30-H ) :   0.9762 B( 28-C , 31-H ) :   0.9756

Dispersion correction           -0.014224782
FINAL SINGLE POINT ENERGY     -1339.853057456100

DIPOLE MOMENT
-------------
                                X             Y             Z
Electronic contribution:    -18.50793     -16.31115     -15.93974
Nuclear contribution   :     18.99585      16.40631      16.40642
                        -----------------------------------------
Total Dipole Moment    :      0.48792       0.09516       0.46668
                        -----------------------------------------
Magnitude (a.u.)       :      0.68184
Magnitude (Debye)      :      1.73311

Rotational constants in cm-1:     0.018503     0.009260     0.006524
Rotational constants in MHz :   554.698465   277.602430   195.591669

                             ****ORCA TERMINATED NORMALLY****
TOTAL RUN TIME: 0 days 0 hours 0 minutes 33 seconds 943 msec
