                         Program Version 4.2.1 -  RELEASE  -
|  1> ! wB97X-D3 SP def2-SVP
|  2> %pal
|  3> nprocs 16
|  4> end
|  5>
|  6> * xyz 0 1
|  7> S 	 -96.3957 	 52.6143 	 123.27
|  8> C 	 -98.0358 	 53.1677 	 123.236
|  9> C 	 -98.8933 	 52.2652 	 123.85
| 10> C 	 -98.2154 	 51.1841 	 124.479
| 11> C 	 -96.8099 	 51.2789 	 124.357
| 12> H 	 -98.7195 	 50.2551 	 124.873
| 13> C 	 -100.423 	 52.4648 	 123.837
| 14> H 	 -100.56 	 53.5095 	 124.013
| 15> H 	 -100.775 	 51.8682 	 124.695
| 16> C 	 -100.981 	 51.8784 	 122.55
| 17> H 	 -100.556 	 52.4268 	 121.682
| 18> H 	 -100.494 	 50.9232 	 122.638
| 19> C 	 -102.431 	 51.5502 	 122.353
| 20> H 	 -102.89 	 50.9437 	 123.13
| 21> H 	 -103.062 	 52.4925 	 122.246
| 22> H 	 -102.614 	 51.0522 	 121.424
| 23> S 	 -94.668 	 49.529 	 123.841
| 24> C 	 -93.9735 	 48.6956 	 125.194
| 25> C 	 -94.5618 	 49.0144 	 126.382
| 26> C 	 -95.6765 	 49.9411 	 126.247
| 27> C 	 -95.8175 	 50.362 	 124.954
| 28> H 	 -94.2243 	 48.4523 	 127.174
| 29> C 	 -96.6553 	 50.382 	 127.331
| 30> H 	 -97.152 	 51.311 	 127.097
| 31> H 	 -96.1207 	 50.77 	 128.213
| 32> C 	 -97.6624 	 49.2491 	 127.756
| 33> H 	 -97.0638 	 48.3031 	 127.973
| 34> H 	 -98.2833 	 48.8757 	 126.927
| 35> C 	 -98.3761 	 49.7558 	 128.995
| 36> H 	 -98.7826 	 50.7773 	 128.788
| 37> H 	 -97.6782 	 49.8346 	 129.824
| 38> H 	 -99.1174 	 49.0753 	 129.371
| 39> H 	 -98.1945 	 54.0569 	 122.694
| 40> H 	 -93.2019 	 47.951 	 125.094
| 41> *
| 42>
| 43>                          ****END OF INPUT****

CARTESIAN COORDINATES (ANGSTROEM)
---------------------------------
  S    -96.395700   52.614300  123.270000
  C    -98.035800   53.167700  123.236000
  C    -98.893300   52.265200  123.850000
  C    -98.215400   51.184100  124.479000
  C    -96.809900   51.278900  124.357000
  H    -98.719500   50.255100  124.873000
  C    -100.423000   52.464800  123.837000
  H    -100.560000   53.509500  124.013000
  H    -100.775000   51.868200  124.695000
  C    -100.981000   51.878400  122.550000
  H    -100.556000   52.426800  121.682000
  H    -100.494000   50.923200  122.638000
  C    -102.431000   51.550200  122.353000
  H    -102.890000   50.943700  123.130000
  H    -103.062000   52.492500  122.246000
  H    -102.614000   51.052200  121.424000
  S    -94.668000   49.529000  123.841000
  C    -93.973500   48.695600  125.194000
  C    -94.561800   49.014400  126.382000
  C    -95.676500   49.941100  126.247000
  C    -95.817500   50.362000  124.954000
  H    -94.224300   48.452300  127.174000
  C    -96.655300   50.382000  127.331000
  H    -97.152000   51.311000  127.097000
  H    -96.120700   50.770000  128.213000
  C    -97.662400   49.249100  127.756000
  H    -97.063800   48.303100  127.973000
  H    -98.283300   48.875700  126.927000
  C    -98.376100   49.755800  128.995000
  H    -98.782600   50.777300  128.788000
  H    -97.678200   49.834600  129.824000
  H    -99.117400   49.075300  129.371000
  H    -98.194500   54.056900  122.694000
  H    -93.201900   47.951000  125.094000

 Total Charge           Charge          ....    0
 Multiplicity           Mult            ....    1
 Number of Electrons    NEL             ....  134
 Basis Dimension        Dim             ....  322

ORBITAL ENERGIES
----------------

  NO   OCC          E(Eh)            E(eV)
   0   2.0000     -88.965871     -2420.8844
   1   2.0000     -88.961387     -2420.7624
   2   2.0000     -10.334189      -281.2076
   3   2.0000     -10.327513      -281.0259
   4   2.0000     -10.314419      -280.6696
   5   2.0000     -10.311045      -280.5778
   6   2.0000     -10.306843      -280.4635
   7   2.0000     -10.302602      -280.3480
   8   2.0000     -10.302304      -280.3399
   9   2.0000     -10.295357      -280.1509
  10   2.0000     -10.292446      -280.0717
  11   2.0000     -10.291493      -280.0458
  12   2.0000     -10.289620      -279.9948
  13   2.0000     -10.283291      -279.8226
  14   2.0000     -10.280109      -279.7360
  15   2.0000     -10.278915      -279.7035
  16   2.0000      -8.080685      -219.8866
  17   2.0000      -8.076069      -219.7610
  18   2.0000      -6.039034      -164.3305
  19   2.0000      -6.035153      -164.2249
  20   2.0000      -6.034578      -164.2092
  21   2.0000      -6.031645      -164.1294
  22   2.0000      -6.030716      -164.1041
  23   2.0000      -6.026704      -163.9949
  24   2.0000      -1.001394       -27.2493
  25   2.0000      -0.982182       -26.7265
  26   2.0000      -0.913818       -24.8663
  27   2.0000      -0.906118       -24.6567
  28   2.0000      -0.868051       -23.6209
  29   2.0000      -0.851529       -23.1713
  30   2.0000      -0.845470       -23.0064
  31   2.0000      -0.815798       -22.1990
  32   2.0000      -0.783076       -21.3086
  33   2.0000      -0.769310       -20.9340
  34   2.0000      -0.703831       -19.1522
  35   2.0000      -0.698783       -19.0148
  36   2.0000      -0.695135       -18.9156
  37   2.0000      -0.660105       -17.9624
  38   2.0000      -0.644202       -17.5296
  39   2.0000      -0.618522       -16.8308
  40   2.0000      -0.598427       -16.2840
  41   2.0000      -0.571357       -15.5474
  42   2.0000      -0.563770       -15.3410
  43   2.0000      -0.549927       -14.9643
  44   2.0000      -0.530419       -14.4334
  45   2.0000      -0.523702       -14.2507
  46   2.0000      -0.518541       -14.1102
  47   2.0000      -0.511310       -13.9135
  48   2.0000      -0.505236       -13.7482
  49   2.0000      -0.502973       -13.6866
  50   2.0000      -0.492124       -13.3914
  51   2.0000      -0.475929       -12.9507
  52   2.0000      -0.473307       -12.8793
  53   2.0000      -0.463467       -12.6116
  54   2.0000      -0.454987       -12.3808
  55   2.0000      -0.453351       -12.3363
  56   2.0000      -0.449536       -12.2325
  57   2.0000      -0.439802       -11.9676
  58   2.0000      -0.431662       -11.7461
  59   2.0000      -0.422722       -11.5028
  60   2.0000      -0.417617       -11.3639
  61   2.0000      -0.411722       -11.2035
  62   2.0000      -0.405887       -11.0448
  63   2.0000      -0.345285        -9.3957
  64   2.0000      -0.332121        -9.0375
  65   2.0000      -0.329461        -8.9651
  66   2.0000      -0.292359        -7.9555
  67   0.0000       0.031437         0.8555
  68   0.0000       0.067035         1.8241
  69   0.0000       0.111537         3.0351
  70   0.0000       0.126431         3.4404
  71   0.0000       0.130315         3.5461

MULLIKEN ATOMIC CHARGES
-----------------------
   0 S :    0.111906
   1 C :   -0.125787
   2 C :   -0.116693
   3 C :    0.013999
   4 C :   -0.168427
   5 H :    0.042344
   6 C :    0.111070
   7 H :    0.024530
   8 H :    0.014352
   9 C :   -0.080620
  10 H :    0.033747
  11 H :    0.019613
  12 C :   -0.019655
  13 H :    0.027652
  14 H :    0.026476
  15 H :    0.029639
  16 S :    0.090346
  17 C :   -0.089859
  18 C :   -0.000253
  19 C :   -0.002314
  20 C :   -0.153284
  21 H :   -0.013878
  22 C :    0.038335
  23 H :    0.028217
  24 H :    0.020391
  25 C :   -0.093814
  26 H :    0.032041
  27 H :    0.032161
  28 C :   -0.021616
  29 H :    0.038278
  30 H :    0.027889
  31 H :    0.030634
  32 H :    0.039188
  33 H :    0.053391
Sum of atomic charges:    0.0000000

LOEWDIN ATOMIC CHARGES
----------------------
   0 S :    0.411197
   1 C :   -0.194847
   2 C :   -0.063828
   3 C :   -0.070348
   4 C :   -0.190299
   5 H :    0.042621
   6 C :   -0.022316
   7 H :    0.022625
   8 H :    0.029701
   9 C :   -0.050230
  10 H :    0.029332
  11 H :    0.027711
  12 C :   -0.069132
  13 H :    0.024144
  14 H :    0.028340
  15 H :    0.026456
  16 S :    0.374820
  17 C :   -0.175909
  18 C :   -0.065391
  19 C :   -0.048242
  20 C :   -0.180680
  21 H :    0.019212
  22 C :   -0.034401
  23 H :    0.029256
  24 H :    0.032642
  25 C :   -0.042896
  26 H :    0.029107
  27 H :    0.021452
  28 C :   -0.065753
  29 H :    0.031498
  30 H :    0.026504
  31 H :    0.022567
  32 H :    0.017237
  33 H :    0.027852

  Mayer bond orders larger than 0.100000
B(  0-S ,  1-C ) :   1.1577 B(  0-S ,  4-C ) :   1.1731 B(  1-C ,  2-C ) :   1.5632
B(  1-C ,  4-C ) :   0.1079 B(  1-C , 32-H ) :   0.9832 B(  2-C ,  3-C ) :   1.2817
B(  2-C ,  6-C ) :   1.0117 B(  3-C ,  4-C ) :   1.5330 B(  3-C ,  5-H ) :   0.9790
B(  4-C , 20-C ) :   1.0347 B(  6-C ,  7-H ) :   0.9408 B(  6-C ,  8-H ) :   0.9370
B(  6-C ,  9-C ) :   1.0554 B(  9-C , 10-H ) :   0.9553 B(  9-C , 11-H ) :   0.9519
B(  9-C , 12-C ) :   1.0977 B( 12-C , 13-H ) :   0.9708 B( 12-C , 14-H ) :   0.9699
B( 12-C , 15-H ) :   0.9699 B( 16-S , 17-C ) :   1.1419 B( 16-S , 20-C ) :   1.1174
B( 17-C , 18-C ) :   1.6574 B( 17-C , 33-H ) :   0.9659 B( 18-C , 19-C ) :   1.1714
B( 18-C , 21-H ) :   1.0065 B( 19-C , 20-C ) :   1.6537 B( 19-C , 22-C ) :   1.0462
B( 22-C , 23-H ) :   0.9293 B( 22-C , 24-H ) :   0.9379 B( 22-C , 25-C ) :   1.0387
B( 25-C , 26-H ) :   0.9571 B( 25-C , 27-H ) :   0.9557 B( 25-C , 28-C ) :   1.0733
B( 28-C , 29-H ) :   0.9719 B( 28-C , 30-H ) :   0.9733 B( 28-C , 31-H ) :   0.9721

Dispersion correction           -0.014120070
FINAL SINGLE POINT ENERGY     -1339.876283509346

DIPOLE MOMENT
-------------
                                X             Y             Z
Electronic contribution:     26.59373       2.27735     -11.55494
Nuclear contribution   :    -27.07600      -2.50213      11.91861
                        -----------------------------------------
Total Dipole Moment    :     -0.48227      -0.22478       0.36367
                        -----------------------------------------
Magnitude (a.u.)       :      0.64449
Magnitude (Debye)      :      1.63817

Rotational constants in cm-1:     0.017494     0.008497     0.006551
Rotational constants in MHz :   524.458312   254.726324   196.393130

                             ****ORCA TERMINATED NORMALLY****
TOTAL RUN TIME: 0 days 0 hours 0 minutes 33 seconds 483 msec
