                         Program Version 4.2.1 -  RELEASE  -
|  1> ! wB97X-D3 SP def2-SVP
|  2> %pal
|  3> nprocs 16
|  4> end
|  5>
|  6> * xyz 0 1
|  7> S 	 -9.74898 	 -12.5657 	 87.0162
|  8> C 	 -11.1579 	 -13.605 	 87.164
|  9> C 	 -12.2286 	 -13.1846 	 86.3937
| 10> C 	 -11.9292 	 -11.9379 	 85.7081
| 11> C 	 -10.7608 	 -11.3592 	 86.1548
| 12> H 	 -12.5837 	 -11.4352 	 84.9692
| 13> C 	 -13.4752 	 -14.0291 	 86.0925
| 14> H 	 -14.1359 	 -13.7793 	 86.9177
| 15> H 	 -13.21 	 -15.0654 	 86.2504
| 16> C 	 -14.2362 	 -13.7449 	 84.8559
| 17> H 	 -14.5959 	 -12.717 	 84.7203
| 18> H 	 -13.5296 	 -13.9024 	 83.9678
| 19> C 	 -15.5318 	 -14.5195 	 84.6454
| 20> H 	 -15.1159 	 -15.5289 	 84.3577
| 21> H 	 -16.0675 	 -14.6995 	 85.5636
| 22> H 	 -16.1752 	 -13.9859 	 83.979
| 23> S 	 -8.48869 	 -10.0449 	 85.4702
| 24> C 	 -8.51972 	 -8.30477 	 85.1872
| 25> C 	 -9.80989 	 -7.84392 	 85.013
| 26> C 	 -10.788 	 -8.84423 	 85.2504
| 27> C 	 -10.2295 	 -10.0687 	 85.7134
| 28> H 	 -9.94295 	 -6.78889 	 84.7448
| 29> C 	 -12.2596 	 -8.46051 	 85.2862
| 30> H 	 -12.7198 	 -9.02121 	 84.4798
| 31> H 	 -12.2673 	 -7.42419 	 84.9802
| 32> C 	 -12.9636 	 -8.5248 	 86.6972
| 33> H 	 -12.3937 	 -7.85193 	 87.3536
| 34> H 	 -12.9883 	 -9.49071 	 87.2187
| 35> C 	 -14.3231 	 -8.02975 	 86.5637
| 36> H 	 -14.814 	 -7.94699 	 87.5349
| 37> H 	 -14.8341 	 -8.75904 	 85.9308
| 38> H 	 -14.1796 	 -7.0127 	 86.1884
| 39> H 	 -11.1334 	 -14.4846 	 87.8108
| 40> H 	 -7.54594 	 -7.7114 	 85.0629
| 41> *
| 42>
| 43>                          ****END OF INPUT****

CARTESIAN COORDINATES (ANGSTROEM)
---------------------------------
  S     -9.748980  -12.565700   87.016200
  C    -11.157900  -13.605000   87.164000
  C    -12.228600  -13.184600   86.393700
  C    -11.929200  -11.937900   85.708100
  C    -10.760800  -11.359200   86.154800
  H    -12.583700  -11.435200   84.969200
  C    -13.475200  -14.029100   86.092500
  H    -14.135900  -13.779300   86.917700
  H    -13.210000  -15.065400   86.250400
  C    -14.236200  -13.744900   84.855900
  H    -14.595900  -12.717000   84.720300
  H    -13.529600  -13.902400   83.967800
  C    -15.531800  -14.519500   84.645400
  H    -15.115900  -15.528900   84.357700
  H    -16.067500  -14.699500   85.563600
  H    -16.175200  -13.985900   83.979000
  S     -8.488690  -10.044900   85.470200
  C     -8.519720   -8.304770   85.187200
  C     -9.809890   -7.843920   85.013000
  C    -10.788000   -8.844230   85.250400
  C    -10.229500  -10.068700   85.713400
  H     -9.942950   -6.788890   84.744800
  C    -12.259600   -8.460510   85.286200
  H    -12.719800   -9.021210   84.479800
  H    -12.267300   -7.424190   84.980200
  C    -12.963600   -8.524800   86.697200
  H    -12.393700   -7.851930   87.353600
  H    -12.988300   -9.490710   87.218700
  C    -14.323100   -8.029750   86.563700
  H    -14.814000   -7.946990   87.534900
  H    -14.834100   -8.759040   85.930800
  H    -14.179600   -7.012700   86.188400
  H    -11.133400  -14.484600   87.810800
  H     -7.545940   -7.711400   85.062900

 Total Charge           Charge          ....    0
 Multiplicity           Mult            ....    1
 Number of Electrons    NEL             ....  134
 Basis Dimension        Dim             ....  322

ORBITAL ENERGIES
----------------

  NO   OCC          E(Eh)            E(eV)
   0   2.0000     -88.966540     -2420.9026
   1   2.0000     -88.962326     -2420.7880
   2   2.0000     -10.332938      -281.1735
   3   2.0000     -10.329342      -281.0757
   4   2.0000     -10.321293      -280.8567
   5   2.0000     -10.315143      -280.6893
   6   2.0000     -10.306147      -280.4445
   7   2.0000     -10.305691      -280.4321
   8   2.0000     -10.298355      -280.2325
   9   2.0000     -10.295574      -280.1568
  10   2.0000     -10.292695      -280.0785
  11   2.0000     -10.292570      -280.0751
  12   2.0000     -10.290714      -280.0246
  13   2.0000     -10.281699      -279.7792
  14   2.0000     -10.281163      -279.7647
  15   2.0000     -10.271597      -279.5044
  16   2.0000      -8.080469      -219.8807
  17   2.0000      -8.077018      -219.7868
  18   2.0000      -6.039174      -164.3343
  19   2.0000      -6.035492      -164.2341
  20   2.0000      -6.035363      -164.2306
  21   2.0000      -6.031622      -164.1288
  22   2.0000      -6.030803      -164.1065
  23   2.0000      -6.027753      -164.0235
  24   2.0000      -1.001259       -27.2456
  25   2.0000      -0.978571       -26.6283
  26   2.0000      -0.918429       -24.9917
  27   2.0000      -0.913856       -24.8673
  28   2.0000      -0.869836       -23.6694
  29   2.0000      -0.856862       -23.3164
  30   2.0000      -0.846124       -23.0242
  31   2.0000      -0.814592       -22.1662
  32   2.0000      -0.781118       -21.2553
  33   2.0000      -0.766017       -20.8444
  34   2.0000      -0.706189       -19.2164
  35   2.0000      -0.692898       -18.8547
  36   2.0000      -0.681788       -18.5524
  37   2.0000      -0.659434       -17.9441
  38   2.0000      -0.634548       -17.2669
  39   2.0000      -0.619551       -16.8589
  40   2.0000      -0.590140       -16.0585
  41   2.0000      -0.578162       -15.7326
  42   2.0000      -0.575629       -15.6637
  43   2.0000      -0.562834       -15.3155
  44   2.0000      -0.536393       -14.5960
  45   2.0000      -0.529715       -14.4143
  46   2.0000      -0.511227       -13.9112
  47   2.0000      -0.508310       -13.8318
  48   2.0000      -0.504232       -13.7209
  49   2.0000      -0.501642       -13.6504
  50   2.0000      -0.493656       -13.4331
  51   2.0000      -0.481959       -13.1148
  52   2.0000      -0.473399       -12.8818
  53   2.0000      -0.463805       -12.6208
  54   2.0000      -0.455274       -12.3886
  55   2.0000      -0.447073       -12.1655
  56   2.0000      -0.446086       -12.1386
  57   2.0000      -0.439031       -11.9466
  58   2.0000      -0.424973       -11.5641
  59   2.0000      -0.421034       -11.4569
  60   2.0000      -0.419083       -11.4038
  61   2.0000      -0.418130       -11.3779
  62   2.0000      -0.404239       -10.9999
  63   2.0000      -0.353585        -9.6215
  64   2.0000      -0.332414        -9.0455
  65   2.0000      -0.324794        -8.8381
  66   2.0000      -0.278460        -7.5773
  67   0.0000       0.014960         0.4071
  68   0.0000       0.074209         2.0193
  69   0.0000       0.094812         2.5800
  70   0.0000       0.121625         3.3096
  71   0.0000       0.135788         3.6950

MULLIKEN ATOMIC CHARGES
-----------------------
   0 S :    0.098476
   1 C :   -0.137968
   2 C :   -0.085953
   3 C :   -0.019196
   4 C :   -0.102711
   5 H :    0.028341
   6 C :    0.117904
   7 H :    0.026708
   8 H :    0.022985
   9 C :   -0.144285
  10 H :    0.027067
  11 H :    0.040788
  12 C :   -0.020044
  13 H :    0.037776
  14 H :    0.022776
  15 H :    0.039077
  16 S :    0.080804
  17 C :   -0.122284
  18 C :   -0.044404
  19 C :   -0.038983
  20 C :   -0.143636
  21 H :    0.030022
  22 C :    0.052934
  23 H :    0.030864
  24 H :    0.003889
  25 C :   -0.076111
  26 H :    0.025273
  27 H :    0.042409
  28 C :   -0.017329
  29 H :    0.032774
  30 H :    0.030829
  31 H :    0.023778
  32 H :    0.053552
  33 H :    0.083879
Sum of atomic charges:   -0.0000000

LOEWDIN ATOMIC CHARGES
----------------------
   0 S :    0.377005
   1 C :   -0.196627
   2 C :   -0.057350
   3 C :   -0.064141
   4 C :   -0.177472
   5 H :    0.036260
   6 C :   -0.035055
   7 H :    0.036057
   8 H :    0.030721
   9 C :   -0.055901
  10 H :    0.021821
  11 H :    0.030046
  12 C :   -0.059049
  13 H :    0.034785
  14 H :    0.021721
  15 H :    0.025887
  16 S :    0.390640
  17 C :   -0.192196
  18 C :   -0.079725
  19 C :   -0.060213
  20 C :   -0.186968
  21 H :    0.038067
  22 C :   -0.029362
  23 H :    0.026657
  24 H :    0.027668
  25 C :   -0.041038
  26 H :    0.025157
  27 H :    0.025279
  28 C :   -0.063514
  29 H :    0.026455
  30 H :    0.026240
  31 H :    0.025782
  32 H :    0.028563
  33 H :    0.043800

  Mayer bond orders larger than 0.100000
B(  0-S ,  1-C ) :   1.1215 B(  0-S ,  4-C ) :   1.1347 B(  1-C ,  2-C ) :   1.6330
B(  1-C , 32-H ) :   0.9685 B(  2-C ,  3-C ) :   1.2236 B(  2-C ,  6-C ) :   1.0038
B(  3-C ,  4-C ) :   1.5633 B(  3-C ,  5-H ) :   0.9856 B(  4-C , 20-C ) :   1.0911
B(  6-C ,  7-H ) :   0.9126 B(  6-C ,  8-H ) :   0.9454 B(  6-C ,  9-C ) :   1.0927
B(  9-C , 10-H ) :   0.9454 B(  9-C , 11-H ) :   0.9552 B(  9-C , 12-C ) :   1.0727
B( 12-C , 13-H ) :   0.9761 B( 12-C , 14-H ) :   0.9745 B( 12-C , 15-H ) :   0.9776
B( 16-S , 17-C ) :   1.1529 B( 16-S , 20-C ) :   1.1460 B( 17-C , 18-C ) :   1.6007
B( 17-C , 20-C ) :   0.1045 B( 17-C , 33-H ) :   0.9574 B( 18-C , 19-C ) :   1.2573
B( 18-C , 21-H ) :   0.9869 B( 19-C , 20-C ) :   1.5477 B( 19-C , 22-C ) :   1.0451
B( 22-C , 23-H ) :   0.9260 B( 22-C , 24-H ) :   0.9347 B( 22-C , 25-C ) :   1.0533
B( 25-C , 26-H ) :   0.9526 B( 25-C , 27-H ) :   0.9528 B( 25-C , 28-C ) :   1.0953
B( 28-C , 29-H ) :   0.9691 B( 28-C , 30-H ) :   0.9729 B( 28-C , 31-H ) :   0.9725

Dispersion correction           -0.014014542
FINAL SINGLE POINT ENERGY     -1339.857772176981

DIPOLE MOMENT
-------------
                                X             Y             Z
Electronic contribution:     31.07653      -0.32060       3.50205
Nuclear contribution   :    -31.76239       0.43126      -3.61488
                        -----------------------------------------
Total Dipole Moment    :     -0.68587       0.11066      -0.11282
                        -----------------------------------------
Magnitude (a.u.)       :      0.70384
Magnitude (Debye)      :      1.78902

Rotational constants in cm-1:     0.017290     0.009203     0.006766
Rotational constants in MHz :   518.326507   275.894885   202.832443

                             ****ORCA TERMINATED NORMALLY****
TOTAL RUN TIME: 0 days 0 hours 0 minutes 31 seconds 905 msec
