                         Program Version 4.2.1 -  RELEASE  -
|  1> ! wB97X-D3 SP def2-SVP
|  2> %pal
|  3> nprocs 16
|  4> end
|  5>
|  6> * xyz 0 1
|  7> S 	 41.7382 	 11.6009 	 81.5124
|  8> C 	 41.7757 	 10.6943 	 80.0075
|  9> C 	 40.8439 	 11.1177 	 79.0602
| 10> C 	 39.9967 	 12.048 	 79.6351
| 11> C 	 40.3124 	 12.4588 	 80.9118
| 12> H 	 39.177 	 12.5688 	 79.2292
| 13> C 	 40.7765 	 10.5831 	 77.5836
| 14> H 	 39.8178 	 10.0991 	 77.39
| 15> H 	 41.5283 	 9.8074 	 77.4118
| 16> C 	 40.95 	 11.651 	 76.4927
| 17> H 	 40.3669 	 12.5855 	 76.6358
| 18> H 	 41.976 	 11.902 	 76.5702
| 19> C 	 40.5229 	 11.1107 	 75.1306
| 20> H 	 39.4204 	 11.059 	 75.1019
| 21> H 	 40.9407 	 11.8252 	 74.3935
| 22> H 	 40.9578 	 10.1187 	 74.9332
| 23> S 	 37.8873 	 13.5731 	 81.5107
| 24> C 	 37.8175 	 14.5891 	 82.9415
| 25> C 	 39.081 	 14.9353 	 83.3338
| 26> C 	 40.1626 	 14.2913 	 82.6834
| 27> C 	 39.6463 	 13.5123 	 81.6744
| 28> H 	 39.0196 	 15.6936 	 84.1399
| 29> C 	 41.536 	 14.6622 	 82.9132
| 30> H 	 42.1814 	 13.8914 	 83.1589
| 31> H 	 41.5271 	 15.3286 	 83.7891
| 32> C 	 42.1687 	 15.5202 	 81.8241
| 33> H 	 41.6868 	 16.442 	 81.713
| 34> H 	 42.1799 	 15.1042 	 80.8745
| 35> C 	 43.6144 	 15.7855 	 82.055
| 36> H 	 44.0391 	 14.8445 	 82.4355
| 37> H 	 43.7856 	 16.6083 	 82.6965
| 38> H 	 44.0237 	 16.0588 	 81.035
| 39> H 	 42.5668 	 10.0009 	 79.7015
| 40> H 	 36.9325 	 15.1445 	 83.2319
| 41> *
| 42>
| 43>                          ****END OF INPUT****

CARTESIAN COORDINATES (ANGSTROEM)
---------------------------------
  S     41.738200   11.600900   81.512400
  C     41.775700   10.694300   80.007500
  C     40.843900   11.117700   79.060200
  C     39.996700   12.048000   79.635100
  C     40.312400   12.458800   80.911800
  H     39.177000   12.568800   79.229200
  C     40.776500   10.583100   77.583600
  H     39.817800   10.099100   77.390000
  H     41.528300    9.807400   77.411800
  C     40.950000   11.651000   76.492700
  H     40.366900   12.585500   76.635800
  H     41.976000   11.902000   76.570200
  C     40.522900   11.110700   75.130600
  H     39.420400   11.059000   75.101900
  H     40.940700   11.825200   74.393500
  H     40.957800   10.118700   74.933200
  S     37.887300   13.573100   81.510700
  C     37.817500   14.589100   82.941500
  C     39.081000   14.935300   83.333800
  C     40.162600   14.291300   82.683400
  C     39.646300   13.512300   81.674400
  H     39.019600   15.693600   84.139900
  C     41.536000   14.662200   82.913200
  H     42.181400   13.891400   83.158900
  H     41.527100   15.328600   83.789100
  C     42.168700   15.520200   81.824100
  H     41.686800   16.442000   81.713000
  H     42.179900   15.104200   80.874500
  C     43.614400   15.785500   82.055000
  H     44.039100   14.844500   82.435500
  H     43.785600   16.608300   82.696500
  H     44.023700   16.058800   81.035000
  H     42.566800   10.000900   79.701500
  H     36.932500   15.144500   83.231900

 Total Charge           Charge          ....    0
 Multiplicity           Mult            ....    1
 Number of Electrons    NEL             ....  134
 Basis Dimension        Dim             ....  322

ORBITAL ENERGIES
----------------

  NO   OCC          E(Eh)            E(eV)
   0   2.0000     -88.970538     -2421.0114
   1   2.0000     -88.964418     -2420.8449
   2   2.0000     -10.326967      -281.0111
   3   2.0000     -10.326207      -280.9904
   4   2.0000     -10.314818      -280.6805
   5   2.0000     -10.312715      -280.6232
   6   2.0000     -10.303028      -280.3596
   7   2.0000     -10.298362      -280.2327
   8   2.0000     -10.297772      -280.2166
   9   2.0000     -10.293229      -280.0930
  10   2.0000     -10.285439      -279.8810
  11   2.0000     -10.284133      -279.8455
  12   2.0000     -10.283779      -279.8358
  13   2.0000     -10.282251      -279.7943
  14   2.0000     -10.272236      -279.5218
  15   2.0000     -10.265711      -279.3442
  16   2.0000      -8.084283      -219.9845
  17   2.0000      -8.078986      -219.8404
  18   2.0000      -6.042764      -164.4320
  19   2.0000      -6.039020      -164.3301
  20   2.0000      -6.037518      -164.2892
  21   2.0000      -6.035065      -164.2225
  22   2.0000      -6.033662      -164.1843
  23   2.0000      -6.029604      -164.0739
  24   2.0000      -1.009286       -27.4641
  25   2.0000      -0.985505       -26.8170
  26   2.0000      -0.923668       -25.1343
  27   2.0000      -0.910534       -24.7769
  28   2.0000      -0.869636       -23.6640
  29   2.0000      -0.863433       -23.4952
  30   2.0000      -0.850251       -23.1365
  31   2.0000      -0.811954       -22.0944
  32   2.0000      -0.786317       -21.3968
  33   2.0000      -0.770856       -20.9761
  34   2.0000      -0.706760       -19.2319
  35   2.0000      -0.697491       -18.9797
  36   2.0000      -0.689912       -18.7735
  37   2.0000      -0.670169       -18.2362
  38   2.0000      -0.633891       -17.2490
  39   2.0000      -0.623023       -16.9533
  40   2.0000      -0.604683       -16.4543
  41   2.0000      -0.576840       -15.6966
  42   2.0000      -0.570976       -15.5370
  43   2.0000      -0.563083       -15.3223
  44   2.0000      -0.531927       -14.4745
  45   2.0000      -0.522910       -14.2291
  46   2.0000      -0.521136       -14.1808
  47   2.0000      -0.512262       -13.9393
  48   2.0000      -0.505925       -13.7669
  49   2.0000      -0.496018       -13.4973
  50   2.0000      -0.485094       -13.2001
  51   2.0000      -0.480719       -13.0810
  52   2.0000      -0.475295       -12.9334
  53   2.0000      -0.466143       -12.6844
  54   2.0000      -0.456148       -12.4124
  55   2.0000      -0.444475       -12.0948
  56   2.0000      -0.441599       -12.0165
  57   2.0000      -0.438881       -11.9426
  58   2.0000      -0.435575       -11.8526
  59   2.0000      -0.428069       -11.6483
  60   2.0000      -0.426137       -11.5958
  61   2.0000      -0.419244       -11.4082
  62   2.0000      -0.411805       -11.2058
  63   2.0000      -0.354862        -9.6563
  64   2.0000      -0.337484        -9.1834
  65   2.0000      -0.331805        -9.0289
  66   2.0000      -0.281120        -7.6497
  67   0.0000       0.019797         0.5387
  68   0.0000       0.080667         2.1951
  69   0.0000       0.100911         2.7459
  70   0.0000       0.115030         3.1301
  71   0.0000       0.134892         3.6706

MULLIKEN ATOMIC CHARGES
-----------------------
   0 S :    0.104041
   1 C :   -0.126016
   2 C :   -0.044895
   3 C :    0.006626
   4 C :   -0.117342
   5 H :   -0.012066
   6 C :    0.069369
   7 H :    0.027812
   8 H :    0.017833
   9 C :   -0.093815
  10 H :    0.039642
  11 H :    0.022936
  12 C :   -0.058826
  13 H :    0.044731
  14 H :    0.043339
  15 H :    0.031673
  16 S :    0.086448
  17 C :   -0.097560
  18 C :   -0.059578
  19 C :   -0.026297
  20 C :   -0.135433
  21 H :    0.025443
  22 C :    0.090011
  23 H :    0.005637
  24 H :    0.014508
  25 C :   -0.025400
  26 H :    0.006026
  27 H :    0.012210
  28 C :   -0.047318
  29 H :    0.030108
  30 H :    0.025148
  31 H :    0.035757
  32 H :    0.046867
  33 H :    0.058380
Sum of atomic charges:   -0.0000000

LOEWDIN ATOMIC CHARGES
----------------------
   0 S :    0.401458
   1 C :   -0.198797
   2 C :   -0.059422
   3 C :   -0.065903
   4 C :   -0.180042
   5 H :    0.018619
   6 C :   -0.024629
   7 H :    0.027814
   8 H :    0.028671
   9 C :   -0.044509
  10 H :    0.027967
  11 H :    0.017870
  12 C :   -0.064989
  13 H :    0.029140
  14 H :    0.032440
  15 H :    0.023600
  16 S :    0.392293
  17 C :   -0.189377
  18 C :   -0.068428
  19 C :   -0.065392
  20 C :   -0.176432
  21 H :    0.037192
  22 C :   -0.032723
  23 H :    0.013397
  24 H :    0.038642
  25 C :   -0.030870
  26 H :    0.017968
  27 H :    0.016728
  28 C :   -0.056316
  29 H :    0.025889
  30 H :    0.014661
  31 H :    0.035337
  32 H :    0.028367
  33 H :    0.029777

  Mayer bond orders larger than 0.100000
B(  0-S ,  1-C ) :   1.1421 B(  0-S ,  4-C ) :   1.1319 B(  1-C ,  2-C ) :   1.6110
B(  1-C , 32-H ) :   0.9579 B(  2-C ,  3-C ) :   1.2496 B(  2-C ,  6-C ) :   1.0113
B(  3-C ,  4-C ) :   1.5600 B(  3-C ,  5-H ) :   1.0011 B(  4-C , 20-C ) :   1.0709
B(  6-C ,  7-H ) :   0.9471 B(  6-C ,  8-H ) :   0.9421 B(  6-C ,  9-C ) :   1.0521
B(  9-C , 10-H ) :   0.9598 B(  9-C , 11-H ) :   0.9568 B(  9-C , 12-C ) :   1.0800
B( 12-C , 13-H ) :   0.9753 B( 12-C , 14-H ) :   0.9735 B( 12-C , 15-H ) :   0.9739
B( 16-S , 17-C ) :   1.1327 B( 16-S , 20-C ) :   1.1389 B( 17-C , 18-C ) :   1.6518
B( 17-C , 33-H ) :   0.9602 B( 18-C , 19-C ) :   1.2152 B( 18-C , 21-H ) :   0.9813
B( 19-C , 20-C ) :   1.5640 B( 19-C , 22-C ) :   1.0745 B( 22-C , 23-H ) :   0.9138
B( 22-C , 24-H ) :   0.9231 B( 22-C , 25-C ) :   1.0717 B( 25-C , 26-H ) :   0.9466
B( 25-C , 27-H ) :   0.9574 B( 25-C , 28-C ) :   1.0868 B( 28-C , 29-H ) :   0.9729
B( 28-C , 30-H ) :   0.9779 B( 28-C , 31-H ) :   0.9762

Dispersion correction           -0.013888163
FINAL SINGLE POINT ENERGY     -1339.864926899489

DIPOLE MOMENT
-------------
                                X             Y             Z
Electronic contribution:    -12.45662      -5.10314      16.14141
Nuclear contribution   :     12.64826       5.45307     -16.48191
                        -----------------------------------------
Total Dipole Moment    :      0.19164       0.34993      -0.34050
                        -----------------------------------------
Magnitude (a.u.)       :      0.52452
Magnitude (Debye)      :      1.33323

Rotational constants in cm-1:     0.018763     0.008236     0.006958
Rotational constants in MHz :   562.496312   246.899902   208.591126

                             ****ORCA TERMINATED NORMALLY****
TOTAL RUN TIME: 0 days 0 hours 0 minutes 29 seconds 940 msec
