                         Program Version 4.2.1 -  RELEASE  -
|  1> ! wB97X-D3 SP def2-SVP
|  2> %pal
|  3> nprocs 16
|  4> end
|  5>
|  6> * xyz 0 1
|  7> S 	 -93.0712 	 55.84 	 126.867
|  8> C 	 -92.287 	 54.3848 	 127.473
|  9> C 	 -91.8277 	 54.4947 	 128.756
| 10> C 	 -91.8051 	 55.88 	 129.155
| 11> C 	 -92.3099 	 56.7525 	 128.122
| 12> H 	 -91.3763 	 56.3253 	 130.058
| 13> C 	 -91.2016 	 53.3812 	 129.622
| 14> H 	 -90.1789 	 53.5248 	 129.779
| 15> H 	 -91.3194 	 52.5075 	 128.957
| 16> C 	 -91.8976 	 53.2627 	 130.943
| 17> H 	 -91.6186 	 54.1365 	 131.474
| 18> H 	 -93.0392 	 53.2613 	 130.878
| 19> C 	 -91.4202 	 52.0257 	 131.706
| 20> H 	 -91.384 	 51.1375 	 131.074
| 21> H 	 -90.3668 	 52.1849 	 132.112
| 22> H 	 -92.0365 	 51.5991 	 132.526
| 23> S 	 -93.7279 	 59.031 	 128.64
| 24> C 	 -93.0751 	 60.5915 	 128.243
| 25> C 	 -91.8487 	 60.4737 	 127.65
| 26> C 	 -91.367 	 59.1501 	 127.599
| 27> C 	 -92.2998 	 58.2503 	 128.072
| 28> H 	 -91.34 	 61.3631 	 127.257
| 29> C 	 -90.0772 	 58.717 	 126.868
| 30> H 	 -90.029 	 59.3884 	 126.062
| 31> H 	 -90.0254 	 57.6605 	 126.487
| 32> C 	 -88.8073 	 58.8739 	 127.743
| 33> H 	 -88.8992 	 58.1324 	 128.537
| 34> H 	 -88.7816 	 59.9473 	 128.141
| 35> C 	 -87.4717 	 58.7184 	 126.99
| 36> H 	 -86.6427 	 59.1321 	 127.641
| 37> H 	 -87.5234 	 59.3559 	 126.113
| 38> H 	 -87.3043 	 57.692 	 126.635
| 39> H 	 -92.2714 	 53.4366 	 127.032
| 40> H 	 -93.5924 	 61.586 	 128.147
| 41> *
| 42>
| 43>                          ****END OF INPUT****

CARTESIAN COORDINATES (ANGSTROEM)
---------------------------------
  S    -93.071200   55.840000  126.867000
  C    -92.287000   54.384800  127.473000
  C    -91.827700   54.494700  128.756000
  C    -91.805100   55.880000  129.155000
  C    -92.309900   56.752500  128.122000
  H    -91.376300   56.325300  130.058000
  C    -91.201600   53.381200  129.622000
  H    -90.178900   53.524800  129.779000
  H    -91.319400   52.507500  128.957000
  C    -91.897600   53.262700  130.943000
  H    -91.618600   54.136500  131.474000
  H    -93.039200   53.261300  130.878000
  C    -91.420200   52.025700  131.706000
  H    -91.384000   51.137500  131.074000
  H    -90.366800   52.184900  132.112000
  H    -92.036500   51.599100  132.526000
  S    -93.727900   59.031000  128.640000
  C    -93.075100   60.591500  128.243000
  C    -91.848700   60.473700  127.650000
  C    -91.367000   59.150100  127.599000
  C    -92.299800   58.250300  128.072000
  H    -91.340000   61.363100  127.257000
  C    -90.077200   58.717000  126.868000
  H    -90.029000   59.388400  126.062000
  H    -90.025400   57.660500  126.487000
  C    -88.807300   58.873900  127.743000
  H    -88.899200   58.132400  128.537000
  H    -88.781600   59.947300  128.141000
  C    -87.471700   58.718400  126.990000
  H    -86.642700   59.132100  127.641000
  H    -87.523400   59.355900  126.113000
  H    -87.304300   57.692000  126.635000
  H    -92.271400   53.436600  127.032000
  H    -93.592400   61.586000  128.147000

 Total Charge           Charge          ....    0
 Multiplicity           Mult            ....    1
 Number of Electrons    NEL             ....  134
 Basis Dimension        Dim             ....  322

ORBITAL ENERGIES
----------------

  NO   OCC          E(Eh)            E(eV)
   0   2.0000     -88.969417     -2420.9809
   1   2.0000     -88.965035     -2420.8617
   2   2.0000     -10.333829      -281.1978
   3   2.0000     -10.323670      -280.9213
   4   2.0000     -10.315818      -280.7077
   5   2.0000     -10.309093      -280.5247
   6   2.0000     -10.302220      -280.3377
   7   2.0000     -10.301759      -280.3251
   8   2.0000     -10.301558      -280.3197
   9   2.0000     -10.292366      -280.0695
  10   2.0000     -10.291676      -280.0507
  11   2.0000     -10.290033      -280.0060
  12   2.0000     -10.289828      -280.0005
  13   2.0000     -10.287890      -279.9477
  14   2.0000     -10.285264      -279.8763
  15   2.0000     -10.280975      -279.7596
  16   2.0000      -8.084082      -219.9791
  17   2.0000      -8.080382      -219.8784
  18   2.0000      -6.042539      -164.4259
  19   2.0000      -6.038881      -164.3263
  20   2.0000      -6.038726      -164.3221
  21   2.0000      -6.034769      -164.2144
  22   2.0000      -6.034683      -164.2121
  23   2.0000      -6.031240      -164.1184
  24   2.0000      -1.007567       -27.4173
  25   2.0000      -0.986208       -26.8361
  26   2.0000      -0.918475       -24.9930
  27   2.0000      -0.902930       -24.5700
  28   2.0000      -0.867303       -23.6005
  29   2.0000      -0.848474       -23.0882
  30   2.0000      -0.843369       -22.9492
  31   2.0000      -0.810339       -22.0504
  32   2.0000      -0.782754       -21.2998
  33   2.0000      -0.771104       -20.9828
  34   2.0000      -0.707772       -19.2595
  35   2.0000      -0.693539       -18.8722
  36   2.0000      -0.683337       -18.5945
  37   2.0000      -0.658014       -17.9055
  38   2.0000      -0.640436       -17.4272
  39   2.0000      -0.614559       -16.7230
  40   2.0000      -0.592073       -16.1111
  41   2.0000      -0.580824       -15.8050
  42   2.0000      -0.565689       -15.3932
  43   2.0000      -0.559885       -15.2352
  44   2.0000      -0.519736       -14.1427
  45   2.0000      -0.516472       -14.0539
  46   2.0000      -0.510901       -13.9023
  47   2.0000      -0.508602       -13.8398
  48   2.0000      -0.506836       -13.7917
  49   2.0000      -0.500978       -13.6323
  50   2.0000      -0.491304       -13.3691
  51   2.0000      -0.475378       -12.9357
  52   2.0000      -0.472130       -12.8473
  53   2.0000      -0.466231       -12.6868
  54   2.0000      -0.460622       -12.5342
  55   2.0000      -0.447249       -12.1703
  56   2.0000      -0.445278       -12.1166
  57   2.0000      -0.432430       -11.7670
  58   2.0000      -0.427584       -11.6351
  59   2.0000      -0.425752       -11.5853
  60   2.0000      -0.421702       -11.4751
  61   2.0000      -0.417031       -11.3480
  62   2.0000      -0.415955       -11.3187
  63   2.0000      -0.336919        -9.1680
  64   2.0000      -0.331515        -9.0210
  65   2.0000      -0.317387        -8.6366
  66   2.0000      -0.310244        -8.4422
  67   0.0000       0.042423         1.1544
  68   0.0000       0.053354         1.4518
  69   0.0000       0.110973         3.0197
  70   0.0000       0.122624         3.3368
  71   0.0000       0.132067         3.5937

MULLIKEN ATOMIC CHARGES
-----------------------
   0 S :    0.134552
   1 C :   -0.099312
   2 C :   -0.092389
   3 C :    0.040064
   4 C :   -0.189457
   5 H :    0.023335
   6 C :    0.101273
   7 H :    0.026823
   8 H :    0.011840
   9 C :   -0.082861
  10 H :    0.028055
  11 H :    0.049788
  12 C :   -0.069090
  13 H :    0.021478
  14 H :    0.038149
  15 H :    0.039957
  16 S :    0.122149
  17 C :   -0.098423
  18 C :   -0.068396
  19 C :    0.013849
  20 C :   -0.206338
  21 H :    0.024766
  22 C :    0.086282
  23 H :    0.003179
  24 H :    0.043544
  25 C :   -0.123526
  26 H :    0.033830
  27 H :    0.033151
  28 C :   -0.042746
  29 H :    0.049230
  30 H :    0.020477
  31 H :    0.037288
  32 H :    0.016480
  33 H :    0.072997
Sum of atomic charges:   -0.0000000

LOEWDIN ATOMIC CHARGES
----------------------
   0 S :    0.416569
   1 C :   -0.189213
   2 C :   -0.059372
   3 C :   -0.059673
   4 C :   -0.206441
   5 H :    0.032080
   6 C :   -0.019594
   7 H :    0.024995
   8 H :    0.028615
   9 C :   -0.043405
  10 H :    0.020857
  11 H :    0.036523
  12 C :   -0.078459
  13 H :    0.022334
  14 H :    0.032005
  15 H :    0.030352
  16 S :    0.425584
  17 C :   -0.205961
  18 C :   -0.076822
  19 C :   -0.055256
  20 C :   -0.215369
  21 H :    0.035040
  22 C :   -0.025928
  23 H :    0.018537
  24 H :    0.038054
  25 C :   -0.045265
  26 H :    0.021099
  27 H :    0.027912
  28 C :   -0.071596
  29 H :    0.035923
  30 H :    0.021178
  31 H :    0.024466
  32 H :    0.015064
  33 H :    0.045169

  Mayer bond orders larger than 0.100000
B(  0-S ,  1-C ) :   1.1345 B(  0-S ,  4-C ) :   1.1672 B(  1-C ,  2-C ) :   1.6447
B(  1-C , 32-H ) :   0.9661 B(  2-C ,  3-C ) :   1.2115 B(  2-C ,  6-C ) :   1.0161
B(  3-C ,  4-C ) :   1.5858 B(  3-C ,  5-H ) :   0.9903 B(  4-C , 20-C ) :   0.9839
B(  6-C ,  7-H ) :   0.9426 B(  6-C ,  8-H ) :   0.9398 B(  6-C ,  9-C ) :   1.0540
B(  9-C , 10-H ) :   0.9550 B(  9-C , 11-H ) :   0.9585 B(  9-C , 12-C ) :   1.0784
B( 12-C , 13-H ) :   0.9756 B( 12-C , 14-H ) :   0.9719 B( 12-C , 15-H ) :   0.9764
B( 16-S , 17-C ) :   1.1536 B( 16-S , 20-C ) :   1.1692 B( 17-C , 18-C ) :   1.6237
B( 17-C , 33-H ) :   0.9549 B( 18-C , 19-C ) :   1.2537 B( 18-C , 21-H ) :   0.9817
B( 19-C , 20-C ) :   1.6065 B( 19-C , 22-C ) :   1.0277 B( 22-C , 23-H ) :   0.9324
B( 22-C , 24-H ) :   0.9419 B( 22-C , 25-C ) :   1.0620 B( 25-C , 26-H ) :   0.9565
B( 25-C , 27-H ) :   0.9590 B( 25-C , 28-C ) :   1.0788 B( 28-C , 29-H ) :   0.9751
B( 28-C , 30-H ) :   0.9728 B( 28-C , 31-H ) :   0.9735

Dispersion correction           -0.013718195
FINAL SINGLE POINT ENERGY     -1339.867781716079

DIPOLE MOMENT
-------------
                                X             Y             Z
Electronic contribution:    -21.94929      11.16735      -8.41551
Nuclear contribution   :     22.40245     -11.30813       8.45110
                        -----------------------------------------
Total Dipole Moment    :      0.45316      -0.14077       0.03558
                        -----------------------------------------
Magnitude (a.u.)       :      0.47586
Magnitude (Debye)      :      1.20954

Rotational constants in cm-1:     0.017742     0.007822     0.006593
Rotational constants in MHz :   531.880625   234.509047   197.650721

                             ****ORCA TERMINATED NORMALLY****
TOTAL RUN TIME: 0 days 0 hours 0 minutes 33 seconds 324 msec
