                         Program Version 4.2.1 -  RELEASE  -
|  1> ! wB97X-D3 SP def2-SVP
|  2> %pal
|  3> nprocs 16
|  4> end
|  5>
|  6> * xyz 0 1
|  7> S 	 49.6242 	 22.8595 	 42.2149
|  8> C 	 48.602 	 21.5668 	 41.693
|  9> C 	 47.2527 	 21.8183 	 41.8953
| 10> C 	 47.1279 	 23.0588 	 42.5785
| 11> C 	 48.301 	 23.6653 	 42.9829
| 12> H 	 46.1869 	 23.4804 	 42.8653
| 13> C 	 46.1045 	 21.0068 	 41.4398
| 14> H 	 46.2245 	 20.8985 	 40.423
| 15> H 	 45.3256 	 21.6273 	 41.5293
| 16> C 	 45.7811 	 19.6555 	 42.2631
| 17> H 	 46.5961 	 19.0433 	 42.0112
| 18> H 	 45.7219 	 19.8932 	 43.2584
| 19> C 	 44.4542 	 19.0467 	 41.9538
| 20> H 	 44.6374 	 18.1487 	 41.3995
| 21> H 	 43.8943 	 18.7768 	 42.8781
| 22> H 	 43.7759 	 19.65 	 41.3138
| 23> S 	 49.181 	 26.2815 	 43.1111
| 24> C 	 48.7553 	 27.2004 	 44.5592
| 25> C 	 48.0648 	 26.4506 	 45.4629
| 26> C 	 47.7402 	 25.1455 	 45.0391
| 27> C 	 48.3579 	 24.8682 	 43.7979
| 28> H 	 47.8112 	 26.9693 	 46.3945
| 29> C 	 47.0868 	 24.1429 	 45.9928
| 30> H 	 46.1241 	 23.9734 	 45.4397
| 31> H 	 46.8599 	 24.6815 	 46.8529
| 32> C 	 47.891 	 22.8778 	 46.277
| 33> H 	 48.2252 	 22.4239 	 45.3197
| 34> H 	 47.2184 	 22.1881 	 46.8078
| 35> C 	 49.1331 	 23.1795 	 47.1555
| 36> H 	 48.881 	 23.5363 	 48.1117
| 37> H 	 49.7693 	 23.8746 	 46.6429
| 38> H 	 49.72 	 22.2771 	 47.3305
| 39> H 	 48.9054 	 20.8522 	 40.9832
| 40> H 	 49.1406 	 28.1748 	 44.8605
| 41> *
| 42>
| 43>                          ****END OF INPUT****

CARTESIAN COORDINATES (ANGSTROEM)
---------------------------------
  S     49.624200   22.859500   42.214900
  C     48.602000   21.566800   41.693000
  C     47.252700   21.818300   41.895300
  C     47.127900   23.058800   42.578500
  C     48.301000   23.665300   42.982900
  H     46.186900   23.480400   42.865300
  C     46.104500   21.006800   41.439800
  H     46.224500   20.898500   40.423000
  H     45.325600   21.627300   41.529300
  C     45.781100   19.655500   42.263100
  H     46.596100   19.043300   42.011200
  H     45.721900   19.893200   43.258400
  C     44.454200   19.046700   41.953800
  H     44.637400   18.148700   41.399500
  H     43.894300   18.776800   42.878100
  H     43.775900   19.650000   41.313800
  S     49.181000   26.281500   43.111100
  C     48.755300   27.200400   44.559200
  C     48.064800   26.450600   45.462900
  C     47.740200   25.145500   45.039100
  C     48.357900   24.868200   43.797900
  H     47.811200   26.969300   46.394500
  C     47.086800   24.142900   45.992800
  H     46.124100   23.973400   45.439700
  H     46.859900   24.681500   46.852900
  C     47.891000   22.877800   46.277000
  H     48.225200   22.423900   45.319700
  H     47.218400   22.188100   46.807800
  C     49.133100   23.179500   47.155500
  H     48.881000   23.536300   48.111700
  H     49.769300   23.874600   46.642900
  H     49.720000   22.277100   47.330500
  H     48.905400   20.852200   40.983200
  H     49.140600   28.174800   44.860500

 Total Charge           Charge          ....    0
 Multiplicity           Mult            ....    1
 Number of Electrons    NEL             ....  134
 Basis Dimension        Dim             ....  322

ORBITAL ENERGIES
----------------

  NO   OCC          E(Eh)            E(eV)
   0   2.0000     -88.966675     -2420.9063
   1   2.0000     -88.966403     -2420.8989
   2   2.0000     -10.328210      -281.0449
   3   2.0000     -10.323888      -280.9273
   4   2.0000     -10.313760      -280.6517
   5   2.0000     -10.306117      -280.4437
   6   2.0000     -10.303866      -280.3824
   7   2.0000     -10.295793      -280.1628
   8   2.0000     -10.289590      -279.9940
   9   2.0000     -10.289036      -279.9789
  10   2.0000     -10.287034      -279.9244
  11   2.0000     -10.285913      -279.8939
  12   2.0000     -10.280059      -279.7346
  13   2.0000     -10.278305      -279.6869
  14   2.0000     -10.277287      -279.6592
  15   2.0000     -10.266907      -279.3768
  16   2.0000      -8.081924      -219.9203
  17   2.0000      -8.080436      -219.8798
  18   2.0000      -6.040360      -164.3665
  19   2.0000      -6.038943      -164.3280
  20   2.0000      -6.036345      -164.2573
  21   2.0000      -6.035122      -164.2240
  22   2.0000      -6.032749      -164.1595
  23   2.0000      -6.031176      -164.1166
  24   2.0000      -1.007447       -27.4140
  25   2.0000      -0.984106       -26.7789
  26   2.0000      -0.915798       -24.9201
  27   2.0000      -0.906356       -24.6632
  28   2.0000      -0.872136       -23.7320
  29   2.0000      -0.856019       -23.2935
  30   2.0000      -0.845361       -23.0034
  31   2.0000      -0.813690       -22.1416
  32   2.0000      -0.786579       -21.4039
  33   2.0000      -0.773440       -21.0464
  34   2.0000      -0.712579       -19.3903
  35   2.0000      -0.710135       -19.3238
  36   2.0000      -0.687837       -18.7170
  37   2.0000      -0.657450       -17.8901
  38   2.0000      -0.641054       -17.4440
  39   2.0000      -0.619133       -16.8475
  40   2.0000      -0.586959       -15.9720
  41   2.0000      -0.578223       -15.7342
  42   2.0000      -0.566154       -15.4058
  43   2.0000      -0.549830       -14.9616
  44   2.0000      -0.545101       -14.8330
  45   2.0000      -0.528172       -14.3723
  46   2.0000      -0.519896       -14.1471
  47   2.0000      -0.508870       -13.8470
  48   2.0000      -0.506415       -13.7803
  49   2.0000      -0.497347       -13.5335
  50   2.0000      -0.489388       -13.3169
  51   2.0000      -0.474413       -12.9094
  52   2.0000      -0.473106       -12.8739
  53   2.0000      -0.465344       -12.6626
  54   2.0000      -0.460416       -12.5286
  55   2.0000      -0.453816       -12.3489
  56   2.0000      -0.441574       -12.0158
  57   2.0000      -0.436959       -11.8903
  58   2.0000      -0.434118       -11.8130
  59   2.0000      -0.430518       -11.7150
  60   2.0000      -0.424058       -11.5392
  61   2.0000      -0.417105       -11.3500
  62   2.0000      -0.412293       -11.2191
  63   2.0000      -0.342519        -9.3204
  64   2.0000      -0.331331        -9.0160
  65   2.0000      -0.327711        -8.9175
  66   2.0000      -0.290213        -7.8971
  67   0.0000       0.026657         0.7254
  68   0.0000       0.069238         1.8841
  69   0.0000       0.111308         3.0288
  70   0.0000       0.127200         3.4613
  71   0.0000       0.134649         3.6640

MULLIKEN ATOMIC CHARGES
-----------------------
   0 S :    0.120302
   1 C :   -0.100304
   2 C :   -0.136626
   3 C :    0.035618
   4 C :   -0.177060
   5 H :   -0.002737
   6 C :    0.154037
   7 H :    0.011746
   8 H :   -0.032603
   9 C :   -0.010309
  10 H :    0.026452
  11 H :    0.014927
  12 C :   -0.063454
  13 H :    0.027109
  14 H :    0.041137
  15 H :    0.034929
  16 S :    0.107215
  17 C :   -0.088014
  18 C :   -0.057318
  19 C :   -0.059113
  20 C :   -0.171982
  21 H :    0.023730
  22 C :    0.114338
  23 H :    0.036426
  24 H :   -0.005923
  25 C :   -0.063776
  26 H :    0.056562
  27 H :    0.029591
  28 C :   -0.030438
  29 H :    0.013724
  30 H :    0.036874
  31 H :    0.030654
  32 H :    0.030879
  33 H :    0.053408
Sum of atomic charges:   -0.0000000

LOEWDIN ATOMIC CHARGES
----------------------
   0 S :    0.424718
   1 C :   -0.201216
   2 C :   -0.058291
   3 C :   -0.057927
   4 C :   -0.214911
   5 H :    0.023194
   6 C :   -0.016785
   7 H :    0.023950
   8 H :    0.012214
   9 C :   -0.017499
  10 H :    0.020069
  11 H :    0.017501
  12 C :   -0.070249
  13 H :    0.025170
  14 H :    0.032641
  15 H :    0.028317
  16 S :    0.389712
  17 C :   -0.184626
  18 C :   -0.078667
  19 C :   -0.053451
  20 C :   -0.192380
  21 H :    0.035992
  22 C :   -0.026669
  23 H :    0.039940
  24 H :    0.017863
  25 C :   -0.034791
  26 H :    0.032800
  27 H :    0.024651
  28 C :   -0.057711
  29 H :    0.014696
  30 H :    0.025231
  31 H :    0.027995
  32 H :    0.016835
  33 H :    0.031685

  Mayer bond orders larger than 0.100000
B(  0-S ,  1-C ) :   1.1545 B(  0-S ,  4-C ) :   1.1528 B(  1-C ,  2-C ) :   1.5790
B(  1-C , 32-H ) :   0.9686 B(  2-C ,  3-C ) :   1.2806 B(  2-C ,  6-C ) :   1.0228
B(  3-C ,  4-C ) :   1.5417 B(  3-C ,  5-H ) :   0.9967 B(  4-C , 20-C ) :   1.0522
B(  6-C ,  7-H ) :   0.9247 B(  6-C ,  8-H ) :   0.9173 B(  6-C ,  9-C ) :   1.0547
B(  9-C , 10-H ) :   0.9657 B(  9-C , 11-H ) :   0.9618 B(  9-C , 12-C ) :   1.0738
B( 12-C , 13-H ) :   0.9755 B( 12-C , 14-H ) :   0.9804 B( 12-C , 15-H ) :   0.9759
B( 16-S , 17-C ) :   1.1389 B( 16-S , 20-C ) :   1.1474 B( 17-C , 18-C ) :   1.6488
B( 17-C , 20-C ) :   0.1053 B( 17-C , 33-H ) :   0.9587 B( 18-C , 19-C ) :   1.2364
B( 18-C , 21-H ) :   0.9812 B( 19-C , 20-C ) :   1.5725 B( 19-C , 22-C ) :   1.0263
B( 22-C , 23-H ) :   0.9191 B( 22-C , 24-H ) :   0.9343 B( 22-C , 25-C ) :   1.0712
B( 25-C , 26-H ) :   0.9547 B( 25-C , 27-H ) :   0.9534 B( 25-C , 28-C ) :   1.0720
B( 28-C , 29-H ) :   0.9755 B( 28-C , 30-H ) :   0.9776 B( 28-C , 31-H ) :   0.9740

Dispersion correction           -0.014982644
FINAL SINGLE POINT ENERGY     -1339.858599779658

DIPOLE MOMENT
-------------
                                X             Y             Z
Electronic contribution:     16.17557      19.69553     -10.05384
Nuclear contribution   :    -16.71721     -19.99456      10.29525
                        -----------------------------------------
Total Dipole Moment    :     -0.54165      -0.29903       0.24141
                        -----------------------------------------
Magnitude (a.u.)       :      0.66414
Magnitude (Debye)      :      1.68811

Rotational constants in cm-1:     0.020913     0.008228     0.007081
Rotational constants in MHz :   626.954478   246.662527   212.294703

                             ****ORCA TERMINATED NORMALLY****
TOTAL RUN TIME: 0 days 0 hours 0 minutes 35 seconds 602 msec
