                         Program Version 4.2.1 -  RELEASE  -
|  1> ! wB97X-D3 SP def2-SVP
|  2> %pal
|  3> nprocs 16
|  4> end
|  5>
|  6> * xyz 0 1
|  7> S 	 -39.5812 	 -2.34477 	 96.5568
|  8> C 	 -40.1763 	 -3.35229 	 95.2949
|  9> C 	 -41.2445 	 -4.05505 	 95.6907
| 10> C 	 -41.4078 	 -3.9746 	 97.105
| 11> C 	 -40.6155 	 -3.08525 	 97.7534
| 12> H 	 -42.1399 	 -4.63352 	 97.6622
| 13> C 	 -42.02 	 -5.1378 	 94.8743
| 14> H 	 -41.9061 	 -6.04158 	 95.4232
| 15> H 	 -41.4648 	 -5.12211 	 93.9485
| 16> C 	 -43.4813 	 -4.73789 	 94.5689
| 17> H 	 -43.8952 	 -4.29893 	 95.4526
| 18> H 	 -43.449 	 -3.87021 	 93.8737
| 19> C 	 -44.2688 	 -5.88431 	 93.8259
| 20> H 	 -44.8105 	 -6.49625 	 94.4934
| 21> H 	 -44.9865 	 -5.56243 	 93.0737
| 22> H 	 -43.6275 	 -6.50922 	 93.2172
| 23> S 	 -40.983 	 -0.949338 	 99.5861
| 24> C 	 -41.2098 	 -1.37767 	 101.207
| 25> C 	 -41.1807 	 -2.75579 	 101.415
| 26> C 	 -40.9863 	 -3.48753 	 100.289
| 27> C 	 -40.7226 	 -2.73004 	 99.1698
| 28> H 	 -41.2534 	 -3.12336 	 102.411
| 29> C 	 -40.8547 	 -5.02889 	 100.258
| 30> H 	 -39.9381 	 -5.46351 	 100.739
| 31> H 	 -40.6489 	 -5.42351 	 99.2437
| 32> C 	 -42.0726 	 -5.78358 	 100.881
| 33> H 	 -43.0183 	 -5.46875 	 100.479
| 34> H 	 -42.1532 	 -5.67067 	 101.911
| 35> C 	 -41.854 	 -7.28086 	 100.567
| 36> H 	 -41.7155 	 -7.51791 	 99.524
| 37> H 	 -42.7043 	 -7.82118 	 100.871
| 38> H 	 -41.0724 	 -7.70745 	 101.14
| 39> H 	 -39.7898 	 -3.47953 	 94.2988
| 40> H 	 -41.4599 	 -0.658812 	 102
| 41> *
| 42>
| 43>                          ****END OF INPUT****

CARTESIAN COORDINATES (ANGSTROEM)
---------------------------------
  S    -39.581200   -2.344770   96.556800
  C    -40.176300   -3.352290   95.294900
  C    -41.244500   -4.055050   95.690700
  C    -41.407800   -3.974600   97.105000
  C    -40.615500   -3.085250   97.753400
  H    -42.139900   -4.633520   97.662200
  C    -42.020000   -5.137800   94.874300
  H    -41.906100   -6.041580   95.423200
  H    -41.464800   -5.122110   93.948500
  C    -43.481300   -4.737890   94.568900
  H    -43.895200   -4.298930   95.452600
  H    -43.449000   -3.870210   93.873700
  C    -44.268800   -5.884310   93.825900
  H    -44.810500   -6.496250   94.493400
  H    -44.986500   -5.562430   93.073700
  H    -43.627500   -6.509220   93.217200
  S    -40.983000   -0.949338   99.586100
  C    -41.209800   -1.377670  101.207000
  C    -41.180700   -2.755790  101.415000
  C    -40.986300   -3.487530  100.289000
  C    -40.722600   -2.730040   99.169800
  H    -41.253400   -3.123360  102.411000
  C    -40.854700   -5.028890  100.258000
  H    -39.938100   -5.463510  100.739000
  H    -40.648900   -5.423510   99.243700
  C    -42.072600   -5.783580  100.881000
  H    -43.018300   -5.468750  100.479000
  H    -42.153200   -5.670670  101.911000
  C    -41.854000   -7.280860  100.567000
  H    -41.715500   -7.517910   99.524000
  H    -42.704300   -7.821180  100.871000
  H    -41.072400   -7.707450  101.140000
  H    -39.789800   -3.479530   94.298800
  H    -41.459900   -0.658812  102.000000

 Total Charge           Charge          ....    0
 Multiplicity           Mult            ....    1
 Number of Electrons    NEL             ....  134
 Basis Dimension        Dim             ....  322

ORBITAL ENERGIES
----------------

  NO   OCC          E(Eh)            E(eV)
   0   2.0000     -88.966055     -2420.8894
   1   2.0000     -88.964142     -2420.8374
   2   2.0000     -10.330556      -281.1087
   3   2.0000     -10.326084      -280.9870
   4   2.0000     -10.316437      -280.7245
   5   2.0000     -10.307971      -280.4941
   6   2.0000     -10.300089      -280.2797
   7   2.0000     -10.297670      -280.2138
   8   2.0000     -10.293098      -280.0894
   9   2.0000     -10.292485      -280.0728
  10   2.0000     -10.291326      -280.0412
  11   2.0000     -10.290785      -280.0265
  12   2.0000     -10.285320      -279.8778
  13   2.0000     -10.283494      -279.8281
  14   2.0000     -10.278197      -279.6840
  15   2.0000     -10.269885      -279.4578
  16   2.0000      -8.080644      -219.8855
  17   2.0000      -8.079497      -219.8543
  18   2.0000      -6.038898      -164.3268
  19   2.0000      -6.038178      -164.3072
  20   2.0000      -6.035237      -164.2272
  21   2.0000      -6.033912      -164.1911
  22   2.0000      -6.031607      -164.1284
  23   2.0000      -6.030035      -164.0856
  24   2.0000      -1.011212       -27.5165
  25   2.0000      -0.991543       -26.9813
  26   2.0000      -0.907551       -24.6957
  27   2.0000      -0.906453       -24.6658
  28   2.0000      -0.871266       -23.7083
  29   2.0000      -0.857569       -23.3356
  30   2.0000      -0.843303       -22.9474
  31   2.0000      -0.810159       -22.0455
  32   2.0000      -0.784230       -21.3400
  33   2.0000      -0.775277       -21.0964
  34   2.0000      -0.712178       -19.3793
  35   2.0000      -0.706809       -19.2332
  36   2.0000      -0.700752       -19.0684
  37   2.0000      -0.658898       -17.9295
  38   2.0000      -0.637846       -17.3567
  39   2.0000      -0.620640       -16.8885
  40   2.0000      -0.602479       -16.3943
  41   2.0000      -0.568202       -15.4616
  42   2.0000      -0.566060       -15.4033
  43   2.0000      -0.559327       -15.2201
  44   2.0000      -0.528224       -14.3737
  45   2.0000      -0.520594       -14.1661
  46   2.0000      -0.515418       -14.0252
  47   2.0000      -0.507886       -13.8203
  48   2.0000      -0.502872       -13.6838
  49   2.0000      -0.498200       -13.5567
  50   2.0000      -0.496328       -13.5058
  51   2.0000      -0.483452       -13.1554
  52   2.0000      -0.471385       -12.8270
  53   2.0000      -0.467749       -12.7281
  54   2.0000      -0.465772       -12.6743
  55   2.0000      -0.449987       -12.2448
  56   2.0000      -0.446311       -12.1447
  57   2.0000      -0.441623       -12.0172
  58   2.0000      -0.435474       -11.8498
  59   2.0000      -0.424556       -11.5528
  60   2.0000      -0.420629       -11.4459
  61   2.0000      -0.414595       -11.2817
  62   2.0000      -0.411646       -11.2015
  63   2.0000      -0.353809        -9.6276
  64   2.0000      -0.338123        -9.2008
  65   2.0000      -0.329862        -8.9760
  66   2.0000      -0.286770        -7.8034
  67   0.0000       0.031376         0.8538
  68   0.0000       0.068082         1.8526
  69   0.0000       0.114880         3.1260
  70   0.0000       0.124885         3.3983
  71   0.0000       0.129286         3.5180

MULLIKEN ATOMIC CHARGES
-----------------------
   0 S :    0.112795
   1 C :   -0.114331
   2 C :   -0.110121
   3 C :   -0.008588
   4 C :   -0.140985
   5 H :    0.030997
   6 C :    0.084561
   7 H :    0.034343
   8 H :    0.009249
   9 C :   -0.075840
  10 H :    0.027753
  11 H :    0.028482
  12 C :   -0.019772
  13 H :    0.028799
  14 H :    0.028388
  15 H :    0.021228
  16 S :    0.101482
  17 C :   -0.096186
  18 C :   -0.040175
  19 C :    0.050791
  20 C :   -0.149839
  21 H :    0.003210
  22 C :    0.001428
  23 H :    0.037035
  24 H :    0.020729
  25 C :   -0.051536
  26 H :    0.024070
  27 H :    0.019325
  28 C :   -0.023399
  29 H :    0.026270
  30 H :    0.013403
  31 H :    0.020476
  32 H :    0.039295
  33 H :    0.066664
Sum of atomic charges:   -0.0000000

LOEWDIN ATOMIC CHARGES
----------------------
   0 S :    0.411633
   1 C :   -0.199663
   2 C :   -0.072580
   3 C :   -0.070066
   4 C :   -0.201610
   5 H :    0.036543
   6 C :   -0.018476
   7 H :    0.025677
   8 H :    0.025819
   9 C :   -0.038827
  10 H :    0.020103
  11 H :    0.030163
  12 C :   -0.064523
  13 H :    0.019746
  14 H :    0.028438
  15 H :    0.025770
  16 S :    0.396773
  17 C :   -0.197421
  18 C :   -0.076697
  19 C :   -0.057226
  20 C :   -0.164802
  21 H :    0.028194
  22 C :   -0.032891
  23 H :    0.037426
  24 H :    0.029533
  25 C :   -0.027998
  26 H :    0.020499
  27 H :    0.015021
  28 C :   -0.056802
  29 H :    0.022844
  30 H :    0.019760
  31 H :    0.020783
  32 H :    0.030212
  33 H :    0.034647

  Mayer bond orders larger than 0.100000
B(  0-S ,  1-C ) :   1.1358 B(  0-S ,  4-C ) :   1.1326 B(  1-C ,  2-C ) :   1.6471
B(  1-C , 32-H ) :   0.9618 B(  2-C ,  3-C ) :   1.2397 B(  2-C ,  6-C ) :   1.0076
B(  3-C ,  4-C ) :   1.5886 B(  3-C ,  5-H ) :   0.9812 B(  4-C , 20-C ) :   1.0420
B(  6-C ,  7-H ) :   0.9530 B(  6-C ,  8-H ) :   0.9372 B(  6-C ,  9-C ) :   1.0569
B(  9-C , 10-H ) :   0.9688 B(  9-C , 11-H ) :   0.9566 B(  9-C , 12-C ) :   1.0570
B( 12-C , 13-H ) :   0.9792 B( 12-C , 14-H ) :   0.9784 B( 12-C , 15-H ) :   0.9741
B( 16-S , 17-C ) :   1.1875 B( 16-S , 20-C ) :   1.1282 B( 17-C , 18-C ) :   1.5641
B( 17-C , 20-C ) :   0.1125 B( 17-C , 33-H ) :   0.9616 B( 18-C , 19-C ) :   1.2721
B( 18-C , 21-H ) :   1.0030 B( 19-C , 20-C ) :   1.5860 B( 19-C , 22-C ) :   1.0144
B( 22-C , 23-H ) :   0.9424 B( 22-C , 24-H ) :   0.9489 B( 22-C , 25-C ) :   1.0488
B( 25-C , 26-H ) :   0.9604 B( 25-C , 27-H ) :   0.9531 B( 25-C , 28-C ) :   1.0913
B( 28-C , 29-H ) :   0.9765 B( 28-C , 30-H ) :   0.9706 B( 28-C , 31-H ) :   0.9728

Dispersion correction           -0.013695709
FINAL SINGLE POINT ENERGY     -1339.863968385893

DIPOLE MOMENT
-------------
                                X             Y             Z
Electronic contribution:     15.38082      27.33510       4.79313
Nuclear contribution   :    -15.77948     -28.02490      -4.72732
                        -----------------------------------------
Total Dipole Moment    :     -0.39866      -0.68980       0.06581
                        -----------------------------------------
Magnitude (a.u.)       :      0.79943
Magnitude (Debye)      :      2.03199

Rotational constants in cm-1:     0.015967     0.008928     0.006612
Rotational constants in MHz :   478.676082   267.660099   198.234541

                             ****ORCA TERMINATED NORMALLY****
TOTAL RUN TIME: 0 days 0 hours 0 minutes 30 seconds 134 msec
