                         Program Version 4.2.1 -  RELEASE  -
|  1> ! wB97X-D3 SP def2-SVP
|  2> %pal
|  3> nprocs 16
|  4> end
|  5>
|  6> * xyz 0 1
|  7> S 	 50.9661 	 22.9592 	 44.1874
|  8> C 	 50.8596 	 21.2726 	 43.8741
|  9> C 	 49.5401 	 20.9008 	 43.9237
| 10> C 	 48.6246 	 21.9411 	 44.3468
| 11> C 	 49.304 	 23.0743 	 44.7475
| 12> H 	 47.5873 	 21.915 	 44.4833
| 13> C 	 49.0469 	 19.5675 	 43.5063
| 14> H 	 48.1113 	 19.4054 	 44.0725
| 15> H 	 49.7045 	 18.8734 	 44.053
| 16> C 	 48.8708 	 19.3282 	 41.9788
| 17> H 	 48.017 	 19.805 	 41.5686
| 18> H 	 49.7309 	 19.7643 	 41.4755
| 19> C 	 48.7679 	 17.8637 	 41.7145
| 20> H 	 49.5991 	 17.3008 	 42.0645
| 21> H 	 47.9086 	 17.4207 	 42.3031
| 22> H 	 48.5888 	 17.6183 	 40.674
| 23> S 	 48.7397 	 25.7057 	 44.3654
| 24> C 	 48.1763 	 26.7046 	 45.665
| 25> C 	 48.0659 	 25.9124 	 46.8314
| 26> C 	 48.3416 	 24.544 	 46.6543
| 27> C 	 48.711 	 24.2516 	 45.3498
| 28> H 	 47.8361 	 26.4034 	 47.701
| 29> C 	 48.1227 	 23.5297 	 47.7787
| 30> H 	 47.5027 	 22.7456 	 47.3254
| 31> H 	 47.5137 	 24.0809 	 48.5241
| 32> C 	 49.4034 	 23.0354 	 48.5177
| 33> H 	 50.1744 	 22.8123 	 47.786
| 34> H 	 49.0966 	 22.1097 	 48.9628
| 35> C 	 49.9725 	 24.0638 	 49.5181
| 36> H 	 49.3156 	 24.0804 	 50.374
| 37> H 	 50.2047 	 25.0627 	 49.1199
| 38> H 	 50.8768 	 23.6708 	 49.852
| 39> H 	 51.6333 	 20.5584 	 43.7288
| 40> H 	 47.8744 	 27.7576 	 45.5761
| 41> *
| 42>
| 43>                          ****END OF INPUT****

CARTESIAN COORDINATES (ANGSTROEM)
---------------------------------
  S     50.966100   22.959200   44.187400
  C     50.859600   21.272600   43.874100
  C     49.540100   20.900800   43.923700
  C     48.624600   21.941100   44.346800
  C     49.304000   23.074300   44.747500
  H     47.587300   21.915000   44.483300
  C     49.046900   19.567500   43.506300
  H     48.111300   19.405400   44.072500
  H     49.704500   18.873400   44.053000
  C     48.870800   19.328200   41.978800
  H     48.017000   19.805000   41.568600
  H     49.730900   19.764300   41.475500
  C     48.767900   17.863700   41.714500
  H     49.599100   17.300800   42.064500
  H     47.908600   17.420700   42.303100
  H     48.588800   17.618300   40.674000
  S     48.739700   25.705700   44.365400
  C     48.176300   26.704600   45.665000
  C     48.065900   25.912400   46.831400
  C     48.341600   24.544000   46.654300
  C     48.711000   24.251600   45.349800
  H     47.836100   26.403400   47.701000
  C     48.122700   23.529700   47.778700
  H     47.502700   22.745600   47.325400
  H     47.513700   24.080900   48.524100
  C     49.403400   23.035400   48.517700
  H     50.174400   22.812300   47.786000
  H     49.096600   22.109700   48.962800
  C     49.972500   24.063800   49.518100
  H     49.315600   24.080400   50.374000
  H     50.204700   25.062700   49.119900
  H     50.876800   23.670800   49.852000
  H     51.633300   20.558400   43.728800
  H     47.874400   27.757600   45.576100

 Total Charge           Charge          ....    0
 Multiplicity           Mult            ....    1
 Number of Electrons    NEL             ....  134
 Basis Dimension        Dim             ....  322

ORBITAL ENERGIES
----------------

  NO   OCC          E(Eh)            E(eV)
   0   2.0000     -88.964445     -2420.8456
   1   2.0000     -88.963108     -2420.8092
   2   2.0000     -10.326745      -281.0050
   3   2.0000     -10.322638      -280.8933
   4   2.0000     -10.319186      -280.7993
   5   2.0000     -10.307248      -280.4745
   6   2.0000     -10.301750      -280.3249
   7   2.0000     -10.295242      -280.1478
   8   2.0000     -10.292956      -280.0856
   9   2.0000     -10.289351      -279.9875
  10   2.0000     -10.288751      -279.9711
  11   2.0000     -10.287215      -279.9294
  12   2.0000     -10.283189      -279.8198
  13   2.0000     -10.282861      -279.8109
  14   2.0000     -10.274445      -279.5819
  15   2.0000     -10.271627      -279.5052
  16   2.0000      -8.079274      -219.8482
  17   2.0000      -8.078164      -219.8180
  18   2.0000      -6.037685      -164.2937
  19   2.0000      -6.036753      -164.2684
  20   2.0000      -6.033561      -164.1815
  21   2.0000      -6.032632      -164.1563
  22   2.0000      -6.030349      -164.0941
  23   2.0000      -6.028789      -164.0517
  24   2.0000      -1.007703       -27.4210
  25   2.0000      -0.985611       -26.8198
  26   2.0000      -0.913234       -24.8504
  27   2.0000      -0.903688       -24.5906
  28   2.0000      -0.872103       -23.7311
  29   2.0000      -0.851997       -23.1840
  30   2.0000      -0.848786       -23.0966
  31   2.0000      -0.815160       -22.1816
  32   2.0000      -0.781514       -21.2661
  33   2.0000      -0.766547       -20.8588
  34   2.0000      -0.709581       -19.3087
  35   2.0000      -0.706548       -19.2262
  36   2.0000      -0.690770       -18.7968
  37   2.0000      -0.666039       -18.1239
  38   2.0000      -0.647198       -17.6112
  39   2.0000      -0.613095       -16.6832
  40   2.0000      -0.588568       -16.0158
  41   2.0000      -0.572438       -15.5768
  42   2.0000      -0.561099       -15.2683
  43   2.0000      -0.549697       -14.9580
  44   2.0000      -0.544458       -14.8155
  45   2.0000      -0.528269       -14.3749
  46   2.0000      -0.521279       -14.1847
  47   2.0000      -0.513490       -13.9728
  48   2.0000      -0.511498       -13.9186
  49   2.0000      -0.504701       -13.7336
  50   2.0000      -0.484492       -13.1837
  51   2.0000      -0.479562       -13.0495
  52   2.0000      -0.475219       -12.9314
  53   2.0000      -0.465244       -12.6599
  54   2.0000      -0.458997       -12.4899
  55   2.0000      -0.446668       -12.1545
  56   2.0000      -0.437528       -11.9058
  57   2.0000      -0.436869       -11.8878
  58   2.0000      -0.433417       -11.7939
  59   2.0000      -0.423532       -11.5249
  60   2.0000      -0.417357       -11.3568
  61   2.0000      -0.415376       -11.3030
  62   2.0000      -0.411984       -11.2107
  63   2.0000      -0.337520        -9.1844
  64   2.0000      -0.331837        -9.0297
  65   2.0000      -0.322351        -8.7716
  66   2.0000      -0.296167        -8.0591
  67   0.0000       0.037648         1.0244
  68   0.0000       0.051044         1.3890
  69   0.0000       0.120891         3.2896
  70   0.0000       0.126899         3.4531
  71   0.0000       0.131284         3.5724

MULLIKEN ATOMIC CHARGES
-----------------------
   0 S :    0.118644
   1 C :   -0.093044
   2 C :   -0.113988
   3 C :    0.059526
   4 C :   -0.146301
   5 H :   -0.004254
   6 C :    0.030732
   7 H :    0.013783
   8 H :    0.022784
   9 C :    0.000369
  10 H :    0.023471
  11 H :    0.025936
  12 C :   -0.043982
  13 H :    0.020116
  14 H :    0.024323
  15 H :    0.032899
  16 S :    0.110764
  17 C :   -0.111865
  18 C :   -0.025113
  19 C :   -0.011242
  20 C :   -0.208356
  21 H :   -0.015577
  22 C :    0.063615
  23 H :    0.035574
  24 H :    0.015824
  25 C :   -0.055176
  26 H :    0.035613
  27 H :    0.024986
  28 C :   -0.023723
  29 H :    0.025593
  30 H :    0.044978
  31 H :    0.015740
  32 H :    0.036070
  33 H :    0.071282
Sum of atomic charges:   -0.0000000

LOEWDIN ATOMIC CHARGES
----------------------
   0 S :    0.410856
   1 C :   -0.205217
   2 C :   -0.066755
   3 C :   -0.054041
   4 C :   -0.193573
   5 H :    0.023499
   6 C :   -0.041121
   7 H :    0.029552
   8 H :    0.033609
   9 C :   -0.031218
  10 H :    0.023829
  11 H :    0.024786
  12 C :   -0.065341
  13 H :    0.017975
  14 H :    0.030120
  15 H :    0.024079
  16 S :    0.419143
  17 C :   -0.196620
  18 C :   -0.067260
  19 C :   -0.052700
  20 C :   -0.206698
  21 H :    0.014673
  22 C :   -0.029576
  23 H :    0.033001
  24 H :    0.030311
  25 C :   -0.032125
  26 H :    0.024566
  27 H :    0.022843
  28 C :   -0.058801
  29 H :    0.023137
  30 H :    0.031266
  31 H :    0.019612
  32 H :    0.027949
  33 H :    0.036238

  Mayer bond orders larger than 0.100000
B(  0-S ,  1-C ) :   1.1288 B(  0-S ,  4-C ) :   1.1443 B(  1-C ,  2-C ) :   1.6102
B(  1-C , 32-H ) :   0.9753 B(  2-C ,  3-C ) :   1.2207 B(  2-C ,  6-C ) :   1.0341
B(  3-C ,  4-C ) :   1.5771 B(  3-C ,  5-H ) :   1.0027 B(  4-C , 20-C ) :   1.0321
B(  6-C ,  7-H ) :   0.9325 B(  6-C ,  8-H ) :   0.9443 B(  6-C ,  9-C ) :   1.0432
B(  9-C , 10-H ) :   0.9508 B(  9-C , 11-H ) :   0.9583 B(  9-C , 12-C ) :   1.0886
B( 12-C , 13-H ) :   0.9766 B( 12-C , 14-H ) :   0.9695 B( 12-C , 15-H ) :   0.9728
B( 16-S , 17-C ) :   1.1770 B( 16-S , 20-C ) :   1.1619 B( 17-C , 18-C ) :   1.5596
B( 17-C , 20-C ) :   0.1142 B( 17-C , 33-H ) :   0.9661 B( 18-C , 19-C ) :   1.2780
B( 18-C , 21-H ) :   1.0029 B( 19-C , 20-C ) :   1.5658 B( 19-C , 22-C ) :   1.0205
B( 22-C , 23-H ) :   0.9408 B( 22-C , 24-H ) :   0.9365 B( 22-C , 25-C ) :   1.0570
B( 25-C , 26-H ) :   0.9619 B( 25-C , 27-H ) :   0.9556 B( 25-C , 28-C ) :   1.0772
B( 28-C , 29-H ) :   0.9745 B( 28-C , 30-H ) :   0.9754 B( 28-C , 31-H ) :   0.9709

Dispersion correction           -0.014310908
FINAL SINGLE POINT ENERGY     -1339.871979338238

DIPOLE MOMENT
-------------
                                X             Y             Z
Electronic contribution:      3.95093      20.25130      -7.68201
Nuclear contribution   :     -4.19949     -20.65253       7.99793
                        -----------------------------------------
Total Dipole Moment    :     -0.24856      -0.40123       0.31591
                        -----------------------------------------
Magnitude (a.u.)       :      0.56795
Magnitude (Debye)      :      1.44362

Rotational constants in cm-1:     0.022309     0.007423     0.006532
Rotational constants in MHz :   668.820046   222.526721   195.822329

                             ****ORCA TERMINATED NORMALLY****
TOTAL RUN TIME: 0 days 0 hours 0 minutes 32 seconds 82 msec
