                         Program Version 4.2.1 -  RELEASE  -
|  1> ! wB97X-D3 SP def2-SVP
|  2> %pal
|  3> nprocs 16
|  4> end
|  5>
|  6> * xyz 0 1
|  7> S 	 -58.0288 	 42.6939 	 134.255
|  8> C 	 -56.7477 	 41.9664 	 135.279
|  9> C 	 -56.3417 	 42.899 	 136.242
| 10> C 	 -57.0674 	 44.1889 	 136.159
| 11> C 	 -58.0737 	 44.2074 	 135.197
| 12> H 	 -56.7982 	 44.9679 	 136.798
| 13> C 	 -55.2221 	 42.8037 	 137.282
| 14> H 	 -55.4426 	 41.829 	 137.809
| 15> H 	 -55.3283 	 43.686 	 137.848
| 16> C 	 -53.803 	 42.7903 	 136.624
| 17> H 	 -53.7278 	 42.1026 	 135.813
| 18> H 	 -53.6639 	 43.726 	 136.109
| 19> C 	 -52.6056 	 42.498 	 137.521
| 20> H 	 -51.7446 	 42.8347 	 137.026
| 21> H 	 -52.5785 	 43.1272 	 138.451
| 22> H 	 -52.3835 	 41.4723 	 137.66
| 23> S 	 -58.6821 	 46.9413 	 135.292
| 24> C 	 -60.2812 	 47.481 	 134.969
| 25> C 	 -61.0909 	 46.4119 	 134.72
| 26> C 	 -60.467 	 45.1057 	 134.749
| 27> C 	 -59.1281 	 45.2579 	 135.019
| 28> H 	 -62.1339 	 46.5423 	 134.611
| 29> C 	 -61.3531 	 43.921 	 134.498
| 30> H 	 -62.3016 	 43.8723 	 135.066
| 31> H 	 -60.7408 	 43.0228 	 134.724
| 32> C 	 -61.8112 	 43.8777 	 133.022
| 33> H 	 -60.9311 	 43.8272 	 132.404
| 34> H 	 -62.377 	 44.7443 	 132.67
| 35> C 	 -62.5662 	 42.6056 	 132.657
| 36> H 	 -63.4123 	 42.5791 	 133.362
| 37> H 	 -61.9413 	 41.735 	 132.733
| 38> H 	 -62.9128 	 42.5364 	 131.674
| 39> H 	 -56.3536 	 40.9769 	 135.021
| 40> H 	 -60.6708 	 48.4874 	 135.045
| 41> *
| 42>
| 43>                          ****END OF INPUT****

CARTESIAN COORDINATES (ANGSTROEM)
---------------------------------
  S    -58.028800   42.693900  134.255000
  C    -56.747700   41.966400  135.279000
  C    -56.341700   42.899000  136.242000
  C    -57.067400   44.188900  136.159000
  C    -58.073700   44.207400  135.197000
  H    -56.798200   44.967900  136.798000
  C    -55.222100   42.803700  137.282000
  H    -55.442600   41.829000  137.809000
  H    -55.328300   43.686000  137.848000
  C    -53.803000   42.790300  136.624000
  H    -53.727800   42.102600  135.813000
  H    -53.663900   43.726000  136.109000
  C    -52.605600   42.498000  137.521000
  H    -51.744600   42.834700  137.026000
  H    -52.578500   43.127200  138.451000
  H    -52.383500   41.472300  137.660000
  S    -58.682100   46.941300  135.292000
  C    -60.281200   47.481000  134.969000
  C    -61.090900   46.411900  134.720000
  C    -60.467000   45.105700  134.749000
  C    -59.128100   45.257900  135.019000
  H    -62.133900   46.542300  134.611000
  C    -61.353100   43.921000  134.498000
  H    -62.301600   43.872300  135.066000
  H    -60.740800   43.022800  134.724000
  C    -61.811200   43.877700  133.022000
  H    -60.931100   43.827200  132.404000
  H    -62.377000   44.744300  132.670000
  C    -62.566200   42.605600  132.657000
  H    -63.412300   42.579100  133.362000
  H    -61.941300   41.735000  132.733000
  H    -62.912800   42.536400  131.674000
  H    -56.353600   40.976900  135.021000
  H    -60.670800   48.487400  135.045000

 Total Charge           Charge          ....    0
 Multiplicity           Mult            ....    1
 Number of Electrons    NEL             ....  134
 Basis Dimension        Dim             ....  322

ORBITAL ENERGIES
----------------

  NO   OCC          E(Eh)            E(eV)
   0   2.0000     -88.967520     -2420.9293
   1   2.0000     -88.966607     -2420.9044
   2   2.0000     -10.339809      -281.3605
   3   2.0000     -10.333338      -281.1844
   4   2.0000     -10.323197      -280.9085
   5   2.0000     -10.314345      -280.6676
   6   2.0000     -10.309306      -280.5305
   7   2.0000     -10.303262      -280.3660
   8   2.0000     -10.296477      -280.1814
   9   2.0000     -10.295379      -280.1515
  10   2.0000     -10.295357      -280.1509
  11   2.0000     -10.286622      -279.9132
  12   2.0000     -10.283705      -279.8338
  13   2.0000     -10.280440      -279.7450
  14   2.0000     -10.272709      -279.5346
  15   2.0000     -10.268411      -279.4177
  16   2.0000      -8.081626      -219.9122
  17   2.0000      -8.080607      -219.8845
  18   2.0000      -6.040336      -164.3659
  19   2.0000      -6.039404      -164.3405
  20   2.0000      -6.036115      -164.2510
  21   2.0000      -6.035248      -164.2275
  22   2.0000      -6.032156      -164.1433
  23   2.0000      -6.031273      -164.1193
  24   2.0000      -1.003760       -27.3137
  25   2.0000      -0.976281       -26.5660
  26   2.0000      -0.911619       -24.8064
  27   2.0000      -0.906603       -24.6699
  28   2.0000      -0.865801       -23.5596
  29   2.0000      -0.853521       -23.2255
  30   2.0000      -0.846729       -23.0407
  31   2.0000      -0.812439       -22.1076
  32   2.0000      -0.783235       -21.3129
  33   2.0000      -0.772649       -21.0248
  34   2.0000      -0.706408       -19.2224
  35   2.0000      -0.699674       -19.0391
  36   2.0000      -0.692329       -18.8392
  37   2.0000      -0.664603       -18.0848
  38   2.0000      -0.642080       -17.4719
  39   2.0000      -0.613881       -16.7046
  40   2.0000      -0.600451       -16.3391
  41   2.0000      -0.572407       -15.5760
  42   2.0000      -0.569170       -15.4879
  43   2.0000      -0.556516       -15.1436
  44   2.0000      -0.524015       -14.2592
  45   2.0000      -0.521754       -14.1976
  46   2.0000      -0.519620       -14.1396
  47   2.0000      -0.516596       -14.0573
  48   2.0000      -0.507256       -13.8031
  49   2.0000      -0.503705       -13.7065
  50   2.0000      -0.494087       -13.4448
  51   2.0000      -0.481051       -13.0901
  52   2.0000      -0.473176       -12.8758
  53   2.0000      -0.463601       -12.6152
  54   2.0000      -0.459483       -12.5032
  55   2.0000      -0.447418       -12.1749
  56   2.0000      -0.440506       -11.9868
  57   2.0000      -0.432200       -11.7608
  58   2.0000      -0.429149       -11.6777
  59   2.0000      -0.426877       -11.6159
  60   2.0000      -0.419269       -11.4089
  61   2.0000      -0.414550       -11.2805
  62   2.0000      -0.413505       -11.2521
  63   2.0000      -0.355553        -9.6751
  64   2.0000      -0.329195        -8.9579
  65   2.0000      -0.325115        -8.8468
  66   2.0000      -0.291449        -7.9307
  67   0.0000       0.026346         0.7169
  68   0.0000       0.081282         2.2118
  69   0.0000       0.102850         2.7987
  70   0.0000       0.112624         3.0647
  71   0.0000       0.132735         3.6119

MULLIKEN ATOMIC CHARGES
-----------------------
   0 S :    0.083195
   1 C :   -0.150169
   2 C :   -0.107876
   3 C :    0.021422
   4 C :   -0.108520
   5 H :   -0.003846
   6 C :    0.101556
   7 H :    0.050485
   8 H :    0.011329
   9 C :   -0.074053
  10 H :    0.012899
  11 H :    0.019062
  12 C :   -0.009295
  13 H :    0.008529
  14 H :    0.032011
  15 H :    0.028050
  16 S :    0.103517
  17 C :   -0.071947
  18 C :   -0.031842
  19 C :   -0.030201
  20 C :   -0.141320
  21 H :    0.002096
  22 C :    0.063246
  23 H :    0.035780
  24 H :    0.025625
  25 C :   -0.099806
  26 H :    0.018736
  27 H :    0.034767
  28 C :   -0.008915
  29 H :    0.020621
  30 H :    0.024575
  31 H :    0.020236
  32 H :    0.063173
  33 H :    0.056879
Sum of atomic charges:    0.0000000

LOEWDIN ATOMIC CHARGES
----------------------
   0 S :    0.379334
   1 C :   -0.193811
   2 C :   -0.052437
   3 C :   -0.066443
   4 C :   -0.171388
   5 H :    0.017711
   6 C :   -0.025419
   7 H :    0.042575
   8 H :    0.022735
   9 C :   -0.038975
  10 H :    0.019864
  11 H :    0.024414
  12 C :   -0.066037
  13 H :    0.022971
  14 H :    0.031192
  15 H :    0.021280
  16 S :    0.409492
  17 C :   -0.193127
  18 C :   -0.064081
  19 C :   -0.054538
  20 C :   -0.189511
  21 H :    0.021715
  22 C :   -0.033332
  23 H :    0.034862
  24 H :    0.024787
  25 C :   -0.040529
  26 H :    0.020215
  27 H :    0.023077
  28 C :   -0.059145
  29 H :    0.023219
  30 H :    0.023983
  31 H :    0.018830
  32 H :    0.031876
  33 H :    0.034640

  Mayer bond orders larger than 0.100000
B(  0-S ,  1-C ) :   1.1156 B(  0-S ,  4-C ) :   1.1440 B(  1-C ,  2-C ) :   1.6085
B(  1-C , 32-H ) :   0.9743 B(  2-C ,  3-C ) :   1.2417 B(  2-C ,  6-C ) :   1.0194
B(  3-C ,  4-C ) :   1.5684 B(  3-C ,  5-H ) :   0.9940 B(  4-C , 20-C ) :   1.0256
B(  6-C ,  7-H ) :   0.9407 B(  6-C ,  8-H ) :   0.9365 B(  6-C ,  9-C ) :   1.0610
B(  9-C , 10-H ) :   0.9576 B(  9-C , 11-H ) :   0.9549 B(  9-C , 12-C ) :   1.0929
B( 12-C , 13-H ) :   0.9665 B( 12-C , 14-H ) :   0.9719 B( 12-C , 15-H ) :   0.9751
B( 16-S , 17-C ) :   1.1384 B( 16-S , 20-C ) :   1.1354 B( 17-C , 18-C ) :   1.6343
B( 17-C , 33-H ) :   0.9673 B( 18-C , 19-C ) :   1.2167 B( 18-C , 21-H ) :   0.9919
B( 19-C , 20-C ) :   1.6062 B( 19-C , 22-C ) :   1.0566 B( 22-C , 23-H ) :   0.9332
B( 22-C , 24-H ) :   0.9238 B( 22-C , 25-C ) :   1.0544 B( 25-C , 26-H ) :   0.9505
B( 25-C , 27-H ) :   0.9589 B( 25-C , 28-C ) :   1.0929 B( 28-C , 29-H ) :   0.9724
B( 28-C , 30-H ) :   0.9740 B( 28-C , 31-H ) :   0.9720

Dispersion correction           -0.013586181
FINAL SINGLE POINT ENERGY     -1339.873651107348

DIPOLE MOMENT
-------------
                                X             Y             Z
Electronic contribution:     -3.93841      12.12986      -1.87278
Nuclear contribution   :      3.97651     -12.22615       2.00938
                        -----------------------------------------
Total Dipole Moment    :      0.03810      -0.09629       0.13660
                        -----------------------------------------
Magnitude (a.u.)       :      0.17141
Magnitude (Debye)      :      0.43570

Rotational constants in cm-1:     0.023011     0.007136     0.005644
Rotational constants in MHz :   689.845056   213.925464   169.201946

                             ****ORCA TERMINATED NORMALLY****
TOTAL RUN TIME: 0 days 0 hours 0 minutes 33 seconds 478 msec
