                         Program Version 4.2.1 -  RELEASE  -
|  1> ! wB97X-D3 SP def2-SVP
|  2> %pal
|  3> nprocs 16
|  4> end
|  5>
|  6> * xyz 0 1
|  7> S 	 13.5676 	 25.7975 	 47.5264
|  8> C 	 13.8872 	 24.0851 	 47.8123
|  9> C 	 12.6821 	 23.433 	 48.1087
| 10> C 	 11.5778 	 24.3908 	 48.242
| 11> C 	 11.8495 	 25.6714 	 47.9218
| 12> H 	 10.492 	 24.0758 	 48.4056
| 13> C 	 12.5126 	 22.0159 	 48.2582
| 14> H 	 12.4886 	 21.518 	 47.3326
| 15> H 	 11.4424 	 21.7719 	 48.4805
| 16> C 	 13.3593 	 21.3379 	 49.3337
| 17> H 	 14.3799 	 21.618 	 49.3366
| 18> H 	 13.1436 	 21.7386 	 50.3307
| 19> C 	 13.2459 	 19.8103 	 49.2542
| 20> H 	 13.5851 	 19.5115 	 48.226
| 21> H 	 13.8166 	 19.268 	 50.0217
| 22> H 	 12.2558 	 19.3847 	 49.4066
| 23> S 	 11.2344 	 28.2296 	 46.692
| 24> C 	 9.60915 	 28.8337 	 46.6914
| 25> C 	 8.7871 	 27.8992 	 47.1878
| 26> C 	 9.49957 	 26.8515 	 47.8474
| 27> C 	 10.8696 	 26.7826 	 47.702
| 28> H 	 7.7288 	 27.9948 	 47.1477
| 29> C 	 8.72732 	 25.7899 	 48.5614
| 30> H 	 7.99191 	 26.3033 	 49.1303
| 31> H 	 9.36374 	 25.277 	 49.2942
| 32> C 	 8.04313 	 24.7394 	 47.6401
| 33> H 	 7.55723 	 23.9741 	 48.3397
| 34> H 	 8.68124 	 24.1699 	 46.9692
| 35> C 	 6.85611 	 25.2692 	 46.9485
| 36> H 	 6.43241 	 25.8682 	 47.7632
| 37> H 	 6.20579 	 24.4385 	 46.6028
| 38> H 	 7.03305 	 25.9197 	 45.996
| 39> H 	 14.75 	 23.5824 	 47.5205
| 40> H 	 9.25117 	 29.7212 	 46.3416
| 41> *
| 42>
| 43>                          ****END OF INPUT****

CARTESIAN COORDINATES (ANGSTROEM)
---------------------------------
  S     13.567600   25.797500   47.526400
  C     13.887200   24.085100   47.812300
  C     12.682100   23.433000   48.108700
  C     11.577800   24.390800   48.242000
  C     11.849500   25.671400   47.921800
  H     10.492000   24.075800   48.405600
  C     12.512600   22.015900   48.258200
  H     12.488600   21.518000   47.332600
  H     11.442400   21.771900   48.480500
  C     13.359300   21.337900   49.333700
  H     14.379900   21.618000   49.336600
  H     13.143600   21.738600   50.330700
  C     13.245900   19.810300   49.254200
  H     13.585100   19.511500   48.226000
  H     13.816600   19.268000   50.021700
  H     12.255800   19.384700   49.406600
  S     11.234400   28.229600   46.692000
  C      9.609150   28.833700   46.691400
  C      8.787100   27.899200   47.187800
  C      9.499570   26.851500   47.847400
  C     10.869600   26.782600   47.702000
  H      7.728800   27.994800   47.147700
  C      8.727320   25.789900   48.561400
  H      7.991910   26.303300   49.130300
  H      9.363740   25.277000   49.294200
  C      8.043130   24.739400   47.640100
  H      7.557230   23.974100   48.339700
  H      8.681240   24.169900   46.969200
  C      6.856110   25.269200   46.948500
  H      6.432410   25.868200   47.763200
  H      6.205790   24.438500   46.602800
  H      7.033050   25.919700   45.996000
  H     14.750000   23.582400   47.520500
  H      9.251170   29.721200   46.341600

 Total Charge           Charge          ....    0
 Multiplicity           Mult            ....    1
 Number of Electrons    NEL             ....  134
 Basis Dimension        Dim             ....  322

ORBITAL ENERGIES
----------------

  NO   OCC          E(Eh)            E(eV)
   0   2.0000     -88.965633     -2420.8779
   1   2.0000     -88.961300     -2420.7600
   2   2.0000     -10.338431      -281.3230
   3   2.0000     -10.336522      -281.2711
   4   2.0000     -10.315115      -280.6886
   5   2.0000     -10.311299      -280.5847
   6   2.0000     -10.304709      -280.4054
   7   2.0000     -10.300562      -280.2926
   8   2.0000     -10.298375      -280.2330
   9   2.0000     -10.292319      -280.0682
  10   2.0000     -10.288590      -279.9668
  11   2.0000     -10.288541      -279.9654
  12   2.0000     -10.286983      -279.9230
  13   2.0000     -10.286635      -279.9136
  14   2.0000     -10.285756      -279.8897
  15   2.0000     -10.284281      -279.8495
  16   2.0000      -8.079820      -219.8631
  17   2.0000      -8.075793      -219.7535
  18   2.0000      -6.038625      -164.3194
  19   2.0000      -6.034523      -164.2077
  20   2.0000      -6.034373      -164.2036
  21   2.0000      -6.030339      -164.0939
  22   2.0000      -6.030307      -164.0930
  23   2.0000      -6.026285      -163.9836
  24   2.0000      -1.007170       -27.4065
  25   2.0000      -0.987783       -26.8789
  26   2.0000      -0.920295       -25.0425
  27   2.0000      -0.919418       -25.0186
  28   2.0000      -0.874528       -23.7971
  29   2.0000      -0.853594       -23.2275
  30   2.0000      -0.844680       -22.9849
  31   2.0000      -0.825378       -22.4597
  32   2.0000      -0.781696       -21.2710
  33   2.0000      -0.772231       -21.0135
  34   2.0000      -0.718614       -19.5545
  35   2.0000      -0.708054       -19.2671
  36   2.0000      -0.689977       -18.7752
  37   2.0000      -0.667003       -18.1501
  38   2.0000      -0.648161       -17.6374
  39   2.0000      -0.619208       -16.8495
  40   2.0000      -0.600773       -16.3479
  41   2.0000      -0.582564       -15.8524
  42   2.0000      -0.567759       -15.4495
  43   2.0000      -0.555659       -15.1203
  44   2.0000      -0.545629       -14.8473
  45   2.0000      -0.533816       -14.5259
  46   2.0000      -0.530044       -14.4232
  47   2.0000      -0.518378       -14.1058
  48   2.0000      -0.505428       -13.7534
  49   2.0000      -0.498076       -13.5533
  50   2.0000      -0.493449       -13.4274
  51   2.0000      -0.484418       -13.1817
  52   2.0000      -0.475879       -12.9493
  53   2.0000      -0.462541       -12.5864
  54   2.0000      -0.458175       -12.4676
  55   2.0000      -0.455258       -12.3882
  56   2.0000      -0.442530       -12.0419
  57   2.0000      -0.437403       -11.9024
  58   2.0000      -0.434879       -11.8337
  59   2.0000      -0.428101       -11.6492
  60   2.0000      -0.413574       -11.2539
  61   2.0000      -0.407721       -11.0947
  62   2.0000      -0.397484       -10.8161
  63   2.0000      -0.365498        -9.9457
  64   2.0000      -0.330113        -8.9828
  65   2.0000      -0.323332        -8.7983
  66   2.0000      -0.290272        -7.8987
  67   0.0000       0.020023         0.5448
  68   0.0000       0.084523         2.3000
  69   0.0000       0.100170         2.7258
  70   0.0000       0.118425         3.2225
  71   0.0000       0.135452         3.6858

MULLIKEN ATOMIC CHARGES
-----------------------
   0 S :    0.092995
   1 C :   -0.081520
   2 C :   -0.094755
   3 C :   -0.042614
   4 C :   -0.091060
   5 H :    0.037736
   6 C :    0.075992
   7 H :    0.018664
   8 H :    0.007037
   9 C :   -0.047819
  10 H :    0.015850
  11 H :    0.021879
  12 C :   -0.060124
  13 H :    0.034469
  14 H :    0.035282
  15 H :    0.027594
  16 S :    0.072248
  17 C :   -0.017813
  18 C :   -0.016173
  19 C :   -0.094213
  20 C :   -0.061216
  21 H :    0.008162
  22 C :    0.023900
  23 H :    0.016949
  24 H :    0.031093
  25 C :   -0.087483
  26 H :    0.035492
  27 H :    0.039227
  28 C :   -0.071429
  29 H :    0.023746
  30 H :    0.042567
  31 H :    0.054053
  32 H :    0.035535
  33 H :    0.015749
Sum of atomic charges:   -0.0000000

LOEWDIN ATOMIC CHARGES
----------------------
   0 S :    0.389499
   1 C :   -0.180618
   2 C :   -0.055131
   3 C :   -0.078748
   4 C :   -0.177339
   5 H :    0.044109
   6 C :   -0.044597
   7 H :    0.029783
   8 H :    0.037618
   9 C :   -0.037482
  10 H :    0.018514
  11 H :    0.028143
  12 C :   -0.069140
  13 H :    0.029655
  14 H :    0.028224
  15 H :    0.022506
  16 S :    0.380380
  17 C :   -0.157933
  18 C :   -0.071143
  19 C :   -0.060107
  20 C :   -0.175812
  21 H :    0.028147
  22 C :   -0.036583
  23 H :    0.025169
  24 H :    0.029913
  25 C :   -0.046986
  26 H :    0.034772
  27 H :    0.021006
  28 C :   -0.076647
  29 H :    0.024456
  30 H :    0.030066
  31 H :    0.031906
  32 H :    0.018405
  33 H :    0.015991

  Mayer bond orders larger than 0.100000
B(  0-S ,  1-C ) :   1.1257 B(  0-S ,  4-C ) :   1.1311 B(  1-C ,  2-C ) :   1.6084
B(  1-C , 32-H ) :   0.9750 B(  2-C ,  3-C ) :   1.2356 B(  2-C ,  6-C ) :   1.0483
B(  3-C ,  4-C ) :   1.6039 B(  3-C ,  5-H ) :   0.9653 B(  4-C , 20-C ) :   1.0567
B(  6-C ,  7-H ) :   0.9243 B(  6-C ,  8-H ) :   0.9285 B(  6-C ,  9-C ) :   1.0484
B(  9-C , 10-H ) :   0.9595 B(  9-C , 11-H ) :   0.9505 B(  9-C , 12-C ) :   1.0743
B( 12-C , 13-H ) :   0.9753 B( 12-C , 14-H ) :   0.9737 B( 12-C , 15-H ) :   0.9766
B( 16-S , 17-C ) :   1.1574 B( 16-S , 20-C ) :   1.0966 B( 17-C , 18-C ) :   1.6024
B( 17-C , 33-H ) :   0.9744 B( 18-C , 19-C ) :   1.2501 B( 18-C , 21-H ) :   0.9926
B( 19-C , 20-C ) :   1.6067 B( 19-C , 22-C ) :   1.0381 B( 22-C , 23-H ) :   0.9305
B( 22-C , 24-H ) :   0.9414 B( 22-C , 25-C ) :   1.0690 B( 25-C , 26-H ) :   0.9531
B( 25-C , 27-H ) :   0.9497 B( 25-C , 28-C ) :   1.0860 B( 28-C , 29-H ) :   0.9692
B( 28-C , 30-H ) :   0.9687 B( 28-C , 31-H ) :   0.9640

Dispersion correction           -0.014115406
FINAL SINGLE POINT ENERGY     -1339.845416526111

DIPOLE MOMENT
-------------
                                X             Y             Z
Electronic contribution:     13.37319      26.38455      -6.57903
Nuclear contribution   :    -14.02894     -27.07138       6.58885
                        -----------------------------------------
Total Dipole Moment    :     -0.65575      -0.68683       0.00982
                        -----------------------------------------
Magnitude (a.u.)       :      0.94965
Magnitude (Debye)      :      2.41383

Rotational constants in cm-1:     0.021292     0.008074     0.006061
Rotational constants in MHz :   638.316158   242.052456   181.692542

                             ****ORCA TERMINATED NORMALLY****
TOTAL RUN TIME: 0 days 0 hours 0 minutes 35 seconds 325 msec
