                         Program Version 4.2.1 -  RELEASE  -
|  1> ! wB97X-D3 SP def2-SVP
|  2> %pal
|  3> nprocs 16
|  4> end
|  5>
|  6> * xyz 0 1
|  7> S 	 -83.5799 	 52.2677 	 136.49
|  8> C 	 -84.7418 	 52.8727 	 137.768
|  9> C 	 -84.2154 	 53.9309 	 138.493
| 10> C 	 -82.8165 	 54.148 	 138.181
| 11> C 	 -82.3405 	 53.3106 	 137.217
| 12> H 	 -82.1022 	 54.7768 	 138.621
| 13> C 	 -84.9784 	 54.6648 	 139.576
| 14> H 	 -86.008 	 54.3146 	 139.682
| 15> H 	 -85.0098 	 55.77 	 139.446
| 16> C 	 -84.4375 	 54.4876 	 141.015
| 17> H 	 -84.1836 	 53.4875 	 141.145
| 18> H 	 -83.5796 	 55.1053 	 141.258
| 19> C 	 -85.3954 	 54.7953 	 142.06
| 20> H 	 -85.0155 	 54.6529 	 143.106
| 21> H 	 -85.7014 	 55.8133 	 141.953
| 22> H 	 -86.2614 	 54.2043 	 142
| 23> S 	 -80.9128 	 54.15 	 134.99
| 24> C 	 -79.1103 	 54.2374 	 135.099
| 25> C 	 -78.6821 	 53.6875 	 136.259
| 26> C 	 -79.7465 	 53.3916 	 137.211
| 27> C 	 -81.0268 	 53.5102 	 136.616
| 28> H 	 -77.6581 	 53.5841 	 136.432
| 29> C 	 -79.4815 	 52.9204 	 138.6
| 30> H 	 -79.0647 	 51.9928 	 138.457
| 31> H 	 -80.3617 	 52.6045 	 139.192
| 32> C 	 -78.7759 	 53.9036 	 139.526
| 33> H 	 -77.8615 	 54.0929 	 138.992
| 34> H 	 -78.5773 	 53.328 	 140.433
| 35> C 	 -79.6029 	 55.1996 	 139.852
| 36> H 	 -78.921 	 55.7279 	 140.472
| 37> H 	 -80.5166 	 55.1519 	 140.441
| 38> H 	 -79.6931 	 55.7212 	 138.88
| 39> H 	 -85.7746 	 52.5011 	 137.91
| 40> H 	 -78.4537 	 54.4223 	 134.277
| 41> *
| 42>
| 43>                          ****END OF INPUT****

CARTESIAN COORDINATES (ANGSTROEM)
---------------------------------
  S    -83.579900   52.267700  136.490000
  C    -84.741800   52.872700  137.768000
  C    -84.215400   53.930900  138.493000
  C    -82.816500   54.148000  138.181000
  C    -82.340500   53.310600  137.217000
  H    -82.102200   54.776800  138.621000
  C    -84.978400   54.664800  139.576000
  H    -86.008000   54.314600  139.682000
  H    -85.009800   55.770000  139.446000
  C    -84.437500   54.487600  141.015000
  H    -84.183600   53.487500  141.145000
  H    -83.579600   55.105300  141.258000
  C    -85.395400   54.795300  142.060000
  H    -85.015500   54.652900  143.106000
  H    -85.701400   55.813300  141.953000
  H    -86.261400   54.204300  142.000000
  S    -80.912800   54.150000  134.990000
  C    -79.110300   54.237400  135.099000
  C    -78.682100   53.687500  136.259000
  C    -79.746500   53.391600  137.211000
  C    -81.026800   53.510200  136.616000
  H    -77.658100   53.584100  136.432000
  C    -79.481500   52.920400  138.600000
  H    -79.064700   51.992800  138.457000
  H    -80.361700   52.604500  139.192000
  C    -78.775900   53.903600  139.526000
  H    -77.861500   54.092900  138.992000
  H    -78.577300   53.328000  140.433000
  C    -79.602900   55.199600  139.852000
  H    -78.921000   55.727900  140.472000
  H    -80.516600   55.151900  140.441000
  H    -79.693100   55.721200  138.880000
  H    -85.774600   52.501100  137.910000
  H    -78.453700   54.422300  134.277000

 Total Charge           Charge          ....    0
 Multiplicity           Mult            ....    1
 Number of Electrons    NEL             ....  134
 Basis Dimension        Dim             ....  322

ORBITAL ENERGIES
----------------

  NO   OCC          E(Eh)            E(eV)
   0   2.0000     -88.967838     -2420.9379
   1   2.0000     -88.962471     -2420.7919
   2   2.0000     -10.327520      -281.0261
   3   2.0000     -10.326845      -281.0077
   4   2.0000     -10.324063      -280.9320
   5   2.0000     -10.316649      -280.7303
   6   2.0000     -10.308964      -280.5212
   7   2.0000     -10.304675      -280.4045
   8   2.0000     -10.297901      -280.2201
   9   2.0000     -10.292211      -280.0653
  10   2.0000     -10.291289      -280.0402
  11   2.0000     -10.288808      -279.9727
  12   2.0000     -10.281804      -279.7821
  13   2.0000     -10.278059      -279.6802
  14   2.0000     -10.273808      -279.5645
  15   2.0000     -10.269700      -279.4527
  16   2.0000      -8.080991      -219.8950
  17   2.0000      -8.076440      -219.7711
  18   2.0000      -6.039699      -164.3486
  19   2.0000      -6.035969      -164.2471
  20   2.0000      -6.035141      -164.2245
  21   2.0000      -6.031395      -164.1226
  22   2.0000      -6.031102      -164.1146
  23   2.0000      -6.026981      -164.0025
  24   2.0000      -0.998679       -27.1754
  25   2.0000      -0.974275       -26.5114
  26   2.0000      -0.921360       -25.0715
  27   2.0000      -0.910348       -24.7718
  28   2.0000      -0.874431       -23.7945
  29   2.0000      -0.848809       -23.0973
  30   2.0000      -0.842612       -22.9286
  31   2.0000      -0.819952       -22.3120
  32   2.0000      -0.784268       -21.3410
  33   2.0000      -0.772743       -21.0274
  34   2.0000      -0.709682       -19.3114
  35   2.0000      -0.697566       -18.9817
  36   2.0000      -0.693389       -18.8681
  37   2.0000      -0.656140       -17.8545
  38   2.0000      -0.645577       -17.5671
  39   2.0000      -0.618463       -16.8292
  40   2.0000      -0.602061       -16.3829
  41   2.0000      -0.585760       -15.9393
  42   2.0000      -0.564681       -15.3657
  43   2.0000      -0.556513       -15.1435
  44   2.0000      -0.544598       -14.8193
  45   2.0000      -0.523114       -14.2347
  46   2.0000      -0.518624       -14.1125
  47   2.0000      -0.515220       -14.0198
  48   2.0000      -0.499041       -13.5796
  49   2.0000      -0.498432       -13.5630
  50   2.0000      -0.491813       -13.3829
  51   2.0000      -0.481331       -13.0977
  52   2.0000      -0.475178       -12.9303
  53   2.0000      -0.465598       -12.6696
  54   2.0000      -0.459552       -12.5050
  55   2.0000      -0.446744       -12.1565
  56   2.0000      -0.444452       -12.0942
  57   2.0000      -0.435450       -11.8492
  58   2.0000      -0.433940       -11.8081
  59   2.0000      -0.423109       -11.5134
  60   2.0000      -0.421436       -11.4679
  61   2.0000      -0.420044       -11.4300
  62   2.0000      -0.403348       -10.9757
  63   2.0000      -0.345283        -9.3956
  64   2.0000      -0.330323        -8.9886
  65   2.0000      -0.323794        -8.8109
  66   2.0000      -0.297002        -8.0818
  67   0.0000       0.035851         0.9755
  68   0.0000       0.061653         1.6777
  69   0.0000       0.103604         2.8192
  70   0.0000       0.121006         3.2927
  71   0.0000       0.126113         3.4317

MULLIKEN ATOMIC CHARGES
-----------------------
   0 S :    0.095609
   1 C :   -0.135754
   2 C :   -0.040676
   3 C :    0.078593
   4 C :   -0.156222
   5 H :   -0.029148
   6 C :    0.051436
   7 H :    0.011897
   8 H :    0.041547
   9 C :   -0.047805
  10 H :    0.010799
  11 H :    0.026137
  12 C :   -0.042641
  13 H :    0.038876
  14 H :    0.014631
  15 H :    0.012089
  16 S :    0.094177
  17 C :   -0.085030
  18 C :   -0.005587
  19 C :   -0.066673
  20 C :   -0.151261
  21 H :    0.003906
  22 C :    0.072710
  23 H :    0.013941
  24 H :    0.017188
  25 C :   -0.072707
  26 H :    0.022995
  27 H :    0.030783
  28 C :   -0.051146
  29 H :    0.026351
  30 H :    0.048653
  31 H :    0.058726
  32 H :    0.060113
  33 H :    0.053494
Sum of atomic charges:   -0.0000000

LOEWDIN ATOMIC CHARGES
----------------------
   0 S :    0.358020
   1 C :   -0.173547
   2 C :   -0.055457
   3 C :   -0.044718
   4 C :   -0.180567
   5 H :    0.024694
   6 C :   -0.029850
   7 H :    0.029305
   8 H :    0.037562
   9 C :   -0.042483
  10 H :    0.015354
  11 H :    0.022547
  12 C :   -0.060377
  13 H :    0.034729
  14 H :    0.019536
  15 H :    0.014043
  16 S :    0.376695
  17 C :   -0.165240
  18 C :   -0.061199
  19 C :   -0.054843
  20 C :   -0.196963
  21 H :    0.022800
  22 C :   -0.044830
  23 H :    0.024144
  24 H :    0.033947
  25 C :   -0.030119
  26 H :    0.019301
  27 H :    0.025296
  28 C :   -0.067319
  29 H :    0.025584
  30 H :    0.027040
  31 H :    0.035187
  32 H :    0.034308
  33 H :    0.027418

  Mayer bond orders larger than 0.100000
B(  0-S ,  1-C ) :   1.1059 B(  0-S ,  4-C ) :   1.1191 B(  1-C ,  2-C ) :   1.6553
B(  1-C , 32-H ) :   0.9620 B(  2-C ,  3-C ) :   1.1686 B(  2-C ,  6-C ) :   1.0472
B(  3-C ,  4-C ) :   1.6305 B(  3-C ,  5-H ) :   0.9964 B(  4-C , 20-C ) :   1.0304
B(  6-C ,  7-H ) :   0.9443 B(  6-C ,  8-H ) :   0.9329 B(  6-C ,  9-C ) :   1.0547
B(  9-C , 10-H ) :   0.9527 B(  9-C , 11-H ) :   0.9474 B(  9-C , 12-C ) :   1.1097
B( 12-C , 13-H ) :   0.9700 B( 12-C , 14-H ) :   0.9696 B( 12-C , 15-H ) :   0.9688
B( 16-S , 17-C ) :   1.1224 B( 16-S , 20-C ) :   1.1377 B( 17-C , 18-C ) :   1.6595
B( 17-C , 33-H ) :   0.9652 B( 18-C , 19-C ) :   1.2023 B( 18-C , 21-H ) :   0.9922
B( 19-C , 20-C ) :   1.6065 B( 19-C , 22-C ) :   1.0444 B( 22-C , 23-H ) :   0.9303
B( 22-C , 24-H ) :   0.9300 B( 22-C , 25-C ) :   1.0647 B( 25-C , 26-H ) :   0.9614
B( 25-C , 27-H ) :   0.9549 B( 25-C , 28-C ) :   1.0714 B( 28-C , 29-H ) :   0.9689
B( 28-C , 30-H ) :   0.9685 B( 28-C , 31-H ) :   0.9671

Dispersion correction           -0.015001952
FINAL SINGLE POINT ENERGY     -1339.856697301704

DIPOLE MOMENT
-------------
                                X             Y             Z
Electronic contribution:      0.20230      -8.63994     -29.67787
Nuclear contribution   :      0.03141       8.78460      30.43063
                        -----------------------------------------
Total Dipole Moment    :      0.23370       0.14466       0.75277
                        -----------------------------------------
Magnitude (a.u.)       :      0.80137
Magnitude (Debye)      :      2.03693

Rotational constants in cm-1:     0.018959     0.009152     0.006845
Rotational constants in MHz :   568.386186   274.368390   205.195477

                             ****ORCA TERMINATED NORMALLY****
TOTAL RUN TIME: 0 days 0 hours 0 minutes 35 seconds 885 msec
