                         Program Version 4.2.1 -  RELEASE  -
|  1> ! wB97X-D3 SP def2-SVP
|  2> %pal
|  3> nprocs 16
|  4> end
|  5>
|  6> * xyz 0 1
|  7> S 	 -64.9411 	 52.2074 	 121.988
|  8> C 	 -64.2929 	 51.764 	 123.505
|  9> C 	 -65.2594 	 51.7198 	 124.488
| 10> C 	 -66.5848 	 51.75 	 123.898
| 11> C 	 -66.6287 	 52.0842 	 122.563
| 12> H 	 -67.4799 	 51.6902 	 124.5
| 13> C 	 -65.108 	 51.5576 	 126.009
| 14> H 	 -65.8579 	 52.1346 	 126.532
| 15> H 	 -64.2067 	 52.0864 	 126.094
| 16> C 	 -64.8462 	 50.1288 	 126.608
| 17> H 	 -65.5027 	 49.5699 	 125.956
| 18> H 	 -63.91 	 49.7561 	 126.33
| 19> C 	 -65.2836 	 49.8114 	 128.098
| 20> H 	 -65.4094 	 48.7762 	 128.2
| 21> H 	 -64.6237 	 50.1656 	 128.852
| 22> H 	 -66.1634 	 50.3513 	 128.234
| 23> S 	 -67.7674 	 54.3088 	 121.485
| 24> C 	 -69.356 	 54.1413 	 120.796
| 25> C 	 -69.9135 	 52.8973 	 120.951
| 26> C 	 -69.0405 	 52.0535 	 121.666
| 27> C 	 -67.8192 	 52.637 	 121.897
| 28> H 	 -70.8699 	 52.6953 	 120.451
| 29> C 	 -69.3916 	 50.6046 	 121.769
| 30> H 	 -70.3804 	 50.5471 	 122.266
| 31> H 	 -68.5361 	 50.1866 	 122.282
| 32> C 	 -69.3803 	 49.8144 	 120.348
| 33> H 	 -68.4324 	 50.0117 	 119.767
| 34> H 	 -70.1353 	 50.1927 	 119.638
| 35> C 	 -69.744 	 48.3409 	 120.398
| 36> H 	 -69.24 	 47.875 	 121.224
| 37> H 	 -69.3235 	 47.8669 	 119.509
| 38> H 	 -70.7789 	 48.0876 	 120.406
| 39> H 	 -63.2872 	 51.5518 	 123.696
| 40> H 	 -69.7694 	 54.9315 	 120.242
| 41> *
| 42>
| 43>                          ****END OF INPUT****

CARTESIAN COORDINATES (ANGSTROEM)
---------------------------------
  S    -64.941100   52.207400  121.988000
  C    -64.292900   51.764000  123.505000
  C    -65.259400   51.719800  124.488000
  C    -66.584800   51.750000  123.898000
  C    -66.628700   52.084200  122.563000
  H    -67.479900   51.690200  124.500000
  C    -65.108000   51.557600  126.009000
  H    -65.857900   52.134600  126.532000
  H    -64.206700   52.086400  126.094000
  C    -64.846200   50.128800  126.608000
  H    -65.502700   49.569900  125.956000
  H    -63.910000   49.756100  126.330000
  C    -65.283600   49.811400  128.098000
  H    -65.409400   48.776200  128.200000
  H    -64.623700   50.165600  128.852000
  H    -66.163400   50.351300  128.234000
  S    -67.767400   54.308800  121.485000
  C    -69.356000   54.141300  120.796000
  C    -69.913500   52.897300  120.951000
  C    -69.040500   52.053500  121.666000
  C    -67.819200   52.637000  121.897000
  H    -70.869900   52.695300  120.451000
  C    -69.391600   50.604600  121.769000
  H    -70.380400   50.547100  122.266000
  H    -68.536100   50.186600  122.282000
  C    -69.380300   49.814400  120.348000
  H    -68.432400   50.011700  119.767000
  H    -70.135300   50.192700  119.638000
  C    -69.744000   48.340900  120.398000
  H    -69.240000   47.875000  121.224000
  H    -69.323500   47.866900  119.509000
  H    -70.778900   48.087600  120.406000
  H    -63.287200   51.551800  123.696000
  H    -69.769400   54.931500  120.242000

 Total Charge           Charge          ....    0
 Multiplicity           Mult            ....    1
 Number of Electrons    NEL             ....  134
 Basis Dimension        Dim             ....  322

ORBITAL ENERGIES
----------------

  NO   OCC          E(Eh)            E(eV)
   0   2.0000     -88.966952     -2420.9138
   1   2.0000     -88.963854     -2420.8295
   2   2.0000     -10.329247      -281.0731
   3   2.0000     -10.322321      -280.8846
   4   2.0000     -10.312074      -280.6058
   5   2.0000     -10.307340      -280.4770
   6   2.0000     -10.302589      -280.3477
   7   2.0000     -10.294477      -280.1269
   8   2.0000     -10.293544      -280.1016
   9   2.0000     -10.292559      -280.0748
  10   2.0000     -10.291868      -280.0560
  11   2.0000     -10.289537      -279.9925
  12   2.0000     -10.289423      -279.9894
  13   2.0000     -10.285112      -279.8721
  14   2.0000     -10.273382      -279.5529
  15   2.0000     -10.270444      -279.4730
  16   2.0000      -8.081704      -219.9143
  17   2.0000      -8.079595      -219.8570
  18   2.0000      -6.040337      -164.3659
  19   2.0000      -6.037924      -164.3003
  20   2.0000      -6.036108      -164.2509
  21   2.0000      -6.034129      -164.1970
  22   2.0000      -6.032435      -164.1509
  23   2.0000      -6.030328      -164.0936
  24   2.0000      -1.009964       -27.4825
  25   2.0000      -0.988067       -26.8867
  26   2.0000      -0.904015       -24.5995
  27   2.0000      -0.900142       -24.4941
  28   2.0000      -0.871027       -23.7019
  29   2.0000      -0.855611       -23.2824
  30   2.0000      -0.847610       -23.0646
  31   2.0000      -0.816595       -22.2207
  32   2.0000      -0.784051       -21.3351
  33   2.0000      -0.770952       -20.9787
  34   2.0000      -0.712246       -19.3812
  35   2.0000      -0.701725       -19.0949
  36   2.0000      -0.694055       -18.8862
  37   2.0000      -0.663012       -18.0415
  38   2.0000      -0.644155       -17.5283
  39   2.0000      -0.616834       -16.7849
  40   2.0000      -0.591800       -16.1037
  41   2.0000      -0.570992       -15.5375
  42   2.0000      -0.560832       -15.2610
  43   2.0000      -0.556744       -15.1498
  44   2.0000      -0.528955       -14.3936
  45   2.0000      -0.523849       -14.2547
  46   2.0000      -0.520069       -14.1518
  47   2.0000      -0.515025       -14.0145
  48   2.0000      -0.505325       -13.7506
  49   2.0000      -0.495323       -13.4784
  50   2.0000      -0.491667       -13.3790
  51   2.0000      -0.486567       -13.2402
  52   2.0000      -0.470962       -12.8155
  53   2.0000      -0.462137       -12.5754
  54   2.0000      -0.460615       -12.5340
  55   2.0000      -0.450782       -12.2664
  56   2.0000      -0.445545       -12.1239
  57   2.0000      -0.442571       -12.0430
  58   2.0000      -0.430909       -11.7256
  59   2.0000      -0.426819       -11.6143
  60   2.0000      -0.423855       -11.5337
  61   2.0000      -0.408955       -11.1282
  62   2.0000      -0.403311       -10.9746
  63   2.0000      -0.348417        -9.4809
  64   2.0000      -0.331025        -9.0077
  65   2.0000      -0.324792        -8.8380
  66   2.0000      -0.293154        -7.9771
  67   0.0000       0.037257         1.0138
  68   0.0000       0.065924         1.7939
  69   0.0000       0.118680         3.2294
  70   0.0000       0.122512         3.3337
  71   0.0000       0.129756         3.5308

MULLIKEN ATOMIC CHARGES
-----------------------
   0 S :    0.111255
   1 C :   -0.087661
   2 C :   -0.147170
   3 C :    0.050468
   4 C :   -0.161781
   5 H :    0.013409
   6 C :    0.095500
   7 H :    0.025091
   8 H :    0.008636
   9 C :   -0.059460
  10 H :    0.016852
  11 H :    0.007646
  12 C :    0.009556
  13 H :    0.032144
  14 H :    0.029231
  15 H :    0.012148
  16 S :    0.117426
  17 C :   -0.087289
  18 C :   -0.032659
  19 C :   -0.036760
  20 C :   -0.161873
  21 H :    0.029724
  22 C :    0.078269
  23 H :    0.042087
  24 H :    0.027088
  25 C :   -0.122044
  26 H :    0.044552
  27 H :    0.021377
  28 C :   -0.018957
  29 H :    0.020690
  30 H :    0.027810
  31 H :    0.031630
  32 H :    0.028639
  33 H :    0.034422
Sum of atomic charges:   -0.0000000

LOEWDIN ATOMIC CHARGES
----------------------
   0 S :    0.406605
   1 C :   -0.195702
   2 C :   -0.063239
   3 C :   -0.053376
   4 C :   -0.197233
   5 H :    0.029179
   6 C :   -0.030651
   7 H :    0.030417
   8 H :    0.024407
   9 C :   -0.034137
  10 H :    0.023493
  11 H :    0.012892
  12 C :   -0.046365
  13 H :    0.024214
  14 H :    0.022025
  15 H :    0.019070
  16 S :    0.419552
  17 C :   -0.177309
  18 C :   -0.066630
  19 C :   -0.068009
  20 C :   -0.204400
  21 H :    0.039301
  22 C :   -0.029598
  23 H :    0.037082
  24 H :    0.029267
  25 C :   -0.045946
  26 H :    0.033519
  27 H :    0.020939
  28 C :   -0.066237
  29 H :    0.020372
  30 H :    0.031950
  31 H :    0.020954
  32 H :    0.019899
  33 H :    0.013695

  Mayer bond orders larger than 0.100000
B(  0-S ,  1-C ) :   1.1525 B(  0-S ,  4-C ) :   1.1342 B(  1-C ,  2-C ) :   1.6058
B(  1-C , 32-H ) :   0.9754 B(  2-C ,  3-C ) :   1.2505 B(  2-C ,  6-C ) :   1.0196
B(  3-C ,  4-C ) :   1.5708 B(  3-C ,  5-H ) :   0.9904 B(  4-C , 20-C ) :   1.0154
B(  6-C ,  7-H ) :   0.9435 B(  6-C ,  8-H ) :   0.9314 B(  6-C ,  9-C ) :   1.0464
B(  9-C , 10-H ) :   0.9626 B(  9-C , 11-H ) :   0.9576 B(  9-C , 12-C ) :   1.0690
B( 12-C , 13-H ) :   0.9762 B( 12-C , 14-H ) :   0.9792 B( 12-C , 15-H ) :   0.9751
B( 16-S , 17-C ) :   1.1532 B( 16-S , 20-C ) :   1.1548 B( 17-C , 18-C ) :   1.6255
B( 17-C , 33-H ) :   0.9723 B( 18-C , 19-C ) :   1.2104 B( 18-C , 21-H ) :   0.9934
B( 19-C , 20-C ) :   1.6140 B( 19-C , 22-C ) :   1.0654 B( 22-C , 23-H ) :   0.9314
B( 22-C , 24-H ) :   0.9292 B( 22-C , 25-C ) :   1.0512 B( 25-C , 26-H ) :   0.9604
B( 25-C , 27-H ) :   0.9560 B( 25-C , 28-C ) :   1.0799 B( 28-C , 29-H ) :   0.9750
B( 28-C , 30-H ) :   0.9701 B( 28-C , 31-H ) :   0.9778

Dispersion correction           -0.013521734
FINAL SINGLE POINT ENERGY     -1339.848720990980

DIPOLE MOMENT
-------------
                                X             Y             Z
Electronic contribution:      5.74111      22.12738     -13.27500
Nuclear contribution   :     -5.94997     -22.43287      13.57558
                        -----------------------------------------
Total Dipole Moment    :     -0.20886      -0.30549       0.30059
                        -----------------------------------------
Magnitude (a.u.)       :      0.47676
Magnitude (Debye)      :      1.21182

Rotational constants in cm-1:     0.017444     0.007673     0.006405
Rotational constants in MHz :   522.964736   230.026452   192.025207

                             ****ORCA TERMINATED NORMALLY****
TOTAL RUN TIME: 0 days 0 hours 0 minutes 32 seconds 345 msec
