                         Program Version 4.2.1 -  RELEASE  -
|  1> ! wB97X-D3 SP def2-SVP
|  2> %pal
|  3> nprocs 16
|  4> end
|  5>
|  6> * xyz 0 1
|  7> S 	 -0.402154 	 -14.8809 	 86.283
|  8> C 	 -0.130401 	 -16.3518 	 87.0924
|  9> C 	 -1.34494 	 -16.9985 	 87.2576
| 10> C 	 -2.33842 	 -16.5333 	 86.3464
| 11> C 	 -2.03131 	 -15.3128 	 85.8334
| 12> H 	 -3.25849 	 -17.1364 	 86.1097
| 13> C 	 -1.41352 	 -18.3604 	 87.9272
| 14> H 	 -0.411655 	 -18.525 	 88.3681
| 15> H 	 -1.53912 	 -19.2464 	 87.2396
| 16> C 	 -2.46295 	 -18.3463 	 89.1319
| 17> H 	 -2.29814 	 -17.5044 	 89.8774
| 18> H 	 -3.43974 	 -17.933 	 88.7498
| 19> C 	 -2.67372 	 -19.743 	 89.773
| 20> H 	 -1.77181 	 -19.9404 	 90.2971
| 21> H 	 -3.57262 	 -19.6824 	 90.4393
| 22> H 	 -2.86424 	 -20.4829 	 89.0856
| 23> S 	 -1.91885 	 -13.3456 	 83.7586
| 24> C 	 -3.44388 	 -12.9716 	 82.9631
| 25> C 	 -4.49831 	 -13.5466 	 83.5542
| 26> C 	 -4.19019 	 -14.4739 	 84.6127
| 27> C 	 -2.79361 	 -14.5014 	 84.8555
| 28> H 	 -5.48941 	 -13.343 	 83.2323
| 29> C 	 -5.23453 	 -15.1741 	 85.3874
| 30> H 	 -6.02599 	 -14.5166 	 85.6243
| 31> H 	 -4.7291 	 -15.3702 	 86.3451
| 32> C 	 -5.79072 	 -16.4841 	 84.8201
| 33> H 	 -5.03063 	 -17.3191 	 84.6375
| 34> H 	 -6.23309 	 -16.2034 	 83.8283
| 35> C 	 -6.82385 	 -17.0998 	 85.7337
| 36> H 	 -6.31255 	 -17.5313 	 86.566
| 37> H 	 -7.28754 	 -17.9614 	 85.3047
| 38> H 	 -7.61653 	 -16.4978 	 86.1474
| 39> H 	 0.774465 	 -16.6921 	 87.6264
| 40> H 	 -3.59645 	 -12.3834 	 82.0991
| 41> *
| 42>
| 43>                          ****END OF INPUT****

CARTESIAN COORDINATES (ANGSTROEM)
---------------------------------
  S     -0.402154  -14.880900   86.283000
  C     -0.130401  -16.351800   87.092400
  C     -1.344940  -16.998500   87.257600
  C     -2.338420  -16.533300   86.346400
  C     -2.031310  -15.312800   85.833400
  H     -3.258490  -17.136400   86.109700
  C     -1.413520  -18.360400   87.927200
  H     -0.411655  -18.525000   88.368100
  H     -1.539120  -19.246400   87.239600
  C     -2.462950  -18.346300   89.131900
  H     -2.298140  -17.504400   89.877400
  H     -3.439740  -17.933000   88.749800
  C     -2.673720  -19.743000   89.773000
  H     -1.771810  -19.940400   90.297100
  H     -3.572620  -19.682400   90.439300
  H     -2.864240  -20.482900   89.085600
  S     -1.918850  -13.345600   83.758600
  C     -3.443880  -12.971600   82.963100
  C     -4.498310  -13.546600   83.554200
  C     -4.190190  -14.473900   84.612700
  C     -2.793610  -14.501400   84.855500
  H     -5.489410  -13.343000   83.232300
  C     -5.234530  -15.174100   85.387400
  H     -6.025990  -14.516600   85.624300
  H     -4.729100  -15.370200   86.345100
  C     -5.790720  -16.484100   84.820100
  H     -5.030630  -17.319100   84.637500
  H     -6.233090  -16.203400   83.828300
  C     -6.823850  -17.099800   85.733700
  H     -6.312550  -17.531300   86.566000
  H     -7.287540  -17.961400   85.304700
  H     -7.616530  -16.497800   86.147400
  H      0.774465  -16.692100   87.626400
  H     -3.596450  -12.383400   82.099100

 Total Charge           Charge          ....    0
 Multiplicity           Mult            ....    1
 Number of Electrons    NEL             ....  134
 Basis Dimension        Dim             ....  322

ORBITAL ENERGIES
----------------

  NO   OCC          E(Eh)            E(eV)
   0   2.0000     -88.967051     -2420.9165
   1   2.0000     -88.965294     -2420.8687
   2   2.0000     -10.336675      -281.2752
   3   2.0000     -10.330586      -281.1095
   4   2.0000     -10.314015      -280.6586
   5   2.0000     -10.311687      -280.5953
   6   2.0000     -10.304704      -280.4053
   7   2.0000     -10.300212      -280.2830
   8   2.0000     -10.298221      -280.2288
   9   2.0000     -10.298156      -280.2271
  10   2.0000     -10.297100      -280.1983
  11   2.0000     -10.296550      -280.1834
  12   2.0000     -10.287521      -279.9377
  13   2.0000     -10.286756      -279.9169
  14   2.0000     -10.275280      -279.6046
  15   2.0000     -10.273041      -279.5437
  16   2.0000      -8.081074      -219.8972
  17   2.0000      -8.080504      -219.8817
  18   2.0000      -6.039584      -164.3454
  19   2.0000      -6.039266      -164.3368
  20   2.0000      -6.035436      -164.2326
  21   2.0000      -6.035320      -164.2294
  22   2.0000      -6.031761      -164.1326
  23   2.0000      -6.030957      -164.1107
  24   2.0000      -1.010594       -27.4996
  25   2.0000      -0.983992       -26.7758
  26   2.0000      -0.915371       -24.9085
  27   2.0000      -0.901433       -24.5292
  28   2.0000      -0.869554       -23.6618
  29   2.0000      -0.856346       -23.3024
  30   2.0000      -0.847193       -23.0533
  31   2.0000      -0.821023       -22.3412
  32   2.0000      -0.784156       -21.3380
  33   2.0000      -0.768001       -20.8984
  34   2.0000      -0.709906       -19.3175
  35   2.0000      -0.698940       -19.0191
  36   2.0000      -0.692625       -18.8473
  37   2.0000      -0.659958       -17.9584
  38   2.0000      -0.638190       -17.3660
  39   2.0000      -0.623019       -16.9532
  40   2.0000      -0.598884       -16.2965
  41   2.0000      -0.569874       -15.5071
  42   2.0000      -0.565758       -15.3951
  43   2.0000      -0.549417       -14.9504
  44   2.0000      -0.528820       -14.3899
  45   2.0000      -0.524072       -14.2607
  46   2.0000      -0.520107       -14.1528
  47   2.0000      -0.519574       -14.1383
  48   2.0000      -0.504548       -13.7295
  49   2.0000      -0.499195       -13.5838
  50   2.0000      -0.496211       -13.5026
  51   2.0000      -0.486019       -13.2253
  52   2.0000      -0.466961       -12.7067
  53   2.0000      -0.461219       -12.5504
  54   2.0000      -0.459622       -12.5069
  55   2.0000      -0.456333       -12.4175
  56   2.0000      -0.449730       -12.2378
  57   2.0000      -0.440423       -11.9845
  58   2.0000      -0.437502       -11.9050
  59   2.0000      -0.425898       -11.5893
  60   2.0000      -0.415765       -11.3136
  61   2.0000      -0.409792       -11.1510
  62   2.0000      -0.406839       -11.0706
  63   2.0000      -0.360822        -9.8185
  64   2.0000      -0.333650        -9.0791
  65   2.0000      -0.327741        -8.9183
  66   2.0000      -0.284101        -7.7308
  67   0.0000       0.021969         0.5978
  68   0.0000       0.082382         2.2417
  69   0.0000       0.098386         2.6772
  70   0.0000       0.117291         3.1916
  71   0.0000       0.123531         3.3615

MULLIKEN ATOMIC CHARGES
-----------------------
   0 S :    0.109273
   1 C :   -0.118000
   2 C :   -0.092839
   3 C :   -0.024061
   4 C :   -0.103194
   5 H :    0.030846
   6 C :    0.028848
   7 H :    0.011895
   8 H :    0.048082
   9 C :   -0.146138
  10 H :    0.038651
  11 H :    0.019421
  12 C :    0.010465
  13 H :    0.030878
  14 H :    0.040270
  15 H :    0.015731
  16 S :    0.095219
  17 C :   -0.056307
  18 C :   -0.009562
  19 C :   -0.040944
  20 C :   -0.125258
  21 H :   -0.000418
  22 C :    0.058308
  23 H :    0.016892
  24 H :    0.020405
  25 C :   -0.100266
  26 H :    0.048385
  27 H :    0.031424
  28 C :   -0.005751
  29 H :    0.011279
  30 H :    0.023100
  31 H :    0.028432
  32 H :    0.066015
  33 H :    0.038920
Sum of atomic charges:   -0.0000000

LOEWDIN ATOMIC CHARGES
----------------------
   0 S :    0.421286
   1 C :   -0.210309
   2 C :   -0.073142
   3 C :   -0.070634
   4 C :   -0.189920
   5 H :    0.041534
   6 C :   -0.037009
   7 H :    0.025879
   8 H :    0.035988
   9 C :   -0.053330
  10 H :    0.032195
  11 H :    0.018032
  12 C :   -0.056848
  13 H :    0.023067
  14 H :    0.035231
  15 H :    0.012778
  16 S :    0.366281
  17 C :   -0.170332
  18 C :   -0.066754
  19 C :   -0.048588
  20 C :   -0.171769
  21 H :    0.025685
  22 C :   -0.037805
  23 H :    0.029028
  24 H :    0.032830
  25 C :   -0.041284
  26 H :    0.033078
  27 H :    0.025306
  28 C :   -0.066250
  29 H :    0.022395
  30 H :    0.025331
  31 H :    0.023425
  32 H :    0.038579
  33 H :    0.026044

  Mayer bond orders larger than 0.100000
B(  0-S ,  1-C ) :   1.1523 B(  0-S ,  4-C ) :   1.1419 B(  1-C ,  2-C ) :   1.5948
B(  1-C , 32-H ) :   0.9616 B(  2-C ,  3-C ) :   1.2404 B(  2-C ,  6-C ) :   1.0442
B(  3-C ,  4-C ) :   1.5711 B(  3-C ,  5-H ) :   0.9761 B(  4-C , 20-C ) :   1.0705
B(  6-C ,  7-H ) :   0.9452 B(  6-C ,  8-H ) :   0.9507 B(  6-C ,  9-C ) :   1.0268
B(  9-C , 10-H ) :   0.9571 B(  9-C , 11-H ) :   0.9631 B(  9-C , 12-C ) :   1.0670
B( 12-C , 13-H ) :   0.9768 B( 12-C , 14-H ) :   0.9741 B( 12-C , 15-H ) :   0.9755
B( 16-S , 17-C ) :   1.1235 B( 16-S , 20-C ) :   1.1144 B( 17-C , 18-C ) :   1.6536
B( 17-C , 33-H ) :   0.9660 B( 18-C , 19-C ) :   1.2202 B( 18-C , 21-H ) :   0.9914
B( 19-C , 20-C ) :   1.5980 B( 19-C , 22-C ) :   1.0518 B( 22-C , 23-H ) :   0.9297
B( 22-C , 24-H ) :   0.9246 B( 22-C , 25-C ) :   1.0602 B( 25-C , 26-H ) :   0.9488
B( 25-C , 27-H ) :   0.9530 B( 25-C , 28-C ) :   1.0837 B( 28-C , 29-H ) :   0.9690
B( 28-C , 30-H ) :   0.9703 B( 28-C , 31-H ) :   0.9732

Dispersion correction           -0.014007024
FINAL SINGLE POINT ENERGY     -1339.868538730815

DIPOLE MOMENT
-------------
                                X             Y             Z
Electronic contribution:     19.43705      23.84385     -14.90753
Nuclear contribution   :    -20.01266     -24.35083      15.05457
                        -----------------------------------------
Total Dipole Moment    :     -0.57561      -0.50698       0.14705
                        -----------------------------------------
Magnitude (a.u.)       :      0.78101
Magnitude (Debye)      :      1.98518

Rotational constants in cm-1:     0.017598     0.009342     0.006273
Rotational constants in MHz :   527.584344   280.053469   188.069722

                             ****ORCA TERMINATED NORMALLY****
TOTAL RUN TIME: 0 days 0 hours 0 minutes 33 seconds 959 msec
