                         Program Version 4.2.1 -  RELEASE  -
|  1> ! wB97X-D3 SP def2-SVP
|  2> %pal
|  3> nprocs 16
|  4> end
|  5>
|  6> * xyz 0 1
|  7> S 	 41.8415 	 5.83571 	 88.2893
|  8> C 	 42.8379 	 6.02265 	 89.6164
|  9> C 	 42.6652 	 7.17268 	 90.3032
| 10> C 	 41.8275 	 8.06668 	 89.5805
| 11> C 	 41.3915 	 7.57305 	 88.3474
| 12> H 	 41.6792 	 9.12435 	 89.8475
| 13> C 	 43.3335 	 7.56807 	 91.6718
| 14> H 	 43.5882 	 8.60423 	 91.7038
| 15> H 	 44.2962 	 7.04162 	 91.5085
| 16> C 	 42.6127 	 7.1264 	 92.8984
| 17> H 	 43.1664 	 7.70199 	 93.7535
| 18> H 	 41.568 	 7.51172 	 92.9561
| 19> C 	 42.5433 	 5.62199 	 93.2838
| 20> H 	 42.1889 	 5.55369 	 94.3616
| 21> H 	 41.8616 	 5.13398 	 92.5751
| 22> H 	 43.4874 	 5.10969 	 93.1052
| 23> S 	 41.8352 	 8.49119 	 85.7893
| 24> C 	 40.8556 	 9.72174 	 85.1431
| 25> C 	 39.8328 	 10.031 	 86.0034
| 26> C 	 39.8465 	 9.23245 	 87.2146
| 27> C 	 40.8571 	 8.29248 	 87.2483
| 28> H 	 39.1619 	 10.7745 	 85.778
| 29> C 	 38.9446 	 9.54037 	 88.4183
| 30> H 	 39.5656 	 10.0494 	 89.1358
| 31> H 	 38.8307 	 8.62894 	 88.9031
| 32> C 	 37.5813 	 10.1579 	 88.1152
| 33> H 	 37.841 	 11.1493 	 87.7322
| 34> H 	 37.0915 	 10.3134 	 89.093
| 35> C 	 36.6418 	 9.42956 	 87.1122
| 36> H 	 36.4927 	 8.37398 	 87.4588
| 37> H 	 36.9865 	 9.34932 	 86.0201
| 38> H 	 35.712 	 9.87907 	 87.2071
| 39> H 	 43.5981 	 5.25675 	 89.9151
| 40> H 	 41.0636 	 10.2268 	 84.2363
| 41> *
| 42>
| 43>                          ****END OF INPUT****

CARTESIAN COORDINATES (ANGSTROEM)
---------------------------------
  S     41.841500    5.835710   88.289300
  C     42.837900    6.022650   89.616400
  C     42.665200    7.172680   90.303200
  C     41.827500    8.066680   89.580500
  C     41.391500    7.573050   88.347400
  H     41.679200    9.124350   89.847500
  C     43.333500    7.568070   91.671800
  H     43.588200    8.604230   91.703800
  H     44.296200    7.041620   91.508500
  C     42.612700    7.126400   92.898400
  H     43.166400    7.701990   93.753500
  H     41.568000    7.511720   92.956100
  C     42.543300    5.621990   93.283800
  H     42.188900    5.553690   94.361600
  H     41.861600    5.133980   92.575100
  H     43.487400    5.109690   93.105200
  S     41.835200    8.491190   85.789300
  C     40.855600    9.721740   85.143100
  C     39.832800   10.031000   86.003400
  C     39.846500    9.232450   87.214600
  C     40.857100    8.292480   87.248300
  H     39.161900   10.774500   85.778000
  C     38.944600    9.540370   88.418300
  H     39.565600   10.049400   89.135800
  H     38.830700    8.628940   88.903100
  C     37.581300   10.157900   88.115200
  H     37.841000   11.149300   87.732200
  H     37.091500   10.313400   89.093000
  C     36.641800    9.429560   87.112200
  H     36.492700    8.373980   87.458800
  H     36.986500    9.349320   86.020100
  H     35.712000    9.879070   87.207100
  H     43.598100    5.256750   89.915100
  H     41.063600   10.226800   84.236300

 Total Charge           Charge          ....    0
 Multiplicity           Mult            ....    1
 Number of Electrons    NEL             ....  134
 Basis Dimension        Dim             ....  322

ORBITAL ENERGIES
----------------

  NO   OCC          E(Eh)            E(eV)
   0   2.0000     -88.963086     -2420.8086
   1   2.0000     -88.959543     -2420.7122
   2   2.0000     -10.327543      -281.0267
   3   2.0000     -10.319029      -280.7951
   4   2.0000     -10.312517      -280.6179
   5   2.0000     -10.309673      -280.5405
   6   2.0000     -10.302839      -280.3545
   7   2.0000     -10.296922      -280.1935
   8   2.0000     -10.296481      -280.1815
   9   2.0000     -10.296026      -280.1691
  10   2.0000     -10.295514      -280.1552
  11   2.0000     -10.291335      -280.0415
  12   2.0000     -10.286445      -279.9084
  13   2.0000     -10.285004      -279.8692
  14   2.0000     -10.283040      -279.8157
  15   2.0000     -10.282532      -279.8019
  16   2.0000      -8.078995      -219.8406
  17   2.0000      -8.075209      -219.7376
  18   2.0000      -6.037293      -164.2831
  19   2.0000      -6.033657      -164.1842
  20   2.0000      -6.033468      -164.1790
  21   2.0000      -6.029766      -164.0783
  22   2.0000      -6.029467      -164.0701
  23   2.0000      -6.026065      -163.9776
  24   2.0000      -1.010083       -27.4857
  25   2.0000      -0.989533       -26.9266
  26   2.0000      -0.908789       -24.7294
  27   2.0000      -0.907722       -24.7004
  28   2.0000      -0.876372       -23.8473
  29   2.0000      -0.847840       -23.0709
  30   2.0000      -0.840943       -22.8832
  31   2.0000      -0.812899       -22.1201
  32   2.0000      -0.788765       -21.4634
  33   2.0000      -0.777846       -21.1663
  34   2.0000      -0.709781       -19.3141
  35   2.0000      -0.700930       -19.0733
  36   2.0000      -0.687535       -18.7088
  37   2.0000      -0.656664       -17.8687
  38   2.0000      -0.639481       -17.4012
  39   2.0000      -0.618042       -16.8178
  40   2.0000      -0.600396       -16.3376
  41   2.0000      -0.571088       -15.5401
  42   2.0000      -0.553040       -15.0490
  43   2.0000      -0.549630       -14.9562
  44   2.0000      -0.538170       -14.6443
  45   2.0000      -0.535604       -14.5745
  46   2.0000      -0.519804       -14.1446
  47   2.0000      -0.517788       -14.0897
  48   2.0000      -0.505053       -13.7432
  49   2.0000      -0.497808       -13.5460
  50   2.0000      -0.486007       -13.2249
  51   2.0000      -0.480189       -13.0666
  52   2.0000      -0.476526       -12.9669
  53   2.0000      -0.465583       -12.6692
  54   2.0000      -0.455834       -12.4039
  55   2.0000      -0.449395       -12.2287
  56   2.0000      -0.445117       -12.1123
  57   2.0000      -0.443596       -12.0709
  58   2.0000      -0.436100       -11.8669
  59   2.0000      -0.422783       -11.5045
  60   2.0000      -0.414040       -11.2666
  61   2.0000      -0.412698       -11.2301
  62   2.0000      -0.400725       -10.9043
  63   2.0000      -0.345249        -9.3947
  64   2.0000      -0.328368        -8.9353
  65   2.0000      -0.324665        -8.8346
  66   2.0000      -0.294803        -8.0220
  67   0.0000       0.028825         0.7844
  68   0.0000       0.069653         1.8954
  69   0.0000       0.115673         3.1476
  70   0.0000       0.128131         3.4866
  71   0.0000       0.129127         3.5137

MULLIKEN ATOMIC CHARGES
-----------------------
   0 S :    0.122388
   1 C :   -0.145761
   2 C :   -0.103864
   3 C :    0.029542
   4 C :   -0.197423
   5 H :    0.020617
   6 C :    0.097215
   7 H :    0.021527
   8 H :    0.023249
   9 C :   -0.108014
  10 H :    0.037252
  11 H :    0.036856
  12 C :   -0.056968
  13 H :    0.056471
  14 H :    0.041068
  15 H :    0.025218
  16 S :    0.106157
  17 C :   -0.067527
  18 C :   -0.018977
  19 C :   -0.075753
  20 C :   -0.131153
  21 H :   -0.015273
  22 C :    0.114689
  23 H :    0.027870
  24 H :    0.002372
  25 C :   -0.078853
  26 H :    0.026186
  27 H :    0.033966
  28 C :   -0.051578
  29 H :    0.033657
  30 H :    0.059130
  31 H :    0.027250
  32 H :    0.061391
  33 H :    0.047075
Sum of atomic charges:   -0.0000000

LOEWDIN ATOMIC CHARGES
----------------------
   0 S :    0.414819
   1 C :   -0.222019
   2 C :   -0.077582
   3 C :   -0.053638
   4 C :   -0.190493
   5 H :    0.032691
   6 C :   -0.029735
   7 H :    0.028048
   8 H :    0.035313
   9 C :   -0.053985
  10 H :    0.031899
  11 H :    0.028257
  12 C :   -0.070914
  13 H :    0.039538
  14 H :    0.027069
  15 H :    0.020534
  16 S :    0.420505
  17 C :   -0.183116
  18 C :   -0.072194
  19 C :   -0.039858
  20 C :   -0.213663
  21 H :    0.014415
  22 C :   -0.032399
  23 H :    0.032387
  24 H :    0.021231
  25 C :   -0.041910
  26 H :    0.020688
  27 H :    0.031599
  28 C :   -0.067813
  29 H :    0.031445
  30 H :    0.038498
  31 H :    0.018036
  32 H :    0.036948
  33 H :    0.025400

  Mayer bond orders larger than 0.100000
B(  0-S ,  1-C ) :   1.1648 B(  0-S ,  4-C ) :   1.1311 B(  1-C ,  2-C ) :   1.6192
B(  1-C , 32-H ) :   0.9537 B(  2-C ,  3-C ) :   1.2655 B(  2-C ,  6-C ) :   0.9903
B(  3-C ,  4-C ) :   1.5625 B(  3-C ,  5-H ) :   0.9859 B(  4-C , 20-C ) :   1.0751
B(  6-C ,  7-H ) :   0.9429 B(  6-C ,  8-H ) :   0.9409 B(  6-C ,  9-C ) :   1.0772
B(  9-C , 10-H ) :   0.9538 B(  9-C , 11-H ) :   0.9528 B(  9-C , 12-C ) :   1.0722
B( 12-C , 13-H ) :   0.9726 B( 12-C , 14-H ) :   0.9736 B( 12-C , 15-H ) :   0.9756
B( 16-S , 17-C ) :   1.1833 B( 16-S , 20-C ) :   1.1266 B( 17-C , 18-C ) :   1.5785
B( 17-C , 33-H ) :   0.9709 B( 18-C , 19-C ) :   1.2397 B( 18-C , 21-H ) :   1.0076
B( 19-C , 20-C ) :   1.5870 B( 19-C , 22-C ) :   1.0304 B( 22-C , 23-H ) :   0.9259
B( 22-C , 24-H ) :   0.9167 B( 22-C , 25-C ) :   1.0742 B( 25-C , 26-H ) :   0.9495
B( 25-C , 27-H ) :   0.9524 B( 25-C , 28-C ) :   1.0756 B( 28-C , 29-H ) :   0.9734
B( 28-C , 30-H ) :   0.9713 B( 28-C , 31-H ) :   0.9735

Dispersion correction           -0.014431080
FINAL SINGLE POINT ENERGY     -1339.865752014511

DIPOLE MOMENT
-------------
                                X             Y             Z
Electronic contribution:     10.31672      -5.31429     -20.49776
Nuclear contribution   :    -10.41023       5.81554      20.97350
                        -----------------------------------------
Total Dipole Moment    :     -0.09351       0.50125       0.47574
                        -----------------------------------------
Magnitude (a.u.)       :      0.69737
Magnitude (Debye)      :      1.77257

Rotational constants in cm-1:     0.021496     0.007648     0.006400
Rotational constants in MHz :   644.422080   229.277441   191.878445

                             ****ORCA TERMINATED NORMALLY****
TOTAL RUN TIME: 0 days 0 hours 0 minutes 30 seconds 73 msec
