                         Program Version 4.2.1 -  RELEASE  -
|  1> ! wB97X-D3 SP def2-SVP
|  2> %pal
|  3> nprocs 16
|  4> end
|  5>
|  6> * xyz 0 1
|  7> S 	 69.2932 	 22.9578 	 77.2775
|  8> C 	 71.0251 	 22.434 	 77.2114
|  9> C 	 71.7282 	 23.1669 	 76.2834
| 10> C 	 70.9275 	 24.1181 	 75.5934
| 11> C 	 69.6722 	 24.2339 	 76.1209
| 12> H 	 71.1773 	 24.705 	 74.7608
| 13> C 	 73.2212 	 22.8368 	 75.9896
| 14> H 	 73.3742 	 22.7033 	 74.917
| 15> H 	 73.446 	 21.8238 	 76.4218
| 16> C 	 74.3447 	 23.6995 	 76.5368
| 17> H 	 74.4288 	 23.6061 	 77.6376
| 18> H 	 75.2404 	 23.28 	 76.1461
| 19> C 	 74.2028 	 25.1445 	 76.1729
| 20> H 	 74.9689 	 25.7359 	 76.4462
| 21> H 	 74.0616 	 25.2631 	 75.0106
| 22> H 	 73.2689 	 25.6144 	 76.5487
| 23> S 	 67.2419 	 24.5211 	 74.8405
| 24> C 	 66.6893 	 26.1535 	 74.4164
| 25> C 	 67.6152 	 27.1055 	 74.7345
| 26> C 	 68.7519 	 26.5902 	 75.4886
| 27> C 	 68.7149 	 25.1806 	 75.6066
| 28> H 	 67.4589 	 28.147 	 74.5641
| 29> C 	 69.8648 	 27.4249 	 76.0323
| 30> H 	 70.4744 	 27.7386 	 75.1653
| 31> H 	 70.6686 	 26.8138 	 76.5343
| 32> C 	 69.4064 	 28.5745 	 76.946
| 33> H 	 68.9418 	 28.1551 	 77.8325
| 34> H 	 68.7815 	 29.3202 	 76.4495
| 35> C 	 70.6482 	 29.3848 	 77.3411
| 36> H 	 70.2922 	 30.1803 	 78.0476
| 37> H 	 71.1169 	 29.8144 	 76.4448
| 38> H 	 71.3057 	 28.8529 	 77.9002
| 39> H 	 71.4809 	 21.6763 	 77.8497
| 40> H 	 65.6898 	 26.3159 	 74.0435
| 41> *
| 42>
| 43>                          ****END OF INPUT****

CARTESIAN COORDINATES (ANGSTROEM)
---------------------------------
  S     69.293200   22.957800   77.277500
  C     71.025100   22.434000   77.211400
  C     71.728200   23.166900   76.283400
  C     70.927500   24.118100   75.593400
  C     69.672200   24.233900   76.120900
  H     71.177300   24.705000   74.760800
  C     73.221200   22.836800   75.989600
  H     73.374200   22.703300   74.917000
  H     73.446000   21.823800   76.421800
  C     74.344700   23.699500   76.536800
  H     74.428800   23.606100   77.637600
  H     75.240400   23.280000   76.146100
  C     74.202800   25.144500   76.172900
  H     74.968900   25.735900   76.446200
  H     74.061600   25.263100   75.010600
  H     73.268900   25.614400   76.548700
  S     67.241900   24.521100   74.840500
  C     66.689300   26.153500   74.416400
  C     67.615200   27.105500   74.734500
  C     68.751900   26.590200   75.488600
  C     68.714900   25.180600   75.606600
  H     67.458900   28.147000   74.564100
  C     69.864800   27.424900   76.032300
  H     70.474400   27.738600   75.165300
  H     70.668600   26.813800   76.534300
  C     69.406400   28.574500   76.946000
  H     68.941800   28.155100   77.832500
  H     68.781500   29.320200   76.449500
  C     70.648200   29.384800   77.341100
  H     70.292200   30.180300   78.047600
  H     71.116900   29.814400   76.444800
  H     71.305700   28.852900   77.900200
  H     71.480900   21.676300   77.849700
  H     65.689800   26.315900   74.043500

 Total Charge           Charge          ....    0
 Multiplicity           Mult            ....    1
 Number of Electrons    NEL             ....  134
 Basis Dimension        Dim             ....  322

ORBITAL ENERGIES
----------------

  NO   OCC          E(Eh)            E(eV)
   0   2.0000     -88.967840     -2420.9380
   1   2.0000     -88.960100     -2420.7274
   2   2.0000     -10.326948      -281.0105
   3   2.0000     -10.326118      -280.9880
   4   2.0000     -10.319483      -280.8074
   5   2.0000     -10.318893      -280.7914
   6   2.0000     -10.307032      -280.4686
   7   2.0000     -10.304519      -280.4002
   8   2.0000     -10.297124      -280.1990
   9   2.0000     -10.295119      -280.1444
  10   2.0000     -10.293652      -280.1045
  11   2.0000     -10.290720      -280.0247
  12   2.0000     -10.286739      -279.9164
  13   2.0000     -10.284846      -279.8649
  14   2.0000     -10.276772      -279.6452
  15   2.0000     -10.272286      -279.5231
  16   2.0000      -8.081504      -219.9089
  17   2.0000      -8.074286      -219.7125
  18   2.0000      -6.040073      -164.3588
  19   2.0000      -6.036359      -164.2577
  20   2.0000      -6.032865      -164.1626
  21   2.0000      -6.032048      -164.1404
  22   2.0000      -6.028904      -164.0548
  23   2.0000      -6.024975      -163.9479
  24   2.0000      -1.000883       -27.2354
  25   2.0000      -0.975490       -26.5444
  26   2.0000      -0.913593       -24.8601
  27   2.0000      -0.909527       -24.7495
  28   2.0000      -0.871295       -23.7091
  29   2.0000      -0.850634       -23.1469
  30   2.0000      -0.843253       -22.9461
  31   2.0000      -0.816010       -22.2048
  32   2.0000      -0.784632       -21.3509
  33   2.0000      -0.767414       -20.8824
  34   2.0000      -0.705573       -19.1996
  35   2.0000      -0.699343       -19.0301
  36   2.0000      -0.698226       -18.9997
  37   2.0000      -0.656198       -17.8561
  38   2.0000      -0.642673       -17.4880
  39   2.0000      -0.614004       -16.7079
  40   2.0000      -0.597696       -16.2641
  41   2.0000      -0.573319       -15.6008
  42   2.0000      -0.571925       -15.5629
  43   2.0000      -0.554880       -15.0991
  44   2.0000      -0.543964       -14.8020
  45   2.0000      -0.526710       -14.3325
  46   2.0000      -0.513852       -13.9826
  47   2.0000      -0.508623       -13.8403
  48   2.0000      -0.506427       -13.7806
  49   2.0000      -0.500989       -13.6326
  50   2.0000      -0.490294       -13.3416
  51   2.0000      -0.477861       -13.0033
  52   2.0000      -0.468949       -12.7607
  53   2.0000      -0.462750       -12.5921
  54   2.0000      -0.454992       -12.3810
  55   2.0000      -0.446219       -12.1422
  56   2.0000      -0.444275       -12.0893
  57   2.0000      -0.437717       -11.9109
  58   2.0000      -0.433211       -11.7883
  59   2.0000      -0.430632       -11.7181
  60   2.0000      -0.423492       -11.5238
  61   2.0000      -0.411714       -11.2033
  62   2.0000      -0.409278       -11.1370
  63   2.0000      -0.341167        -9.2836
  64   2.0000      -0.333717        -9.0809
  65   2.0000      -0.324470        -8.8293
  66   2.0000      -0.295632        -8.0446
  67   0.0000       0.028769         0.7828
  68   0.0000       0.068250         1.8572
  69   0.0000       0.106236         2.8908
  70   0.0000       0.120656         3.2832
  71   0.0000       0.127381         3.4662

MULLIKEN ATOMIC CHARGES
-----------------------
   0 S :    0.105837
   1 C :   -0.124269
   2 C :   -0.054604
   3 C :    0.043159
   4 C :   -0.152965
   5 H :    0.001792
   6 C :    0.023313
   7 H :    0.034841
   8 H :    0.020934
   9 C :   -0.022957
  10 H :    0.027868
  11 H :    0.020974
  12 C :   -0.054736
  13 H :    0.014007
  14 H :    0.023691
  15 H :    0.039698
  16 S :    0.082530
  17 C :   -0.092042
  18 C :   -0.001150
  19 C :   -0.021934
  20 C :   -0.166084
  21 H :    0.010933
  22 C :    0.011188
  23 H :    0.029504
  24 H :    0.034673
  25 C :   -0.075264
  26 H :    0.040948
  27 H :    0.036157
  28 C :   -0.023706
  29 H :    0.032615
  30 H :    0.033729
  31 H :    0.006635
  32 H :    0.053066
  33 H :    0.061617
Sum of atomic charges:   -0.0000000

LOEWDIN ATOMIC CHARGES
----------------------
   0 S :    0.373898
   1 C :   -0.173996
   2 C :   -0.062322
   3 C :   -0.050812
   4 C :   -0.189489
   5 H :    0.026672
   6 C :   -0.031620
   7 H :    0.030813
   8 H :    0.034522
   9 C :   -0.040628
  10 H :    0.026573
  11 H :    0.022935
  12 C :   -0.065289
  13 H :    0.006941
  14 H :    0.031156
  15 H :    0.028412
  16 S :    0.369473
  17 C :   -0.168204
  18 C :   -0.066872
  19 C :   -0.050685
  20 C :   -0.190039
  21 H :    0.027576
  22 C :   -0.047249
  23 H :    0.033965
  24 H :    0.036855
  25 C :   -0.033766
  26 H :    0.028907
  27 H :    0.024603
  28 C :   -0.056931
  29 H :    0.031692
  30 H :    0.027131
  31 H :    0.006124
  32 H :    0.030947
  33 H :    0.028704

  Mayer bond orders larger than 0.100000
B(  0-S ,  1-C ) :   1.1135 B(  0-S ,  4-C ) :   1.1337 B(  1-C ,  2-C ) :   1.6500
B(  1-C , 32-H ) :   0.9646 B(  2-C ,  3-C ) :   1.2013 B(  2-C ,  6-C ) :   1.0083
B(  3-C ,  4-C ) :   1.5844 B(  3-C ,  5-H ) :   1.0067 B(  4-C , 20-C ) :   1.0551
B(  6-C ,  7-H ) :   0.9450 B(  6-C ,  8-H ) :   0.9421 B(  6-C ,  9-C ) :   1.0834
B(  9-C , 10-H ) :   0.9495 B(  9-C , 11-H ) :   0.9480 B(  9-C , 12-C ) :   1.0901
B( 12-C , 13-H ) :   0.9716 B( 12-C , 14-H ) :   0.9704 B( 12-C , 15-H ) :   0.9688
B( 16-S , 17-C ) :   1.1413 B( 16-S , 20-C ) :   1.1233 B( 17-C , 18-C ) :   1.6218
B( 17-C , 33-H ) :   0.9696 B( 18-C , 19-C ) :   1.2174 B( 18-C , 21-H ) :   0.9925
B( 19-C , 20-C ) :   1.6039 B( 19-C , 22-C ) :   1.0493 B( 22-C , 23-H ) :   0.9293
B( 22-C , 24-H ) :   0.9344 B( 22-C , 25-C ) :   1.0578 B( 25-C , 26-H ) :   0.9544
B( 25-C , 27-H ) :   0.9571 B( 25-C , 28-C ) :   1.0895 B( 28-C , 29-H ) :   0.9732
B( 28-C , 30-H ) :   0.9743 B( 28-C , 31-H ) :   0.9741

Dispersion correction           -0.014547210
FINAL SINGLE POINT ENERGY     -1339.873951372542

DIPOLE MOMENT
-------------
                                X             Y             Z
Electronic contribution:    -24.23825     -17.39088      -3.49375
Nuclear contribution   :     24.85196      17.81090       3.46852
                        -----------------------------------------
Total Dipole Moment    :      0.61371       0.42003      -0.02522
                        -----------------------------------------
Magnitude (a.u.)       :      0.74411
Magnitude (Debye)      :      1.89138

Rotational constants in cm-1:     0.016223     0.009822     0.006996
Rotational constants in MHz :   486.345641   294.458849   209.727999

                             ****ORCA TERMINATED NORMALLY****
TOTAL RUN TIME: 0 days 0 hours 0 minutes 30 seconds 501 msec
