                         Program Version 4.2.1 -  RELEASE  -
|  1> ! wB97X-D3 SP def2-SVP
|  2> %pal
|  3> nprocs 16
|  4> end
|  5>
|  6> * xyz 0 1
|  7> S 	 -64.2933 	 48.8902 	 122.418
|  8> C 	 -64.0239 	 49.2586 	 124.099
|  9> C 	 -64.9574 	 48.7828 	 124.972
| 10> C 	 -66.0403 	 48.2112 	 124.206
| 11> C 	 -65.8591 	 48.2927 	 122.854
| 12> H 	 -66.8722 	 47.7148 	 124.637
| 13> C 	 -64.9209 	 48.8894 	 126.48
| 14> H 	 -65.4212 	 49.8577 	 126.697
| 15> H 	 -63.9084 	 49.0895 	 126.769
| 16> C 	 -65.7037 	 47.8463 	 127.338
| 17> H 	 -65.467 	 47.8678 	 128.419
| 18> H 	 -66.7677 	 48.1027 	 127.201
| 19> C 	 -65.4331 	 46.3702 	 126.981
| 20> H 	 -64.3527 	 46.2369 	 126.824
| 21> H 	 -65.7276 	 45.7781 	 127.86
| 22> H 	 -66.0397 	 45.9885 	 126.09
| 23> S 	 -65.9998 	 46.67 	 120.708
| 24> C 	 -67.4843 	 46.3952 	 119.873
| 25> C 	 -68.4408 	 47.263 	 120.38
| 26> C 	 -68.0321 	 48.0234 	 121.509
| 27> C 	 -66.7433 	 47.7365 	 121.876
| 28> H 	 -69.3716 	 47.267 	 119.828
| 29> C 	 -68.9839 	 48.9224 	 122.268
| 30> H 	 -69.5943 	 49.4295 	 121.612
| 31> H 	 -68.4586 	 49.7846 	 122.718
| 32> C 	 -69.8016 	 48.0749 	 123.328
| 33> H 	 -69.093 	 47.277 	 123.687
| 34> H 	 -70.6828 	 47.6029 	 123.004
| 35> C 	 -70.303 	 49.0332 	 124.423
| 36> H 	 -69.4578 	 49.2139 	 125.129
| 37> H 	 -71.035 	 48.4059 	 124.912
| 38> H 	 -70.7683 	 49.9001 	 123.987
| 39> H 	 -63.3032 	 50.0104 	 124.464
| 40> H 	 -67.6521 	 45.9566 	 118.879
| 41> *
| 42>
| 43>                          ****END OF INPUT****

CARTESIAN COORDINATES (ANGSTROEM)
---------------------------------
  S    -64.293300   48.890200  122.418000
  C    -64.023900   49.258600  124.099000
  C    -64.957400   48.782800  124.972000
  C    -66.040300   48.211200  124.206000
  C    -65.859100   48.292700  122.854000
  H    -66.872200   47.714800  124.637000
  C    -64.920900   48.889400  126.480000
  H    -65.421200   49.857700  126.697000
  H    -63.908400   49.089500  126.769000
  C    -65.703700   47.846300  127.338000
  H    -65.467000   47.867800  128.419000
  H    -66.767700   48.102700  127.201000
  C    -65.433100   46.370200  126.981000
  H    -64.352700   46.236900  126.824000
  H    -65.727600   45.778100  127.860000
  H    -66.039700   45.988500  126.090000
  S    -65.999800   46.670000  120.708000
  C    -67.484300   46.395200  119.873000
  C    -68.440800   47.263000  120.380000
  C    -68.032100   48.023400  121.509000
  C    -66.743300   47.736500  121.876000
  H    -69.371600   47.267000  119.828000
  C    -68.983900   48.922400  122.268000
  H    -69.594300   49.429500  121.612000
  H    -68.458600   49.784600  122.718000
  C    -69.801600   48.074900  123.328000
  H    -69.093000   47.277000  123.687000
  H    -70.682800   47.602900  123.004000
  C    -70.303000   49.033200  124.423000
  H    -69.457800   49.213900  125.129000
  H    -71.035000   48.405900  124.912000
  H    -70.768300   49.900100  123.987000
  H    -63.303200   50.010400  124.464000
  H    -67.652100   45.956600  118.879000

 Total Charge           Charge          ....    0
 Multiplicity           Mult            ....    1
 Number of Electrons    NEL             ....  134
 Basis Dimension        Dim             ....  322

ORBITAL ENERGIES
----------------

  NO   OCC          E(Eh)            E(eV)
   0   2.0000     -88.967713     -2420.9345
   1   2.0000     -88.960319     -2420.7334
   2   2.0000     -10.323368      -280.9131
   3   2.0000     -10.318859      -280.7904
   4   2.0000     -10.311434      -280.5884
   5   2.0000     -10.309145      -280.5261
   6   2.0000     -10.300955      -280.3032
   7   2.0000     -10.298204      -280.2284
   8   2.0000     -10.297244      -280.2023
   9   2.0000     -10.296404      -280.1794
  10   2.0000     -10.290274      -280.0126
  11   2.0000     -10.288711      -279.9701
  12   2.0000     -10.286749      -279.9167
  13   2.0000     -10.285834      -279.8918
  14   2.0000     -10.283888      -279.8388
  15   2.0000     -10.277686      -279.6700
  16   2.0000      -8.082960      -219.9485
  17   2.0000      -8.075626      -219.7490
  18   2.0000      -6.041431      -164.3957
  19   2.0000      -6.037635      -164.2924
  20   2.0000      -6.034156      -164.1977
  21   2.0000      -6.033487      -164.1795
  22   2.0000      -6.029982      -164.0842
  23   2.0000      -6.026407      -163.9869
  24   2.0000      -1.013232       -27.5714
  25   2.0000      -0.987205       -26.8632
  26   2.0000      -0.911039       -24.7906
  27   2.0000      -0.906403       -24.6645
  28   2.0000      -0.871826       -23.7236
  29   2.0000      -0.852903       -23.2087
  30   2.0000      -0.845447       -23.0058
  31   2.0000      -0.816410       -22.2157
  32   2.0000      -0.783419       -21.3179
  33   2.0000      -0.771491       -20.9933
  34   2.0000      -0.707151       -19.2426
  35   2.0000      -0.697458       -18.9788
  36   2.0000      -0.690488       -18.7891
  37   2.0000      -0.659274       -17.9398
  38   2.0000      -0.636802       -17.3283
  39   2.0000      -0.626085       -17.0367
  40   2.0000      -0.592030       -16.1099
  41   2.0000      -0.568308       -15.4644
  42   2.0000      -0.560427       -15.2500
  43   2.0000      -0.552128       -15.0242
  44   2.0000      -0.543066       -14.7776
  45   2.0000      -0.529815       -14.4170
  46   2.0000      -0.520503       -14.1636
  47   2.0000      -0.513708       -13.9787
  48   2.0000      -0.508336       -13.8325
  49   2.0000      -0.494482       -13.4556
  50   2.0000      -0.490475       -13.3465
  51   2.0000      -0.476338       -12.9618
  52   2.0000      -0.471524       -12.8308
  53   2.0000      -0.461223       -12.5505
  54   2.0000      -0.455743       -12.4014
  55   2.0000      -0.449724       -12.2376
  56   2.0000      -0.443141       -12.0585
  57   2.0000      -0.435043       -11.8381
  58   2.0000      -0.431311       -11.7366
  59   2.0000      -0.428912       -11.6713
  60   2.0000      -0.422762       -11.5039
  61   2.0000      -0.416916       -11.3449
  62   2.0000      -0.410975       -11.1832
  63   2.0000      -0.346402        -9.4261
  64   2.0000      -0.330591        -8.9958
  65   2.0000      -0.326425        -8.8825
  66   2.0000      -0.289736        -7.8841
  67   0.0000       0.034564         0.9405
  68   0.0000       0.065065         1.7705
  69   0.0000       0.112673         3.0660
  70   0.0000       0.115829         3.1519
  71   0.0000       0.128999         3.5102

MULLIKEN ATOMIC CHARGES
-----------------------
   0 S :    0.128144
   1 C :   -0.139844
   2 C :   -0.082154
   3 C :    0.011547
   4 C :   -0.122092
   5 H :   -0.010765
   6 C :    0.085011
   7 H :    0.042506
   8 H :    0.014518
   9 C :   -0.096386
  10 H :    0.042801
  11 H :    0.037925
  12 C :   -0.082502
  13 H :    0.045470
  14 H :    0.036408
  15 H :    0.051274
  16 S :    0.092473
  17 C :   -0.093253
  18 C :   -0.064919
  19 C :   -0.037571
  20 C :   -0.171355
  21 H :    0.015383
  22 C :    0.115899
  23 H :   -0.005831
  24 H :    0.028926
  25 C :   -0.092592
  26 H :    0.044725
  27 H :    0.021690
  28 C :   -0.042339
  29 H :    0.042678
  30 H :    0.024965
  31 H :    0.040606
  32 H :    0.051530
  33 H :    0.067123
Sum of atomic charges:    0.0000000

LOEWDIN ATOMIC CHARGES
----------------------
   0 S :    0.413699
   1 C :   -0.206598
   2 C :   -0.058253
   3 C :   -0.056004
   4 C :   -0.196051
   5 H :    0.021253
   6 C :   -0.037161
   7 H :    0.042623
   8 H :    0.025458
   9 C :   -0.046396
  10 H :    0.034309
  11 H :    0.025569
  12 C :   -0.075606
  13 H :    0.029916
  14 H :    0.026973
  15 H :    0.032203
  16 S :    0.409340
  17 C :   -0.208039
  18 C :   -0.073071
  19 C :   -0.059776
  20 C :   -0.197046
  21 H :    0.029861
  22 C :   -0.026885
  23 H :    0.017490
  24 H :    0.035021
  25 C :   -0.031704
  26 H :    0.027255
  27 H :    0.016011
  28 C :   -0.061692
  29 H :    0.028809
  30 H :    0.023441
  31 H :    0.024498
  32 H :    0.031868
  33 H :    0.038683

  Mayer bond orders larger than 0.100000
B(  0-S ,  1-C ) :   1.1262 B(  0-S ,  4-C ) :   1.1435 B(  1-C ,  2-C ) :   1.6544
B(  1-C , 32-H ) :   0.9548 B(  2-C ,  3-C ) :   1.2157 B(  2-C ,  6-C ) :   1.0130
B(  3-C ,  4-C ) :   1.5866 B(  3-C ,  5-H ) :   0.9982 B(  4-C , 20-C ) :   1.0467
B(  6-C ,  7-H ) :   0.9343 B(  6-C ,  8-H ) :   0.9385 B(  6-C ,  9-C ) :   1.0672
B(  9-C , 10-H ) :   0.9603 B(  9-C , 11-H ) :   0.9511 B(  9-C , 12-C ) :   1.0756
B( 12-C , 13-H ) :   0.9763 B( 12-C , 14-H ) :   0.9776 B( 12-C , 15-H ) :   0.9713
B( 16-S , 17-C ) :   1.1533 B( 16-S , 20-C ) :   1.1387 B( 17-C , 18-C ) :   1.6181
B( 17-C , 20-C ) :   0.1003 B( 17-C , 33-H ) :   0.9600 B( 18-C , 19-C ) :   1.2364
B( 18-C , 21-H ) :   0.9914 B( 19-C , 20-C ) :   1.5888 B( 19-C , 22-C ) :   1.0637
B( 22-C , 23-H ) :   0.9171 B( 22-C , 24-H ) :   0.9384 B( 22-C , 25-C ) :   1.0345
B( 25-C , 26-H ) :   0.9618 B( 25-C , 27-H ) :   0.9600 B( 25-C , 28-C ) :   1.0744
B( 28-C , 29-H ) :   0.9779 B( 28-C , 30-H ) :   0.9785 B( 28-C , 31-H ) :   0.9724

Dispersion correction           -0.015023204
FINAL SINGLE POINT ENERGY     -1339.865925091927

DIPOLE MOMENT
-------------
                                X             Y             Z
Electronic contribution:     15.55915      -1.11154     -23.84967
Nuclear contribution   :    -16.06152       1.36420      24.34034
                        -----------------------------------------
Total Dipole Moment    :     -0.50237       0.25266       0.49066
                        -----------------------------------------
Magnitude (a.u.)       :      0.74630
Magnitude (Debye)      :      1.89694

Rotational constants in cm-1:     0.016938     0.010262     0.007688
Rotational constants in MHz :   507.797093   307.658084   230.480945

                             ****ORCA TERMINATED NORMALLY****
TOTAL RUN TIME: 0 days 0 hours 0 minutes 34 seconds 524 msec
