                         Program Version 4.2.1 -  RELEASE  -
|  1> ! wB97X-D3 SP def2-SVP
|  2> %pal
|  3> nprocs 16
|  4> end
|  5>
|  6> * xyz 0 1
|  7> S 	 -94.9468 	 49.4381 	 124.921
|  8> C 	 -93.4289 	 49.2897 	 124.021
|  9> C 	 -93.5201 	 49.4632 	 122.659
| 10> C 	 -94.8552 	 49.7377 	 122.308
| 11> C 	 -95.7137 	 49.7651 	 123.395
| 12> H 	 -95.2037 	 49.9548 	 121.369
| 13> C 	 -92.3684 	 49.4418 	 121.678
| 14> H 	 -91.8829 	 50.4844 	 121.581
| 15> H 	 -92.8373 	 49.1229 	 120.734
| 16> C 	 -91.4004 	 48.2676 	 121.83
| 17> H 	 -90.9444 	 48.4532 	 122.823
| 18> H 	 -91.9819 	 47.3782 	 121.876
| 19> C 	 -90.302 	 48.2584 	 120.758
| 20> H 	 -89.8218 	 49.1402 	 120.812
| 21> H 	 -89.5058 	 47.5805 	 120.974
| 22> H 	 -90.6878 	 48.0239 	 119.659
| 23> S 	 -97.6138 	 50.9489 	 121.926
| 24> C 	 -99.248 	 51.1752 	 122.492
| 25> C 	 -99.3539 	 50.6127 	 123.773
| 26> C 	 -98.135 	 50.0579 	 124.229
| 27> C 	 -97.129 	 50.1157 	 123.299
| 28> H 	 -100.332 	 50.6895 	 124.238
| 29> C 	 -98.1914 	 49.4186 	 125.696
| 30> H 	 -99.061 	 49.8264 	 126.337
| 31> H 	 -97.3147 	 49.6927 	 126.285
| 32> C 	 -98.4466 	 47.8625 	 125.778
| 33> H 	 -97.6618 	 47.349 	 125.222
| 34> H 	 -99.3742 	 47.6392 	 125.21
| 35> C 	 -98.6695 	 47.2707 	 127.121
| 36> H 	 -98.0556 	 47.7479 	 127.86
| 37> H 	 -98.377 	 46.2191 	 127.255
| 38> H 	 -99.6888 	 47.3752 	 127.518
| 39> H 	 -92.4438 	 49.0578 	 124.377
| 40> H 	 -100.081 	 51.6839 	 122.085
| 41> *
| 42>
| 43>                          ****END OF INPUT****

CARTESIAN COORDINATES (ANGSTROEM)
---------------------------------
  S    -94.946800   49.438100  124.921000
  C    -93.428900   49.289700  124.021000
  C    -93.520100   49.463200  122.659000
  C    -94.855200   49.737700  122.308000
  C    -95.713700   49.765100  123.395000
  H    -95.203700   49.954800  121.369000
  C    -92.368400   49.441800  121.678000
  H    -91.882900   50.484400  121.581000
  H    -92.837300   49.122900  120.734000
  C    -91.400400   48.267600  121.830000
  H    -90.944400   48.453200  122.823000
  H    -91.981900   47.378200  121.876000
  C    -90.302000   48.258400  120.758000
  H    -89.821800   49.140200  120.812000
  H    -89.505800   47.580500  120.974000
  H    -90.687800   48.023900  119.659000
  S    -97.613800   50.948900  121.926000
  C    -99.248000   51.175200  122.492000
  C    -99.353900   50.612700  123.773000
  C    -98.135000   50.057900  124.229000
  C    -97.129000   50.115700  123.299000
  H    -100.332000   50.689500  124.238000
  C    -98.191400   49.418600  125.696000
  H    -99.061000   49.826400  126.337000
  H    -97.314700   49.692700  126.285000
  C    -98.446600   47.862500  125.778000
  H    -97.661800   47.349000  125.222000
  H    -99.374200   47.639200  125.210000
  C    -98.669500   47.270700  127.121000
  H    -98.055600   47.747900  127.860000
  H    -98.377000   46.219100  127.255000
  H    -99.688800   47.375200  127.518000
  H    -92.443800   49.057800  124.377000
  H    -100.081000   51.683900  122.085000

 Total Charge           Charge          ....    0
 Multiplicity           Mult            ....    1
 Number of Electrons    NEL             ....  134
 Basis Dimension        Dim             ....  322

ORBITAL ENERGIES
----------------

  NO   OCC          E(Eh)            E(eV)
   0   2.0000     -88.975570     -2421.1484
   1   2.0000     -88.967952     -2420.9410
   2   2.0000     -10.329949      -281.0922
   3   2.0000     -10.323858      -280.9265
   4   2.0000     -10.312959      -280.6299
   5   2.0000     -10.309214      -280.5280
   6   2.0000     -10.305445      -280.4254
   7   2.0000     -10.305211      -280.4191
   8   2.0000     -10.298924      -280.2480
   9   2.0000     -10.297036      -280.1966
  10   2.0000     -10.292491      -280.0729
  11   2.0000     -10.288692      -279.9695
  12   2.0000     -10.284830      -279.8644
  13   2.0000     -10.283495      -279.8281
  14   2.0000     -10.280005      -279.7332
  15   2.0000     -10.272806      -279.5373
  16   2.0000      -8.089087      -220.1153
  17   2.0000      -8.083716      -219.9691
  18   2.0000      -6.047677      -164.5657
  19   2.0000      -6.043951      -164.4643
  20   2.0000      -6.042208      -164.4168
  21   2.0000      -6.039681      -164.3481
  22   2.0000      -6.037973      -164.3016
  23   2.0000      -6.034538      -164.2081
  24   2.0000      -1.016534       -27.6613
  25   2.0000      -0.989134       -26.9157
  26   2.0000      -0.916956       -24.9516
  27   2.0000      -0.899662       -24.4811
  28   2.0000      -0.871972       -23.7276
  29   2.0000      -0.861572       -23.4446
  30   2.0000      -0.846063       -23.0225
  31   2.0000      -0.814052       -22.1515
  32   2.0000      -0.783762       -21.3273
  33   2.0000      -0.773287       -21.0422
  34   2.0000      -0.711307       -19.3556
  35   2.0000      -0.701407       -19.0863
  36   2.0000      -0.689620       -18.7655
  37   2.0000      -0.669270       -18.2118
  38   2.0000      -0.636495       -17.3199
  39   2.0000      -0.613817       -16.7028
  40   2.0000      -0.594094       -16.1661
  41   2.0000      -0.578799       -15.7499
  42   2.0000      -0.569443       -15.4953
  43   2.0000      -0.557668       -15.1749
  44   2.0000      -0.525757       -14.3066
  45   2.0000      -0.522527       -14.2187
  46   2.0000      -0.513258       -13.9665
  47   2.0000      -0.510385       -13.8883
  48   2.0000      -0.505787       -13.7632
  49   2.0000      -0.504169       -13.7191
  50   2.0000      -0.488637       -13.2965
  51   2.0000      -0.481448       -13.1009
  52   2.0000      -0.474682       -12.9168
  53   2.0000      -0.471791       -12.8381
  54   2.0000      -0.464817       -12.6483
  55   2.0000      -0.451141       -12.2762
  56   2.0000      -0.444076       -12.0839
  57   2.0000      -0.440585       -11.9889
  58   2.0000      -0.436894       -11.8885
  59   2.0000      -0.423653       -11.5282
  60   2.0000      -0.417169       -11.3517
  61   2.0000      -0.406433       -11.0596
  62   2.0000      -0.402918       -10.9640
  63   2.0000      -0.360198        -9.8015
  64   2.0000      -0.340607        -9.2684
  65   2.0000      -0.332377        -9.0444
  66   2.0000      -0.281279        -7.6540
  67   0.0000       0.022187         0.6037
  68   0.0000       0.085574         2.3286
  69   0.0000       0.102649         2.7932
  70   0.0000       0.125296         3.4095
  71   0.0000       0.133265         3.6263

MULLIKEN ATOMIC CHARGES
-----------------------
   0 S :    0.118841
   1 C :   -0.100069
   2 C :   -0.062690
   3 C :   -0.008465
   4 C :   -0.096722
   5 H :   -0.021458
   6 C :    0.036763
   7 H :    0.068329
   8 H :    0.020838
   9 C :   -0.104533
  10 H :    0.026763
  11 H :    0.034435
  12 C :   -0.002300
  13 H :    0.000606
  14 H :    0.024960
  15 H :    0.049896
  16 S :    0.100031
  17 C :   -0.074977
  18 C :   -0.055755
  19 C :   -0.052418
  20 C :   -0.091868
  21 H :    0.022656
  22 C :   -0.001046
  23 H :    0.032952
  24 H :    0.034071
  25 C :   -0.056348
  26 H :    0.029217
  27 H :    0.027785
  28 C :   -0.039997
  29 H :    0.011217
  30 H :    0.036645
  31 H :    0.031385
  32 H :    0.021376
  33 H :    0.039880
Sum of atomic charges:   -0.0000000

LOEWDIN ATOMIC CHARGES
----------------------
   0 S :    0.420198
   1 C :   -0.193176
   2 C :   -0.060880
   3 C :   -0.063168
   4 C :   -0.180562
   5 H :    0.008783
   6 C :   -0.038853
   7 H :    0.045047
   8 H :    0.032020
   9 C :   -0.037820
  10 H :    0.021316
  11 H :    0.022567
  12 C :   -0.060872
  13 H :    0.009821
  14 H :    0.025784
  15 H :    0.040063
  16 S :    0.452982
  17 C :   -0.194281
  18 C :   -0.064756
  19 C :   -0.070537
  20 C :   -0.214035
  21 H :    0.033321
  22 C :   -0.037773
  23 H :    0.037810
  24 H :    0.014114
  25 C :   -0.050052
  26 H :    0.021989
  27 H :    0.028126
  28 C :   -0.073875
  29 H :    0.020238
  30 H :    0.034054
  31 H :    0.026714
  32 H :    0.020097
  33 H :    0.025597

  Mayer bond orders larger than 0.100000
B(  0-S ,  1-C ) :   1.1198 B(  0-S ,  4-C ) :   1.1430 B(  1-C ,  2-C ) :   1.6347
B(  1-C , 32-H ) :   0.9605 B(  2-C ,  3-C ) :   1.2511 B(  2-C ,  6-C ) :   1.0033
B(  3-C ,  4-C ) :   1.5448 B(  3-C ,  5-H ) :   1.0031 B(  4-C , 20-C ) :   1.0821
B(  6-C ,  7-H ) :   0.9355 B(  6-C ,  8-H ) :   0.9464 B(  6-C ,  9-C ) :   1.0550
B(  9-C , 10-H ) :   0.9502 B(  9-C , 11-H ) :   0.9643 B(  9-C , 12-C ) :   1.0870
B( 12-C , 13-H ) :   0.9667 B( 12-C , 14-H ) :   0.9701 B( 12-C , 15-H ) :   0.9730
B( 16-S , 17-C ) :   1.1543 B( 16-S , 20-C ) :   1.1654 B( 17-C , 18-C ) :   1.5995
B( 17-C , 33-H ) :   0.9729 B( 18-C , 19-C ) :   1.2718 B( 18-C , 21-H ) :   0.9913
B( 19-C , 20-C ) :   1.5564 B( 19-C , 22-C ) :   1.0169 B( 22-C , 23-H ) :   0.9470
B( 22-C , 24-H ) :   0.9370 B( 22-C , 25-C ) :   1.0551 B( 25-C , 26-H ) :   0.9563
B( 25-C , 27-H ) :   0.9565 B( 25-C , 28-C ) :   1.0819 B( 28-C , 29-H ) :   0.9716
B( 28-C , 30-H ) :   0.9703 B( 28-C , 31-H ) :   0.9740

Dispersion correction           -0.013391216
FINAL SINGLE POINT ENERGY     -1339.854756182958

DIPOLE MOMENT
-------------
                                X             Y             Z
Electronic contribution:     -9.57428      12.94280      -3.10852
Nuclear contribution   :      9.70371     -13.02325       3.10266
                        -----------------------------------------
Total Dipole Moment    :      0.12944      -0.08046      -0.00586
                        -----------------------------------------
Magnitude (a.u.)       :      0.15252
Magnitude (Debye)      :      0.38767

Rotational constants in cm-1:     0.021706     0.007395     0.005849
Rotational constants in MHz :   650.731789   221.688240   175.345598

                             ****ORCA TERMINATED NORMALLY****
TOTAL RUN TIME: 0 days 0 hours 0 minutes 33 seconds 699 msec
