                         Program Version 4.2.1 -  RELEASE  -
|  1> ! wB97X-D3 SP def2-SVP
|  2> %pal
|  3> nprocs 16
|  4> end
|  5>
|  6> * xyz 0 1
|  7> S 	 9.72168 	 23.797 	 68.195
|  8> C 	 8.36976 	 22.9884 	 67.3298
|  9> C 	 7.51985 	 23.8712 	 66.7098
| 10> C 	 7.97681 	 25.2079 	 66.8345
| 11> C 	 9.18812 	 25.3169 	 67.4935
| 12> H 	 7.46313 	 26.0012 	 66.455
| 13> C 	 6.17381 	 23.5728 	 66.0411
| 14> H 	 6.39187 	 23.0476 	 65.0889
| 15> H 	 5.75282 	 24.4976 	 65.7815
| 16> C 	 5.10305 	 22.8913 	 66.9291
| 17> H 	 4.20193 	 22.7308 	 66.3516
| 18> H 	 5.50002 	 21.9007 	 67.2285
| 19> C 	 4.75053 	 23.6654 	 68.206
| 20> H 	 4.41598 	 24.7106 	 67.9443
| 21> H 	 3.9603 	 23.1056 	 68.7354
| 22> H 	 5.6527 	 23.7594 	 68.8449
| 23> S 	 9.93324 	 27.1135 	 69.4353
| 24> C 	 10.784 	 28.5861 	 69.0181
| 25> C 	 10.8406 	 28.7246 	 67.638
| 26> C 	 10.3482 	 27.5731 	 66.9424
| 27> C 	 9.95405 	 26.5424 	 67.7804
| 28> H 	 11.1528 	 29.6381 	 67.1359
| 29> C 	 10.367 	 27.4927 	 65.4125
| 30> H 	 10.5026 	 28.475 	 65.0708
| 31> H 	 9.28996 	 27.3279 	 65.2856
| 32> C 	 10.981 	 26.3047 	 64.7534
| 33> H 	 10.76 	 26.3094 	 63.7126
| 34> H 	 10.5096 	 25.3574 	 65.1573
| 35> C 	 12.457 	 26.165 	 65.0127
| 36> H 	 13.0282 	 27.0417 	 64.8216
| 37> H 	 12.8965 	 25.3966 	 64.4043
| 38> H 	 12.6818 	 25.9794 	 66.0864
| 39> H 	 8.28035 	 21.9331 	 67.2646
| 40> H 	 10.9011 	 29.39 	 69.7509
| 41> *
| 42>
| 43>                          ****END OF INPUT****

CARTESIAN COORDINATES (ANGSTROEM)
---------------------------------
  S      9.721680   23.797000   68.195000
  C      8.369760   22.988400   67.329800
  C      7.519850   23.871200   66.709800
  C      7.976810   25.207900   66.834500
  C      9.188120   25.316900   67.493500
  H      7.463130   26.001200   66.455000
  C      6.173810   23.572800   66.041100
  H      6.391870   23.047600   65.088900
  H      5.752820   24.497600   65.781500
  C      5.103050   22.891300   66.929100
  H      4.201930   22.730800   66.351600
  H      5.500020   21.900700   67.228500
  C      4.750530   23.665400   68.206000
  H      4.415980   24.710600   67.944300
  H      3.960300   23.105600   68.735400
  H      5.652700   23.759400   68.844900
  S      9.933240   27.113500   69.435300
  C     10.784000   28.586100   69.018100
  C     10.840600   28.724600   67.638000
  C     10.348200   27.573100   66.942400
  C      9.954050   26.542400   67.780400
  H     11.152800   29.638100   67.135900
  C     10.367000   27.492700   65.412500
  H     10.502600   28.475000   65.070800
  H      9.289960   27.327900   65.285600
  C     10.981000   26.304700   64.753400
  H     10.760000   26.309400   63.712600
  H     10.509600   25.357400   65.157300
  C     12.457000   26.165000   65.012700
  H     13.028200   27.041700   64.821600
  H     12.896500   25.396600   64.404300
  H     12.681800   25.979400   66.086400
  H      8.280350   21.933100   67.264600
  H     10.901100   29.390000   69.750900

 Total Charge           Charge          ....    0
 Multiplicity           Mult            ....    1
 Number of Electrons    NEL             ....  134
 Basis Dimension        Dim             ....  322

ORBITAL ENERGIES
----------------

  NO   OCC          E(Eh)            E(eV)
   0   2.0000     -88.969275     -2420.9771
   1   2.0000     -88.962566     -2420.7945
   2   2.0000     -10.332474      -281.1609
   3   2.0000     -10.322240      -280.8824
   4   2.0000     -10.319470      -280.8070
   5   2.0000     -10.314298      -280.6663
   6   2.0000     -10.302601      -280.3480
   7   2.0000     -10.300795      -280.2989
   8   2.0000     -10.295815      -280.1634
   9   2.0000     -10.293606      -280.1033
  10   2.0000     -10.289515      -279.9919
  11   2.0000     -10.288508      -279.9645
  12   2.0000     -10.283509      -279.8285
  13   2.0000     -10.283220      -279.8207
  14   2.0000     -10.280261      -279.7401
  15   2.0000     -10.262946      -279.2689
  16   2.0000      -8.083142      -219.9535
  17   2.0000      -8.077434      -219.7981
  18   2.0000      -6.041635      -164.4012
  19   2.0000      -6.037863      -164.2986
  20   2.0000      -6.035906      -164.2453
  21   2.0000      -6.033875      -164.1901
  22   2.0000      -6.031919      -164.1369
  23   2.0000      -6.028226      -164.0364
  24   2.0000      -1.004903       -27.3448
  25   2.0000      -0.982164       -26.7261
  26   2.0000      -0.912834       -24.8395
  27   2.0000      -0.910363       -24.7722
  28   2.0000      -0.864629       -23.5277
  29   2.0000      -0.850123       -23.1330
  30   2.0000      -0.845485       -23.0068
  31   2.0000      -0.810852       -22.0644
  32   2.0000      -0.785258       -21.3680
  33   2.0000      -0.775620       -21.1057
  34   2.0000      -0.709015       -19.2933
  35   2.0000      -0.699623       -19.0377
  36   2.0000      -0.686129       -18.6705
  37   2.0000      -0.664587       -18.0843
  38   2.0000      -0.644839       -17.5470
  39   2.0000      -0.614164       -16.7123
  40   2.0000      -0.587085       -15.9754
  41   2.0000      -0.573741       -15.6123
  42   2.0000      -0.555507       -15.1161
  43   2.0000      -0.553136       -15.0516
  44   2.0000      -0.549945       -14.9648
  45   2.0000      -0.541472       -14.7342
  46   2.0000      -0.512259       -13.9393
  47   2.0000      -0.511524       -13.9193
  48   2.0000      -0.497050       -13.5254
  49   2.0000      -0.493251       -13.4220
  50   2.0000      -0.487433       -13.2637
  51   2.0000      -0.478415       -13.0183
  52   2.0000      -0.474923       -12.9233
  53   2.0000      -0.464854       -12.6493
  54   2.0000      -0.460670       -12.5355
  55   2.0000      -0.445840       -12.1319
  56   2.0000      -0.441675       -12.0186
  57   2.0000      -0.438406       -11.9296
  58   2.0000      -0.433005       -11.7827
  59   2.0000      -0.422709       -11.5025
  60   2.0000      -0.419354       -11.4112
  61   2.0000      -0.414954       -11.2915
  62   2.0000      -0.407980       -11.1017
  63   2.0000      -0.340434        -9.2637
  64   2.0000      -0.335913        -9.1406
  65   2.0000      -0.324481        -8.8296
  66   2.0000      -0.295255        -8.0343
  67   0.0000       0.030402         0.8273
  68   0.0000       0.058187         1.5833
  69   0.0000       0.103778         2.8239
  70   0.0000       0.116112         3.1596
  71   0.0000       0.132911         3.6167

MULLIKEN ATOMIC CHARGES
-----------------------
   0 S :    0.111574
   1 C :   -0.125478
   2 C :   -0.100143
   3 C :    0.074471
   4 C :   -0.187046
   5 H :   -0.024484
   6 C :    0.099730
   7 H :    0.047283
   8 H :   -0.004719
   9 C :   -0.074744
  10 H :    0.032193
  11 H :    0.027765
  12 C :   -0.080811
  13 H :    0.033652
  14 H :    0.045810
  15 H :    0.054592
  16 S :    0.098393
  17 C :   -0.094260
  18 C :   -0.039181
  19 C :   -0.093479
  20 C :   -0.133191
  21 H :    0.021491
  22 C :    0.128017
  23 H :   -0.005286
  24 H :    0.013782
  25 C :   -0.039894
  26 H :    0.020057
  27 H :    0.048709
  28 C :   -0.032045
  29 H :    0.008618
  30 H :    0.025579
  31 H :    0.039202
  32 H :    0.034893
  33 H :    0.068950
Sum of atomic charges:    0.0000000

LOEWDIN ATOMIC CHARGES
----------------------
   0 S :    0.390020
   1 C :   -0.178255
   2 C :   -0.059467
   3 C :   -0.050397
   4 C :   -0.186594
   5 H :    0.014556
   6 C :   -0.027314
   7 H :    0.039260
   8 H :    0.018396
   9 C :   -0.040099
  10 H :    0.022967
  11 H :    0.022217
  12 C :   -0.069578
  13 H :    0.026753
  14 H :    0.030352
  15 H :    0.031446
  16 S :    0.408016
  17 C :   -0.186660
  18 C :   -0.075433
  19 C :   -0.051639
  20 C :   -0.214352
  21 H :    0.032255
  22 C :   -0.031263
  23 H :    0.020050
  24 H :    0.039587
  25 C :   -0.040399
  26 H :    0.022164
  27 H :    0.039003
  28 C :   -0.066957
  29 H :    0.015881
  30 H :    0.022824
  31 H :    0.031989
  32 H :    0.018390
  33 H :    0.032280

  Mayer bond orders larger than 0.100000
B(  0-S ,  1-C ) :   1.1263 B(  0-S ,  4-C ) :   1.1545 B(  1-C ,  2-C ) :   1.6247
B(  1-C , 32-H ) :   0.9745 B(  2-C ,  3-C ) :   1.2377 B(  2-C ,  6-C ) :   1.0068
B(  3-C ,  4-C ) :   1.5740 B(  3-C ,  5-H ) :   1.0089 B(  4-C , 20-C ) :   1.0010
B(  6-C ,  7-H ) :   0.9355 B(  6-C ,  8-H ) :   0.9389 B(  6-C ,  9-C ) :   1.0727
B(  9-C , 10-H ) :   0.9576 B(  9-C , 11-H ) :   0.9560 B(  9-C , 12-C ) :   1.0726
B( 12-C , 13-H ) :   0.9751 B( 12-C , 14-H ) :   0.9740 B( 12-C , 15-H ) :   0.9730
B( 16-S , 17-C ) :   1.1699 B( 16-S , 20-C ) :   1.1510 B( 17-C , 18-C ) :   1.5741
B( 17-C , 20-C ) :   0.1022 B( 17-C , 33-H ) :   0.9656 B( 18-C , 19-C ) :   1.2644
B( 18-C , 21-H ) :   0.9897 B( 19-C , 20-C ) :   1.5892 B( 19-C , 22-C ) :   1.0211
B( 22-C , 23-H ) :   0.9350 B( 22-C , 24-H ) :   0.9140 B( 22-C , 25-C ) :   1.0827
B( 25-C , 26-H ) :   0.9481 B( 25-C , 27-H ) :   0.9431 B( 25-C , 28-C ) :   1.0862
B( 28-C , 29-H ) :   0.9742 B( 28-C , 30-H ) :   0.9735 B( 28-C , 31-H ) :   0.9703

Dispersion correction           -0.015606358
FINAL SINGLE POINT ENERGY     -1339.878649543577

DIPOLE MOMENT
-------------
                                X             Y             Z
Electronic contribution:      9.69226       3.59784      15.31683
Nuclear contribution   :    -10.19257      -3.42748     -15.86449
                        -----------------------------------------
Total Dipole Moment    :     -0.50031       0.17037      -0.54766
                        -----------------------------------------
Magnitude (a.u.)       :      0.76110
Magnitude (Debye)      :      1.93456

Rotational constants in cm-1:     0.021122     0.008623     0.007559
Rotational constants in MHz :   633.216918   258.506373   226.606712

                             ****ORCA TERMINATED NORMALLY****
TOTAL RUN TIME: 0 days 0 hours 0 minutes 37 seconds 75 msec
