                         Program Version 4.2.1 -  RELEASE  -
|  1> ! wB97X-D3 SP def2-SVP
|  2> %pal
|  3> nprocs 16
|  4> end
|  5>
|  6> * xyz 0 1
|  7> S 	 -117.588 	 48.6643 	 129.908
|  8> C 	 -117.919 	 49.2365 	 131.549
|  9> C 	 -117.21 	 48.4195 	 132.46
| 10> C 	 -116.621 	 47.3338 	 131.841
| 11> C 	 -116.763 	 47.2271 	 130.458
| 12> H 	 -116.144 	 46.455 	 132.211
| 13> C 	 -117.237 	 48.4942 	 133.996
| 14> H 	 -116.537 	 49.3334 	 134.263
| 15> H 	 -116.815 	 47.6048 	 134.463
| 16> C 	 -118.641 	 48.8181 	 134.548
| 17> H 	 -118.567 	 49.0732 	 135.617
| 18> H 	 -119.05 	 49.7145 	 134.091
| 19> C 	 -119.532 	 47.5714 	 134.509
| 20> H 	 -120.519 	 47.7438 	 134.921
| 21> H 	 -119.663 	 47.1793 	 133.522
| 22> H 	 -119.175 	 46.7275 	 135.224
| 23> S 	 -117.696 	 45.1564 	 129.004
| 24> C 	 -116.57 	 44.0404 	 128.201
| 25> C 	 -115.322 	 44.5349 	 128.19
| 26> C 	 -115.201 	 45.7436 	 128.921
| 27> C 	 -116.372 	 46.1286 	 129.561
| 28> H 	 -114.583 	 44.0591 	 127.62
| 29> C 	 -113.88 	 46.4758 	 128.942
| 30> H 	 -113.174 	 45.6841 	 128.878
| 31> H 	 -113.675 	 46.8947 	 129.91
| 32> C 	 -113.587 	 47.3804 	 127.751
| 33> H 	 -114.072 	 47.0418 	 126.869
| 34> H 	 -112.502 	 47.5253 	 127.471
| 35> C 	 -114.225 	 48.7579 	 127.946
| 36> H 	 -113.936 	 49.1164 	 128.927
| 37> H 	 -115.318 	 48.7531 	 127.791
| 38> H 	 -113.769 	 49.4756 	 127.22
| 39> H 	 -118.376 	 50.1786 	 131.859
| 40> H 	 -116.892 	 43.2303 	 127.588
| 41> *
| 42>
| 43>                          ****END OF INPUT****

CARTESIAN COORDINATES (ANGSTROEM)
---------------------------------
  S    -117.588000   48.664300  129.908000
  C    -117.919000   49.236500  131.549000
  C    -117.210000   48.419500  132.460000
  C    -116.621000   47.333800  131.841000
  C    -116.763000   47.227100  130.458000
  H    -116.144000   46.455000  132.211000
  C    -117.237000   48.494200  133.996000
  H    -116.537000   49.333400  134.263000
  H    -116.815000   47.604800  134.463000
  C    -118.641000   48.818100  134.548000
  H    -118.567000   49.073200  135.617000
  H    -119.050000   49.714500  134.091000
  C    -119.532000   47.571400  134.509000
  H    -120.519000   47.743800  134.921000
  H    -119.663000   47.179300  133.522000
  H    -119.175000   46.727500  135.224000
  S    -117.696000   45.156400  129.004000
  C    -116.570000   44.040400  128.201000
  C    -115.322000   44.534900  128.190000
  C    -115.201000   45.743600  128.921000
  C    -116.372000   46.128600  129.561000
  H    -114.583000   44.059100  127.620000
  C    -113.880000   46.475800  128.942000
  H    -113.174000   45.684100  128.878000
  H    -113.675000   46.894700  129.910000
  C    -113.587000   47.380400  127.751000
  H    -114.072000   47.041800  126.869000
  H    -112.502000   47.525300  127.471000
  C    -114.225000   48.757900  127.946000
  H    -113.936000   49.116400  128.927000
  H    -115.318000   48.753100  127.791000
  H    -113.769000   49.475600  127.220000
  H    -118.376000   50.178600  131.859000
  H    -116.892000   43.230300  127.588000

 Total Charge           Charge          ....    0
 Multiplicity           Mult            ....    1
 Number of Electrons    NEL             ....  134
 Basis Dimension        Dim             ....  322

ORBITAL ENERGIES
----------------

  NO   OCC          E(Eh)            E(eV)
   0   2.0000     -88.967991     -2420.9421
   1   2.0000     -88.962486     -2420.7923
   2   2.0000     -10.328565      -281.0545
   3   2.0000     -10.327433      -281.0237
   4   2.0000     -10.319766      -280.8151
   5   2.0000     -10.314539      -280.6729
   6   2.0000     -10.304632      -280.4033
   7   2.0000     -10.302161      -280.3361
   8   2.0000     -10.296845      -280.1914
   9   2.0000     -10.289230      -279.9842
  10   2.0000     -10.287618      -279.9403
  11   2.0000     -10.286749      -279.9167
  12   2.0000     -10.283344      -279.8240
  13   2.0000     -10.283039      -279.8157
  14   2.0000     -10.277800      -279.6732
  15   2.0000     -10.270833      -279.4836
  16   2.0000      -8.081732      -219.9151
  17   2.0000      -8.077496      -219.7998
  18   2.0000      -6.040176      -164.3616
  19   2.0000      -6.036149      -164.2520
  20   2.0000      -6.035982      -164.2474
  21   2.0000      -6.032834      -164.1618
  22   2.0000      -6.032042      -164.1402
  23   2.0000      -6.028163      -164.0347
  24   2.0000      -1.008232       -27.4354
  25   2.0000      -0.986445       -26.8425
  26   2.0000      -0.910409       -24.7735
  27   2.0000      -0.908433       -24.7197
  28   2.0000      -0.870730       -23.6938
  29   2.0000      -0.846676       -23.0392
  30   2.0000      -0.845393       -23.0043
  31   2.0000      -0.815487       -22.1905
  32   2.0000      -0.780343       -21.2342
  33   2.0000      -0.769885       -20.9496
  34   2.0000      -0.707591       -19.2545
  35   2.0000      -0.698541       -19.0083
  36   2.0000      -0.690720       -18.7954
  37   2.0000      -0.665118       -18.0988
  38   2.0000      -0.644112       -17.5272
  39   2.0000      -0.610223       -16.6050
  40   2.0000      -0.599964       -16.3259
  41   2.0000      -0.578291       -15.7361
  42   2.0000      -0.552724       -15.0404
  43   2.0000      -0.550745       -14.9865
  44   2.0000      -0.545264       -14.8374
  45   2.0000      -0.533020       -14.5042
  46   2.0000      -0.519050       -14.1241
  47   2.0000      -0.511129       -13.9085
  48   2.0000      -0.502221       -13.6661
  49   2.0000      -0.493665       -13.4333
  50   2.0000      -0.486433       -13.2365
  51   2.0000      -0.476529       -12.9670
  52   2.0000      -0.470644       -12.8069
  53   2.0000      -0.464795       -12.6477
  54   2.0000      -0.460193       -12.5225
  55   2.0000      -0.442597       -12.0437
  56   2.0000      -0.438743       -11.9388
  57   2.0000      -0.431224       -11.7342
  58   2.0000      -0.427417       -11.6306
  59   2.0000      -0.425061       -11.5665
  60   2.0000      -0.416841       -11.3428
  61   2.0000      -0.415053       -11.2942
  62   2.0000      -0.411832       -11.2065
  63   2.0000      -0.340946        -9.2776
  64   2.0000      -0.330629        -8.9969
  65   2.0000      -0.322039        -8.7631
  66   2.0000      -0.305263        -8.3066
  67   0.0000       0.037447         1.0190
  68   0.0000       0.051156         1.3920
  69   0.0000       0.114668         3.1203
  70   0.0000       0.118059         3.2125
  71   0.0000       0.131415         3.5760

MULLIKEN ATOMIC CHARGES
-----------------------
   0 S :    0.122947
   1 C :   -0.132127
   2 C :   -0.068659
   3 C :    0.055235
   4 C :   -0.191215
   5 H :   -0.003859
   6 C :    0.055934
   7 H :    0.044067
   8 H :    0.025995
   9 C :   -0.063416
  10 H :    0.026027
  11 H :    0.026422
  12 C :   -0.066282
  13 H :    0.026532
  14 H :    0.043235
  15 H :    0.035552
  16 S :    0.101920
  17 C :   -0.071607
  18 C :   -0.012983
  19 C :   -0.040911
  20 C :   -0.186966
  21 H :    0.001488
  22 C :    0.126342
  23 H :   -0.001433
  24 H :    0.019547
  25 C :   -0.063347
  26 H :    0.015971
  27 H :    0.040233
  28 C :   -0.065202
  29 H :    0.023288
  30 H :    0.043188
  31 H :    0.028888
  32 H :    0.057447
  33 H :    0.047747
Sum of atomic charges:   -0.0000000

LOEWDIN ATOMIC CHARGES
----------------------
   0 S :    0.417955
   1 C :   -0.203207
   2 C :   -0.065682
   3 C :   -0.065691
   4 C :   -0.204304
   5 H :    0.029467
   6 C :   -0.028817
   7 H :    0.038580
   8 H :    0.029139
   9 C :   -0.042018
  10 H :    0.026882
  11 H :    0.021352
  12 C :   -0.070152
  13 H :    0.022605
  14 H :    0.022071
  15 H :    0.035268
  16 S :    0.403127
  17 C :   -0.163145
  18 C :   -0.065617
  19 C :   -0.048538
  20 C :   -0.209281
  21 H :    0.027147
  22 C :   -0.028992
  23 H :    0.026724
  24 H :    0.028579
  25 C :   -0.042090
  26 H :    0.020590
  27 H :    0.031279
  28 C :   -0.067026
  29 H :    0.018367
  30 H :    0.021720
  31 H :    0.027005
  32 H :    0.031796
  33 H :    0.024909

  Mayer bond orders larger than 0.100000
B(  0-S ,  1-C ) :   1.1584 B(  0-S ,  4-C ) :   1.1709 B(  1-C ,  2-C ) :   1.5546
B(  1-C ,  4-C ) :   0.1195 B(  1-C , 32-H ) :   0.9664 B(  2-C ,  3-C ) :   1.2659
B(  2-C ,  6-C ) :   1.0092 B(  3-C ,  4-C ) :   1.5692 B(  3-C ,  5-H ) :   0.9990
B(  4-C , 20-C ) :   1.0079 B(  6-C ,  7-H ) :   0.9301 B(  6-C ,  8-H ) :   0.9543
B(  6-C ,  9-C ) :   1.0798 B(  9-C , 10-H ) :   0.9524 B(  9-C , 11-H ) :   0.9547
B(  9-C , 12-C ) :   1.0714 B( 12-C , 13-H ) :   0.9735 B( 12-C , 14-H ) :   0.9795
B( 12-C , 15-H ) :   0.9726 B( 16-S , 17-C ) :   1.1474 B( 16-S , 20-C ) :   1.1485
B( 17-C , 18-C ) :   1.6256 B( 17-C , 33-H ) :   0.9677 B( 18-C , 19-C ) :   1.2354
B( 18-C , 21-H ) :   0.9983 B( 19-C , 20-C ) :   1.6019 B( 19-C , 22-C ) :   1.0414
B( 22-C , 23-H ) :   0.9186 B( 22-C , 24-H ) :   0.9381 B( 22-C , 25-C ) :   1.0637
B( 25-C , 26-H ) :   0.9534 B( 25-C , 27-H ) :   0.9582 B( 25-C , 28-C ) :   1.0760
B( 28-C , 29-H ) :   0.9787 B( 28-C , 30-H ) :   0.9766 B( 28-C , 31-H ) :   0.9729

Dispersion correction           -0.015082795
FINAL SINGLE POINT ENERGY     -1339.871472340288

DIPOLE MOMENT
-------------
                                X             Y             Z
Electronic contribution:     -6.74430      -7.23269     -11.09685
Nuclear contribution   :      7.12192       7.16817      11.26859
                        -----------------------------------------
Total Dipole Moment    :      0.37763      -0.06451       0.17174
                        -----------------------------------------
Magnitude (a.u.)       :      0.41983
Magnitude (Debye)      :      1.06712

Rotational constants in cm-1:     0.022702     0.008227     0.007063
Rotational constants in MHz :   680.603088   246.652593   211.735903

                             ****ORCA TERMINATED NORMALLY****
TOTAL RUN TIME: 0 days 0 hours 0 minutes 34 seconds 588 msec
