                         Program Version 4.2.1 -  RELEASE  -
|  1> ! wB97X-D3 SP def2-SVP
|  2> %pal
|  3> nprocs 16
|  4> end
|  5>
|  6> * xyz 0 1
|  7> S 	 -33.4905 	 28.6513 	 43.7088
|  8> C 	 -32.0706 	 27.7498 	 44.3677
|  9> C 	 -31.7678 	 28.1227 	 45.6965
| 10> C 	 -32.497 	 29.2909 	 46.0936
| 11> C 	 -33.4474 	 29.6792 	 45.1383
| 12> H 	 -32.457 	 29.6904 	 47.1641
| 13> C 	 -30.8856 	 27.4046 	 46.7601
| 14> H 	 -30.1799 	 26.6463 	 46.2912
| 15> H 	 -31.5301 	 27.131 	 47.6338
| 16> C 	 -29.8477 	 28.2885 	 47.5007
| 17> H 	 -30.245 	 29.1341 	 48.1107
| 18> H 	 -29.3099 	 27.7146 	 48.206
| 19> C 	 -28.735 	 28.9228 	 46.5142
| 20> H 	 -28.3072 	 28.0764 	 45.9235
| 21> H 	 -29.1323 	 29.6085 	 45.7632
| 22> H 	 -27.8448 	 29.4082 	 46.9791
| 23> S 	 -35.7983 	 30.5276 	 46.312
| 24> C 	 -36.5723 	 32.0058 	 45.7371
| 25> C 	 -35.7787 	 32.7313 	 44.8773
| 26> C 	 -34.5294 	 31.967 	 44.6028
| 27> C 	 -34.4007 	 30.7767 	 45.2994
| 28> H 	 -36.0847 	 33.6337 	 44.3958
| 29> C 	 -33.6016 	 32.3435 	 43.413
| 30> H 	 -34.0756 	 32.0329 	 42.5315
| 31> H 	 -32.7922 	 31.652 	 43.4061
| 32> C 	 -33.199 	 33.792 	 43.3004
| 33> H 	 -34.0732 	 34.4377 	 43.0376
| 34> H 	 -32.4432 	 33.863 	 42.4607
| 35> C 	 -32.4456 	 34.2908 	 44.5016
| 36> H 	 -31.5167 	 33.7549 	 44.6198
| 37> H 	 -32.9801 	 34.0474 	 45.3509
| 38> H 	 -32.3449 	 35.354 	 44.5167
| 39> H 	 -31.5464 	 26.9328 	 43.8926
| 40> H 	 -37.5753 	 32.3065 	 46.1436
| 41> *
| 42>
| 43>                          ****END OF INPUT****

CARTESIAN COORDINATES (ANGSTROEM)
---------------------------------
  S    -33.490500   28.651300   43.708800
  C    -32.070600   27.749800   44.367700
  C    -31.767800   28.122700   45.696500
  C    -32.497000   29.290900   46.093600
  C    -33.447400   29.679200   45.138300
  H    -32.457000   29.690400   47.164100
  C    -30.885600   27.404600   46.760100
  H    -30.179900   26.646300   46.291200
  H    -31.530100   27.131000   47.633800
  C    -29.847700   28.288500   47.500700
  H    -30.245000   29.134100   48.110700
  H    -29.309900   27.714600   48.206000
  C    -28.735000   28.922800   46.514200
  H    -28.307200   28.076400   45.923500
  H    -29.132300   29.608500   45.763200
  H    -27.844800   29.408200   46.979100
  S    -35.798300   30.527600   46.312000
  C    -36.572300   32.005800   45.737100
  C    -35.778700   32.731300   44.877300
  C    -34.529400   31.967000   44.602800
  C    -34.400700   30.776700   45.299400
  H    -36.084700   33.633700   44.395800
  C    -33.601600   32.343500   43.413000
  H    -34.075600   32.032900   42.531500
  H    -32.792200   31.652000   43.406100
  C    -33.199000   33.792000   43.300400
  H    -34.073200   34.437700   43.037600
  H    -32.443200   33.863000   42.460700
  C    -32.445600   34.290800   44.501600
  H    -31.516700   33.754900   44.619800
  H    -32.980100   34.047400   45.350900
  H    -32.344900   35.354000   44.516700
  H    -31.546400   26.932800   43.892600
  H    -37.575300   32.306500   46.143600

 Total Charge           Charge          ....    0
 Multiplicity           Mult            ....    1
 Number of Electrons    NEL             ....  134
 Basis Dimension        Dim             ....  322

ORBITAL ENERGIES
----------------

  NO   OCC          E(Eh)            E(eV)
   0   2.0000     -88.975943     -2421.1585
   1   2.0000     -88.961874     -2420.7757
   2   2.0000     -10.335237      -281.2361
   3   2.0000     -10.325299      -280.9657
   4   2.0000     -10.323298      -280.9112
   5   2.0000     -10.322750      -280.8963
   6   2.0000     -10.311871      -280.6003
   7   2.0000     -10.311068      -280.5784
   8   2.0000     -10.308721      -280.5145
   9   2.0000     -10.303635      -280.3762
  10   2.0000     -10.300393      -280.2879
  11   2.0000     -10.294698      -280.1330
  12   2.0000     -10.286226      -279.9024
  13   2.0000     -10.283431      -279.8264
  14   2.0000     -10.279591      -279.7219
  15   2.0000     -10.258491      -279.1477
  16   2.0000      -8.088885      -220.1098
  17   2.0000      -8.076817      -219.7814
  18   2.0000      -6.047475      -164.5602
  19   2.0000      -6.043754      -164.4589
  20   2.0000      -6.039543      -164.3443
  21   2.0000      -6.035457      -164.2331
  22   2.0000      -6.031223      -164.1179
  23   2.0000      -6.027493      -164.0164
  24   2.0000      -0.999931       -27.2095
  25   2.0000      -0.975319       -26.5398
  26   2.0000      -0.909635       -24.7524
  27   2.0000      -0.903929       -24.5972
  28   2.0000      -0.864284       -23.5184
  29   2.0000      -0.843649       -22.9569
  30   2.0000      -0.839633       -22.8476
  31   2.0000      -0.808923       -22.0119
  32   2.0000      -0.782395       -21.2900
  33   2.0000      -0.773292       -21.0423
  34   2.0000      -0.703284       -19.1373
  35   2.0000      -0.698351       -19.0031
  36   2.0000      -0.689449       -18.7609
  37   2.0000      -0.656266       -17.8579
  38   2.0000      -0.629176       -17.1207
  39   2.0000      -0.618278       -16.8242
  40   2.0000      -0.595919       -16.2158
  41   2.0000      -0.562737       -15.3129
  42   2.0000      -0.555431       -15.1141
  43   2.0000      -0.554384       -15.0856
  44   2.0000      -0.543110       -14.7788
  45   2.0000      -0.532553       -14.4915
  46   2.0000      -0.514936       -14.0121
  47   2.0000      -0.507452       -13.8085
  48   2.0000      -0.496667       -13.5150
  49   2.0000      -0.490162       -13.3380
  50   2.0000      -0.485270       -13.2049
  51   2.0000      -0.474264       -12.9054
  52   2.0000      -0.467299       -12.7159
  53   2.0000      -0.459678       -12.5085
  54   2.0000      -0.454017       -12.3544
  55   2.0000      -0.452815       -12.3217
  56   2.0000      -0.440322       -11.9818
  57   2.0000      -0.436777       -11.8853
  58   2.0000      -0.433788       -11.8040
  59   2.0000      -0.424682       -11.5562
  60   2.0000      -0.421795       -11.4776
  61   2.0000      -0.418427       -11.3860
  62   2.0000      -0.402752       -10.9594
  63   2.0000      -0.336379        -9.1533
  64   2.0000      -0.334505        -9.1024
  65   2.0000      -0.318697        -8.6722
  66   2.0000      -0.307285        -8.3616
  67   0.0000       0.036431         0.9913
  68   0.0000       0.057505         1.5648
  69   0.0000       0.094614         2.5746
  70   0.0000       0.113855         3.0982
  71   0.0000       0.124528         3.3886

MULLIKEN ATOMIC CHARGES
-----------------------
   0 S :    0.130021
   1 C :   -0.125289
   2 C :   -0.073166
   3 C :    0.006908
   4 C :   -0.172442
   5 H :    0.050842
   6 C :    0.040911
   7 H :    0.043931
   8 H :    0.063499
   9 C :   -0.093753
  10 H :    0.036675
  11 H :    0.027397
  12 C :   -0.102880
  13 H :    0.020502
  14 H :    0.047914
  15 H :    0.044315
  16 S :    0.099808
  17 C :   -0.118668
  18 C :   -0.001817
  19 C :   -0.077187
  20 C :   -0.156170
  21 H :    0.020654
  22 C :    0.113608
  23 H :    0.019954
  24 H :    0.007327
  25 C :   -0.115376
  26 H :    0.034921
  27 H :    0.034488
  28 C :    0.012549
  29 H :    0.023107
  30 H :    0.007275
  31 H :    0.025886
  32 H :    0.045245
  33 H :    0.079011
Sum of atomic charges:   -0.0000000

LOEWDIN ATOMIC CHARGES
----------------------
   0 S :    0.395398
   1 C :   -0.188096
   2 C :   -0.061882
   3 C :   -0.065951
   4 C :   -0.191858
   5 H :    0.047666
   6 C :   -0.033743
   7 H :    0.040803
   8 H :    0.048172
   9 C :   -0.044049
  10 H :    0.022496
  11 H :    0.019165
  12 C :   -0.080816
  13 H :    0.022671
  14 H :    0.025382
  15 H :    0.028984
  16 S :    0.394743
  17 C :   -0.177787
  18 C :   -0.070322
  19 C :   -0.044582
  20 C :   -0.218393
  21 H :    0.029692
  22 C :   -0.031849
  23 H :    0.028366
  24 H :    0.023709
  25 C :   -0.046068
  26 H :    0.024247
  27 H :    0.032188
  28 C :   -0.058003
  29 H :    0.027877
  30 H :    0.013876
  31 H :    0.023641
  32 H :    0.026245
  33 H :    0.038078

  Mayer bond orders larger than 0.100000
B(  0-S ,  1-C ) :   1.1234 B(  0-S ,  4-C ) :   1.1461 B(  1-C ,  2-C ) :   1.6280
B(  1-C ,  4-C ) :   0.1008 B(  1-C , 32-H ) :   0.9654 B(  2-C ,  3-C ) :   1.2268
B(  2-C ,  6-C ) :   1.0220 B(  3-C ,  4-C ) :   1.5930 B(  3-C ,  5-H ) :   0.9768
B(  4-C , 20-C ) :   1.0134 B(  6-C ,  7-H ) :   0.9462 B(  6-C ,  8-H ) :   0.9399
B(  6-C ,  9-C ) :   1.0603 B(  9-C , 10-H ) :   0.9548 B(  9-C , 11-H ) :   0.9598
B(  9-C , 12-C ) :   1.0540 B( 12-C , 13-H ) :   0.9762 B( 12-C , 14-H ) :   0.9788
B( 12-C , 15-H ) :   0.9793 B( 16-S , 17-C ) :   1.1577 B( 16-S , 20-C ) :   1.1227
B( 17-C , 18-C ) :   1.6287 B( 17-C , 33-H ) :   0.9589 B( 18-C , 19-C ) :   1.1929
B( 18-C , 21-H ) :   0.9967 B( 19-C , 20-C ) :   1.6389 B( 19-C , 22-C ) :   1.0306
B( 22-C , 23-H ) :   0.9309 B( 22-C , 24-H ) :   0.9246 B( 22-C , 25-C ) :   1.0815
B( 25-C , 26-H ) :   0.9524 B( 25-C , 27-H ) :   0.9539 B( 25-C , 28-C ) :   1.0830
B( 28-C , 29-H ) :   0.9693 B( 28-C , 30-H ) :   0.9698 B( 28-C , 31-H ) :   0.9715

Dispersion correction           -0.014662753
FINAL SINGLE POINT ENERGY     -1339.861455188073

DIPOLE MOMENT
-------------
                                X             Y             Z
Electronic contribution:    -22.17034      -9.20425      -2.40023
Nuclear contribution   :     22.41493       9.27334       2.47925
                        -----------------------------------------
Total Dipole Moment    :      0.24459       0.06909       0.07902
                        -----------------------------------------
Magnitude (a.u.)       :      0.26617
Magnitude (Debye)      :      0.67654

Rotational constants in cm-1:     0.018772     0.008341     0.007346
Rotational constants in MHz :   562.759785   250.070260   220.223330

                             ****ORCA TERMINATED NORMALLY****
TOTAL RUN TIME: 0 days 0 hours 0 minutes 31 seconds 646 msec
