                         Program Version 4.2.1 -  RELEASE  -
|  1> ! wB97X-D3 SP def2-SVP
|  2> %pal
|  3> nprocs 16
|  4> end
|  5>
|  6> * xyz 0 1
|  7> S 	 -40.8978 	 14.5874 	 80.1656
|  8> C 	 -39.3715 	 14.8235 	 79.2292
|  9> C 	 -39.5696 	 14.373 	 77.9848
| 10> C 	 -40.8578 	 13.8495 	 77.7611
| 11> C 	 -41.7301 	 13.8246 	 78.7694
| 12> H 	 -41.2602 	 13.4567 	 76.8106
| 13> C 	 -38.5024 	 14.5068 	 76.9185
| 14> H 	 -38.9667 	 14.0238 	 76.0648
| 15> H 	 -37.664 	 13.8986 	 77.2492
| 16> C 	 -37.9216 	 15.8888 	 76.5937
| 17> H 	 -37.3769 	 16.3168 	 77.4441
| 18> H 	 -37.2281 	 15.6922 	 75.7676
| 19> C 	 -39.0168 	 16.8749 	 76.0313
| 20> H 	 -39.4654 	 16.5478 	 75.0686
| 21> H 	 -39.8157 	 17.0072 	 76.6982
| 22> H 	 -38.5169 	 17.8485 	 75.8889
| 23> S 	 -44.2742 	 14.4947 	 79.7772
| 24> C 	 -45.5937 	 13.4083 	 79.6366
| 25> C 	 -45.2469 	 12.3813 	 78.8277
| 26> C 	 -43.8716 	 12.3 	 78.3824
| 27> C 	 -43.1202 	 13.3694 	 78.9099
| 28> H 	 -46.0608 	 11.6755 	 78.6513
| 29> C 	 -43.3281 	 11.233 	 77.4783
| 30> H 	 -43.2003 	 10.4025 	 78.179
| 31> H 	 -42.2842 	 11.4977 	 77.1905
| 32> C 	 -44.1186 	 10.663 	 76.382
| 33> H 	 -45.1559 	 10.3543 	 76.6995
| 34> H 	 -43.6312 	 9.72657 	 76.0217
| 35> C 	 -44.4096 	 11.7167 	 75.2632
| 36> H 	 -43.4216 	 11.9683 	 74.8185
| 37> H 	 -44.905 	 12.6447 	 75.5923
| 38> H 	 -44.9404 	 11.1299 	 74.4608
| 39> H 	 -38.4545 	 15.3417 	 79.5607
| 40> H 	 -46.4055 	 13.36 	 80.3556
| 41> *
| 42>
| 43>                          ****END OF INPUT****

CARTESIAN COORDINATES (ANGSTROEM)
---------------------------------
  S    -40.897800   14.587400   80.165600
  C    -39.371500   14.823500   79.229200
  C    -39.569600   14.373000   77.984800
  C    -40.857800   13.849500   77.761100
  C    -41.730100   13.824600   78.769400
  H    -41.260200   13.456700   76.810600
  C    -38.502400   14.506800   76.918500
  H    -38.966700   14.023800   76.064800
  H    -37.664000   13.898600   77.249200
  C    -37.921600   15.888800   76.593700
  H    -37.376900   16.316800   77.444100
  H    -37.228100   15.692200   75.767600
  C    -39.016800   16.874900   76.031300
  H    -39.465400   16.547800   75.068600
  H    -39.815700   17.007200   76.698200
  H    -38.516900   17.848500   75.888900
  S    -44.274200   14.494700   79.777200
  C    -45.593700   13.408300   79.636600
  C    -45.246900   12.381300   78.827700
  C    -43.871600   12.300000   78.382400
  C    -43.120200   13.369400   78.909900
  H    -46.060800   11.675500   78.651300
  C    -43.328100   11.233000   77.478300
  H    -43.200300   10.402500   78.179000
  H    -42.284200   11.497700   77.190500
  C    -44.118600   10.663000   76.382000
  H    -45.155900   10.354300   76.699500
  H    -43.631200    9.726570   76.021700
  C    -44.409600   11.716700   75.263200
  H    -43.421600   11.968300   74.818500
  H    -44.905000   12.644700   75.592300
  H    -44.940400   11.129900   74.460800
  H    -38.454500   15.341700   79.560700
  H    -46.405500   13.360000   80.355600

 Total Charge           Charge          ....    0
 Multiplicity           Mult            ....    1
 Number of Electrons    NEL             ....  134
 Basis Dimension        Dim             ....  322

ORBITAL ENERGIES
----------------

  NO   OCC          E(Eh)            E(eV)
   0   2.0000     -88.960093     -2420.7272
   1   2.0000     -88.958906     -2420.6949
   2   2.0000     -10.338387      -281.3218
   3   2.0000     -10.332449      -281.1602
   4   2.0000     -10.315968      -280.7118
   5   2.0000     -10.315561      -280.7007
   6   2.0000     -10.314070      -280.6601
   7   2.0000     -10.295653      -280.1590
   8   2.0000     -10.295088      -280.1436
   9   2.0000     -10.294474      -280.1269
  10   2.0000     -10.294454      -280.1263
  11   2.0000     -10.292962      -280.0857
  12   2.0000     -10.292332      -280.0686
  13   2.0000     -10.289780      -279.9992
  14   2.0000     -10.285564      -279.8844
  15   2.0000     -10.277150      -279.6555
  16   2.0000      -8.074684      -219.7233
  17   2.0000      -8.072570      -219.6658
  18   2.0000      -6.033376      -164.1765
  19   2.0000      -6.031370      -164.1219
  20   2.0000      -6.029124      -164.0608
  21   2.0000      -6.027211      -164.0088
  22   2.0000      -6.025319      -163.9573
  23   2.0000      -6.023049      -163.8955
  24   2.0000      -1.004548       -27.3352
  25   2.0000      -0.985623       -26.8202
  26   2.0000      -0.918984       -25.0068
  27   2.0000      -0.910919       -24.7874
  28   2.0000      -0.870125       -23.6773
  29   2.0000      -0.846508       -23.0347
  30   2.0000      -0.836446       -22.7609
  31   2.0000      -0.819951       -22.3120
  32   2.0000      -0.785760       -21.3816
  33   2.0000      -0.776332       -21.1251
  34   2.0000      -0.710530       -19.3345
  35   2.0000      -0.707150       -19.2425
  36   2.0000      -0.694624       -18.9017
  37   2.0000      -0.649055       -17.6617
  38   2.0000      -0.639296       -17.3961
  39   2.0000      -0.616190       -16.7674
  40   2.0000      -0.598716       -16.2919
  41   2.0000      -0.572928       -15.5902
  42   2.0000      -0.557020       -15.1573
  43   2.0000      -0.550469       -14.9790
  44   2.0000      -0.544440       -14.8150
  45   2.0000      -0.535399       -14.5690
  46   2.0000      -0.527963       -14.3666
  47   2.0000      -0.514627       -14.0037
  48   2.0000      -0.504616       -13.7313
  49   2.0000      -0.498891       -13.5755
  50   2.0000      -0.496610       -13.5134
  51   2.0000      -0.481389       -13.0993
  52   2.0000      -0.473083       -12.8732
  53   2.0000      -0.462899       -12.5961
  54   2.0000      -0.458474       -12.4757
  55   2.0000      -0.447652       -12.1812
  56   2.0000      -0.441173       -12.0049
  57   2.0000      -0.436208       -11.8698
  58   2.0000      -0.429708       -11.6929
  59   2.0000      -0.422821       -11.5055
  60   2.0000      -0.416649       -11.3376
  61   2.0000      -0.410543       -11.1714
  62   2.0000      -0.404661       -11.0114
  63   2.0000      -0.352002        -9.5785
  64   2.0000      -0.329039        -8.9536
  65   2.0000      -0.325950        -8.8695
  66   2.0000      -0.295801        -8.0492
  67   0.0000       0.019271         0.5244
  68   0.0000       0.074736         2.0337
  69   0.0000       0.101441         2.7603
  70   0.0000       0.116508         3.1703
  71   0.0000       0.131058         3.5663

MULLIKEN ATOMIC CHARGES
-----------------------
   0 S :    0.074725
   1 C :   -0.139534
   2 C :   -0.083422
   3 C :    0.012582
   4 C :   -0.135078
   5 H :    0.011116
   6 C :    0.078376
   7 H :    0.010250
   8 H :    0.037626
   9 C :   -0.073149
  10 H :    0.034178
  11 H :    0.037745
  12 C :   -0.056790
  13 H :    0.032606
  14 H :    0.036487
  15 H :    0.037009
  16 S :    0.081648
  17 C :   -0.083199
  18 C :   -0.068503
  19 C :   -0.021656
  20 C :   -0.151785
  21 H :    0.022989
  22 C :    0.080947
  23 H :    0.038756
  24 H :    0.018828
  25 C :   -0.088339
  26 H :    0.030628
  27 H :    0.040967
  28 C :   -0.077407
  29 H :    0.022235
  30 H :    0.063700
  31 H :    0.043366
  32 H :    0.058952
  33 H :    0.073149
Sum of atomic charges:   -0.0000000

LOEWDIN ATOMIC CHARGES
----------------------
   0 S :    0.355122
   1 C :   -0.172077
   2 C :   -0.077609
   3 C :   -0.074100
   4 C :   -0.172743
   5 H :    0.032804
   6 C :   -0.032847
   7 H :    0.026951
   8 H :    0.035205
   9 C :   -0.035739
  10 H :    0.023215
  11 H :    0.030032
  12 C :   -0.063969
  13 H :    0.028310
  14 H :    0.017852
  15 H :    0.028839
  16 S :    0.380200
  17 C :   -0.194474
  18 C :   -0.080565
  19 C :   -0.046565
  20 C :   -0.174760
  21 H :    0.031720
  22 C :   -0.045546
  23 H :    0.043955
  24 H :    0.033820
  25 C :   -0.047713
  26 H :    0.026536
  27 H :    0.034184
  28 C :   -0.072881
  29 H :    0.021606
  30 H :    0.032669
  31 H :    0.031958
  32 H :    0.038256
  33 H :    0.038352

  Mayer bond orders larger than 0.100000
B(  0-S ,  1-C ) :   1.1149 B(  0-S ,  4-C ) :   1.1218 B(  1-C ,  2-C ) :   1.6388
B(  1-C , 32-H ) :   0.9707 B(  2-C ,  3-C ) :   1.2173 B(  2-C ,  6-C ) :   1.0025
B(  3-C ,  4-C ) :   1.6325 B(  3-C ,  5-H ) :   0.9823 B(  4-C , 20-C ) :   1.0373
B(  6-C ,  7-H ) :   0.9405 B(  6-C ,  8-H ) :   0.9336 B(  6-C ,  9-C ) :   1.0835
B(  9-C , 10-H ) :   0.9549 B(  9-C , 11-H ) :   0.9542 B(  9-C , 12-C ) :   1.0685
B( 12-C , 13-H ) :   0.9762 B( 12-C , 14-H ) :   0.9800 B( 12-C , 15-H ) :   0.9760
B( 16-S , 17-C ) :   1.1497 B( 16-S , 20-C ) :   1.1295 B( 17-C , 18-C ) :   1.6383
B( 17-C , 33-H ) :   0.9576 B( 18-C , 19-C ) :   1.2102 B( 18-C , 21-H ) :   0.9855
B( 19-C , 20-C ) :   1.5805 B( 19-C , 22-C ) :   1.0413 B( 22-C , 23-H ) :   0.9122
B( 22-C , 24-H ) :   0.9319 B( 22-C , 25-C ) :   1.0947 B( 25-C , 26-H ) :   0.9449
B( 25-C , 27-H ) :   0.9488 B( 25-C , 28-C ) :   1.0663 B( 28-C , 29-H ) :   0.9749
B( 28-C , 30-H ) :   0.9744 B( 28-C , 31-H ) :   0.9757

Dispersion correction           -0.014232503
FINAL SINGLE POINT ENERGY     -1339.867336461604

DIPOLE MOMENT
-------------
                                X             Y             Z
Electronic contribution:     -7.61641       4.36365      23.63930
Nuclear contribution   :      7.78402      -4.81144     -24.21141
                        -----------------------------------------
Total Dipole Moment    :      0.16761      -0.44779      -0.57211
                        -----------------------------------------
Magnitude (a.u.)       :      0.74560
Magnitude (Debye)      :      1.89517

Rotational constants in cm-1:     0.019705     0.008241     0.006623
Rotational constants in MHz :   590.755016   247.066394   198.548436

                             ****ORCA TERMINATED NORMALLY****
TOTAL RUN TIME: 0 days 0 hours 0 minutes 29 seconds 278 msec
