                         Program Version 4.2.1 -  RELEASE  -
|  1> ! wB97X-D3 SP def2-SVP
|  2> %pal
|  3> nprocs 16
|  4> end
|  5>
|  6> * xyz 0 1
|  7> S 	 37.4522 	 13.084 	 80.1522
|  8> C 	 37.3125 	 12.6772 	 78.4158
|  9> C 	 37.9831 	 13.6044 	 77.6353
| 10> C 	 38.4408 	 14.7581 	 78.337
| 11> C 	 38.2754 	 14.608 	 79.7407
| 12> H 	 39.0834 	 15.5313 	 77.923
| 13> C 	 38.0972 	 13.5016 	 76.1051
| 14> H 	 38.2005 	 14.5161 	 75.6984
| 15> H 	 37.1999 	 13.1192 	 75.6952
| 16> C 	 39.1775 	 12.4796 	 75.6023
| 17> H 	 40.1098 	 12.9042 	 75.9647
| 18> H 	 39.1678 	 11.4983 	 76.0333
| 19> C 	 39.221 	 12.3509 	 74.0812
| 20> H 	 39.1149 	 13.3008 	 73.599
| 21> H 	 40.1192 	 11.8494 	 73.641
| 22> H 	 38.3862 	 11.7355 	 73.7178
| 23> S 	 37.7052 	 15.914 	 82.1571
| 24> C 	 38.9107 	 16.8749 	 82.9297
| 25> C 	 40.0644 	 16.9603 	 82.2173
| 26> C 	 39.9333 	 16.2336 	 80.9556
| 27> C 	 38.7682 	 15.5083 	 80.7826
| 28> H 	 40.8823 	 17.6463 	 82.5566
| 29> C 	 41.0952 	 16.3637 	 79.9425
| 30> H 	 41.5667 	 17.2645 	 80.1589
| 31> H 	 40.6544 	 16.4305 	 78.9226
| 32> C 	 42.0387 	 15.1979 	 79.9723
| 33> H 	 41.6416 	 14.2569 	 79.7092
| 34> H 	 42.2866 	 15.061 	 81.0378
| 35> C 	 43.4508 	 15.4657 	 79.2624
| 36> H 	 43.9613 	 16.2598 	 79.7156
| 37> H 	 43.4423 	 15.8974 	 78.2524
| 38> H 	 44.1449 	 14.6234 	 79.2917
| 39> H 	 36.9545 	 11.6418 	 78.1153
| 40> H 	 38.7722 	 17.3931 	 83.9182
| 41> *
| 42>
| 43>                          ****END OF INPUT****

CARTESIAN COORDINATES (ANGSTROEM)
---------------------------------
  S     37.452200   13.084000   80.152200
  C     37.312500   12.677200   78.415800
  C     37.983100   13.604400   77.635300
  C     38.440800   14.758100   78.337000
  C     38.275400   14.608000   79.740700
  H     39.083400   15.531300   77.923000
  C     38.097200   13.501600   76.105100
  H     38.200500   14.516100   75.698400
  H     37.199900   13.119200   75.695200
  C     39.177500   12.479600   75.602300
  H     40.109800   12.904200   75.964700
  H     39.167800   11.498300   76.033300
  C     39.221000   12.350900   74.081200
  H     39.114900   13.300800   73.599000
  H     40.119200   11.849400   73.641000
  H     38.386200   11.735500   73.717800
  S     37.705200   15.914000   82.157100
  C     38.910700   16.874900   82.929700
  C     40.064400   16.960300   82.217300
  C     39.933300   16.233600   80.955600
  C     38.768200   15.508300   80.782600
  H     40.882300   17.646300   82.556600
  C     41.095200   16.363700   79.942500
  H     41.566700   17.264500   80.158900
  H     40.654400   16.430500   78.922600
  C     42.038700   15.197900   79.972300
  H     41.641600   14.256900   79.709200
  H     42.286600   15.061000   81.037800
  C     43.450800   15.465700   79.262400
  H     43.961300   16.259800   79.715600
  H     43.442300   15.897400   78.252400
  H     44.144900   14.623400   79.291700
  H     36.954500   11.641800   78.115300
  H     38.772200   17.393100   83.918200

 Total Charge           Charge          ....    0
 Multiplicity           Mult            ....    1
 Number of Electrons    NEL             ....  134
 Basis Dimension        Dim             ....  322

ORBITAL ENERGIES
----------------

  NO   OCC          E(Eh)            E(eV)
   0   2.0000     -88.971050     -2421.0254
   1   2.0000     -88.963104     -2420.8091
   2   2.0000     -10.341028      -281.3937
   3   2.0000     -10.330999      -281.1208
   4   2.0000     -10.323309      -280.9115
   5   2.0000     -10.320157      -280.8258
   6   2.0000     -10.309223      -280.5282
   7   2.0000     -10.306812      -280.4626
   8   2.0000     -10.301609      -280.3210
   9   2.0000     -10.299140      -280.2538
  10   2.0000     -10.294163      -280.1184
  11   2.0000     -10.289646      -279.9955
  12   2.0000     -10.286699      -279.9153
  13   2.0000     -10.284956      -279.8679
  14   2.0000     -10.279786      -279.7272
  15   2.0000     -10.276429      -279.6358
  16   2.0000      -8.084507      -219.9906
  17   2.0000      -8.078099      -219.8162
  18   2.0000      -6.043048      -164.4397
  19   2.0000      -6.039210      -164.3352
  20   2.0000      -6.036694      -164.2668
  21   2.0000      -6.035292      -164.2286
  22   2.0000      -6.032539      -164.1537
  23   2.0000      -6.028765      -164.0510
  24   2.0000      -1.002222       -27.2719
  25   2.0000      -0.979928       -26.6652
  26   2.0000      -0.907465       -24.6934
  27   2.0000      -0.907278       -24.6883
  28   2.0000      -0.868366       -23.6295
  29   2.0000      -0.849238       -23.1089
  30   2.0000      -0.840479       -22.8706
  31   2.0000      -0.812660       -22.1136
  32   2.0000      -0.783492       -21.3199
  33   2.0000      -0.771380       -20.9903
  34   2.0000      -0.711994       -19.3743
  35   2.0000      -0.705152       -19.1881
  36   2.0000      -0.694065       -18.8865
  37   2.0000      -0.660826       -17.9820
  38   2.0000      -0.635894       -17.3036
  39   2.0000      -0.620879       -16.8950
  40   2.0000      -0.591506       -16.0957
  41   2.0000      -0.568068       -15.4579
  42   2.0000      -0.563656       -15.3379
  43   2.0000      -0.554939       -15.1007
  44   2.0000      -0.525189       -14.2911
  45   2.0000      -0.522110       -14.2073
  46   2.0000      -0.515686       -14.0325
  47   2.0000      -0.505842       -13.7647
  48   2.0000      -0.502876       -13.6839
  49   2.0000      -0.496046       -13.4981
  50   2.0000      -0.491374       -13.3710
  51   2.0000      -0.482302       -13.1241
  52   2.0000      -0.474136       -12.9019
  53   2.0000      -0.464448       -12.6383
  54   2.0000      -0.457851       -12.4588
  55   2.0000      -0.451897       -12.2967
  56   2.0000      -0.449930       -12.2432
  57   2.0000      -0.444370       -12.0919
  58   2.0000      -0.439659       -11.9637
  59   2.0000      -0.426477       -11.6050
  60   2.0000      -0.415518       -11.3068
  61   2.0000      -0.411042       -11.1850
  62   2.0000      -0.406325       -11.0567
  63   2.0000      -0.351067        -9.5530
  64   2.0000      -0.335253        -9.1227
  65   2.0000      -0.329461        -8.9651
  66   2.0000      -0.290432        -7.9031
  67   0.0000       0.021646         0.5890
  68   0.0000       0.070213         1.9106
  69   0.0000       0.104914         2.8549
  70   0.0000       0.114294         3.1101
  71   0.0000       0.128426         3.4946

MULLIKEN ATOMIC CHARGES
-----------------------
   0 S :    0.107608
   1 C :   -0.149231
   2 C :   -0.079899
   3 C :    0.032520
   4 C :   -0.145400
   5 H :    0.020972
   6 C :    0.062805
   7 H :    0.028233
   8 H :    0.014595
   9 C :   -0.059025
  10 H :    0.018747
  11 H :    0.028178
  12 C :   -0.055647
  13 H :    0.022815
  14 H :    0.042336
  15 H :    0.028105
  16 S :    0.095147
  17 C :   -0.101910
  18 C :   -0.047609
  19 C :   -0.086320
  20 C :   -0.133158
  21 H :    0.043957
  22 C :    0.113053
  23 H :   -0.002477
  24 H :    0.018678
  25 C :   -0.045988
  26 H :    0.028555
  27 H :    0.022728
  28 C :   -0.043510
  29 H :    0.004226
  30 H :    0.020871
  31 H :    0.039224
  32 H :    0.079896
  33 H :    0.076921
Sum of atomic charges:   -0.0000000

LOEWDIN ATOMIC CHARGES
----------------------
   0 S :    0.387225
   1 C :   -0.198975
   2 C :   -0.059722
   3 C :   -0.064393
   4 C :   -0.176599
   5 H :    0.032613
   6 C :   -0.024411
   7 H :    0.032092
   8 H :    0.023065
   9 C :   -0.038445
  10 H :    0.020937
  11 H :    0.022644
  12 C :   -0.071153
  13 H :    0.020230
  14 H :    0.032833
  15 H :    0.024977
  16 S :    0.395860
  17 C :   -0.192484
  18 C :   -0.088452
  19 C :   -0.047599
  20 C :   -0.197198
  21 H :    0.044217
  22 C :   -0.023161
  23 H :    0.019883
  24 H :    0.028093
  25 C :   -0.031870
  26 H :    0.019898
  27 H :    0.028156
  28 C :   -0.072276
  29 H :    0.015582
  30 H :    0.024783
  31 H :    0.028272
  32 H :    0.042235
  33 H :    0.043144

  Mayer bond orders larger than 0.100000
B(  0-S ,  1-C ) :   1.1237 B(  0-S ,  4-C ) :   1.1664 B(  1-C ,  2-C ) :   1.6078
B(  1-C ,  4-C ) :   0.1048 B(  1-C , 32-H ) :   0.9594 B(  2-C ,  3-C ) :   1.2594
B(  2-C ,  6-C ) :   1.0198 B(  3-C ,  4-C ) :   1.5456 B(  3-C ,  5-H ) :   0.9833
B(  4-C , 20-C ) :   1.0620 B(  6-C ,  7-H ) :   0.9466 B(  6-C ,  8-H ) :   0.9472
B(  6-C ,  9-C ) :   1.0435 B(  9-C , 10-H ) :   0.9563 B(  9-C , 11-H ) :   0.9613
B(  9-C , 12-C ) :   1.0809 B( 12-C , 13-H ) :   0.9740 B( 12-C , 14-H ) :   0.9747
B( 12-C , 15-H ) :   0.9744 B( 16-S , 17-C ) :   1.1629 B( 16-S , 20-C ) :   1.1120
B( 17-C , 18-C ) :   1.6321 B( 17-C , 33-H ) :   0.9548 B( 18-C , 19-C ) :   1.2220
B( 18-C , 21-H ) :   0.9820 B( 19-C , 20-C ) :   1.6228 B( 19-C , 22-C ) :   1.0361
B( 22-C , 23-H ) :   0.9291 B( 22-C , 24-H ) :   0.9350 B( 22-C , 25-C ) :   1.0661
B( 25-C , 26-H ) :   0.9618 B( 25-C , 27-H ) :   0.9531 B( 25-C , 28-C ) :   1.0645
B( 28-C , 29-H ) :   0.9731 B( 28-C , 30-H ) :   0.9758 B( 28-C , 31-H ) :   0.9786

Dispersion correction           -0.013847399
FINAL SINGLE POINT ENERGY     -1339.871835086888

DIPOLE MOMENT
-------------
                                X             Y             Z
Electronic contribution:    -20.80064       3.08098      24.70990
Nuclear contribution   :     21.36244      -2.95015     -25.10392
                        -----------------------------------------
Total Dipole Moment    :      0.56180       0.13083      -0.39402
                        -----------------------------------------
Magnitude (a.u.)       :      0.69856
Magnitude (Debye)      :      1.77560

Rotational constants in cm-1:     0.018398     0.008428     0.006236
Rotational constants in MHz :   551.550699   252.674117   186.957783

                             ****ORCA TERMINATED NORMALLY****
TOTAL RUN TIME: 0 days 0 hours 0 minutes 29 seconds 837 msec
