                         Program Version 4.2.1 -  RELEASE  -
|  1> ! wB97X-D3 SP def2-SVP
|  2> %pal
|  3> nprocs 16
|  4> end
|  5>
|  6> * xyz 0 1
|  7> S 	 3.00769 	 -26.805 	 60.127
|  8> C 	 1.62059 	 -26.4925 	 61.1216
|  9> C 	 1.85386 	 -26.7123 	 62.453
| 10> C 	 3.29962 	 -26.8912 	 62.7194
| 11> C 	 4.00034 	 -27.0123 	 61.5134
| 12> H 	 3.71904 	 -26.8437 	 63.7476
| 13> C 	 0.822681 	 -26.4042 	 63.5402
| 14> H 	 0.00982731 	 -25.9152 	 63.0938
| 15> H 	 1.23678 	 -25.5932 	 64.2114
| 16> C 	 0.390164 	 -27.5496 	 64.4764
| 17> H 	 1.17955 	 -27.8879 	 65.1164
| 18> H 	 -0.396127 	 -27.2023 	 65.0612
| 19> C 	 -0.00694655 	 -28.7753 	 63.7136
| 20> H 	 0.597266 	 -29.5853 	 64.1267
| 21> H 	 -1.04481 	 -29.1083 	 63.8647
| 22> H 	 0.191646 	 -28.717 	 62.6763
| 23> S 	 5.88281 	 -28.7433 	 60.6118
| 24> C 	 7.64435 	 -28.4614 	 60.9993
| 25> C 	 7.69317 	 -27.2227 	 61.5899
| 26> C 	 6.45371 	 -26.4839 	 61.7656
| 27> C 	 5.39601 	 -27.2053 	 61.2839
| 28> H 	 8.66251 	 -26.7843 	 61.8889
| 29> C 	 6.46741 	 -25.1424 	 62.5133
| 30> H 	 5.47446 	 -24.8917 	 62.7517
| 31> H 	 6.73062 	 -24.349 	 61.7549
| 32> C 	 7.37784 	 -24.948 	 63.766
| 33> H 	 7.30941 	 -23.911 	 64.0814
| 34> H 	 8.43843 	 -25.0365 	 63.4281
| 35> C 	 7.02126 	 -25.9721 	 64.9086
| 36> H 	 7.45112 	 -25.6945 	 65.8973
| 37> H 	 7.29477 	 -27.0191 	 64.6533
| 38> H 	 5.96231 	 -26.2164 	 65.2325
| 39> H 	 0.642973 	 -26.3682 	 60.7284
| 40> H 	 8.54598 	 -29.0192 	 60.7121
| 41> *
| 42>
| 43>                          ****END OF INPUT****

CARTESIAN COORDINATES (ANGSTROEM)
---------------------------------
  S      3.007690  -26.805000   60.127000
  C      1.620590  -26.492500   61.121600
  C      1.853860  -26.712300   62.453000
  C      3.299620  -26.891200   62.719400
  C      4.000340  -27.012300   61.513400
  H      3.719040  -26.843700   63.747600
  C      0.822681  -26.404200   63.540200
  H      0.009827  -25.915200   63.093800
  H      1.236780  -25.593200   64.211400
  C      0.390164  -27.549600   64.476400
  H      1.179550  -27.887900   65.116400
  H     -0.396127  -27.202300   65.061200
  C     -0.006947  -28.775300   63.713600
  H      0.597266  -29.585300   64.126700
  H     -1.044810  -29.108300   63.864700
  H      0.191646  -28.717000   62.676300
  S      5.882810  -28.743300   60.611800
  C      7.644350  -28.461400   60.999300
  C      7.693170  -27.222700   61.589900
  C      6.453710  -26.483900   61.765600
  C      5.396010  -27.205300   61.283900
  H      8.662510  -26.784300   61.888900
  C      6.467410  -25.142400   62.513300
  H      5.474460  -24.891700   62.751700
  H      6.730620  -24.349000   61.754900
  C      7.377840  -24.948000   63.766000
  H      7.309410  -23.911000   64.081400
  H      8.438430  -25.036500   63.428100
  C      7.021260  -25.972100   64.908600
  H      7.451120  -25.694500   65.897300
  H      7.294770  -27.019100   64.653300
  H      5.962310  -26.216400   65.232500
  H      0.642973  -26.368200   60.728400
  H      8.545980  -29.019200   60.712100

 Total Charge           Charge          ....    0
 Multiplicity           Mult            ....    1
 Number of Electrons    NEL             ....  134
 Basis Dimension        Dim             ....  322

ORBITAL ENERGIES
----------------

  NO   OCC          E(Eh)            E(eV)
   0   2.0000     -88.965781     -2420.8820
   1   2.0000     -88.962487     -2420.7923
   2   2.0000     -10.327868      -281.0356
   3   2.0000     -10.324546      -280.9452
   4   2.0000     -10.322792      -280.8975
   5   2.0000     -10.309665      -280.5403
   6   2.0000     -10.305353      -280.4229
   7   2.0000     -10.304491      -280.3995
   8   2.0000     -10.304239      -280.3926
   9   2.0000     -10.302601      -280.3480
  10   2.0000     -10.296205      -280.1740
  11   2.0000     -10.294621      -280.1309
  12   2.0000     -10.292188      -280.0647
  13   2.0000     -10.290391      -280.0158
  14   2.0000     -10.275209      -279.6027
  15   2.0000     -10.263922      -279.2955
  16   2.0000      -8.081621      -219.9121
  17   2.0000      -8.076339      -219.7684
  18   2.0000      -6.040073      -164.3587
  19   2.0000      -6.035974      -164.2472
  20   2.0000      -6.035223      -164.2268
  21   2.0000      -6.032368      -164.1491
  22   2.0000      -6.030941      -164.1102
  23   2.0000      -6.026738      -163.9959
  24   2.0000      -1.008742       -27.4493
  25   2.0000      -0.979757       -26.6606
  26   2.0000      -0.914741       -24.8914
  27   2.0000      -0.899601       -24.4794
  28   2.0000      -0.873804       -23.7774
  29   2.0000      -0.847010       -23.0483
  30   2.0000      -0.836342       -22.7580
  31   2.0000      -0.814208       -22.1557
  32   2.0000      -0.782963       -21.3055
  33   2.0000      -0.774725       -21.0813
  34   2.0000      -0.714237       -19.4354
  35   2.0000      -0.702585       -19.1183
  36   2.0000      -0.694134       -18.8883
  37   2.0000      -0.656317       -17.8593
  38   2.0000      -0.640623       -17.4322
  39   2.0000      -0.618682       -16.8352
  40   2.0000      -0.592529       -16.1235
  41   2.0000      -0.565689       -15.3932
  42   2.0000      -0.550948       -14.9921
  43   2.0000      -0.549641       -14.9565
  44   2.0000      -0.545135       -14.8339
  45   2.0000      -0.533357       -14.5134
  46   2.0000      -0.517160       -14.0726
  47   2.0000      -0.513769       -13.9804
  48   2.0000      -0.502964       -13.6864
  49   2.0000      -0.497906       -13.5487
  50   2.0000      -0.493413       -13.4264
  51   2.0000      -0.476854       -12.9759
  52   2.0000      -0.465390       -12.6639
  53   2.0000      -0.460188       -12.5224
  54   2.0000      -0.456085       -12.4107
  55   2.0000      -0.451068       -12.2742
  56   2.0000      -0.444598       -12.0981
  57   2.0000      -0.432738       -11.7754
  58   2.0000      -0.427621       -11.6362
  59   2.0000      -0.425474       -11.5777
  60   2.0000      -0.420087       -11.4312
  61   2.0000      -0.415925       -11.3179
  62   2.0000      -0.408690       -11.1210
  63   2.0000      -0.342537        -9.3209
  64   2.0000      -0.329542        -8.9673
  65   2.0000      -0.323445        -8.8014
  66   2.0000      -0.303739        -8.2652
  67   0.0000       0.038515         1.0480
  68   0.0000       0.064042         1.7427
  69   0.0000       0.107227         2.9178
  70   0.0000       0.113702         3.0940
  71   0.0000       0.125891         3.4257

MULLIKEN ATOMIC CHARGES
-----------------------
   0 S :    0.120514
   1 C :   -0.100807
   2 C :   -0.111413
   3 C :    0.045240
   4 C :   -0.182926
   5 H :    0.031145
   6 C :    0.039303
   7 H :    0.006077
   8 H :    0.035633
   9 C :   -0.022357
  10 H :    0.022844
  11 H :    0.018199
  12 C :   -0.052623
  13 H :    0.021935
  14 H :    0.028817
  15 H :    0.031202
  16 S :    0.092829
  17 C :   -0.097043
  18 C :   -0.049271
  19 C :   -0.030135
  20 C :   -0.148001
  21 H :    0.023168
  22 C :    0.072669
  23 H :    0.006549
  24 H :    0.043976
  25 C :   -0.043497
  26 H :    0.035572
  27 H :    0.037576
  28 C :   -0.098047
  29 H :    0.040163
  30 H :    0.043668
  31 H :    0.030006
  32 H :    0.038717
  33 H :    0.070321
Sum of atomic charges:    0.0000000

LOEWDIN ATOMIC CHARGES
----------------------
   0 S :    0.428734
   1 C :   -0.197418
   2 C :   -0.062062
   3 C :   -0.056567
   4 C :   -0.204765
   5 H :    0.038044
   6 C :   -0.029242
   7 H :    0.020651
   8 H :    0.038625
   9 C :   -0.037288
  10 H :    0.022714
  11 H :    0.019077
  12 C :   -0.067428
  13 H :    0.029496
  14 H :    0.026497
  15 H :    0.019323
  16 S :    0.375130
  17 C :   -0.174617
  18 C :   -0.070250
  19 C :   -0.058715
  20 C :   -0.206508
  21 H :    0.029948
  22 C :   -0.031706
  23 H :    0.020266
  24 H :    0.042578
  25 C :   -0.035872
  26 H :    0.028257
  27 H :    0.028345
  28 C :   -0.088607
  29 H :    0.028789
  30 H :    0.031849
  31 H :    0.030552
  32 H :    0.020054
  33 H :    0.042115

  Mayer bond orders larger than 0.100000
B(  0-S ,  1-C ) :   1.1353 B(  0-S ,  4-C ) :   1.1693 B(  1-C ,  2-C ) :   1.6337
B(  1-C , 32-H ) :   0.9662 B(  2-C ,  3-C ) :   1.2064 B(  2-C ,  6-C ) :   1.0281
B(  3-C ,  4-C ) :   1.5849 B(  3-C ,  5-H ) :   0.9909 B(  4-C , 20-C ) :   0.9995
B(  6-C ,  7-H ) :   0.9476 B(  6-C ,  8-H ) :   0.9430 B(  6-C ,  9-C ) :   1.0728
B(  9-C , 10-H ) :   0.9666 B(  9-C , 11-H ) :   0.9563 B(  9-C , 12-C ) :   1.0669
B( 12-C , 13-H ) :   0.9802 B( 12-C , 14-H ) :   0.9765 B( 12-C , 15-H ) :   0.9781
B( 16-S , 17-C ) :   1.1092 B( 16-S , 20-C ) :   1.1367 B( 17-C , 18-C ) :   1.6517
B( 17-C , 33-H ) :   0.9659 B( 18-C , 19-C ) :   1.2122 B( 18-C , 21-H ) :   0.9757
B( 19-C , 20-C ) :   1.6307 B( 19-C , 22-C ) :   1.0343 B( 22-C , 23-H ) :   0.9327
B( 22-C , 24-H ) :   0.9298 B( 22-C , 25-C ) :   1.0770 B( 25-C , 26-H ) :   0.9564
B( 25-C , 27-H ) :   0.9512 B( 25-C , 28-C ) :   1.0490 B( 28-C , 29-H ) :   0.9773
B( 28-C , 30-H ) :   0.9737 B( 28-C , 31-H ) :   0.9773

Dispersion correction           -0.014900373
FINAL SINGLE POINT ENERGY     -1339.864300585261

DIPOLE MOMENT
-------------
                                X             Y             Z
Electronic contribution:      5.23895      -5.85302     -23.27858
Nuclear contribution   :     -5.19570       6.27801      23.89435
                        -----------------------------------------
Total Dipole Moment    :      0.04325       0.42499       0.61577
                        -----------------------------------------
Magnitude (a.u.)       :      0.74943
Magnitude (Debye)      :      1.90491

Rotational constants in cm-1:     0.019289     0.008590     0.007182
Rotational constants in MHz :   578.277836   257.533785   215.310612

                             ****ORCA TERMINATED NORMALLY****
TOTAL RUN TIME: 0 days 0 hours 0 minutes 35 seconds 974 msec
