                         Program Version 4.2.1 -  RELEASE  -
|  1> ! wB97X-D3 SP def2-SVP
|  2> %pal
|  3> nprocs 16
|  4> end
|  5>
|  6> * xyz 0 1
|  7> S 	 -3.62534 	 10.2011 	 87.1316
|  8> C 	 -3.39254 	 8.9909 	 88.392
|  9> C 	 -4.15174 	 7.8732 	 88.2409
| 10> C 	 -4.9191 	 8.00383 	 87.032
| 11> C 	 -4.7294 	 9.19165 	 86.3751
| 12> H 	 -5.61113 	 7.24879 	 86.5626
| 13> C 	 -4.1941 	 6.76999 	 89.271
| 14> H 	 -5.16161 	 6.30486 	 89.2624
| 15> H 	 -4.10442 	 7.24283 	 90.2661
| 16> C 	 -3.20499 	 5.67222 	 89.0987
| 17> H 	 -3.28858 	 4.99137 	 88.1514
| 18> H 	 -2.27769 	 6.03848 	 89.1069
| 19> C 	 -3.34186 	 4.61933 	 90.2291
| 20> H 	 -4.36729 	 4.26667 	 90.2129
| 21> H 	 -2.55636 	 3.93711 	 90.2703
| 22> H 	 -3.29747 	 5.05627 	 91.2781
| 23> S 	 -5.96136 	 11.3347 	 85.1791
| 24> C 	 -6.89048 	 11.1575 	 83.6818
| 25> C 	 -6.68378 	 9.90351 	 83.219
| 26> C 	 -5.92096 	 9.00313 	 84.0576
| 27> C 	 -5.42136 	 9.62181 	 85.2026
| 28> H 	 -7.32738 	 9.60076 	 82.3774
| 29> C 	 -5.62588 	 7.59414 	 83.5201
| 30> H 	 -6.51845 	 6.88683 	 83.505
| 31> H 	 -4.87484 	 7.10199 	 84.1831
| 32> C 	 -4.9178 	 7.7725 	 82.1664
| 33> H 	 -5.40766 	 8.38912 	 81.3467
| 34> H 	 -4.80731 	 6.74634 	 81.988
| 35> C 	 -3.44868 	 8.29535 	 82.3454
| 36> H 	 -2.94505 	 8.24933 	 81.4282
| 37> H 	 -2.87178 	 7.75649 	 83.1079
| 38> H 	 -3.66179 	 9.34159 	 82.4875
| 39> H 	 -2.95073 	 9.35757 	 89.2823
| 40> H 	 -7.52322 	 11.9181 	 83.2073
| 41> *
| 42>
| 43>                          ****END OF INPUT****

CARTESIAN COORDINATES (ANGSTROEM)
---------------------------------
  S     -3.625340   10.201100   87.131600
  C     -3.392540    8.990900   88.392000
  C     -4.151740    7.873200   88.240900
  C     -4.919100    8.003830   87.032000
  C     -4.729400    9.191650   86.375100
  H     -5.611130    7.248790   86.562600
  C     -4.194100    6.769990   89.271000
  H     -5.161610    6.304860   89.262400
  H     -4.104420    7.242830   90.266100
  C     -3.204990    5.672220   89.098700
  H     -3.288580    4.991370   88.151400
  H     -2.277690    6.038480   89.106900
  C     -3.341860    4.619330   90.229100
  H     -4.367290    4.266670   90.212900
  H     -2.556360    3.937110   90.270300
  H     -3.297470    5.056270   91.278100
  S     -5.961360   11.334700   85.179100
  C     -6.890480   11.157500   83.681800
  C     -6.683780    9.903510   83.219000
  C     -5.920960    9.003130   84.057600
  C     -5.421360    9.621810   85.202600
  H     -7.327380    9.600760   82.377400
  C     -5.625880    7.594140   83.520100
  H     -6.518450    6.886830   83.505000
  H     -4.874840    7.101990   84.183100
  C     -4.917800    7.772500   82.166400
  H     -5.407660    8.389120   81.346700
  H     -4.807310    6.746340   81.988000
  C     -3.448680    8.295350   82.345400
  H     -2.945050    8.249330   81.428200
  H     -2.871780    7.756490   83.107900
  H     -3.661790    9.341590   82.487500
  H     -2.950730    9.357570   89.282300
  H     -7.523220   11.918100   83.207300

 Total Charge           Charge          ....    0
 Multiplicity           Mult            ....    1
 Number of Electrons    NEL             ....  134
 Basis Dimension        Dim             ....  322

ORBITAL ENERGIES
----------------

  NO   OCC          E(Eh)            E(eV)
   0   2.0000     -88.963747     -2420.8266
   1   2.0000     -88.958069     -2420.6721
   2   2.0000     -10.329059      -281.0680
   3   2.0000     -10.322007      -280.8761
   4   2.0000     -10.319487      -280.8075
   5   2.0000     -10.307620      -280.4846
   6   2.0000     -10.306290      -280.4484
   7   2.0000     -10.303285      -280.3666
   8   2.0000     -10.302234      -280.3381
   9   2.0000     -10.296782      -280.1897
  10   2.0000     -10.293438      -280.0987
  11   2.0000     -10.292387      -280.0701
  12   2.0000     -10.285471      -279.8819
  13   2.0000     -10.284127      -279.8453
  14   2.0000     -10.278072      -279.6806
  15   2.0000     -10.268262      -279.4136
  16   2.0000      -8.080266      -219.8752
  17   2.0000      -8.072331      -219.6593
  18   2.0000      -6.038491      -164.3157
  19   2.0000      -6.034648      -164.2111
  20   2.0000      -6.031074      -164.1139
  21   2.0000      -6.031028      -164.1126
  22   2.0000      -6.026918      -164.0008
  23   2.0000      -6.022875      -163.8908
  24   2.0000      -1.014386       -27.6028
  25   2.0000      -0.982937       -26.7471
  26   2.0000      -0.923071       -25.1180
  27   2.0000      -0.908331       -24.7169
  28   2.0000      -0.876936       -23.8626
  29   2.0000      -0.851704       -23.1761
  30   2.0000      -0.835025       -22.7222
  31   2.0000      -0.815574       -22.1929
  32   2.0000      -0.784820       -21.3560
  33   2.0000      -0.774544       -21.0764
  34   2.0000      -0.709630       -19.3100
  35   2.0000      -0.703645       -19.1472
  36   2.0000      -0.688676       -18.7398
  37   2.0000      -0.658094       -17.9076
  38   2.0000      -0.642379       -17.4800
  39   2.0000      -0.618131       -16.8202
  40   2.0000      -0.603216       -16.4143
  41   2.0000      -0.582545       -15.8518
  42   2.0000      -0.557952       -15.1826
  43   2.0000      -0.548941       -14.9375
  44   2.0000      -0.543642       -14.7932
  45   2.0000      -0.533179       -14.5085
  46   2.0000      -0.522723       -14.2240
  47   2.0000      -0.510166       -13.8823
  48   2.0000      -0.502793       -13.6817
  49   2.0000      -0.497631       -13.5412
  50   2.0000      -0.493084       -13.4175
  51   2.0000      -0.476768       -12.9735
  52   2.0000      -0.471261       -12.8237
  53   2.0000      -0.464434       -12.6379
  54   2.0000      -0.456185       -12.4134
  55   2.0000      -0.451379       -12.2827
  56   2.0000      -0.443058       -12.0562
  57   2.0000      -0.440757       -11.9936
  58   2.0000      -0.434465       -11.8224
  59   2.0000      -0.424185       -11.5427
  60   2.0000      -0.416538       -11.3346
  61   2.0000      -0.413795       -11.2599
  62   2.0000      -0.392218       -10.6728
  63   2.0000      -0.355892        -9.6843
  64   2.0000      -0.334611        -9.1052
  65   2.0000      -0.324437        -8.8284
  66   2.0000      -0.290746        -7.9116
  67   0.0000       0.027715         0.7542
  68   0.0000       0.077998         2.1224
  69   0.0000       0.109593         2.9822
  70   0.0000       0.119270         3.2455
  71   0.0000       0.132340         3.6012

MULLIKEN ATOMIC CHARGES
-----------------------
   0 S :    0.109927
   1 C :   -0.124040
   2 C :   -0.060304
   3 C :   -0.009883
   4 C :   -0.135684
   5 H :    0.027841
   6 C :    0.079643
   7 H :    0.010008
   8 H :    0.030153
   9 C :   -0.039508
  10 H :    0.044033
  11 H :   -0.004079
  12 C :   -0.039348
  13 H :    0.026471
  14 H :    0.028579
  15 H :    0.014086
  16 S :    0.063456
  17 C :   -0.094487
  18 C :   -0.047409
  19 C :   -0.056795
  20 C :   -0.119951
  21 H :    0.034031
  22 C :    0.030695
  23 H :    0.053852
  24 H :    0.024302
  25 C :   -0.097377
  26 H :    0.056772
  27 H :    0.013032
  28 C :   -0.032890
  29 H :    0.021423
  30 H :    0.043237
  31 H :    0.039757
  32 H :    0.040112
  33 H :    0.070346
Sum of atomic charges:    0.0000000

LOEWDIN ATOMIC CHARGES
----------------------
   0 S :    0.429265
   1 C :   -0.186286
   2 C :   -0.055405
   3 C :   -0.070757
   4 C :   -0.216937
   5 H :    0.039187
   6 C :   -0.027612
   7 H :    0.028146
   8 H :    0.038655
   9 C :   -0.032007
  10 H :    0.038915
  11 H :    0.002904
  12 C :   -0.063816
  13 H :    0.024024
  14 H :    0.017127
  15 H :    0.026037
  16 S :    0.360647
  17 C :   -0.175887
  18 C :   -0.083946
  19 C :   -0.061007
  20 C :   -0.179576
  21 H :    0.035374
  22 C :   -0.036008
  23 H :    0.036888
  24 H :    0.031714
  25 C :   -0.040225
  26 H :    0.033798
  27 H :    0.014361
  28 C :   -0.057865
  29 H :    0.017627
  30 H :    0.028606
  31 H :    0.028228
  32 H :    0.015800
  33 H :    0.040032

  Mayer bond orders larger than 0.100000
B(  0-S ,  1-C ) :   1.1309 B(  0-S ,  4-C ) :   1.1689 B(  1-C ,  2-C ) :   1.6217
B(  1-C , 32-H ) :   0.9716 B(  2-C ,  3-C ) :   1.2350 B(  2-C ,  6-C ) :   1.0164
B(  3-C ,  4-C ) :   1.5745 B(  3-C ,  5-H ) :   0.9874 B(  4-C , 20-C ) :   1.0533
B(  6-C ,  7-H ) :   0.9349 B(  6-C ,  8-H ) :   0.9393 B(  6-C ,  9-C ) :   1.0699
B(  9-C , 10-H ) :   0.9537 B(  9-C , 11-H ) :   0.9518 B(  9-C , 12-C ) :   1.0803
B( 12-C , 13-H ) :   0.9747 B( 12-C , 14-H ) :   0.9753 B( 12-C , 15-H ) :   0.9710
B( 16-S , 17-C ) :   1.1294 B( 16-S , 20-C ) :   1.1136 B( 17-C , 18-C ) :   1.6516
B( 17-C , 33-H ) :   0.9656 B( 18-C , 19-C ) :   1.2076 B( 18-C , 21-H ) :   0.9764
B( 19-C , 20-C ) :   1.6184 B( 19-C , 22-C ) :   1.0369 B( 22-C , 23-H ) :   0.9404
B( 22-C , 24-H ) :   0.9374 B( 22-C , 25-C ) :   1.0524 B( 25-C , 26-H ) :   0.9568
B( 25-C , 27-H ) :   0.9538 B( 25-C , 28-C ) :   1.0724 B( 28-C , 29-H ) :   0.9744
B( 28-C , 30-H ) :   0.9731 B( 28-C , 31-H ) :   0.9772

Dispersion correction           -0.014035009
FINAL SINGLE POINT ENERGY     -1339.847939898971

DIPOLE MOMENT
-------------
                                X             Y             Z
Electronic contribution:     -5.79862      25.26607      -0.33396
Nuclear contribution   :      5.64259     -25.88849       0.28560
                        -----------------------------------------
Total Dipole Moment    :     -0.15603      -0.62242      -0.04836
                        -----------------------------------------
Magnitude (a.u.)       :      0.64350
Magnitude (Debye)      :      1.63564

Rotational constants in cm-1:     0.021896     0.007673     0.006457
Rotational constants in MHz :   656.427982   230.028446   193.590539

                             ****ORCA TERMINATED NORMALLY****
TOTAL RUN TIME: 0 days 0 hours 0 minutes 34 seconds 232 msec
