                         Program Version 4.2.1 -  RELEASE  -
|  1> ! wB97X-D3 SP def2-SVP
|  2> %pal
|  3> nprocs 16
|  4> end
|  5>
|  6> * xyz 0 1
|  7> S 	 -4.53408 	 -8.59402 	 82.5762
|  8> C 	 -4.55078 	 -10.279 	 82.6528
|  9> C 	 -4.18895 	 -10.7213 	 83.9086
| 10> C 	 -4.08289 	 -9.65281 	 84.8454
| 11> C 	 -4.21496 	 -8.39371 	 84.2582
| 12> H 	 -3.92855 	 -9.74356 	 85.9295
| 13> C 	 -3.78272 	 -12.1206 	 84.3439
| 14> H 	 -4.58524 	 -12.8717 	 84.0987
| 15> H 	 -3.76286 	 -12.1993 	 85.4308
| 16> C 	 -2.32675 	 -12.5385 	 83.9755
| 17> H 	 -2.10142 	 -13.4052 	 84.6003
| 18> H 	 -2.22326 	 -12.8651 	 82.961
| 19> C 	 -1.16407 	 -11.6306 	 84.2886
| 20> H 	 -0.206208 	 -12.2131 	 83.937
| 21> H 	 -1.15913 	 -10.6957 	 83.7286
| 22> H 	 -1.14997 	 -11.3536 	 85.3589
| 23> S 	 -5.69892 	 -6.11848 	 84.2745
| 24> C 	 -5.47511 	 -4.92255 	 85.4763
| 25> C 	 -4.54785 	 -5.36451 	 86.4589
| 26> C 	 -3.9586 	 -6.64379 	 86.173
| 27> C 	 -4.35927 	 -7.09524 	 84.9308
| 28> H 	 -4.34607 	 -4.77005 	 87.3591
| 29> C 	 -2.99439 	 -7.3349 	 87.1095
| 30> H 	 -2.34861 	 -6.53338 	 87.459
| 31> H 	 -2.28619 	 -8.05356 	 86.6396
| 32> C 	 -3.62827 	 -8.05218 	 88.2841
| 33> H 	 -4.43465 	 -8.76024 	 87.9197
| 34> H 	 -4.22045 	 -7.39594 	 88.8943
| 35> C 	 -2.6453 	 -8.79603 	 89.2501
| 36> H 	 -1.85046 	 -9.42886 	 88.7545
| 37> H 	 -3.19223 	 -9.35088 	 89.8876
| 38> H 	 -2.06519 	 -8.06171 	 89.8781
| 39> H 	 -4.68192 	 -10.9035 	 81.8513
| 40> H 	 -6.02282 	 -3.99072 	 85.4217
| 41> *
| 42>
| 43>                          ****END OF INPUT****

CARTESIAN COORDINATES (ANGSTROEM)
---------------------------------
  S     -4.534080   -8.594020   82.576200
  C     -4.550780  -10.279000   82.652800
  C     -4.188950  -10.721300   83.908600
  C     -4.082890   -9.652810   84.845400
  C     -4.214960   -8.393710   84.258200
  H     -3.928550   -9.743560   85.929500
  C     -3.782720  -12.120600   84.343900
  H     -4.585240  -12.871700   84.098700
  H     -3.762860  -12.199300   85.430800
  C     -2.326750  -12.538500   83.975500
  H     -2.101420  -13.405200   84.600300
  H     -2.223260  -12.865100   82.961000
  C     -1.164070  -11.630600   84.288600
  H     -0.206208  -12.213100   83.937000
  H     -1.159130  -10.695700   83.728600
  H     -1.149970  -11.353600   85.358900
  S     -5.698920   -6.118480   84.274500
  C     -5.475110   -4.922550   85.476300
  C     -4.547850   -5.364510   86.458900
  C     -3.958600   -6.643790   86.173000
  C     -4.359270   -7.095240   84.930800
  H     -4.346070   -4.770050   87.359100
  C     -2.994390   -7.334900   87.109500
  H     -2.348610   -6.533380   87.459000
  H     -2.286190   -8.053560   86.639600
  C     -3.628270   -8.052180   88.284100
  H     -4.434650   -8.760240   87.919700
  H     -4.220450   -7.395940   88.894300
  C     -2.645300   -8.796030   89.250100
  H     -1.850460   -9.428860   88.754500
  H     -3.192230   -9.350880   89.887600
  H     -2.065190   -8.061710   89.878100
  H     -4.681920  -10.903500   81.851300
  H     -6.022820   -3.990720   85.421700

 Total Charge           Charge          ....    0
 Multiplicity           Mult            ....    1
 Number of Electrons    NEL             ....  134
 Basis Dimension        Dim             ....  322

ORBITAL ENERGIES
----------------

  NO   OCC          E(Eh)            E(eV)
   0   2.0000     -88.966061     -2420.8896
   1   2.0000     -88.963646     -2420.8239
   2   2.0000     -10.328131      -281.0427
   3   2.0000     -10.326491      -280.9981
   4   2.0000     -10.319949      -280.8201
   5   2.0000     -10.306693      -280.4594
   6   2.0000     -10.304287      -280.3939
   7   2.0000     -10.301329      -280.3134
   8   2.0000     -10.298576      -280.2385
   9   2.0000     -10.296699      -280.1874
  10   2.0000     -10.296049      -280.1697
  11   2.0000     -10.293838      -280.1096
  12   2.0000     -10.292267      -280.0668
  13   2.0000     -10.284190      -279.8470
  14   2.0000     -10.283772      -279.8357
  15   2.0000     -10.283671      -279.8329
  16   2.0000      -8.082223      -219.9285
  17   2.0000      -8.078864      -219.8371
  18   2.0000      -6.040541      -164.3715
  19   2.0000      -6.037271      -164.2825
  20   2.0000      -6.036419      -164.2593
  21   2.0000      -6.033281      -164.1739
  22   2.0000      -6.033214      -164.1721
  23   2.0000      -6.029703      -164.0766
  24   2.0000      -1.012158       -27.5422
  25   2.0000      -0.987350       -26.8672
  26   2.0000      -0.912101       -24.8195
  27   2.0000      -0.908087       -24.7103
  28   2.0000      -0.867967       -23.6186
  29   2.0000      -0.855330       -23.2747
  30   2.0000      -0.847172       -23.0527
  31   2.0000      -0.808188       -21.9919
  32   2.0000      -0.787326       -21.4242
  33   2.0000      -0.775554       -21.1039
  34   2.0000      -0.705714       -19.2035
  35   2.0000      -0.697732       -18.9862
  36   2.0000      -0.690818       -18.7981
  37   2.0000      -0.667059       -18.1516
  38   2.0000      -0.643401       -17.5078
  39   2.0000      -0.614440       -16.7198
  40   2.0000      -0.599288       -16.3075
  41   2.0000      -0.573382       -15.6025
  42   2.0000      -0.559724       -15.2309
  43   2.0000      -0.548244       -14.9185
  44   2.0000      -0.542604       -14.7650
  45   2.0000      -0.531216       -14.4551
  46   2.0000      -0.518770       -14.1165
  47   2.0000      -0.509627       -13.8677
  48   2.0000      -0.505162       -13.7461
  49   2.0000      -0.497810       -13.5461
  50   2.0000      -0.491573       -13.3764
  51   2.0000      -0.477323       -12.9886
  52   2.0000      -0.471441       -12.8285
  53   2.0000      -0.469241       -12.7687
  54   2.0000      -0.457787       -12.4570
  55   2.0000      -0.453255       -12.3337
  56   2.0000      -0.446155       -12.1405
  57   2.0000      -0.440476       -11.9860
  58   2.0000      -0.435486       -11.8502
  59   2.0000      -0.425863       -11.5883
  60   2.0000      -0.413997       -11.2654
  61   2.0000      -0.411430       -11.1956
  62   2.0000      -0.410811       -11.1787
  63   2.0000      -0.354379        -9.6432
  64   2.0000      -0.331243        -9.0136
  65   2.0000      -0.328351        -8.9349
  66   2.0000      -0.285518        -7.7693
  67   0.0000       0.025043         0.6815
  68   0.0000       0.078531         2.1369
  69   0.0000       0.106255         2.8914
  70   0.0000       0.119603         3.2546
  71   0.0000       0.121550         3.3075

MULLIKEN ATOMIC CHARGES
-----------------------
   0 S :    0.117314
   1 C :   -0.076549
   2 C :   -0.087220
   3 C :    0.004389
   4 C :   -0.142059
   5 H :    0.005722
   6 C :    0.056554
   7 H :    0.040972
   8 H :    0.011862
   9 C :   -0.059875
  10 H :    0.025733
  11 H :    0.023950
  12 C :   -0.085656
  13 H :    0.048838
  14 H :    0.043449
  15 H :    0.031360
  16 S :    0.096061
  17 C :   -0.097833
  18 C :   -0.039381
  19 C :   -0.042060
  20 C :   -0.110814
  21 H :    0.025431
  22 C :    0.056655
  23 H :    0.023574
  24 H :    0.032605
  25 C :   -0.098799
  26 H :    0.036471
  27 H :    0.016791
  28 C :   -0.021465
  29 H :    0.036964
  30 H :    0.015192
  31 H :    0.034008
  32 H :    0.012304
  33 H :    0.065510
Sum of atomic charges:    0.0000000

LOEWDIN ATOMIC CHARGES
----------------------
   0 S :    0.445989
   1 C :   -0.202771
   2 C :   -0.066773
   3 C :   -0.067521
   4 C :   -0.207793
   5 H :    0.031179
   6 C :   -0.038928
   7 H :    0.038554
   8 H :    0.028025
   9 C :   -0.044291
  10 H :    0.026929
  11 H :    0.017516
  12 C :   -0.071219
  13 H :    0.042467
  14 H :    0.022995
  15 H :    0.023064
  16 S :    0.410125
  17 C :   -0.196637
  18 C :   -0.072502
  19 C :   -0.056331
  20 C :   -0.182625
  21 H :    0.032621
  22 C :   -0.037403
  23 H :    0.032562
  24 H :    0.034349
  25 C :   -0.043853
  26 H :    0.027675
  27 H :    0.020974
  28 C :   -0.059007
  29 H :    0.029898
  30 H :    0.009968
  31 H :    0.031443
  32 H :    0.012458
  33 H :    0.028864

  Mayer bond orders larger than 0.100000
B(  0-S ,  1-C ) :   1.1603 B(  0-S ,  4-C ) :   1.1746 B(  1-C ,  2-C ) :   1.5674
B(  1-C , 32-H ) :   0.9841 B(  2-C ,  3-C ) :   1.2803 B(  2-C ,  6-C ) :   1.0285
B(  3-C ,  4-C ) :   1.5290 B(  3-C ,  5-H ) :   0.9861 B(  4-C , 20-C ) :   1.0368
B(  6-C ,  7-H ) :   0.9410 B(  6-C ,  8-H ) :   0.9416 B(  6-C ,  9-C ) :   1.0595
B(  9-C , 10-H ) :   0.9579 B(  9-C , 11-H ) :   0.9581 B(  9-C , 12-C ) :   1.0832
B( 12-C , 13-H ) :   0.9705 B( 12-C , 14-H ) :   0.9712 B( 12-C , 15-H ) :   0.9735
B( 16-S , 17-C ) :   1.1760 B( 16-S , 20-C ) :   1.1439 B( 17-C , 18-C ) :   1.5630
B( 17-C , 20-C ) :   0.1015 B( 17-C , 33-H ) :   0.9727 B( 18-C , 19-C ) :   1.2505
B( 18-C , 21-H ) :   0.9893 B( 19-C , 20-C ) :   1.6016 B( 19-C , 22-C ) :   1.0381
B( 22-C , 23-H ) :   0.9293 B( 22-C , 24-H ) :   0.9415 B( 22-C , 25-C ) :   1.0604
B( 25-C , 26-H ) :   0.9523 B( 25-C , 27-H ) :   0.9478 B( 25-C , 28-C ) :   1.0776
B( 28-C , 29-H ) :   0.9760 B( 28-C , 30-H ) :   0.9741 B( 28-C , 31-H ) :   0.9742

Dispersion correction           -0.014820715
FINAL SINGLE POINT ENERGY     -1339.876976642934

DIPOLE MOMENT
-------------
                                X             Y             Z
Electronic contribution:    -16.57711      18.06817     -19.00416
Nuclear contribution   :     16.75822     -18.38266      19.57335
                        -----------------------------------------
Total Dipole Moment    :      0.18110      -0.31449       0.56919
                        -----------------------------------------
Magnitude (a.u.)       :      0.67505
Magnitude (Debye)      :      1.71583

Rotational constants in cm-1:     0.017160     0.010352     0.006948
Rotational constants in MHz :   514.431290   310.335866   208.286234

                             ****ORCA TERMINATED NORMALLY****
TOTAL RUN TIME: 0 days 0 hours 0 minutes 35 seconds 192 msec
