                         Program Version 4.2.1 -  RELEASE  -
|  1> ! wB97X-D3 SP def2-SVP
|  2> %pal
|  3> nprocs 16
|  4> end
|  5>
|  6> * xyz 0 1
|  7> S 	 46.9009 	 24.0197 	 45.8293
|  8> C 	 48.5335 	 23.5145 	 45.3857
|  9> C 	 49.5008 	 24.3319 	 45.9018
| 10> C 	 48.9165 	 25.503 	 46.4905
| 11> C 	 47.5436 	 25.4648 	 46.554
| 12> H 	 49.4925 	 26.3352 	 47.0176
| 13> C 	 51.0365 	 24.1133 	 45.8154
| 14> H 	 51.264 	 23.2937 	 45.1664
| 15> H 	 51.3452 	 23.7681 	 46.7987
| 16> C 	 51.9133 	 25.3108 	 45.4878
| 17> H 	 51.5599 	 25.7685 	 44.5849
| 18> H 	 51.7619 	 26.0987 	 46.2551
| 19> C 	 53.3852 	 24.9009 	 45.389
| 20> H 	 53.5405 	 24.1288 	 44.5921
| 21> H 	 54.0765 	 25.7249 	 45.2049
| 22> H 	 53.6977 	 24.6638 	 46.3942
| 23> S 	 45.7266 	 27.6021 	 46.2937
| 24> C 	 44.7342 	 28.0042 	 47.6767
| 25> C 	 45.174 	 27.343 	 48.7894
| 26> C 	 46.2597 	 26.4871 	 48.5546
| 27> C 	 46.5985 	 26.3796 	 47.1963
| 28> H 	 44.7348 	 27.6533 	 49.6847
| 29> C 	 47.0387 	 25.8132 	 49.6572
| 30> H 	 46.976 	 26.4146 	 50.5849
| 31> H 	 48.059 	 25.9497 	 49.3885
| 32> C 	 46.7208 	 24.3034 	 49.7237
| 33> H 	 46.8853 	 23.8487 	 48.773
| 34> H 	 45.6232 	 24.2658 	 49.8157
| 35> C 	 47.5925 	 23.5257 	 50.7624
| 36> H 	 47.5554 	 22.4814 	 50.4354
| 37> H 	 47.1913 	 23.6502 	 51.8522
| 38> H 	 48.6709 	 23.7971 	 50.6751
| 39> H 	 48.7532 	 22.5925 	 44.8049
| 40> H 	 43.9614 	 28.7478 	 47.6576
| 41> *
| 42>
| 43>                          ****END OF INPUT****

CARTESIAN COORDINATES (ANGSTROEM)
---------------------------------
  S     46.900900   24.019700   45.829300
  C     48.533500   23.514500   45.385700
  C     49.500800   24.331900   45.901800
  C     48.916500   25.503000   46.490500
  C     47.543600   25.464800   46.554000
  H     49.492500   26.335200   47.017600
  C     51.036500   24.113300   45.815400
  H     51.264000   23.293700   45.166400
  H     51.345200   23.768100   46.798700
  C     51.913300   25.310800   45.487800
  H     51.559900   25.768500   44.584900
  H     51.761900   26.098700   46.255100
  C     53.385200   24.900900   45.389000
  H     53.540500   24.128800   44.592100
  H     54.076500   25.724900   45.204900
  H     53.697700   24.663800   46.394200
  S     45.726600   27.602100   46.293700
  C     44.734200   28.004200   47.676700
  C     45.174000   27.343000   48.789400
  C     46.259700   26.487100   48.554600
  C     46.598500   26.379600   47.196300
  H     44.734800   27.653300   49.684700
  C     47.038700   25.813200   49.657200
  H     46.976000   26.414600   50.584900
  H     48.059000   25.949700   49.388500
  C     46.720800   24.303400   49.723700
  H     46.885300   23.848700   48.773000
  H     45.623200   24.265800   49.815700
  C     47.592500   23.525700   50.762400
  H     47.555400   22.481400   50.435400
  H     47.191300   23.650200   51.852200
  H     48.670900   23.797100   50.675100
  H     48.753200   22.592500   44.804900
  H     43.961400   28.747800   47.657600

 Total Charge           Charge          ....    0
 Multiplicity           Mult            ....    1
 Number of Electrons    NEL             ....  134
 Basis Dimension        Dim             ....  322

ORBITAL ENERGIES
----------------

  NO   OCC          E(Eh)            E(eV)
   0   2.0000     -88.966654     -2420.9057
   1   2.0000     -88.963299     -2420.8144
   2   2.0000     -10.328787      -281.0606
   3   2.0000     -10.322856      -280.8992
   4   2.0000     -10.317197      -280.7452
   5   2.0000     -10.313478      -280.6440
   6   2.0000     -10.304794      -280.4077
   7   2.0000     -10.301346      -280.3139
   8   2.0000     -10.299177      -280.2549
   9   2.0000     -10.293776      -280.1079
  10   2.0000     -10.287860      -279.9469
  11   2.0000     -10.287306      -279.9318
  12   2.0000     -10.284376      -279.8521
  13   2.0000     -10.284192      -279.8471
  14   2.0000     -10.283770      -279.8356
  15   2.0000     -10.281393      -279.7709
  16   2.0000      -8.081046      -219.8964
  17   2.0000      -8.077973      -219.8128
  18   2.0000      -6.039528      -164.3439
  19   2.0000      -6.036359      -164.2577
  20   2.0000      -6.035623      -164.2377
  21   2.0000      -6.032411      -164.1502
  22   2.0000      -6.031796      -164.1335
  23   2.0000      -6.028952      -164.0561
  24   2.0000      -1.006789       -27.3961
  25   2.0000      -0.985542       -26.8180
  26   2.0000      -0.914294       -24.8792
  27   2.0000      -0.902725       -24.5644
  28   2.0000      -0.870443       -23.6860
  29   2.0000      -0.845939       -23.0192
  30   2.0000      -0.843236       -22.9456
  31   2.0000      -0.814738       -22.1702
  32   2.0000      -0.784194       -21.3390
  33   2.0000      -0.767196       -20.8765
  34   2.0000      -0.710900       -19.3446
  35   2.0000      -0.696646       -18.9567
  36   2.0000      -0.689933       -18.7740
  37   2.0000      -0.658615       -17.9218
  38   2.0000      -0.641664       -17.4606
  39   2.0000      -0.619755       -16.8644
  40   2.0000      -0.594095       -16.1662
  41   2.0000      -0.573856       -15.6154
  42   2.0000      -0.569768       -15.5042
  43   2.0000      -0.554810       -15.0971
  44   2.0000      -0.523856       -14.2548
  45   2.0000      -0.519232       -14.1290
  46   2.0000      -0.511409       -13.9161
  47   2.0000      -0.506029       -13.7697
  48   2.0000      -0.504653       -13.7323
  49   2.0000      -0.496292       -13.5048
  50   2.0000      -0.491492       -13.3742
  51   2.0000      -0.478083       -13.0093
  52   2.0000      -0.470008       -12.7896
  53   2.0000      -0.468956       -12.7609
  54   2.0000      -0.459360       -12.4998
  55   2.0000      -0.454198       -12.3594
  56   2.0000      -0.439657       -11.9637
  57   2.0000      -0.431562       -11.7434
  58   2.0000      -0.430858       -11.7242
  59   2.0000      -0.427618       -11.6361
  60   2.0000      -0.423053       -11.5118
  61   2.0000      -0.420460       -11.4413
  62   2.0000      -0.409415       -11.1408
  63   2.0000      -0.336602        -9.1594
  64   2.0000      -0.330096        -8.9824
  65   2.0000      -0.320241        -8.7142
  66   2.0000      -0.308379        -8.3914
  67   0.0000       0.041862         1.1391
  68   0.0000       0.055361         1.5065
  69   0.0000       0.114308         3.1105
  70   0.0000       0.118772         3.2319
  71   0.0000       0.132989         3.6188

MULLIKEN ATOMIC CHARGES
-----------------------
   0 S :    0.118718
   1 C :   -0.145046
   2 C :   -0.075240
   3 C :    0.029571
   4 C :   -0.190499
   5 H :    0.042774
   6 C :    0.090002
   7 H :    0.005680
   8 H :    0.025905
   9 C :   -0.089917
  10 H :    0.027992
  11 H :    0.029949
  12 C :   -0.041144
  13 H :    0.049008
  14 H :    0.029734
  15 H :    0.022898
  16 S :    0.115199
  17 C :   -0.095772
  18 C :   -0.013722
  19 C :   -0.029693
  20 C :   -0.188107
  21 H :   -0.006306
  22 C :    0.119144
  23 H :    0.022455
  24 H :   -0.003991
  25 C :   -0.078490
  26 H :    0.024142
  27 H :    0.028185
  28 C :   -0.060342
  29 H :    0.037147
  30 H :    0.054635
  31 H :    0.037223
  32 H :    0.057692
  33 H :    0.050214
Sum of atomic charges:    0.0000000

LOEWDIN ATOMIC CHARGES
----------------------
   0 S :    0.411540
   1 C :   -0.196324
   2 C :   -0.064297
   3 C :   -0.068024
   4 C :   -0.197660
   5 H :    0.043959
   6 C :   -0.026119
   7 H :    0.023633
   8 H :    0.031906
   9 C :   -0.043266
  10 H :    0.019710
  11 H :    0.024683
  12 C :   -0.066220
  13 H :    0.033268
  14 H :    0.028113
  15 H :    0.025144
  16 S :    0.410361
  17 C :   -0.176591
  18 C :   -0.072269
  19 C :   -0.048183
  20 C :   -0.217839
  21 H :    0.024275
  22 C :   -0.032800
  23 H :    0.031636
  24 H :    0.021642
  25 C :   -0.040232
  26 H :    0.015746
  27 H :    0.026443
  28 C :   -0.075637
  29 H :    0.027728
  30 H :    0.036190
  31 H :    0.029056
  32 H :    0.034576
  33 H :    0.025852

  Mayer bond orders larger than 0.100000
B(  0-S ,  1-C ) :   1.1298 B(  0-S ,  4-C ) :   1.1562 B(  1-C ,  2-C ) :   1.6472
B(  1-C , 32-H ) :   0.9612 B(  2-C ,  3-C ) :   1.2169 B(  2-C ,  6-C ) :   1.0114
B(  3-C ,  4-C ) :   1.6225 B(  3-C ,  5-H ) :   0.9762 B(  4-C , 20-C ) :   1.0065
B(  6-C ,  7-H ) :   0.9451 B(  6-C ,  8-H ) :   0.9310 B(  6-C ,  9-C ) :   1.0613
B(  9-C , 10-H ) :   0.9605 B(  9-C , 11-H ) :   0.9470 B(  9-C , 12-C ) :   1.0872
B( 12-C , 13-H ) :   0.9745 B( 12-C , 14-H ) :   0.9715 B( 12-C , 15-H ) :   0.9720
B( 16-S , 17-C ) :   1.1703 B( 16-S , 20-C ) :   1.1570 B( 17-C , 18-C ) :   1.5826
B( 17-C , 20-C ) :   0.1074 B( 17-C , 33-H ) :   0.9697 B( 18-C , 19-C ) :   1.2606
B( 18-C , 21-H ) :   1.0055 B( 19-C , 20-C ) :   1.5607 B( 19-C , 22-C ) :   1.0362
B( 22-C , 23-H ) :   0.9402 B( 22-C , 24-H ) :   0.9197 B( 22-C , 25-C ) :   1.0507
B( 25-C , 26-H ) :   0.9556 B( 25-C , 27-H ) :   0.9575 B( 25-C , 28-C ) :   1.0699
B( 28-C , 29-H ) :   0.9768 B( 28-C , 30-H ) :   0.9757 B( 28-C , 31-H ) :   0.9719

Dispersion correction           -0.014689771
FINAL SINGLE POINT ENERGY     -1339.882867387520

DIPOLE MOMENT
-------------
                                X             Y             Z
Electronic contribution:    -22.83725       8.27968     -11.33150
Nuclear contribution   :     23.39306      -8.28484      11.66482
                        -----------------------------------------
Total Dipole Moment    :      0.55581      -0.00516       0.33332
                        -----------------------------------------
Magnitude (a.u.)       :      0.64812
Magnitude (Debye)      :      1.64738

Rotational constants in cm-1:     0.018651     0.008173     0.007155
Rotational constants in MHz :   559.155987   245.024355   214.509563

                             ****ORCA TERMINATED NORMALLY****
TOTAL RUN TIME: 0 days 0 hours 0 minutes 34 seconds 655 msec
