                         Program Version 4.2.1 -  RELEASE  -
|  1> ! wB97X-D3 SP def2-SVP
|  2> %pal
|  3> nprocs 16
|  4> end
|  5>
|  6> * xyz 0 1
|  7> S 	 55.5116 	 5.68714 	 84.4603
|  8> C 	 56.618 	 4.3474 	 84.4499
|  9> C 	 55.9304 	 3.09808 	 84.2857
| 10> C 	 54.5238 	 3.28227 	 84.4246
| 11> C 	 54.1696 	 4.61522 	 84.5109
| 12> H 	 53.754 	 2.51546 	 84.4492
| 13> C 	 56.588 	 1.74132 	 84.1731
| 14> H 	 55.8799 	 1.05522 	 84.554
| 15> H 	 57.4078 	 1.64422 	 84.9223
| 16> C 	 57.0154 	 1.26054 	 82.7114
| 17> H 	 56.1297 	 1.02621 	 82.0841
| 18> H 	 57.5313 	 2.00505 	 82.0439
| 19> C 	 57.9773 	 -0.0416492 	 82.6993
| 20> H 	 57.5367 	 -0.834715 	 83.3092
| 21> H 	 57.8635 	 -0.469484 	 81.6667
| 22> H 	 58.9727 	 0.182409 	 83.0317
| 23> S 	 51.816 	 4.97168 	 83.3309
| 24> C 	 50.4473 	 5.35237 	 84.3305
| 25> C 	 50.7538 	 5.48201 	 85.6454
| 26> C 	 52.1535 	 5.30905 	 85.8704
| 27> C 	 52.8223 	 5.13158 	 84.715
| 28> H 	 49.9349 	 5.60521 	 86.3523
| 29> C 	 52.768 	 5.09084 	 87.2636
| 30> H 	 52.4839 	 5.89298 	 87.9332
| 31> H 	 53.86 	 5.20304 	 87.0673
| 32> C 	 52.4312 	 3.69962 	 87.9163
| 33> H 	 52.5027 	 2.86541 	 87.2123
| 34> H 	 51.4486 	 3.76914 	 88.3498
| 35> C 	 53.4107 	 3.43952 	 89.0142
| 36> H 	 54.2482 	 4.04845 	 89.0617
| 37> H 	 53.8402 	 2.41952 	 89.1689
| 38> H 	 52.7997 	 3.67636 	 89.8684
| 39> H 	 57.6523 	 4.37898 	 84.5742
| 40> H 	 49.4295 	 5.28274 	 83.9846
| 41> *
| 42>
| 43>                          ****END OF INPUT****

CARTESIAN COORDINATES (ANGSTROEM)
---------------------------------
  S     55.511600    5.687140   84.460300
  C     56.618000    4.347400   84.449900
  C     55.930400    3.098080   84.285700
  C     54.523800    3.282270   84.424600
  C     54.169600    4.615220   84.510900
  H     53.754000    2.515460   84.449200
  C     56.588000    1.741320   84.173100
  H     55.879900    1.055220   84.554000
  H     57.407800    1.644220   84.922300
  C     57.015400    1.260540   82.711400
  H     56.129700    1.026210   82.084100
  H     57.531300    2.005050   82.043900
  C     57.977300   -0.041649   82.699300
  H     57.536700   -0.834715   83.309200
  H     57.863500   -0.469484   81.666700
  H     58.972700    0.182409   83.031700
  S     51.816000    4.971680   83.330900
  C     50.447300    5.352370   84.330500
  C     50.753800    5.482010   85.645400
  C     52.153500    5.309050   85.870400
  C     52.822300    5.131580   84.715000
  H     49.934900    5.605210   86.352300
  C     52.768000    5.090840   87.263600
  H     52.483900    5.892980   87.933200
  H     53.860000    5.203040   87.067300
  C     52.431200    3.699620   87.916300
  H     52.502700    2.865410   87.212300
  H     51.448600    3.769140   88.349800
  C     53.410700    3.439520   89.014200
  H     54.248200    4.048450   89.061700
  H     53.840200    2.419520   89.168900
  H     52.799700    3.676360   89.868400
  H     57.652300    4.378980   84.574200
  H     49.429500    5.282740   83.984600

 Total Charge           Charge          ....    0
 Multiplicity           Mult            ....    1
 Number of Electrons    NEL             ....  134
 Basis Dimension        Dim             ....  322

ORBITAL ENERGIES
----------------

  NO   OCC          E(Eh)            E(eV)
   0   2.0000     -88.969174     -2420.9743
   1   2.0000     -88.961249     -2420.7587
   2   2.0000     -10.320518      -280.8356
   3   2.0000     -10.312352      -280.6134
   4   2.0000     -10.310881      -280.5733
   5   2.0000     -10.309528      -280.5365
   6   2.0000     -10.304629      -280.4032
   7   2.0000     -10.300596      -280.2935
   8   2.0000     -10.297260      -280.2027
   9   2.0000     -10.297065      -280.1974
  10   2.0000     -10.293093      -280.0893
  11   2.0000     -10.292767      -280.0804
  12   2.0000     -10.288972      -279.9772
  13   2.0000     -10.285829      -279.8916
  14   2.0000     -10.284895      -279.8662
  15   2.0000     -10.265431      -279.3366
  16   2.0000      -8.083948      -219.9754
  17   2.0000      -8.077186      -219.7914
  18   2.0000      -6.042250      -164.4180
  19   2.0000      -6.038295      -164.3103
  20   2.0000      -6.035556      -164.2358
  21   2.0000      -6.035110      -164.2237
  22   2.0000      -6.031696      -164.1308
  23   2.0000      -6.027838      -164.0258
  24   2.0000      -1.013279       -27.5727
  25   2.0000      -0.986063       -26.8321
  26   2.0000      -0.908043       -24.7091
  27   2.0000      -0.898349       -24.4453
  28   2.0000      -0.866415       -23.5763
  29   2.0000      -0.854683       -23.2571
  30   2.0000      -0.846464       -23.0335
  31   2.0000      -0.811983       -22.0952
  32   2.0000      -0.779884       -21.2217
  33   2.0000      -0.767212       -20.8769
  34   2.0000      -0.701645       -19.0927
  35   2.0000      -0.701245       -19.0818
  36   2.0000      -0.694072       -18.8867
  37   2.0000      -0.661124       -17.9901
  38   2.0000      -0.644889       -17.5483
  39   2.0000      -0.613962       -16.7067
  40   2.0000      -0.592135       -16.1128
  41   2.0000      -0.572621       -15.5818
  42   2.0000      -0.563915       -15.3449
  43   2.0000      -0.549626       -14.9561
  44   2.0000      -0.527304       -14.3487
  45   2.0000      -0.520909       -14.1746
  46   2.0000      -0.515043       -14.0150
  47   2.0000      -0.510335       -13.8869
  48   2.0000      -0.504852       -13.7377
  49   2.0000      -0.498716       -13.5708
  50   2.0000      -0.485165       -13.2020
  51   2.0000      -0.480996       -13.0886
  52   2.0000      -0.472534       -12.8583
  53   2.0000      -0.464404       -12.6371
  54   2.0000      -0.457994       -12.4627
  55   2.0000      -0.444430       -12.0935
  56   2.0000      -0.443265       -12.0618
  57   2.0000      -0.438307       -11.9269
  58   2.0000      -0.433199       -11.7879
  59   2.0000      -0.422787       -11.5046
  60   2.0000      -0.421931       -11.4813
  61   2.0000      -0.415264       -11.2999
  62   2.0000      -0.409684       -11.1481
  63   2.0000      -0.338809        -9.2195
  64   2.0000      -0.330761        -9.0005
  65   2.0000      -0.319620        -8.6973
  66   2.0000      -0.304333        -8.2813
  67   0.0000       0.044381         1.2077
  68   0.0000       0.063447         1.7265
  69   0.0000       0.114774         3.1232
  70   0.0000       0.123306         3.3553
  71   0.0000       0.126870         3.4523

MULLIKEN ATOMIC CHARGES
-----------------------
   0 S :    0.139044
   1 C :   -0.094729
   2 C :   -0.098897
   3 C :    0.054851
   4 C :   -0.204147
   5 H :    0.013255
   6 C :    0.081899
   7 H :    0.007328
   8 H :    0.033578
   9 C :   -0.108164
  10 H :    0.033916
  11 H :    0.042573
  12 C :   -0.071976
  13 H :    0.028230
  14 H :    0.042495
  15 H :    0.048546
  16 S :    0.111802
  17 C :   -0.087233
  18 C :   -0.038320
  19 C :   -0.008039
  20 C :   -0.181804
  21 H :    0.019545
  22 C :    0.049439
  23 H :    0.027504
  24 H :    0.034231
  25 C :   -0.045398
  26 H :    0.032769
  27 H :    0.029632
  28 C :   -0.030914
  29 H :    0.015664
  30 H :    0.036481
  31 H :    0.016498
  32 H :    0.022829
  33 H :    0.047510
Sum of atomic charges:   -0.0000000

LOEWDIN ATOMIC CHARGES
----------------------
   0 S :    0.438616
   1 C :   -0.198619
   2 C :   -0.057218
   3 C :   -0.063267
   4 C :   -0.215413
   5 H :    0.032011
   6 C :   -0.036819
   7 H :    0.025490
   8 H :    0.035729
   9 C :   -0.043912
  10 H :    0.025847
  11 H :    0.028059
  12 C :   -0.069792
  13 H :    0.022139
  14 H :    0.035036
  15 H :    0.021583
  16 S :    0.421159
  17 C :   -0.181814
  18 C :   -0.073667
  19 C :   -0.053249
  20 C :   -0.220045
  21 H :    0.034203
  22 C :   -0.024695
  23 H :    0.028148
  24 H :    0.031418
  25 C :   -0.032223
  26 H :    0.025211
  27 H :    0.022265
  28 C :   -0.067995
  29 H :    0.014229
  30 H :    0.031703
  31 H :    0.027759
  32 H :    0.013487
  33 H :    0.024637

  Mayer bond orders larger than 0.100000
B(  0-S ,  1-C ) :   1.1617 B(  0-S ,  4-C ) :   1.1728 B(  1-C ,  2-C ) :   1.5642
B(  1-C ,  4-C ) :   0.1066 B(  1-C , 32-H ) :   0.9793 B(  2-C ,  3-C ) :   1.2630
B(  2-C ,  6-C ) :   1.0307 B(  3-C ,  4-C ) :   1.5704 B(  3-C ,  5-H ) :   0.9910
B(  4-C , 20-C ) :   0.9759 B(  6-C ,  7-H ) :   0.9354 B(  6-C ,  8-H ) :   0.9490
B(  6-C ,  9-C ) :   1.0321 B(  9-C , 10-H ) :   0.9606 B(  9-C , 11-H ) :   0.9667
B(  9-C , 12-C ) :   1.0660 B( 12-C , 13-H ) :   0.9777 B( 12-C , 14-H ) :   0.9765
B( 12-C , 15-H ) :   0.9805 B( 16-S , 17-C ) :   1.1537 B( 16-S , 20-C ) :   1.1476
B( 17-C , 18-C ) :   1.6439 B( 17-C , 33-H ) :   0.9655 B( 18-C , 19-C ) :   1.2053
B( 18-C , 21-H ) :   0.9947 B( 19-C , 20-C ) :   1.6515 B( 19-C , 22-C ) :   1.0442
B( 22-C , 23-H ) :   0.9337 B( 22-C , 24-H ) :   0.9335 B( 22-C , 25-C ) :   1.0607
B( 25-C , 26-H ) :   0.9605 B( 25-C , 27-H ) :   0.9657 B( 25-C , 28-C ) :   1.0613
B( 28-C , 29-H ) :   0.9777 B( 28-C , 30-H ) :   0.9773 B( 28-C , 31-H ) :   0.9796

Dispersion correction           -0.014417291
FINAL SINGLE POINT ENERGY     -1339.861604646062

DIPOLE MOMENT
-------------
                                X             Y             Z
Electronic contribution:    -10.05830      20.76296     -11.16340
Nuclear contribution   :      9.98385     -21.33983      11.58587
                        -----------------------------------------
Total Dipole Moment    :     -0.07444      -0.57687       0.42247
                        -----------------------------------------
Magnitude (a.u.)       :      0.71889
Magnitude (Debye)      :      1.82727

Rotational constants in cm-1:     0.018878     0.007961     0.006959
Rotational constants in MHz :   565.940242   238.671451   208.617066

                             ****ORCA TERMINATED NORMALLY****
TOTAL RUN TIME: 0 days 0 hours 0 minutes 30 seconds 95 msec
