                         Program Version 4.2.1 -  RELEASE  -
|  1> ! wB97X-D3 SP def2-SVP
|  2> %pal
|  3> nprocs 16
|  4> end
|  5>
|  6> * xyz 0 1
|  7> S 	 58.715 	 15.9971 	 57.9958
|  8> C 	 57.9019 	 17.411 	 58.4522
|  9> C 	 58.4869 	 18.0228 	 59.5493
| 10> C 	 59.4956 	 17.2269 	 60.0858
| 11> C 	 59.6571 	 15.9574 	 59.418
| 12> H 	 60.1921 	 17.4443 	 60.8923
| 13> C 	 58.0206 	 19.3357 	 60.0823
| 14> H 	 58.3265 	 19.9768 	 59.2098
| 15> H 	 58.6819 	 19.6156 	 60.912
| 16> C 	 56.5094 	 19.3892 	 60.2872
| 17> H 	 56.2442 	 20.4158 	 60.424
| 18> H 	 55.9766 	 19.2897 	 59.4207
| 19> C 	 55.9337 	 18.5668 	 61.3557
| 20> H 	 56.2823 	 18.8701 	 62.3646
| 21> H 	 54.8177 	 18.8452 	 61.3192
| 22> H 	 56.0624 	 17.5489 	 61.0844
| 23> S 	 60.1366 	 13.4329 	 60.4971
| 24> C 	 61.7198 	 12.8632 	 60.8073
| 25> C 	 62.5544 	 13.9799 	 60.8059
| 26> C 	 61.9932 	 15.0391 	 60.0319
| 27> C 	 60.6686 	 14.8957 	 59.7225
| 28> H 	 63.485 	 13.8404 	 61.3008
| 29> C 	 62.8141 	 16.2734 	 59.9212
| 30> H 	 63.5871 	 16.185 	 60.6006
| 31> H 	 62.2314 	 17.2232 	 60.1887
| 32> C 	 63.5333 	 16.5564 	 58.5554
| 33> H 	 64.2241 	 15.7244 	 58.462
| 34> H 	 64.2209 	 17.4531 	 58.5308
| 35> C 	 62.6607 	 16.4721 	 57.224
| 36> H 	 61.9713 	 17.2974 	 57.182
| 37> H 	 62.1453 	 15.53 	 57.241
| 38> H 	 63.2205 	 16.5355 	 56.2939
| 39> H 	 56.9575 	 17.7137 	 57.9099
| 40> H 	 61.9432 	 12.0303 	 61.3699
| 41> *
| 42>
| 43>                          ****END OF INPUT****

CARTESIAN COORDINATES (ANGSTROEM)
---------------------------------
  S     58.715000   15.997100   57.995800
  C     57.901900   17.411000   58.452200
  C     58.486900   18.022800   59.549300
  C     59.495600   17.226900   60.085800
  C     59.657100   15.957400   59.418000
  H     60.192100   17.444300   60.892300
  C     58.020600   19.335700   60.082300
  H     58.326500   19.976800   59.209800
  H     58.681900   19.615600   60.912000
  C     56.509400   19.389200   60.287200
  H     56.244200   20.415800   60.424000
  H     55.976600   19.289700   59.420700
  C     55.933700   18.566800   61.355700
  H     56.282300   18.870100   62.364600
  H     54.817700   18.845200   61.319200
  H     56.062400   17.548900   61.084400
  S     60.136600   13.432900   60.497100
  C     61.719800   12.863200   60.807300
  C     62.554400   13.979900   60.805900
  C     61.993200   15.039100   60.031900
  C     60.668600   14.895700   59.722500
  H     63.485000   13.840400   61.300800
  C     62.814100   16.273400   59.921200
  H     63.587100   16.185000   60.600600
  H     62.231400   17.223200   60.188700
  C     63.533300   16.556400   58.555400
  H     64.224100   15.724400   58.462000
  H     64.220900   17.453100   58.530800
  C     62.660700   16.472100   57.224000
  H     61.971300   17.297400   57.182000
  H     62.145300   15.530000   57.241000
  H     63.220500   16.535500   56.293900
  H     56.957500   17.713700   57.909900
  H     61.943200   12.030300   61.369900

 Total Charge           Charge          ....    0
 Multiplicity           Mult            ....    1
 Number of Electrons    NEL             ....  134
 Basis Dimension        Dim             ....  322

ORBITAL ENERGIES
----------------

  NO   OCC          E(Eh)            E(eV)
   0   2.0000     -88.967070     -2420.9170
   1   2.0000     -88.961447     -2420.7640
   2   2.0000     -10.330290      -281.1015
   3   2.0000     -10.325941      -280.9831
   4   2.0000     -10.310633      -280.5666
   5   2.0000     -10.310376      -280.5596
   6   2.0000     -10.301047      -280.3058
   7   2.0000     -10.296299      -280.1765
   8   2.0000     -10.295900      -280.1657
   9   2.0000     -10.293440      -280.0987
  10   2.0000     -10.293321      -280.0955
  11   2.0000     -10.288729      -279.9706
  12   2.0000     -10.287991      -279.9505
  13   2.0000     -10.277650      -279.6691
  14   2.0000     -10.273948      -279.5683
  15   2.0000     -10.268250      -279.4133
  16   2.0000      -8.083040      -219.9507
  17   2.0000      -8.077276      -219.7939
  18   2.0000      -6.041126      -164.3874
  19   2.0000      -6.037141      -164.2790
  20   2.0000      -6.035625      -164.2377
  21   2.0000      -6.034415      -164.2048
  22   2.0000      -6.031731      -164.1318
  23   2.0000      -6.027983      -164.0298
  24   2.0000      -1.014119       -27.5956
  25   2.0000      -0.996855       -27.1258
  26   2.0000      -0.923134       -25.1198
  27   2.0000      -0.902013       -24.5450
  28   2.0000      -0.870395       -23.6847
  29   2.0000      -0.856618       -23.3098
  30   2.0000      -0.840360       -22.8673
  31   2.0000      -0.813174       -22.1276
  32   2.0000      -0.784138       -21.3375
  33   2.0000      -0.774359       -21.0714
  34   2.0000      -0.709004       -19.2930
  35   2.0000      -0.700594       -19.0641
  36   2.0000      -0.688729       -18.7413
  37   2.0000      -0.665814       -18.1177
  38   2.0000      -0.642572       -17.4853
  39   2.0000      -0.610222       -16.6050
  40   2.0000      -0.588160       -16.0047
  41   2.0000      -0.583024       -15.8649
  42   2.0000      -0.560545       -15.2532
  43   2.0000      -0.550895       -14.9906
  44   2.0000      -0.544106       -14.8059
  45   2.0000      -0.537108       -14.6155
  46   2.0000      -0.522026       -14.2050
  47   2.0000      -0.510009       -13.8781
  48   2.0000      -0.501095       -13.6355
  49   2.0000      -0.496741       -13.5170
  50   2.0000      -0.488382       -13.2896
  51   2.0000      -0.482606       -13.1324
  52   2.0000      -0.474785       -12.9196
  53   2.0000      -0.468390       -12.7455
  54   2.0000      -0.459487       -12.5033
  55   2.0000      -0.439813       -11.9679
  56   2.0000      -0.438772       -11.9396
  57   2.0000      -0.435319       -11.8456
  58   2.0000      -0.431509       -11.7419
  59   2.0000      -0.428327       -11.6554
  60   2.0000      -0.414347       -11.2749
  61   2.0000      -0.411892       -11.2082
  62   2.0000      -0.406193       -11.0531
  63   2.0000      -0.331990        -9.0339
  64   2.0000      -0.329591        -8.9686
  65   2.0000      -0.322056        -8.7636
  66   2.0000      -0.302354        -8.2275
  67   0.0000       0.027405         0.7457
  68   0.0000       0.056550         1.5388
  69   0.0000       0.104864         2.8535
  70   0.0000       0.119510         3.2520
  71   0.0000       0.141208         3.8425

MULLIKEN ATOMIC CHARGES
-----------------------
   0 S :    0.147542
   1 C :   -0.173232
   2 C :   -0.098663
   3 C :    0.028990
   4 C :   -0.198453
   5 H :    0.015300
   6 C :    0.083931
   7 H :    0.045365
   8 H :    0.020438
   9 C :   -0.030112
  10 H :    0.000976
  11 H :   -0.010854
  12 C :   -0.027150
  13 H :    0.037729
  14 H :    0.035951
  15 H :    0.043294
  16 S :    0.104917
  17 C :   -0.057276
  18 C :   -0.059281
  19 C :   -0.062889
  20 C :   -0.105569
  21 H :    0.019811
  22 C :    0.098502
  23 H :   -0.000773
  24 H :    0.032033
  25 C :   -0.102346
  26 H :    0.013869
  27 H :    0.037547
  28 C :   -0.042806
  29 H :    0.028745
  30 H :    0.033624
  31 H :    0.030310
  32 H :    0.074563
  33 H :    0.035965
Sum of atomic charges:    0.0000000

LOEWDIN ATOMIC CHARGES
----------------------
   0 S :    0.470722
   1 C :   -0.233046
   2 C :   -0.075776
   3 C :   -0.062132
   4 C :   -0.221586
   5 H :    0.028938
   6 C :   -0.030950
   7 H :    0.046551
   8 H :    0.030119
   9 C :   -0.046753
  10 H :    0.023604
  11 H :    0.013911
  12 C :   -0.057841
  13 H :    0.028581
  14 H :    0.038842
  15 H :    0.023133
  16 S :    0.435436
  17 C :   -0.183180
  18 C :   -0.063076
  19 C :   -0.061760
  20 C :   -0.212567
  21 H :    0.028429
  22 C :   -0.029352
  23 H :    0.020327
  24 H :    0.033137
  25 C :   -0.041427
  26 H :    0.017297
  27 H :    0.027358
  28 C :   -0.065827
  29 H :    0.019212
  30 H :    0.021736
  31 H :    0.025764
  32 H :    0.037888
  33 H :    0.014288

  Mayer bond orders larger than 0.100000
B(  0-S ,  1-C ) :   1.1963 B(  0-S ,  4-C ) :   1.2128 B(  1-C ,  2-C ) :   1.5057
B(  1-C ,  4-C ) :   0.1182 B(  1-C , 32-H ) :   0.9643 B(  2-C ,  3-C ) :   1.3270
B(  2-C ,  6-C ) :   1.0009 B(  3-C ,  4-C ) :   1.4772 B(  3-C ,  5-H ) :   0.9946
B(  4-C , 20-C ) :   1.0114 B(  6-C ,  7-H ) :   0.9277 B(  6-C ,  8-H ) :   0.9479
B(  6-C ,  9-C ) :   1.0807 B(  9-C , 10-H ) :   0.9389 B(  9-C , 11-H ) :   0.9405
B(  9-C , 12-C ) :   1.0841 B( 12-C , 13-H ) :   0.9738 B( 12-C , 14-H ) :   0.9679
B( 12-C , 15-H ) :   0.9733 B( 16-S , 17-C ) :   1.1924 B( 16-S , 20-C ) :   1.1606
B( 17-C , 18-C ) :   1.5738 B( 17-C , 33-H ) :   0.9729 B( 18-C , 19-C ) :   1.2691
B( 18-C , 21-H ) :   0.9956 B( 19-C , 20-C ) :   1.5506 B( 19-C , 22-C ) :   1.0457
B( 22-C , 23-H ) :   0.9296 B( 22-C , 24-H ) :   0.9341 B( 22-C , 25-C ) :   1.0602
B( 25-C , 26-H ) :   0.9553 B( 25-C , 27-H ) :   0.9609 B( 25-C , 28-C ) :   1.0738
B( 28-C , 29-H ) :   0.9798 B( 28-C , 30-H ) :   0.9725 B( 28-C , 31-H ) :   0.9764

Dispersion correction           -0.015475165
FINAL SINGLE POINT ENERGY     -1339.834710591883

DIPOLE MOMENT
-------------
                                X             Y             Z
Electronic contribution:     -1.29588     -19.10333      -1.31791
Nuclear contribution   :      1.43025      19.65200       1.67092
                        -----------------------------------------
Total Dipole Moment    :      0.13436       0.54867       0.35301
                        -----------------------------------------
Magnitude (a.u.)       :      0.66611
Magnitude (Debye)      :      1.69312

Rotational constants in cm-1:     0.021329     0.008485     0.007451
Rotational constants in MHz :   639.433592   254.378163   223.365610

                             ****ORCA TERMINATED NORMALLY****
TOTAL RUN TIME: 0 days 0 hours 0 minutes 31 seconds 921 msec
