                         Program Version 4.2.1 -  RELEASE  -
|  1> ! wB97X-D3 SP def2-SVP
|  2> %pal
|  3> nprocs 16
|  4> end
|  5>
|  6> * xyz 0 1
|  7> S 	 -70.7583 	 46.1643 	 122.227
|  8> C 	 -69.3391 	 46.8594 	 121.446
|  9> C 	 -69.4669 	 48.2552 	 121.279
| 10> C 	 -70.6028 	 48.7494 	 121.936
| 11> C 	 -71.2884 	 47.8053 	 122.658
| 12> H 	 -70.9799 	 49.784 	 121.962
| 13> C 	 -68.467 	 49.1868 	 120.622
| 14> H 	 -68.5914 	 50.1801 	 121.002
| 15> H 	 -68.7987 	 49.1607 	 119.576
| 16> C 	 -66.9951 	 48.7907 	 120.635
| 17> H 	 -66.8429 	 48.2822 	 121.55
| 18> H 	 -66.8597 	 47.9472 	 119.898
| 19> C 	 -65.9562 	 49.8306 	 120.426
| 20> H 	 -64.9488 	 49.3636 	 120.482
| 21> H 	 -66.1787 	 50.2256 	 119.447
| 22> H 	 -66.0081 	 50.6034 	 121.209
| 23> S 	 -74.1006 	 47.7426 	 122.885
| 24> C 	 -74.8168 	 48.8695 	 124.037
| 25> C 	 -73.9167 	 49.4089 	 124.875
| 26> C 	 -72.5439 	 49.0608 	 124.525
| 27> C 	 -72.4388 	 48.1369 	 123.488
| 28> H 	 -74.0995 	 50.0797 	 125.665
| 29> C 	 -71.3339 	 49.6842 	 125.268
| 30> H 	 -70.469 	 49.3664 	 124.707
| 31> H 	 -71.1616 	 49.3344 	 126.266
| 32> C 	 -71.4014 	 51.2083 	 125.417
| 33> H 	 -70.5963 	 51.7187 	 125.969
| 34> H 	 -72.3114 	 51.4506 	 125.959
| 35> C 	 -71.337 	 52.0524 	 124.147
| 36> H 	 -71.6746 	 53.1732 	 124.048
| 37> H 	 -72.0649 	 51.7555 	 123.382
| 38> H 	 -70.2308 	 51.9315 	 123.857
| 39> H 	 -68.5485 	 46.2445 	 121.07
| 40> H 	 -75.8523 	 49.0088 	 124.202
| 41> *
| 42>
| 43>                          ****END OF INPUT****

CARTESIAN COORDINATES (ANGSTROEM)
---------------------------------
  S    -70.758300   46.164300  122.227000
  C    -69.339100   46.859400  121.446000
  C    -69.466900   48.255200  121.279000
  C    -70.602800   48.749400  121.936000
  C    -71.288400   47.805300  122.658000
  H    -70.979900   49.784000  121.962000
  C    -68.467000   49.186800  120.622000
  H    -68.591400   50.180100  121.002000
  H    -68.798700   49.160700  119.576000
  C    -66.995100   48.790700  120.635000
  H    -66.842900   48.282200  121.550000
  H    -66.859700   47.947200  119.898000
  C    -65.956200   49.830600  120.426000
  H    -64.948800   49.363600  120.482000
  H    -66.178700   50.225600  119.447000
  H    -66.008100   50.603400  121.209000
  S    -74.100600   47.742600  122.885000
  C    -74.816800   48.869500  124.037000
  C    -73.916700   49.408900  124.875000
  C    -72.543900   49.060800  124.525000
  C    -72.438800   48.136900  123.488000
  H    -74.099500   50.079700  125.665000
  C    -71.333900   49.684200  125.268000
  H    -70.469000   49.366400  124.707000
  H    -71.161600   49.334400  126.266000
  C    -71.401400   51.208300  125.417000
  H    -70.596300   51.718700  125.969000
  H    -72.311400   51.450600  125.959000
  C    -71.337000   52.052400  124.147000
  H    -71.674600   53.173200  124.048000
  H    -72.064900   51.755500  123.382000
  H    -70.230800   51.931500  123.857000
  H    -68.548500   46.244500  121.070000
  H    -75.852300   49.008800  124.202000

 Total Charge           Charge          ....    0
 Multiplicity           Mult            ....    1
 Number of Electrons    NEL             ....  134
 Basis Dimension        Dim             ....  322

ORBITAL ENERGIES
----------------

  NO   OCC          E(Eh)            E(eV)
   0   2.0000     -88.967338     -2420.9243
   1   2.0000     -88.962921     -2420.8041
   2   2.0000     -10.330664      -281.1116
   3   2.0000     -10.328081      -281.0414
   4   2.0000     -10.316801      -280.7344
   5   2.0000     -10.316084      -280.7149
   6   2.0000     -10.309517      -280.5362
   7   2.0000     -10.304117      -280.3893
   8   2.0000     -10.292885      -280.0837
   9   2.0000     -10.292829      -280.0821
  10   2.0000     -10.290889      -280.0293
  11   2.0000     -10.290712      -280.0245
  12   2.0000     -10.289748      -279.9983
  13   2.0000     -10.289288      -279.9858
  14   2.0000     -10.281996      -279.7873
  15   2.0000     -10.281780      -279.7814
  16   2.0000      -8.081419      -219.9066
  17   2.0000      -8.076915      -219.7840
  18   2.0000      -6.039867      -164.3531
  19   2.0000      -6.036211      -164.2537
  20   2.0000      -6.035686      -164.2394
  21   2.0000      -6.032098      -164.1417
  22   2.0000      -6.031606      -164.1284
  23   2.0000      -6.027353      -164.0126
  24   2.0000      -1.001714       -27.2580
  25   2.0000      -0.979874       -26.6637
  26   2.0000      -0.916755       -24.9462
  27   2.0000      -0.907413       -24.6920
  28   2.0000      -0.871791       -23.7226
  29   2.0000      -0.856258       -23.3000
  30   2.0000      -0.841381       -22.8951
  31   2.0000      -0.816283       -22.2122
  32   2.0000      -0.784514       -21.3477
  33   2.0000      -0.771315       -20.9886
  34   2.0000      -0.710159       -19.3244
  35   2.0000      -0.697359       -18.9761
  36   2.0000      -0.692471       -18.8431
  37   2.0000      -0.657025       -17.8786
  38   2.0000      -0.643869       -17.5206
  39   2.0000      -0.612056       -16.6549
  40   2.0000      -0.599998       -16.3268
  41   2.0000      -0.573939       -15.6177
  42   2.0000      -0.569811       -15.5053
  43   2.0000      -0.561246       -15.2723
  44   2.0000      -0.543692       -14.7946
  45   2.0000      -0.528928       -14.3929
  46   2.0000      -0.521296       -14.1852
  47   2.0000      -0.518220       -14.1015
  48   2.0000      -0.500209       -13.6114
  49   2.0000      -0.497492       -13.5374
  50   2.0000      -0.483946       -13.1689
  51   2.0000      -0.479083       -13.0365
  52   2.0000      -0.477288       -12.9877
  53   2.0000      -0.460549       -12.5322
  54   2.0000      -0.456105       -12.4113
  55   2.0000      -0.450587       -12.2611
  56   2.0000      -0.442383       -12.0379
  57   2.0000      -0.438657       -11.9365
  58   2.0000      -0.435496       -11.8504
  59   2.0000      -0.423120       -11.5137
  60   2.0000      -0.412154       -11.2153
  61   2.0000      -0.411522       -11.1981
  62   2.0000      -0.404544       -11.0082
  63   2.0000      -0.343218        -9.3394
  64   2.0000      -0.329964        -8.9788
  65   2.0000      -0.327462        -8.9107
  66   2.0000      -0.296675        -8.0729
  67   0.0000       0.031970         0.8700
  68   0.0000       0.056678         1.5423
  69   0.0000       0.110224         2.9993
  70   0.0000       0.121565         3.3080
  71   0.0000       0.125379         3.4117

MULLIKEN ATOMIC CHARGES
-----------------------
   0 S :    0.111640
   1 C :   -0.127566
   2 C :   -0.083493
   3 C :    0.016929
   4 C :   -0.176601
   5 H :    0.026755
   6 C :    0.097855
   7 H :    0.016673
   8 H :    0.042248
   9 C :   -0.113164
  10 H :    0.014007
  11 H :    0.025750
  12 C :   -0.017532
  13 H :    0.043694
  14 H :    0.031042
  15 H :    0.034563
  16 S :    0.085299
  17 C :   -0.059184
  18 C :    0.002118
  19 C :   -0.083405
  20 C :   -0.132819
  21 H :    0.002803
  22 C :    0.131095
  23 H :    0.019262
  24 H :    0.036358
  25 C :   -0.090670
  26 H :    0.037926
  27 H :    0.021296
  28 C :   -0.135616
  29 H :    0.049186
  30 H :    0.039669
  31 H :    0.044599
  32 H :    0.044463
  33 H :    0.044821
Sum of atomic charges:    0.0000000

LOEWDIN ATOMIC CHARGES
----------------------
   0 S :    0.389283
   1 C :   -0.192165
   2 C :   -0.058713
   3 C :   -0.055460
   4 C :   -0.191436
   5 H :    0.040091
   6 C :   -0.029956
   7 H :    0.024718
   8 H :    0.041456
   9 C :   -0.052124
  10 H :    0.013863
  11 H :    0.026527
  12 C :   -0.058769
  13 H :    0.035936
  14 H :    0.024965
  15 H :    0.026405
  16 S :    0.366170
  17 C :   -0.163164
  18 C :   -0.067352
  19 C :   -0.044327
  20 C :   -0.182053
  21 H :    0.024066
  22 C :   -0.023102
  23 H :    0.028236
  24 H :    0.034942
  25 C :   -0.051180
  26 H :    0.031546
  27 H :    0.017036
  28 C :   -0.096430
  29 H :    0.041808
  30 H :    0.019866
  31 H :    0.032869
  32 H :    0.021456
  33 H :    0.024993

  Mayer bond orders larger than 0.100000
B(  0-S ,  1-C ) :   1.1398 B(  0-S ,  4-C ) :   1.1377 B(  1-C ,  2-C ) :   1.5849
B(  1-C ,  4-C ) :   0.1031 B(  1-C , 32-H ) :   0.9737 B(  2-C ,  3-C ) :   1.2482
B(  2-C ,  6-C ) :   1.0158 B(  3-C ,  4-C ) :   1.5748 B(  3-C ,  5-H ) :   0.9911
B(  4-C , 20-C ) :   1.0305 B(  6-C ,  7-H ) :   0.9512 B(  6-C ,  8-H ) :   0.9170
B(  6-C ,  9-C ) :   1.0672 B(  9-C , 10-H ) :   0.9589 B(  9-C , 11-H ) :   0.9437
B(  9-C , 12-C ) :   1.0973 B( 12-C , 13-H ) :   0.9694 B( 12-C , 14-H ) :   0.9744
B( 12-C , 15-H ) :   0.9726 B( 16-S , 17-C ) :   1.1393 B( 16-S , 20-C ) :   1.1068
B( 17-C , 18-C ) :   1.6460 B( 17-C , 33-H ) :   0.9648 B( 18-C , 19-C ) :   1.2068
B( 18-C , 21-H ) :   0.9951 B( 19-C , 20-C ) :   1.6508 B( 19-C , 22-C ) :   1.0274
B( 22-C , 23-H ) :   0.9366 B( 22-C , 24-H ) :   0.9359 B( 22-C , 25-C ) :   1.0576
B( 25-C , 26-H ) :   0.9629 B( 25-C , 27-H ) :   0.9557 B( 25-C , 28-C ) :   1.0521
B( 28-C , 29-H ) :   0.9708 B( 28-C , 30-H ) :   0.9677 B( 28-C , 31-H ) :   0.9772

Dispersion correction           -0.014811194
FINAL SINGLE POINT ENERGY     -1339.856618609752

DIPOLE MOMENT
-------------
                                X             Y             Z
Electronic contribution:    -21.51948     -22.08268       0.40401
Nuclear contribution   :     21.89681      22.73347      -0.32255
                        -----------------------------------------
Total Dipole Moment    :      0.37733       0.65078       0.08146
                        -----------------------------------------
Magnitude (a.u.)       :      0.75666
Magnitude (Debye)      :      1.92327

Rotational constants in cm-1:     0.019448     0.008560     0.006526
Rotational constants in MHz :   583.036385   256.633977   195.633715

                             ****ORCA TERMINATED NORMALLY****
TOTAL RUN TIME: 0 days 0 hours 0 minutes 34 seconds 320 msec
