                         Program Version 4.2.1 -  RELEASE  -
|  1> ! wB97X-D3 SP def2-SVP
|  2> %pal
|  3> nprocs 16
|  4> end
|  5>
|  6> * xyz 0 1
|  7> S 	 3.21514 	 -14.6769 	 50.2614
|  8> C 	 1.71304 	 -15.2646 	 49.6163
|  9> C 	 0.857049 	 -15.6863 	 50.5831
| 10> C 	 1.369 	 -15.579 	 51.8912
| 11> C 	 2.68544 	 -15.0685 	 51.928
| 12> H 	 0.910501 	 -16.1289 	 52.6939
| 13> C 	 -0.513838 	 -16.2543 	 50.3062
| 14> H 	 -0.620711 	 -17.1926 	 50.794
| 15> H 	 -0.495988 	 -16.4817 	 49.2552
| 16> C 	 -1.73744 	 -15.3855 	 50.5416
| 17> H 	 -2.49921 	 -15.8936 	 49.8492
| 18> H 	 -2.11646 	 -15.3284 	 51.5046
| 19> C 	 -1.62479 	 -13.9521 	 50.0362
| 20> H 	 -1.18361 	 -13.8629 	 49.1073
| 21> H 	 -2.60257 	 -13.4424 	 49.9736
| 22> H 	 -0.979592 	 -13.3041 	 50.7285
| 23> S 	 5.11989 	 -16.115 	 52.7746
| 24> C 	 5.58945 	 -15.9361 	 54.4204
| 25> C 	 4.75471 	 -15.1022 	 55.1231
| 26> C 	 3.612 	 -14.7019 	 54.3204
| 27> C 	 3.65564 	 -15.1473 	 53.0464
| 28> H 	 4.95184 	 -14.8968 	 56.1616
| 29> C 	 2.52177 	 -13.8353 	 54.8657
| 30> H 	 2.75954 	 -13.794 	 55.8495
| 31> H 	 1.67838 	 -14.5531 	 54.8065
| 32> C 	 2.16743 	 -12.4828 	 54.3414
| 33> H 	 2.10238 	 -12.6564 	 53.2544
| 34> H 	 2.95467 	 -11.8347 	 54.5228
| 35> C 	 0.808579 	 -11.9635 	 54.8215
| 36> H 	 0.727192 	 -12.0903 	 55.8882
| 37> H 	 -0.0478681 	 -12.4944 	 54.4319
| 38> H 	 0.752355 	 -10.8639 	 54.5776
| 39> H 	 1.53153 	 -15.1853 	 48.6074
| 40> H 	 6.44922 	 -16.3414 	 54.7947
| 41> *
| 42>
| 43>                          ****END OF INPUT****

CARTESIAN COORDINATES (ANGSTROEM)
---------------------------------
  S      3.215140  -14.676900   50.261400
  C      1.713040  -15.264600   49.616300
  C      0.857049  -15.686300   50.583100
  C      1.369000  -15.579000   51.891200
  C      2.685440  -15.068500   51.928000
  H      0.910501  -16.128900   52.693900
  C     -0.513838  -16.254300   50.306200
  H     -0.620711  -17.192600   50.794000
  H     -0.495988  -16.481700   49.255200
  C     -1.737440  -15.385500   50.541600
  H     -2.499210  -15.893600   49.849200
  H     -2.116460  -15.328400   51.504600
  C     -1.624790  -13.952100   50.036200
  H     -1.183610  -13.862900   49.107300
  H     -2.602570  -13.442400   49.973600
  H     -0.979592  -13.304100   50.728500
  S      5.119890  -16.115000   52.774600
  C      5.589450  -15.936100   54.420400
  C      4.754710  -15.102200   55.123100
  C      3.612000  -14.701900   54.320400
  C      3.655640  -15.147300   53.046400
  H      4.951840  -14.896800   56.161600
  C      2.521770  -13.835300   54.865700
  H      2.759540  -13.794000   55.849500
  H      1.678380  -14.553100   54.806500
  C      2.167430  -12.482800   54.341400
  H      2.102380  -12.656400   53.254400
  H      2.954670  -11.834700   54.522800
  C      0.808579  -11.963500   54.821500
  H      0.727192  -12.090300   55.888200
  H     -0.047868  -12.494400   54.431900
  H      0.752355  -10.863900   54.577600
  H      1.531530  -15.185300   48.607400
  H      6.449220  -16.341400   54.794700

 Total Charge           Charge          ....    0
 Multiplicity           Mult            ....    1
 Number of Electrons    NEL             ....  134
 Basis Dimension        Dim             ....  322

ORBITAL ENERGIES
----------------

  NO   OCC          E(Eh)            E(eV)
   0   2.0000     -88.966887     -2420.9121
   1   2.0000     -88.960740     -2420.7448
   2   2.0000     -10.339077      -281.3406
   3   2.0000     -10.322247      -280.8826
   4   2.0000     -10.309078      -280.5243
   5   2.0000     -10.307061      -280.4694
   6   2.0000     -10.298805      -280.2447
   7   2.0000     -10.295439      -280.1531
   8   2.0000     -10.294608      -280.1305
   9   2.0000     -10.293171      -280.0914
  10   2.0000     -10.286361      -279.9061
  11   2.0000     -10.286283      -279.9040
  12   2.0000     -10.277782      -279.6727
  13   2.0000     -10.275376      -279.6072
  14   2.0000     -10.275190      -279.6021
  15   2.0000     -10.274476      -279.5827
  16   2.0000      -8.081278      -219.9028
  17   2.0000      -8.075988      -219.7588
  18   2.0000      -6.039767      -164.3504
  19   2.0000      -6.035772      -164.2417
  20   2.0000      -6.034508      -164.2073
  21   2.0000      -6.032154      -164.1433
  22   2.0000      -6.030426      -164.0962
  23   2.0000      -6.026695      -163.9947
  24   2.0000      -1.005332       -27.3565
  25   2.0000      -0.986351       -26.8400
  26   2.0000      -0.915409       -24.9095
  27   2.0000      -0.914153       -24.8754
  28   2.0000      -0.867968       -23.6186
  29   2.0000      -0.853531       -23.2258
  30   2.0000      -0.847706       -23.0673
  31   2.0000      -0.816136       -22.2082
  32   2.0000      -0.785531       -21.3754
  33   2.0000      -0.776733       -21.1360
  34   2.0000      -0.713919       -19.4267
  35   2.0000      -0.700270       -19.0553
  36   2.0000      -0.695350       -18.9214
  37   2.0000      -0.668395       -18.1879
  38   2.0000      -0.645925       -17.5765
  39   2.0000      -0.622931       -16.9508
  40   2.0000      -0.592109       -16.1121
  41   2.0000      -0.573552       -15.6072
  42   2.0000      -0.566685       -15.4203
  43   2.0000      -0.560983       -15.2651
  44   2.0000      -0.540129       -14.6977
  45   2.0000      -0.526623       -14.3301
  46   2.0000      -0.521729       -14.1970
  47   2.0000      -0.510993       -13.9048
  48   2.0000      -0.504357       -13.7242
  49   2.0000      -0.497932       -13.5494
  50   2.0000      -0.488537       -13.2938
  51   2.0000      -0.484472       -13.1832
  52   2.0000      -0.471179       -12.8214
  53   2.0000      -0.467697       -12.7267
  54   2.0000      -0.458217       -12.4687
  55   2.0000      -0.446692       -12.1551
  56   2.0000      -0.443491       -12.0680
  57   2.0000      -0.442156       -12.0317
  58   2.0000      -0.435724       -11.8566
  59   2.0000      -0.428358       -11.6562
  60   2.0000      -0.420382       -11.4392
  61   2.0000      -0.409265       -11.1367
  62   2.0000      -0.405695       -11.0395
  63   2.0000      -0.348181        -9.4745
  64   2.0000      -0.332356        -9.0439
  65   2.0000      -0.327607        -8.9146
  66   2.0000      -0.294281        -8.0078
  67   0.0000       0.030508         0.8302
  68   0.0000       0.066796         1.8176
  69   0.0000       0.115501         3.1430
  70   0.0000       0.124983         3.4010
  71   0.0000       0.126926         3.4538

MULLIKEN ATOMIC CHARGES
-----------------------
   0 S :    0.100623
   1 C :   -0.099751
   2 C :   -0.107559
   3 C :    0.054895
   4 C :   -0.168925
   5 H :    0.018371
   6 C :    0.112937
   7 H :    0.022853
   8 H :    0.003883
   9 C :   -0.064904
  10 H :    0.037193
  11 H :    0.021872
  12 C :   -0.054009
  13 H :    0.004319
  14 H :    0.036527
  15 H :    0.042076
  16 S :    0.101513
  17 C :   -0.051086
  18 C :   -0.030979
  19 C :   -0.083781
  20 C :   -0.145292
  21 H :    0.017031
  22 C :    0.117841
  23 H :   -0.031275
  24 H :    0.020568
  25 C :   -0.011081
  26 H :    0.036325
  27 H :    0.015320
  28 C :   -0.051504
  29 H :    0.020848
  30 H :    0.031233
  31 H :    0.045298
  32 H :    0.018262
  33 H :    0.020353
Sum of atomic charges:    0.0000000

LOEWDIN ATOMIC CHARGES
----------------------
   0 S :    0.395661
   1 C :   -0.182786
   2 C :   -0.067528
   3 C :   -0.060004
   4 C :   -0.175871
   5 H :    0.031752
   6 C :   -0.027689
   7 H :    0.029521
   8 H :    0.029046
   9 C :   -0.037076
  10 H :    0.036839
  11 H :    0.013103
  12 C :   -0.066862
  13 H :    0.009036
  14 H :    0.029480
  15 H :    0.033708
  16 S :    0.401470
  17 C :   -0.169716
  18 C :   -0.071908
  19 C :   -0.052987
  20 C :   -0.197634
  21 H :    0.031232
  22 C :   -0.032351
  23 H :    0.010618
  24 H :    0.038295
  25 C :   -0.033748
  26 H :    0.030889
  27 H :    0.016554
  28 C :   -0.060967
  29 H :    0.019635
  30 H :    0.024723
  31 H :    0.035774
  32 H :    0.009795
  33 H :    0.009998

  Mayer bond orders larger than 0.100000
B(  0-S ,  1-C ) :   1.1367 B(  0-S ,  4-C ) :   1.1566 B(  1-C ,  2-C ) :   1.6067
B(  1-C , 32-H ) :   0.9757 B(  2-C ,  3-C ) :   1.2646 B(  2-C ,  6-C ) :   1.0293
B(  3-C ,  4-C ) :   1.5525 B(  3-C ,  5-H ) :   0.9857 B(  4-C , 20-C ) :   1.0263
B(  6-C ,  7-H ) :   0.9346 B(  6-C ,  8-H ) :   0.9337 B(  6-C ,  9-C ) :   1.0685
B(  9-C , 10-H ) :   0.9568 B(  9-C , 11-H ) :   0.9591 B(  9-C , 12-C ) :   1.0877
B( 12-C , 13-H ) :   0.9755 B( 12-C , 14-H ) :   0.9733 B( 12-C , 15-H ) :   0.9665
B( 16-S , 17-C ) :   1.1665 B( 16-S , 20-C ) :   1.1138 B( 17-C , 18-C ) :   1.6166
B( 17-C , 33-H ) :   0.9754 B( 18-C , 19-C ) :   1.2166 B( 18-C , 21-H ) :   0.9932
B( 19-C , 20-C ) :   1.6457 B( 19-C , 22-C ) :   1.0282 B( 22-C , 23-H ) :   0.9069
B( 22-C , 24-H ) :   0.9202 B( 22-C , 25-C ) :   1.0681 B( 25-C , 26-H ) :   0.9514
B( 25-C , 27-H ) :   0.9526 B( 25-C , 28-C ) :   1.0814 B( 28-C , 29-H ) :   0.9767
B( 28-C , 30-H ) :   0.9740 B( 28-C , 31-H ) :   0.9740

Dispersion correction           -0.014760634
FINAL SINGLE POINT ENERGY     -1339.866578166074

DIPOLE MOMENT
-------------
                                X             Y             Z
Electronic contribution:     26.16318     -10.74339      -4.91331
Nuclear contribution   :    -26.64984      10.67633       5.17677
                        -----------------------------------------
Total Dipole Moment    :     -0.48666      -0.06707       0.26346
                        -----------------------------------------
Magnitude (a.u.)       :      0.55745
Magnitude (Debye)      :      1.41692

Rotational constants in cm-1:     0.018776     0.009390     0.007155
Rotational constants in MHz :   562.899524   281.510685   214.516052

                             ****ORCA TERMINATED NORMALLY****
TOTAL RUN TIME: 0 days 0 hours 0 minutes 30 seconds 980 msec
