                         Program Version 4.2.1 -  RELEASE  -
|  1> ! wB97X-D3 SP def2-SVP
|  2> %pal
|  3> nprocs 16
|  4> end
|  5>
|  6> * xyz 0 1
|  7> S 	 6.1087 	 -14.0811 	 63.4326
|  8> C 	 6.70173 	 -13.5681 	 64.949
|  9> C 	 7.13119 	 -14.6928 	 65.727
| 10> C 	 6.66425 	 -15.8933 	 65.1779
| 11> C 	 6.22369 	 -15.7872 	 63.8489
| 12> H 	 6.53834 	 -16.8447 	 65.6767
| 13> C 	 7.70168 	 -14.5572 	 67.0869
| 14> H 	 7.94292 	 -15.5248 	 67.4111
| 15> H 	 6.86152 	 -14.3063 	 67.7901
| 16> C 	 8.89011 	 -13.6088 	 67.3554
| 17> H 	 8.59731 	 -12.5761 	 67.1763
| 18> H 	 9.02759 	 -13.8465 	 68.3786
| 19> C 	 10.1884 	 -14.006 	 66.6419
| 20> H 	 9.95671 	 -14.2458 	 65.5648
| 21> H 	 10.8629 	 -13.1561 	 66.883
| 22> H 	 10.6412 	 -14.9544 	 67.0832
| 23> S 	 7.17592 	 -18.0171 	 62.5671
| 24> C 	 6.06859 	 -19.119 	 61.7749
| 25> C 	 4.82244 	 -18.5065 	 61.4847
| 26> C 	 4.75066 	 -17.225 	 62.1578
| 27> C 	 5.87804 	 -16.905 	 62.9223
| 28> H 	 4.14747 	 -19.0749 	 60.8239
| 29> C 	 3.42869 	 -16.4832 	 62.0727
| 30> H 	 3.25271 	 -15.8084 	 62.8796
| 31> H 	 2.523 	 -17.0927 	 61.9817
| 32> C 	 3.42933 	 -15.5927 	 60.7857
| 33> H 	 3.42088 	 -16.2059 	 59.9642
| 34> H 	 4.25783 	 -14.8325 	 60.8037
| 35> C 	 2.12614 	 -14.6441 	 60.6353
| 36> H 	 1.20302 	 -15.1901 	 60.5347
| 37> H 	 2.2486 	 -13.9534 	 59.8458
| 38> H 	 2.00411 	 -14.2224 	 61.5984
| 39> H 	 6.76423 	 -12.5023 	 65.2859
| 40> H 	 6.30998 	 -20.1101 	 61.4328
| 41> *
| 42>
| 43>                          ****END OF INPUT****

CARTESIAN COORDINATES (ANGSTROEM)
---------------------------------
  S      6.108700  -14.081100   63.432600
  C      6.701730  -13.568100   64.949000
  C      7.131190  -14.692800   65.727000
  C      6.664250  -15.893300   65.177900
  C      6.223690  -15.787200   63.848900
  H      6.538340  -16.844700   65.676700
  C      7.701680  -14.557200   67.086900
  H      7.942920  -15.524800   67.411100
  H      6.861520  -14.306300   67.790100
  C      8.890110  -13.608800   67.355400
  H      8.597310  -12.576100   67.176300
  H      9.027590  -13.846500   68.378600
  C     10.188400  -14.006000   66.641900
  H      9.956710  -14.245800   65.564800
  H     10.862900  -13.156100   66.883000
  H     10.641200  -14.954400   67.083200
  S      7.175920  -18.017100   62.567100
  C      6.068590  -19.119000   61.774900
  C      4.822440  -18.506500   61.484700
  C      4.750660  -17.225000   62.157800
  C      5.878040  -16.905000   62.922300
  H      4.147470  -19.074900   60.823900
  C      3.428690  -16.483200   62.072700
  H      3.252710  -15.808400   62.879600
  H      2.523000  -17.092700   61.981700
  C      3.429330  -15.592700   60.785700
  H      3.420880  -16.205900   59.964200
  H      4.257830  -14.832500   60.803700
  C      2.126140  -14.644100   60.635300
  H      1.203020  -15.190100   60.534700
  H      2.248600  -13.953400   59.845800
  H      2.004110  -14.222400   61.598400
  H      6.764230  -12.502300   65.285900
  H      6.309980  -20.110100   61.432800

 Total Charge           Charge          ....    0
 Multiplicity           Mult            ....    1
 Number of Electrons    NEL             ....  134
 Basis Dimension        Dim             ....  322

ORBITAL ENERGIES
----------------

  NO   OCC          E(Eh)            E(eV)
   0   2.0000     -88.969616     -2420.9863
   1   2.0000     -88.966193     -2420.8932
   2   2.0000     -10.331853      -281.1440
   3   2.0000     -10.330650      -281.1113
   4   2.0000     -10.319526      -280.8086
   5   2.0000     -10.319207      -280.7999
   6   2.0000     -10.311062      -280.5783
   7   2.0000     -10.302040      -280.3328
   8   2.0000     -10.300499      -280.2908
   9   2.0000     -10.294740      -280.1341
  10   2.0000     -10.288811      -279.9728
  11   2.0000     -10.286021      -279.8969
  12   2.0000     -10.285258      -279.8761
  13   2.0000     -10.284256      -279.8488
  14   2.0000     -10.283416      -279.8260
  15   2.0000     -10.269031      -279.4346
  16   2.0000      -8.084122      -219.9801
  17   2.0000      -8.080810      -219.8900
  18   2.0000      -6.042391      -164.4218
  19   2.0000      -6.039249      -164.3363
  20   2.0000      -6.038432      -164.3141
  21   2.0000      -6.035405      -164.2317
  22   2.0000      -6.035390      -164.2313
  23   2.0000      -6.031580      -164.1276
  24   2.0000      -1.003108       -27.2960
  25   2.0000      -0.983142       -26.7527
  26   2.0000      -0.912749       -24.8372
  27   2.0000      -0.900733       -24.5102
  28   2.0000      -0.861794       -23.4506
  29   2.0000      -0.853451       -23.2236
  30   2.0000      -0.841460       -22.8973
  31   2.0000      -0.809933       -22.0394
  32   2.0000      -0.780214       -21.2307
  33   2.0000      -0.767315       -20.8797
  34   2.0000      -0.700479       -19.0610
  35   2.0000      -0.698311       -19.0020
  36   2.0000      -0.689191       -18.7539
  37   2.0000      -0.660201       -17.9650
  38   2.0000      -0.640972       -17.4417
  39   2.0000      -0.609016       -16.5722
  40   2.0000      -0.593740       -16.1565
  41   2.0000      -0.579909       -15.7801
  42   2.0000      -0.564156       -15.3515
  43   2.0000      -0.549491       -14.9524
  44   2.0000      -0.539467       -14.6796
  45   2.0000      -0.523522       -14.2458
  46   2.0000      -0.518986       -14.1223
  47   2.0000      -0.513613       -13.9761
  48   2.0000      -0.502248       -13.6669
  49   2.0000      -0.496413       -13.5081
  50   2.0000      -0.489855       -13.3296
  51   2.0000      -0.477147       -12.9838
  52   2.0000      -0.470582       -12.8052
  53   2.0000      -0.464407       -12.6372
  54   2.0000      -0.454920       -12.3790
  55   2.0000      -0.445218       -12.1150
  56   2.0000      -0.439453       -11.9581
  57   2.0000      -0.429481       -11.6868
  58   2.0000      -0.427883       -11.6433
  59   2.0000      -0.426271       -11.5994
  60   2.0000      -0.422692       -11.5020
  61   2.0000      -0.415949       -11.3186
  62   2.0000      -0.410064       -11.1584
  63   2.0000      -0.338176        -9.2022
  64   2.0000      -0.329628        -8.9696
  65   2.0000      -0.321774        -8.7559
  66   2.0000      -0.292830        -7.9683
  67   0.0000       0.025832         0.7029
  68   0.0000       0.066099         1.7986
  69   0.0000       0.106264         2.8916
  70   0.0000       0.110492         3.0066
  71   0.0000       0.128044         3.4842

MULLIKEN ATOMIC CHARGES
-----------------------
   0 S :    0.130456
   1 C :   -0.142480
   2 C :   -0.096963
   3 C :    0.023889
   4 C :   -0.167296
   5 H :    0.024307
   6 C :    0.045260
   7 H :   -0.009329
   8 H :    0.044602
   9 C :   -0.042349
  10 H :    0.033645
  11 H :    0.023341
  12 C :   -0.092544
  13 H :    0.059847
  14 H :    0.050612
  15 H :    0.037665
  16 S :    0.122501
  17 C :   -0.103995
  18 C :   -0.050262
  19 C :    0.002087
  20 C :   -0.165310
  21 H :    0.038239
  22 C :    0.069227
  23 H :    0.012514
  24 H :    0.026981
  25 C :   -0.104665
  26 H :    0.014671
  27 H :    0.041491
  28 C :   -0.020594
  29 H :    0.015640
  30 H :    0.039256
  31 H :    0.012946
  32 H :    0.074859
  33 H :    0.051751
Sum of atomic charges:   -0.0000000

LOEWDIN ATOMIC CHARGES
----------------------
   0 S :    0.433780
   1 C :   -0.220938
   2 C :   -0.071371
   3 C :   -0.059370
   4 C :   -0.207814
   5 H :    0.035501
   6 C :   -0.040647
   7 H :    0.019331
   8 H :    0.042226
   9 C :   -0.037962
  10 H :    0.021114
  11 H :    0.025683
  12 C :   -0.075093
  13 H :    0.033973
  14 H :    0.033208
  15 H :    0.030847
  16 S :    0.416152
  17 C :   -0.182861
  18 C :   -0.071316
  19 C :   -0.047393
  20 C :   -0.207886
  21 H :    0.040031
  22 C :   -0.030334
  23 H :    0.021023
  24 H :    0.031423
  25 C :   -0.024488
  26 H :    0.005283
  27 H :    0.026048
  28 C :   -0.060013
  29 H :    0.019111
  30 H :    0.021471
  31 H :    0.018456
  32 H :    0.038882
  33 H :    0.023944

  Mayer bond orders larger than 0.100000
B(  0-S ,  1-C ) :   1.1842 B(  0-S ,  4-C ) :   1.1633 B(  1-C ,  2-C ) :   1.5110
B(  1-C ,  4-C ) :   0.1143 B(  1-C , 32-H ) :   0.9668 B(  2-C ,  3-C ) :   1.2946
B(  2-C ,  6-C ) :   1.0394 B(  3-C ,  4-C ) :   1.5286 B(  3-C ,  5-H ) :   0.9923
B(  4-C , 20-C ) :   1.0319 B(  6-C ,  7-H ) :   0.9325 B(  6-C ,  8-H ) :   0.9312
B(  6-C ,  9-C ) :   1.0725 B(  9-C , 10-H ) :   0.9591 B(  9-C , 11-H ) :   0.9515
B(  9-C , 12-C ) :   1.0722 B( 12-C , 13-H ) :   0.9762 B( 12-C , 14-H ) :   0.9740
B( 12-C , 15-H ) :   0.9738 B( 16-S , 17-C ) :   1.1694 B( 16-S , 20-C ) :   1.1441
B( 17-C , 18-C ) :   1.6014 B( 17-C , 33-H ) :   0.9690 B( 18-C , 19-C ) :   1.2219
B( 18-C , 21-H ) :   0.9900 B( 19-C , 20-C ) :   1.5826 B( 19-C , 22-C ) :   1.0567
B( 22-C , 23-H ) :   0.9349 B( 22-C , 24-H ) :   0.9461 B( 22-C , 25-C ) :   1.0515
B( 25-C , 26-H ) :   0.9643 B( 25-C , 27-H ) :   0.9602 B( 25-C , 28-C ) :   1.0712
B( 28-C , 29-H ) :   0.9750 B( 28-C , 30-H ) :   0.9795 B( 28-C , 31-H ) :   0.9760

Dispersion correction           -0.014189301
FINAL SINGLE POINT ENERGY     -1339.851927764785

DIPOLE MOMENT
-------------
                                X             Y             Z
Electronic contribution:      3.83622      -9.29961      -6.01706
Nuclear contribution   :     -4.06214       9.25764       6.32495
                        -----------------------------------------
Total Dipole Moment    :     -0.22593      -0.04197       0.30789
                        -----------------------------------------
Magnitude (a.u.)       :      0.38419
Magnitude (Debye)      :      0.97653

Rotational constants in cm-1:     0.022109     0.007730     0.006138
Rotational constants in MHz :   662.808905   231.745373   184.020723

                             ****ORCA TERMINATED NORMALLY****
TOTAL RUN TIME: 0 days 0 hours 0 minutes 29 seconds 361 msec
