                         Program Version 4.2.1 -  RELEASE  -
|  1> ! wB97X-D3 SP def2-SVP
|  2> %pal
|  3> nprocs 16
|  4> end
|  5>
|  6> * xyz 0 1
|  7> S 	 -100.69 	 56.3941 	 122.052
|  8> C 	 -101.558 	 54.9343 	 121.525
|  9> C 	 -102.14 	 54.2861 	 122.572
| 10> C 	 -101.827 	 54.8979 	 123.806
| 11> C 	 -100.973 	 55.969 	 123.708
| 12> H 	 -102.305 	 54.7562 	 124.807
| 13> C 	 -103.025 	 53.1418 	 122.558
| 14> H 	 -103.698 	 53.2996 	 121.701
| 15> H 	 -103.723 	 53.3523 	 123.423
| 16> C 	 -102.396 	 51.7665 	 122.673
| 17> H 	 -101.71 	 51.6317 	 121.825
| 18> H 	 -101.94 	 51.7316 	 123.614
| 19> C 	 -103.463 	 50.723 	 122.609
| 20> H 	 -103.124 	 49.6807 	 122.525
| 21> H 	 -103.985 	 50.814 	 123.61
| 22> H 	 -104.251 	 50.8609 	 121.837
| 23> S 	 -101.185 	 58.5163 	 124.528
| 24> C 	 -100.811 	 58.9744 	 126.228
| 25> C 	 -100.038 	 57.9553 	 126.85
| 26> C 	 -99.9659 	 56.7435 	 126.006
| 27> C 	 -100.569 	 56.8878 	 124.782
| 28> H 	 -99.5532 	 57.9363 	 127.853
| 29> C 	 -99.3002 	 55.4784 	 126.51
| 30> H 	 -98.2493 	 55.5725 	 126.641
| 31> H 	 -99.4146 	 54.6951 	 125.769
| 32> C 	 -99.6303 	 54.9707 	 127.913
| 33> H 	 -99.4467 	 55.8422 	 128.498
| 34> H 	 -98.9536 	 54.1973 	 128.351
| 35> C 	 -101.082 	 54.6054 	 128.016
| 36> H 	 -101.727 	 55.2939 	 127.487
| 37> H 	 -101.377 	 54.6128 	 129.066
| 38> H 	 -101.268 	 53.6121 	 127.55
| 39> H 	 -101.764 	 54.6777 	 120.46
| 40> H 	 -101.062 	 59.8827 	 126.694
| 41> *
| 42>
| 43>                          ****END OF INPUT****

CARTESIAN COORDINATES (ANGSTROEM)
---------------------------------
  S    -100.690000   56.394100  122.052000
  C    -101.558000   54.934300  121.525000
  C    -102.140000   54.286100  122.572000
  C    -101.827000   54.897900  123.806000
  C    -100.973000   55.969000  123.708000
  H    -102.305000   54.756200  124.807000
  C    -103.025000   53.141800  122.558000
  H    -103.698000   53.299600  121.701000
  H    -103.723000   53.352300  123.423000
  C    -102.396000   51.766500  122.673000
  H    -101.710000   51.631700  121.825000
  H    -101.940000   51.731600  123.614000
  C    -103.463000   50.723000  122.609000
  H    -103.124000   49.680700  122.525000
  H    -103.985000   50.814000  123.610000
  H    -104.251000   50.860900  121.837000
  S    -101.185000   58.516300  124.528000
  C    -100.811000   58.974400  126.228000
  C    -100.038000   57.955300  126.850000
  C    -99.965900   56.743500  126.006000
  C    -100.569000   56.887800  124.782000
  H    -99.553200   57.936300  127.853000
  C    -99.300200   55.478400  126.510000
  H    -98.249300   55.572500  126.641000
  H    -99.414600   54.695100  125.769000
  C    -99.630300   54.970700  127.913000
  H    -99.446700   55.842200  128.498000
  H    -98.953600   54.197300  128.351000
  C    -101.082000   54.605400  128.016000
  H    -101.727000   55.293900  127.487000
  H    -101.377000   54.612800  129.066000
  H    -101.268000   53.612100  127.550000
  H    -101.764000   54.677700  120.460000
  H    -101.062000   59.882700  126.694000

 Total Charge           Charge          ....    0
 Multiplicity           Mult            ....    1
 Number of Electrons    NEL             ....  134
 Basis Dimension        Dim             ....  322

ORBITAL ENERGIES
----------------

  NO   OCC          E(Eh)            E(eV)
   0   2.0000     -88.966658     -2420.9058
   1   2.0000     -88.966457     -2420.9004
   2   2.0000     -10.328897      -281.0636
   3   2.0000     -10.328347      -281.0486
   4   2.0000     -10.327732      -281.0319
   5   2.0000     -10.315610      -280.7020
   6   2.0000     -10.310059      -280.5510
   7   2.0000     -10.309514      -280.5361
   8   2.0000     -10.293469      -280.0995
   9   2.0000     -10.291803      -280.0542
  10   2.0000     -10.289406      -279.9890
  11   2.0000     -10.284534      -279.8564
  12   2.0000     -10.284067      -279.8437
  13   2.0000     -10.283683      -279.8332
  14   2.0000     -10.282485      -279.8006
  15   2.0000     -10.272806      -279.5373
  16   2.0000      -8.081166      -219.8997
  17   2.0000      -8.080588      -219.8840
  18   2.0000      -6.039705      -164.3487
  19   2.0000      -6.039386      -164.3401
  20   2.0000      -6.035783      -164.2420
  21   2.0000      -6.035198      -164.2261
  22   2.0000      -6.031800      -164.1336
  23   2.0000      -6.031071      -164.1138
  24   2.0000      -1.008370       -27.4392
  25   2.0000      -0.980410       -26.6783
  26   2.0000      -0.924607       -25.1598
  27   2.0000      -0.914562       -24.8865
  28   2.0000      -0.871972       -23.7276
  29   2.0000      -0.851929       -23.1822
  30   2.0000      -0.843713       -22.9586
  31   2.0000      -0.813707       -22.1421
  32   2.0000      -0.781789       -21.2736
  33   2.0000      -0.773407       -21.0455
  34   2.0000      -0.706083       -19.2135
  35   2.0000      -0.702366       -19.1124
  36   2.0000      -0.697312       -18.9748
  37   2.0000      -0.662557       -18.0291
  38   2.0000      -0.640805       -17.4372
  39   2.0000      -0.615943       -16.7607
  40   2.0000      -0.599689       -16.3184
  41   2.0000      -0.576304       -15.6820
  42   2.0000      -0.559994       -15.2382
  43   2.0000      -0.552062       -15.0224
  44   2.0000      -0.546995       -14.8845
  45   2.0000      -0.528768       -14.3885
  46   2.0000      -0.520569       -14.1654
  47   2.0000      -0.513624       -13.9764
  48   2.0000      -0.507310       -13.8046
  49   2.0000      -0.498226       -13.5574
  50   2.0000      -0.496270       -13.5042
  51   2.0000      -0.475648       -12.9430
  52   2.0000      -0.466924       -12.7056
  53   2.0000      -0.465352       -12.6629
  54   2.0000      -0.457224       -12.4417
  55   2.0000      -0.446747       -12.1566
  56   2.0000      -0.441827       -12.0227
  57   2.0000      -0.439363       -11.9557
  58   2.0000      -0.429854       -11.6969
  59   2.0000      -0.428078       -11.6486
  60   2.0000      -0.420959       -11.4549
  61   2.0000      -0.415710       -11.3120
  62   2.0000      -0.410393       -11.1674
  63   2.0000      -0.344600        -9.3771
  64   2.0000      -0.331776        -9.0281
  65   2.0000      -0.326860        -8.8943
  66   2.0000      -0.296183        -8.0595
  67   0.0000       0.032914         0.8956
  68   0.0000       0.058856         1.6016
  69   0.0000       0.098017         2.6672
  70   0.0000       0.116497         3.1700
  71   0.0000       0.128084         3.4854

MULLIKEN ATOMIC CHARGES
-----------------------
   0 S :    0.099096
   1 C :   -0.134039
   2 C :   -0.068204
   3 C :    0.010408
   4 C :   -0.151748
   5 H :    0.032165
   6 C :    0.006469
   7 H :    0.020384
   8 H :    0.024327
   9 C :    0.014622
  10 H :    0.032485
  11 H :    0.019330
  12 C :   -0.065912
  13 H :    0.039694
  14 H :    0.026419
  15 H :    0.034022
  16 S :    0.095802
  17 C :   -0.078986
  18 C :   -0.034340
  19 C :   -0.061310
  20 C :   -0.147285
  21 H :    0.045350
  22 C :    0.087431
  23 H :    0.023169
  24 H :    0.018677
  25 C :   -0.087046
  26 H :    0.001444
  27 H :    0.041879
  28 C :   -0.044783
  29 H :    0.034789
  30 H :    0.031188
  31 H :    0.029193
  32 H :    0.056444
  33 H :    0.048869
Sum of atomic charges:   -0.0000000

LOEWDIN ATOMIC CHARGES
----------------------
   0 S :    0.397740
   1 C :   -0.193238
   2 C :   -0.071543
   3 C :   -0.071400
   4 C :   -0.197931
   5 H :    0.040973
   6 C :   -0.039345
   7 H :    0.030607
   8 H :    0.037352
   9 C :   -0.030864
  10 H :    0.027671
  11 H :    0.022690
  12 C :   -0.071656
  13 H :    0.025733
  14 H :    0.030641
  15 H :    0.026217
  16 S :    0.383385
  17 C :   -0.160629
  18 C :   -0.067261
  19 C :   -0.056108
  20 C :   -0.192871
  21 H :    0.038350
  22 C :   -0.032689
  23 H :    0.032158
  24 H :    0.026202
  25 C :   -0.043770
  26 H :    0.013477
  27 H :    0.032755
  28 C :   -0.067402
  29 H :    0.022557
  30 H :    0.025322
  31 H :    0.026707
  32 H :    0.036014
  33 H :    0.020155

  Mayer bond orders larger than 0.100000
B(  0-S ,  1-C ) :   1.1196 B(  0-S ,  4-C ) :   1.1541 B(  1-C ,  2-C ) :   1.6288
B(  1-C , 32-H ) :   0.9639 B(  2-C ,  3-C ) :   1.2321 B(  2-C ,  6-C ) :   1.0211
B(  3-C ,  4-C ) :   1.5956 B(  3-C ,  5-H ) :   0.9818 B(  4-C , 20-C ) :   0.9971
B(  6-C ,  7-H ) :   0.9335 B(  6-C ,  8-H ) :   0.9365 B(  6-C ,  9-C ) :   1.0631
B(  9-C , 10-H ) :   0.9529 B(  9-C , 11-H ) :   0.9502 B(  9-C , 12-C ) :   1.0834
B( 12-C , 13-H ) :   0.9743 B( 12-C , 14-H ) :   0.9730 B( 12-C , 15-H ) :   0.9747
B( 16-S , 17-C ) :   1.1404 B( 16-S , 20-C ) :   1.1202 B( 17-C , 18-C ) :   1.6148
B( 17-C , 33-H ) :   0.9772 B( 18-C , 19-C ) :   1.2028 B( 18-C , 21-H ) :   0.9757
B( 19-C , 20-C ) :   1.6554 B( 19-C , 22-C ) :   1.0526 B( 22-C , 23-H ) :   0.9299
B( 22-C , 24-H ) :   0.9386 B( 22-C , 25-C ) :   1.0620 B( 25-C , 26-H ) :   0.9506
B( 25-C , 27-H ) :   0.9536 B( 25-C , 28-C ) :   1.0844 B( 28-C , 29-H ) :   0.9720
B( 28-C , 30-H ) :   0.9726 B( 28-C , 31-H ) :   0.9735

Dispersion correction           -0.014376373
FINAL SINGLE POINT ENERGY     -1339.866658370574

DIPOLE MOMENT
-------------
                                X             Y             Z
Electronic contribution:      6.16481      26.62657     -11.95385
Nuclear contribution   :     -6.34409     -27.07537      12.38274
                        -----------------------------------------
Total Dipole Moment    :     -0.17928      -0.44880       0.42889
                        -----------------------------------------
Magnitude (a.u.)       :      0.64615
Magnitude (Debye)      :      1.64238

Rotational constants in cm-1:     0.018809     0.008860     0.006601
Rotational constants in MHz :   563.879290   265.624551   197.892796

                             ****ORCA TERMINATED NORMALLY****
TOTAL RUN TIME: 0 days 0 hours 0 minutes 35 seconds 126 msec
