                         Program Version 4.2.1 -  RELEASE  -
|  1> ! wB97X-D3 SP def2-SVP
|  2> %pal
|  3> nprocs 16
|  4> end
|  5>
|  6> * xyz 0 1
|  7> S 	 -42.2087 	 37.4224 	 78.4205
|  8> C 	 -41.0835 	 38.7122 	 78.2789
|  9> C 	 -41.5771 	 39.8855 	 78.8165
| 10> C 	 -42.8961 	 39.7643 	 79.3019
| 11> C 	 -43.3942 	 38.4765 	 79.2566
| 12> H 	 -43.5073 	 40.5231 	 79.7023
| 13> C 	 -40.901 	 41.2114 	 78.8141
| 14> H 	 -41.3933 	 41.8162 	 78.0502
| 15> H 	 -39.8504 	 41.0975 	 78.4963
| 16> C 	 -40.8967 	 42.0935 	 80.1206
| 17> H 	 -40.4523 	 43.1225 	 80.0812
| 18> H 	 -42.0306 	 42.2548 	 80.3575
| 19> C 	 -40.3622 	 41.4736 	 81.4294
| 20> H 	 -40.9254 	 40.6558 	 81.8528
| 21> H 	 -39.431 	 40.9342 	 81.3213
| 22> H 	 -40.1345 	 42.1441 	 82.2709
| 23> S 	 -45.4362 	 36.8013 	 78.7838
| 24> C 	 -46.4581 	 36.2732 	 80.0922
| 25> C 	 -46.1826 	 36.8746 	 81.2817
| 26> C 	 -45.1199 	 37.79 	 81.1133
| 27> C 	 -44.5394 	 37.8015 	 79.8484
| 28> H 	 -46.8401 	 36.7193 	 82.0843
| 29> C 	 -44.6476 	 38.6984 	 82.239
| 30> H 	 -43.5899 	 38.6947 	 82.0705
| 31> H 	 -44.7422 	 38.23 	 83.1742
| 32> C 	 -45.2661 	 40.0921 	 82.2384
| 33> H 	 -45.3975 	 40.2881 	 81.1575
| 34> H 	 -44.6777 	 40.8697 	 82.7658
| 35> C 	 -46.7429 	 40.2974 	 82.7646
| 36> H 	 -46.8467 	 41.395 	 82.6798
| 37> H 	 -46.8079 	 39.9485 	 83.7921
| 38> H 	 -47.5322 	 39.8507 	 82.2
| 39> H 	 -40.1181 	 38.7199 	 77.8278
| 40> H 	 -47.3423 	 35.6421 	 80.0412
| 41> *
| 42>
| 43>                          ****END OF INPUT****

CARTESIAN COORDINATES (ANGSTROEM)
---------------------------------
  S    -42.208700   37.422400   78.420500
  C    -41.083500   38.712200   78.278900
  C    -41.577100   39.885500   78.816500
  C    -42.896100   39.764300   79.301900
  C    -43.394200   38.476500   79.256600
  H    -43.507300   40.523100   79.702300
  C    -40.901000   41.211400   78.814100
  H    -41.393300   41.816200   78.050200
  H    -39.850400   41.097500   78.496300
  C    -40.896700   42.093500   80.120600
  H    -40.452300   43.122500   80.081200
  H    -42.030600   42.254800   80.357500
  C    -40.362200   41.473600   81.429400
  H    -40.925400   40.655800   81.852800
  H    -39.431000   40.934200   81.321300
  H    -40.134500   42.144100   82.270900
  S    -45.436200   36.801300   78.783800
  C    -46.458100   36.273200   80.092200
  C    -46.182600   36.874600   81.281700
  C    -45.119900   37.790000   81.113300
  C    -44.539400   37.801500   79.848400
  H    -46.840100   36.719300   82.084300
  C    -44.647600   38.698400   82.239000
  H    -43.589900   38.694700   82.070500
  H    -44.742200   38.230000   83.174200
  C    -45.266100   40.092100   82.238400
  H    -45.397500   40.288100   81.157500
  H    -44.677700   40.869700   82.765800
  C    -46.742900   40.297400   82.764600
  H    -46.846700   41.395000   82.679800
  H    -46.807900   39.948500   83.792100
  H    -47.532200   39.850700   82.200000
  H    -40.118100   38.719900   77.827800
  H    -47.342300   35.642100   80.041200

 Total Charge           Charge          ....    0
 Multiplicity           Mult            ....    1
 Number of Electrons    NEL             ....  134
 Basis Dimension        Dim             ....  322

ORBITAL ENERGIES
----------------

  NO   OCC          E(Eh)            E(eV)
   0   2.0000     -88.967030     -2420.9160
   1   2.0000     -88.965886     -2420.8848
   2   2.0000     -10.333474      -281.1881
   3   2.0000     -10.324573      -280.9459
   4   2.0000     -10.313821      -280.6533
   5   2.0000     -10.311607      -280.5931
   6   2.0000     -10.304546      -280.4010
   7   2.0000     -10.302394      -280.3424
   8   2.0000     -10.298914      -280.2477
   9   2.0000     -10.297852      -280.2188
  10   2.0000     -10.292049      -280.0609
  11   2.0000     -10.291355      -280.0420
  12   2.0000     -10.287797      -279.9452
  13   2.0000     -10.280519      -279.7471
  14   2.0000     -10.279167      -279.7104
  15   2.0000     -10.273838      -279.5653
  16   2.0000      -8.082532      -219.9369
  17   2.0000      -8.080552      -219.8830
  18   2.0000      -6.040893      -164.3811
  19   2.0000      -6.039052      -164.3309
  20   2.0000      -6.036923      -164.2730
  21   2.0000      -6.034991      -164.2205
  22   2.0000      -6.033396      -164.1771
  23   2.0000      -6.031384      -164.1223
  24   2.0000      -1.013590       -27.5812
  25   2.0000      -0.990222       -26.9453
  26   2.0000      -0.907868       -24.7043
  27   2.0000      -0.905594       -24.6425
  28   2.0000      -0.874243       -23.7893
  29   2.0000      -0.849935       -23.1279
  30   2.0000      -0.845601       -23.0100
  31   2.0000      -0.823425       -22.4065
  32   2.0000      -0.786564       -21.4035
  33   2.0000      -0.773352       -21.0440
  34   2.0000      -0.713389       -19.4123
  35   2.0000      -0.697000       -18.9663
  36   2.0000      -0.689552       -18.7637
  37   2.0000      -0.666163       -18.1272
  38   2.0000      -0.644594       -17.5403
  39   2.0000      -0.626947       -17.0601
  40   2.0000      -0.595179       -16.1956
  41   2.0000      -0.571470       -15.5505
  42   2.0000      -0.554096       -15.0777
  43   2.0000      -0.548578       -14.9276
  44   2.0000      -0.542084       -14.7509
  45   2.0000      -0.539092       -14.6694
  46   2.0000      -0.519883       -14.1467
  47   2.0000      -0.509126       -13.8540
  48   2.0000      -0.506740       -13.7891
  49   2.0000      -0.497460       -13.5366
  50   2.0000      -0.494094       -13.4450
  51   2.0000      -0.475883       -12.9494
  52   2.0000      -0.474674       -12.9165
  53   2.0000      -0.471244       -12.8232
  54   2.0000      -0.457714       -12.4550
  55   2.0000      -0.449435       -12.2297
  56   2.0000      -0.443795       -12.0763
  57   2.0000      -0.440116       -11.9762
  58   2.0000      -0.437636       -11.9087
  59   2.0000      -0.423721       -11.5300
  60   2.0000      -0.419176       -11.4063
  61   2.0000      -0.407206       -11.0806
  62   2.0000      -0.401336       -10.9209
  63   2.0000      -0.351709        -9.5705
  64   2.0000      -0.333723        -9.0811
  65   2.0000      -0.331854        -9.0302
  66   2.0000      -0.291468        -7.9313
  67   0.0000       0.029885         0.8132
  68   0.0000       0.067910         1.8479
  69   0.0000       0.113726         3.0946
  70   0.0000       0.124381         3.3846
  71   0.0000       0.125654         3.4192

MULLIKEN ATOMIC CHARGES
-----------------------
   0 S :    0.111093
   1 C :   -0.084493
   2 C :   -0.094033
   3 C :    0.041609
   4 C :   -0.140883
   5 H :   -0.005426
   6 C :    0.077964
   7 H :    0.047297
   8 H :    0.020909
   9 C :   -0.122049
  10 H :    0.050432
  11 H :    0.036930
  12 C :   -0.054189
  13 H :    0.024227
  14 H :    0.011749
  15 H :    0.034589
  16 S :    0.118018
  17 C :   -0.082753
  18 C :   -0.019958
  19 C :   -0.074590
  20 C :   -0.159364
  21 H :    0.002420
  22 C :    0.135161
  23 H :    0.024694
  24 H :   -0.001526
  25 C :   -0.113285
  26 H :    0.039085
  27 H :    0.045028
  28 C :   -0.053223
  29 H :    0.038529
  30 H :    0.029367
  31 H :    0.033800
  32 H :    0.032356
  33 H :    0.050516
Sum of atomic charges:   -0.0000000

LOEWDIN ATOMIC CHARGES
----------------------
   0 S :    0.404979
   1 C :   -0.200519
   2 C :   -0.069812
   3 C :   -0.054433
   4 C :   -0.176130
   5 H :    0.024640
   6 C :   -0.033398
   7 H :    0.039675
   8 H :    0.028678
   9 C :   -0.051122
  10 H :    0.034995
  11 H :    0.029782
  12 C :   -0.084235
  13 H :    0.023421
  14 H :    0.021719
  15 H :    0.029968
  16 S :    0.428515
  17 C :   -0.183752
  18 C :   -0.067906
  19 C :   -0.049696
  20 C :   -0.220454
  21 H :    0.028222
  22 C :   -0.033261
  23 H :    0.033514
  24 H :    0.018627
  25 C :   -0.043223
  26 H :    0.026210
  27 H :    0.029181
  28 C :   -0.063500
  29 H :    0.032732
  30 H :    0.020167
  31 H :    0.019001
  32 H :    0.026797
  33 H :    0.030620

  Mayer bond orders larger than 0.100000
B(  0-S ,  1-C ) :   1.1426 B(  0-S ,  4-C ) :   1.1467 B(  1-C ,  2-C ) :   1.6118
B(  1-C ,  4-C ) :   0.1013 B(  1-C , 32-H ) :   0.9640 B(  2-C ,  3-C ) :   1.2243
B(  2-C ,  6-C ) :   1.0295 B(  3-C ,  4-C ) :   1.5819 B(  3-C ,  5-H ) :   1.0092
B(  4-C , 20-C ) :   1.0172 B(  6-C ,  7-H ) :   0.9381 B(  6-C ,  8-H ) :   0.9409
B(  6-C ,  9-C ) :   1.0573 B(  9-C , 10-H ) :   0.9611 B(  9-C , 11-H ) :   0.9547
B(  9-C , 12-C ) :   1.0622 B( 12-C , 13-H ) :   0.9723 B( 12-C , 14-H ) :   0.9720
B( 12-C , 15-H ) :   0.9769 B( 16-S , 17-C ) :   1.1616 B( 16-S , 20-C ) :   1.1511
B( 17-C , 18-C ) :   1.6130 B( 17-C , 33-H ) :   0.9615 B( 18-C , 19-C ) :   1.2450
B( 18-C , 21-H ) :   1.0036 B( 19-C , 20-C ) :   1.5797 B( 19-C , 22-C ) :   1.0402
B( 22-C , 23-H ) :   0.9237 B( 22-C , 24-H ) :   0.9346 B( 22-C , 25-C ) :   1.0555
B( 25-C , 26-H ) :   0.9522 B( 25-C , 27-H ) :   0.9611 B( 25-C , 28-C ) :   1.0715
B( 28-C , 29-H ) :   0.9762 B( 28-C , 30-H ) :   0.9768 B( 28-C , 31-H ) :   0.9778

Dispersion correction           -0.015262094
FINAL SINGLE POINT ENERGY     -1339.868243229188

DIPOLE MOMENT
-------------
                                X             Y             Z
Electronic contribution:     -3.52871     -23.19322     -18.52160
Nuclear contribution   :      3.47148      23.66300      18.93176
                        -----------------------------------------
Total Dipole Moment    :     -0.05723       0.46978       0.41017
                        -----------------------------------------
Magnitude (a.u.)       :      0.62627
Magnitude (Debye)      :      1.59184

Rotational constants in cm-1:     0.018068     0.010248     0.007069
Rotational constants in MHz :   541.670927   307.226807   211.921350

                             ****ORCA TERMINATED NORMALLY****
TOTAL RUN TIME: 0 days 0 hours 0 minutes 31 seconds 692 msec
