                         Program Version 4.2.1 -  RELEASE  -
|  1> ! wB97X-D3 SP def2-SVP
|  2> %pal
|  3> nprocs 16
|  4> end
|  5>
|  6> * xyz 0 1
|  7> S 	 29.2763 	 -2.23303 	 76.3163
|  8> C 	 28.9674 	 -0.605544 	 76.9215
|  9> C 	 28.548 	 0.190521 	 75.8668
| 10> C 	 28.5589 	 -0.489315 	 74.6306
| 11> C 	 28.8757 	 -1.80576 	 74.7286
| 12> H 	 28.2301 	 -0.0844008 	 73.7243
| 13> C 	 28.2144 	 1.68707 	 75.9301
| 14> H 	 27.9438 	 2.01805 	 76.9105
| 15> H 	 27.265 	 1.77739 	 75.3723
| 16> C 	 29.2882 	 2.50903 	 75.3417
| 17> H 	 30.1729 	 2.33218 	 75.9168
| 18> H 	 29.6882 	 2.11608 	 74.3756
| 19> C 	 29.0337 	 4.04189 	 75.2534
| 20> H 	 28.0471 	 4.20764 	 74.7597
| 21> H 	 29.0366 	 4.43658 	 76.3195
| 22> H 	 29.8968 	 4.53019 	 74.7206
| 23> S 	 27.1811 	 -3.42123 	 73.2523
| 24> C 	 27.9395 	 -4.58685 	 72.1343
| 25> C 	 29.3292 	 -4.50461 	 72.1375
| 26> C 	 29.7914 	 -3.36937 	 72.9314
| 27> C 	 28.7729 	 -2.72049 	 73.6138
| 28> H 	 29.9764 	 -5.21885 	 71.6043
| 29> C 	 31.2474 	 -3.00943 	 72.9951
| 30> H 	 31.4343 	 -2.32468 	 73.8317
| 31> H 	 31.3388 	 -2.24031 	 72.1562
| 32> C 	 32.3612 	 -4.20313 	 72.8755
| 33> H 	 32.3657 	 -4.56381 	 71.8432
| 34> H 	 32.0348 	 -4.97256 	 73.5219
| 35> C 	 33.7614 	 -3.66964 	 73.1637
| 36> H 	 34.5281 	 -4.4427 	 73.0033
| 37> H 	 33.8744 	 -3.38761 	 74.1742
| 38> H 	 34.0512 	 -2.75424 	 72.6976
| 39> H 	 28.9234 	 -0.24908 	 77.9564
| 40> H 	 27.4369 	 -5.38819 	 71.7071
| 41> *
| 42>
| 43>                          ****END OF INPUT****

CARTESIAN COORDINATES (ANGSTROEM)
---------------------------------
  S     29.276300   -2.233030   76.316300
  C     28.967400   -0.605544   76.921500
  C     28.548000    0.190521   75.866800
  C     28.558900   -0.489315   74.630600
  C     28.875700   -1.805760   74.728600
  H     28.230100   -0.084401   73.724300
  C     28.214400    1.687070   75.930100
  H     27.943800    2.018050   76.910500
  H     27.265000    1.777390   75.372300
  C     29.288200    2.509030   75.341700
  H     30.172900    2.332180   75.916800
  H     29.688200    2.116080   74.375600
  C     29.033700    4.041890   75.253400
  H     28.047100    4.207640   74.759700
  H     29.036600    4.436580   76.319500
  H     29.896800    4.530190   74.720600
  S     27.181100   -3.421230   73.252300
  C     27.939500   -4.586850   72.134300
  C     29.329200   -4.504610   72.137500
  C     29.791400   -3.369370   72.931400
  C     28.772900   -2.720490   73.613800
  H     29.976400   -5.218850   71.604300
  C     31.247400   -3.009430   72.995100
  H     31.434300   -2.324680   73.831700
  H     31.338800   -2.240310   72.156200
  C     32.361200   -4.203130   72.875500
  H     32.365700   -4.563810   71.843200
  H     32.034800   -4.972560   73.521900
  C     33.761400   -3.669640   73.163700
  H     34.528100   -4.442700   73.003300
  H     33.874400   -3.387610   74.174200
  H     34.051200   -2.754240   72.697600
  H     28.923400   -0.249080   77.956400
  H     27.436900   -5.388190   71.707100

 Total Charge           Charge          ....    0
 Multiplicity           Mult            ....    1
 Number of Electrons    NEL             ....  134
 Basis Dimension        Dim             ....  322

ORBITAL ENERGIES
----------------

  NO   OCC          E(Eh)            E(eV)
   0   2.0000     -88.966201     -2420.8934
   1   2.0000     -88.964812     -2420.8556
   2   2.0000     -10.321970      -280.8751
   3   2.0000     -10.318785      -280.7884
   4   2.0000     -10.317272      -280.7472
   5   2.0000     -10.314317      -280.6668
   6   2.0000     -10.305900      -280.4378
   7   2.0000     -10.299658      -280.2679
   8   2.0000     -10.298484      -280.2360
   9   2.0000     -10.297634      -280.2129
  10   2.0000     -10.295423      -280.1527
  11   2.0000     -10.290995      -280.0322
  12   2.0000     -10.288871      -279.9744
  13   2.0000     -10.281547      -279.7751
  14   2.0000     -10.280965      -279.7593
  15   2.0000     -10.273878      -279.5664
  16   2.0000      -8.081421      -219.9067
  17   2.0000      -8.078567      -219.8290
  18   2.0000      -6.039921      -164.3546
  19   2.0000      -6.037191      -164.2803
  20   2.0000      -6.035742      -164.2409
  21   2.0000      -6.033274      -164.1737
  22   2.0000      -6.032272      -164.1465
  23   2.0000      -6.029213      -164.0632
  24   2.0000      -1.009977       -27.4829
  25   2.0000      -0.978629       -26.6299
  26   2.0000      -0.916067       -24.9275
  27   2.0000      -0.898088       -24.4382
  28   2.0000      -0.868384       -23.6299
  29   2.0000      -0.850368       -23.1397
  30   2.0000      -0.846922       -23.0459
  31   2.0000      -0.812911       -22.1204
  32   2.0000      -0.780893       -21.2492
  33   2.0000      -0.767309       -20.8795
  34   2.0000      -0.713797       -19.4234
  35   2.0000      -0.702014       -19.1028
  36   2.0000      -0.695373       -18.9220
  37   2.0000      -0.658358       -17.9148
  38   2.0000      -0.642111       -17.4727
  39   2.0000      -0.620365       -16.8810
  40   2.0000      -0.592877       -16.1330
  41   2.0000      -0.568137       -15.4598
  42   2.0000      -0.559458       -15.2236
  43   2.0000      -0.555232       -15.1086
  44   2.0000      -0.529331       -14.4038
  45   2.0000      -0.527074       -14.3424
  46   2.0000      -0.518303       -14.1037
  47   2.0000      -0.512473       -13.9451
  48   2.0000      -0.503075       -13.6894
  49   2.0000      -0.496022       -13.4974
  50   2.0000      -0.486221       -13.2307
  51   2.0000      -0.480902       -13.0860
  52   2.0000      -0.467242       -12.7143
  53   2.0000      -0.463512       -12.6128
  54   2.0000      -0.458396       -12.4736
  55   2.0000      -0.454923       -12.3791
  56   2.0000      -0.446122       -12.1396
  57   2.0000      -0.441306       -12.0085
  58   2.0000      -0.434186       -11.8148
  59   2.0000      -0.425027       -11.5656
  60   2.0000      -0.418445       -11.3865
  61   2.0000      -0.416820       -11.3423
  62   2.0000      -0.406313       -11.0563
  63   2.0000      -0.333987        -9.0882
  64   2.0000      -0.329288        -8.9604
  65   2.0000      -0.321486        -8.7481
  66   2.0000      -0.306565        -8.3421
  67   0.0000       0.045883         1.2485
  68   0.0000       0.054163         1.4739
  69   0.0000       0.113411         3.0861
  70   0.0000       0.119799         3.2599
  71   0.0000       0.128237         3.4895

MULLIKEN ATOMIC CHARGES
-----------------------
   0 S :    0.130208
   1 C :   -0.133415
   2 C :   -0.096621
   3 C :    0.037281
   4 C :   -0.158664
   5 H :   -0.010788
   6 C :    0.114177
   7 H :    0.002759
   8 H :    0.022320
   9 C :   -0.089283
  10 H :    0.011127
  11 H :    0.024420
  12 C :   -0.065347
  13 H :    0.045014
  14 H :    0.041673
  15 H :    0.050411
  16 S :    0.104762
  17 C :   -0.063131
  18 C :   -0.044285
  19 C :   -0.027565
  20 C :   -0.172484
  21 H :    0.034389
  22 C :    0.008003
  23 H :    0.024984
  24 H :    0.046526
  25 C :   -0.056989
  26 H :    0.039980
  27 H :    0.038848
  28 C :   -0.020469
  29 H :    0.036228
  30 H :    0.013958
  31 H :    0.022714
  32 H :    0.052715
  33 H :    0.036544
Sum of atomic charges:    0.0000000

LOEWDIN ATOMIC CHARGES
----------------------
   0 S :    0.430030
   1 C :   -0.205471
   2 C :   -0.056754
   3 C :   -0.058568
   4 C :   -0.217065
   5 H :    0.022878
   6 C :   -0.029070
   7 H :    0.022817
   8 H :    0.031447
   9 C :   -0.054779
  10 H :    0.021653
  11 H :    0.026415
  12 C :   -0.071538
  13 H :    0.028174
  14 H :    0.031041
  15 H :    0.034409
  16 S :    0.382363
  17 C :   -0.161778
  18 C :   -0.069665
  19 C :   -0.051088
  20 C :   -0.202661
  21 H :    0.036391
  22 C :   -0.044549
  23 H :    0.027665
  24 H :    0.045734
  25 C :   -0.027196
  26 H :    0.025626
  27 H :    0.022021
  28 C :   -0.065336
  29 H :    0.030655
  30 H :    0.021229
  31 H :    0.024759
  32 H :    0.035108
  33 H :    0.015101

  Mayer bond orders larger than 0.100000
B(  0-S ,  1-C ) :   1.1353 B(  0-S ,  4-C ) :   1.1596 B(  1-C ,  2-C ) :   1.6088
B(  1-C , 32-H ) :   0.9668 B(  2-C ,  3-C ) :   1.2469 B(  2-C ,  6-C ) :   1.0244
B(  3-C ,  4-C ) :   1.5604 B(  3-C ,  5-H ) :   1.0060 B(  4-C , 20-C ) :   1.0331
B(  6-C ,  7-H ) :   0.9372 B(  6-C ,  8-H ) :   0.9323 B(  6-C ,  9-C ) :   1.0648
B(  9-C , 10-H ) :   0.9448 B(  9-C , 11-H ) :   0.9548 B(  9-C , 12-C ) :   1.0739
B( 12-C , 13-H ) :   0.9761 B( 12-C , 14-H ) :   0.9747 B( 12-C , 15-H ) :   0.9737
B( 16-S , 17-C ) :   1.1469 B( 16-S , 20-C ) :   1.1179 B( 17-C , 18-C ) :   1.6313
B( 17-C , 33-H ) :   0.9704 B( 18-C , 19-C ) :   1.2158 B( 18-C , 21-H ) :   0.9824
B( 19-C , 20-C ) :   1.6158 B( 19-C , 22-C ) :   1.0508 B( 22-C , 23-H ) :   0.9353
B( 22-C , 24-H ) :   0.9269 B( 22-C , 25-C ) :   1.0376 B( 25-C , 26-H ) :   0.9504
B( 25-C , 27-H ) :   0.9649 B( 25-C , 28-C ) :   1.0873 B( 28-C , 29-H ) :   0.9733
B( 28-C , 30-H ) :   0.9716 B( 28-C , 31-H ) :   0.9728

Dispersion correction           -0.013830871
FINAL SINGLE POINT ENERGY     -1339.873111949049

DIPOLE MOMENT
-------------
                                X             Y             Z
Electronic contribution:    -17.05945     -16.36627       3.10878
Nuclear contribution   :     17.45759      16.55514      -3.20350
                        -----------------------------------------
Total Dipole Moment    :      0.39813       0.18887      -0.09472
                        -----------------------------------------
Magnitude (a.u.)       :      0.45072
Magnitude (Debye)      :      1.14565

Rotational constants in cm-1:     0.018027     0.007699     0.006552
Rotational constants in MHz :   540.433320   230.804364   196.431044

                             ****ORCA TERMINATED NORMALLY****
TOTAL RUN TIME: 0 days 0 hours 0 minutes 27 seconds 323 msec
