                         Program Version 4.2.1 -  RELEASE  -
|  1> ! wB97X-D3 SP def2-SVP
|  2> %pal
|  3> nprocs 16
|  4> end
|  5>
|  6> * xyz 0 1
|  7> S 	 -21.5302 	 -2.68114 	 81.815
|  8> C 	 -21.8076 	 -3.8244 	 80.5521
|  9> C 	 -21.1909 	 -5.02781 	 80.7752
| 10> C 	 -20.6726 	 -5.11212 	 82.0662
| 11> C 	 -20.7777 	 -3.89817 	 82.7506
| 12> H 	 -20.2444 	 -5.96579 	 82.5502
| 13> C 	 -21.3368 	 -6.22629 	 79.8964
| 14> H 	 -20.6571 	 -7.0728 	 80.1795
| 15> H 	 -21.0346 	 -6.01416 	 78.8833
| 16> C 	 -22.7144 	 -7.00173 	 79.8472
| 17> H 	 -23.524 	 -6.31718 	 79.4702
| 18> H 	 -22.6928 	 -7.82985 	 79.1759
| 19> C 	 -23.2275 	 -7.39587 	 81.1744
| 20> H 	 -23.6837 	 -6.52603 	 81.6482
| 21> H 	 -23.9673 	 -8.19723 	 80.9487
| 22> H 	 -22.4485 	 -7.87998 	 81.7929
| 23> S 	 -21.7475 	 -3.53194 	 85.3807
| 24> C 	 -20.5714 	 -3.48527 	 86.6832
| 25> C 	 -19.3163 	 -3.60851 	 86.1848
| 26> C 	 -19.2069 	 -3.81719 	 84.7878
| 27> C 	 -20.473 	 -3.76367 	 84.1685
| 28> H 	 -18.561 	 -3.58159 	 86.8925
| 29> C 	 -17.8469 	 -4.04105 	 84.1571
| 30> H 	 -17.2621 	 -3.08781 	 84.2688
| 31> H 	 -17.9955 	 -4.09911 	 83.0552
| 32> C 	 -17.1058 	 -5.30592 	 84.6643
| 33> H 	 -17.8139 	 -6.13131 	 84.4866
| 34> H 	 -16.9808 	 -5.04086 	 85.6968
| 35> C 	 -15.8379 	 -5.67886 	 83.9796
| 36> H 	 -15.386 	 -6.6191 	 84.2259
| 37> H 	 -15.1654 	 -4.87958 	 84.2938
| 38> H 	 -16.0739 	 -5.60711 	 82.9065
| 39> H 	 -22.0978 	 -3.55209 	 79.5881
| 40> H 	 -20.8145 	 -3.33418 	 87.8248
| 41> *
| 42>
| 43>                          ****END OF INPUT****

CARTESIAN COORDINATES (ANGSTROEM)
---------------------------------
  S    -21.530200   -2.681140   81.815000
  C    -21.807600   -3.824400   80.552100
  C    -21.190900   -5.027810   80.775200
  C    -20.672600   -5.112120   82.066200
  C    -20.777700   -3.898170   82.750600
  H    -20.244400   -5.965790   82.550200
  C    -21.336800   -6.226290   79.896400
  H    -20.657100   -7.072800   80.179500
  H    -21.034600   -6.014160   78.883300
  C    -22.714400   -7.001730   79.847200
  H    -23.524000   -6.317180   79.470200
  H    -22.692800   -7.829850   79.175900
  C    -23.227500   -7.395870   81.174400
  H    -23.683700   -6.526030   81.648200
  H    -23.967300   -8.197230   80.948700
  H    -22.448500   -7.879980   81.792900
  S    -21.747500   -3.531940   85.380700
  C    -20.571400   -3.485270   86.683200
  C    -19.316300   -3.608510   86.184800
  C    -19.206900   -3.817190   84.787800
  C    -20.473000   -3.763670   84.168500
  H    -18.561000   -3.581590   86.892500
  C    -17.846900   -4.041050   84.157100
  H    -17.262100   -3.087810   84.268800
  H    -17.995500   -4.099110   83.055200
  C    -17.105800   -5.305920   84.664300
  H    -17.813900   -6.131310   84.486600
  H    -16.980800   -5.040860   85.696800
  C    -15.837900   -5.678860   83.979600
  H    -15.386000   -6.619100   84.225900
  H    -15.165400   -4.879580   84.293800
  H    -16.073900   -5.607110   82.906500
  H    -22.097800   -3.552090   79.588100
  H    -20.814500   -3.334180   87.824800

 Total Charge           Charge          ....    0
 Multiplicity           Mult            ....    1
 Number of Electrons    NEL             ....  134
 Basis Dimension        Dim             ....  322

ORBITAL ENERGIES
----------------

  NO   OCC          E(Eh)            E(eV)
   0   2.0000     -88.971218     -2421.0299
   1   2.0000     -88.964174     -2420.8383
   2   2.0000     -10.327890      -281.0362
   3   2.0000     -10.324669      -280.9485
   4   2.0000     -10.321930      -280.8740
   5   2.0000     -10.306127      -280.4440
   6   2.0000     -10.303243      -280.3655
   7   2.0000     -10.296417      -280.1797
   8   2.0000     -10.294893      -280.1383
   9   2.0000     -10.292520      -280.0737
  10   2.0000     -10.290395      -280.0159
  11   2.0000     -10.283731      -279.8346
  12   2.0000     -10.283634      -279.8319
  13   2.0000     -10.282738      -279.8075
  14   2.0000     -10.276100      -279.6269
  15   2.0000     -10.272808      -279.5373
  16   2.0000      -8.086861      -220.0547
  17   2.0000      -8.078429      -219.8252
  18   2.0000      -6.045081      -164.4950
  19   2.0000      -6.041184      -164.3890
  20   2.0000      -6.037934      -164.3005
  21   2.0000      -6.037031      -164.2760
  22   2.0000      -6.032945      -164.1648
  23   2.0000      -6.029184      -164.0624
  24   2.0000      -1.012270       -27.5453
  25   2.0000      -0.986710       -26.8498
  26   2.0000      -0.913308       -24.8524
  27   2.0000      -0.911233       -24.7959
  28   2.0000      -0.871472       -23.7140
  29   2.0000      -0.857831       -23.3428
  30   2.0000      -0.852002       -23.1841
  31   2.0000      -0.815040       -22.1784
  32   2.0000      -0.784010       -21.3340
  33   2.0000      -0.769871       -20.9493
  34   2.0000      -0.703932       -19.1550
  35   2.0000      -0.693248       -18.8642
  36   2.0000      -0.689239       -18.7551
  37   2.0000      -0.654642       -17.8137
  38   2.0000      -0.644153       -17.5283
  39   2.0000      -0.615347       -16.7444
  40   2.0000      -0.592522       -16.1233
  41   2.0000      -0.576844       -15.6967
  42   2.0000      -0.575249       -15.6533
  43   2.0000      -0.555859       -15.1257
  44   2.0000      -0.545672       -14.8485
  45   2.0000      -0.526703       -14.3323
  46   2.0000      -0.518932       -14.1209
  47   2.0000      -0.511334       -13.9141
  48   2.0000      -0.506560       -13.7842
  49   2.0000      -0.493420       -13.4266
  50   2.0000      -0.488763       -13.2999
  51   2.0000      -0.479530       -13.0487
  52   2.0000      -0.471720       -12.8362
  53   2.0000      -0.465585       -12.6692
  54   2.0000      -0.460362       -12.5271
  55   2.0000      -0.450660       -12.2631
  56   2.0000      -0.444707       -12.1011
  57   2.0000      -0.433601       -11.7989
  58   2.0000      -0.428814       -11.6686
  59   2.0000      -0.426595       -11.6083
  60   2.0000      -0.415561       -11.3080
  61   2.0000      -0.412050       -11.2125
  62   2.0000      -0.406296       -11.0559
  63   2.0000      -0.342402        -9.3172
  64   2.0000      -0.333307        -9.0697
  65   2.0000      -0.328746        -8.9456
  66   2.0000      -0.297703        -8.1009
  67   0.0000       0.035027         0.9531
  68   0.0000       0.063041         1.7154
  69   0.0000       0.116271         3.1639
  70   0.0000       0.125261         3.4085
  71   0.0000       0.130158         3.5418

MULLIKEN ATOMIC CHARGES
-----------------------
   0 S :    0.141540
   1 C :   -0.097265
   2 C :   -0.052474
   3 C :    0.038572
   4 C :   -0.193507
   5 H :    0.006880
   6 C :    0.037359
   7 H :    0.023317
   8 H :    0.022112
   9 C :   -0.075676
  10 H :    0.023734
  11 H :    0.023791
  12 C :   -0.057423
  13 H :    0.054458
  14 H :    0.034090
  15 H :    0.025248
  16 S :    0.108385
  17 C :   -0.139650
  18 C :   -0.006726
  19 C :   -0.007972
  20 C :   -0.170403
  21 H :   -0.011584
  22 C :    0.034642
  23 H :    0.040867
  24 H :    0.019934
  25 C :   -0.090952
  26 H :    0.032378
  27 H :    0.025705
  28 C :   -0.008963
  29 H :    0.041327
  30 H :    0.024327
  31 H :    0.032376
  32 H :    0.027241
  33 H :    0.094311
Sum of atomic charges:    0.0000000

LOEWDIN ATOMIC CHARGES
----------------------
   0 S :    0.447677
   1 C :   -0.195300
   2 C :   -0.067901
   3 C :   -0.049294
   4 C :   -0.212348
   5 H :    0.029881
   6 C :   -0.036852
   7 H :    0.032764
   8 H :    0.026684
   9 C :   -0.041433
  10 H :    0.025855
  11 H :    0.017812
  12 C :   -0.069700
  13 H :    0.031247
  14 H :    0.032954
  15 H :    0.021031
  16 S :    0.390952
  17 C :   -0.198694
  18 C :   -0.073468
  19 C :   -0.052129
  20 C :   -0.197469
  21 H :    0.018489
  22 C :   -0.038104
  23 H :    0.035450
  24 H :    0.026618
  25 C :   -0.041466
  26 H :    0.025854
  27 H :    0.018395
  28 C :   -0.062700
  29 H :    0.025622
  30 H :    0.027543
  31 H :    0.030368
  32 H :    0.014865
  33 H :    0.056797

  Mayer bond orders larger than 0.100000
B(  0-S ,  1-C ) :   1.1584 B(  0-S ,  4-C ) :   1.1860 B(  1-C ,  2-C ) :   1.5762
B(  1-C , 32-H ) :   0.9683 B(  2-C ,  3-C ) :   1.2684 B(  2-C ,  6-C ) :   1.0391
B(  3-C ,  4-C ) :   1.5325 B(  3-C ,  5-H ) :   1.0005 B(  4-C , 20-C ) :   1.0317
B(  6-C ,  7-H ) :   0.9459 B(  6-C ,  8-H ) :   0.9344 B(  6-C ,  9-C ) :   1.0672
B(  9-C , 10-H ) :   0.9536 B(  9-C , 11-H ) :   0.9611 B(  9-C , 12-C ) :   1.0798
B( 12-C , 13-H ) :   0.9741 B( 12-C , 14-H ) :   0.9714 B( 12-C , 15-H ) :   0.9743
B( 16-S , 17-C ) :   1.1444 B( 16-S , 20-C ) :   1.1439 B( 17-C , 18-C ) :   1.6318
B( 17-C , 33-H ) :   0.9495 B( 18-C , 19-C ) :   1.2266 B( 18-C , 21-H ) :   0.9983
B( 19-C , 20-C ) :   1.5871 B( 19-C , 22-C ) :   1.0523 B( 22-C , 23-H ) :   0.9356
B( 22-C , 24-H ) :   0.9239 B( 22-C , 25-C ) :   1.0460 B( 25-C , 26-H ) :   0.9546
B( 25-C , 27-H ) :   0.9589 B( 25-C , 28-C ) :   1.0871 B( 28-C , 29-H ) :   0.9744
B( 28-C , 30-H ) :   0.9723 B( 28-C , 31-H ) :   0.9710

Dispersion correction           -0.014491457
FINAL SINGLE POINT ENERGY     -1339.871359056336

DIPOLE MOMENT
-------------
                                X             Y             Z
Electronic contribution:    -11.59682      19.55697       7.57086
Nuclear contribution   :     11.97123     -19.94763      -7.67870
                        -----------------------------------------
Total Dipole Moment    :      0.37441      -0.39066      -0.10784
                        -----------------------------------------
Magnitude (a.u.)       :      0.55175
Magnitude (Debye)      :      1.40244

Rotational constants in cm-1:     0.017309     0.008776     0.007250
Rotational constants in MHz :   518.913357   263.108855   217.347812

                             ****ORCA TERMINATED NORMALLY****
TOTAL RUN TIME: 0 days 0 hours 0 minutes 33 seconds 749 msec
