                         Program Version 4.2.1 -  RELEASE  -
|  1> ! wB97X-D3 SP def2-SVP
|  2> %pal
|  3> nprocs 16
|  4> end
|  5>
|  6> * xyz 0 1
|  7> S 	 -56.2457 	 60.3151 	 133.668
|  8> C 	 -55.4242 	 60.0184 	 132.139
|  9> C 	 -54.0767 	 60.1267 	 132.164
| 10> C 	 -53.6257 	 60.6832 	 133.402
| 11> C 	 -54.674 	 60.9166 	 134.288
| 12> H 	 -52.6639 	 60.9334 	 133.772
| 13> C 	 -53.1006 	 59.6126 	 131.137
| 14> H 	 -52.1823 	 60.027 	 131.436
| 15> H 	 -53.2936 	 60.1411 	 130.239
| 16> C 	 -53.0735 	 58.0928 	 130.811
| 17> H 	 -53.1721 	 57.7488 	 131.84
| 18> H 	 -54.0487 	 57.7444 	 130.417
| 19> C 	 -51.8581 	 57.5342 	 130.148
| 20> H 	 -50.9389 	 57.8074 	 130.714
| 21> H 	 -51.8328 	 56.4088 	 130.152
| 22> H 	 -51.757 	 57.9268 	 129.156
| 23> S 	 -54.6255 	 63.4121 	 135.314
| 24> C 	 -54.5512 	 63.5825 	 137.038
| 25> C 	 -54.5582 	 62.377 	 137.627
| 26> C 	 -54.6257 	 61.2089 	 136.817
| 27> C 	 -54.6024 	 61.6473 	 135.514
| 28> H 	 -54.4296 	 62.4471 	 138.686
| 29> C 	 -54.8479 	 59.8081 	 137.39
| 30> H 	 -53.7834 	 59.4972 	 137.552
| 31> H 	 -55.2109 	 59.2003 	 136.614
| 32> C 	 -55.652 	 59.66 	 138.702
| 33> H 	 -55.1895 	 60.36 	 139.365
| 34> H 	 -55.5242 	 58.7214 	 139.143
| 35> C 	 -57.1773 	 59.7091 	 138.634
| 36> H 	 -57.5173 	 58.6939 	 138.331
| 37> H 	 -57.5062 	 60.3309 	 137.871
| 38> H 	 -57.5932 	 60.076 	 139.529
| 39> H 	 -55.9422 	 59.5435 	 131.337
| 40> H 	 -54.5543 	 64.5121 	 137.586
| 41> *
| 42>
| 43>                          ****END OF INPUT****

CARTESIAN COORDINATES (ANGSTROEM)
---------------------------------
  S    -56.245700   60.315100  133.668000
  C    -55.424200   60.018400  132.139000
  C    -54.076700   60.126700  132.164000
  C    -53.625700   60.683200  133.402000
  C    -54.674000   60.916600  134.288000
  H    -52.663900   60.933400  133.772000
  C    -53.100600   59.612600  131.137000
  H    -52.182300   60.027000  131.436000
  H    -53.293600   60.141100  130.239000
  C    -53.073500   58.092800  130.811000
  H    -53.172100   57.748800  131.840000
  H    -54.048700   57.744400  130.417000
  C    -51.858100   57.534200  130.148000
  H    -50.938900   57.807400  130.714000
  H    -51.832800   56.408800  130.152000
  H    -51.757000   57.926800  129.156000
  S    -54.625500   63.412100  135.314000
  C    -54.551200   63.582500  137.038000
  C    -54.558200   62.377000  137.627000
  C    -54.625700   61.208900  136.817000
  C    -54.602400   61.647300  135.514000
  H    -54.429600   62.447100  138.686000
  C    -54.847900   59.808100  137.390000
  H    -53.783400   59.497200  137.552000
  H    -55.210900   59.200300  136.614000
  C    -55.652000   59.660000  138.702000
  H    -55.189500   60.360000  139.365000
  H    -55.524200   58.721400  139.143000
  C    -57.177300   59.709100  138.634000
  H    -57.517300   58.693900  138.331000
  H    -57.506200   60.330900  137.871000
  H    -57.593200   60.076000  139.529000
  H    -55.942200   59.543500  131.337000
  H    -54.554300   64.512100  137.586000

 Total Charge           Charge          ....    0
 Multiplicity           Mult            ....    1
 Number of Electrons    NEL             ....  134
 Basis Dimension        Dim             ....  322

ORBITAL ENERGIES
----------------

  NO   OCC          E(Eh)            E(eV)
   0   2.0000     -88.964385     -2420.8440
   1   2.0000     -88.960229     -2420.7309
   2   2.0000     -10.323151      -280.9072
   3   2.0000     -10.318937      -280.7926
   4   2.0000     -10.307738      -280.4878
   5   2.0000     -10.307058      -280.4693
   6   2.0000     -10.303465      -280.3715
   7   2.0000     -10.296918      -280.1934
   8   2.0000     -10.295100      -280.1439
   9   2.0000     -10.291667      -280.0505
  10   2.0000     -10.286844      -279.9193
  11   2.0000     -10.283974      -279.8412
  12   2.0000     -10.283128      -279.8181
  13   2.0000     -10.281919      -279.7852
  14   2.0000     -10.280829      -279.7556
  15   2.0000     -10.269287      -279.4415
  16   2.0000      -8.078433      -219.8253
  17   2.0000      -8.075197      -219.7373
  18   2.0000      -6.036852      -164.2711
  19   2.0000      -6.033701      -164.1854
  20   2.0000      -6.033333      -164.1754
  21   2.0000      -6.029817      -164.0797
  22   2.0000      -6.029053      -164.0589
  23   2.0000      -6.025790      -163.9701
  24   2.0000      -1.005654       -27.3652
  25   2.0000      -0.982403       -26.7326
  26   2.0000      -0.911481       -24.8027
  27   2.0000      -0.909817       -24.7574
  28   2.0000      -0.871831       -23.7237
  29   2.0000      -0.852930       -23.2094
  30   2.0000      -0.851094       -23.1594
  31   2.0000      -0.813681       -22.1414
  32   2.0000      -0.789957       -21.4958
  33   2.0000      -0.775324       -21.0976
  34   2.0000      -0.711848       -19.3704
  35   2.0000      -0.706872       -19.2350
  36   2.0000      -0.699225       -19.0269
  37   2.0000      -0.653153       -17.7732
  38   2.0000      -0.645135       -17.5550
  39   2.0000      -0.610957       -16.6250
  40   2.0000      -0.598907       -16.2971
  41   2.0000      -0.564495       -15.3607
  42   2.0000      -0.558331       -15.1929
  43   2.0000      -0.551464       -15.0061
  44   2.0000      -0.549969       -14.9654
  45   2.0000      -0.526232       -14.3195
  46   2.0000      -0.520947       -14.1757
  47   2.0000      -0.517610       -14.0849
  48   2.0000      -0.507576       -13.8119
  49   2.0000      -0.497920       -13.5491
  50   2.0000      -0.488221       -13.2852
  51   2.0000      -0.479435       -13.0461
  52   2.0000      -0.473548       -12.8859
  53   2.0000      -0.463367       -12.6089
  54   2.0000      -0.458378       -12.4731
  55   2.0000      -0.450811       -12.2672
  56   2.0000      -0.443594       -12.0708
  57   2.0000      -0.433611       -11.7992
  58   2.0000      -0.433015       -11.7829
  59   2.0000      -0.430603       -11.7173
  60   2.0000      -0.428430       -11.6582
  61   2.0000      -0.414592       -11.2816
  62   2.0000      -0.404753       -11.0139
  63   2.0000      -0.335022        -9.1164
  64   2.0000      -0.327043        -8.8993
  65   2.0000      -0.322335        -8.7712
  66   2.0000      -0.303838        -8.2678
  67   0.0000       0.043699         1.1891
  68   0.0000       0.055975         1.5231
  69   0.0000       0.104162         2.8344
  70   0.0000       0.116710         3.1758
  71   0.0000       0.137577         3.7437

MULLIKEN ATOMIC CHARGES
-----------------------
   0 S :    0.108926
   1 C :   -0.121344
   2 C :   -0.087045
   3 C :    0.050294
   4 C :   -0.201089
   5 H :    0.000798
   6 C :    0.138395
   7 H :   -0.008824
   8 H :    0.013789
   9 C :   -0.077028
  10 H :    0.022178
  11 H :    0.026952
  12 C :   -0.036864
  13 H :    0.030693
  14 H :    0.046324
  15 H :    0.033553
  16 S :    0.117348
  17 C :   -0.086607
  18 C :   -0.053182
  19 C :    0.008501
  20 C :   -0.220837
  21 H :    0.003587
  22 C :    0.101647
  23 H :    0.043649
  24 H :    0.005393
  25 C :   -0.047271
  26 H :    0.017448
  27 H :    0.015938
  28 C :   -0.003451
  29 H :    0.031235
  30 H :    0.014676
  31 H :    0.030010
  32 H :    0.033251
  33 H :    0.048954
Sum of atomic charges:   -0.0000000

LOEWDIN ATOMIC CHARGES
----------------------
   0 S :    0.377053
   1 C :   -0.181528
   2 C :   -0.063853
   3 C :   -0.049445
   4 C :   -0.184761
   5 H :    0.028777
   6 C :   -0.026369
   7 H :    0.022485
   8 H :    0.025984
   9 C :   -0.049420
  10 H :    0.025660
  11 H :    0.025473
  12 C :   -0.066353
  13 H :    0.030971
  14 H :    0.036809
  15 H :    0.022411
  16 S :    0.399152
  17 C :   -0.187023
  18 C :   -0.079101
  19 C :   -0.049463
  20 C :   -0.199705
  21 H :    0.024283
  22 C :   -0.022394
  23 H :    0.047420
  24 H :    0.018428
  25 C :   -0.035812
  26 H :    0.018741
  27 H :    0.022259
  28 C :   -0.051852
  29 H :    0.032096
  30 H :    0.016007
  31 H :    0.024441
  32 H :    0.018146
  33 H :    0.030483

  Mayer bond orders larger than 0.100000
B(  0-S ,  1-C ) :   1.1321 B(  0-S ,  4-C ) :   1.1269 B(  1-C ,  2-C ) :   1.6479
B(  1-C , 32-H ) :   0.9687 B(  2-C ,  3-C ) :   1.1917 B(  2-C ,  6-C ) :   1.0258
B(  3-C ,  4-C ) :   1.6209 B(  3-C ,  5-H ) :   0.9987 B(  4-C , 20-C ) :   1.0364
B(  6-C ,  7-H ) :   0.9338 B(  6-C ,  8-H ) :   0.9195 B(  6-C ,  9-C ) :   1.0430
B(  9-C , 10-H ) :   0.9573 B(  9-C , 11-H ) :   0.9501 B(  9-C , 12-C ) :   1.0906
B( 12-C , 13-H ) :   0.9709 B( 12-C , 14-H ) :   0.9714 B( 12-C , 15-H ) :   0.9754
B( 16-S , 17-C ) :   1.1294 B( 16-S , 20-C ) :   1.1453 B( 17-C , 18-C ) :   1.6716
B( 17-C , 33-H ) :   0.9643 B( 18-C , 19-C ) :   1.1909 B( 18-C , 21-H ) :   0.9840
B( 19-C , 20-C ) :   1.6169 B( 19-C , 22-C ) :   1.0252 B( 22-C , 23-H ) :   0.9215
B( 22-C , 24-H ) :   0.9344 B( 22-C , 25-C ) :   1.0806 B( 25-C , 26-H ) :   0.9525
B( 25-C , 27-H ) :   0.9546 B( 25-C , 28-C ) :   1.0659 B( 28-C , 29-H ) :   0.9768
B( 28-C , 30-H ) :   0.9799 B( 28-C , 31-H ) :   0.9732

Dispersion correction           -0.013981238
FINAL SINGLE POINT ENERGY     -1339.855625047334

DIPOLE MOMENT
-------------
                                X             Y             Z
Electronic contribution:     -6.22174      18.62396       0.06853
Nuclear contribution   :      6.51532     -19.01514       0.15526
                        -----------------------------------------
Total Dipole Moment    :      0.29358      -0.39118       0.22379
                        -----------------------------------------
Magnitude (a.u.)       :      0.53786
Magnitude (Debye)      :      1.36713

Rotational constants in cm-1:     0.022206     0.007036     0.006282
Rotational constants in MHz :   665.723509   210.920328   188.334528

                             ****ORCA TERMINATED NORMALLY****
TOTAL RUN TIME: 0 days 0 hours 0 minutes 33 seconds 733 msec
