                         Program Version 4.2.1 -  RELEASE  -
|  1> ! wB97X-D3 SP def2-SVP
|  2> %pal
|  3> nprocs 16
|  4> end
|  5>
|  6> * xyz 0 1
|  7> S 	 -35.5938 	 71.9627 	 169.088
|  8> C 	 -34.2181 	 72.7678 	 168.346
|  9> C 	 -34.5699 	 73.8404 	 167.562
| 10> C 	 -36.0051 	 73.9951 	 167.631
| 11> C 	 -36.6093 	 73.2697 	 168.633
| 12> H 	 -36.6097 	 74.7703 	 167.2
| 13> C 	 -33.7462 	 74.7202 	 166.606
| 14> H 	 -34.4435 	 75.5216 	 166.273
| 15> H 	 -33.4342 	 74.1117 	 165.753
| 16> C 	 -32.6124 	 75.4595 	 167.343
| 17> H 	 -33.0745 	 75.8463 	 168.239
| 18> H 	 -31.8049 	 74.7241 	 167.725
| 19> C 	 -31.9504 	 76.4925 	 166.471
| 20> H 	 -32.6926 	 76.9801 	 165.841
| 21> H 	 -31.2977 	 77.1613 	 167.034
| 22> H 	 -31.2902 	 76.0225 	 165.777
| 23> S 	 -39.1261 	 72.2135 	 169.08
| 24> C 	 -40.4495 	 73.2512 	 169.615
| 25> C 	 -40.0184 	 74.5736 	 169.759
| 26> C 	 -38.6355 	 74.7224 	 169.437
| 27> C 	 -37.998 	 73.5241 	 169.086
| 28> H 	 -40.768 	 75.2798 	 170.056
| 29> C 	 -37.9507 	 76.0261 	 169.771
| 30> H 	 -36.8762 	 76.0018 	 169.658
| 31> H 	 -38.1846 	 76.225 	 170.781
| 32> C 	 -38.5098 	 77.2414 	 168.932
| 33> H 	 -37.8574 	 78.14 	 169.07
| 34> H 	 -39.5186 	 77.3299 	 169.333
| 35> C 	 -38.7129 	 76.9822 	 167.386
| 36> H 	 -37.8235 	 76.9578 	 166.684
| 37> H 	 -39.2221 	 77.841 	 167.003
| 38> H 	 -39.3337 	 76.2074 	 167.183
| 39> H 	 -33.1952 	 72.5305 	 168.331
| 40> H 	 -41.516 	 72.9097 	 169.735
| 41> *
| 42>
| 43>                          ****END OF INPUT****

CARTESIAN COORDINATES (ANGSTROEM)
---------------------------------
  S    -35.593800   71.962700  169.088000
  C    -34.218100   72.767800  168.346000
  C    -34.569900   73.840400  167.562000
  C    -36.005100   73.995100  167.631000
  C    -36.609300   73.269700  168.633000
  H    -36.609700   74.770300  167.200000
  C    -33.746200   74.720200  166.606000
  H    -34.443500   75.521600  166.273000
  H    -33.434200   74.111700  165.753000
  C    -32.612400   75.459500  167.343000
  H    -33.074500   75.846300  168.239000
  H    -31.804900   74.724100  167.725000
  C    -31.950400   76.492500  166.471000
  H    -32.692600   76.980100  165.841000
  H    -31.297700   77.161300  167.034000
  H    -31.290200   76.022500  165.777000
  S    -39.126100   72.213500  169.080000
  C    -40.449500   73.251200  169.615000
  C    -40.018400   74.573600  169.759000
  C    -38.635500   74.722400  169.437000
  C    -37.998000   73.524100  169.086000
  H    -40.768000   75.279800  170.056000
  C    -37.950700   76.026100  169.771000
  H    -36.876200   76.001800  169.658000
  H    -38.184600   76.225000  170.781000
  C    -38.509800   77.241400  168.932000
  H    -37.857400   78.140000  169.070000
  H    -39.518600   77.329900  169.333000
  C    -38.712900   76.982200  167.386000
  H    -37.823500   76.957800  166.684000
  H    -39.222100   77.841000  167.003000
  H    -39.333700   76.207400  167.183000
  H    -33.195200   72.530500  168.331000
  H    -41.516000   72.909700  169.735000

 Total Charge           Charge          ....    0
 Multiplicity           Mult            ....    1
 Number of Electrons    NEL             ....  134
 Basis Dimension        Dim             ....  322

ORBITAL ENERGIES
----------------

  NO   OCC          E(Eh)            E(eV)
   0   2.0000     -88.968051     -2420.9437
   1   2.0000     -88.965805     -2420.8826
   2   2.0000     -10.329569      -281.0819
   3   2.0000     -10.325342      -280.9668
   4   2.0000     -10.325260      -280.9646
   5   2.0000     -10.308498      -280.5085
   6   2.0000     -10.305885      -280.4374
   7   2.0000     -10.300107      -280.2802
   8   2.0000     -10.299459      -280.2625
   9   2.0000     -10.297300      -280.2038
  10   2.0000     -10.296040      -280.1695
  11   2.0000     -10.292050      -280.0609
  12   2.0000     -10.286719      -279.9158
  13   2.0000     -10.285148      -279.8731
  14   2.0000     -10.276479      -279.6372
  15   2.0000     -10.272773      -279.5364
  16   2.0000      -8.082992      -219.9494
  17   2.0000      -8.080721      -219.8876
  18   2.0000      -6.041614      -164.4007
  19   2.0000      -6.039193      -164.3348
  20   2.0000      -6.037728      -164.2949
  21   2.0000      -6.035085      -164.2230
  22   2.0000      -6.033360      -164.1761
  23   2.0000      -6.031642      -164.1293
  24   2.0000      -1.007679       -27.4203
  25   2.0000      -0.985398       -26.8140
  26   2.0000      -0.914182       -24.8762
  27   2.0000      -0.903297       -24.5799
  28   2.0000      -0.868767       -23.6403
  29   2.0000      -0.849450       -23.1147
  30   2.0000      -0.843405       -22.9502
  31   2.0000      -0.813595       -22.1391
  32   2.0000      -0.784633       -21.3510
  33   2.0000      -0.777357       -21.1530
  34   2.0000      -0.707301       -19.2466
  35   2.0000      -0.700223       -19.0540
  36   2.0000      -0.687885       -18.7183
  37   2.0000      -0.660019       -17.9600
  38   2.0000      -0.637536       -17.3482
  39   2.0000      -0.614451       -16.7201
  40   2.0000      -0.593468       -16.1491
  41   2.0000      -0.574577       -15.6350
  42   2.0000      -0.566344       -15.4110
  43   2.0000      -0.551123       -14.9968
  44   2.0000      -0.541441       -14.7334
  45   2.0000      -0.526382       -14.3236
  46   2.0000      -0.518621       -14.1124
  47   2.0000      -0.508878       -13.8473
  48   2.0000      -0.502400       -13.6710
  49   2.0000      -0.499151       -13.5826
  50   2.0000      -0.487641       -13.2694
  51   2.0000      -0.480738       -13.0815
  52   2.0000      -0.470657       -12.8072
  53   2.0000      -0.468619       -12.7518
  54   2.0000      -0.462451       -12.5839
  55   2.0000      -0.448972       -12.2171
  56   2.0000      -0.444593       -12.0980
  57   2.0000      -0.436309       -11.8726
  58   2.0000      -0.430417       -11.7122
  59   2.0000      -0.427958       -11.6453
  60   2.0000      -0.422260       -11.4903
  61   2.0000      -0.416987       -11.3468
  62   2.0000      -0.409330       -11.1384
  63   2.0000      -0.346041        -9.4162
  64   2.0000      -0.329344        -8.9619
  65   2.0000      -0.329138        -8.9563
  66   2.0000      -0.292092        -7.9482
  67   0.0000       0.029949         0.8150
  68   0.0000       0.070327         1.9137
  69   0.0000       0.105005         2.8573
  70   0.0000       0.120444         3.2775
  71   0.0000       0.131306         3.5730

MULLIKEN ATOMIC CHARGES
-----------------------
   0 S :    0.125312
   1 C :   -0.078173
   2 C :   -0.116620
   3 C :    0.042614
   4 C :   -0.163300
   5 H :   -0.008666
   6 C :    0.069092
   7 H :    0.026071
   8 H :    0.051083
   9 C :   -0.124685
  10 H :    0.033686
  11 H :    0.037678
  12 C :    0.003758
  13 H :    0.023241
  14 H :    0.037180
  15 H :    0.016737
  16 S :    0.103685
  17 C :   -0.124513
  18 C :   -0.044847
  19 C :   -0.043656
  20 C :   -0.143156
  21 H :    0.023150
  22 C :    0.100226
  23 H :    0.026117
  24 H :    0.029419
  25 C :   -0.112752
  26 H :    0.047436
  27 H :    0.027974
  28 C :   -0.035084
  29 H :    0.040465
  30 H :    0.017044
  31 H :    0.020933
  32 H :    0.013536
  33 H :    0.079016
Sum of atomic charges:    0.0000000

LOEWDIN ATOMIC CHARGES
----------------------
   0 S :    0.412832
   1 C :   -0.190767
   2 C :   -0.060618
   3 C :   -0.061772
   4 C :   -0.204781
   5 H :    0.023785
   6 C :   -0.027665
   7 H :    0.033694
   8 H :    0.033755
   9 C :   -0.046400
  10 H :    0.022837
  11 H :    0.029240
  12 C :   -0.064612
  13 H :    0.024554
  14 H :    0.029480
  15 H :    0.023250
  16 S :    0.407528
  17 C :   -0.187733
  18 C :   -0.073656
  19 C :   -0.056737
  20 C :   -0.201752
  21 H :    0.032175
  22 C :   -0.026961
  23 H :    0.025423
  24 H :    0.028280
  25 C :   -0.033185
  26 H :    0.030863
  27 H :    0.021975
  28 C :   -0.069223
  29 H :    0.029261
  30 H :    0.025823
  31 H :    0.010633
  32 H :    0.018950
  33 H :    0.041522

  Mayer bond orders larger than 0.100000
B(  0-S ,  1-C ) :   1.1226 B(  0-S ,  4-C ) :   1.1445 B(  1-C ,  2-C ) :   1.6422
B(  1-C , 32-H ) :   0.9707 B(  2-C ,  3-C ) :   1.2249 B(  2-C ,  6-C ) :   1.0089
B(  3-C ,  4-C ) :   1.5877 B(  3-C ,  5-H ) :   0.9885 B(  4-C , 20-C ) :   1.0273
B(  6-C ,  7-H ) :   0.9418 B(  6-C ,  8-H ) :   0.9394 B(  6-C ,  9-C ) :   1.0599
B(  9-C , 10-H ) :   0.9599 B(  9-C , 11-H ) :   0.9523 B(  9-C , 12-C ) :   1.0862
B( 12-C , 13-H ) :   0.9714 B( 12-C , 14-H ) :   0.9724 B( 12-C , 15-H ) :   0.9692
B( 16-S , 17-C ) :   1.1622 B( 16-S , 20-C ) :   1.1504 B( 17-C , 18-C ) :   1.6060
B( 17-C , 33-H ) :   0.9605 B( 18-C , 19-C ) :   1.2245 B( 18-C , 21-H ) :   0.9951
B( 19-C , 20-C ) :   1.5888 B( 19-C , 22-C ) :   1.0440 B( 22-C , 23-H ) :   0.9370
B( 22-C , 24-H ) :   0.9475 B( 22-C , 25-C ) :   1.0500 B( 25-C , 26-H ) :   0.9615
B( 25-C , 27-H ) :   0.9573 B( 25-C , 28-C ) :   1.0844 B( 28-C , 29-H ) :   0.9696
B( 28-C , 30-H ) :   0.9686 B( 28-C , 31-H ) :   0.9686

Dispersion correction           -0.014770522
FINAL SINGLE POINT ENERGY     -1339.861702068140

DIPOLE MOMENT
-------------
                                X             Y             Z
Electronic contribution:    -11.51731     -27.20469      10.24286
Nuclear contribution   :     11.56495      27.92027     -10.45213
                        -----------------------------------------
Total Dipole Moment    :      0.04764       0.71557      -0.20927
                        -----------------------------------------
Magnitude (a.u.)       :      0.74707
Magnitude (Debye)      :      1.89890

Rotational constants in cm-1:     0.019565     0.008868     0.006548
Rotational constants in MHz :   586.530834   265.864930   196.302382

                             ****ORCA TERMINATED NORMALLY****
TOTAL RUN TIME: 0 days 0 hours 0 minutes 34 seconds 658 msec
