                         Program Version 4.2.1 -  RELEASE  -
|  1> ! wB97X-D3 SP def2-SVP
|  2> %pal
|  3> nprocs 16
|  4> end
|  5>
|  6> * xyz 0 1
|  7> S 	 2.99707 	 -24.1121 	 86.9179
|  8> C 	 4.62325 	 -24.2383 	 86.4586
|  9> C 	 5.17054 	 -22.987 	 86.1921
| 10> C 	 4.23252 	 -21.9571 	 86.4466
| 11> C 	 3.04339 	 -22.4071 	 87.0004
| 12> H 	 4.24168 	 -20.9469 	 86.1528
| 13> C 	 6.5286 	 -22.776 	 85.5555
| 14> H 	 6.46439 	 -22.3264 	 84.591
| 15> H 	 6.90265 	 -23.7777 	 85.4093
| 16> C 	 7.48676 	 -21.9463 	 86.3384
| 17> H 	 8.3748 	 -21.8905 	 85.8566
| 18> H 	 6.97379 	 -20.9686 	 86.4853
| 19> C 	 7.73605 	 -22.4517 	 87.7648
| 20> H 	 8.43489 	 -23.2943 	 87.8757
| 21> H 	 8.22922 	 -21.6954 	 88.418
| 22> H 	 6.79974 	 -22.7114 	 88.263
| 23> S 	 1.28114 	 -22.1859 	 89.0405
| 24> C 	 0.0670302 	 -20.954 	 89.1514
| 25> C 	 0.212917 	 -20.1002 	 88.1206
| 26> C 	 1.15599 	 -20.4552 	 87.1149
| 27> C 	 1.9327 	 -21.6156 	 87.5322
| 28> H 	 -0.389572 	 -19.1967 	 87.9294
| 29> C 	 1.31782 	 -19.725 	 85.7807
| 30> H 	 2.35146 	 -19.7702 	 85.4124
| 31> H 	 1.10268 	 -18.7043 	 85.9874
| 32> C 	 0.407629 	 -20.2901 	 84.6832
| 33> H 	 0.396635 	 -19.6179 	 83.8383
| 34> H 	 -0.586703 	 -20.3762 	 85.0682
| 35> C 	 0.985133 	 -21.5966 	 84.0569
| 36> H 	 0.370608 	 -22.0815 	 83.2773
| 37> H 	 1.02331 	 -22.3528 	 84.8619
| 38> H 	 1.99549 	 -21.53 	 83.6372
| 39> H 	 5.09385 	 -25.1017 	 86.1661
| 40> H 	 -0.663533 	 -20.8622 	 89.9199
| 41> *
| 42>
| 43>                          ****END OF INPUT****

CARTESIAN COORDINATES (ANGSTROEM)
---------------------------------
  S      2.997070  -24.112100   86.917900
  C      4.623250  -24.238300   86.458600
  C      5.170540  -22.987000   86.192100
  C      4.232520  -21.957100   86.446600
  C      3.043390  -22.407100   87.000400
  H      4.241680  -20.946900   86.152800
  C      6.528600  -22.776000   85.555500
  H      6.464390  -22.326400   84.591000
  H      6.902650  -23.777700   85.409300
  C      7.486760  -21.946300   86.338400
  H      8.374800  -21.890500   85.856600
  H      6.973790  -20.968600   86.485300
  C      7.736050  -22.451700   87.764800
  H      8.434890  -23.294300   87.875700
  H      8.229220  -21.695400   88.418000
  H      6.799740  -22.711400   88.263000
  S      1.281140  -22.185900   89.040500
  C      0.067030  -20.954000   89.151400
  C      0.212917  -20.100200   88.120600
  C      1.155990  -20.455200   87.114900
  C      1.932700  -21.615600   87.532200
  H     -0.389572  -19.196700   87.929400
  C      1.317820  -19.725000   85.780700
  H      2.351460  -19.770200   85.412400
  H      1.102680  -18.704300   85.987400
  C      0.407629  -20.290100   84.683200
  H      0.396635  -19.617900   83.838300
  H     -0.586703  -20.376200   85.068200
  C      0.985133  -21.596600   84.056900
  H      0.370608  -22.081500   83.277300
  H      1.023310  -22.352800   84.861900
  H      1.995490  -21.530000   83.637200
  H      5.093850  -25.101700   86.166100
  H     -0.663533  -20.862200   89.919900

 Total Charge           Charge          ....    0
 Multiplicity           Mult            ....    1
 Number of Electrons    NEL             ....  134
 Basis Dimension        Dim             ....  322

ORBITAL ENERGIES
----------------

  NO   OCC          E(Eh)            E(eV)
   0   2.0000     -88.968431     -2420.9541
   1   2.0000     -88.964880     -2420.8575
   2   2.0000     -10.333652      -281.1930
   3   2.0000     -10.328008      -281.0394
   4   2.0000     -10.313360      -280.6408
   5   2.0000     -10.309260      -280.5292
   6   2.0000     -10.305486      -280.4265
   7   2.0000     -10.300347      -280.2867
   8   2.0000     -10.293100      -280.0895
   9   2.0000     -10.293044      -280.0880
  10   2.0000     -10.288888      -279.9749
  11   2.0000     -10.284906      -279.8665
  12   2.0000     -10.284502      -279.8555
  13   2.0000     -10.277205      -279.6570
  14   2.0000     -10.276239      -279.6307
  15   2.0000     -10.272265      -279.5225
  16   2.0000      -8.084490      -219.9902
  17   2.0000      -8.080028      -219.8687
  18   2.0000      -6.042742      -164.4314
  19   2.0000      -6.038768      -164.3232
  20   2.0000      -6.038466      -164.3150
  21   2.0000      -6.035472      -164.2335
  22   2.0000      -6.034176      -164.1983
  23   2.0000      -6.031126      -164.1153
  24   2.0000      -1.015349       -27.6290
  25   2.0000      -0.991262       -26.9736
  26   2.0000      -0.920710       -25.0538
  27   2.0000      -0.908561       -24.7232
  28   2.0000      -0.874044       -23.7839
  29   2.0000      -0.849914       -23.1273
  30   2.0000      -0.841407       -22.8959
  31   2.0000      -0.817605       -22.2482
  32   2.0000      -0.784409       -21.3449
  33   2.0000      -0.773509       -21.0482
  34   2.0000      -0.711877       -19.3712
  35   2.0000      -0.697913       -18.9912
  36   2.0000      -0.696038       -18.9402
  37   2.0000      -0.658446       -17.9172
  38   2.0000      -0.647902       -17.6303
  39   2.0000      -0.624649       -16.9976
  40   2.0000      -0.602777       -16.4024
  41   2.0000      -0.575167       -15.6511
  42   2.0000      -0.557900       -15.1812
  43   2.0000      -0.552181       -15.0256
  44   2.0000      -0.549689       -14.9578
  45   2.0000      -0.544294       -14.8110
  46   2.0000      -0.517073       -14.0703
  47   2.0000      -0.507834       -13.8189
  48   2.0000      -0.502740       -13.6803
  49   2.0000      -0.498151       -13.5554
  50   2.0000      -0.489554       -13.3214
  51   2.0000      -0.480339       -13.0707
  52   2.0000      -0.470479       -12.8024
  53   2.0000      -0.466526       -12.6948
  54   2.0000      -0.461740       -12.5646
  55   2.0000      -0.446609       -12.1529
  56   2.0000      -0.442534       -12.0420
  57   2.0000      -0.435857       -11.8603
  58   2.0000      -0.434903       -11.8343
  59   2.0000      -0.432194       -11.7606
  60   2.0000      -0.423967       -11.5367
  61   2.0000      -0.412576       -11.2268
  62   2.0000      -0.404746       -11.0137
  63   2.0000      -0.351302        -9.5594
  64   2.0000      -0.331271        -9.0144
  65   2.0000      -0.330230        -8.9860
  66   2.0000      -0.289063        -7.8658
  67   0.0000       0.026590         0.7236
  68   0.0000       0.074524         2.0279
  69   0.0000       0.110489         3.0066
  70   0.0000       0.122147         3.3238
  71   0.0000       0.137724         3.7477

MULLIKEN ATOMIC CHARGES
-----------------------
   0 S :    0.138644
   1 C :   -0.075409
   2 C :   -0.133238
   3 C :    0.049869
   4 C :   -0.168133
   5 H :   -0.007419
   6 C :    0.124859
   7 H :    0.027509
   8 H :   -0.002454
   9 C :   -0.027524
  10 H :    0.010597
  11 H :    0.033588
  12 C :   -0.091674
  13 H :    0.024390
  14 H :    0.030458
  15 H :    0.045770
  16 S :    0.104051
  17 C :   -0.067849
  18 C :   -0.029700
  19 C :   -0.067749
  20 C :   -0.164313
  21 H :    0.020408
  22 C :    0.085784
  23 H :    0.018732
  24 H :    0.013724
  25 C :   -0.030854
  26 H :    0.025963
  27 H :    0.026089
  28 C :   -0.078539
  29 H :    0.035997
  30 H :    0.030590
  31 H :    0.032930
  32 H :    0.015585
  33 H :    0.049319
Sum of atomic charges:    0.0000000

LOEWDIN ATOMIC CHARGES
----------------------
   0 S :    0.456766
   1 C :   -0.204257
   2 C :   -0.057920
   3 C :   -0.061279
   4 C :   -0.212708
   5 H :    0.021509
   6 C :   -0.025945
   7 H :    0.030841
   8 H :    0.024496
   9 C :   -0.032466
  10 H :    0.011651
  11 H :    0.031554
  12 C :   -0.073688
  13 H :    0.021759
  14 H :    0.028203
  15 H :    0.026852
  16 S :    0.426576
  17 C :   -0.190858
  18 C :   -0.078398
  19 C :   -0.056698
  20 C :   -0.204133
  21 H :    0.034095
  22 C :   -0.027743
  23 H :    0.029811
  24 H :    0.025987
  25 C :   -0.031460
  26 H :    0.021701
  27 H :    0.022079
  28 C :   -0.072819
  29 H :    0.027424
  30 H :    0.023556
  31 H :    0.025292
  32 H :    0.011546
  33 H :    0.028674

  Mayer bond orders larger than 0.100000
B(  0-S ,  1-C ) :   1.1665 B(  0-S ,  4-C ) :   1.1841 B(  1-C ,  2-C ) :   1.5631
B(  1-C , 32-H ) :   0.9750 B(  2-C ,  3-C ) :   1.2654 B(  2-C ,  6-C ) :   1.0248
B(  3-C ,  4-C ) :   1.5395 B(  3-C ,  5-H ) :   1.0037 B(  4-C , 20-C ) :   1.0372
B(  6-C ,  7-H ) :   0.9361 B(  6-C ,  8-H ) :   0.9305 B(  6-C ,  9-C ) :   1.0845
B(  9-C , 10-H ) :   0.9536 B(  9-C , 11-H ) :   0.9540 B(  9-C , 12-C ) :   1.0778
B( 12-C , 13-H ) :   0.9751 B( 12-C , 14-H ) :   0.9747 B( 12-C , 15-H ) :   0.9728
B( 16-S , 17-C ) :   1.1569 B( 16-S , 20-C ) :   1.1773 B( 17-C , 18-C ) :   1.5674
B( 17-C , 20-C ) :   0.1074 B( 17-C , 33-H ) :   0.9749 B( 18-C , 19-C ) :   1.3051
B( 18-C , 21-H ) :   0.9770 B( 19-C , 20-C ) :   1.5137 B( 19-C , 22-C ) :   1.0391
B( 22-C , 23-H ) :   0.9399 B( 22-C , 24-H ) :   0.9260 B( 22-C , 25-C ) :   1.0725
B( 25-C , 26-H ) :   0.9554 B( 25-C , 27-H ) :   0.9561 B( 25-C , 28-C ) :   1.0691
B( 28-C , 29-H ) :   0.9749 B( 28-C , 30-H ) :   0.9748 B( 28-C , 31-H ) :   0.9752

Dispersion correction           -0.015379210
FINAL SINGLE POINT ENERGY     -1339.877275027271

DIPOLE MOMENT
-------------
                                X             Y             Z
Electronic contribution:    -12.72544      -8.67716      13.78196
Nuclear contribution   :     12.83453       9.04127     -14.25849
                        -----------------------------------------
Total Dipole Moment    :      0.10909       0.36410      -0.47653
                        -----------------------------------------
Magnitude (a.u.)       :      0.60955
Magnitude (Debye)      :      1.54936

Rotational constants in cm-1:     0.020547     0.008670     0.007753
Rotational constants in MHz :   615.976809   259.913000   232.443067

                             ****ORCA TERMINATED NORMALLY****
TOTAL RUN TIME: 0 days 0 hours 0 minutes 35 seconds 327 msec
