                         Program Version 4.2.1 -  RELEASE  -
|  1> ! wB97X-D3 SP def2-SVP
|  2> %pal
|  3> nprocs 16
|  4> end
|  5>
|  6> * xyz 0 1
|  7> S 	 -69.4781 	 48.2768 	 123.896
|  8> C 	 -68.9691 	 48.9267 	 122.313
|  9> C 	 -70.0095 	 49.79 	 121.82
| 10> C 	 -71.1343 	 49.8407 	 122.761
| 11> C 	 -70.9489 	 49.2112 	 123.961
| 12> H 	 -72.0412 	 50.4777 	 122.607
| 13> C 	 -69.9156 	 50.6213 	 120.626
| 14> H 	 -70.7405 	 50.5101 	 120.062
| 15> H 	 -69.1149 	 50.3219 	 119.986
| 16> C 	 -69.8087 	 52.1216 	 120.876
| 17> H 	 -70.1009 	 52.6677 	 119.909
| 18> H 	 -70.5743 	 52.4903 	 121.593
| 19> C 	 -68.3662 	 52.5569 	 121.341
| 20> H 	 -68.25 	 53.6141 	 121.426
| 21> H 	 -68.1347 	 52.1565 	 122.28
| 22> H 	 -67.6553 	 52.1019 	 120.667
| 23> S 	 -73.5277 	 48.6292 	 124.367
| 24> C 	 -74.2243 	 48.6005 	 125.968
| 25> C 	 -73.2694 	 48.9675 	 126.863
| 26> C 	 -71.9858 	 49.2093 	 126.304
| 27> C 	 -71.9596 	 49.1174 	 124.959
| 28> H 	 -73.4688 	 49.1827 	 127.844
| 29> C 	 -70.819 	 49.6658 	 127.202
| 30> H 	 -69.8647 	 49.4257 	 126.781
| 31> H 	 -70.8765 	 49.2627 	 128.208
| 32> C 	 -70.8787 	 51.2147 	 127.432
| 33> H 	 -70.233 	 51.3953 	 128.296
| 34> H 	 -71.9538 	 51.4624 	 127.715
| 35> C 	 -70.4034 	 52.0015 	 126.198
| 36> H 	 -71.0318 	 51.5871 	 125.396
| 37> H 	 -69.3296 	 51.686 	 125.992
| 38> H 	 -70.4563 	 53.1009 	 126.363
| 39> H 	 -68.0074 	 48.7525 	 121.81
| 40> H 	 -75.2809 	 48.5445 	 126.161
| 41> *
| 42>
| 43>                          ****END OF INPUT****

CARTESIAN COORDINATES (ANGSTROEM)
---------------------------------
  S    -69.478100   48.276800  123.896000
  C    -68.969100   48.926700  122.313000
  C    -70.009500   49.790000  121.820000
  C    -71.134300   49.840700  122.761000
  C    -70.948900   49.211200  123.961000
  H    -72.041200   50.477700  122.607000
  C    -69.915600   50.621300  120.626000
  H    -70.740500   50.510100  120.062000
  H    -69.114900   50.321900  119.986000
  C    -69.808700   52.121600  120.876000
  H    -70.100900   52.667700  119.909000
  H    -70.574300   52.490300  121.593000
  C    -68.366200   52.556900  121.341000
  H    -68.250000   53.614100  121.426000
  H    -68.134700   52.156500  122.280000
  H    -67.655300   52.101900  120.667000
  S    -73.527700   48.629200  124.367000
  C    -74.224300   48.600500  125.968000
  C    -73.269400   48.967500  126.863000
  C    -71.985800   49.209300  126.304000
  C    -71.959600   49.117400  124.959000
  H    -73.468800   49.182700  127.844000
  C    -70.819000   49.665800  127.202000
  H    -69.864700   49.425700  126.781000
  H    -70.876500   49.262700  128.208000
  C    -70.878700   51.214700  127.432000
  H    -70.233000   51.395300  128.296000
  H    -71.953800   51.462400  127.715000
  C    -70.403400   52.001500  126.198000
  H    -71.031800   51.587100  125.396000
  H    -69.329600   51.686000  125.992000
  H    -70.456300   53.100900  126.363000
  H    -68.007400   48.752500  121.810000
  H    -75.280900   48.544500  126.161000

 Total Charge           Charge          ....    0
 Multiplicity           Mult            ....    1
 Number of Electrons    NEL             ....  134
 Basis Dimension        Dim             ....  322

ORBITAL ENERGIES
----------------

  NO   OCC          E(Eh)            E(eV)
   0   2.0000     -88.968030     -2420.9432
   1   2.0000     -88.962017     -2420.7796
   2   2.0000     -10.328472      -281.0520
   3   2.0000     -10.325956      -280.9836
   4   2.0000     -10.322216      -280.8818
   5   2.0000     -10.316823      -280.7350
   6   2.0000     -10.309831      -280.5448
   7   2.0000     -10.300252      -280.2841
   8   2.0000     -10.299029      -280.2508
   9   2.0000     -10.295464      -280.1538
  10   2.0000     -10.290462      -280.0177
  11   2.0000     -10.288961      -279.9769
  12   2.0000     -10.286446      -279.9084
  13   2.0000     -10.279751      -279.7262
  14   2.0000     -10.278788      -279.7000
  15   2.0000     -10.270092      -279.4634
  16   2.0000      -8.081819      -219.9175
  17   2.0000      -8.077195      -219.7916
  18   2.0000      -6.040507      -164.3706
  19   2.0000      -6.036328      -164.2568
  20   2.0000      -6.035791      -164.2422
  21   2.0000      -6.032549      -164.1540
  22   2.0000      -6.031584      -164.1278
  23   2.0000      -6.027852      -164.0262
  24   2.0000      -1.013769       -27.5861
  25   2.0000      -0.983179       -26.7536
  26   2.0000      -0.918877       -25.0039
  27   2.0000      -0.905602       -24.6427
  28   2.0000      -0.874977       -23.8093
  29   2.0000      -0.845451       -23.0059
  30   2.0000      -0.839068       -22.8322
  31   2.0000      -0.815205       -22.1829
  32   2.0000      -0.785714       -21.3804
  33   2.0000      -0.774642       -21.0791
  34   2.0000      -0.710799       -19.3418
  35   2.0000      -0.696874       -18.9629
  36   2.0000      -0.687700       -18.7133
  37   2.0000      -0.671489       -18.2721
  38   2.0000      -0.636386       -17.3170
  39   2.0000      -0.619360       -16.8537
  40   2.0000      -0.604245       -16.4423
  41   2.0000      -0.573454       -15.6045
  42   2.0000      -0.559036       -15.2122
  43   2.0000      -0.552250       -15.0275
  44   2.0000      -0.540029       -14.6949
  45   2.0000      -0.534377       -14.5412
  46   2.0000      -0.522902       -14.2289
  47   2.0000      -0.510324       -13.8866
  48   2.0000      -0.506154       -13.7731
  49   2.0000      -0.504561       -13.7298
  50   2.0000      -0.488974       -13.3057
  51   2.0000      -0.478224       -13.0131
  52   2.0000      -0.471815       -12.8387
  53   2.0000      -0.464434       -12.6379
  54   2.0000      -0.462347       -12.5811
  55   2.0000      -0.444801       -12.1037
  56   2.0000      -0.439676       -11.9642
  57   2.0000      -0.434892       -11.8340
  58   2.0000      -0.427855       -11.6425
  59   2.0000      -0.425301       -11.5730
  60   2.0000      -0.423028       -11.5112
  61   2.0000      -0.414011       -11.2658
  62   2.0000      -0.409408       -11.1406
  63   2.0000      -0.348971        -9.4960
  64   2.0000      -0.330970        -9.0062
  65   2.0000      -0.326143        -8.8748
  66   2.0000      -0.298195        -8.1143
  67   0.0000       0.027837         0.7575
  68   0.0000       0.073068         1.9883
  69   0.0000       0.102480         2.7886
  70   0.0000       0.119014         3.2385
  71   0.0000       0.126941         3.4542

MULLIKEN ATOMIC CHARGES
-----------------------
   0 S :    0.107845
   1 C :   -0.133620
   2 C :   -0.094685
   3 C :   -0.026468
   4 C :   -0.107203
   5 H :    0.035963
   6 C :    0.152963
   7 H :   -0.004454
   8 H :    0.005460
   9 C :   -0.133994
  10 H :    0.035413
  11 H :    0.036489
  12 C :   -0.008788
  13 H :    0.033173
  14 H :    0.021991
  15 H :    0.016469
  16 S :    0.098972
  17 C :   -0.072691
  18 C :    0.004160
  19 C :   -0.053269
  20 C :   -0.168835
  21 H :   -0.017380
  22 C :    0.083994
  23 H :    0.012327
  24 H :    0.022677
  25 C :   -0.105655
  26 H :    0.029569
  27 H :    0.032312
  28 C :   -0.058358
  29 H :    0.045233
  30 H :    0.036843
  31 H :    0.051146
  32 H :    0.062994
  33 H :    0.059407
Sum of atomic charges:   -0.0000000

LOEWDIN ATOMIC CHARGES
----------------------
   0 S :    0.398350
   1 C :   -0.197460
   2 C :   -0.049112
   3 C :   -0.072914
   4 C :   -0.202596
   5 H :    0.034905
   6 C :   -0.032861
   7 H :    0.021634
   8 H :    0.029727
   9 C :   -0.036682
  10 H :    0.028975
  11 H :    0.024326
  12 C :   -0.057914
  13 H :    0.023781
  14 H :    0.019297
  15 H :    0.021861
  16 S :    0.413304
  17 C :   -0.176283
  18 C :   -0.059914
  19 C :   -0.056973
  20 C :   -0.200263
  21 H :    0.015703
  22 C :   -0.024059
  23 H :    0.019141
  24 H :    0.030986
  25 C :   -0.041528
  26 H :    0.018219
  27 H :    0.025276
  28 C :   -0.073957
  29 H :    0.029829
  30 H :    0.031349
  31 H :    0.029734
  32 H :    0.035366
  33 H :    0.030754

  Mayer bond orders larger than 0.100000
B(  0-S ,  1-C ) :   1.1312 B(  0-S ,  4-C ) :   1.1331 B(  1-C ,  2-C ) :   1.5817
B(  1-C , 32-H ) :   0.9683 B(  2-C ,  3-C ) :   1.2248 B(  2-C ,  6-C ) :   1.0639
B(  3-C ,  4-C ) :   1.5576 B(  3-C ,  5-H ) :   0.9856 B(  4-C , 20-C ) :   1.0641
B(  6-C ,  7-H ) :   0.9116 B(  6-C ,  8-H ) :   0.9324 B(  6-C ,  9-C ) :   1.0715
B(  9-C , 10-H ) :   0.9565 B(  9-C , 11-H ) :   0.9565 B(  9-C , 12-C ) :   1.0629
B( 12-C , 13-H ) :   0.9759 B( 12-C , 14-H ) :   0.9767 B( 12-C , 15-H ) :   0.9753
B( 16-S , 17-C ) :   1.1488 B( 16-S , 20-C ) :   1.1307 B( 17-C , 18-C ) :   1.6028
B( 17-C , 33-H ) :   0.9698 B( 18-C , 19-C ) :   1.2433 B( 18-C , 21-H ) :   0.9993
B( 19-C , 20-C ) :   1.6088 B( 19-C , 22-C ) :   1.0542 B( 22-C , 23-H ) :   0.9349
B( 22-C , 24-H ) :   0.9334 B( 22-C , 25-C ) :   1.0652 B( 25-C , 26-H ) :   0.9582
B( 25-C , 27-H ) :   0.9548 B( 25-C , 28-C ) :   1.0686 B( 28-C , 29-H ) :   0.9733
B( 28-C , 30-H ) :   0.9723 B( 28-C , 31-H ) :   0.9727

Dispersion correction           -0.015785631
FINAL SINGLE POINT ENERGY     -1339.876802668037

DIPOLE MOMENT
-------------
                                X             Y             Z
Electronic contribution:    -10.60488     -21.09456       1.77223
Nuclear contribution   :     10.61581      21.57843      -1.73836
                        -----------------------------------------
Total Dipole Moment    :      0.01093       0.48387       0.03387
                        -----------------------------------------
Magnitude (a.u.)       :      0.48517
Magnitude (Debye)      :      1.23321

Rotational constants in cm-1:     0.020738     0.009041     0.008057
Rotational constants in MHz :   621.716424   271.047904   241.542358

                             ****ORCA TERMINATED NORMALLY****
TOTAL RUN TIME: 0 days 0 hours 0 minutes 38 seconds 149 msec
