                         Program Version 4.2.1 -  RELEASE  -
|  1> ! wB97X-D3 SP def2-SVP
|  2> %pal
|  3> nprocs 16
|  4> end
|  5>
|  6> * xyz 0 1
|  7> S 	 -8.13852 	 9.08869 	 85.8538
|  8> C 	 -7.55856 	 7.89895 	 87.0556
|  9> C 	 -8.59853 	 7.32145 	 87.7564
| 10> C 	 -9.88338 	 7.73549 	 87.2499
| 11> C 	 -9.80525 	 8.64251 	 86.144
| 12> H 	 -10.8354 	 7.4902 	 87.6213
| 13> C 	 -8.40051 	 6.3363 	 88.867
| 14> H 	 -9.10008 	 6.3719 	 89.7423
| 15> H 	 -7.49814 	 6.61773 	 89.4262
| 16> C 	 -8.03946 	 4.95094 	 88.3415
| 17> H 	 -8.90474 	 4.54566 	 87.8194
| 18> H 	 -7.36776 	 5.15929 	 87.4524
| 19> C 	 -7.28921 	 3.95314 	 89.3755
| 20> H 	 -7.96114 	 3.66039 	 90.1739
| 21> H 	 -6.81187 	 3.19295 	 88.7148
| 22> H 	 -6.4433 	 4.51577 	 89.8584
| 23> S 	 -11.0285 	 10.8049 	 85.1164
| 24> C 	 -12.2734 	 10.6441 	 83.9114
| 25> C 	 -12.7091 	 9.32836 	 83.8585
| 26> C 	 -11.9151 	 8.41551 	 84.6823
| 27> C 	 -10.8513 	 9.11745 	 85.2516
| 28> H 	 -13.5704 	 9.04883 	 83.2967
| 29> C 	 -12.3942 	 7.05244 	 85.0971
| 30> H 	 -13.4551 	 6.99109 	 84.8087
| 31> H 	 -12.2854 	 6.95436 	 86.1542
| 32> C 	 -12.0352 	 5.88326 	 84.1431
| 33> H 	 -12.4225 	 6.19125 	 83.1696
| 34> H 	 -12.4621 	 4.93152 	 84.4117
| 35> C 	 -10.5456 	 5.76467 	 83.8384
| 36> H 	 -10.0771 	 6.71165 	 83.6649
| 37> H 	 -10.5267 	 5.21496 	 82.954
| 38> H 	 -10.0023 	 5.29407 	 84.6521
| 39> H 	 -6.50445 	 7.73578 	 87.4477
| 40> H 	 -12.8246 	 11.4967 	 83.6353
| 41> *
| 42>
| 43>                          ****END OF INPUT****

CARTESIAN COORDINATES (ANGSTROEM)
---------------------------------
  S     -8.138520    9.088690   85.853800
  C     -7.558560    7.898950   87.055600
  C     -8.598530    7.321450   87.756400
  C     -9.883380    7.735490   87.249900
  C     -9.805250    8.642510   86.144000
  H    -10.835400    7.490200   87.621300
  C     -8.400510    6.336300   88.867000
  H     -9.100080    6.371900   89.742300
  H     -7.498140    6.617730   89.426200
  C     -8.039460    4.950940   88.341500
  H     -8.904740    4.545660   87.819400
  H     -7.367760    5.159290   87.452400
  C     -7.289210    3.953140   89.375500
  H     -7.961140    3.660390   90.173900
  H     -6.811870    3.192950   88.714800
  H     -6.443300    4.515770   89.858400
  S    -11.028500   10.804900   85.116400
  C    -12.273400   10.644100   83.911400
  C    -12.709100    9.328360   83.858500
  C    -11.915100    8.415510   84.682300
  C    -10.851300    9.117450   85.251600
  H    -13.570400    9.048830   83.296700
  C    -12.394200    7.052440   85.097100
  H    -13.455100    6.991090   84.808700
  H    -12.285400    6.954360   86.154200
  C    -12.035200    5.883260   84.143100
  H    -12.422500    6.191250   83.169600
  H    -12.462100    4.931520   84.411700
  C    -10.545600    5.764670   83.838400
  H    -10.077100    6.711650   83.664900
  H    -10.526700    5.214960   82.954000
  H    -10.002300    5.294070   84.652100
  H     -6.504450    7.735780   87.447700
  H    -12.824600   11.496700   83.635300

 Total Charge           Charge          ....    0
 Multiplicity           Mult            ....    1
 Number of Electrons    NEL             ....  134
 Basis Dimension        Dim             ....  322

ORBITAL ENERGIES
----------------

  NO   OCC          E(Eh)            E(eV)
   0   2.0000     -88.970104     -2420.9996
   1   2.0000     -88.964421     -2420.8450
   2   2.0000     -10.334084      -281.2047
   3   2.0000     -10.324509      -280.9442
   4   2.0000     -10.320369      -280.8315
   5   2.0000     -10.314499      -280.6718
   6   2.0000     -10.307208      -280.4734
   7   2.0000     -10.305146      -280.4173
   8   2.0000     -10.299356      -280.2597
   9   2.0000     -10.298072      -280.2248
  10   2.0000     -10.294579      -280.1297
  11   2.0000     -10.294173      -280.1187
  12   2.0000     -10.293946      -280.1125
  13   2.0000     -10.290457      -280.0176
  14   2.0000     -10.283870      -279.8383
  15   2.0000     -10.256206      -279.0856
  16   2.0000      -8.083826      -219.9721
  17   2.0000      -8.080502      -219.8816
  18   2.0000      -6.042462      -164.4237
  19   2.0000      -6.038862      -164.3258
  20   2.0000      -6.038387      -164.3129
  21   2.0000      -6.034902      -164.2180
  22   2.0000      -6.034588      -164.2095
  23   2.0000      -6.031251      -164.1187
  24   2.0000      -1.009059       -27.4579
  25   2.0000      -0.981193       -26.6996
  26   2.0000      -0.912517       -24.8309
  27   2.0000      -0.910604       -24.7788
  28   2.0000      -0.865777       -23.5590
  29   2.0000      -0.850055       -23.1312
  30   2.0000      -0.839925       -22.8555
  31   2.0000      -0.811240       -22.0750
  32   2.0000      -0.785942       -21.3866
  33   2.0000      -0.773854       -21.0576
  34   2.0000      -0.705600       -19.2003
  35   2.0000      -0.699148       -19.0248
  36   2.0000      -0.693402       -18.8684
  37   2.0000      -0.663893       -18.0654
  38   2.0000      -0.639013       -17.3884
  39   2.0000      -0.618506       -16.8304
  40   2.0000      -0.596542       -16.2327
  41   2.0000      -0.571630       -15.5548
  42   2.0000      -0.557160       -15.1611
  43   2.0000      -0.545589       -14.8462
  44   2.0000      -0.542279       -14.7562
  45   2.0000      -0.528704       -14.3868
  46   2.0000      -0.526007       -14.3134
  47   2.0000      -0.511083       -13.9073
  48   2.0000      -0.505335       -13.7509
  49   2.0000      -0.496740       -13.5170
  50   2.0000      -0.492644       -13.4055
  51   2.0000      -0.475835       -12.9481
  52   2.0000      -0.468229       -12.7412
  53   2.0000      -0.462523       -12.5859
  54   2.0000      -0.459285       -12.4978
  55   2.0000      -0.448607       -12.2072
  56   2.0000      -0.443947       -12.0804
  57   2.0000      -0.437482       -11.9045
  58   2.0000      -0.432465       -11.7680
  59   2.0000      -0.424564       -11.5530
  60   2.0000      -0.422829       -11.5058
  61   2.0000      -0.411167       -11.1884
  62   2.0000      -0.399653       -10.8751
  63   2.0000      -0.345040        -9.3890
  64   2.0000      -0.332158        -9.0385
  65   2.0000      -0.324859        -8.8399
  66   2.0000      -0.290939        -7.9169
  67   0.0000       0.024138         0.6568
  68   0.0000       0.066142         1.7998
  69   0.0000       0.096993         2.6393
  70   0.0000       0.110569         3.0087
  71   0.0000       0.131442         3.5767

MULLIKEN ATOMIC CHARGES
-----------------------
   0 S :    0.121328
   1 C :   -0.130288
   2 C :   -0.095469
   3 C :    0.055062
   4 C :   -0.159188
   5 H :   -0.004909
   6 C :    0.055781
   7 H :    0.035822
   8 H :    0.003970
   9 C :   -0.110481
  10 H :    0.026364
  11 H :    0.030914
  12 C :   -0.053113
  13 H :    0.050883
  14 H :    0.056021
  15 H :    0.033828
  16 S :    0.109587
  17 C :   -0.070280
  18 C :   -0.029063
  19 C :   -0.055288
  20 C :   -0.169140
  21 H :    0.014784
  22 C :    0.086193
  23 H :    0.024415
  24 H :    0.027939
  25 C :   -0.084911
  26 H :    0.016338
  27 H :    0.031683
  28 C :   -0.012817
  29 H :    0.030483
  30 H :    0.014484
  31 H :    0.028928
  32 H :    0.069577
  33 H :    0.050559
Sum of atomic charges:   -0.0000000

LOEWDIN ATOMIC CHARGES
----------------------
   0 S :    0.403575
   1 C :   -0.202909
   2 C :   -0.061036
   3 C :   -0.057642
   4 C :   -0.194056
   5 H :    0.018929
   6 C :   -0.048601
   7 H :    0.034063
   8 H :    0.028169
   9 C :   -0.047064
  10 H :    0.019611
  11 H :    0.029791
  12 C :   -0.067843
  13 H :    0.026056
  14 H :    0.037158
  15 H :    0.028654
  16 S :    0.431704
  17 C :   -0.187178
  18 C :   -0.057427
  19 C :   -0.052570
  20 C :   -0.220837
  21 H :    0.026278
  22 C :   -0.034003
  23 H :    0.042789
  24 H :    0.023390
  25 C :   -0.030618
  26 H :    0.023551
  27 H :    0.021980
  28 C :   -0.060503
  29 H :    0.023390
  30 H :    0.016500
  31 H :    0.022045
  32 H :    0.044516
  33 H :    0.020136

  Mayer bond orders larger than 0.100000
B(  0-S ,  1-C ) :   1.1291 B(  0-S ,  4-C ) :   1.1625 B(  1-C ,  2-C ) :   1.6196
B(  1-C ,  4-C ) :   0.1067 B(  1-C , 32-H ) :   0.9506 B(  2-C ,  3-C ) :   1.2405
B(  2-C ,  6-C ) :   1.0366 B(  3-C ,  4-C ) :   1.5421 B(  3-C ,  5-H ) :   1.0044
B(  4-C , 20-C ) :   1.0297 B(  6-C ,  7-H ) :   0.9439 B(  6-C ,  8-H ) :   0.9309
B(  6-C ,  9-C ) :   1.0433 B(  9-C , 10-H ) :   0.9562 B(  9-C , 11-H ) :   0.9581
B(  9-C , 12-C ) :   1.0540 B( 12-C , 13-H ) :   0.9782 B( 12-C , 14-H ) :   0.9767
B( 12-C , 15-H ) :   0.9752 B( 16-S , 17-C ) :   1.1526 B( 16-S , 20-C ) :   1.1826
B( 17-C , 18-C ) :   1.5946 B( 17-C , 33-H ) :   0.9745 B( 18-C , 19-C ) :   1.2527
B( 18-C , 21-H ) :   0.9882 B( 19-C , 20-C ) :   1.5520 B( 19-C , 22-C ) :   1.0420
B( 22-C , 23-H ) :   0.9344 B( 22-C , 24-H ) :   0.9498 B( 22-C , 25-C ) :   1.0372
B( 25-C , 26-H ) :   0.9624 B( 25-C , 27-H ) :   0.9589 B( 25-C , 28-C ) :   1.0866
B( 28-C , 29-H ) :   0.9679 B( 28-C , 30-H ) :   0.9760 B( 28-C , 31-H ) :   0.9757

Dispersion correction           -0.015168546
FINAL SINGLE POINT ENERGY     -1339.848518620187

DIPOLE MOMENT
-------------
                                X             Y             Z
Electronic contribution:     -1.25487      28.53030      -6.75922
Nuclear contribution   :      0.86097     -29.01886       7.07562
                        -----------------------------------------
Total Dipole Moment    :     -0.39390      -0.48856       0.31640
                        -----------------------------------------
Magnitude (a.u.)       :      0.70282
Magnitude (Debye)      :      1.78643

Rotational constants in cm-1:     0.022231     0.008456     0.006842
Rotational constants in MHz :   666.480846   253.490430   205.109069

                             ****ORCA TERMINATED NORMALLY****
TOTAL RUN TIME: 0 days 0 hours 0 minutes 36 seconds 171 msec
