                         Program Version 4.2.1 -  RELEASE  -
|  1> ! wB97X-D3 SP def2-SVP
|  2> %pal
|  3> nprocs 16
|  4> end
|  5>
|  6> * xyz 0 1
|  7> S 	 -42.193 	 16.4679 	 80.8904
|  8> C 	 -42.4312 	 14.7436 	 80.4487
|  9> C 	 -42.1288 	 14.004 	 81.5946
| 10> C 	 -41.6295 	 14.7851 	 82.7207
| 11> C 	 -41.4254 	 16.1099 	 82.4266
| 12> H 	 -41.3347 	 14.3076 	 83.6839
| 13> C 	 -42.343 	 12.4651 	 81.6853
| 14> H 	 -41.557 	 11.9621 	 82.169
| 15> H 	 -42.2768 	 12.0975 	 80.6042
| 16> C 	 -43.7228 	 11.995 	 82.2438
| 17> H 	 -43.5626 	 10.9485 	 82.5681
| 18> H 	 -43.8732 	 12.6308 	 83.1168
| 19> C 	 -44.834 	 12.115 	 81.1982
| 20> H 	 -45.7392 	 11.5199 	 81.4934
| 21> H 	 -45.162 	 13.1086 	 81.1405
| 22> H 	 -44.3762 	 11.914 	 80.2583
| 23> S 	 -41.8247 	 18.4999 	 83.6436
| 24> C 	 -40.6925 	 18.9852 	 84.9402
| 25> C 	 -39.6831 	 18.0632 	 85.0525
| 26> C 	 -39.7131 	 17.0523 	 84.002
| 27> C 	 -40.8894 	 17.1308 	 83.2088
| 28> H 	 -38.9122 	 18.1828 	 85.804
| 29> C 	 -38.6715 	 15.9064 	 84.0032
| 30> H 	 -39.1821 	 14.9386 	 84.1454
| 31> H 	 -38.1122 	 16.0061 	 84.918
| 32> C 	 -37.7872 	 15.8435 	 82.8061
| 33> H 	 -38.4443 	 15.4848 	 82.0032
| 34> H 	 -37.0854 	 15.0843 	 82.874
| 35> C 	 -36.9994 	 17.0938 	 82.3731
| 36> H 	 -37.5624 	 17.9433 	 82.0245
| 37> H 	 -36.2768 	 16.8422 	 81.5642
| 38> H 	 -36.3232 	 17.4277 	 83.1944
| 39> H 	 -42.8177 	 14.4395 	 79.5001
| 40> H 	 -40.9742 	 19.7295 	 85.7453
| 41> *
| 42>
| 43>                          ****END OF INPUT****

CARTESIAN COORDINATES (ANGSTROEM)
---------------------------------
  S    -42.193000   16.467900   80.890400
  C    -42.431200   14.743600   80.448700
  C    -42.128800   14.004000   81.594600
  C    -41.629500   14.785100   82.720700
  C    -41.425400   16.109900   82.426600
  H    -41.334700   14.307600   83.683900
  C    -42.343000   12.465100   81.685300
  H    -41.557000   11.962100   82.169000
  H    -42.276800   12.097500   80.604200
  C    -43.722800   11.995000   82.243800
  H    -43.562600   10.948500   82.568100
  H    -43.873200   12.630800   83.116800
  C    -44.834000   12.115000   81.198200
  H    -45.739200   11.519900   81.493400
  H    -45.162000   13.108600   81.140500
  H    -44.376200   11.914000   80.258300
  S    -41.824700   18.499900   83.643600
  C    -40.692500   18.985200   84.940200
  C    -39.683100   18.063200   85.052500
  C    -39.713100   17.052300   84.002000
  C    -40.889400   17.130800   83.208800
  H    -38.912200   18.182800   85.804000
  C    -38.671500   15.906400   84.003200
  H    -39.182100   14.938600   84.145400
  H    -38.112200   16.006100   84.918000
  C    -37.787200   15.843500   82.806100
  H    -38.444300   15.484800   82.003200
  H    -37.085400   15.084300   82.874000
  C    -36.999400   17.093800   82.373100
  H    -37.562400   17.943300   82.024500
  H    -36.276800   16.842200   81.564200
  H    -36.323200   17.427700   83.194400
  H    -42.817700   14.439500   79.500100
  H    -40.974200   19.729500   85.745300

 Total Charge           Charge          ....    0
 Multiplicity           Mult            ....    1
 Number of Electrons    NEL             ....  134
 Basis Dimension        Dim             ....  322

ORBITAL ENERGIES
----------------

  NO   OCC          E(Eh)            E(eV)
   0   2.0000     -88.968067     -2420.9442
   1   2.0000     -88.960937     -2420.7502
   2   2.0000     -10.329863      -281.0899
   3   2.0000     -10.325627      -280.9746
   4   2.0000     -10.325432      -280.9693
   5   2.0000     -10.322091      -280.8784
   6   2.0000     -10.310895      -280.5737
   7   2.0000     -10.310577      -280.5651
   8   2.0000     -10.301471      -280.3173
   9   2.0000     -10.300210      -280.2830
  10   2.0000     -10.294916      -280.1389
  11   2.0000     -10.290721      -280.0248
  12   2.0000     -10.288193      -279.9560
  13   2.0000     -10.275293      -279.6049
  14   2.0000     -10.275075      -279.5990
  15   2.0000     -10.273242      -279.5491
  16   2.0000      -8.082907      -219.9471
  17   2.0000      -8.075482      -219.7450
  18   2.0000      -6.041479      -164.3970
  19   2.0000      -6.037298      -164.2832
  20   2.0000      -6.034126      -164.1969
  21   2.0000      -6.033659      -164.1842
  22   2.0000      -6.030015      -164.0851
  23   2.0000      -6.026099      -163.9785
  24   2.0000      -1.009025       -27.4570
  25   2.0000      -0.978461       -26.6253
  26   2.0000      -0.909033       -24.7360
  27   2.0000      -0.908194       -24.7132
  28   2.0000      -0.875872       -23.8337
  29   2.0000      -0.845402       -23.0046
  30   2.0000      -0.838032       -22.8040
  31   2.0000      -0.814330       -22.1590
  32   2.0000      -0.783668       -21.3247
  33   2.0000      -0.773688       -21.0531
  34   2.0000      -0.715667       -19.4743
  35   2.0000      -0.695912       -18.9367
  36   2.0000      -0.687991       -18.7212
  37   2.0000      -0.662051       -18.0153
  38   2.0000      -0.642080       -17.4719
  39   2.0000      -0.618781       -16.8379
  40   2.0000      -0.587285       -15.9808
  41   2.0000      -0.569603       -15.4997
  42   2.0000      -0.556275       -15.1370
  43   2.0000      -0.552588       -15.0367
  44   2.0000      -0.546439       -14.8694
  45   2.0000      -0.540150       -14.6982
  46   2.0000      -0.517850       -14.0914
  47   2.0000      -0.513420       -13.9709
  48   2.0000      -0.509459       -13.8631
  49   2.0000      -0.489288       -13.3142
  50   2.0000      -0.485255       -13.2044
  51   2.0000      -0.482093       -13.1184
  52   2.0000      -0.470516       -12.8034
  53   2.0000      -0.465911       -12.6781
  54   2.0000      -0.453583       -12.3426
  55   2.0000      -0.444067       -12.0837
  56   2.0000      -0.441774       -12.0213
  57   2.0000      -0.436461       -11.8767
  58   2.0000      -0.433186       -11.7876
  59   2.0000      -0.424070       -11.5395
  60   2.0000      -0.417844       -11.3701
  61   2.0000      -0.410039       -11.1577
  62   2.0000      -0.405359       -11.0304
  63   2.0000      -0.354120        -9.6361
  64   2.0000      -0.331059        -9.0086
  65   2.0000      -0.325994        -8.8707
  66   2.0000      -0.291419        -7.9299
  67   0.0000       0.021412         0.5827
  68   0.0000       0.062622         1.7040
  69   0.0000       0.102566         2.7910
  70   0.0000       0.115198         3.1347
  71   0.0000       0.134036         3.6473

MULLIKEN ATOMIC CHARGES
-----------------------
   0 S :    0.077804
   1 C :   -0.109059
   2 C :   -0.098790
   3 C :    0.034257
   4 C :   -0.157873
   5 H :    0.034450
   6 C :    0.016866
   7 H :    0.016640
   8 H :    0.025775
   9 C :   -0.071456
  10 H :    0.035692
  11 H :    0.030546
  12 C :   -0.008935
  13 H :    0.047406
  14 H :    0.022046
  15 H :    0.011826
  16 S :    0.109838
  17 C :   -0.117935
  18 C :   -0.036587
  19 C :   -0.076865
  20 C :   -0.115858
  21 H :    0.030049
  22 C :    0.099535
  23 H :    0.021966
  24 H :    0.001129
  25 C :   -0.031582
  26 H :    0.031647
  27 H :    0.006123
  28 C :   -0.067880
  29 H :    0.046486
  30 H :    0.032440
  31 H :    0.023935
  32 H :    0.048641
  33 H :    0.087724
Sum of atomic charges:    0.0000000

LOEWDIN ATOMIC CHARGES
----------------------
   0 S :    0.376172
   1 C :   -0.178007
   2 C :   -0.060437
   3 C :   -0.067970
   4 C :   -0.187531
   5 H :    0.037578
   6 C :   -0.033307
   7 H :    0.018913
   8 H :    0.032150
   9 C :   -0.038213
  10 H :    0.026057
  11 H :    0.023710
  12 C :   -0.061080
  13 H :    0.036074
  14 H :    0.020679
  15 H :    0.018102
  16 S :    0.412983
  17 C :   -0.188599
  18 C :   -0.068527
  19 C :   -0.046476
  20 C :   -0.220386
  21 H :    0.033456
  22 C :   -0.030220
  23 H :    0.033201
  24 H :    0.022638
  25 C :   -0.042736
  26 H :    0.030210
  27 H :    0.016779
  28 C :   -0.068880
  29 H :    0.024204
  30 H :    0.031375
  31 H :    0.025656
  32 H :    0.025922
  33 H :    0.046508

  Mayer bond orders larger than 0.100000
B(  0-S ,  1-C ) :   1.1181 B(  0-S ,  4-C ) :   1.1357 B(  1-C ,  2-C ) :   1.6072
B(  1-C ,  4-C ) :   0.1015 B(  1-C , 32-H ) :   0.9812 B(  2-C ,  3-C ) :   1.2275
B(  2-C ,  6-C ) :   1.0184 B(  3-C ,  4-C ) :   1.5735 B(  3-C ,  5-H ) :   0.9832
B(  4-C , 20-C ) :   1.0790 B(  6-C ,  7-H ) :   0.9467 B(  6-C ,  8-H ) :   0.9491
B(  6-C ,  9-C ) :   1.0619 B(  9-C , 10-H ) :   0.9580 B(  9-C , 11-H ) :   0.9575
B(  9-C , 12-C ) :   1.0721 B( 12-C , 13-H ) :   0.9735 B( 12-C , 14-H ) :   0.9726
B( 12-C , 15-H ) :   0.9752 B( 16-S , 17-C ) :   1.1424 B( 16-S , 20-C ) :   1.1538
B( 17-C , 18-C ) :   1.6186 B( 17-C , 33-H ) :   0.9573 B( 18-C , 19-C ) :   1.2522
B( 18-C , 21-H ) :   0.9845 B( 19-C , 20-C ) :   1.5450 B( 19-C , 22-C ) :   1.0337
B( 22-C , 23-H ) :   0.9321 B( 22-C , 24-H ) :   0.9312 B( 22-C , 25-C ) :   1.0845
B( 25-C , 26-H ) :   0.9501 B( 25-C , 27-H ) :   0.9494 B( 25-C , 28-C ) :   1.0785
B( 28-C , 29-H ) :   0.9751 B( 28-C , 30-H ) :   0.9737 B( 28-C , 31-H ) :   0.9741

Dispersion correction           -0.014890989
FINAL SINGLE POINT ENERGY     -1339.867926984590

DIPOLE MOMENT
-------------
                                X             Y             Z
Electronic contribution:     -7.18599      20.06103       0.82909
Nuclear contribution   :      7.41299     -20.65533      -0.39903
                        -----------------------------------------
Total Dipole Moment    :      0.22701      -0.59431       0.43006
                        -----------------------------------------
Magnitude (a.u.)       :      0.76791
Magnitude (Debye)      :      1.95187

Rotational constants in cm-1:     0.021545     0.008063     0.007104
Rotational constants in MHz :   645.902553   241.728897   212.970928

                             ****ORCA TERMINATED NORMALLY****
TOTAL RUN TIME: 0 days 0 hours 0 minutes 28 seconds 834 msec
