                         Program Version 4.2.1 -  RELEASE  -
|  1> ! wB97X-D3 SP def2-SVP
|  2> %pal
|  3> nprocs 16
|  4> end
|  5>
|  6> * xyz 0 1
|  7> S 	 -84.1624 	 51.754 	 139.01
|  8> C 	 -83.9939 	 50.1748 	 139.747
|  9> C 	 -82.6725 	 49.9117 	 140.141
| 10> C 	 -81.7932 	 50.9603 	 139.795
| 11> C 	 -82.437 	 52.0388 	 139.151
| 12> H 	 -80.7581 	 50.9844 	 139.976
| 13> C 	 -82.214 	 48.5296 	 140.768
| 14> H 	 -81.9057 	 48.701 	 141.764
| 15> H 	 -81.2575 	 48.2075 	 140.35
| 16> C 	 -83.1255 	 47.338 	 140.682
| 17> H 	 -83.4417 	 47.3707 	 139.62
| 18> H 	 -82.4278 	 46.5386 	 140.96
| 19> C 	 -84.2955 	 47.2507 	 141.697
| 20> H 	 -84.9152 	 48.1304 	 141.734
| 21> H 	 -84.9622 	 46.4262 	 141.44
| 22> H 	 -83.9395 	 47.0493 	 142.651
| 23> S 	 -82.2213 	 54.7619 	 139.302
| 24> C 	 -81.0618 	 55.4733 	 138.172
| 25> C 	 -80.4604 	 54.5779 	 137.293
| 26> C 	 -80.8168 	 53.2556 	 137.618
| 27> C 	 -81.7859 	 53.1874 	 138.587
| 28> H 	 -79.9755 	 54.955 	 136.457
| 29> C 	 -80.3279 	 52.0464 	 136.824
| 30> H 	 -80.9935 	 52.1254 	 135.916
| 31> H 	 -80.6913 	 51.1611 	 137.312
| 32> C 	 -78.7809 	 52.0604 	 136.628
| 33> H 	 -78.4132 	 52.9664 	 136.179
| 34> H 	 -78.459 	 51.2837 	 135.914
| 35> C 	 -78.1357 	 51.5919 	 137.949
| 36> H 	 -78.7159 	 50.7377 	 138.295
| 37> H 	 -78.1422 	 52.4163 	 138.72
| 38> H 	 -77.0612 	 51.3579 	 137.846
| 39> H 	 -84.7951 	 49.4304 	 139.766
| 40> H 	 -81.0127 	 56.495 	 137.922
| 41> *
| 42>
| 43>                          ****END OF INPUT****

CARTESIAN COORDINATES (ANGSTROEM)
---------------------------------
  S    -84.162400   51.754000  139.010000
  C    -83.993900   50.174800  139.747000
  C    -82.672500   49.911700  140.141000
  C    -81.793200   50.960300  139.795000
  C    -82.437000   52.038800  139.151000
  H    -80.758100   50.984400  139.976000
  C    -82.214000   48.529600  140.768000
  H    -81.905700   48.701000  141.764000
  H    -81.257500   48.207500  140.350000
  C    -83.125500   47.338000  140.682000
  H    -83.441700   47.370700  139.620000
  H    -82.427800   46.538600  140.960000
  C    -84.295500   47.250700  141.697000
  H    -84.915200   48.130400  141.734000
  H    -84.962200   46.426200  141.440000
  H    -83.939500   47.049300  142.651000
  S    -82.221300   54.761900  139.302000
  C    -81.061800   55.473300  138.172000
  C    -80.460400   54.577900  137.293000
  C    -80.816800   53.255600  137.618000
  C    -81.785900   53.187400  138.587000
  H    -79.975500   54.955000  136.457000
  C    -80.327900   52.046400  136.824000
  H    -80.993500   52.125400  135.916000
  H    -80.691300   51.161100  137.312000
  C    -78.780900   52.060400  136.628000
  H    -78.413200   52.966400  136.179000
  H    -78.459000   51.283700  135.914000
  C    -78.135700   51.591900  137.949000
  H    -78.715900   50.737700  138.295000
  H    -78.142200   52.416300  138.720000
  H    -77.061200   51.357900  137.846000
  H    -84.795100   49.430400  139.766000
  H    -81.012700   56.495000  137.922000

 Total Charge           Charge          ....    0
 Multiplicity           Mult            ....    1
 Number of Electrons    NEL             ....  134
 Basis Dimension        Dim             ....  322

ORBITAL ENERGIES
----------------

  NO   OCC          E(Eh)            E(eV)
   0   2.0000     -88.968720     -2420.9620
   1   2.0000     -88.966240     -2420.8945
   2   2.0000     -10.327063      -281.0137
   3   2.0000     -10.319883      -280.8183
   4   2.0000     -10.315646      -280.7030
   5   2.0000     -10.313196      -280.6363
   6   2.0000     -10.305574      -280.4289
   7   2.0000     -10.300151      -280.2814
   8   2.0000     -10.293578      -280.1025
   9   2.0000     -10.292101      -280.0623
  10   2.0000     -10.291429      -280.0440
  11   2.0000     -10.290864      -280.0286
  12   2.0000     -10.290303      -280.0134
  13   2.0000     -10.288220      -279.9567
  14   2.0000     -10.283835      -279.8374
  15   2.0000     -10.273454      -279.5549
  16   2.0000      -8.083124      -219.9530
  17   2.0000      -8.080241      -219.8745
  18   2.0000      -6.041516      -164.3980
  19   2.0000      -6.038700      -164.3214
  20   2.0000      -6.037636      -164.2924
  21   2.0000      -6.035088      -164.2231
  22   2.0000      -6.034078      -164.1956
  23   2.0000      -6.030869      -164.1083
  24   2.0000      -1.003500       -27.3066
  25   2.0000      -0.979358       -26.6497
  26   2.0000      -0.911755       -24.8101
  27   2.0000      -0.906323       -24.6623
  28   2.0000      -0.867100       -23.5950
  29   2.0000      -0.851111       -23.1599
  30   2.0000      -0.847164       -23.0525
  31   2.0000      -0.809181       -22.0189
  32   2.0000      -0.790193       -21.5022
  33   2.0000      -0.769053       -20.9270
  34   2.0000      -0.706627       -19.2283
  35   2.0000      -0.702418       -19.1138
  36   2.0000      -0.696182       -18.9441
  37   2.0000      -0.661451       -17.9990
  38   2.0000      -0.641604       -17.4589
  39   2.0000      -0.611751       -16.6466
  40   2.0000      -0.593948       -16.1621
  41   2.0000      -0.582305       -15.8453
  42   2.0000      -0.555127       -15.1058
  43   2.0000      -0.548582       -14.9277
  44   2.0000      -0.541750       -14.7418
  45   2.0000      -0.533789       -14.5251
  46   2.0000      -0.517212       -14.0740
  47   2.0000      -0.510575       -13.8935
  48   2.0000      -0.504471       -13.7273
  49   2.0000      -0.488743       -13.2994
  50   2.0000      -0.485764       -13.2183
  51   2.0000      -0.482726       -13.1357
  52   2.0000      -0.467574       -12.7233
  53   2.0000      -0.461943       -12.5701
  54   2.0000      -0.458774       -12.4839
  55   2.0000      -0.448877       -12.2146
  56   2.0000      -0.447303       -12.1717
  57   2.0000      -0.439106       -11.9487
  58   2.0000      -0.436454       -11.8765
  59   2.0000      -0.432980       -11.7820
  60   2.0000      -0.423726       -11.5302
  61   2.0000      -0.416391       -11.3306
  62   2.0000      -0.409173       -11.1342
  63   2.0000      -0.338179        -9.2023
  64   2.0000      -0.332113        -9.0373
  65   2.0000      -0.329853        -8.9757
  66   2.0000      -0.290570        -7.9068
  67   0.0000       0.032626         0.8878
  68   0.0000       0.060874         1.6565
  69   0.0000       0.111760         3.0411
  70   0.0000       0.122040         3.3209
  71   0.0000       0.124492         3.3876

MULLIKEN ATOMIC CHARGES
-----------------------
   0 S :    0.125593
   1 C :   -0.148314
   2 C :   -0.073653
   3 C :    0.051687
   4 C :   -0.181142
   5 H :   -0.007306
   6 C :    0.083114
   7 H :    0.011403
   8 H :    0.019049
   9 C :   -0.098844
  10 H :    0.040590
  11 H :    0.034202
  12 C :   -0.013880
  13 H :    0.026023
  14 H :    0.032484
  15 H :    0.013881
  16 S :    0.109325
  17 C :   -0.064353
  18 C :   -0.038231
  19 C :   -0.024906
  20 C :   -0.178640
  21 H :    0.001725
  22 C :    0.064737
  23 H :    0.050155
  24 H :    0.017941
  25 C :   -0.056714
  26 H :    0.029908
  27 H :    0.030752
  28 C :   -0.076359
  29 H :    0.036124
  30 H :    0.048569
  31 H :    0.039904
  32 H :    0.057802
  33 H :    0.037373
Sum of atomic charges:   -0.0000000

LOEWDIN ATOMIC CHARGES
----------------------
   0 S :    0.412404
   1 C :   -0.209945
   2 C :   -0.058196
   3 C :   -0.055195
   4 C :   -0.198092
   5 H :    0.023797
   6 C :   -0.031037
   7 H :    0.023399
   8 H :    0.031649
   9 C :   -0.045472
  10 H :    0.028814
  11 H :    0.033987
  12 C :   -0.060279
  13 H :    0.020783
  14 H :    0.029975
  15 H :    0.016909
  16 S :    0.383828
  17 C :   -0.166707
  18 C :   -0.060782
  19 C :   -0.050224
  20 C :   -0.198576
  21 H :    0.023347
  22 C :   -0.029158
  23 H :    0.043209
  24 H :    0.024578
  25 C :   -0.040316
  26 H :    0.019564
  27 H :    0.027796
  28 C :   -0.067289
  29 H :    0.024781
  30 H :    0.030719
  31 H :    0.027343
  32 H :    0.027718
  33 H :    0.016667

  Mayer bond orders larger than 0.100000
B(  0-S ,  1-C ) :   1.1443 B(  0-S ,  4-C ) :   1.1667 B(  1-C ,  2-C ) :   1.5976
B(  1-C ,  4-C ) :   0.1050 B(  1-C , 32-H ) :   0.9562 B(  2-C ,  3-C ) :   1.2718
B(  2-C ,  6-C ) :   0.9928 B(  3-C ,  4-C ) :   1.5400 B(  3-C ,  5-H ) :   1.0061
B(  4-C , 20-C ) :   1.0374 B(  6-C ,  7-H ) :   0.9267 B(  6-C ,  8-H ) :   0.9465
B(  6-C ,  9-C ) :   1.0797 B(  9-C , 10-H ) :   0.9569 B(  9-C , 11-H ) :   0.9523
B(  9-C , 12-C ) :   1.0763 B( 12-C , 13-H ) :   0.9787 B( 12-C , 14-H ) :   0.9736
B( 12-C , 15-H ) :   0.9711 B( 16-S , 17-C ) :   1.1446 B( 16-S , 20-C ) :   1.1257
B( 17-C , 18-C ) :   1.6504 B( 17-C , 20-C ) :   0.1035 B( 17-C , 33-H ) :   0.9629
B( 18-C , 19-C ) :   1.2045 B( 18-C , 21-H ) :   0.9975 B( 19-C , 20-C ) :   1.6291
B( 19-C , 22-C ) :   1.0223 B( 22-C , 23-H ) :   0.9348 B( 22-C , 24-H ) :   0.9378
B( 22-C , 25-C ) :   1.0591 B( 25-C , 26-H ) :   0.9606 B( 25-C , 27-H ) :   0.9573
B( 25-C , 28-C ) :   1.0610 B( 28-C , 29-H ) :   0.9719 B( 28-C , 30-H ) :   0.9767
B( 28-C , 31-H ) :   0.9748

Dispersion correction           -0.014897606
FINAL SINGLE POINT ENERGY     -1339.867738363220

DIPOLE MOMENT
-------------
                                X             Y             Z
Electronic contribution:    -12.14374      23.07081      -1.04473
Nuclear contribution   :     12.58338     -23.56157       0.79946
                        -----------------------------------------
Total Dipole Moment    :      0.43964      -0.49076      -0.24527
                        -----------------------------------------
Magnitude (a.u.)       :      0.70305
Magnitude (Debye)      :      1.78702

Rotational constants in cm-1:     0.021952     0.008053     0.006431
Rotational constants in MHz :   658.119256   241.419020   192.804436

                             ****ORCA TERMINATED NORMALLY****
TOTAL RUN TIME: 0 days 0 hours 0 minutes 35 seconds 830 msec
