                         Program Version 4.2.1 -  RELEASE  -
|  1> ! wB97X-D3 SP def2-SVP
|  2> %pal
|  3> nprocs 16
|  4> end
|  5>
|  6> * xyz 0 1
|  7> S 	 -77.4396 	 48.5429 	 122.301
|  8> C 	 -78.9341 	 47.7135 	 122.713
|  9> C 	 -78.9059 	 46.3876 	 122.326
| 10> C 	 -77.7742 	 46.1484 	 121.477
| 11> C 	 -76.8714 	 47.1667 	 121.33
| 12> H 	 -77.5978 	 45.139 	 121.101
| 13> C 	 -79.9873 	 45.3074 	 122.5
| 14> H 	 -80.5403 	 45.1645 	 121.598
| 15> H 	 -80.7655 	 45.6878 	 123.158
| 16> C 	 -79.4187 	 43.9623 	 123.063
| 17> H 	 -80.2317 	 43.1884 	 122.984
| 18> H 	 -78.4087 	 43.6745 	 122.642
| 19> C 	 -79.0883 	 44.0894 	 124.516
| 20> H 	 -80.0083 	 44.1649 	 125.057
| 21> H 	 -78.5288 	 43.1925 	 124.858
| 22> H 	 -78.4548 	 44.9265 	 124.719
| 23> S 	 -75.2627 	 48.9334 	 119.821
| 24> C 	 -74.0695 	 48.2914 	 118.759
| 25> C 	 -73.9801 	 46.9476 	 118.956
| 26> C 	 -74.9456 	 46.4083 	 119.844
| 27> C 	 -75.8184 	 47.3629 	 120.338
| 28> H 	 -73.2322 	 46.3994 	 118.457
| 29> C 	 -74.9717 	 44.9559 	 120.029
| 30> H 	 -74.2429 	 44.4899 	 119.331
| 31> H 	 -75.8956 	 44.6076 	 119.631
| 32> C 	 -74.6785 	 44.4274 	 121.447
| 33> H 	 -75.2492 	 44.9318 	 122.17
| 34> H 	 -73.6641 	 44.6545 	 121.694
| 35> C 	 -75.0595 	 42.9515 	 121.507
| 36> H 	 -75.03 	 42.5712 	 122.519
| 37> H 	 -74.397 	 42.3227 	 120.863
| 38> H 	 -76.0523 	 42.9038 	 121.155
| 39> H 	 -79.7018 	 48.2025 	 123.361
| 40> H 	 -73.299 	 48.8721 	 118.353
| 41> *
| 42>
| 43>                          ****END OF INPUT****

CARTESIAN COORDINATES (ANGSTROEM)
---------------------------------
  S    -77.439600   48.542900  122.301000
  C    -78.934100   47.713500  122.713000
  C    -78.905900   46.387600  122.326000
  C    -77.774200   46.148400  121.477000
  C    -76.871400   47.166700  121.330000
  H    -77.597800   45.139000  121.101000
  C    -79.987300   45.307400  122.500000
  H    -80.540300   45.164500  121.598000
  H    -80.765500   45.687800  123.158000
  C    -79.418700   43.962300  123.063000
  H    -80.231700   43.188400  122.984000
  H    -78.408700   43.674500  122.642000
  C    -79.088300   44.089400  124.516000
  H    -80.008300   44.164900  125.057000
  H    -78.528800   43.192500  124.858000
  H    -78.454800   44.926500  124.719000
  S    -75.262700   48.933400  119.821000
  C    -74.069500   48.291400  118.759000
  C    -73.980100   46.947600  118.956000
  C    -74.945600   46.408300  119.844000
  C    -75.818400   47.362900  120.338000
  H    -73.232200   46.399400  118.457000
  C    -74.971700   44.955900  120.029000
  H    -74.242900   44.489900  119.331000
  H    -75.895600   44.607600  119.631000
  C    -74.678500   44.427400  121.447000
  H    -75.249200   44.931800  122.170000
  H    -73.664100   44.654500  121.694000
  C    -75.059500   42.951500  121.507000
  H    -75.030000   42.571200  122.519000
  H    -74.397000   42.322700  120.863000
  H    -76.052300   42.903800  121.155000
  H    -79.701800   48.202500  123.361000
  H    -73.299000   48.872100  118.353000

 Total Charge           Charge          ....    0
 Multiplicity           Mult            ....    1
 Number of Electrons    NEL             ....  134
 Basis Dimension        Dim             ....  322

ORBITAL ENERGIES
----------------

  NO   OCC          E(Eh)            E(eV)
   0   2.0000     -88.964982     -2420.8602
   1   2.0000     -88.964721     -2420.8531
   2   2.0000     -10.334149      -281.2065
   3   2.0000     -10.328236      -281.0456
   4   2.0000     -10.321050      -280.8501
   5   2.0000     -10.308764      -280.5157
   6   2.0000     -10.305493      -280.4267
   7   2.0000     -10.296879      -280.1923
   8   2.0000     -10.296521      -280.1826
   9   2.0000     -10.295496      -280.1547
  10   2.0000     -10.295196      -280.1465
  11   2.0000     -10.286004      -279.8964
  12   2.0000     -10.285715      -279.8885
  13   2.0000     -10.277533      -279.6659
  14   2.0000     -10.276710      -279.6435
  15   2.0000     -10.270183      -279.4659
  16   2.0000      -8.080229      -219.8742
  17   2.0000      -8.079225      -219.8469
  18   2.0000      -6.038756      -164.3229
  19   2.0000      -6.037853      -164.2983
  20   2.0000      -6.034596      -164.2097
  21   2.0000      -6.033823      -164.1887
  22   2.0000      -6.031009      -164.1121
  23   2.0000      -6.029827      -164.0799
  24   2.0000      -1.011613       -27.5274
  25   2.0000      -0.987774       -26.8787
  26   2.0000      -0.917398       -24.9637
  27   2.0000      -0.913838       -24.8668
  28   2.0000      -0.873415       -23.7668
  29   2.0000      -0.857885       -23.3442
  30   2.0000      -0.845400       -23.0045
  31   2.0000      -0.818821       -22.2812
  32   2.0000      -0.783469       -21.3193
  33   2.0000      -0.773291       -21.0423
  34   2.0000      -0.714485       -19.4421
  35   2.0000      -0.700352       -19.0576
  36   2.0000      -0.689192       -18.7539
  37   2.0000      -0.665704       -18.1147
  38   2.0000      -0.640658       -17.4332
  39   2.0000      -0.628672       -17.1070
  40   2.0000      -0.603413       -16.4197
  41   2.0000      -0.574968       -15.6457
  42   2.0000      -0.569066       -15.4851
  43   2.0000      -0.551069       -14.9953
  44   2.0000      -0.545578       -14.8459
  45   2.0000      -0.530827       -14.4445
  46   2.0000      -0.517184       -14.0733
  47   2.0000      -0.515444       -14.0259
  48   2.0000      -0.509647       -13.8682
  49   2.0000      -0.499094       -13.5810
  50   2.0000      -0.493738       -13.4353
  51   2.0000      -0.484690       -13.1891
  52   2.0000      -0.469463       -12.7747
  53   2.0000      -0.466874       -12.7043
  54   2.0000      -0.458871       -12.4865
  55   2.0000      -0.451153       -12.2765
  56   2.0000      -0.444760       -12.1025
  57   2.0000      -0.440910       -11.9978
  58   2.0000      -0.436738       -11.8842
  59   2.0000      -0.421727       -11.4758
  60   2.0000      -0.420185       -11.4338
  61   2.0000      -0.417667       -11.3653
  62   2.0000      -0.412143       -11.2150
  63   2.0000      -0.361289        -9.8312
  64   2.0000      -0.333157        -9.0657
  65   2.0000      -0.328104        -8.9282
  66   2.0000      -0.287005        -7.8098
  67   0.0000       0.018393         0.5005
  68   0.0000       0.083141         2.2624
  69   0.0000       0.099655         2.7118
  70   0.0000       0.121223         3.2986
  71   0.0000       0.127111         3.4589

MULLIKEN ATOMIC CHARGES
-----------------------
   0 S :    0.085802
   1 C :   -0.152366
   2 C :   -0.084768
   3 C :   -0.002461
   4 C :   -0.120707
   5 H :    0.003859
   6 C :    0.092595
   7 H :    0.038500
   8 H :    0.007946
   9 C :   -0.114560
  10 H :    0.042271
  11 H :    0.045511
  12 C :   -0.045846
  13 H :    0.020321
  14 H :    0.034504
  15 H :    0.035944
  16 S :    0.096458
  17 C :   -0.061240
  18 C :   -0.028789
  19 C :   -0.040048
  20 C :   -0.092684
  21 H :    0.000440
  22 C :    0.024190
  23 H :    0.015029
  24 H :    0.022842
  25 C :   -0.038654
  26 H :    0.022643
  27 H :    0.020012
  28 C :   -0.021448
  29 H :    0.032795
  30 H :    0.032997
  31 H :    0.014200
  32 H :    0.067679
  33 H :    0.047034
Sum of atomic charges:   -0.0000000

LOEWDIN ATOMIC CHARGES
----------------------
   0 S :    0.382080
   1 C :   -0.193227
   2 C :   -0.067025
   3 C :   -0.065770
   4 C :   -0.174954
   5 H :    0.026759
   6 C :   -0.027706
   7 H :    0.030269
   8 H :    0.028842
   9 C :   -0.045840
  10 H :    0.031410
  11 H :    0.030151
  12 C :   -0.064278
  13 H :    0.018248
  14 H :    0.028986
  15 H :    0.022377
  16 S :    0.419966
  17 C :   -0.186932
  18 C :   -0.064693
  19 C :   -0.058555
  20 C :   -0.198882
  21 H :    0.023427
  22 C :   -0.034380
  23 H :    0.034151
  24 H :    0.024882
  25 C :   -0.029577
  26 H :    0.016620
  27 H :    0.021675
  28 C :   -0.056518
  29 H :    0.024906
  30 H :    0.028576
  31 H :    0.015281
  32 H :    0.036669
  33 H :    0.023062

  Mayer bond orders larger than 0.100000
B(  0-S ,  1-C ) :   1.1439 B(  0-S ,  4-C ) :   1.1228 B(  1-C ,  2-C ) :   1.6069
B(  1-C , 32-H ) :   0.9595 B(  2-C ,  3-C ) :   1.2459 B(  2-C ,  6-C ) :   1.0201
B(  3-C ,  4-C ) :   1.5773 B(  3-C ,  5-H ) :   0.9802 B(  4-C , 20-C ) :   1.0826
B(  6-C ,  7-H ) :   0.9451 B(  6-C ,  8-H ) :   0.9391 B(  6-C ,  9-C ) :   1.0537
B(  9-C , 10-H ) :   0.9564 B(  9-C , 11-H ) :   0.9601 B(  9-C , 12-C ) :   1.0731
B( 12-C , 13-H ) :   0.9738 B( 12-C , 14-H ) :   0.9732 B( 12-C , 15-H ) :   0.9762
B( 16-S , 17-C ) :   1.1663 B( 16-S , 20-C ) :   1.1343 B( 17-C , 18-C ) :   1.5826
B( 17-C , 33-H ) :   0.9691 B( 18-C , 19-C ) :   1.2860 B( 18-C , 21-H ) :   0.9976
B( 19-C , 20-C ) :   1.5449 B( 19-C , 22-C ) :   1.0465 B( 22-C , 23-H ) :   0.9305
B( 22-C , 24-H ) :   0.9340 B( 22-C , 25-C ) :   1.0484 B( 25-C , 26-H ) :   0.9581
B( 25-C , 27-H ) :   0.9506 B( 25-C , 28-C ) :   1.0816 B( 28-C , 29-H ) :   0.9733
B( 28-C , 30-H ) :   0.9725 B( 28-C , 31-H ) :   0.9725

Dispersion correction           -0.015220586
FINAL SINGLE POINT ENERGY     -1339.880246457971

DIPOLE MOMENT
-------------
                                X             Y             Z
Electronic contribution:      5.00876      29.70020      -9.40867
Nuclear contribution   :     -5.04687     -30.37891       9.47819
                        -----------------------------------------
Total Dipole Moment    :     -0.03811      -0.67871       0.06953
                        -----------------------------------------
Magnitude (a.u.)       :      0.68332
Magnitude (Debye)      :      1.73687

Rotational constants in cm-1:     0.019475     0.010004     0.007089
Rotational constants in MHz :   583.838411   299.903413   212.525961

                             ****ORCA TERMINATED NORMALLY****
TOTAL RUN TIME: 0 days 0 hours 0 minutes 34 seconds 746 msec
