                         Program Version 4.2.1 -  RELEASE  -
|  1> ! wB97X-D3 SP def2-SVP
|  2> %pal
|  3> nprocs 16
|  4> end
|  5>
|  6> * xyz 0 1
|  7> S 	 64.9549 	 -7.58406 	 87.4677
|  8> C 	 63.682 	 -6.42755 	 87.1912
|  9> C 	 64.2091 	 -5.19499 	 86.7037
| 10> C 	 65.5766 	 -5.31847 	 86.3983
| 11> C 	 66.1619 	 -6.48725 	 86.7571
| 12> H 	 66.2312 	 -4.51888 	 86.0074
| 13> C 	 63.3696 	 -4.04382 	 86.1795
| 14> H 	 63.956 	 -3.15142 	 86.566
| 15> H 	 62.4498 	 -3.96445 	 86.7573
| 16> C 	 63.0646 	 -3.92955 	 84.6851
| 17> H 	 63.815 	 -4.06803 	 83.9614
| 18> H 	 62.3617 	 -4.69405 	 84.4876
| 19> C 	 62.2565 	 -2.66738 	 84.4573
| 20> H 	 61.9962 	 -2.49657 	 83.4162
| 21> H 	 61.3337 	 -2.88073 	 84.9864
| 22> H 	 62.7271 	 -1.84453 	 84.9332
| 23> S 	 68.5218 	 -6.61902 	 88.248
| 24> C 	 69.9833 	 -7.08079 	 87.3492
| 25> C 	 69.8354 	 -6.86726 	 85.9875
| 26> C 	 68.5101 	 -6.61793 	 85.6079
| 27> C 	 67.5954 	 -6.66757 	 86.697
| 28> H 	 70.7207 	 -7.03687 	 85.4997
| 29> C 	 68.1308 	 -6.44831 	 84.1134
| 30> H 	 67.1029 	 -6.16708 	 84.2694
| 31> H 	 68.092 	 -7.41713 	 83.6283
| 32> C 	 68.7352 	 -5.32876 	 83.3201
| 33> H 	 68.8972 	 -4.38553 	 83.9628
| 34> H 	 68.0061 	 -4.96497 	 82.5668
| 35> C 	 70.1295 	 -5.48522 	 82.7055
| 36> H 	 70.7362 	 -6.23316 	 83.1778
| 37> H 	 70.7973 	 -4.6002 	 82.7308
| 38> H 	 70.1162 	 -5.75084 	 81.6672
| 39> H 	 62.6151 	 -6.5167 	 87.3625
| 40> H 	 70.9513 	 -7.08401 	 87.8269
| 41> *
| 42>
| 43>                          ****END OF INPUT****

CARTESIAN COORDINATES (ANGSTROEM)
---------------------------------
  S     64.954900   -7.584060   87.467700
  C     63.682000   -6.427550   87.191200
  C     64.209100   -5.194990   86.703700
  C     65.576600   -5.318470   86.398300
  C     66.161900   -6.487250   86.757100
  H     66.231200   -4.518880   86.007400
  C     63.369600   -4.043820   86.179500
  H     63.956000   -3.151420   86.566000
  H     62.449800   -3.964450   86.757300
  C     63.064600   -3.929550   84.685100
  H     63.815000   -4.068030   83.961400
  H     62.361700   -4.694050   84.487600
  C     62.256500   -2.667380   84.457300
  H     61.996200   -2.496570   83.416200
  H     61.333700   -2.880730   84.986400
  H     62.727100   -1.844530   84.933200
  S     68.521800   -6.619020   88.248000
  C     69.983300   -7.080790   87.349200
  C     69.835400   -6.867260   85.987500
  C     68.510100   -6.617930   85.607900
  C     67.595400   -6.667570   86.697000
  H     70.720700   -7.036870   85.499700
  C     68.130800   -6.448310   84.113400
  H     67.102900   -6.167080   84.269400
  H     68.092000   -7.417130   83.628300
  C     68.735200   -5.328760   83.320100
  H     68.897200   -4.385530   83.962800
  H     68.006100   -4.964970   82.566800
  C     70.129500   -5.485220   82.705500
  H     70.736200   -6.233160   83.177800
  H     70.797300   -4.600200   82.730800
  H     70.116200   -5.750840   81.667200
  H     62.615100   -6.516700   87.362500
  H     70.951300   -7.084010   87.826900

 Total Charge           Charge          ....    0
 Multiplicity           Mult            ....    1
 Number of Electrons    NEL             ....  134
 Basis Dimension        Dim             ....  322

ORBITAL ENERGIES
----------------

  NO   OCC          E(Eh)            E(eV)
   0   2.0000     -88.972118     -2421.0544
   1   2.0000     -88.963076     -2420.8084
   2   2.0000     -10.332707      -281.1672
   3   2.0000     -10.326070      -280.9866
   4   2.0000     -10.321097      -280.8513
   5   2.0000     -10.314482      -280.6713
   6   2.0000     -10.309212      -280.5279
   7   2.0000     -10.301999      -280.3317
   8   2.0000     -10.298241      -280.2294
   9   2.0000     -10.295025      -280.1419
  10   2.0000     -10.291753      -280.0528
  11   2.0000     -10.288510      -279.9646
  12   2.0000     -10.285785      -279.8904
  13   2.0000     -10.279385      -279.7163
  14   2.0000     -10.274537      -279.5844
  15   2.0000     -10.273277      -279.5501
  16   2.0000      -8.085999      -220.0312
  17   2.0000      -8.076744      -219.7794
  18   2.0000      -6.044599      -164.4819
  19   2.0000      -6.040511      -164.3707
  20   2.0000      -6.036811      -164.2700
  21   2.0000      -6.035178      -164.2256
  22   2.0000      -6.031688      -164.1306
  23   2.0000      -6.027357      -164.0127
  24   2.0000      -1.002817       -27.2880
  25   2.0000      -0.978763       -26.6335
  26   2.0000      -0.917418       -24.9642
  27   2.0000      -0.905982       -24.6530
  28   2.0000      -0.872900       -23.7528
  29   2.0000      -0.855578       -23.2814
  30   2.0000      -0.845326       -23.0025
  31   2.0000      -0.815675       -22.1956
  32   2.0000      -0.785727       -21.3807
  33   2.0000      -0.768527       -20.9127
  34   2.0000      -0.710698       -19.3391
  35   2.0000      -0.705861       -19.2074
  36   2.0000      -0.693308       -18.8659
  37   2.0000      -0.656324       -17.8595
  38   2.0000      -0.642498       -17.4833
  39   2.0000      -0.622247       -16.9322
  40   2.0000      -0.590417       -16.0661
  41   2.0000      -0.572617       -15.5817
  42   2.0000      -0.568717       -15.4756
  43   2.0000      -0.549673       -14.9574
  44   2.0000      -0.539372       -14.6771
  45   2.0000      -0.533319       -14.5124
  46   2.0000      -0.517693       -14.0872
  47   2.0000      -0.515528       -14.0282
  48   2.0000      -0.503599       -13.7036
  49   2.0000      -0.497887       -13.5482
  50   2.0000      -0.492844       -13.4110
  51   2.0000      -0.478424       -13.0186
  52   2.0000      -0.468963       -12.7611
  53   2.0000      -0.461975       -12.5710
  54   2.0000      -0.456757       -12.4290
  55   2.0000      -0.449719       -12.2375
  56   2.0000      -0.444317       -12.0905
  57   2.0000      -0.441312       -12.0087
  58   2.0000      -0.430165       -11.7054
  59   2.0000      -0.428924       -11.6716
  60   2.0000      -0.418874       -11.3981
  61   2.0000      -0.412514       -11.2251
  62   2.0000      -0.403018       -10.9667
  63   2.0000      -0.344605        -9.3772
  64   2.0000      -0.330680        -8.9983
  65   2.0000      -0.325130        -8.8472
  66   2.0000      -0.294694        -8.0190
  67   0.0000       0.027159         0.7390
  68   0.0000       0.053758         1.4628
  69   0.0000       0.103939         2.8283
  70   0.0000       0.121356         3.3023
  71   0.0000       0.124257         3.3812

MULLIKEN ATOMIC CHARGES
-----------------------
   0 S :    0.132282
   1 C :   -0.108088
   2 C :   -0.078878
   3 C :    0.027415
   4 C :   -0.180071
   5 H :    0.028967
   6 C :    0.000693
   7 H :    0.031254
   8 H :    0.015098
   9 C :    0.001899
  10 H :    0.020236
  11 H :    0.009751
  12 C :   -0.030951
  13 H :    0.036354
  14 H :    0.017678
  15 H :    0.022320
  16 S :    0.089948
  17 C :   -0.097959
  18 C :   -0.016957
  19 C :   -0.026309
  20 C :   -0.168106
  21 H :   -0.007170
  22 C :    0.120862
  23 H :    0.004430
  24 H :    0.046988
  25 C :   -0.105791
  26 H :    0.037928
  27 H :    0.040878
  28 C :   -0.041863
  29 H :    0.015909
  30 H :    0.031410
  31 H :    0.023575
  32 H :    0.049687
  33 H :    0.056584
Sum of atomic charges:    0.0000000

LOEWDIN ATOMIC CHARGES
----------------------
   0 S :    0.409868
   1 C :   -0.196232
   2 C :   -0.070463
   3 C :   -0.057083
   4 C :   -0.204423
   5 H :    0.039106
   6 C :   -0.036254
   7 H :    0.035454
   8 H :    0.028577
   9 C :   -0.033909
  10 H :    0.016589
  11 H :    0.022571
  12 C :   -0.054378
  13 H :    0.026724
  14 H :    0.025114
  15 H :    0.017274
  16 S :    0.370443
  17 C :   -0.171348
  18 C :   -0.065363
  19 C :   -0.046202
  20 C :   -0.179234
  21 H :    0.020584
  22 C :   -0.034205
  23 H :    0.031969
  24 H :    0.034878
  25 C :   -0.052255
  26 H :    0.037690
  27 H :    0.031780
  28 C :   -0.075132
  29 H :    0.019957
  30 H :    0.030541
  31 H :    0.021528
  32 H :    0.030985
  33 H :    0.024851

  Mayer bond orders larger than 0.100000
B(  0-S ,  1-C ) :   1.1566 B(  0-S ,  4-C ) :   1.1271 B(  1-C ,  2-C ) :   1.5752
B(  1-C , 32-H ) :   0.9677 B(  2-C ,  3-C ) :   1.2610 B(  2-C ,  6-C ) :   1.0372
B(  3-C ,  4-C ) :   1.5720 B(  3-C ,  5-H ) :   0.9852 B(  4-C , 20-C ) :   1.0633
B(  6-C ,  7-H ) :   0.9374 B(  6-C ,  8-H ) :   0.9401 B(  6-C ,  9-C ) :   1.0554
B(  9-C , 10-H ) :   0.9594 B(  9-C , 11-H ) :   0.9514 B(  9-C , 12-C ) :   1.0730
B( 12-C , 13-H ) :   0.9723 B( 12-C , 14-H ) :   0.9773 B( 12-C , 15-H ) :   0.9787
B( 16-S , 17-C ) :   1.1470 B( 16-S , 20-C ) :   1.1436 B( 17-C , 18-C ) :   1.6234
B( 17-C , 20-C ) :   0.1123 B( 17-C , 33-H ) :   0.9612 B( 18-C , 19-C ) :   1.2221
B( 18-C , 21-H ) :   1.0079 B( 19-C , 20-C ) :   1.5795 B( 19-C , 22-C ) :   1.0266
B( 22-C , 23-H ) :   0.9159 B( 22-C , 24-H ) :   0.9395 B( 22-C , 25-C ) :   1.0714
B( 25-C , 26-H ) :   0.9594 B( 25-C , 27-H ) :   0.9610 B( 25-C , 28-C ) :   1.0550
B( 28-C , 29-H ) :   0.9768 B( 28-C , 30-H ) :   0.9796 B( 28-C , 31-H ) :   0.9732

Dispersion correction           -0.013970309
FINAL SINGLE POINT ENERGY     -1339.843004413493

DIPOLE MOMENT
-------------
                                X             Y             Z
Electronic contribution:      4.69208     -17.55326      23.87194
Nuclear contribution   :     -4.79844      18.02766     -24.45132
                        -----------------------------------------
Total Dipole Moment    :     -0.10636       0.47440      -0.57938
                        -----------------------------------------
Magnitude (a.u.)       :      0.75634
Magnitude (Debye)      :      1.92246

Rotational constants in cm-1:     0.017025     0.008641     0.006307
Rotational constants in MHz :   510.388492   259.049426   189.080906

                             ****ORCA TERMINATED NORMALLY****
TOTAL RUN TIME: 0 days 0 hours 0 minutes 29 seconds 820 msec
