                         Program Version 4.2.1 -  RELEASE  -
|  1> ! wB97X-D3 SP def2-SVP
|  2> %pal
|  3> nprocs 16
|  4> end
|  5>
|  6> * xyz 0 1
|  7> S 	 -43.5281 	 16.4462 	 85.2602
|  8> C 	 -42.1458 	 15.7135 	 86.0988
|  9> C 	 -41.1585 	 16.6623 	 86.3646
| 10> C 	 -41.5788 	 17.9718 	 86.1441
| 11> C 	 -42.8924 	 18.0348 	 85.595
| 12> H 	 -40.9455 	 18.7343 	 86.2803
| 13> C 	 -39.7857 	 16.3643 	 86.8746
| 14> H 	 -39.1058 	 16.9041 	 86.1418
| 15> H 	 -39.5125 	 15.2876 	 86.8787
| 16> C 	 -39.5387 	 16.8324 	 88.3204
| 17> H 	 -39.7966 	 17.8653 	 88.406
| 18> H 	 -40.2908 	 16.463 	 88.9935
| 19> C 	 -38.0672 	 16.6499 	 88.7536
| 20> H 	 -37.9691 	 16.9464 	 89.799
| 21> H 	 -37.7476 	 15.6444 	 88.828
| 22> H 	 -37.2684 	 17.2111 	 88.2363
| 23> S 	 -43.6607 	 19.6282 	 83.4173
| 24> C 	 -44.7252 	 20.9261 	 83.7353
| 25> C 	 -45.1073 	 20.9686 	 85.0305
| 26> C 	 -44.5155 	 20.0145 	 85.8651
| 27> C 	 -43.6872 	 19.208 	 85.1552
| 28> H 	 -45.8406 	 21.7102 	 85.3138
| 29> C 	 -44.711 	 19.9879 	 87.3639
| 30> H 	 -44.9473 	 18.9418 	 87.7126
| 31> H 	 -45.6134 	 20.5761 	 87.5858
| 32> C 	 -43.4945 	 20.4896 	 88.2594
| 33> H 	 -43.4652 	 21.5317 	 88.045
| 34> H 	 -42.5501 	 20.0801 	 87.9381
| 35> C 	 -43.8125 	 20.4756 	 89.8018
| 36> H 	 -42.9997 	 20.7602 	 90.4438
| 37> H 	 -44.2133 	 19.5673 	 90.1635
| 38> H 	 -44.6372 	 21.1803 	 89.9908
| 39> H 	 -42.0154 	 14.672 	 86.2351
| 40> H 	 -45.186 	 21.5602 	 82.9886
| 41> *
| 42>
| 43>                          ****END OF INPUT****

CARTESIAN COORDINATES (ANGSTROEM)
---------------------------------
  S    -43.528100   16.446200   85.260200
  C    -42.145800   15.713500   86.098800
  C    -41.158500   16.662300   86.364600
  C    -41.578800   17.971800   86.144100
  C    -42.892400   18.034800   85.595000
  H    -40.945500   18.734300   86.280300
  C    -39.785700   16.364300   86.874600
  H    -39.105800   16.904100   86.141800
  H    -39.512500   15.287600   86.878700
  C    -39.538700   16.832400   88.320400
  H    -39.796600   17.865300   88.406000
  H    -40.290800   16.463000   88.993500
  C    -38.067200   16.649900   88.753600
  H    -37.969100   16.946400   89.799000
  H    -37.747600   15.644400   88.828000
  H    -37.268400   17.211100   88.236300
  S    -43.660700   19.628200   83.417300
  C    -44.725200   20.926100   83.735300
  C    -45.107300   20.968600   85.030500
  C    -44.515500   20.014500   85.865100
  C    -43.687200   19.208000   85.155200
  H    -45.840600   21.710200   85.313800
  C    -44.711000   19.987900   87.363900
  H    -44.947300   18.941800   87.712600
  H    -45.613400   20.576100   87.585800
  C    -43.494500   20.489600   88.259400
  H    -43.465200   21.531700   88.045000
  H    -42.550100   20.080100   87.938100
  C    -43.812500   20.475600   89.801800
  H    -42.999700   20.760200   90.443800
  H    -44.213300   19.567300   90.163500
  H    -44.637200   21.180300   89.990800
  H    -42.015400   14.672000   86.235100
  H    -45.186000   21.560200   82.988600

 Total Charge           Charge          ....    0
 Multiplicity           Mult            ....    1
 Number of Electrons    NEL             ....  134
 Basis Dimension        Dim             ....  322

ORBITAL ENERGIES
----------------

  NO   OCC          E(Eh)            E(eV)
   0   2.0000     -88.968696     -2420.9613
   1   2.0000     -88.963413     -2420.8175
   2   2.0000     -10.333279      -281.1828
   3   2.0000     -10.322871      -280.8996
   4   2.0000     -10.311258      -280.5836
   5   2.0000     -10.309005      -280.5223
   6   2.0000     -10.297450      -280.2079
   7   2.0000     -10.297064      -280.1973
   8   2.0000     -10.296831      -280.1910
   9   2.0000     -10.295836      -280.1639
  10   2.0000     -10.288034      -279.9516
  11   2.0000     -10.287226      -279.9296
  12   2.0000     -10.285929      -279.8944
  13   2.0000     -10.283888      -279.8388
  14   2.0000     -10.278509      -279.6924
  15   2.0000     -10.276381      -279.6346
  16   2.0000      -8.082791      -219.9439
  17   2.0000      -8.078595      -219.8298
  18   2.0000      -6.041171      -164.3886
  19   2.0000      -6.037346      -164.2845
  20   2.0000      -6.036963      -164.2741
  21   2.0000      -6.033782      -164.1876
  22   2.0000      -6.033131      -164.1698
  23   2.0000      -6.029383      -164.0679
  24   2.0000      -1.007449       -27.4141
  25   2.0000      -0.986062       -26.8321
  26   2.0000      -0.912154       -24.8210
  27   2.0000      -0.899842       -24.4859
  28   2.0000      -0.864679       -23.5291
  29   2.0000      -0.851732       -23.1768
  30   2.0000      -0.848960       -23.1014
  31   2.0000      -0.811775       -22.0895
  32   2.0000      -0.783275       -21.3140
  33   2.0000      -0.771727       -20.9998
  34   2.0000      -0.713380       -19.4121
  35   2.0000      -0.707200       -19.2439
  36   2.0000      -0.695062       -18.9136
  37   2.0000      -0.659763       -17.9531
  38   2.0000      -0.645127       -17.5548
  39   2.0000      -0.626844       -17.0573
  40   2.0000      -0.595140       -16.1946
  41   2.0000      -0.566698       -15.4206
  42   2.0000      -0.558776       -15.2051
  43   2.0000      -0.553797       -15.0696
  44   2.0000      -0.523498       -14.2451
  45   2.0000      -0.518578       -14.1112
  46   2.0000      -0.514971       -14.0131
  47   2.0000      -0.509813       -13.8727
  48   2.0000      -0.505777       -13.7629
  49   2.0000      -0.502255       -13.6670
  50   2.0000      -0.488325       -13.2880
  51   2.0000      -0.474430       -12.9099
  52   2.0000      -0.472746       -12.8641
  53   2.0000      -0.464439       -12.6380
  54   2.0000      -0.459311       -12.4985
  55   2.0000      -0.456701       -12.4275
  56   2.0000      -0.447059       -12.1651
  57   2.0000      -0.439328       -11.9547
  58   2.0000      -0.436738       -11.8842
  59   2.0000      -0.428770       -11.6674
  60   2.0000      -0.424235       -11.5440
  61   2.0000      -0.416137       -11.3237
  62   2.0000      -0.412959       -11.2372
  63   2.0000      -0.336902        -9.1676
  64   2.0000      -0.330058        -8.9813
  65   2.0000      -0.322218        -8.7680
  66   2.0000      -0.304456        -8.2847
  67   0.0000       0.040450         1.1007
  68   0.0000       0.054103         1.4722
  69   0.0000       0.109163         2.9705
  70   0.0000       0.122774         3.3409
  71   0.0000       0.135286         3.6813

MULLIKEN ATOMIC CHARGES
-----------------------
   0 S :    0.123884
   1 C :   -0.113487
   2 C :   -0.077373
   3 C :    0.098552
   4 C :   -0.168978
   5 H :   -0.036838
   6 C :    0.034454
   7 H :    0.044252
   8 H :    0.026126
   9 C :   -0.054742
  10 H :    0.009231
  11 H :    0.023986
  12 C :   -0.033712
  13 H :    0.022176
  14 H :    0.019079
  15 H :    0.039910
  16 S :    0.116439
  17 C :   -0.079648
  18 C :   -0.052540
  19 C :    0.031683
  20 C :   -0.213473
  21 H :    0.008831
  22 C :    0.049978
  23 H :    0.037619
  24 H :    0.015840
  25 C :   -0.044362
  26 H :    0.019274
  27 H :    0.029022
  28 C :   -0.033124
  29 H :    0.036529
  30 H :    0.017389
  31 H :    0.021774
  32 H :    0.030246
  33 H :    0.052002
Sum of atomic charges:    0.0000000

LOEWDIN ATOMIC CHARGES
----------------------
   0 S :    0.414550
   1 C :   -0.190008
   2 C :   -0.063628
   3 C :   -0.044055
   4 C :   -0.190529
   5 H :    0.009379
   6 C :   -0.035078
   7 H :    0.040882
   8 H :    0.030876
   9 C :   -0.040931
  10 H :    0.018555
  11 H :    0.027544
  12 C :   -0.068954
  13 H :    0.029430
  14 H :    0.018505
  15 H :    0.031100
  16 S :    0.404992
  17 C :   -0.193704
  18 C :   -0.077750
  19 C :   -0.057837
  20 C :   -0.195537
  21 H :    0.030352
  22 C :   -0.029192
  23 H :    0.035263
  24 H :    0.028461
  25 C :   -0.029636
  26 H :    0.020967
  27 H :    0.019255
  28 C :   -0.062481
  29 H :    0.026085
  30 H :    0.015953
  31 H :    0.028119
  32 H :    0.017943
  33 H :    0.031110

  Mayer bond orders larger than 0.100000
B(  0-S ,  1-C ) :   1.1435 B(  0-S ,  4-C ) :   1.1889 B(  1-C ,  2-C ) :   1.5752
B(  1-C ,  4-C ) :   0.1134 B(  1-C , 32-H ) :   0.9739 B(  2-C ,  3-C ) :   1.2796
B(  2-C ,  6-C ) :   1.0283 B(  3-C ,  4-C ) :   1.5215 B(  3-C ,  5-H ) :   1.0102
B(  4-C , 20-C ) :   1.0031 B(  6-C ,  7-H ) :   0.9371 B(  6-C ,  8-H ) :   0.9468
B(  6-C ,  9-C ) :   1.0583 B(  9-C , 10-H ) :   0.9532 B(  9-C , 11-H ) :   0.9507
B(  9-C , 12-C ) :   1.0781 B( 12-C , 13-H ) :   0.9700 B( 12-C , 14-H ) :   0.9753
B( 12-C , 15-H ) :   0.9759 B( 16-S , 17-C ) :   1.1540 B( 16-S , 20-C ) :   1.1469
B( 17-C , 18-C ) :   1.6303 B( 17-C , 33-H ) :   0.9614 B( 18-C , 19-C ) :   1.2387
B( 18-C , 21-H ) :   0.9901 B( 19-C , 20-C ) :   1.6169 B( 19-C , 22-C ) :   1.0492
B( 22-C , 23-H ) :   0.9270 B( 22-C , 24-H ) :   0.9360 B( 22-C , 25-C ) :   1.0522
B( 25-C , 26-H ) :   0.9563 B( 25-C , 27-H ) :   0.9616 B( 25-C , 28-C ) :   1.0677
B( 28-C , 29-H ) :   0.9763 B( 28-C , 30-H ) :   0.9792 B( 28-C , 31-H ) :   0.9751

Dispersion correction           -0.014279662
FINAL SINGLE POINT ENERGY     -1339.873189077287

DIPOLE MOMENT
-------------
                                X             Y             Z
Electronic contribution:    -14.21928      -3.08773     -27.04545
Nuclear contribution   :     14.44096       3.26684      27.53467
                        -----------------------------------------
Total Dipole Moment    :      0.22168       0.17911       0.48922
                        -----------------------------------------
Magnitude (a.u.)       :      0.56618
Magnitude (Debye)      :      1.43911

Rotational constants in cm-1:     0.017772     0.008746     0.006867
Rotational constants in MHz :   532.785745   262.201746   205.860210

                             ****ORCA TERMINATED NORMALLY****
TOTAL RUN TIME: 0 days 0 hours 0 minutes 29 seconds 703 msec
