                         Program Version 4.2.1 -  RELEASE  -
|  1> ! wB97X-D3 SP def2-SVP
|  2> %pal
|  3> nprocs 16
|  4> end
|  5>
|  6> * xyz 0 1
|  7> S 	 -108.607 	 38.6489 	 128.212
|  8> C 	 -106.865 	 38.6145 	 128.506
|  9> C 	 -106.256 	 39.7396 	 128.138
| 10> C 	 -107.248 	 40.7007 	 127.715
| 11> C 	 -108.603 	 40.3263 	 127.848
| 12> H 	 -106.967 	 41.753 	 127.397
| 13> C 	 -104.791 	 39.9217 	 127.907
| 14> H 	 -104.742 	 40.6056 	 126.995
| 15> H 	 -104.405 	 38.9869 	 127.676
| 16> C 	 -103.982 	 40.4641 	 129.137
| 17> H 	 -102.874 	 40.3715 	 128.892
| 18> H 	 -104.189 	 41.4508 	 129.401
| 19> C 	 -104.182 	 39.7521 	 130.513
| 20> H 	 -103.559 	 40.1812 	 131.341
| 21> H 	 -105.21 	 39.9456 	 130.735
| 22> H 	 -103.94 	 38.7324 	 130.506
| 23> S 	 -111.007 	 40.493 	 126.355
| 24> C 	 -111.844 	 42.021 	 126.193
| 25> C 	 -111.113 	 43.0045 	 126.9
| 26> C 	 -110.003 	 42.5435 	 127.676
| 27> C 	 -109.749 	 41.1573 	 127.455
| 28> H 	 -111.411 	 44.062 	 126.901
| 29> C 	 -109.208 	 43.4555 	 128.619
| 30> H 	 -108.407 	 42.8256 	 129.091
| 31> H 	 -109.825 	 43.6846 	 129.505
| 32> C 	 -108.581 	 44.6903 	 128.092
| 33> H 	 -109.395 	 45.3495 	 127.605
| 34> H 	 -107.935 	 44.3661 	 127.246
| 35> C 	 -107.898 	 45.5065 	 129.174
| 36> H 	 -107.051 	 46.0205 	 128.689
| 37> H 	 -107.474 	 44.8213 	 129.893
| 38> H 	 -108.623 	 46.1705 	 129.694
| 39> H 	 -106.363 	 37.7029 	 128.785
| 40> H 	 -112.848 	 42.1936 	 125.643
| 41> *
| 42>
| 43>                          ****END OF INPUT****

CARTESIAN COORDINATES (ANGSTROEM)
---------------------------------
  S    -108.607000   38.648900  128.212000
  C    -106.865000   38.614500  128.506000
  C    -106.256000   39.739600  128.138000
  C    -107.248000   40.700700  127.715000
  C    -108.603000   40.326300  127.848000
  H    -106.967000   41.753000  127.397000
  C    -104.791000   39.921700  127.907000
  H    -104.742000   40.605600  126.995000
  H    -104.405000   38.986900  127.676000
  C    -103.982000   40.464100  129.137000
  H    -102.874000   40.371500  128.892000
  H    -104.189000   41.450800  129.401000
  C    -104.182000   39.752100  130.513000
  H    -103.559000   40.181200  131.341000
  H    -105.210000   39.945600  130.735000
  H    -103.940000   38.732400  130.506000
  S    -111.007000   40.493000  126.355000
  C    -111.844000   42.021000  126.193000
  C    -111.113000   43.004500  126.900000
  C    -110.003000   42.543500  127.676000
  C    -109.749000   41.157300  127.455000
  H    -111.411000   44.062000  126.901000
  C    -109.208000   43.455500  128.619000
  H    -108.407000   42.825600  129.091000
  H    -109.825000   43.684600  129.505000
  C    -108.581000   44.690300  128.092000
  H    -109.395000   45.349500  127.605000
  H    -107.935000   44.366100  127.246000
  C    -107.898000   45.506500  129.174000
  H    -107.051000   46.020500  128.689000
  H    -107.474000   44.821300  129.893000
  H    -108.623000   46.170500  129.694000
  H    -106.363000   37.702900  128.785000
  H    -112.848000   42.193600  125.643000

 Total Charge           Charge          ....    0
 Multiplicity           Mult            ....    1
 Number of Electrons    NEL             ....  134
 Basis Dimension        Dim             ....  322

ORBITAL ENERGIES
----------------

  NO   OCC          E(Eh)            E(eV)
   0   2.0000     -88.968225     -2420.9485
   1   2.0000     -88.965868     -2420.8844
   2   2.0000     -10.338177      -281.3161
   3   2.0000     -10.334235      -281.2088
   4   2.0000     -10.331361      -281.1306
   5   2.0000     -10.311799      -280.5983
   6   2.0000     -10.310848      -280.5724
   7   2.0000     -10.301642      -280.3219
   8   2.0000     -10.299956      -280.2760
   9   2.0000     -10.298687      -280.2415
  10   2.0000     -10.297470      -280.2084
  11   2.0000     -10.292551      -280.0745
  12   2.0000     -10.291534      -280.0469
  13   2.0000     -10.291410      -280.0435
  14   2.0000     -10.283354      -279.8243
  15   2.0000     -10.275440      -279.6089
  16   2.0000      -8.081992      -219.9222
  17   2.0000      -8.081081      -219.8974
  18   2.0000      -6.040578      -164.3725
  19   2.0000      -6.039666      -164.3477
  20   2.0000      -6.036488      -164.2612
  21   2.0000      -6.035591      -164.2368
  22   2.0000      -6.032865      -164.1626
  23   2.0000      -6.031653      -164.1296
  24   2.0000      -1.005989       -27.3744
  25   2.0000      -0.980512       -26.6811
  26   2.0000      -0.915457       -24.9109
  27   2.0000      -0.912802       -24.8386
  28   2.0000      -0.867514       -23.6063
  29   2.0000      -0.851408       -23.1680
  30   2.0000      -0.841977       -22.9114
  31   2.0000      -0.806757       -21.9530
  32   2.0000      -0.787331       -21.4244
  33   2.0000      -0.775592       -21.1049
  34   2.0000      -0.705786       -19.2054
  35   2.0000      -0.698209       -18.9992
  36   2.0000      -0.692314       -18.8388
  37   2.0000      -0.652977       -17.7684
  38   2.0000      -0.636675       -17.3248
  39   2.0000      -0.619645       -16.8614
  40   2.0000      -0.596416       -16.2293
  41   2.0000      -0.570190       -15.5157
  42   2.0000      -0.567975       -15.4554
  43   2.0000      -0.545991       -14.8572
  44   2.0000      -0.540687       -14.7128
  45   2.0000      -0.526676       -14.3316
  46   2.0000      -0.520687       -14.1686
  47   2.0000      -0.511288       -13.9129
  48   2.0000      -0.506091       -13.7714
  49   2.0000      -0.499268       -13.5858
  50   2.0000      -0.492494       -13.4014
  51   2.0000      -0.477791       -13.0013
  52   2.0000      -0.471797       -12.8382
  53   2.0000      -0.464570       -12.6416
  54   2.0000      -0.459724       -12.5097
  55   2.0000      -0.448587       -12.2067
  56   2.0000      -0.442891       -12.0517
  57   2.0000      -0.437353       -11.9010
  58   2.0000      -0.434752       -11.8302
  59   2.0000      -0.431400       -11.7390
  60   2.0000      -0.417271       -11.3545
  61   2.0000      -0.409956       -11.1555
  62   2.0000      -0.408677       -11.1207
  63   2.0000      -0.350540        -9.5387
  64   2.0000      -0.331320        -9.0157
  65   2.0000      -0.329097        -8.9552
  66   2.0000      -0.289410        -7.8752
  67   0.0000       0.021313         0.5799
  68   0.0000       0.073563         2.0018
  69   0.0000       0.103606         2.8193
  70   0.0000       0.121228         3.2988
  71   0.0000       0.124135         3.3779

MULLIKEN ATOMIC CHARGES
-----------------------
   0 S :    0.105434
   1 C :   -0.127665
   2 C :   -0.086109
   3 C :   -0.012003
   4 C :   -0.148455
   5 H :    0.028758
   6 C :    0.106725
   7 H :    0.049377
   8 H :    0.007152
   9 C :   -0.082759
  10 H :    0.039193
  11 H :    0.019867
  12 C :   -0.063687
  13 H :    0.040528
  14 H :    0.041460
  15 H :    0.020166
  16 S :    0.100996
  17 C :   -0.132016
  18 C :   -0.045509
  19 C :   -0.025210
  20 C :   -0.140368
  21 H :    0.026769
  22 C :    0.027059
  23 H :    0.026728
  24 H :    0.034447
  25 C :   -0.116840
  26 H :    0.035587
  27 H :    0.035036
  28 C :   -0.023309
  29 H :    0.042847
  30 H :    0.021963
  31 H :    0.049418
  32 H :    0.042909
  33 H :    0.101513
Sum of atomic charges:   -0.0000000

LOEWDIN ATOMIC CHARGES
----------------------
   0 S :    0.410204
   1 C :   -0.180000
   2 C :   -0.075985
   3 C :   -0.066812
   4 C :   -0.211677
   5 H :    0.033431
   6 C :   -0.021489
   7 H :    0.047307
   8 H :    0.021983
   9 C :   -0.036121
  10 H :    0.028790
  11 H :    0.014141
  12 C :   -0.063526
  13 H :    0.034670
  14 H :    0.023550
  15 H :    0.011984
  16 S :    0.392071
  17 C :   -0.206550
  18 C :   -0.077488
  19 C :   -0.053347
  20 C :   -0.184605
  21 H :    0.031508
  22 C :   -0.046003
  23 H :    0.032485
  24 H :    0.033543
  25 C :   -0.054155
  26 H :    0.028033
  27 H :    0.024961
  28 C :   -0.063428
  29 H :    0.034279
  30 H :    0.022109
  31 H :    0.034167
  32 H :    0.025514
  33 H :    0.056456

  Mayer bond orders larger than 0.100000
B(  0-S ,  1-C ) :   1.1372 B(  0-S ,  4-C ) :   1.1540 B(  1-C ,  2-C ) :   1.6161
B(  1-C , 32-H ) :   0.9666 B(  2-C ,  3-C ) :   1.2525 B(  2-C ,  6-C ) :   1.0082
B(  3-C ,  4-C ) :   1.5424 B(  3-C ,  5-H ) :   0.9776 B(  4-C , 20-C ) :   1.0657
B(  6-C ,  7-H ) :   0.9475 B(  6-C ,  8-H ) :   0.9370 B(  6-C ,  9-C ) :   1.0549
B(  9-C , 10-H ) :   0.9611 B(  9-C , 11-H ) :   0.9628 B(  9-C , 12-C ) :   1.0746
B( 12-C , 13-H ) :   0.9742 B( 12-C , 14-H ) :   0.9737 B( 12-C , 15-H ) :   0.9784
B( 16-S , 17-C ) :   1.1631 B( 16-S , 20-C ) :   1.1401 B( 17-C , 18-C ) :   1.5692
B( 17-C , 20-C ) :   0.1091 B( 17-C , 33-H ) :   0.9567 B( 18-C , 19-C ) :   1.2790
B( 18-C , 21-H ) :   0.9832 B( 19-C , 20-C ) :   1.5529 B( 19-C , 22-C ) :   1.0359
B( 22-C , 23-H ) :   0.9258 B( 22-C , 24-H ) :   0.9329 B( 22-C , 25-C ) :   1.0683
B( 25-C , 26-H ) :   0.9493 B( 25-C , 27-H ) :   0.9551 B( 25-C , 28-C ) :   1.0721
B( 28-C , 29-H ) :   0.9740 B( 28-C , 30-H ) :   0.9741 B( 28-C , 31-H ) :   0.9728

Dispersion correction           -0.014071523
FINAL SINGLE POINT ENERGY     -1339.866781778564

DIPOLE MOMENT
-------------
                                X             Y             Z
Electronic contribution:    -22.39216     -17.85629     -11.95632
Nuclear contribution   :     22.88611      18.33959      12.05798
                        -----------------------------------------
Total Dipole Moment    :      0.49395       0.48330       0.10167
                        -----------------------------------------
Magnitude (a.u.)       :      0.69850
Magnitude (Debye)      :      1.77544

Rotational constants in cm-1:     0.017260     0.009162     0.006393
Rotational constants in MHz :   517.428993   274.672564   191.665986

                             ****ORCA TERMINATED NORMALLY****
TOTAL RUN TIME: 0 days 0 hours 0 minutes 34 seconds 645 msec
