                         Program Version 4.2.1 -  RELEASE  -
|  1> ! wB97X-D3 SP def2-SVP
|  2> %pal
|  3> nprocs 16
|  4> end
|  5>
|  6> * xyz 0 1
|  7> S 	 -69.2303 	 53.8327 	 124.858
|  8> C 	 -69.6067 	 54.8154 	 126.243
|  9> C 	 -70.4335 	 55.8793 	 125.873
| 10> C 	 -70.7538 	 55.7979 	 124.447
| 11> C 	 -70.3018 	 54.6974 	 123.797
| 12> H 	 -71.4345 	 56.4619 	 124.03
| 13> C 	 -70.9544 	 56.9541 	 126.794
| 14> H 	 -71.1456 	 57.8762 	 126.245
| 15> H 	 -70.1319 	 57.1102 	 127.484
| 16> C 	 -72.2571 	 56.4782 	 127.497
| 17> H 	 -72.9767 	 56.4 	 126.672
| 18> H 	 -72.1407 	 55.5131 	 128.067
| 19> C 	 -72.7386 	 57.5857 	 128.533
| 20> H 	 -71.945 	 58.006 	 129.127
| 21> H 	 -73.325 	 58.322 	 128.079
| 22> H 	 -73.3534 	 57.1472 	 129.297
| 23> S 	 -69.1696 	 53.97 	 121.344
| 24> C 	 -70.2954 	 53.5518 	 120.049
| 25> C 	 -71.5737 	 53.6393 	 120.529
| 26> C 	 -71.7266 	 54.2948 	 121.767
| 27> C 	 -70.5555 	 54.2892 	 122.445
| 28> H 	 -72.3339 	 53.4256 	 119.781
| 29> C 	 -73.1548 	 54.6346 	 122.158
| 30> H 	 -73.8857 	 54.625 	 121.375
| 31> H 	 -73.0884 	 55.6665 	 122.398
| 32> C 	 -73.8671 	 53.9672 	 123.427
| 33> H 	 -73.2741 	 53.9386 	 124.304
| 34> H 	 -74.011 	 52.9328 	 123.13
| 35> C 	 -75.3363 	 54.3625 	 123.657
| 36> H 	 -75.9549 	 54.0285 	 122.813
| 37> H 	 -75.3693 	 55.4192 	 123.759
| 38> H 	 -75.7044 	 54.0983 	 124.661
| 39> H 	 -69.271 	 54.7106 	 127.24
| 40> H 	 -70.0672 	 53.219 	 119.089
| 41> *
| 42>
| 43>                          ****END OF INPUT****

CARTESIAN COORDINATES (ANGSTROEM)
---------------------------------
  S    -69.230300   53.832700  124.858000
  C    -69.606700   54.815400  126.243000
  C    -70.433500   55.879300  125.873000
  C    -70.753800   55.797900  124.447000
  C    -70.301800   54.697400  123.797000
  H    -71.434500   56.461900  124.030000
  C    -70.954400   56.954100  126.794000
  H    -71.145600   57.876200  126.245000
  H    -70.131900   57.110200  127.484000
  C    -72.257100   56.478200  127.497000
  H    -72.976700   56.400000  126.672000
  H    -72.140700   55.513100  128.067000
  C    -72.738600   57.585700  128.533000
  H    -71.945000   58.006000  129.127000
  H    -73.325000   58.322000  128.079000
  H    -73.353400   57.147200  129.297000
  S    -69.169600   53.970000  121.344000
  C    -70.295400   53.551800  120.049000
  C    -71.573700   53.639300  120.529000
  C    -71.726600   54.294800  121.767000
  C    -70.555500   54.289200  122.445000
  H    -72.333900   53.425600  119.781000
  C    -73.154800   54.634600  122.158000
  H    -73.885700   54.625000  121.375000
  H    -73.088400   55.666500  122.398000
  C    -73.867100   53.967200  123.427000
  H    -73.274100   53.938600  124.304000
  H    -74.011000   52.932800  123.130000
  C    -75.336300   54.362500  123.657000
  H    -75.954900   54.028500  122.813000
  H    -75.369300   55.419200  123.759000
  H    -75.704400   54.098300  124.661000
  H    -69.271000   54.710600  127.240000
  H    -70.067200   53.219000  119.089000

 Total Charge           Charge          ....    0
 Multiplicity           Mult            ....    1
 Number of Electrons    NEL             ....  134
 Basis Dimension        Dim             ....  322

ORBITAL ENERGIES
----------------

  NO   OCC          E(Eh)            E(eV)
   0   2.0000     -88.965128     -2420.8642
   1   2.0000     -88.963460     -2420.8188
   2   2.0000     -10.328294      -281.0472
   3   2.0000     -10.324486      -280.9435
   4   2.0000     -10.312593      -280.6199
   5   2.0000     -10.310523      -280.5636
   6   2.0000     -10.303868      -280.3825
   7   2.0000     -10.300886      -280.3013
   8   2.0000     -10.299001      -280.2501
   9   2.0000     -10.294325      -280.1228
  10   2.0000     -10.293705      -280.1060
  11   2.0000     -10.288175      -279.9555
  12   2.0000     -10.286652      -279.9140
  13   2.0000     -10.283519      -279.8288
  14   2.0000     -10.279696      -279.7248
  15   2.0000     -10.273870      -279.5662
  16   2.0000      -8.079039      -219.8418
  17   2.0000      -8.078523      -219.8278
  18   2.0000      -6.037770      -164.2961
  19   2.0000      -6.037205      -164.2807
  20   2.0000      -6.033766      -164.1871
  21   2.0000      -6.032836      -164.1618
  22   2.0000      -6.029491      -164.0708
  23   2.0000      -6.029225      -164.0636
  24   2.0000      -1.009455       -27.4687
  25   2.0000      -0.985363       -26.8131
  26   2.0000      -0.909822       -24.7575
  27   2.0000      -0.903263       -24.5790
  28   2.0000      -0.871517       -23.7152
  29   2.0000      -0.854937       -23.2640
  30   2.0000      -0.842883       -22.9360
  31   2.0000      -0.817042       -22.2329
  32   2.0000      -0.785858       -21.3843
  33   2.0000      -0.775722       -21.1085
  34   2.0000      -0.713434       -19.4135
  35   2.0000      -0.703613       -19.1463
  36   2.0000      -0.698054       -18.9950
  37   2.0000      -0.663822       -18.0635
  38   2.0000      -0.641828       -17.4650
  39   2.0000      -0.622693       -16.9443
  40   2.0000      -0.598431       -16.2841
  41   2.0000      -0.574251       -15.6262
  42   2.0000      -0.571296       -15.5458
  43   2.0000      -0.560929       -15.2637
  44   2.0000      -0.523901       -14.2561
  45   2.0000      -0.522283       -14.2121
  46   2.0000      -0.516854       -14.0643
  47   2.0000      -0.511059       -13.9066
  48   2.0000      -0.508139       -13.8272
  49   2.0000      -0.505790       -13.7632
  50   2.0000      -0.495154       -13.4738
  51   2.0000      -0.485561       -13.2128
  52   2.0000      -0.474224       -12.9043
  53   2.0000      -0.467031       -12.7086
  54   2.0000      -0.458595       -12.4790
  55   2.0000      -0.451372       -12.2825
  56   2.0000      -0.440150       -11.9771
  57   2.0000      -0.436619       -11.8810
  58   2.0000      -0.432973       -11.7818
  59   2.0000      -0.428131       -11.6500
  60   2.0000      -0.424134       -11.5413
  61   2.0000      -0.415608       -11.3093
  62   2.0000      -0.405771       -11.0416
  63   2.0000      -0.350586        -9.5399
  64   2.0000      -0.331717        -9.0265
  65   2.0000      -0.324972        -8.8429
  66   2.0000      -0.291439        -7.9305
  67   0.0000       0.029245         0.7958
  68   0.0000       0.068530         1.8648
  69   0.0000       0.113882         3.0989
  70   0.0000       0.119744         3.2584
  71   0.0000       0.128877         3.5069

MULLIKEN ATOMIC CHARGES
-----------------------
   0 S :    0.112223
   1 C :   -0.094006
   2 C :   -0.132995
   3 C :    0.059454
   4 C :   -0.149876
   5 H :   -0.027098
   6 C :    0.070264
   7 H :    0.030123
   8 H :    0.025003
   9 C :   -0.105618
  10 H :    0.034339
  11 H :    0.048417
  12 C :   -0.014166
  13 H :    0.025373
  14 H :    0.025384
  15 H :    0.020717
  16 S :    0.099706
  17 C :   -0.070900
  18 C :   -0.035507
  19 C :   -0.015238
  20 C :   -0.126678
  21 H :    0.018783
  22 C :    0.085554
  23 H :    0.006800
  24 H :    0.010607
  25 C :   -0.067305
  26 H :    0.037017
  27 H :    0.024983
  28 C :   -0.049848
  29 H :    0.045368
  30 H :    0.009861
  31 H :    0.037219
  32 H :    0.027983
  33 H :    0.034057
Sum of atomic charges:   -0.0000000

LOEWDIN ATOMIC CHARGES
----------------------
   0 S :    0.413656
   1 C :   -0.199851
   2 C :   -0.057275
   3 C :   -0.059946
   4 C :   -0.195931
   5 H :    0.014811
   6 C :   -0.033181
   7 H :    0.032296
   8 H :    0.028711
   9 C :   -0.033084
  10 H :    0.025482
  11 H :    0.031324
  12 C :   -0.065013
  13 H :    0.024073
  14 H :    0.017449
  15 H :    0.024470
  16 S :    0.375786
  17 C :   -0.166871
  18 C :   -0.069292
  19 C :   -0.049979
  20 C :   -0.177617
  21 H :    0.031579
  22 C :   -0.025445
  23 H :    0.027935
  24 H :    0.025358
  25 C :   -0.036016
  26 H :    0.019458
  27 H :    0.024168
  28 C :   -0.066739
  29 H :    0.029565
  30 H :    0.014972
  31 H :    0.034563
  32 H :    0.021824
  33 H :    0.018759

  Mayer bond orders larger than 0.100000
B(  0-S ,  1-C ) :   1.1375 B(  0-S ,  4-C ) :   1.1415 B(  1-C ,  2-C ) :   1.6114
B(  1-C , 32-H ) :   0.9726 B(  2-C ,  3-C ) :   1.2389 B(  2-C ,  6-C ) :   1.0285
B(  3-C ,  4-C ) :   1.5740 B(  3-C ,  5-H ) :   1.0053 B(  4-C , 20-C ) :   1.0532
B(  6-C ,  7-H ) :   0.9443 B(  6-C ,  8-H ) :   0.9376 B(  6-C ,  9-C ) :   1.0555
B(  9-C , 10-H ) :   0.9597 B(  9-C , 11-H ) :   0.9635 B(  9-C , 12-C ) :   1.0686
B( 12-C , 13-H ) :   0.9758 B( 12-C , 14-H ) :   0.9778 B( 12-C , 15-H ) :   0.9762
B( 16-S , 17-C ) :   1.1299 B( 16-S , 20-C ) :   1.1179 B( 17-C , 18-C ) :   1.6501
B( 17-C , 20-C ) :   0.1029 B( 17-C , 33-H ) :   0.9740 B( 18-C , 19-C ) :   1.2096
B( 18-C , 21-H ) :   0.9829 B( 19-C , 20-C ) :   1.6310 B( 19-C , 22-C ) :   1.0419
B( 22-C , 23-H ) :   0.9396 B( 22-C , 24-H ) :   0.9191 B( 22-C , 25-C ) :   1.0493
B( 25-C , 26-H ) :   0.9603 B( 25-C , 27-H ) :   0.9595 B( 25-C , 28-C ) :   1.0770
B( 28-C , 29-H ) :   0.9763 B( 28-C , 30-H ) :   0.9759 B( 28-C , 31-H ) :   0.9702

Dispersion correction           -0.014407719
FINAL SINGLE POINT ENERGY     -1339.854963122956

DIPOLE MOMENT
-------------
                                X             Y             Z
Electronic contribution:     26.74699     -11.40693     -16.30566
Nuclear contribution   :    -27.49062      11.78061      16.48056
                        -----------------------------------------
Total Dipole Moment    :     -0.74363       0.37368       0.17490
                        -----------------------------------------
Magnitude (a.u.)       :      0.85042
Magnitude (Debye)      :      2.16159

Rotational constants in cm-1:     0.018805     0.008958     0.006595
Rotational constants in MHz :   563.749210   268.554023   197.704897

                             ****ORCA TERMINATED NORMALLY****
TOTAL RUN TIME: 0 days 0 hours 0 minutes 32 seconds 130 msec
