                         Program Version 4.2.1 -  RELEASE  -
|  1> ! wB97X-D3 SP def2-SVP
|  2> %pal
|  3> nprocs 16
|  4> end
|  5>
|  6> * xyz 0 1
|  7> S 	 7.89418 	 25.9117 	 61.8197
|  8> C 	 8.513 	 24.3936 	 62.3653
|  9> C 	 7.71038 	 23.8661 	 63.3502
| 10> C 	 6.56959 	 24.6962 	 63.6363
| 11> C 	 6.51854 	 25.8102 	 62.8589
| 12> H 	 5.79856 	 24.4676 	 64.3279
| 13> C 	 7.89839 	 22.4877 	 63.9848
| 14> H 	 8.78677 	 22.5319 	 64.5818
| 15> H 	 8.07155 	 21.8256 	 63.0938
| 16> C 	 6.69765 	 21.8133 	 64.7778
| 17> H 	 7.0689 	 20.9577 	 65.2472
| 18> H 	 6.3183 	 22.5588 	 65.4949
| 19> C 	 5.59392 	 21.4493 	 63.7794
| 20> H 	 4.58432 	 21.1476 	 64.1397
| 21> H 	 5.37458 	 22.2304 	 63.0897
| 22> H 	 5.82358 	 20.6089 	 63.145
| 23> S 	 5.10665 	 28.0881 	 63.6668
| 24> C 	 3.41769 	 28.3342 	 63.1756
| 25> C 	 3.05842 	 27.3025 	 62.3571
| 26> C 	 4.05675 	 26.26 	 62.1907
| 27> C 	 5.27953 	 26.553 	 62.7563
| 28> H 	 2.09004 	 27.2841 	 61.9994
| 29> C 	 3.79477 	 24.9116 	 61.4585
| 30> H 	 4.80817 	 24.5868 	 61.1933
| 31> H 	 3.19336 	 25.1418 	 60.672
| 32> C 	 2.94301 	 23.9095 	 62.2384
| 33> H 	 2.06847 	 24.4771 	 62.6566
| 34> H 	 3.44994 	 23.6933 	 63.2002
| 35> C 	 2.58546 	 22.6971 	 61.3095
| 36> H 	 2.10803 	 21.9169 	 61.9363
| 37> H 	 3.48117 	 22.3564 	 60.8412
| 38> H 	 1.90093 	 22.9673 	 60.5386
| 39> H 	 9.41562 	 24.0202 	 61.9023
| 40> H 	 2.73453 	 29.1691 	 63.4281
| 41> *
| 42>
| 43>                          ****END OF INPUT****

CARTESIAN COORDINATES (ANGSTROEM)
---------------------------------
  S      7.894180   25.911700   61.819700
  C      8.513000   24.393600   62.365300
  C      7.710380   23.866100   63.350200
  C      6.569590   24.696200   63.636300
  C      6.518540   25.810200   62.858900
  H      5.798560   24.467600   64.327900
  C      7.898390   22.487700   63.984800
  H      8.786770   22.531900   64.581800
  H      8.071550   21.825600   63.093800
  C      6.697650   21.813300   64.777800
  H      7.068900   20.957700   65.247200
  H      6.318300   22.558800   65.494900
  C      5.593920   21.449300   63.779400
  H      4.584320   21.147600   64.139700
  H      5.374580   22.230400   63.089700
  H      5.823580   20.608900   63.145000
  S      5.106650   28.088100   63.666800
  C      3.417690   28.334200   63.175600
  C      3.058420   27.302500   62.357100
  C      4.056750   26.260000   62.190700
  C      5.279530   26.553000   62.756300
  H      2.090040   27.284100   61.999400
  C      3.794770   24.911600   61.458500
  H      4.808170   24.586800   61.193300
  H      3.193360   25.141800   60.672000
  C      2.943010   23.909500   62.238400
  H      2.068470   24.477100   62.656600
  H      3.449940   23.693300   63.200200
  C      2.585460   22.697100   61.309500
  H      2.108030   21.916900   61.936300
  H      3.481170   22.356400   60.841200
  H      1.900930   22.967300   60.538600
  H      9.415620   24.020200   61.902300
  H      2.734530   29.169100   63.428100

 Total Charge           Charge          ....    0
 Multiplicity           Mult            ....    1
 Number of Electrons    NEL             ....  134
 Basis Dimension        Dim             ....  322

ORBITAL ENERGIES
----------------

  NO   OCC          E(Eh)            E(eV)
   0   2.0000     -88.966923     -2420.9130
   1   2.0000     -88.956722     -2420.6355
   2   2.0000     -10.325564      -280.9729
   3   2.0000     -10.323454      -280.9155
   4   2.0000     -10.320073      -280.8235
   5   2.0000     -10.315314      -280.6940
   6   2.0000     -10.304686      -280.4047
   7   2.0000     -10.303907      -280.3836
   8   2.0000     -10.297442      -280.2076
   9   2.0000     -10.294033      -280.1149
  10   2.0000     -10.291708      -280.0516
  11   2.0000     -10.291543      -280.0471
  12   2.0000     -10.287705      -279.9427
  13   2.0000     -10.282656      -279.8053
  14   2.0000     -10.281339      -279.7695
  15   2.0000     -10.275812      -279.6191
  16   2.0000      -8.082450      -219.9346
  17   2.0000      -8.070724      -219.6156
  18   2.0000      -6.040879      -164.3807
  19   2.0000      -6.036691      -164.2667
  20   2.0000      -6.033392      -164.1769
  21   2.0000      -6.029425      -164.0690
  22   2.0000      -6.025255      -163.9555
  23   2.0000      -6.021384      -163.8502
  24   2.0000      -1.009779       -27.4775
  25   2.0000      -0.980582       -26.6830
  26   2.0000      -0.909311       -24.7436
  27   2.0000      -0.905314       -24.6348
  28   2.0000      -0.875884       -23.8340
  29   2.0000      -0.848447       -23.0874
  30   2.0000      -0.838782       -22.8244
  31   2.0000      -0.818745       -22.2792
  32   2.0000      -0.781356       -21.2618
  33   2.0000      -0.771493       -20.9934
  34   2.0000      -0.714943       -19.4546
  35   2.0000      -0.701725       -19.0949
  36   2.0000      -0.695177       -18.9167
  37   2.0000      -0.659282       -17.9400
  38   2.0000      -0.650563       -17.7027
  39   2.0000      -0.622449       -16.9377
  40   2.0000      -0.586620       -15.9627
  41   2.0000      -0.572011       -15.5652
  42   2.0000      -0.564033       -15.3481
  43   2.0000      -0.557390       -15.1674
  44   2.0000      -0.541822       -14.7437
  45   2.0000      -0.524842       -14.2817
  46   2.0000      -0.519288       -14.1305
  47   2.0000      -0.512255       -13.9392
  48   2.0000      -0.506300       -13.7771
  49   2.0000      -0.502865       -13.6837
  50   2.0000      -0.491939       -13.3863
  51   2.0000      -0.480876       -13.0853
  52   2.0000      -0.470171       -12.7940
  53   2.0000      -0.468873       -12.7587
  54   2.0000      -0.455000       -12.3812
  55   2.0000      -0.451784       -12.2937
  56   2.0000      -0.448254       -12.1976
  57   2.0000      -0.439605       -11.9623
  58   2.0000      -0.437689       -11.9101
  59   2.0000      -0.424531       -11.5521
  60   2.0000      -0.417909       -11.3719
  61   2.0000      -0.414530       -11.2799
  62   2.0000      -0.404036       -10.9944
  63   2.0000      -0.337039        -9.1713
  64   2.0000      -0.327985        -8.9249
  65   2.0000      -0.320017        -8.7081
  66   2.0000      -0.312807        -8.5119
  67   0.0000       0.045508         1.2383
  68   0.0000       0.055558         1.5118
  69   0.0000       0.121508         3.3064
  70   0.0000       0.128782         3.5043
  71   0.0000       0.132232         3.5982

MULLIKEN ATOMIC CHARGES
-----------------------
   0 S :    0.123044
   1 C :   -0.145089
   2 C :   -0.065968
   3 C :    0.041199
   4 C :   -0.149239
   5 H :    0.006480
   6 C :    0.020291
   7 H :    0.041746
   8 H :    0.038336
   9 C :   -0.015962
  10 H :    0.027191
  11 H :    0.041909
  12 C :   -0.065570
  13 H :    0.031894
  14 H :    0.021323
  15 H :    0.018459
  16 S :    0.075023
  17 C :   -0.098770
  18 C :   -0.004865
  19 C :   -0.057124
  20 C :   -0.181632
  21 H :   -0.010985
  22 C :    0.128925
  23 H :    0.038901
  24 H :   -0.011190
  25 C :   -0.106773
  26 H :    0.025044
  27 H :    0.015847
  28 C :   -0.011845
  29 H :    0.042768
  30 H :    0.030666
  31 H :    0.031501
  32 H :    0.052423
  33 H :    0.072040
Sum of atomic charges:   -0.0000000

LOEWDIN ATOMIC CHARGES
----------------------
   0 S :    0.428904
   1 C :   -0.198414
   2 C :   -0.064586
   3 C :   -0.049128
   4 C :   -0.215358
   5 H :    0.027318
   6 C :   -0.031640
   7 H :    0.028887
   8 H :    0.038119
   9 C :   -0.027845
  10 H :    0.021482
  11 H :    0.027042
  12 C :   -0.073874
  13 H :    0.028707
  14 H :    0.019386
  15 H :    0.024288
  16 S :    0.364980
  17 C :   -0.176904
  18 C :   -0.073400
  19 C :   -0.048165
  20 C :   -0.187389
  21 H :    0.017351
  22 C :   -0.020956
  23 H :    0.031916
  24 H :    0.014543
  25 C :   -0.045285
  26 H :    0.026997
  27 H :    0.019461
  28 C :   -0.056924
  29 H :    0.032462
  30 H :    0.023457
  31 H :    0.023740
  32 H :    0.028175
  33 H :    0.042656

  Mayer bond orders larger than 0.100000
B(  0-S ,  1-C ) :   1.1546 B(  0-S ,  4-C ) :   1.1587 B(  1-C ,  2-C ) :   1.5959
B(  1-C , 32-H ) :   0.9793 B(  2-C ,  3-C ) :   1.2446 B(  2-C ,  6-C ) :   0.9882
B(  3-C ,  4-C ) :   1.5656 B(  3-C ,  5-H ) :   1.0008 B(  4-C , 20-C ) :   1.0083
B(  6-C ,  7-H ) :   0.9395 B(  6-C ,  8-H ) :   0.9495 B(  6-C ,  9-C ) :   1.0787
B(  9-C , 10-H ) :   0.9544 B(  9-C , 11-H ) :   0.9535 B(  9-C , 12-C ) :   1.0679
B( 12-C , 13-H ) :   0.9733 B( 12-C , 14-H ) :   0.9767 B( 12-C , 15-H ) :   0.9678
B( 16-S , 17-C ) :   1.1420 B( 16-S , 20-C ) :   1.1136 B( 17-C , 18-C ) :   1.6365
B( 17-C , 33-H ) :   0.9620 B( 18-C , 19-C ) :   1.2097 B( 18-C , 21-H ) :   0.9988
B( 19-C , 20-C ) :   1.6433 B( 19-C , 22-C ) :   1.0352 B( 22-C , 23-H ) :   0.9312
B( 22-C , 24-H ) :   0.9249 B( 22-C , 25-C ) :   1.0656 B( 25-C , 26-H ) :   0.9530
B( 25-C , 27-H ) :   0.9515 B( 25-C , 28-C ) :   1.0616 B( 28-C , 29-H ) :   0.9750
B( 28-C , 30-H ) :   0.9746 B( 28-C , 31-H ) :   0.9751

Dispersion correction           -0.016592705
FINAL SINGLE POINT ENERGY     -1339.871262212210

DIPOLE MOMENT
-------------
                                X             Y             Z
Electronic contribution:     12.49405      27.91947      -0.41982
Nuclear contribution   :    -12.83990     -28.70452       0.35635
                        -----------------------------------------
Total Dipole Moment    :     -0.34584      -0.78505      -0.06347
                        -----------------------------------------
Magnitude (a.u.)       :      0.86020
Magnitude (Debye)      :      2.18645

Rotational constants in cm-1:     0.016352     0.011017     0.007949
Rotational constants in MHz :   490.233108   330.270652   238.300954

                             ****ORCA TERMINATED NORMALLY****
TOTAL RUN TIME: 0 days 0 hours 0 minutes 36 seconds 484 msec
