                         Program Version 4.2.1 -  RELEASE  -
|  1> ! wB97X-D3 SP def2-SVP
|  2> %pal
|  3> nprocs 16
|  4> end
|  5>
|  6> * xyz 0 1
|  7> S 	 -21.3593 	 -3.04015 	 80.7996
|  8> C 	 -20.5698 	 -4.03411 	 79.6513
|  9> C 	 -20.2011 	 -5.26906 	 80.1249
| 10> C 	 -20.2066 	 -5.17125 	 81.5919
| 11> C 	 -20.6987 	 -4.01714 	 82.1511
| 12> H 	 -19.853 	 -5.94922 	 82.3066
| 13> C 	 -19.6746 	 -6.49025 	 79.3051
| 14> H 	 -18.7005 	 -6.78649 	 79.6851
| 15> H 	 -19.578 	 -6.15193 	 78.21
| 16> C 	 -20.6387 	 -7.68473 	 79.168
| 17> H 	 -21.6663 	 -7.24336 	 79.1837
| 18> H 	 -20.5444 	 -8.25733 	 78.2627
| 19> C 	 -20.3541 	 -8.6185 	 80.3271
| 20> H 	 -19.6285 	 -9.44299 	 80.1017
| 21> H 	 -19.9344 	 -8.01229 	 81.1341
| 22> H 	 -21.213 	 -9.2795 	 80.7066
| 23> S 	 -22.6297 	 -4.14022 	 84.0657
| 24> C 	 -22.2485 	 -3.60373 	 85.6616
| 25> C 	 -20.9386 	 -3.17929 	 85.8182
| 26> C 	 -20.2085 	 -3.12355 	 84.5822
| 27> C 	 -20.9972 	 -3.6982 	 83.5724
| 28> H 	 -20.645 	 -2.76862 	 86.7747
| 29> C 	 -18.8322 	 -2.54307 	 84.4585
| 30> H 	 -18.7133 	 -1.91247 	 85.3334
| 31> H 	 -19.0303 	 -1.92197 	 83.5998
| 32> C 	 -17.6452 	 -3.56801 	 84.3028
| 33> H 	 -17.911 	 -4.20731 	 83.3919
| 34> H 	 -17.4996 	 -4.22193 	 85.1999
| 35> C 	 -16.2305 	 -2.93671 	 84.0525
| 36> H 	 -16.207 	 -2.68 	 82.9778
| 37> H 	 -15.4184 	 -3.58255 	 84.2994
| 38> H 	 -15.9918 	 -2.08766 	 84.6056
| 39> H 	 -20.52 	 -3.7961 	 78.6082
| 40> H 	 -22.9169 	 -3.61459 	 86.5665
| 41> *
| 42>
| 43>                          ****END OF INPUT****

CARTESIAN COORDINATES (ANGSTROEM)
---------------------------------
  S    -21.359300   -3.040150   80.799600
  C    -20.569800   -4.034110   79.651300
  C    -20.201100   -5.269060   80.124900
  C    -20.206600   -5.171250   81.591900
  C    -20.698700   -4.017140   82.151100
  H    -19.853000   -5.949220   82.306600
  C    -19.674600   -6.490250   79.305100
  H    -18.700500   -6.786490   79.685100
  H    -19.578000   -6.151930   78.210000
  C    -20.638700   -7.684730   79.168000
  H    -21.666300   -7.243360   79.183700
  H    -20.544400   -8.257330   78.262700
  C    -20.354100   -8.618500   80.327100
  H    -19.628500   -9.442990   80.101700
  H    -19.934400   -8.012290   81.134100
  H    -21.213000   -9.279500   80.706600
  S    -22.629700   -4.140220   84.065700
  C    -22.248500   -3.603730   85.661600
  C    -20.938600   -3.179290   85.818200
  C    -20.208500   -3.123550   84.582200
  C    -20.997200   -3.698200   83.572400
  H    -20.645000   -2.768620   86.774700
  C    -18.832200   -2.543070   84.458500
  H    -18.713300   -1.912470   85.333400
  H    -19.030300   -1.921970   83.599800
  C    -17.645200   -3.568010   84.302800
  H    -17.911000   -4.207310   83.391900
  H    -17.499600   -4.221930   85.199900
  C    -16.230500   -2.936710   84.052500
  H    -16.207000   -2.680000   82.977800
  H    -15.418400   -3.582550   84.299400
  H    -15.991800   -2.087660   84.605600
  H    -20.520000   -3.796100   78.608200
  H    -22.916900   -3.614590   86.566500

 Total Charge           Charge          ....    0
 Multiplicity           Mult            ....    1
 Number of Electrons    NEL             ....  134
 Basis Dimension        Dim             ....  322

ORBITAL ENERGIES
----------------

  NO   OCC          E(Eh)            E(eV)
   0   2.0000     -88.968733     -2420.9623
   1   2.0000     -88.961337     -2420.7611
   2   2.0000     -10.329914      -281.0912
   3   2.0000     -10.327328      -281.0209
   4   2.0000     -10.317596      -280.7561
   5   2.0000     -10.313213      -280.6368
   6   2.0000     -10.308908      -280.5196
   7   2.0000     -10.306612      -280.4572
   8   2.0000     -10.304741      -280.4063
   9   2.0000     -10.301347      -280.3139
  10   2.0000     -10.299556      -280.2652
  11   2.0000     -10.293023      -280.0874
  12   2.0000     -10.291401      -280.0432
  13   2.0000     -10.288409      -279.9618
  14   2.0000     -10.282702      -279.8065
  15   2.0000     -10.271679      -279.5066
  16   2.0000      -8.083469      -219.9624
  17   2.0000      -8.076552      -219.7741
  18   2.0000      -6.041889      -164.4081
  19   2.0000      -6.038016      -164.3028
  20   2.0000      -6.035108      -164.2236
  21   2.0000      -6.034290      -164.2014
  22   2.0000      -6.031147      -164.1158
  23   2.0000      -6.027078      -164.0051
  24   2.0000      -1.003326       -27.3019
  25   2.0000      -0.983705       -26.7680
  26   2.0000      -0.910211       -24.7681
  27   2.0000      -0.902654       -24.5625
  28   2.0000      -0.866346       -23.5745
  29   2.0000      -0.850614       -23.1464
  30   2.0000      -0.840148       -22.8616
  31   2.0000      -0.812826       -22.1181
  32   2.0000      -0.781941       -21.2777
  33   2.0000      -0.767008       -20.8713
  34   2.0000      -0.704805       -19.1787
  35   2.0000      -0.697922       -18.9914
  36   2.0000      -0.686650       -18.6847
  37   2.0000      -0.657197       -17.8832
  38   2.0000      -0.644175       -17.5289
  39   2.0000      -0.611008       -16.6264
  40   2.0000      -0.584174       -15.8962
  41   2.0000      -0.569460       -15.4958
  42   2.0000      -0.560548       -15.2533
  43   2.0000      -0.555677       -15.1207
  44   2.0000      -0.536085       -14.5876
  45   2.0000      -0.522394       -14.2151
  46   2.0000      -0.513519       -13.9736
  47   2.0000      -0.506597       -13.7852
  48   2.0000      -0.503304       -13.6956
  49   2.0000      -0.493251       -13.4220
  50   2.0000      -0.481064       -13.0904
  51   2.0000      -0.480135       -13.0651
  52   2.0000      -0.474138       -12.9019
  53   2.0000      -0.460130       -12.5208
  54   2.0000      -0.455223       -12.3872
  55   2.0000      -0.450913       -12.2700
  56   2.0000      -0.441496       -12.0137
  57   2.0000      -0.439745       -11.9661
  58   2.0000      -0.433206       -11.7881
  59   2.0000      -0.426177       -11.5969
  60   2.0000      -0.423049       -11.5118
  61   2.0000      -0.411983       -11.2106
  62   2.0000      -0.402913       -10.9638
  63   2.0000      -0.337673        -9.1885
  64   2.0000      -0.327610        -8.9147
  65   2.0000      -0.321371        -8.7449
  66   2.0000      -0.306555        -8.3418
  67   0.0000       0.046628         1.2688
  68   0.0000       0.047820         1.3013
  69   0.0000       0.111105         3.0233
  70   0.0000       0.117818         3.2060
  71   0.0000       0.129330         3.5192

MULLIKEN ATOMIC CHARGES
-----------------------
   0 S :    0.102108
   1 C :   -0.103825
   2 C :   -0.074531
   3 C :    0.028142
   4 C :   -0.180574
   5 H :    0.036625
   6 C :    0.005597
   7 H :    0.042193
   8 H :    0.031042
   9 C :   -0.032098
  10 H :    0.044121
  11 H :    0.034235
  12 C :   -0.102214
  13 H :    0.037661
  14 H :    0.028990
  15 H :    0.041343
  16 S :    0.135780
  17 C :   -0.103016
  18 C :   -0.051429
  19 C :   -0.028930
  20 C :   -0.216299
  21 H :    0.014479
  22 C :    0.117156
  23 H :    0.014642
  24 H :    0.037731
  25 C :   -0.116177
  26 H :    0.051526
  27 H :    0.040928
  28 C :   -0.021741
  29 H :    0.037483
  30 H :    0.025766
  31 H :    0.013497
  32 H :    0.041065
  33 H :    0.068723
Sum of atomic charges:   -0.0000000

LOEWDIN ATOMIC CHARGES
----------------------
   0 S :    0.389388
   1 C :   -0.189732
   2 C :   -0.067907
   3 C :   -0.062304
   4 C :   -0.199167
   5 H :    0.035060
   6 C :   -0.030942
   7 H :    0.027774
   8 H :    0.039233
   9 C :   -0.044999
  10 H :    0.034031
  11 H :    0.023175
  12 C :   -0.080643
  13 H :    0.029653
  14 H :    0.020428
  15 H :    0.032399
  16 S :    0.420565
  17 C :   -0.202097
  18 C :   -0.077559
  19 C :   -0.044032
  20 C :   -0.208319
  21 H :    0.029450
  22 C :   -0.031087
  23 H :    0.029425
  24 H :    0.039170
  25 C :   -0.040770
  26 H :    0.034640
  27 H :    0.028091
  28 C :   -0.066068
  29 H :    0.031148
  30 H :    0.023903
  31 H :    0.014801
  32 H :    0.023514
  33 H :    0.039779

  Mayer bond orders larger than 0.100000
B(  0-S ,  1-C ) :   1.1583 B(  0-S ,  4-C ) :   1.1157 B(  1-C ,  2-C ) :   1.6358
B(  1-C , 32-H ) :   0.9651 B(  2-C ,  3-C ) :   1.1973 B(  2-C ,  6-C ) :   1.0222
B(  3-C ,  4-C ) :   1.6409 B(  3-C ,  5-H ) :   0.9766 B(  4-C , 20-C ) :   1.0156
B(  6-C ,  7-H ) :   0.9546 B(  6-C ,  8-H ) :   0.9410 B(  6-C ,  9-C ) :   1.0510
B(  9-C , 10-H ) :   0.9542 B(  9-C , 11-H ) :   0.9629 B(  9-C , 12-C ) :   1.0628
B( 12-C , 13-H ) :   0.9741 B( 12-C , 14-H ) :   0.9797 B( 12-C , 15-H ) :   0.9718
B( 16-S , 17-C ) :   1.1552 B( 16-S , 20-C ) :   1.1578 B( 17-C , 18-C ) :   1.6337
B( 17-C , 33-H ) :   0.9555 B( 18-C , 19-C ) :   1.2382 B( 18-C , 21-H ) :   0.9832
B( 19-C , 20-C ) :   1.5944 B( 19-C , 22-C ) :   1.0227 B( 22-C , 23-H ) :   0.9282
B( 22-C , 24-H ) :   0.9288 B( 22-C , 25-C ) :   1.0555 B( 25-C , 26-H ) :   0.9589
B( 25-C , 27-H ) :   0.9613 B( 25-C , 28-C ) :   1.0703 B( 28-C , 29-H ) :   0.9788
B( 28-C , 30-H ) :   0.9767 B( 28-C , 31-H ) :   0.9754

Dispersion correction           -0.014133778
FINAL SINGLE POINT ENERGY     -1339.857645262647

DIPOLE MOMENT
-------------
                                X             Y             Z
Electronic contribution:    -20.07249      12.45659       3.08416
Nuclear contribution   :     20.47253     -12.71832      -3.04555
                        -----------------------------------------
Total Dipole Moment    :      0.40003      -0.26174       0.03862
                        -----------------------------------------
Magnitude (a.u.)       :      0.47961
Magnitude (Debye)      :      1.21906

Rotational constants in cm-1:     0.016609     0.008606     0.007360
Rotational constants in MHz :   497.913584   258.014525   220.652500

                             ****ORCA TERMINATED NORMALLY****
TOTAL RUN TIME: 0 days 0 hours 0 minutes 32 seconds 630 msec
