                         Program Version 4.2.1 -  RELEASE  -
|  1> ! wB97X-D3 SP def2-SVP
|  2> %pal
|  3> nprocs 16
|  4> end
|  5>
|  6> * xyz 0 1
|  7> S 	 40.7995 	 22.1386 	 82.6595
|  8> C 	 41.2239 	 23.5861 	 83.486
|  9> C 	 42.0076 	 23.2741 	 84.6492
| 10> C 	 42.4047 	 21.9032 	 84.691
| 11> C 	 41.8497 	 21.1561 	 83.682
| 12> H 	 42.9959 	 21.3746 	 85.4183
| 13> C 	 42.4198 	 24.2576 	 85.6917
| 14> H 	 42.1488 	 25.2354 	 85.1969
| 15> H 	 43.5043 	 24.3145 	 85.9117
| 16> C 	 41.5382 	 24.1928 	 86.9985
| 17> H 	 40.5067 	 24.1693 	 86.8103
| 18> H 	 41.6632 	 23.1996 	 87.4777
| 19> C 	 41.955 	 25.2981 	 87.9382
| 20> H 	 41.3721 	 25.2451 	 88.8698
| 21> H 	 43.0135 	 25.3384 	 88.1875
| 22> H 	 41.7174 	 26.3139 	 87.4032
| 23> S 	 42.1687 	 19.2619 	 81.7052
| 24> C 	 42.2775 	 17.5574 	 82.0022
| 25> C 	 42.5007 	 17.3564 	 83.3686
| 26> C 	 42.4125 	 18.6036 	 84.1096
| 27> C 	 42.0949 	 19.7178 	 83.3642
| 28> H 	 42.7588 	 16.3298 	 83.7725
| 29> C 	 42.5568 	 18.5307 	 85.5949
| 30> H 	 42.1261 	 17.7366 	 86.0951
| 31> H 	 41.9502 	 19.4181 	 85.9152
| 32> C 	 43.9746 	 18.75 	 86.146
| 33> H 	 44.2706 	 19.7323 	 85.7859
| 34> H 	 44.5638 	 17.9579 	 85.6573
| 35> C 	 44.119 	 18.6643 	 87.6309
| 36> H 	 45.1745 	 18.4315 	 87.9469
| 37> H 	 43.4938 	 17.8266 	 87.9558
| 38> H 	 43.7436 	 19.563 	 88.1644
| 39> H 	 40.8585 	 24.6009 	 83.3151
| 40> H 	 42.429 	 16.7871 	 81.2459
| 41> *
| 42>
| 43>                          ****END OF INPUT****

CARTESIAN COORDINATES (ANGSTROEM)
---------------------------------
  S     40.799500   22.138600   82.659500
  C     41.223900   23.586100   83.486000
  C     42.007600   23.274100   84.649200
  C     42.404700   21.903200   84.691000
  C     41.849700   21.156100   83.682000
  H     42.995900   21.374600   85.418300
  C     42.419800   24.257600   85.691700
  H     42.148800   25.235400   85.196900
  H     43.504300   24.314500   85.911700
  C     41.538200   24.192800   86.998500
  H     40.506700   24.169300   86.810300
  H     41.663200   23.199600   87.477700
  C     41.955000   25.298100   87.938200
  H     41.372100   25.245100   88.869800
  H     43.013500   25.338400   88.187500
  H     41.717400   26.313900   87.403200
  S     42.168700   19.261900   81.705200
  C     42.277500   17.557400   82.002200
  C     42.500700   17.356400   83.368600
  C     42.412500   18.603600   84.109600
  C     42.094900   19.717800   83.364200
  H     42.758800   16.329800   83.772500
  C     42.556800   18.530700   85.594900
  H     42.126100   17.736600   86.095100
  H     41.950200   19.418100   85.915200
  C     43.974600   18.750000   86.146000
  H     44.270600   19.732300   85.785900
  H     44.563800   17.957900   85.657300
  C     44.119000   18.664300   87.630900
  H     45.174500   18.431500   87.946900
  H     43.493800   17.826600   87.955800
  H     43.743600   19.563000   88.164400
  H     40.858500   24.600900   83.315100
  H     42.429000   16.787100   81.245900

 Total Charge           Charge          ....    0
 Multiplicity           Mult            ....    1
 Number of Electrons    NEL             ....  134
 Basis Dimension        Dim             ....  322

ORBITAL ENERGIES
----------------

  NO   OCC          E(Eh)            E(eV)
   0   2.0000     -88.972546     -2421.0661
   1   2.0000     -88.964016     -2420.8339
   2   2.0000     -10.336163      -281.2613
   3   2.0000     -10.330655      -281.1114
   4   2.0000     -10.320795      -280.8431
   5   2.0000     -10.319170      -280.7989
   6   2.0000     -10.307133      -280.4713
   7   2.0000     -10.303937      -280.3844
   8   2.0000     -10.302240      -280.3382
   9   2.0000     -10.298746      -280.2431
  10   2.0000     -10.295268      -280.1485
  11   2.0000     -10.287386      -279.9340
  12   2.0000     -10.286958      -279.9224
  13   2.0000     -10.284438      -279.8538
  14   2.0000     -10.283979      -279.8413
  15   2.0000     -10.282694      -279.8063
  16   2.0000      -8.086956      -220.0573
  17   2.0000      -8.079504      -219.8545
  18   2.0000      -6.045460      -164.5053
  19   2.0000      -6.041389      -164.3946
  20   2.0000      -6.038052      -164.3037
  21   2.0000      -6.037846      -164.2981
  22   2.0000      -6.033784      -164.1876
  23   2.0000      -6.030267      -164.0919
  24   2.0000      -1.010256       -27.4905
  25   2.0000      -0.987623       -26.8746
  26   2.0000      -0.915840       -24.9213
  27   2.0000      -0.910412       -24.7736
  28   2.0000      -0.868642       -23.6370
  29   2.0000      -0.856382       -23.3033
  30   2.0000      -0.849134       -23.1061
  31   2.0000      -0.819089       -22.2885
  32   2.0000      -0.777493       -21.1567
  33   2.0000      -0.765272       -20.8241
  34   2.0000      -0.705772       -19.2050
  35   2.0000      -0.698843       -19.0165
  36   2.0000      -0.691997       -18.8302
  37   2.0000      -0.666397       -18.1336
  38   2.0000      -0.643906       -17.5216
  39   2.0000      -0.621298       -16.9064
  40   2.0000      -0.596979       -16.2446
  41   2.0000      -0.574302       -15.6276
  42   2.0000      -0.571859       -15.5611
  43   2.0000      -0.553900       -15.0724
  44   2.0000      -0.527971       -14.3668
  45   2.0000      -0.521069       -14.1790
  46   2.0000      -0.519918       -14.1477
  47   2.0000      -0.515043       -14.0150
  48   2.0000      -0.505262       -13.7489
  49   2.0000      -0.503178       -13.6922
  50   2.0000      -0.500303       -13.6139
  51   2.0000      -0.483751       -13.1635
  52   2.0000      -0.473347       -12.8804
  53   2.0000      -0.466618       -12.6973
  54   2.0000      -0.461869       -12.5681
  55   2.0000      -0.448995       -12.2178
  56   2.0000      -0.444975       -12.1084
  57   2.0000      -0.440787       -11.9944
  58   2.0000      -0.426713       -11.6115
  59   2.0000      -0.424620       -11.5545
  60   2.0000      -0.417527       -11.3615
  61   2.0000      -0.412098       -11.2138
  62   2.0000      -0.411211       -11.1896
  63   2.0000      -0.357464        -9.7271
  64   2.0000      -0.331455        -9.0194
  65   2.0000      -0.326483        -8.8841
  66   2.0000      -0.290222        -7.8974
  67   0.0000       0.023647         0.6435
  68   0.0000       0.076861         2.0915
  69   0.0000       0.112289         3.0555
  70   0.0000       0.113002         3.0749
  71   0.0000       0.126948         3.4544

MULLIKEN ATOMIC CHARGES
-----------------------
   0 S :    0.129433
   1 C :   -0.106917
   2 C :   -0.100738
   3 C :    0.044253
   4 C :   -0.134444
   5 H :   -0.011731
   6 C :    0.018934
   7 H :    0.014801
   8 H :    0.045492
   9 C :   -0.048955
  10 H :    0.019227
  11 H :    0.022471
  12 C :   -0.061225
  13 H :    0.041993
  14 H :    0.035327
  15 H :    0.035550
  16 S :    0.100210
  17 C :   -0.096414
  18 C :   -0.052142
  19 C :   -0.055659
  20 C :   -0.110455
  21 H :    0.045397
  22 C :    0.034318
  23 H :   -0.000548
  24 H :    0.018154
  25 C :   -0.068077
  26 H :    0.024224
  27 H :    0.024235
  28 C :   -0.036149
  29 H :    0.047565
  30 H :    0.021173
  31 H :    0.037155
  32 H :    0.056495
  33 H :    0.067048
Sum of atomic charges:    0.0000000

LOEWDIN ATOMIC CHARGES
----------------------
   0 S :    0.422837
   1 C :   -0.214775
   2 C :   -0.061004
   3 C :   -0.062706
   4 C :   -0.183483
   5 H :    0.029030
   6 C :   -0.038168
   7 H :    0.032381
   8 H :    0.034698
   9 C :   -0.039497
  10 H :    0.019874
  11 H :    0.023274
  12 C :   -0.070906
  13 H :    0.028095
  14 H :    0.023646
  15 H :    0.033750
  16 S :    0.425000
  17 C :   -0.196670
  18 C :   -0.076826
  19 C :   -0.063621
  20 C :   -0.204438
  21 H :    0.042668
  22 C :   -0.035514
  23 H :    0.014418
  24 H :    0.031684
  25 C :   -0.042295
  26 H :    0.017379
  27 H :    0.025488
  28 C :   -0.069419
  29 H :    0.035209
  30 H :    0.024115
  31 H :    0.028140
  32 H :    0.033459
  33 H :    0.034176

  Mayer bond orders larger than 0.100000
B(  0-S ,  1-C ) :   1.1522 B(  0-S ,  4-C ) :   1.1579 B(  1-C ,  2-C ) :   1.5722
B(  1-C ,  4-C ) :   0.1004 B(  1-C , 32-H ) :   0.9631 B(  2-C ,  3-C ) :   1.2495
B(  2-C ,  6-C ) :   1.0408 B(  3-C ,  4-C ) :   1.5628 B(  3-C ,  5-H ) :   0.9898
B(  4-C , 20-C ) :   1.0228 B(  6-C ,  7-H ) :   0.9387 B(  6-C ,  8-H ) :   0.9469
B(  6-C ,  9-C ) :   1.0475 B(  9-C , 10-H ) :   0.9533 B(  9-C , 11-H ) :   0.9530
B(  9-C , 12-C ) :   1.0847 B( 12-C , 13-H ) :   0.9723 B( 12-C , 14-H ) :   0.9740
B( 12-C , 15-H ) :   0.9726 B( 16-S , 17-C ) :   1.1673 B( 16-S , 20-C ) :   1.1469
B( 17-C , 18-C ) :   1.5807 B( 17-C , 33-H ) :   0.9674 B( 18-C , 19-C ) :   1.2558
B( 18-C , 21-H ) :   0.9825 B( 19-C , 20-C ) :   1.5843 B( 19-C , 22-C ) :   1.0498
B( 22-C , 23-H ) :   0.9388 B( 22-C , 24-H ) :   0.9317 B( 22-C , 25-C ) :   1.0615
B( 25-C , 26-H ) :   0.9487 B( 25-C , 27-H ) :   0.9504 B( 25-C , 28-C ) :   1.0876
B( 28-C , 29-H ) :   0.9728 B( 28-C , 30-H ) :   0.9689 B( 28-C , 31-H ) :   0.9728

Dispersion correction           -0.013903197
FINAL SINGLE POINT ENERGY     -1339.876140558942

DIPOLE MOMENT
-------------
                                X             Y             Z
Electronic contribution:     -8.42822      -7.12913     -30.59012
Nuclear contribution   :      8.64499       7.09108      31.21896
                        -----------------------------------------
Total Dipole Moment    :      0.21677      -0.03805       0.62884
                        -----------------------------------------
Magnitude (a.u.)       :      0.66624
Magnitude (Debye)      :      1.69345

Rotational constants in cm-1:     0.017944     0.009047     0.006236
Rotational constants in MHz :   537.946462   271.227859   186.953748

                             ****ORCA TERMINATED NORMALLY****
TOTAL RUN TIME: 0 days 0 hours 0 minutes 28 seconds 722 msec
