                         Program Version 4.2.1 -  RELEASE  -
|  1> ! wB97X-D3 SP def2-SVP
|  2> %pal
|  3> nprocs 16
|  4> end
|  5>
|  6> * xyz 0 1
|  7> S 	 44.7074 	 5.01662 	 86.6739
|  8> C 	 45.2511 	 6.49967 	 87.4353
|  9> C 	 45.7191 	 6.16634 	 88.6604
| 10> C 	 45.6937 	 4.76845 	 89.0016
| 11> C 	 45.1773 	 3.9833 	 88.0216
| 12> H 	 46.0745 	 4.24114 	 89.837
| 13> C 	 46.4104 	 7.08635 	 89.5933
| 14> H 	 45.8744 	 7.05176 	 90.5388
| 15> H 	 46.1329 	 8.11949 	 89.2084
| 16> C 	 47.9137 	 7.0095 	 89.7921
| 17> H 	 48.1703 	 7.80068 	 90.5326
| 18> H 	 48.1031 	 6.00666 	 90.1772
| 19> C 	 48.6904 	 7.05694 	 88.534
| 20> H 	 48.4501 	 7.98493 	 88.009
| 21> H 	 49.7968 	 7.11976 	 88.7218
| 22> H 	 48.5188 	 6.1879 	 88.0093
| 23> S 	 44.9254 	 1.83849 	 89.8429
| 24> C 	 44.4701 	 0.352722 	 89.2114
| 25> C 	 44.6965 	 0.207789 	 87.8581
| 26> C 	 44.9795 	 1.50974 	 87.225
| 27> C 	 45.0698 	 2.52234 	 88.1884
| 28> H 	 44.6505 	 -0.750603 	 87.4474
| 29> C 	 45.2552 	 1.5724 	 85.7467
| 30> H 	 45.7707 	 0.713964 	 85.4394
| 31> H 	 45.946 	 2.31013 	 85.6095
| 32> C 	 44.0451 	 1.7183 	 84.8033
| 33> H 	 43.8554 	 2.75661 	 84.8172
| 34> H 	 43.1263 	 1.25801 	 85.2013
| 35> C 	 44.3376 	 1.21663 	 83.3216
| 36> H 	 45.0353 	 1.8364 	 82.8244
| 37> H 	 43.3844 	 1.24886 	 82.8
| 38> H 	 44.7934 	 0.229612 	 83.3715
| 39> H 	 45.0917 	 7.52493 	 87.1418
| 40> H 	 44.2122 	 -0.438837 	 89.8772
| 41> *
| 42>
| 43>                          ****END OF INPUT****

CARTESIAN COORDINATES (ANGSTROEM)
---------------------------------
  S     44.707400    5.016620   86.673900
  C     45.251100    6.499670   87.435300
  C     45.719100    6.166340   88.660400
  C     45.693700    4.768450   89.001600
  C     45.177300    3.983300   88.021600
  H     46.074500    4.241140   89.837000
  C     46.410400    7.086350   89.593300
  H     45.874400    7.051760   90.538800
  H     46.132900    8.119490   89.208400
  C     47.913700    7.009500   89.792100
  H     48.170300    7.800680   90.532600
  H     48.103100    6.006660   90.177200
  C     48.690400    7.056940   88.534000
  H     48.450100    7.984930   88.009000
  H     49.796800    7.119760   88.721800
  H     48.518800    6.187900   88.009300
  S     44.925400    1.838490   89.842900
  C     44.470100    0.352722   89.211400
  C     44.696500    0.207789   87.858100
  C     44.979500    1.509740   87.225000
  C     45.069800    2.522340   88.188400
  H     44.650500   -0.750603   87.447400
  C     45.255200    1.572400   85.746700
  H     45.770700    0.713964   85.439400
  H     45.946000    2.310130   85.609500
  C     44.045100    1.718300   84.803300
  H     43.855400    2.756610   84.817200
  H     43.126300    1.258010   85.201300
  C     44.337600    1.216630   83.321600
  H     45.035300    1.836400   82.824400
  H     43.384400    1.248860   82.800000
  H     44.793400    0.229612   83.371500
  H     45.091700    7.524930   87.141800
  H     44.212200   -0.438837   89.877200

 Total Charge           Charge          ....    0
 Multiplicity           Mult            ....    1
 Number of Electrons    NEL             ....  134
 Basis Dimension        Dim             ....  322

ORBITAL ENERGIES
----------------

  NO   OCC          E(Eh)            E(eV)
   0   2.0000     -88.968243     -2420.9490
   1   2.0000     -88.966914     -2420.9128
   2   2.0000     -10.333906      -281.1999
   3   2.0000     -10.331150      -281.1249
   4   2.0000     -10.314204      -280.6638
   5   2.0000     -10.312437      -280.6157
   6   2.0000     -10.311235      -280.5830
   7   2.0000     -10.295119      -280.1444
   8   2.0000     -10.293547      -280.1017
   9   2.0000     -10.285732      -279.8890
  10   2.0000     -10.283948      -279.8404
  11   2.0000     -10.283073      -279.8166
  12   2.0000     -10.282972      -279.8139
  13   2.0000     -10.278622      -279.6955
  14   2.0000     -10.277799      -279.6731
  15   2.0000     -10.267520      -279.3934
  16   2.0000      -8.083779      -219.9708
  17   2.0000      -8.080750      -219.8884
  18   2.0000      -6.042279      -164.4188
  19   2.0000      -6.039576      -164.3452
  20   2.0000      -6.038379      -164.3127
  21   2.0000      -6.035340      -164.2299
  22   2.0000      -6.034320      -164.2022
  23   2.0000      -6.031252      -164.1187
  24   2.0000      -1.008647       -27.4467
  25   2.0000      -0.988975       -26.9114
  26   2.0000      -0.917937       -24.9783
  27   2.0000      -0.910086       -24.7647
  28   2.0000      -0.876074       -23.8392
  29   2.0000      -0.851754       -23.1774
  30   2.0000      -0.846219       -23.0268
  31   2.0000      -0.815978       -22.2039
  32   2.0000      -0.787518       -21.4294
  33   2.0000      -0.775163       -21.0933
  34   2.0000      -0.711413       -19.3585
  35   2.0000      -0.699164       -19.0252
  36   2.0000      -0.693330       -18.8665
  37   2.0000      -0.668968       -18.2036
  38   2.0000      -0.635195       -17.2845
  39   2.0000      -0.618490       -16.8300
  40   2.0000      -0.602157       -16.3855
  41   2.0000      -0.575035       -15.6475
  42   2.0000      -0.564497       -15.3607
  43   2.0000      -0.551272       -15.0009
  44   2.0000      -0.549923       -14.9642
  45   2.0000      -0.527819       -14.3627
  46   2.0000      -0.522049       -14.2057
  47   2.0000      -0.514401       -13.9976
  48   2.0000      -0.508309       -13.8318
  49   2.0000      -0.504123       -13.7179
  50   2.0000      -0.489482       -13.3195
  51   2.0000      -0.480373       -13.0716
  52   2.0000      -0.472729       -12.8636
  53   2.0000      -0.467539       -12.7224
  54   2.0000      -0.458989       -12.4897
  55   2.0000      -0.452910       -12.3243
  56   2.0000      -0.444715       -12.1013
  57   2.0000      -0.440100       -11.9757
  58   2.0000      -0.431752       -11.7486
  59   2.0000      -0.423095       -11.5130
  60   2.0000      -0.418078       -11.3765
  61   2.0000      -0.409852       -11.1526
  62   2.0000      -0.405583       -11.0365
  63   2.0000      -0.366009        -9.9596
  64   2.0000      -0.330937        -9.0052
  65   2.0000      -0.325876        -8.8675
  66   2.0000      -0.286846        -7.8055
  67   0.0000       0.023588         0.6419
  68   0.0000       0.076156         2.0723
  69   0.0000       0.102531         2.7900
  70   0.0000       0.120153         3.2695
  71   0.0000       0.129119         3.5135

MULLIKEN ATOMIC CHARGES
-----------------------
   0 S :    0.086987
   1 C :   -0.097374
   2 C :   -0.085756
   3 C :   -0.033490
   4 C :   -0.061324
   5 H :    0.003159
   6 C :    0.041905
   7 H :    0.029907
   8 H :    0.002056
   9 C :   -0.053194
  10 H :    0.040549
  11 H :    0.020798
  12 C :   -0.024008
  13 H :    0.021051
  14 H :    0.033992
  15 H :    0.031584
  16 S :    0.097999
  17 C :   -0.076024
  18 C :   -0.005224
  19 C :   -0.075080
  20 C :   -0.157155
  21 H :    0.000392
  22 C :    0.118857
  23 H :   -0.003638
  24 H :   -0.001318
  25 C :   -0.068783
  26 H :    0.016978
  27 H :    0.034919
  28 C :   -0.043340
  29 H :    0.027458
  30 H :    0.044414
  31 H :    0.032243
  32 H :    0.048451
  33 H :    0.052006
Sum of atomic charges:   -0.0000000

LOEWDIN ATOMIC CHARGES
----------------------
   0 S :    0.396505
   1 C :   -0.197401
   2 C :   -0.066861
   3 C :   -0.078680
   4 C :   -0.173007
   5 H :    0.018087
   6 C :   -0.040631
   7 H :    0.031603
   8 H :    0.025394
   9 C :   -0.041410
  10 H :    0.031029
  11 H :    0.022952
  12 C :   -0.058662
  13 H :    0.022777
  14 H :    0.032763
  15 H :    0.018372
  16 S :    0.415698
  17 C :   -0.191447
  18 C :   -0.063587
  19 C :   -0.038960
  20 C :   -0.182721
  21 H :    0.022603
  22 C :   -0.028165
  23 H :    0.024434
  24 H :    0.016739
  25 C :   -0.031305
  26 H :    0.012059
  27 H :    0.026035
  28 C :   -0.058015
  29 H :    0.019798
  30 H :    0.030608
  31 H :    0.023683
  32 H :    0.035919
  33 H :    0.023793

  Mayer bond orders larger than 0.100000
B(  0-S ,  1-C ) :   1.1030 B(  0-S ,  4-C ) :   1.1286 B(  1-C ,  2-C ) :   1.6355
B(  1-C , 32-H ) :   0.9665 B(  2-C ,  3-C ) :   1.1975 B(  2-C ,  6-C ) :   1.0375
B(  3-C ,  4-C ) :   1.5736 B(  3-C ,  5-H ) :   1.0042 B(  4-C , 20-C ) :   1.0867
B(  6-C ,  7-H ) :   0.9331 B(  6-C ,  8-H ) :   0.9350 B(  6-C ,  9-C ) :   1.0762
B(  9-C , 10-H ) :   0.9522 B(  9-C , 11-H ) :   0.9508 B(  9-C , 12-C ) :   1.0852
B( 12-C , 13-H ) :   0.9745 B( 12-C , 14-H ) :   0.9701 B( 12-C , 15-H ) :   0.9703
B( 16-S , 17-C ) :   1.1736 B( 16-S , 20-C ) :   1.1212 B( 17-C , 18-C ) :   1.6152
B( 17-C , 33-H ) :   0.9672 B( 18-C , 19-C ) :   1.1992 B( 18-C , 21-H ) :   1.0038
B( 19-C , 20-C ) :   1.5948 B( 19-C , 22-C ) :   1.0506 B( 22-C , 23-H ) :   0.9341
B( 22-C , 24-H ) :   0.9250 B( 22-C , 25-C ) :   1.0429 B( 25-C , 26-H ) :   0.9506
B( 25-C , 27-H ) :   0.9656 B( 25-C , 28-C ) :   1.0758 B( 28-C , 29-H ) :   0.9775
B( 28-C , 30-H ) :   0.9767 B( 28-C , 31-H ) :   0.9786

Dispersion correction           -0.014341155
FINAL SINGLE POINT ENERGY     -1339.861375121569

DIPOLE MOMENT
-------------
                                X             Y             Z
Electronic contribution:     -9.14840      -5.45284       9.97560
Nuclear contribution   :      9.36460       5.29955      -9.97530
                        -----------------------------------------
Total Dipole Moment    :      0.21621      -0.15329       0.00031
                        -----------------------------------------
Magnitude (a.u.)       :      0.26504
Magnitude (Debye)      :      0.67367

Rotational constants in cm-1:     0.019710     0.008511     0.006637
Rotational constants in MHz :   590.885390   255.147365   198.977073

                             ****ORCA TERMINATED NORMALLY****
TOTAL RUN TIME: 0 days 0 hours 0 minutes 29 seconds 746 msec
