                         Program Version 4.2.1 -  RELEASE  -
|  1> ! wB97X-D3 SP def2-SVP
|  2> %pal
|  3> nprocs 16
|  4> end
|  5>
|  6> * xyz 0 1
|  7> S 	 -39.7038 	 49.6658 	 103.871
|  8> C 	 -37.9993 	 49.6117 	 103.699
|  9> C 	 -37.5001 	 50.8001 	 103.126
| 10> C 	 -38.5319 	 51.6566 	 102.668
| 11> C 	 -39.7879 	 51.1641 	 103.037
| 12> H 	 -38.4057 	 52.6436 	 102.258
| 13> C 	 -36.055 	 51.1814 	 102.812
| 14> H 	 -35.5813 	 51.5508 	 103.762
| 15> H 	 -35.9775 	 52.0258 	 102.17
| 16> C 	 -35.0979 	 50.0242 	 102.435
| 17> H 	 -34.1187 	 50.4029 	 102.091
| 18> H 	 -34.9132 	 49.4132 	 103.342
| 19> C 	 -35.712 	 49.1676 	 101.351
| 20> H 	 -36.2241 	 49.8522 	 100.645
| 21> H 	 -34.9262 	 48.5753 	 100.905
| 22> H 	 -36.4564 	 48.4894 	 101.786
| 23> S 	 -41.9484 	 52.0538 	 104.395
| 24> C 	 -43.2098 	 53.0265 	 103.664
| 25> C 	 -42.7899 	 53.3599 	 102.389
| 26> C 	 -41.6766 	 52.5978 	 101.976
| 27> C 	 -41.0523 	 51.7834 	 102.941
| 28> H 	 -43.321 	 54.0987 	 101.802
| 29> C 	 -41.1908 	 52.7792 	 100.576
| 30> H 	 -40.2476 	 53.3791 	 100.519
| 31> H 	 -41.8646 	 53.4611 	 100.094
| 32> C 	 -40.8487 	 51.5066 	 99.8193
| 33> H 	 -39.9352 	 51.0529 	 100.193
| 34> H 	 -40.7207 	 51.6461 	 98.7771
| 35> C 	 -41.9305 	 50.4166 	 99.8884
| 36> H 	 -41.8485 	 49.94 	 100.859
| 37> H 	 -41.663 	 49.6105 	 99.239
| 38> H 	 -42.9793 	 50.733 	 99.5631
| 39> H 	 -37.4103 	 48.8581 	 104.031
| 40> H 	 -44.0955 	 53.2851 	 104.165
| 41> *
| 42>
| 43>                          ****END OF INPUT****

CARTESIAN COORDINATES (ANGSTROEM)
---------------------------------
  S    -39.703800   49.665800  103.871000
  C    -37.999300   49.611700  103.699000
  C    -37.500100   50.800100  103.126000
  C    -38.531900   51.656600  102.668000
  C    -39.787900   51.164100  103.037000
  H    -38.405700   52.643600  102.258000
  C    -36.055000   51.181400  102.812000
  H    -35.581300   51.550800  103.762000
  H    -35.977500   52.025800  102.170000
  C    -35.097900   50.024200  102.435000
  H    -34.118700   50.402900  102.091000
  H    -34.913200   49.413200  103.342000
  C    -35.712000   49.167600  101.351000
  H    -36.224100   49.852200  100.645000
  H    -34.926200   48.575300  100.905000
  H    -36.456400   48.489400  101.786000
  S    -41.948400   52.053800  104.395000
  C    -43.209800   53.026500  103.664000
  C    -42.789900   53.359900  102.389000
  C    -41.676600   52.597800  101.976000
  C    -41.052300   51.783400  102.941000
  H    -43.321000   54.098700  101.802000
  C    -41.190800   52.779200  100.576000
  H    -40.247600   53.379100  100.519000
  H    -41.864600   53.461100  100.094000
  C    -40.848700   51.506600   99.819300
  H    -39.935200   51.052900  100.193000
  H    -40.720700   51.646100   98.777100
  C    -41.930500   50.416600   99.888400
  H    -41.848500   49.940000  100.859000
  H    -41.663000   49.610500   99.239000
  H    -42.979300   50.733000   99.563100
  H    -37.410300   48.858100  104.031000
  H    -44.095500   53.285100  104.165000

 Total Charge           Charge          ....    0
 Multiplicity           Mult            ....    1
 Number of Electrons    NEL             ....  134
 Basis Dimension        Dim             ....  322

ORBITAL ENERGIES
----------------

  NO   OCC          E(Eh)            E(eV)
   0   2.0000     -88.972626     -2421.0682
   1   2.0000     -88.960226     -2420.7308
   2   2.0000     -10.327907      -281.0366
   3   2.0000     -10.320986      -280.8483
   4   2.0000     -10.315058      -280.6870
   5   2.0000     -10.310171      -280.5540
   6   2.0000     -10.307089      -280.4701
   7   2.0000     -10.298400      -280.2337
   8   2.0000     -10.296623      -280.1854
   9   2.0000     -10.294117      -280.1172
  10   2.0000     -10.293168      -280.0913
  11   2.0000     -10.289285      -279.9857
  12   2.0000     -10.284061      -279.8435
  13   2.0000     -10.274192      -279.5750
  14   2.0000     -10.273019      -279.5431
  15   2.0000     -10.266953      -279.3780
  16   2.0000      -8.088254      -220.0926
  17   2.0000      -8.075463      -219.7445
  18   2.0000      -6.046507      -164.5338
  19   2.0000      -6.042501      -164.4248
  20   2.0000      -6.039356      -164.3392
  21   2.0000      -6.033921      -164.1913
  22   2.0000      -6.029695      -164.0764
  23   2.0000      -6.026424      -163.9873
  24   2.0000      -1.016452       -27.6591
  25   2.0000      -0.989456       -26.9245
  26   2.0000      -0.915701       -24.9175
  27   2.0000      -0.907073       -24.6827
  28   2.0000      -0.875724       -23.8297
  29   2.0000      -0.857169       -23.3248
  30   2.0000      -0.842559       -22.9272
  31   2.0000      -0.811877       -22.0923
  32   2.0000      -0.784321       -21.3425
  33   2.0000      -0.772431       -21.0189
  34   2.0000      -0.712651       -19.3922
  35   2.0000      -0.698406       -19.0046
  36   2.0000      -0.685891       -18.6641
  37   2.0000      -0.669816       -18.2266
  38   2.0000      -0.649837       -17.6830
  39   2.0000      -0.612677       -16.6718
  40   2.0000      -0.588713       -16.0197
  41   2.0000      -0.579521       -15.7696
  42   2.0000      -0.558822       -15.2063
  43   2.0000      -0.555010       -15.1026
  44   2.0000      -0.549669       -14.9573
  45   2.0000      -0.542203       -14.7541
  46   2.0000      -0.520247       -14.1566
  47   2.0000      -0.514525       -14.0009
  48   2.0000      -0.504498       -13.7281
  49   2.0000      -0.500614       -13.6224
  50   2.0000      -0.489896       -13.3307
  51   2.0000      -0.481323       -13.0975
  52   2.0000      -0.472300       -12.8519
  53   2.0000      -0.467141       -12.7115
  54   2.0000      -0.462651       -12.5894
  55   2.0000      -0.450251       -12.2519
  56   2.0000      -0.430847       -11.7239
  57   2.0000      -0.430425       -11.7125
  58   2.0000      -0.426818       -11.6143
  59   2.0000      -0.421859       -11.4794
  60   2.0000      -0.421340       -11.4652
  61   2.0000      -0.415664       -11.3108
  62   2.0000      -0.405051       -11.0220
  63   2.0000      -0.349841        -9.5197
  64   2.0000      -0.333039        -9.0625
  65   2.0000      -0.322838        -8.7849
  66   2.0000      -0.286894        -7.8068
  67   0.0000       0.020923         0.5693
  68   0.0000       0.068938         1.8759
  69   0.0000       0.111142         3.0243
  70   0.0000       0.117390         3.1943
  71   0.0000       0.131145         3.5686

MULLIKEN ATOMIC CHARGES
-----------------------
   0 S :    0.141403
   1 C :   -0.070276
   2 C :   -0.101097
   3 C :    0.038737
   4 C :   -0.187436
   5 H :    0.015844
   6 C :    0.070944
   7 H :    0.040149
   8 H :    0.016955
   9 C :   -0.112663
  10 H :    0.033879
  11 H :    0.031468
  12 C :   -0.031712
  13 H :    0.035796
  14 H :    0.032727
  15 H :    0.030469
  16 S :    0.089730
  17 C :   -0.081724
  18 C :   -0.029737
  19 C :   -0.068803
  20 C :   -0.101998
  21 H :    0.022798
  22 C :    0.090714
  23 H :    0.028781
  24 H :   -0.003567
  25 C :   -0.062174
  26 H :    0.031954
  27 H :    0.016824
  28 C :   -0.054608
  29 H :    0.030123
  30 H :    0.014361
  31 H :    0.040363
  32 H :    0.005382
  33 H :    0.046397
Sum of atomic charges:    0.0000000

LOEWDIN ATOMIC CHARGES
----------------------
   0 S :    0.457465
   1 C :   -0.199561
   2 C :   -0.051652
   3 C :   -0.053774
   4 C :   -0.207613
   5 H :    0.033352
   6 C :   -0.036405
   7 H :    0.042163
   8 H :    0.022841
   9 C :   -0.046107
  10 H :    0.026928
  11 H :    0.022953
  12 C :   -0.067499
  13 H :    0.029502
  14 H :    0.022796
  15 H :    0.025218
  16 S :    0.417466
  17 C :   -0.174112
  18 C :   -0.069730
  19 C :   -0.061157
  20 C :   -0.218315
  21 H :    0.032948
  22 C :   -0.037619
  23 H :    0.034860
  24 H :    0.023581
  25 C :   -0.040758
  26 H :    0.025800
  27 H :    0.019495
  28 C :   -0.070661
  29 H :    0.023115
  30 H :    0.019506
  31 H :    0.030484
  32 H :    0.003590
  33 H :    0.020903

  Mayer bond orders larger than 0.100000
B(  0-S ,  1-C ) :   1.1588 B(  0-S ,  4-C ) :   1.1880 B(  1-C ,  2-C ) :   1.5614
B(  1-C ,  4-C ) :   0.1082 B(  1-C , 32-H ) :   0.9781 B(  2-C ,  3-C ) :   1.2815
B(  2-C ,  6-C ) :   1.0192 B(  3-C ,  4-C ) :   1.5119 B(  3-C ,  5-H ) :   0.9966
B(  4-C , 20-C ) :   1.0632 B(  6-C ,  7-H ) :   0.9295 B(  6-C ,  8-H ) :   0.9489
B(  6-C ,  9-C ) :   1.0738 B(  9-C , 10-H ) :   0.9570 B(  9-C , 11-H ) :   0.9520
B(  9-C , 12-C ) :   1.0883 B( 12-C , 13-H ) :   0.9758 B( 12-C , 14-H ) :   0.9739
B( 12-C , 15-H ) :   0.9676 B( 16-S , 17-C ) :   1.1798 B( 16-S , 20-C ) :   1.1455
B( 17-C , 18-C ) :   1.5324 B( 17-C , 20-C ) :   0.1135 B( 17-C , 33-H ) :   0.9801
B( 18-C , 19-C ) :   1.3008 B( 18-C , 21-H ) :   0.9934 B( 19-C , 20-C ) :   1.5195
B( 19-C , 22-C ) :   1.0582 B( 22-C , 23-H ) :   0.9266 B( 22-C , 24-H ) :   0.9300
B( 22-C , 25-C ) :   1.0706 B( 25-C , 26-H ) :   0.9462 B( 25-C , 27-H ) :   0.9563
B( 25-C , 28-C ) :   1.0941 B( 28-C , 29-H ) :   0.9685 B( 28-C , 30-H ) :   0.9715
B( 28-C , 31-H ) :   0.9764

Dispersion correction           -0.015732958
FINAL SINGLE POINT ENERGY     -1339.869165136142

DIPOLE MOMENT
-------------
                                X             Y             Z
Electronic contribution:    -14.64449       2.88902      19.45420
Nuclear contribution   :     15.07530      -2.59890     -19.76666
                        -----------------------------------------
Total Dipole Moment    :      0.43081       0.29013      -0.31247
                        -----------------------------------------
Magnitude (a.u.)       :      0.60614
Magnitude (Debye)      :      1.54068

Rotational constants in cm-1:     0.023487     0.008780     0.007542
Rotational constants in MHz :   704.131416   263.222606   226.088720

                             ****ORCA TERMINATED NORMALLY****
TOTAL RUN TIME: 0 days 0 hours 0 minutes 34 seconds 21 msec
