                         Program Version 4.2.1 -  RELEASE  -
|  1> ! wB97X-D3 SP def2-SVP
|  2> %pal
|  3> nprocs 16
|  4> end
|  5>
|  6> * xyz 0 1
|  7> S 	 10.7529 	 -12.6701 	 91.7568
|  8> C 	 11.2669 	 -10.9946 	 91.5362
|  9> C 	 10.192 	 -10.2487 	 91.0013
| 10> C 	 9.02141 	 -11.0674 	 90.7092
| 11> C 	 9.12976 	 -12.3544 	 91.2015
| 12> H 	 8.0285 	 -10.7454 	 90.3821
| 13> C 	 10.2324 	 -8.78055 	 90.6621
| 14> H 	 9.84637 	 -8.76636 	 89.6461
| 15> H 	 11.2002 	 -8.24531 	 90.5814
| 16> C 	 9.36606 	 -7.92292 	 91.5757
| 17> H 	 9.31317 	 -6.8815 	 91.2635
| 18> H 	 8.32074 	 -8.32351 	 91.5446
| 19> C 	 9.87016 	 -8.06179 	 93.0518
| 20> H 	 9.5848 	 -9.02518 	 93.5728
| 21> H 	 10.8869 	 -7.94204 	 93.1039
| 22> H 	 9.40116 	 -7.27402 	 93.5562
| 23> S 	 7.85372 	 -14.0128 	 89.5778
| 24> C 	 6.48967 	 -14.8419 	 90.1911
| 25> C 	 6.15895 	 -14.5504 	 91.4649
| 26> C 	 6.99155 	 -13.6378 	 92.0347
| 27> C 	 8.05143 	 -13.3292 	 91.183
| 28> H 	 5.40152 	 -15.1406 	 91.9554
| 29> C 	 6.88397 	 -13.2469 	 93.4886
| 30> H 	 7.6761 	 -13.767 	 93.9749
| 31> H 	 6.03777 	 -13.6924 	 94.0051
| 32> C 	 6.87867 	 -11.6575 	 93.7343
| 33> H 	 6.55968 	 -11.1856 	 92.7958
| 34> H 	 7.90828 	 -11.2237 	 93.8761
| 35> C 	 6.04648 	 -11.1888 	 94.8623
| 36> H 	 5.94024 	 -10.1464 	 94.8648
| 37> H 	 6.52546 	 -11.5314 	 95.8644
| 38> H 	 4.98111 	 -11.4923 	 94.8374
| 39> H 	 12.2176 	 -10.6402 	 91.848
| 40> H 	 5.8106 	 -15.5377 	 89.6282
| 41> *
| 42>
| 43>                          ****END OF INPUT****

CARTESIAN COORDINATES (ANGSTROEM)
---------------------------------
  S     10.752900  -12.670100   91.756800
  C     11.266900  -10.994600   91.536200
  C     10.192000  -10.248700   91.001300
  C      9.021410  -11.067400   90.709200
  C      9.129760  -12.354400   91.201500
  H      8.028500  -10.745400   90.382100
  C     10.232400   -8.780550   90.662100
  H      9.846370   -8.766360   89.646100
  H     11.200200   -8.245310   90.581400
  C      9.366060   -7.922920   91.575700
  H      9.313170   -6.881500   91.263500
  H      8.320740   -8.323510   91.544600
  C      9.870160   -8.061790   93.051800
  H      9.584800   -9.025180   93.572800
  H     10.886900   -7.942040   93.103900
  H      9.401160   -7.274020   93.556200
  S      7.853720  -14.012800   89.577800
  C      6.489670  -14.841900   90.191100
  C      6.158950  -14.550400   91.464900
  C      6.991550  -13.637800   92.034700
  C      8.051430  -13.329200   91.183000
  H      5.401520  -15.140600   91.955400
  C      6.883970  -13.246900   93.488600
  H      7.676100  -13.767000   93.974900
  H      6.037770  -13.692400   94.005100
  C      6.878670  -11.657500   93.734300
  H      6.559680  -11.185600   92.795800
  H      7.908280  -11.223700   93.876100
  C      6.046480  -11.188800   94.862300
  H      5.940240  -10.146400   94.864800
  H      6.525460  -11.531400   95.864400
  H      4.981110  -11.492300   94.837400
  H     12.217600  -10.640200   91.848000
  H      5.810600  -15.537700   89.628200

 Total Charge           Charge          ....    0
 Multiplicity           Mult            ....    1
 Number of Electrons    NEL             ....  134
 Basis Dimension        Dim             ....  322

ORBITAL ENERGIES
----------------

  NO   OCC          E(Eh)            E(eV)
   0   2.0000     -88.967904     -2420.9397
   1   2.0000     -88.962658     -2420.7970
   2   2.0000     -10.325845      -280.9805
   3   2.0000     -10.320764      -280.8423
   4   2.0000     -10.315806      -280.7074
   5   2.0000     -10.310795      -280.5710
   6   2.0000     -10.308386      -280.5054
   7   2.0000     -10.299436      -280.2619
   8   2.0000     -10.295555      -280.1563
   9   2.0000     -10.291062      -280.0340
  10   2.0000     -10.289155      -279.9821
  11   2.0000     -10.288723      -279.9704
  12   2.0000     -10.288265      -279.9579
  13   2.0000     -10.280220      -279.7390
  14   2.0000     -10.278198      -279.6840
  15   2.0000     -10.268150      -279.4106
  16   2.0000      -8.083265      -219.9568
  17   2.0000      -8.077178      -219.7912
  18   2.0000      -6.041452      -164.3963
  19   2.0000      -6.037766      -164.2960
  20   2.0000      -6.035713      -164.2401
  21   2.0000      -6.034228      -164.1997
  22   2.0000      -6.031562      -164.1271
  23   2.0000      -6.028093      -164.0327
  24   2.0000      -1.012881       -27.5619
  25   2.0000      -0.983462       -26.7613
  26   2.0000      -0.911027       -24.7903
  27   2.0000      -0.904835       -24.6218
  28   2.0000      -0.871587       -23.7171
  29   2.0000      -0.858067       -23.3492
  30   2.0000      -0.840499       -22.8711
  31   2.0000      -0.812210       -22.1013
  32   2.0000      -0.783932       -21.3319
  33   2.0000      -0.771400       -20.9909
  34   2.0000      -0.706308       -19.2196
  35   2.0000      -0.696707       -18.9584
  36   2.0000      -0.688981       -18.7481
  37   2.0000      -0.658749       -17.9255
  38   2.0000      -0.642123       -17.4731
  39   2.0000      -0.616300       -16.7704
  40   2.0000      -0.599389       -16.3102
  41   2.0000      -0.568030       -15.4569
  42   2.0000      -0.555921       -15.1274
  43   2.0000      -0.551846       -15.0165
  44   2.0000      -0.536337       -14.5945
  45   2.0000      -0.529996       -14.4219
  46   2.0000      -0.517462       -14.0809
  47   2.0000      -0.512650       -13.9499
  48   2.0000      -0.502044       -13.6613
  49   2.0000      -0.496017       -13.4973
  50   2.0000      -0.487135       -13.2556
  51   2.0000      -0.475498       -12.9390
  52   2.0000      -0.473957       -12.8970
  53   2.0000      -0.461612       -12.5611
  54   2.0000      -0.458106       -12.4657
  55   2.0000      -0.456121       -12.4117
  56   2.0000      -0.446365       -12.1462
  57   2.0000      -0.437915       -11.9163
  58   2.0000      -0.428649       -11.6641
  59   2.0000      -0.423262       -11.5176
  60   2.0000      -0.419518       -11.4157
  61   2.0000      -0.409024       -11.1301
  62   2.0000      -0.407439       -11.0870
  63   2.0000      -0.342318        -9.3149
  64   2.0000      -0.326917        -8.8959
  65   2.0000      -0.314881        -8.5684
  66   2.0000      -0.308132        -8.3847
  67   0.0000       0.045729         1.2443
  68   0.0000       0.052346         1.4244
  69   0.0000       0.110120         2.9965
  70   0.0000       0.123536         3.3616
  71   0.0000       0.127672         3.4741

MULLIKEN ATOMIC CHARGES
-----------------------
   0 S :    0.103452
   1 C :   -0.111602
   2 C :   -0.082595
   3 C :    0.042464
   4 C :   -0.172330
   5 H :    0.026143
   6 C :    0.053496
   7 H :    0.029025
   8 H :    0.029254
   9 C :   -0.099359
  10 H :    0.034233
  11 H :    0.028482
  12 C :   -0.024454
  13 H :    0.055606
  14 H :    0.007319
  15 H :    0.018126
  16 S :    0.135090
  17 C :   -0.083791
  18 C :   -0.059614
  19 C :    0.009573
  20 C :   -0.214440
  21 H :    0.012287
  22 C :    0.100616
  23 H :    0.034867
  24 H :    0.007509
  25 C :   -0.098266
  26 H :    0.029158
  27 H :    0.052232
  28 C :   -0.052009
  29 H :    0.020524
  30 H :    0.042332
  31 H :    0.028746
  32 H :    0.040068
  33 H :    0.057858
Sum of atomic charges:   -0.0000000

LOEWDIN ATOMIC CHARGES
----------------------
   0 S :    0.398149
   1 C :   -0.191435
   2 C :   -0.053025
   3 C :   -0.065295
   4 C :   -0.208616
   5 H :    0.033325
   6 C :   -0.042289
   7 H :    0.032275
   8 H :    0.031191
   9 C :   -0.038577
  10 H :    0.022785
  11 H :    0.024365
  12 C :   -0.057459
  13 H :    0.036190
  14 H :    0.008907
  15 H :    0.018741
  16 S :    0.437572
  17 C :   -0.198442
  18 C :   -0.082315
  19 C :   -0.049390
  20 C :   -0.203426
  21 H :    0.033827
  22 C :   -0.024795
  23 H :    0.034519
  24 H :    0.028311
  25 C :   -0.045970
  26 H :    0.022750
  27 H :    0.033510
  28 C :   -0.072840
  29 H :    0.019699
  30 H :    0.034955
  31 H :    0.025136
  32 H :    0.021306
  33 H :    0.036362

  Mayer bond orders larger than 0.100000
B(  0-S ,  1-C ) :   1.1331 B(  0-S ,  4-C ) :   1.1558 B(  1-C ,  2-C ) :   1.5938
B(  1-C , 32-H ) :   0.9809 B(  2-C ,  3-C ) :   1.2232 B(  2-C ,  6-C ) :   1.0185
B(  3-C ,  4-C ) :   1.5935 B(  3-C ,  5-H ) :   0.9842 B(  4-C , 20-C ) :   1.0041
B(  6-C ,  7-H ) :   0.9370 B(  6-C ,  8-H ) :   0.9517 B(  6-C ,  9-C ) :   1.0785
B(  9-C , 10-H ) :   0.9605 B(  9-C , 11-H ) :   0.9558 B(  9-C , 12-C ) :   1.0644
B( 12-C , 13-H ) :   0.9715 B( 12-C , 14-H ) :   0.9773 B( 12-C , 15-H ) :   0.9726
B( 16-S , 17-C ) :   1.1710 B( 16-S , 20-C ) :   1.1650 B( 17-C , 18-C ) :   1.6126
B( 17-C , 20-C ) :   0.1054 B( 17-C , 33-H ) :   0.9524 B( 18-C , 19-C ) :   1.2721
B( 18-C , 21-H ) :   0.9920 B( 19-C , 20-C ) :   1.5699 B( 19-C , 22-C ) :   1.0373
B( 22-C , 23-H ) :   0.9315 B( 22-C , 24-H ) :   0.9433 B( 22-C , 25-C ) :   1.0207
B( 25-C , 26-H ) :   0.9656 B( 25-C , 27-H ) :   0.9465 B( 25-C , 28-C ) :   1.1054
B( 28-C , 29-H ) :   0.9689 B( 28-C , 30-H ) :   0.9702 B( 28-C , 31-H ) :   0.9700

Dispersion correction           -0.015953805
FINAL SINGLE POINT ENERGY     -1339.863001704979

DIPOLE MOMENT
-------------
                                X             Y             Z
Electronic contribution:      7.58766     -21.79581     -16.46439
Nuclear contribution   :     -7.96044      22.19334      16.70852
                        -----------------------------------------
Total Dipole Moment    :     -0.37277       0.39753       0.24413
                        -----------------------------------------
Magnitude (a.u.)       :      0.59715
Magnitude (Debye)      :      1.51784

Rotational constants in cm-1:     0.018106     0.010085     0.007840
Rotational constants in MHz :   542.789355   302.350704   235.039748

                             ****ORCA TERMINATED NORMALLY****
TOTAL RUN TIME: 0 days 0 hours 0 minutes 36 seconds 391 msec
