                         Program Version 4.2.1 -  RELEASE  -
|  1> ! wB97X-D3 SP def2-SVP
|  2> %pal
|  3> nprocs 16
|  4> end
|  5>
|  6> * xyz 0 1
|  7> S 	 -48.1002 	 63.8854 	 132.22
|  8> C 	 -46.6612 	 64.9181 	 132.225
|  9> C 	 -45.8704 	 64.5588 	 131.204
| 10> C 	 -46.3514 	 63.4948 	 130.343
| 11> C 	 -47.5347 	 62.9593 	 130.804
| 12> H 	 -45.8214 	 63.0244 	 129.552
| 13> C 	 -44.6187 	 65.4072 	 130.866
| 14> H 	 -44.2332 	 65.8848 	 131.782
| 15> H 	 -44.8557 	 66.2212 	 130.191
| 16> C 	 -43.46 	 64.5763 	 130.377
| 17> H 	 -43.3122 	 63.887 	 131.189
| 18> H 	 -43.7213 	 64.0821 	 129.517
| 19> C 	 -42.1133 	 65.3197 	 130.278
| 20> H 	 -41.3592 	 64.582 	 129.863
| 21> H 	 -42.2494 	 66.1297 	 129.55
| 22> H 	 -41.8216 	 65.7997 	 131.239
| 23> S 	 -50.0851 	 62.218 	 130.071
| 24> C 	 -50.3312 	 60.6519 	 129.339
| 25> C 	 -49.0959 	 59.9597 	 129.133
| 26> C 	 -47.9257 	 60.6958 	 129.545
| 27> C 	 -48.3028 	 61.8716 	 130.274
| 28> H 	 -49.0782 	 58.9954 	 128.677
| 29> C 	 -46.5916 	 59.9002 	 129.532
| 30> H 	 -46.0614 	 60.367 	 128.712
| 31> H 	 -46.6238 	 58.8911 	 129.213
| 32> C 	 -45.8834 	 59.8932 	 130.918
| 33> H 	 -46.4998 	 59.4155 	 131.661
| 34> H 	 -45.7003 	 60.9349 	 131.213
| 35> C 	 -44.4199 	 59.3304 	 130.892
| 36> H 	 -43.8476 	 59.8832 	 131.62
| 37> H 	 -43.9388 	 59.424 	 129.887
| 38> H 	 -44.4282 	 58.3048 	 131.226
| 39> H 	 -46.4818 	 65.7171 	 132.964
| 40> H 	 -51.3252 	 60.3161 	 129.193
| 41> *
| 42>
| 43>                          ****END OF INPUT****

CARTESIAN COORDINATES (ANGSTROEM)
---------------------------------
  S    -48.100200   63.885400  132.220000
  C    -46.661200   64.918100  132.225000
  C    -45.870400   64.558800  131.204000
  C    -46.351400   63.494800  130.343000
  C    -47.534700   62.959300  130.804000
  H    -45.821400   63.024400  129.552000
  C    -44.618700   65.407200  130.866000
  H    -44.233200   65.884800  131.782000
  H    -44.855700   66.221200  130.191000
  C    -43.460000   64.576300  130.377000
  H    -43.312200   63.887000  131.189000
  H    -43.721300   64.082100  129.517000
  C    -42.113300   65.319700  130.278000
  H    -41.359200   64.582000  129.863000
  H    -42.249400   66.129700  129.550000
  H    -41.821600   65.799700  131.239000
  S    -50.085100   62.218000  130.071000
  C    -50.331200   60.651900  129.339000
  C    -49.095900   59.959700  129.133000
  C    -47.925700   60.695800  129.545000
  C    -48.302800   61.871600  130.274000
  H    -49.078200   58.995400  128.677000
  C    -46.591600   59.900200  129.532000
  H    -46.061400   60.367000  128.712000
  H    -46.623800   58.891100  129.213000
  C    -45.883400   59.893200  130.918000
  H    -46.499800   59.415500  131.661000
  H    -45.700300   60.934900  131.213000
  C    -44.419900   59.330400  130.892000
  H    -43.847600   59.883200  131.620000
  H    -43.938800   59.424000  129.887000
  H    -44.428200   58.304800  131.226000
  H    -46.481800   65.717100  132.964000
  H    -51.325200   60.316100  129.193000

 Total Charge           Charge          ....    0
 Multiplicity           Mult            ....    1
 Number of Electrons    NEL             ....  134
 Basis Dimension        Dim             ....  322

ORBITAL ENERGIES
----------------

  NO   OCC          E(Eh)            E(eV)
   0   2.0000     -88.968694     -2420.9612
   1   2.0000     -88.961174     -2420.7566
   2   2.0000     -10.337537      -281.2987
   3   2.0000     -10.332332      -281.1571
   4   2.0000     -10.322315      -280.8845
   5   2.0000     -10.317363      -280.7497
   6   2.0000     -10.313893      -280.6553
   7   2.0000     -10.300327      -280.2861
   8   2.0000     -10.300262      -280.2844
   9   2.0000     -10.295872      -280.1649
  10   2.0000     -10.295035      -280.1422
  11   2.0000     -10.288506      -279.9645
  12   2.0000     -10.286740      -279.9164
  13   2.0000     -10.284946      -279.8676
  14   2.0000     -10.278375      -279.6888
  15   2.0000     -10.274326      -279.5786
  16   2.0000      -8.082303      -219.9306
  17   2.0000      -8.075429      -219.7436
  18   2.0000      -6.040760      -164.3774
  19   2.0000      -6.036958      -164.2740
  20   2.0000      -6.034120      -164.1968
  21   2.0000      -6.033185      -164.1713
  22   2.0000      -6.029988      -164.0843
  23   2.0000      -6.026024      -163.9764
  24   2.0000      -0.999958       -27.2102
  25   2.0000      -0.974106       -26.5068
  26   2.0000      -0.913303       -24.8522
  27   2.0000      -0.902875       -24.5685
  28   2.0000      -0.871347       -23.7106
  29   2.0000      -0.849153       -23.1066
  30   2.0000      -0.839056       -22.8319
  31   2.0000      -0.809726       -22.0338
  32   2.0000      -0.783162       -21.3109
  33   2.0000      -0.769121       -20.9288
  34   2.0000      -0.711717       -19.3668
  35   2.0000      -0.698327       -19.0024
  36   2.0000      -0.685679       -18.6583
  37   2.0000      -0.664524       -18.0826
  38   2.0000      -0.642175       -17.4745
  39   2.0000      -0.618992       -16.8436
  40   2.0000      -0.595593       -16.2069
  41   2.0000      -0.578644       -15.7457
  42   2.0000      -0.566351       -15.4112
  43   2.0000      -0.557754       -15.1772
  44   2.0000      -0.523304       -14.2398
  45   2.0000      -0.521819       -14.1994
  46   2.0000      -0.515633       -14.0311
  47   2.0000      -0.511895       -13.9294
  48   2.0000      -0.503468       -13.7001
  49   2.0000      -0.499566       -13.5939
  50   2.0000      -0.497268       -13.5314
  51   2.0000      -0.482935       -13.1413
  52   2.0000      -0.478985       -13.0339
  53   2.0000      -0.469190       -12.7673
  54   2.0000      -0.454472       -12.3668
  55   2.0000      -0.445836       -12.1318
  56   2.0000      -0.443437       -12.0665
  57   2.0000      -0.433416       -11.7938
  58   2.0000      -0.431850       -11.7512
  59   2.0000      -0.421935       -11.4814
  60   2.0000      -0.417596       -11.3634
  61   2.0000      -0.409312       -11.1380
  62   2.0000      -0.405520       -11.0347
  63   2.0000      -0.351297        -9.5593
  64   2.0000      -0.333310        -9.0698
  65   2.0000      -0.328827        -8.9478
  66   2.0000      -0.286322        -7.7912
  67   0.0000       0.015904         0.4328
  68   0.0000       0.071358         1.9417
  69   0.0000       0.103549         2.8177
  70   0.0000       0.121419         3.3040
  71   0.0000       0.128456         3.4955

MULLIKEN ATOMIC CHARGES
-----------------------
   0 S :    0.081776
   1 C :   -0.129797
   2 C :   -0.078825
   3 C :    0.048091
   4 C :   -0.138300
   5 H :    0.003873
   6 C :    0.057601
   7 H :    0.007928
   8 H :    0.040186
   9 C :   -0.087092
  10 H :    0.024847
  11 H :    0.017895
  12 C :   -0.056289
  13 H :    0.050445
  14 H :    0.026069
  15 H :    0.040510
  16 S :    0.094937
  17 C :   -0.080563
  18 C :   -0.038101
  19 C :   -0.013178
  20 C :   -0.153339
  21 H :    0.017503
  22 C :    0.065318
  23 H :    0.025543
  24 H :    0.016089
  25 C :   -0.094158
  26 H :    0.042000
  27 H :    0.043702
  28 C :   -0.053911
  29 H :    0.031414
  30 H :    0.038316
  31 H :    0.032507
  32 H :    0.062014
  33 H :    0.054989
Sum of atomic charges:   -0.0000000

LOEWDIN ATOMIC CHARGES
----------------------
   0 S :    0.370673
   1 C :   -0.188175
   2 C :   -0.065255
   3 C :   -0.062392
   4 C :   -0.177097
   5 H :    0.026239
   6 C :   -0.028003
   7 H :    0.027181
   8 H :    0.026738
   9 C :   -0.042507
  10 H :    0.025170
  11 H :    0.007822
  12 C :   -0.066161
  13 H :    0.036420
  14 H :    0.021552
  15 H :    0.028355
  16 S :    0.388362
  17 C :   -0.177603
  18 C :   -0.066301
  19 C :   -0.042860
  20 C :   -0.180538
  21 H :    0.026823
  22 C :   -0.027794
  23 H :    0.030167
  24 H :    0.024565
  25 C :   -0.037749
  26 H :    0.026356
  27 H :    0.026824
  28 C :   -0.066786
  29 H :    0.025501
  30 H :    0.029664
  31 H :    0.021937
  32 H :    0.038977
  33 H :    0.019896

  Mayer bond orders larger than 0.100000
B(  0-S ,  1-C ) :   1.1043 B(  0-S ,  4-C ) :   1.1364 B(  1-C ,  2-C ) :   1.6595
B(  1-C , 32-H ) :   0.9693 B(  2-C ,  3-C ) :   1.1976 B(  2-C ,  6-C ) :   1.0162
B(  3-C ,  4-C ) :   1.5860 B(  3-C ,  5-H ) :   0.9961 B(  4-C , 20-C ) :   1.0740
B(  6-C ,  7-H ) :   0.9458 B(  6-C ,  8-H ) :   0.9424 B(  6-C ,  9-C ) :   1.0579
B(  9-C , 10-H ) :   0.9608 B(  9-C , 11-H ) :   0.9541 B(  9-C , 12-C ) :   1.0884
B( 12-C , 13-H ) :   0.9732 B( 12-C , 14-H ) :   0.9747 B( 12-C , 15-H ) :   0.9731
B( 16-S , 17-C ) :   1.1691 B( 16-S , 20-C ) :   1.1348 B( 17-C , 18-C ) :   1.5669
B( 17-C , 20-C ) :   0.1153 B( 17-C , 33-H ) :   0.9751 B( 18-C , 19-C ) :   1.2516
B( 18-C , 21-H ) :   0.9931 B( 19-C , 20-C ) :   1.5546 B( 19-C , 22-C ) :   1.0262
B( 22-C , 23-H ) :   0.9243 B( 22-C , 24-H ) :   0.9519 B( 22-C , 25-C ) :   1.0628
B( 25-C , 26-H ) :   0.9606 B( 25-C , 27-H ) :   0.9603 B( 25-C , 28-C ) :   1.0662
B( 28-C , 29-H ) :   0.9810 B( 28-C , 30-H ) :   0.9770 B( 28-C , 31-H ) :   0.9779

Dispersion correction           -0.014248545
FINAL SINGLE POINT ENERGY     -1339.862764075534

DIPOLE MOMENT
-------------
                                X             Y             Z
Electronic contribution:    -31.59046       3.71499       3.09295
Nuclear contribution   :     32.15591      -3.96155      -3.31793
                        -----------------------------------------
Total Dipole Moment    :      0.56545      -0.24655      -0.22498
                        -----------------------------------------
Magnitude (a.u.)       :      0.65661
Magnitude (Debye)      :      1.66896

Rotational constants in cm-1:     0.018042     0.009035     0.006797
Rotational constants in MHz :   540.892074   270.875931   203.781741

                             ****ORCA TERMINATED NORMALLY****
TOTAL RUN TIME: 0 days 0 hours 0 minutes 33 seconds 495 msec
