                         Program Version 4.2.1 -  RELEASE  -
|  1> ! wB97X-D3 SP def2-SVP
|  2> %pal
|  3> nprocs 16
|  4> end
|  5>
|  6> * xyz 0 1
|  7> S 	 -104.154 	 43.072 	 125.631
|  8> C 	 -103.103 	 41.8062 	 126.163
|  9> C 	 -102.085 	 42.1761 	 127.03
| 10> C 	 -102.354 	 43.5193 	 127.483
| 11> C 	 -103.3 	 44.1657 	 126.677
| 12> H 	 -101.656 	 44.1091 	 128.094
| 13> C 	 -101.137 	 41.2868 	 127.694
| 14> H 	 -100.437 	 42.0083 	 128.095
| 15> H 	 -100.518 	 40.7201 	 126.909
| 16> C 	 -101.658 	 40.3234 	 128.806
| 17> H 	 -102.031 	 40.791 	 129.705
| 18> H 	 -102.616 	 40.0194 	 128.461
| 19> C 	 -100.691 	 39.1869 	 129.082
| 20> H 	 -100.455 	 38.6856 	 128.122
| 21> H 	 -99.7589 	 39.5246 	 129.534
| 22> H 	 -101.18 	 38.5378 	 129.893
| 23> S 	 -105.157 	 46.1904 	 126.772
| 24> C 	 -104.676 	 47.8748 	 126.79
| 25> C 	 -103.345 	 47.9924 	 126.435
| 26> C 	 -102.646 	 46.7767 	 126.526
| 27> C 	 -103.508 	 45.6195 	 126.558
| 28> H 	 -102.898 	 48.9447 	 126.172
| 29> C 	 -101.068 	 46.7607 	 126.492
| 30> H 	 -100.672 	 45.7636 	 126.502
| 31> H 	 -100.652 	 47.0475 	 127.485
| 32> C 	 -100.369 	 47.4755 	 125.313
| 33> H 	 -100.865 	 48.4113 	 125.241
| 34> H 	 -100.657 	 46.9874 	 124.365
| 35> C 	 -98.8809 	 47.6724 	 125.576
| 36> H 	 -98.3031 	 46.7742 	 125.744
| 37> H 	 -98.6738 	 48.2962 	 126.379
| 38> H 	 -98.4282 	 48.1397 	 124.722
| 39> H 	 -102.908 	 40.8257 	 125.711
| 40> H 	 -105.33 	 48.7148 	 126.804
| 41> *
| 42>
| 43>                          ****END OF INPUT****

CARTESIAN COORDINATES (ANGSTROEM)
---------------------------------
  S    -104.154000   43.072000  125.631000
  C    -103.103000   41.806200  126.163000
  C    -102.085000   42.176100  127.030000
  C    -102.354000   43.519300  127.483000
  C    -103.300000   44.165700  126.677000
  H    -101.656000   44.109100  128.094000
  C    -101.137000   41.286800  127.694000
  H    -100.437000   42.008300  128.095000
  H    -100.518000   40.720100  126.909000
  C    -101.658000   40.323400  128.806000
  H    -102.031000   40.791000  129.705000
  H    -102.616000   40.019400  128.461000
  C    -100.691000   39.186900  129.082000
  H    -100.455000   38.685600  128.122000
  H    -99.758900   39.524600  129.534000
  H    -101.180000   38.537800  129.893000
  S    -105.157000   46.190400  126.772000
  C    -104.676000   47.874800  126.790000
  C    -103.345000   47.992400  126.435000
  C    -102.646000   46.776700  126.526000
  C    -103.508000   45.619500  126.558000
  H    -102.898000   48.944700  126.172000
  C    -101.068000   46.760700  126.492000
  H    -100.672000   45.763600  126.502000
  H    -100.652000   47.047500  127.485000
  C    -100.369000   47.475500  125.313000
  H    -100.865000   48.411300  125.241000
  H    -100.657000   46.987400  124.365000
  C    -98.880900   47.672400  125.576000
  H    -98.303100   46.774200  125.744000
  H    -98.673800   48.296200  126.379000
  H    -98.428200   48.139700  124.722000
  H    -102.908000   40.825700  125.711000
  H    -105.330000   48.714800  126.804000

 Total Charge           Charge          ....    0
 Multiplicity           Mult            ....    1
 Number of Electrons    NEL             ....  134
 Basis Dimension        Dim             ....  322

ORBITAL ENERGIES
----------------

  NO   OCC          E(Eh)            E(eV)
   0   2.0000     -88.973036     -2421.0794
   1   2.0000     -88.965948     -2420.8865
   2   2.0000     -10.334066      -281.2042
   3   2.0000     -10.331713      -281.1402
   4   2.0000     -10.316580      -280.7284
   5   2.0000     -10.312732      -280.6237
   6   2.0000     -10.309547      -280.5370
   7   2.0000     -10.296722      -280.1880
   8   2.0000     -10.295967      -280.1675
   9   2.0000     -10.294998      -280.1411
  10   2.0000     -10.294092      -280.1165
  11   2.0000     -10.293213      -280.0926
  12   2.0000     -10.287948      -279.9493
  13   2.0000     -10.286303      -279.9045
  14   2.0000     -10.284005      -279.8420
  15   2.0000     -10.272213      -279.5211
  16   2.0000      -8.087982      -220.0852
  17   2.0000      -8.080427      -219.8796
  18   2.0000      -6.046463      -164.5326
  19   2.0000      -6.042504      -164.4249
  20   2.0000      -6.038960      -164.3285
  21   2.0000      -6.038722      -164.3220
  22   2.0000      -6.034843      -164.2164
  23   2.0000      -6.031306      -164.1202
  24   2.0000      -1.005635       -27.3647
  25   2.0000      -0.984215       -26.7819
  26   2.0000      -0.915442       -24.9104
  27   2.0000      -0.905103       -24.6291
  28   2.0000      -0.868239       -23.6260
  29   2.0000      -0.853884       -23.2354
  30   2.0000      -0.847559       -23.0633
  31   2.0000      -0.811354       -22.0781
  32   2.0000      -0.782431       -21.2910
  33   2.0000      -0.770707       -20.9720
  34   2.0000      -0.711238       -19.3538
  35   2.0000      -0.709236       -19.2993
  36   2.0000      -0.698921       -19.0186
  37   2.0000      -0.656757       -17.8713
  38   2.0000      -0.632901       -17.2221
  39   2.0000      -0.618278       -16.8242
  40   2.0000      -0.598851       -16.2956
  41   2.0000      -0.569097       -15.4859
  42   2.0000      -0.558232       -15.1903
  43   2.0000      -0.555946       -15.1281
  44   2.0000      -0.524085       -14.2611
  45   2.0000      -0.523001       -14.2316
  46   2.0000      -0.517714       -14.0877
  47   2.0000      -0.509007       -13.8508
  48   2.0000      -0.504280       -13.7221
  49   2.0000      -0.500539       -13.6204
  50   2.0000      -0.491972       -13.3872
  51   2.0000      -0.472741       -12.8639
  52   2.0000      -0.470932       -12.8147
  53   2.0000      -0.465262       -12.6604
  54   2.0000      -0.459408       -12.5011
  55   2.0000      -0.453860       -12.3502
  56   2.0000      -0.448719       -12.2103
  57   2.0000      -0.442137       -12.0312
  58   2.0000      -0.438780       -11.9398
  59   2.0000      -0.436440       -11.8761
  60   2.0000      -0.419429       -11.4132
  61   2.0000      -0.408326       -11.1111
  62   2.0000      -0.405508       -11.0344
  63   2.0000      -0.346188        -9.4203
  64   2.0000      -0.334285        -9.0964
  65   2.0000      -0.327170        -8.9028
  66   2.0000      -0.286813        -7.8046
  67   0.0000       0.026400         0.7184
  68   0.0000       0.062535         1.7017
  69   0.0000       0.105880         2.8811
  70   0.0000       0.120124         3.2687
  71   0.0000       0.125650         3.4191

MULLIKEN ATOMIC CHARGES
-----------------------
   0 S :    0.138325
   1 C :   -0.089050
   2 C :   -0.156694
   3 C :    0.039706
   4 C :   -0.151884
   5 H :    0.023055
   6 C :    0.030462
   7 H :    0.013653
   8 H :    0.036811
   9 C :   -0.012264
  10 H :    0.016863
  11 H :    0.005597
  12 C :   -0.062644
  13 H :    0.041696
  14 H :    0.034504
  15 H :    0.048914
  16 S :    0.096811
  17 C :   -0.075916
  18 C :   -0.045579
  19 C :   -0.029606
  20 C :   -0.146590
  21 H :    0.028217
  22 C :    0.034321
  23 H :    0.004611
  24 H :    0.029335
  25 C :   -0.056635
  26 H :    0.009383
  27 H :    0.039497
  28 C :   -0.009494
  29 H :    0.025791
  30 H :    0.016378
  31 H :    0.025265
  32 H :    0.047665
  33 H :    0.049492
Sum of atomic charges:    0.0000000

LOEWDIN ATOMIC CHARGES
----------------------
   0 S :    0.428805
   1 C :   -0.213534
   2 C :   -0.068898
   3 C :   -0.062494
   4 C :   -0.199861
   5 H :    0.031818
   6 C :   -0.042709
   7 H :    0.028613
   8 H :    0.039886
   9 C :   -0.041044
  10 H :    0.026625
  11 H :    0.019447
  12 C :   -0.067682
  13 H :    0.028326
  14 H :    0.024026
  15 H :    0.038915
  16 S :    0.407473
  17 C :   -0.181341
  18 C :   -0.072251
  19 C :   -0.050907
  20 C :   -0.202673
  21 H :    0.032539
  22 C :   -0.038377
  23 H :    0.021446
  24 H :    0.032565
  25 C :   -0.036027
  26 H :    0.014942
  27 H :    0.031355
  28 C :   -0.057027
  29 H :    0.025228
  30 H :    0.018633
  31 H :    0.027868
  32 H :    0.032016
  33 H :    0.024298

  Mayer bond orders larger than 0.100000
B(  0-S ,  1-C ) :   1.1393 B(  0-S ,  4-C ) :   1.1599 B(  1-C ,  2-C ) :   1.6219
B(  1-C , 32-H ) :   0.9539 B(  2-C ,  3-C ) :   1.2380 B(  2-C ,  6-C ) :   1.0578
B(  3-C ,  4-C ) :   1.5776 B(  3-C ,  5-H ) :   0.9766 B(  4-C , 20-C ) :   1.0187
B(  6-C ,  7-H ) :   0.9268 B(  6-C ,  8-H ) :   0.9354 B(  6-C ,  9-C ) :   1.0415
B(  9-C , 10-H ) :   0.9472 B(  9-C , 11-H ) :   0.9541 B(  9-C , 12-C ) :   1.0766
B( 12-C , 13-H ) :   0.9752 B( 12-C , 14-H ) :   0.9763 B( 12-C , 15-H ) :   0.9715
B( 16-S , 17-C ) :   1.1698 B( 16-S , 20-C ) :   1.1500 B( 17-C , 18-C ) :   1.5875
B( 17-C , 20-C ) :   0.1153 B( 17-C , 33-H ) :   0.9676 B( 18-C , 19-C ) :   1.2743
B( 18-C , 21-H ) :   0.9835 B( 19-C , 20-C ) :   1.5592 B( 19-C , 22-C ) :   1.0229
B( 22-C , 23-H ) :   0.9367 B( 22-C , 24-H ) :   0.9427 B( 22-C , 25-C ) :   1.0528
B( 25-C , 26-H ) :   0.9566 B( 25-C , 27-H ) :   0.9556 B( 25-C , 28-C ) :   1.0810
B( 28-C , 29-H ) :   0.9762 B( 28-C , 30-H ) :   0.9725 B( 28-C , 31-H ) :   0.9705

Dispersion correction           -0.013378652
FINAL SINGLE POINT ENERGY     -1339.851371806423

DIPOLE MOMENT
-------------
                                X             Y             Z
Electronic contribution:    -27.18614       6.23064      -6.20414
Nuclear contribution   :     27.89324      -6.11050       6.28390
                        -----------------------------------------
Total Dipole Moment    :      0.70710       0.12014       0.07976
                        -----------------------------------------
Magnitude (a.u.)       :      0.72165
Magnitude (Debye)      :      1.83430

Rotational constants in cm-1:     0.017949     0.007649     0.005976
Rotational constants in MHz :   538.098763   229.299263   179.161393

                             ****ORCA TERMINATED NORMALLY****
TOTAL RUN TIME: 0 days 0 hours 0 minutes 32 seconds 529 msec
