                         Program Version 4.2.1 -  RELEASE  -
|  1> ! wB97X-D3 SP def2-SVP
|  2> %pal
|  3> nprocs 16
|  4> end
|  5>
|  6> * xyz 0 1
|  7> S 	 -1.6232 	 -24.7851 	 86.609
|  8> C 	 -0.233149 	 -24.8873 	 85.5722
|  9> C 	 0.57438 	 -23.7786 	 85.7919
| 10> C 	 -0.0785641 	 -22.7449 	 86.4037
| 11> C 	 -1.27046 	 -23.1419 	 86.9449
| 12> H 	 0.213126 	 -21.775 	 86.6765
| 13> C 	 1.94569 	 -23.7043 	 85.1669
| 14> H 	 1.95199 	 -22.8808 	 84.4381
| 15> H 	 2.14069 	 -24.5703 	 84.698
| 16> C 	 3.11369 	 -23.5272 	 86.0169
| 17> H 	 3.96957 	 -23.2865 	 85.4265
| 18> H 	 2.88098 	 -22.6037 	 86.5077
| 19> C 	 3.51824 	 -24.8122 	 86.8086
| 20> H 	 2.66862 	 -25.2558 	 87.2755
| 21> H 	 3.85723 	 -25.6088 	 86.1326
| 22> H 	 4.33006 	 -24.6814 	 87.5723
| 23> S 	 -3.3373 	 -23.082 	 88.7974
| 24> C 	 -4.08097 	 -21.581 	 89.3103
| 25> C 	 -3.43193 	 -20.5382 	 88.6519
| 26> C 	 -2.35482 	 -20.9063 	 87.7788
| 27> C 	 -2.2289 	 -22.3153 	 87.6684
| 28> H 	 -3.74332 	 -19.5069 	 88.8881
| 29> C 	 -1.63221 	 -19.9412 	 86.9621
| 30> H 	 -0.664112 	 -20.2157 	 86.6523
| 31> H 	 -1.3721 	 -19.3168 	 87.7688
| 32> C 	 -2.41877 	 -19.0722 	 85.9144
| 33> H 	 -1.74855 	 -18.3445 	 85.5178
| 34> H 	 -3.20398 	 -18.4024 	 86.3268
| 35> C 	 -3.13955 	 -19.9858 	 84.9206
| 36> H 	 -3.65498 	 -19.4745 	 84.0871
| 37> H 	 -3.91457 	 -20.6242 	 85.3513
| 38> H 	 -2.43618 	 -20.6408 	 84.415
| 39> H 	 0.0793491 	 -25.7127 	 84.8554
| 40> H 	 -4.93341 	 -21.4656 	 89.9398
| 41> *
| 42>
| 43>                          ****END OF INPUT****

CARTESIAN COORDINATES (ANGSTROEM)
---------------------------------
  S     -1.623200  -24.785100   86.609000
  C     -0.233149  -24.887300   85.572200
  C      0.574380  -23.778600   85.791900
  C     -0.078564  -22.744900   86.403700
  C     -1.270460  -23.141900   86.944900
  H      0.213126  -21.775000   86.676500
  C      1.945690  -23.704300   85.166900
  H      1.951990  -22.880800   84.438100
  H      2.140690  -24.570300   84.698000
  C      3.113690  -23.527200   86.016900
  H      3.969570  -23.286500   85.426500
  H      2.880980  -22.603700   86.507700
  C      3.518240  -24.812200   86.808600
  H      2.668620  -25.255800   87.275500
  H      3.857230  -25.608800   86.132600
  H      4.330060  -24.681400   87.572300
  S     -3.337300  -23.082000   88.797400
  C     -4.080970  -21.581000   89.310300
  C     -3.431930  -20.538200   88.651900
  C     -2.354820  -20.906300   87.778800
  C     -2.228900  -22.315300   87.668400
  H     -3.743320  -19.506900   88.888100
  C     -1.632210  -19.941200   86.962100
  H     -0.664112  -20.215700   86.652300
  H     -1.372100  -19.316800   87.768800
  C     -2.418770  -19.072200   85.914400
  H     -1.748550  -18.344500   85.517800
  H     -3.203980  -18.402400   86.326800
  C     -3.139550  -19.985800   84.920600
  H     -3.654980  -19.474500   84.087100
  H     -3.914570  -20.624200   85.351300
  H     -2.436180  -20.640800   84.415000
  H      0.079349  -25.712700   84.855400
  H     -4.933410  -21.465600   89.939800

 Total Charge           Charge          ....    0
 Multiplicity           Mult            ....    1
 Number of Electrons    NEL             ....  134
 Basis Dimension        Dim             ....  322

ORBITAL ENERGIES
----------------

  NO   OCC          E(Eh)            E(eV)
   0   2.0000     -88.968088     -2420.9448
   1   2.0000     -88.964071     -2420.8354
   2   2.0000     -10.330071      -281.0955
   3   2.0000     -10.326284      -280.9925
   4   2.0000     -10.318356      -280.7767
   5   2.0000     -10.315791      -280.7070
   6   2.0000     -10.304732      -280.4060
   7   2.0000     -10.297880      -280.2196
   8   2.0000     -10.295362      -280.1511
   9   2.0000     -10.292138      -280.0633
  10   2.0000     -10.284306      -279.8502
  11   2.0000     -10.283673      -279.8330
  12   2.0000     -10.279112      -279.7088
  13   2.0000     -10.277418      -279.6628
  14   2.0000     -10.274378      -279.5800
  15   2.0000     -10.272375      -279.5255
  16   2.0000      -8.083550      -219.9646
  17   2.0000      -8.078554      -219.8286
  18   2.0000      -6.041905      -164.4086
  19   2.0000      -6.038011      -164.3026
  20   2.0000      -6.037177      -164.2799
  21   2.0000      -6.034373      -164.2036
  22   2.0000      -6.032939      -164.1646
  23   2.0000      -6.029402      -164.0684
  24   2.0000      -1.016715       -27.6662
  25   2.0000      -0.987467       -26.8703
  26   2.0000      -0.925949       -25.1964
  27   2.0000      -0.913717       -24.8635
  28   2.0000      -0.869935       -23.6721
  29   2.0000      -0.856890       -23.3172
  30   2.0000      -0.845124       -22.9970
  31   2.0000      -0.815392       -22.1879
  32   2.0000      -0.787133       -21.4190
  33   2.0000      -0.776873       -21.1398
  34   2.0000      -0.716974       -19.5099
  35   2.0000      -0.705723       -19.2037
  36   2.0000      -0.694149       -18.8887
  37   2.0000      -0.658646       -17.9227
  38   2.0000      -0.643410       -17.5081
  39   2.0000      -0.631493       -17.1838
  40   2.0000      -0.600809       -16.3488
  41   2.0000      -0.568068       -15.4579
  42   2.0000      -0.560499       -15.2520
  43   2.0000      -0.554396       -15.0859
  44   2.0000      -0.547282       -14.8923
  45   2.0000      -0.535355       -14.5677
  46   2.0000      -0.522557       -14.2195
  47   2.0000      -0.508436       -13.8353
  48   2.0000      -0.504897       -13.7389
  49   2.0000      -0.498063       -13.5530
  50   2.0000      -0.492301       -13.3962
  51   2.0000      -0.482287       -13.1237
  52   2.0000      -0.473300       -12.8791
  53   2.0000      -0.466827       -12.7030
  54   2.0000      -0.462628       -12.5888
  55   2.0000      -0.451232       -12.2786
  56   2.0000      -0.444258       -12.0889
  57   2.0000      -0.443243       -12.0613
  58   2.0000      -0.433725       -11.8022
  59   2.0000      -0.424503       -11.5513
  60   2.0000      -0.415088       -11.2951
  61   2.0000      -0.409752       -11.1499
  62   2.0000      -0.407944       -11.1007
  63   2.0000      -0.358880        -9.7656
  64   2.0000      -0.338237        -9.2039
  65   2.0000      -0.325030        -8.8445
  66   2.0000      -0.277120        -7.5408
  67   0.0000       0.019323         0.5258
  68   0.0000       0.081211         2.2099
  69   0.0000       0.104582         2.8458
  70   0.0000       0.116525         3.1708
  71   0.0000       0.143187         3.8963

MULLIKEN ATOMIC CHARGES
-----------------------
   0 S :    0.122309
   1 C :   -0.151986
   2 C :   -0.072374
   3 C :   -0.003805
   4 C :   -0.106750
   5 H :   -0.012574
   6 C :    0.122738
   7 H :    0.029040
   8 H :   -0.041615
   9 C :   -0.029170
  10 H :    0.018174
  11 H :    0.008902
  12 C :   -0.064034
  13 H :    0.029026
  14 H :    0.025501
  15 H :    0.046659
  16 S :    0.083770
  17 C :   -0.079736
  18 C :   -0.051017
  19 C :   -0.072560
  20 C :   -0.111645
  21 H :    0.024166
  22 C :    0.085857
  23 H :   -0.001130
  24 H :    0.013218
  25 C :   -0.030536
  26 H :    0.020979
  27 H :    0.025931
  28 C :   -0.060239
  29 H :    0.028643
  30 H :    0.048725
  31 H :    0.026565
  32 H :    0.074493
  33 H :    0.054475
Sum of atomic charges:   -0.0000000

LOEWDIN ATOMIC CHARGES
----------------------
   0 S :    0.428402
   1 C :   -0.215435
   2 C :   -0.060614
   3 C :   -0.066853
   4 C :   -0.188880
   5 H :    0.022079
   6 C :   -0.024733
   7 H :    0.036249
   8 H :    0.007380
   9 C :   -0.037969
  10 H :    0.023534
  11 H :    0.018555
  12 C :   -0.067094
  13 H :    0.020715
  14 H :    0.027307
  15 H :    0.032770
  16 S :    0.394418
  17 C :   -0.185893
  18 C :   -0.070456
  19 C :   -0.062340
  20 C :   -0.190568
  21 H :    0.033852
  22 C :   -0.036977
  23 H :    0.022759
  24 H :    0.038523
  25 C :   -0.032186
  26 H :    0.021851
  27 H :    0.027304
  28 C :   -0.071916
  29 H :    0.026260
  30 H :    0.031170
  31 H :    0.023579
  32 H :    0.045892
  33 H :    0.029314

  Mayer bond orders larger than 0.100000
B(  0-S ,  1-C ) :   1.1462 B(  0-S ,  4-C ) :   1.1603 B(  1-C ,  2-C ) :   1.5707
B(  1-C ,  4-C ) :   0.1051 B(  1-C , 32-H ) :   0.9589 B(  2-C ,  3-C ) :   1.2520
B(  2-C ,  6-C ) :   1.0385 B(  3-C ,  4-C ) :   1.5519 B(  3-C ,  5-H ) :   0.9981
B(  4-C , 20-C ) :   1.0735 B(  6-C ,  7-H ) :   0.9325 B(  6-C ,  8-H ) :   0.9208
B(  6-C ,  9-C ) :   1.0887 B(  9-C , 10-H ) :   0.9490 B(  9-C , 11-H ) :   0.9556
B(  9-C , 12-C ) :   1.0599 B( 12-C , 13-H ) :   0.9816 B( 12-C , 14-H ) :   0.9697
B( 12-C , 15-H ) :   0.9766 B( 16-S , 17-C ) :   1.1479 B( 16-S , 20-C ) :   1.1399
B( 17-C , 18-C ) :   1.5911 B( 17-C , 20-C ) :   0.1028 B( 17-C , 33-H ) :   0.9736
B( 18-C , 19-C ) :   1.2594 B( 18-C , 21-H ) :   0.9852 B( 19-C , 20-C ) :   1.5391
B( 19-C , 22-C ) :   1.0410 B( 22-C , 23-H ) :   0.9368 B( 22-C , 24-H ) :   0.9036
B( 22-C , 25-C ) :   1.0719 B( 25-C , 26-H ) :   0.9536 B( 25-C , 27-H ) :   0.9548
B( 25-C , 28-C ) :   1.0689 B( 28-C , 29-H ) :   0.9747 B( 28-C , 30-H ) :   0.9727
B( 28-C , 31-H ) :   0.9773

Dispersion correction           -0.014748233
FINAL SINGLE POINT ENERGY     -1339.845015515581

DIPOLE MOMENT
-------------
                                X             Y             Z
Electronic contribution:    -16.82074     -11.67923      11.24426
Nuclear contribution   :     17.17380      12.23613     -11.49588
                        -----------------------------------------
Total Dipole Moment    :      0.35306       0.55691      -0.25162
                        -----------------------------------------
Magnitude (a.u.)       :      0.70577
Magnitude (Debye)      :      1.79392

Rotational constants in cm-1:     0.020757     0.008580     0.007221
Rotational constants in MHz :   622.280854   257.223467   216.477515

                             ****ORCA TERMINATED NORMALLY****
TOTAL RUN TIME: 0 days 0 hours 0 minutes 33 seconds 828 msec
