                         Program Version 4.2.1 -  RELEASE  -
|  1> ! wB97X-D3 SP def2-SVP
|  2> %pal
|  3> nprocs 16
|  4> end
|  5>
|  6> * xyz 0 1
|  7> S 	 5.57213 	 25.0621 	 68.8856
|  8> C 	 4.27778 	 24.0986 	 68.2546
|  9> C 	 4.79444 	 22.9364 	 67.6633
| 10> C 	 6.20466 	 22.8846 	 67.7264
| 11> C 	 6.82731 	 23.8933 	 68.4131
| 12> H 	 6.71694 	 22.0101 	 67.3689
| 13> C 	 4.04745 	 21.7703 	 67.0741
| 14> H 	 4.38422 	 21.4511 	 66.0817
| 15> H 	 2.99762 	 22.0779 	 66.8523
| 16> C 	 4.07811 	 20.482 	 68.0055
| 17> H 	 3.79816 	 19.5398 	 67.537
| 18> H 	 5.12788 	 20.1732 	 68.2608
| 19> C 	 3.18235 	 20.5844 	 69.2372
| 20> H 	 3.06573 	 19.538 	 69.6441
| 21> H 	 3.7531 	 21.1918 	 69.9633
| 22> H 	 2.17694 	 21.0332 	 69.0376
| 23> S 	 8.98281 	 23.0509 	 69.7281
| 24> C 	 10.4731 	 23.9102 	 69.4271
| 25> C 	 10.3715 	 25.0121 	 68.5975
| 26> C 	 9.04073 	 25.0913 	 68.0866
| 27> C 	 8.23308 	 24.1311 	 68.6411
| 28> H 	 11.3569 	 25.5089 	 68.5477
| 29> C 	 8.53725 	 26.149 	 67.1881
| 30> H 	 8.94626 	 27.0629 	 67.508
| 31> H 	 7.48704 	 26.36 	 67.3912
| 32> C 	 8.68265 	 25.9473 	 65.6496
| 33> H 	 8.0251 	 26.6133 	 65.1595
| 34> H 	 8.38319 	 24.903 	 65.4276
| 35> C 	 10.0884 	 26.2548 	 65.2789
| 36> H 	 10.8867 	 25.6656 	 65.7648
| 37> H 	 10.3311 	 27.2948 	 65.6033
| 38> H 	 10.2197 	 26.2466 	 64.1674
| 39> H 	 3.18694 	 24.2763 	 68.3118
| 40> H 	 11.3465 	 23.7807 	 70.0128
| 41> *
| 42>
| 43>                          ****END OF INPUT****

CARTESIAN COORDINATES (ANGSTROEM)
---------------------------------
  S      5.572130   25.062100   68.885600
  C      4.277780   24.098600   68.254600
  C      4.794440   22.936400   67.663300
  C      6.204660   22.884600   67.726400
  C      6.827310   23.893300   68.413100
  H      6.716940   22.010100   67.368900
  C      4.047450   21.770300   67.074100
  H      4.384220   21.451100   66.081700
  H      2.997620   22.077900   66.852300
  C      4.078110   20.482000   68.005500
  H      3.798160   19.539800   67.537000
  H      5.127880   20.173200   68.260800
  C      3.182350   20.584400   69.237200
  H      3.065730   19.538000   69.644100
  H      3.753100   21.191800   69.963300
  H      2.176940   21.033200   69.037600
  S      8.982810   23.050900   69.728100
  C     10.473100   23.910200   69.427100
  C     10.371500   25.012100   68.597500
  C      9.040730   25.091300   68.086600
  C      8.233080   24.131100   68.641100
  H     11.356900   25.508900   68.547700
  C      8.537250   26.149000   67.188100
  H      8.946260   27.062900   67.508000
  H      7.487040   26.360000   67.391200
  C      8.682650   25.947300   65.649600
  H      8.025100   26.613300   65.159500
  H      8.383190   24.903000   65.427600
  C     10.088400   26.254800   65.278900
  H     10.886700   25.665600   65.764800
  H     10.331100   27.294800   65.603300
  H     10.219700   26.246600   64.167400
  H      3.186940   24.276300   68.311800
  H     11.346500   23.780700   70.012800

 Total Charge           Charge          ....    0
 Multiplicity           Mult            ....    1
 Number of Electrons    NEL             ....  134
 Basis Dimension        Dim             ....  322

ORBITAL ENERGIES
----------------

  NO   OCC          E(Eh)            E(eV)
   0   2.0000     -88.968760     -2420.9630
   1   2.0000     -88.966493     -2420.9014
   2   2.0000     -10.327040      -281.0131
   3   2.0000     -10.318602      -280.7834
   4   2.0000     -10.318302      -280.7753
   5   2.0000     -10.310302      -280.5576
   6   2.0000     -10.302550      -280.3466
   7   2.0000     -10.299034      -280.2510
   8   2.0000     -10.298708      -280.2421
   9   2.0000     -10.297628      -280.2127
  10   2.0000     -10.290596      -280.0213
  11   2.0000     -10.288377      -279.9610
  12   2.0000     -10.281919      -279.7852
  13   2.0000     -10.280039      -279.7341
  14   2.0000     -10.276626      -279.6412
  15   2.0000     -10.276442      -279.6362
  16   2.0000      -8.084381      -219.9872
  17   2.0000      -8.080469      -219.8807
  18   2.0000      -6.042559      -164.4264
  19   2.0000      -6.039101      -164.3323
  20   2.0000      -6.038936      -164.3278
  21   2.0000      -6.035268      -164.2280
  22   2.0000      -6.034894      -164.2178
  23   2.0000      -6.031317      -164.1205
  24   2.0000      -1.013122       -27.5685
  25   2.0000      -0.986944       -26.8561
  26   2.0000      -0.913266       -24.8512
  27   2.0000      -0.904052       -24.6005
  28   2.0000      -0.871928       -23.7264
  29   2.0000      -0.855195       -23.2710
  30   2.0000      -0.845642       -23.0111
  31   2.0000      -0.816601       -22.2208
  32   2.0000      -0.779160       -21.2020
  33   2.0000      -0.767533       -20.8856
  34   2.0000      -0.710350       -19.3296
  35   2.0000      -0.695566       -18.9273
  36   2.0000      -0.688560       -18.7367
  37   2.0000      -0.663292       -18.0491
  38   2.0000      -0.636549       -17.3214
  39   2.0000      -0.626424       -17.0459
  40   2.0000      -0.596545       -16.2328
  41   2.0000      -0.570029       -15.5113
  42   2.0000      -0.550766       -14.9871
  43   2.0000      -0.546044       -14.8586
  44   2.0000      -0.543610       -14.7924
  45   2.0000      -0.529588       -14.4108
  46   2.0000      -0.519223       -14.1288
  47   2.0000      -0.511586       -13.9210
  48   2.0000      -0.501100       -13.6356
  49   2.0000      -0.490294       -13.3416
  50   2.0000      -0.487034       -13.2529
  51   2.0000      -0.478821       -13.0294
  52   2.0000      -0.471475       -12.8295
  53   2.0000      -0.467604       -12.7241
  54   2.0000      -0.461015       -12.5449
  55   2.0000      -0.447925       -12.1886
  56   2.0000      -0.437176       -11.8962
  57   2.0000      -0.432288       -11.7631
  58   2.0000      -0.429266       -11.6809
  59   2.0000      -0.424395       -11.5484
  60   2.0000      -0.421894       -11.4803
  61   2.0000      -0.412552       -11.2261
  62   2.0000      -0.405556       -11.0357
  63   2.0000      -0.340407        -9.2629
  64   2.0000      -0.337333        -9.1793
  65   2.0000      -0.324628        -8.8336
  66   2.0000      -0.299003        -8.1363
  67   0.0000       0.040087         1.0908
  68   0.0000       0.060545         1.6475
  69   0.0000       0.112483         3.0608
  70   0.0000       0.117267         3.1910
  71   0.0000       0.131033         3.5656

MULLIKEN ATOMIC CHARGES
-----------------------
   0 S :    0.111458
   1 C :   -0.122344
   2 C :   -0.090775
   3 C :    0.051104
   4 C :   -0.160665
   5 H :    0.004229
   6 C :    0.056372
   7 H :    0.032703
   8 H :    0.019838
   9 C :   -0.096090
  10 H :    0.018997
  11 H :    0.029173
  12 C :   -0.075235
  13 H :    0.041410
  14 H :    0.048195
  15 H :    0.040753
  16 S :    0.134577
  17 C :   -0.095460
  18 C :   -0.064054
  19 C :    0.018805
  20 C :   -0.175746
  21 H :    0.036775
  22 C :    0.062494
  23 H :    0.000753
  24 H :    0.003616
  25 C :   -0.002106
  26 H :    0.021465
  27 H :    0.034414
  28 C :   -0.068978
  29 H :    0.036751
  30 H :    0.014975
  31 H :    0.037131
  32 H :    0.058178
  33 H :    0.037287
Sum of atomic charges:    0.0000000

LOEWDIN ATOMIC CHARGES
----------------------
   0 S :    0.411640
   1 C :   -0.208752
   2 C :   -0.072552
   3 C :   -0.058438
   4 C :   -0.188804
   5 H :    0.028206
   6 C :   -0.034147
   7 H :    0.032867
   8 H :    0.030211
   9 C :   -0.051098
  10 H :    0.019845
  11 H :    0.027456
  12 C :   -0.073428
  13 H :    0.032450
  14 H :    0.028968
  15 H :    0.027554
  16 S :    0.433781
  17 C :   -0.183679
  18 C :   -0.072373
  19 C :   -0.049952
  20 C :   -0.215234
  21 H :    0.046178
  22 C :   -0.035688
  23 H :    0.022445
  24 H :    0.021019
  25 C :   -0.029107
  26 H :    0.021734
  27 H :    0.029706
  28 C :   -0.073810
  29 H :    0.025895
  30 H :    0.024621
  31 H :    0.027107
  32 H :    0.038422
  33 H :    0.016958

  Mayer bond orders larger than 0.100000
B(  0-S ,  1-C ) :   1.1528 B(  0-S ,  4-C ) :   1.1386 B(  1-C ,  2-C ) :   1.5864
B(  1-C ,  4-C ) :   0.1019 B(  1-C , 32-H ) :   0.9633 B(  2-C ,  3-C ) :   1.2611
B(  2-C ,  6-C ) :   1.0354 B(  3-C ,  4-C ) :   1.5812 B(  3-C ,  5-H ) :   0.9953
B(  4-C , 20-C ) :   1.0026 B(  6-C ,  7-H ) :   0.9425 B(  6-C ,  8-H ) :   0.9457
B(  6-C ,  9-C ) :   1.0520 B(  9-C , 10-H ) :   0.9615 B(  9-C , 11-H ) :   0.9556
B(  9-C , 12-C ) :   1.0672 B( 12-C , 13-H ) :   0.9752 B( 12-C , 14-H ) :   0.9787
B( 12-C , 15-H ) :   0.9753 B( 16-S , 17-C ) :   1.1543 B( 16-S , 20-C ) :   1.1624
B( 17-C , 18-C ) :   1.6499 B( 17-C , 33-H ) :   0.9651 B( 18-C , 19-C ) :   1.1826
B( 18-C , 21-H ) :   0.9900 B( 19-C , 20-C ) :   1.6132 B( 19-C , 22-C ) :   1.0530
B( 22-C , 23-H ) :   0.9275 B( 22-C , 24-H ) :   0.9159 B( 22-C , 25-C ) :   1.0704
B( 25-C , 26-H ) :   0.9501 B( 25-C , 27-H ) :   0.9516 B( 25-C , 28-C ) :   1.0867
B( 28-C , 29-H ) :   0.9735 B( 28-C , 30-H ) :   0.9703 B( 28-C , 31-H ) :   0.9718

Dispersion correction           -0.014961873
FINAL SINGLE POINT ENERGY     -1339.875299962719

DIPOLE MOMENT
-------------
                                X             Y             Z
Electronic contribution:      5.22970       4.15741      13.12943
Nuclear contribution   :     -5.20515      -4.27301     -13.37005
                        -----------------------------------------
Total Dipole Moment    :      0.02454      -0.11560      -0.24062
                        -----------------------------------------
Magnitude (a.u.)       :      0.26807
Magnitude (Debye)      :      0.68139

Rotational constants in cm-1:     0.022179     0.008174     0.007109
Rotational constants in MHz :   664.910513   245.040918   213.134096

                             ****ORCA TERMINATED NORMALLY****
TOTAL RUN TIME: 0 days 0 hours 0 minutes 33 seconds 969 msec
