                         Program Version 4.2.1 -  RELEASE  -
|  1> ! wB97X-D3 SP def2-SVP
|  2> %pal
|  3> nprocs 16
|  4> end
|  5>
|  6> * xyz 0 1
|  7> S 	 49.0057 	 12.8221 	 87.1897
|  8> C 	 47.5093 	 12.5887 	 86.3769
|  9> C 	 47.7531 	 12.2056 	 85.049
| 10> C 	 49.1792 	 12.072 	 84.7192
| 11> C 	 50.0278 	 12.4316 	 85.7808
| 12> H 	 49.5905 	 11.8111 	 83.7525
| 13> C 	 46.6749 	 11.9488 	 84.0434
| 14> H 	 45.6727 	 12.1063 	 84.3595
| 15> H 	 46.8011 	 11.0027 	 83.5242
| 16> C 	 46.7999 	 13.0142 	 82.8878
| 17> H 	 47.8122 	 13.2722 	 82.683
| 18> H 	 46.3249 	 12.6625 	 82.0071
| 19> C 	 46.2186 	 14.3374 	 83.3344
| 20> H 	 46.0731 	 14.9613 	 82.3719
| 21> H 	 45.2648 	 14.1463 	 83.7653
| 22> H 	 46.7661 	 14.7951 	 84.0828
| 23> S 	 52.3214 	 13.8028 	 86.429
| 24> C 	 53.7809 	 12.879 	 86.423
| 25> C 	 53.6752 	 11.5882 	 85.9685
| 26> C 	 52.3575 	 11.3145 	 85.5337
| 27> C 	 51.4887 	 12.3796 	 85.8196
| 28> H 	 54.5443 	 11.0353 	 86.0544
| 29> C 	 52.0268 	 9.94384 	 85.0221
| 30> H 	 51.2761 	 10.0975 	 84.284
| 31> H 	 51.6114 	 9.30509 	 85.8649
| 32> C 	 53.1723 	 9.21574 	 84.2828
| 33> H 	 52.9806 	 8.20119 	 84.0101
| 34> H 	 54.0501 	 9.06832 	 84.9283
| 35> C 	 53.5814 	 10.0368 	 83.0071
| 36> H 	 54.1766 	 10.9244 	 83.2268
| 37> H 	 52.6796 	 10.4077 	 82.4417
| 38> H 	 54.0804 	 9.37315 	 82.3655
| 39> H 	 46.4849 	 12.5261 	 86.7715
| 40> H 	 54.6948 	 13.2951 	 86.699
| 41> *
| 42>
| 43>                          ****END OF INPUT****

CARTESIAN COORDINATES (ANGSTROEM)
---------------------------------
  S     49.005700   12.822100   87.189700
  C     47.509300   12.588700   86.376900
  C     47.753100   12.205600   85.049000
  C     49.179200   12.072000   84.719200
  C     50.027800   12.431600   85.780800
  H     49.590500   11.811100   83.752500
  C     46.674900   11.948800   84.043400
  H     45.672700   12.106300   84.359500
  H     46.801100   11.002700   83.524200
  C     46.799900   13.014200   82.887800
  H     47.812200   13.272200   82.683000
  H     46.324900   12.662500   82.007100
  C     46.218600   14.337400   83.334400
  H     46.073100   14.961300   82.371900
  H     45.264800   14.146300   83.765300
  H     46.766100   14.795100   84.082800
  S     52.321400   13.802800   86.429000
  C     53.780900   12.879000   86.423000
  C     53.675200   11.588200   85.968500
  C     52.357500   11.314500   85.533700
  C     51.488700   12.379600   85.819600
  H     54.544300   11.035300   86.054400
  C     52.026800    9.943840   85.022100
  H     51.276100   10.097500   84.284000
  H     51.611400    9.305090   85.864900
  C     53.172300    9.215740   84.282800
  H     52.980600    8.201190   84.010100
  H     54.050100    9.068320   84.928300
  C     53.581400   10.036800   83.007100
  H     54.176600   10.924400   83.226800
  H     52.679600   10.407700   82.441700
  H     54.080400    9.373150   82.365500
  H     46.484900   12.526100   86.771500
  H     54.694800   13.295100   86.699000

 Total Charge           Charge          ....    0
 Multiplicity           Mult            ....    1
 Number of Electrons    NEL             ....  134
 Basis Dimension        Dim             ....  322

ORBITAL ENERGIES
----------------

  NO   OCC          E(Eh)            E(eV)
   0   2.0000     -88.968867     -2420.9659
   1   2.0000     -88.965245     -2420.8674
   2   2.0000     -10.334985      -281.2293
   3   2.0000     -10.329241      -281.0729
   4   2.0000     -10.314852      -280.6814
   5   2.0000     -10.309664      -280.5402
   6   2.0000     -10.307309      -280.4761
   7   2.0000     -10.304971      -280.4125
   8   2.0000     -10.299660      -280.2680
   9   2.0000     -10.293208      -280.0924
  10   2.0000     -10.290404      -280.0161
  11   2.0000     -10.287276      -279.9310
  12   2.0000     -10.286941      -279.9219
  13   2.0000     -10.278517      -279.6927
  14   2.0000     -10.274499      -279.5833
  15   2.0000     -10.267317      -279.3879
  16   2.0000      -8.083990      -219.9765
  17   2.0000      -8.079614      -219.8575
  18   2.0000      -6.042308      -164.4196
  19   2.0000      -6.038561      -164.3176
  20   2.0000      -6.038267      -164.3096
  21   2.0000      -6.034822      -164.2159
  22   2.0000      -6.034035      -164.1944
  23   2.0000      -6.030353      -164.0942
  24   2.0000      -1.005595       -27.3636
  25   2.0000      -0.982265       -26.7288
  26   2.0000      -0.913936       -24.8695
  27   2.0000      -0.910964       -24.7886
  28   2.0000      -0.870422       -23.6854
  29   2.0000      -0.850119       -23.1329
  30   2.0000      -0.841192       -22.8900
  31   2.0000      -0.815683       -22.1959
  32   2.0000      -0.781870       -21.2758
  33   2.0000      -0.768912       -20.9232
  34   2.0000      -0.714157       -19.4332
  35   2.0000      -0.702010       -19.1027
  36   2.0000      -0.690040       -18.7769
  37   2.0000      -0.660976       -17.9861
  38   2.0000      -0.640243       -17.4219
  39   2.0000      -0.622691       -16.9443
  40   2.0000      -0.600146       -16.3308
  41   2.0000      -0.575127       -15.6500
  42   2.0000      -0.557437       -15.1686
  43   2.0000      -0.552452       -15.0330
  44   2.0000      -0.541433       -14.7331
  45   2.0000      -0.537837       -14.6353
  46   2.0000      -0.518631       -14.1127
  47   2.0000      -0.507371       -13.8063
  48   2.0000      -0.500435       -13.6175
  49   2.0000      -0.498670       -13.5695
  50   2.0000      -0.492400       -13.3989
  51   2.0000      -0.481208       -13.0943
  52   2.0000      -0.469196       -12.7675
  53   2.0000      -0.459793       -12.5116
  54   2.0000      -0.458447       -12.4750
  55   2.0000      -0.454887       -12.3781
  56   2.0000      -0.446659       -12.1542
  57   2.0000      -0.437446       -11.9035
  58   2.0000      -0.429759       -11.6943
  59   2.0000      -0.424919       -11.5626
  60   2.0000      -0.422398       -11.4940
  61   2.0000      -0.416258       -11.3270
  62   2.0000      -0.410874       -11.1804
  63   2.0000      -0.348051        -9.4710
  64   2.0000      -0.335924        -9.1410
  65   2.0000      -0.321406        -8.7459
  66   2.0000      -0.288534        -7.8514
  67   0.0000       0.030102         0.8191
  68   0.0000       0.066766         1.8168
  69   0.0000       0.115685         3.1480
  70   0.0000       0.118600         3.2273
  71   0.0000       0.125085         3.4037

MULLIKEN ATOMIC CHARGES
-----------------------
   0 S :    0.111757
   1 C :   -0.110879
   2 C :   -0.125709
   3 C :    0.032492
   4 C :   -0.148017
   5 H :    0.020070
   6 C :    0.091418
   7 H :    0.007901
   8 H :    0.031421
   9 C :   -0.081944
  10 H :    0.024764
  11 H :    0.018706
  12 C :   -0.039949
  13 H :    0.045987
  14 H :    0.002959
  15 H :    0.030873
  16 S :    0.124392
  17 C :   -0.068207
  18 C :   -0.019954
  19 C :   -0.029846
  20 C :   -0.183728
  21 H :   -0.006420
  22 C :    0.104948
  23 H :    0.005259
  24 H :    0.061366
  25 C :   -0.078775
  26 H :    0.022407
  27 H :    0.025295
  28 C :   -0.059144
  29 H :    0.047481
  30 H :    0.030868
  31 H :    0.024671
  32 H :    0.061325
  33 H :    0.026213
Sum of atomic charges:   -0.0000000

LOEWDIN ATOMIC CHARGES
----------------------
   0 S :    0.404933
   1 C :   -0.223134
   2 C :   -0.061289
   3 C :   -0.063378
   4 C :   -0.186740
   5 H :    0.028547
   6 C :   -0.027079
   7 H :    0.021424
   8 H :    0.031673
   9 C :   -0.032728
  10 H :    0.018923
  11 H :    0.015311
  12 C :   -0.058329
  13 H :    0.038416
  14 H :    0.012424
  15 H :    0.016188
  16 S :    0.417767
  17 C :   -0.172106
  18 C :   -0.062263
  19 C :   -0.045205
  20 C :   -0.204152
  21 H :    0.024146
  22 C :   -0.031617
  23 H :    0.022656
  24 H :    0.045931
  25 C :   -0.039109
  26 H :    0.022354
  27 H :    0.021777
  28 C :   -0.062822
  29 H :    0.027395
  30 H :    0.029588
  31 H :    0.017606
  32 H :    0.040770
  33 H :    0.012126

  Mayer bond orders larger than 0.100000
B(  0-S ,  1-C ) :   1.1345 B(  0-S ,  4-C ) :   1.1478 B(  1-C ,  2-C ) :   1.5999
B(  1-C , 32-H ) :   0.9647 B(  2-C ,  3-C ) :   1.2292 B(  2-C ,  6-C ) :   1.0529
B(  3-C ,  4-C ) :   1.5728 B(  3-C ,  5-H ) :   0.9862 B(  4-C , 20-C ) :   1.0544
B(  6-C ,  7-H ) :   0.9509 B(  6-C ,  8-H ) :   0.9367 B(  6-C ,  9-C ) :   1.0573
B(  9-C , 10-H ) :   0.9602 B(  9-C , 11-H ) :   0.9591 B(  9-C , 12-C ) :   1.0701
B( 12-C , 13-H ) :   0.9734 B( 12-C , 14-H ) :   0.9737 B( 12-C , 15-H ) :   0.9779
B( 16-S , 17-C ) :   1.1636 B( 16-S , 20-C ) :   1.1492 B( 17-C , 18-C ) :   1.6204
B( 17-C , 33-H ) :   0.9674 B( 18-C , 19-C ) :   1.2231 B( 18-C , 21-H ) :   1.0053
B( 19-C , 20-C ) :   1.5819 B( 19-C , 22-C ) :   1.0298 B( 22-C , 23-H ) :   0.9325
B( 22-C , 24-H ) :   0.9256 B( 22-C , 25-C ) :   1.0809 B( 25-C , 26-H ) :   0.9586
B( 25-C , 27-H ) :   0.9473 B( 25-C , 28-C ) :   1.0660 B( 28-C , 29-H ) :   0.9745
B( 28-C , 30-H ) :   0.9766 B( 28-C , 31-H ) :   0.9767

Dispersion correction           -0.014539062
FINAL SINGLE POINT ENERGY     -1339.864208460037

DIPOLE MOMENT
-------------
                                X             Y             Z
Electronic contribution:      5.68039       9.66705      20.68936
Nuclear contribution   :     -5.55516     -10.18220     -21.11741
                        -----------------------------------------
Total Dipole Moment    :      0.12522      -0.51514      -0.42804
                        -----------------------------------------
Magnitude (a.u.)       :      0.68138
Magnitude (Debye)      :      1.73192

Rotational constants in cm-1:     0.020408     0.008195     0.006836
Rotational constants in MHz :   611.831391   245.680120   204.948192

                             ****ORCA TERMINATED NORMALLY****
TOTAL RUN TIME: 0 days 0 hours 0 minutes 30 seconds 686 msec
