                         Program Version 4.2.1 -  RELEASE  -
|  1> ! wB97X-D3 SP def2-SVP
|  2> %pal
|  3> nprocs 16
|  4> end
|  5>
|  6> * xyz 0 1
|  7> S 	 38.4351 	 23.5452 	 97.5142
|  8> C 	 39.5998 	 24.6877 	 96.9548
|  9> C 	 40.6946 	 24.1033 	 96.2815
| 10> C 	 40.5918 	 22.6782 	 96.3027
| 11> C 	 39.4492 	 22.2329 	 96.9194
| 12> H 	 41.1495 	 21.8923 	 95.7723
| 13> C 	 41.9863 	 24.7303 	 95.9759
| 14> H 	 42.794 	 24.1146 	 96.2652
| 15> H 	 41.939 	 25.7007 	 96.4568
| 16> C 	 42.1229 	 25.1922 	 94.5371
| 17> H 	 41.2395 	 25.7617 	 94.1464
| 18> H 	 42.9598 	 25.9357 	 94.3473
| 19> C 	 42.2208 	 23.9758 	 93.473
| 20> H 	 43.0792 	 23.3716 	 93.7172
| 21> H 	 41.3488 	 23.2999 	 93.4239
| 22> H 	 42.3527 	 24.3198 	 92.4692
| 23> S 	 38.7925 	 20.3184 	 98.7729
| 24> C 	 38.2962 	 18.8022 	 98.1957
| 25> C 	 38.3177 	 18.7456 	 96.8452
| 26> C 	 38.824 	 19.8667 	 96.1503
| 27> C 	 39.0361 	 20.8479 	 97.0835
| 28> H 	 38.0422 	 17.8393 	 96.3623
| 29> C 	 38.9932 	 19.9926 	 94.6601
| 30> H 	 39.3498 	 20.9825 	 94.4948
| 31> H 	 38.0439 	 19.8583 	 94.1025
| 32> C 	 39.9984 	 19.0097 	 93.9787
| 33> H 	 40.1033 	 19.3769 	 92.9998
| 34> H 	 39.4678 	 18.0354 	 93.9758
| 35> C 	 41.3623 	 18.7125 	 94.7075
| 36> H 	 42.0316 	 19.5955 	 94.667
| 37> H 	 41.9728 	 17.9276 	 94.1665
| 38> H 	 41.2056 	 18.3937 	 95.7403
| 39> H 	 39.4948 	 25.7617 	 97.1272
| 40> H 	 37.9506 	 17.932 	 98.7912
| 41> *
| 42>
| 43>                          ****END OF INPUT****

CARTESIAN COORDINATES (ANGSTROEM)
---------------------------------
  S     38.435100   23.545200   97.514200
  C     39.599800   24.687700   96.954800
  C     40.694600   24.103300   96.281500
  C     40.591800   22.678200   96.302700
  C     39.449200   22.232900   96.919400
  H     41.149500   21.892300   95.772300
  C     41.986300   24.730300   95.975900
  H     42.794000   24.114600   96.265200
  H     41.939000   25.700700   96.456800
  C     42.122900   25.192200   94.537100
  H     41.239500   25.761700   94.146400
  H     42.959800   25.935700   94.347300
  C     42.220800   23.975800   93.473000
  H     43.079200   23.371600   93.717200
  H     41.348800   23.299900   93.423900
  H     42.352700   24.319800   92.469200
  S     38.792500   20.318400   98.772900
  C     38.296200   18.802200   98.195700
  C     38.317700   18.745600   96.845200
  C     38.824000   19.866700   96.150300
  C     39.036100   20.847900   97.083500
  H     38.042200   17.839300   96.362300
  C     38.993200   19.992600   94.660100
  H     39.349800   20.982500   94.494800
  H     38.043900   19.858300   94.102500
  C     39.998400   19.009700   93.978700
  H     40.103300   19.376900   92.999800
  H     39.467800   18.035400   93.975800
  C     41.362300   18.712500   94.707500
  H     42.031600   19.595500   94.667000
  H     41.972800   17.927600   94.166500
  H     41.205600   18.393700   95.740300
  H     39.494800   25.761700   97.127200
  H     37.950600   17.932000   98.791200

 Total Charge           Charge          ....    0
 Multiplicity           Mult            ....    1
 Number of Electrons    NEL             ....  134
 Basis Dimension        Dim             ....  322

ORBITAL ENERGIES
----------------

  NO   OCC          E(Eh)            E(eV)
   0   2.0000     -88.967485     -2420.9284
   1   2.0000     -88.964353     -2420.8431
   2   2.0000     -10.322992      -280.9029
   3   2.0000     -10.322363      -280.8858
   4   2.0000     -10.315418      -280.6968
   5   2.0000     -10.311040      -280.5777
   6   2.0000     -10.300313      -280.2858
   7   2.0000     -10.299788      -280.2715
   8   2.0000     -10.296822      -280.1908
   9   2.0000     -10.293413      -280.0980
  10   2.0000     -10.291271      -280.0397
  11   2.0000     -10.291041      -280.0335
  12   2.0000     -10.287110      -279.9265
  13   2.0000     -10.285680      -279.8876
  14   2.0000     -10.282742      -279.8076
  15   2.0000     -10.276620      -279.6411
  16   2.0000      -8.082385      -219.9329
  17   2.0000      -8.079724      -219.8605
  18   2.0000      -6.040792      -164.3783
  19   2.0000      -6.038106      -164.3052
  20   2.0000      -6.036896      -164.2723
  21   2.0000      -6.034260      -164.2006
  22   2.0000      -6.033227      -164.1724
  23   2.0000      -6.030461      -164.0972
  24   2.0000      -1.010293       -27.4915
  25   2.0000      -0.987548       -26.8725
  26   2.0000      -0.913812       -24.8661
  27   2.0000      -0.908015       -24.7084
  28   2.0000      -0.866352       -23.5746
  29   2.0000      -0.849021       -23.1030
  30   2.0000      -0.843105       -22.9420
  31   2.0000      -0.812092       -22.0982
  32   2.0000      -0.788342       -21.4519
  33   2.0000      -0.773368       -21.0444
  34   2.0000      -0.705648       -19.2017
  35   2.0000      -0.701359       -19.0850
  36   2.0000      -0.692422       -18.8417
  37   2.0000      -0.657596       -17.8941
  38   2.0000      -0.642874       -17.4935
  39   2.0000      -0.613468       -16.6933
  40   2.0000      -0.595989       -16.2177
  41   2.0000      -0.574015       -15.6197
  42   2.0000      -0.555970       -15.1287
  43   2.0000      -0.546349       -14.8669
  44   2.0000      -0.538898       -14.6641
  45   2.0000      -0.533335       -14.5128
  46   2.0000      -0.517289       -14.0762
  47   2.0000      -0.512374       -13.9424
  48   2.0000      -0.496277       -13.5044
  49   2.0000      -0.493769       -13.4361
  50   2.0000      -0.491780       -13.3820
  51   2.0000      -0.478397       -13.0179
  52   2.0000      -0.472563       -12.8591
  53   2.0000      -0.466071       -12.6824
  54   2.0000      -0.462650       -12.5894
  55   2.0000      -0.448732       -12.2106
  56   2.0000      -0.441529       -12.0146
  57   2.0000      -0.439450       -11.9580
  58   2.0000      -0.438419       -11.9300
  59   2.0000      -0.429750       -11.6941
  60   2.0000      -0.418529       -11.3887
  61   2.0000      -0.411184       -11.1889
  62   2.0000      -0.410351       -11.1662
  63   2.0000      -0.342414        -9.3176
  64   2.0000      -0.335564        -9.1312
  65   2.0000      -0.327180        -8.9030
  66   2.0000      -0.292738        -7.9658
  67   0.0000       0.037245         1.0135
  68   0.0000       0.068092         1.8529
  69   0.0000       0.112377         3.0579
  70   0.0000       0.120428         3.2770
  71   0.0000       0.122598         3.3361

MULLIKEN ATOMIC CHARGES
-----------------------
   0 S :    0.128635
   1 C :   -0.123956
   2 C :   -0.083478
   3 C :    0.031570
   4 C :   -0.185649
   5 H :    0.015253
   6 C :    0.128295
   7 H :    0.033609
   8 H :    0.018465
   9 C :   -0.126706
  10 H :    0.034966
  11 H :    0.041747
  12 C :   -0.073622
  13 H :    0.021707
  14 H :    0.039670
  15 H :    0.027635
  16 S :    0.117193
  17 C :   -0.085696
  18 C :   -0.039185
  19 C :   -0.012772
  20 C :   -0.199315
  21 H :   -0.006626
  22 C :    0.097580
  23 H :    0.008765
  24 H :    0.045755
  25 C :   -0.082441
  26 H :    0.029681
  27 H :    0.033050
  28 C :   -0.085873
  29 H :    0.036329
  30 H :    0.043205
  31 H :    0.055911
  32 H :    0.052147
  33 H :    0.064152
Sum of atomic charges:    0.0000000

LOEWDIN ATOMIC CHARGES
----------------------
   0 S :    0.415289
   1 C :   -0.205293
   2 C :   -0.062049
   3 C :   -0.064920
   4 C :   -0.195243
   5 H :    0.035851
   6 C :   -0.029436
   7 H :    0.030524
   8 H :    0.038435
   9 C :   -0.043344
  10 H :    0.027765
  11 H :    0.027874
  12 C :   -0.074900
  13 H :    0.017181
  14 H :    0.025374
  15 H :    0.021032
  16 S :    0.408738
  17 C :   -0.206295
  18 C :   -0.074837
  19 C :   -0.054796
  20 C :   -0.185033
  21 H :    0.021861
  22 C :   -0.027155
  23 H :    0.022695
  24 H :    0.041655
  25 C :   -0.034639
  26 H :    0.019556
  27 H :    0.024861
  28 C :   -0.075134
  29 H :    0.022430
  30 H :    0.034314
  31 H :    0.029667
  32 H :    0.027873
  33 H :    0.040098

  Mayer bond orders larger than 0.100000
B(  0-S ,  1-C ) :   1.1513 B(  0-S ,  4-C ) :   1.1526 B(  1-C ,  2-C ) :   1.6042
B(  1-C , 32-H ) :   0.9619 B(  2-C ,  3-C ) :   1.2186 B(  2-C ,  6-C ) :   1.0313
B(  3-C ,  4-C ) :   1.5990 B(  3-C ,  5-H ) :   0.9855 B(  4-C , 20-C ) :   1.0174
B(  6-C ,  7-H ) :   0.9527 B(  6-C ,  8-H ) :   0.9268 B(  6-C ,  9-C ) :   1.0568
B(  9-C , 10-H ) :   0.9585 B(  9-C , 11-H ) :   0.9604 B(  9-C , 12-C ) :   1.0604
B( 12-C , 13-H ) :   0.9784 B( 12-C , 14-H ) :   0.9771 B( 12-C , 15-H ) :   0.9772
B( 16-S , 17-C ) :   1.1402 B( 16-S , 20-C ) :   1.1511 B( 17-C , 18-C ) :   1.6371
B( 17-C , 33-H ) :   0.9596 B( 18-C , 19-C ) :   1.2143 B( 18-C , 21-H ) :   0.9916
B( 19-C , 20-C ) :   1.6040 B( 19-C , 22-C ) :   1.0525 B( 22-C , 23-H ) :   0.9219
B( 22-C , 24-H ) :   0.9348 B( 22-C , 25-C ) :   1.0624 B( 25-C , 26-H ) :   0.9593
B( 25-C , 27-H ) :   0.9584 B( 25-C , 28-C ) :   1.0758 B( 28-C , 29-H ) :   0.9737
B( 28-C , 30-H ) :   0.9737 B( 28-C , 31-H ) :   0.9698

Dispersion correction           -0.015456012
FINAL SINGLE POINT ENERGY     -1339.876706547155

DIPOLE MOMENT
-------------
                                X             Y             Z
Electronic contribution:    -17.23089       1.14813      23.83244
Nuclear contribution   :     17.49121      -1.26868     -24.31530
                        -----------------------------------------
Total Dipole Moment    :      0.26032      -0.12055      -0.48286
                        -----------------------------------------
Magnitude (a.u.)       :      0.56165
Magnitude (Debye)      :      1.42760

Rotational constants in cm-1:     0.018311     0.010137     0.007211
Rotational constants in MHz :   548.956175   303.913900   216.194456

                             ****ORCA TERMINATED NORMALLY****
TOTAL RUN TIME: 0 days 0 hours 0 minutes 30 seconds 16 msec
