                         Program Version 4.2.1 -  RELEASE  -
|  1> ! wB97X-D3 SP def2-SVP
|  2> %pal
|  3> nprocs 16
|  4> end
|  5>
|  6> * xyz 0 1
|  7> S 	 22.6845 	 -10.5385 	 79.6684
|  8> C 	 23.5111 	 -11.4985 	 80.9255
|  9> C 	 22.91 	 -11.3598 	 82.1646
| 10> C 	 21.8297 	 -10.4118 	 82.1372
| 11> C 	 21.6396 	 -9.86719 	 80.9025
| 12> H 	 21.2238 	 -10.0248 	 82.9413
| 13> C 	 23.3048 	 -12.112 	 83.3677
| 14> H 	 23.8883 	 -11.5116 	 84.0109
| 15> H 	 24.0509 	 -12.8446 	 82.9534
| 16> C 	 22.227 	 -12.8319 	 84.0976
| 17> H 	 21.4985 	 -12.0254 	 84.4641
| 18> H 	 21.5091 	 -13.4907 	 83.4447
| 19> C 	 22.7853 	 -13.576 	 85.3485
| 20> H 	 23.5012 	 -14.4116 	 85.2255
| 21> H 	 23.2763 	 -12.8964 	 86.0101
| 22> H 	 21.8869 	 -13.7251 	 85.9913
| 23> S 	 18.9168 	 -9.62918 	 80.9146
| 24> C 	 18.1688 	 -8.17034 	 80.2901
| 25> C 	 19.0891 	 -7.34977 	 79.7005
| 26> C 	 20.4038 	 -7.77216 	 79.8299
| 27> C 	 20.5045 	 -8.95805 	 80.5501
| 28> H 	 18.8025 	 -6.3615 	 79.2267
| 29> C 	 21.6059 	 -6.95997 	 79.3502
| 30> H 	 21.4352 	 -6.43904 	 78.4552
| 31> H 	 22.4305 	 -7.64549 	 79.1628
| 32> C 	 22.1495 	 -5.8979 	 80.4112
| 33> H 	 22.0157 	 -6.42629 	 81.3573
| 34> H 	 21.5136 	 -4.99033 	 80.5156
| 35> C 	 23.5983 	 -5.48089 	 80.364
| 36> H 	 24.0917 	 -5.68041 	 79.4034
| 37> H 	 24.1163 	 -6.0429 	 81.1037
| 38> H 	 23.722 	 -4.43735 	 80.6923
| 39> H 	 24.2011 	 -12.2512 	 80.5113
| 40> H 	 17.1453 	 -8.04782 	 80.1464
| 41> *
| 42>
| 43>                          ****END OF INPUT****

CARTESIAN COORDINATES (ANGSTROEM)
---------------------------------
  S     22.684500  -10.538500   79.668400
  C     23.511100  -11.498500   80.925500
  C     22.910000  -11.359800   82.164600
  C     21.829700  -10.411800   82.137200
  C     21.639600   -9.867190   80.902500
  H     21.223800  -10.024800   82.941300
  C     23.304800  -12.112000   83.367700
  H     23.888300  -11.511600   84.010900
  H     24.050900  -12.844600   82.953400
  C     22.227000  -12.831900   84.097600
  H     21.498500  -12.025400   84.464100
  H     21.509100  -13.490700   83.444700
  C     22.785300  -13.576000   85.348500
  H     23.501200  -14.411600   85.225500
  H     23.276300  -12.896400   86.010100
  H     21.886900  -13.725100   85.991300
  S     18.916800   -9.629180   80.914600
  C     18.168800   -8.170340   80.290100
  C     19.089100   -7.349770   79.700500
  C     20.403800   -7.772160   79.829900
  C     20.504500   -8.958050   80.550100
  H     18.802500   -6.361500   79.226700
  C     21.605900   -6.959970   79.350200
  H     21.435200   -6.439040   78.455200
  H     22.430500   -7.645490   79.162800
  C     22.149500   -5.897900   80.411200
  H     22.015700   -6.426290   81.357300
  H     21.513600   -4.990330   80.515600
  C     23.598300   -5.480890   80.364000
  H     24.091700   -5.680410   79.403400
  H     24.116300   -6.042900   81.103700
  H     23.722000   -4.437350   80.692300
  H     24.201100  -12.251200   80.511300
  H     17.145300   -8.047820   80.146400

 Total Charge           Charge          ....    0
 Multiplicity           Mult            ....    1
 Number of Electrons    NEL             ....  134
 Basis Dimension        Dim             ....  322

ORBITAL ENERGIES
----------------

  NO   OCC          E(Eh)            E(eV)
   0   2.0000     -88.967138     -2420.9189
   1   2.0000     -88.964582     -2420.8494
   2   2.0000     -10.329640      -281.0838
   3   2.0000     -10.327643      -281.0295
   4   2.0000     -10.318631      -280.7842
   5   2.0000     -10.310537      -280.5640
   6   2.0000     -10.303930      -280.3842
   7   2.0000     -10.302178      -280.3365
   8   2.0000     -10.300006      -280.2774
   9   2.0000     -10.292754      -280.0801
  10   2.0000     -10.292150      -280.0636
  11   2.0000     -10.288911      -279.9755
  12   2.0000     -10.286337      -279.9055
  13   2.0000     -10.283986      -279.8415
  14   2.0000     -10.282367      -279.7974
  15   2.0000     -10.270995      -279.4880
  16   2.0000      -8.081473      -219.9081
  17   2.0000      -8.078928      -219.8388
  18   2.0000      -6.039907      -164.3542
  19   2.0000      -6.037318      -164.2838
  20   2.0000      -6.036043      -164.2491
  21   2.0000      -6.033624      -164.1833
  22   2.0000      -6.032332      -164.1481
  23   2.0000      -6.029707      -164.0767
  24   2.0000      -1.006149       -27.3787
  25   2.0000      -0.985098       -26.8059
  26   2.0000      -0.917459       -24.9653
  27   2.0000      -0.899971       -24.4895
  28   2.0000      -0.866950       -23.5909
  29   2.0000      -0.853341       -23.2206
  30   2.0000      -0.846333       -23.0299
  31   2.0000      -0.815983       -22.2040
  32   2.0000      -0.783507       -21.3203
  33   2.0000      -0.771204       -20.9855
  34   2.0000      -0.706529       -19.2256
  35   2.0000      -0.692253       -18.8372
  36   2.0000      -0.685951       -18.6657
  37   2.0000      -0.666808       -18.1448
  38   2.0000      -0.642488       -17.4830
  39   2.0000      -0.617554       -16.8045
  40   2.0000      -0.598073       -16.2744
  41   2.0000      -0.569499       -15.4968
  42   2.0000      -0.558974       -15.2105
  43   2.0000      -0.555354       -15.1119
  44   2.0000      -0.529318       -14.4035
  45   2.0000      -0.520353       -14.1595
  46   2.0000      -0.515309       -14.0223
  47   2.0000      -0.509157       -13.8549
  48   2.0000      -0.507590       -13.8122
  49   2.0000      -0.503840       -13.7102
  50   2.0000      -0.488339       -13.2884
  51   2.0000      -0.479013       -13.0346
  52   2.0000      -0.470442       -12.8014
  53   2.0000      -0.466240       -12.6870
  54   2.0000      -0.457368       -12.4456
  55   2.0000      -0.447482       -12.1766
  56   2.0000      -0.444106       -12.0847
  57   2.0000      -0.438176       -11.9234
  58   2.0000      -0.429578       -11.6894
  59   2.0000      -0.425302       -11.5731
  60   2.0000      -0.417352       -11.3567
  61   2.0000      -0.407878       -11.0989
  62   2.0000      -0.404696       -11.0123
  63   2.0000      -0.342902        -9.3308
  64   2.0000      -0.336519        -9.1571
  65   2.0000      -0.330639        -8.9971
  66   2.0000      -0.295732        -8.0473
  67   0.0000       0.032326         0.8796
  68   0.0000       0.066570         1.8115
  69   0.0000       0.106263         2.8916
  70   0.0000       0.115664         3.1474
  71   0.0000       0.130590         3.5535

MULLIKEN ATOMIC CHARGES
-----------------------
   0 S :    0.096776
   1 C :   -0.153005
   2 C :   -0.054830
   3 C :    0.000717
   4 C :   -0.122201
   5 H :    0.017190
   6 C :    0.107279
   7 H :    0.025225
   8 H :    0.014158
   9 C :   -0.150874
  10 H :    0.036479
  11 H :    0.055313
  12 C :   -0.026670
  13 H :    0.052855
  14 H :    0.009486
  15 H :    0.032990
  16 S :    0.112126
  17 C :   -0.065156
  18 C :   -0.057802
  19 C :   -0.034971
  20 C :   -0.185364
  21 H :    0.037517
  22 C :    0.115192
  23 H :    0.013162
  24 H :    0.009959
  25 C :   -0.106562
  26 H :    0.026416
  27 H :    0.030445
  28 C :   -0.030861
  29 H :    0.036344
  30 H :    0.024314
  31 H :    0.032412
  32 H :    0.067052
  33 H :    0.034892
Sum of atomic charges:   -0.0000000

LOEWDIN ATOMIC CHARGES
----------------------
   0 S :    0.387564
   1 C :   -0.189121
   2 C :   -0.056653
   3 C :   -0.070681
   4 C :   -0.187860
   5 H :    0.032204
   6 C :   -0.041629
   7 H :    0.028859
   8 H :    0.035524
   9 C :   -0.050740
  10 H :    0.029676
  11 H :    0.037445
  12 C :   -0.074575
  13 H :    0.031281
  14 H :    0.021134
  15 H :    0.036531
  16 S :    0.410715
  17 C :   -0.178390
  18 C :   -0.073334
  19 C :   -0.063223
  20 C :   -0.190566
  21 H :    0.043235
  22 C :   -0.022071
  23 H :    0.020841
  24 H :    0.022776
  25 C :   -0.047126
  26 H :    0.024785
  27 H :    0.023309
  28 C :   -0.069690
  29 H :    0.026695
  30 H :    0.024402
  31 H :    0.031267
  32 H :    0.030650
  33 H :    0.016764

  Mayer bond orders larger than 0.100000
B(  0-S ,  1-C ) :   1.1224 B(  0-S ,  4-C ) :   1.1520 B(  1-C ,  2-C ) :   1.6259
B(  1-C , 32-H ) :   0.9650 B(  2-C ,  3-C ) :   1.1884 B(  2-C ,  6-C ) :   1.0321
B(  3-C ,  4-C ) :   1.6036 B(  3-C ,  5-H ) :   0.9996 B(  4-C , 20-C ) :   1.0077
B(  6-C ,  7-H ) :   0.9260 B(  6-C ,  8-H ) :   0.9348 B(  6-C ,  9-C ) :   1.0615
B(  9-C , 10-H ) :   0.9475 B(  9-C , 11-H ) :   0.9566 B(  9-C , 12-C ) :   1.0764
B( 12-C , 13-H ) :   0.9768 B( 12-C , 14-H ) :   0.9667 B( 12-C , 15-H ) :   0.9704
B( 16-S , 17-C ) :   1.1527 B( 16-S , 20-C ) :   1.1588 B( 17-C , 18-C ) :   1.5996
B( 17-C , 20-C ) :   0.1048 B( 17-C , 33-H ) :   0.9723 B( 18-C , 19-C ) :   1.2736
B( 18-C , 21-H ) :   0.9786 B( 19-C , 20-C ) :   1.5718 B( 19-C , 22-C ) :   1.0599
B( 22-C , 23-H ) :   0.9307 B( 22-C , 24-H ) :   0.9276 B( 22-C , 25-C ) :   1.0486
B( 25-C , 26-H ) :   0.9662 B( 25-C , 27-H ) :   0.9627 B( 25-C , 28-C ) :   1.0751
B( 28-C , 29-H ) :   0.9768 B( 28-C , 30-H ) :   0.9786 B( 28-C , 31-H ) :   0.9737

Dispersion correction           -0.013913862
FINAL SINGLE POINT ENERGY     -1339.869143409698

DIPOLE MOMENT
-------------
                                X             Y             Z
Electronic contribution:    -12.30611      -3.39111     -13.73493
Nuclear contribution   :     12.43708       3.46232      14.03681
                        -----------------------------------------
Total Dipole Moment    :      0.13097       0.07121       0.30188
                        -----------------------------------------
Magnitude (a.u.)       :      0.33668
Magnitude (Debye)      :      0.85578

Rotational constants in cm-1:     0.019096     0.007958     0.006700
Rotational constants in MHz :   572.483494   238.582259   200.858123

                             ****ORCA TERMINATED NORMALLY****
TOTAL RUN TIME: 0 days 0 hours 0 minutes 29 seconds 287 msec
