                         Program Version 4.2.1 -  RELEASE  -
|  1> ! wB97X-D3 SP def2-SVP
|  2> %pal
|  3> nprocs 16
|  4> end
|  5>
|  6> * xyz 0 1
|  7> S 	 -87.9778 	 56.7928 	 129.791
|  8> C 	 -87.3322 	 55.2639 	 130.413
|  9> C 	 -88.0134 	 54.1954 	 129.883
| 10> C 	 -88.9682 	 54.6117 	 128.893
| 11> C 	 -89.0139 	 55.9543 	 128.642
| 12> H 	 -89.6377 	 53.9472 	 128.457
| 13> C 	 -87.7788 	 52.6648 	 130.117
| 14> H 	 -86.7096 	 52.6413 	 130.301
| 15> H 	 -87.9545 	 52.0561 	 129.167
| 16> C 	 -88.607 	 52.0623 	 131.222
| 17> H 	 -88.4334 	 52.5504 	 132.185
| 18> H 	 -89.6685 	 52.174 	 130.951
| 19> C 	 -88.2482 	 50.5785 	 131.563
| 20> H 	 -88.5714 	 49.9472 	 130.766
| 21> H 	 -87.1976 	 50.5782 	 131.566
| 22> H 	 -88.6469 	 50.1533 	 132.49
| 23> S 	 -89.0388 	 58.099 	 126.889
| 24> C 	 -90.5608 	 58.5266 	 126.1
| 25> C 	 -91.5523 	 57.5944 	 126.396
| 26> C 	 -91.1819 	 56.6042 	 127.324
| 27> C 	 -89.8226 	 56.6743 	 127.685
| 28> H 	 -92.5365 	 57.7492 	 125.913
| 29> C 	 -92.1669 	 55.4972 	 127.654
| 30> H 	 -93.1633 	 55.8581 	 127.809
| 31> H 	 -91.7939 	 55.1128 	 128.638
| 32> C 	 -92.2782 	 54.3062 	 126.74
| 33> H 	 -91.309 	 53.9233 	 126.627
| 34> H 	 -92.637 	 54.4787 	 125.682
| 35> C 	 -93.1511 	 53.1554 	 127.42
| 36> H 	 -93.161 	 52.3083 	 126.772
| 37> H 	 -94.0922 	 53.6732 	 127.451
| 38> H 	 -92.7599 	 52.8463 	 128.397
| 39> H 	 -86.5888 	 55.1081 	 131.233
| 40> H 	 -90.6349 	 59.3623 	 125.456
| 41> *
| 42>
| 43>                          ****END OF INPUT****

CARTESIAN COORDINATES (ANGSTROEM)
---------------------------------
  S    -87.977800   56.792800  129.791000
  C    -87.332200   55.263900  130.413000
  C    -88.013400   54.195400  129.883000
  C    -88.968200   54.611700  128.893000
  C    -89.013900   55.954300  128.642000
  H    -89.637700   53.947200  128.457000
  C    -87.778800   52.664800  130.117000
  H    -86.709600   52.641300  130.301000
  H    -87.954500   52.056100  129.167000
  C    -88.607000   52.062300  131.222000
  H    -88.433400   52.550400  132.185000
  H    -89.668500   52.174000  130.951000
  C    -88.248200   50.578500  131.563000
  H    -88.571400   49.947200  130.766000
  H    -87.197600   50.578200  131.566000
  H    -88.646900   50.153300  132.490000
  S    -89.038800   58.099000  126.889000
  C    -90.560800   58.526600  126.100000
  C    -91.552300   57.594400  126.396000
  C    -91.181900   56.604200  127.324000
  C    -89.822600   56.674300  127.685000
  H    -92.536500   57.749200  125.913000
  C    -92.166900   55.497200  127.654000
  H    -93.163300   55.858100  127.809000
  H    -91.793900   55.112800  128.638000
  C    -92.278200   54.306200  126.740000
  H    -91.309000   53.923300  126.627000
  H    -92.637000   54.478700  125.682000
  C    -93.151100   53.155400  127.420000
  H    -93.161000   52.308300  126.772000
  H    -94.092200   53.673200  127.451000
  H    -92.759900   52.846300  128.397000
  H    -86.588800   55.108100  131.233000
  H    -90.634900   59.362300  125.456000

 Total Charge           Charge          ....    0
 Multiplicity           Mult            ....    1
 Number of Electrons    NEL             ....  134
 Basis Dimension        Dim             ....  322

ORBITAL ENERGIES
----------------

  NO   OCC          E(Eh)            E(eV)
   0   2.0000     -88.967539     -2420.9298
   1   2.0000     -88.967459     -2420.9276
   2   2.0000     -10.335254      -281.2366
   3   2.0000     -10.330171      -281.0983
   4   2.0000     -10.319838      -280.8171
   5   2.0000     -10.319255      -280.8012
   6   2.0000     -10.308294      -280.5029
   7   2.0000     -10.303481      -280.3720
   8   2.0000     -10.301921      -280.3295
   9   2.0000     -10.296727      -280.1882
  10   2.0000     -10.292926      -280.0847
  11   2.0000     -10.289115      -279.9811
  12   2.0000     -10.287801      -279.9453
  13   2.0000     -10.287764      -279.9443
  14   2.0000     -10.281328      -279.7692
  15   2.0000     -10.275180      -279.6019
  16   2.0000      -8.081579      -219.9109
  17   2.0000      -8.081069      -219.8971
  18   2.0000      -6.040328      -164.3657
  19   2.0000      -6.039553      -164.3446
  20   2.0000      -6.036192      -164.2531
  21   2.0000      -6.035716      -164.2402
  22   2.0000      -6.032072      -164.1410
  23   2.0000      -6.031955      -164.1379
  24   2.0000      -1.003741       -27.3132
  25   2.0000      -0.979819       -26.6622
  26   2.0000      -0.912077       -24.8189
  27   2.0000      -0.910113       -24.7654
  28   2.0000      -0.870261       -23.6810
  29   2.0000      -0.851998       -23.1841
  30   2.0000      -0.844020       -22.9669
  31   2.0000      -0.812906       -22.1203
  32   2.0000      -0.783709       -21.3258
  33   2.0000      -0.773972       -21.0608
  34   2.0000      -0.709282       -19.3005
  35   2.0000      -0.698874       -19.0173
  36   2.0000      -0.696633       -18.9564
  37   2.0000      -0.664228       -18.0746
  38   2.0000      -0.638114       -17.3640
  39   2.0000      -0.623839       -16.9755
  40   2.0000      -0.599180       -16.3045
  41   2.0000      -0.574409       -15.6305
  42   2.0000      -0.572535       -15.5795
  43   2.0000      -0.558798       -15.2057
  44   2.0000      -0.529854       -14.4181
  45   2.0000      -0.524805       -14.2807
  46   2.0000      -0.521036       -14.1781
  47   2.0000      -0.507652       -13.8139
  48   2.0000      -0.502659       -13.6780
  49   2.0000      -0.500171       -13.6103
  50   2.0000      -0.497622       -13.5410
  51   2.0000      -0.479720       -13.0538
  52   2.0000      -0.476107       -12.9555
  53   2.0000      -0.466996       -12.7076
  54   2.0000      -0.461835       -12.5672
  55   2.0000      -0.448122       -12.1940
  56   2.0000      -0.444970       -12.1083
  57   2.0000      -0.439850       -11.9689
  58   2.0000      -0.431213       -11.7339
  59   2.0000      -0.422352       -11.4928
  60   2.0000      -0.422141       -11.4870
  61   2.0000      -0.413759       -11.2589
  62   2.0000      -0.411737       -11.2039
  63   2.0000      -0.351453        -9.5635
  64   2.0000      -0.335671        -9.1341
  65   2.0000      -0.330571        -8.9953
  66   2.0000      -0.289759        -7.8847
  67   0.0000       0.021358         0.5812
  68   0.0000       0.070221         1.9108
  69   0.0000       0.105545         2.8720
  70   0.0000       0.120779         3.2866
  71   0.0000       0.122835         3.3425

MULLIKEN ATOMIC CHARGES
-----------------------
   0 S :    0.111272
   1 C :   -0.135923
   2 C :   -0.079262
   3 C :    0.035420
   4 C :   -0.109629
   5 H :   -0.028283
   6 C :    0.027588
   7 H :    0.023373
   8 H :    0.042527
   9 C :   -0.078762
  10 H :    0.030262
  11 H :    0.030659
  12 C :   -0.020180
  13 H :    0.020197
  14 H :    0.015301
  15 H :    0.043276
  16 S :    0.091497
  17 C :   -0.085737
  18 C :   -0.041382
  19 C :    0.006284
  20 C :   -0.165096
  21 H :    0.032284
  22 C :    0.049692
  23 H :    0.013451
  24 H :    0.024709
  25 C :   -0.073363
  26 H :    0.009096
  27 H :    0.037405
  28 C :   -0.041976
  29 H :    0.034330
  30 H :    0.033790
  31 H :    0.038027
  32 H :    0.060060
  33 H :    0.049093
Sum of atomic charges:    0.0000000

LOEWDIN ATOMIC CHARGES
----------------------
   0 S :    0.394158
   1 C :   -0.198893
   2 C :   -0.060211
   3 C :   -0.060221
   4 C :   -0.187837
   5 H :    0.016057
   6 C :   -0.033217
   7 H :    0.027697
   8 H :    0.038612
   9 C :   -0.043555
  10 H :    0.025268
  11 H :    0.023331
  12 C :   -0.059680
  13 H :    0.018980
  14 H :    0.018257
  15 H :    0.029708
  16 S :    0.379219
  17 C :   -0.169130
  18 C :   -0.073597
  19 C :   -0.051283
  20 C :   -0.178187
  21 H :    0.038752
  22 C :   -0.033848
  23 H :    0.024573
  24 H :    0.035848
  25 C :   -0.038814
  26 H :    0.009027
  27 H :    0.029513
  28 C :   -0.054214
  29 H :    0.022467
  30 H :    0.024388
  31 H :    0.025472
  32 H :    0.040233
  33 H :    0.021126

  Mayer bond orders larger than 0.100000
B(  0-S ,  1-C ) :   1.1213 B(  0-S ,  4-C ) :   1.1330 B(  1-C ,  2-C ) :   1.6440
B(  1-C , 32-H ) :   0.9581 B(  2-C ,  3-C ) :   1.2353 B(  2-C ,  6-C ) :   1.0023
B(  3-C ,  4-C ) :   1.5737 B(  3-C ,  5-H ) :   1.0090 B(  4-C , 20-C ) :   1.0727
B(  6-C ,  7-H ) :   0.9396 B(  6-C ,  8-H ) :   0.9500 B(  6-C ,  9-C ) :   1.0659
B(  9-C , 10-H ) :   0.9582 B(  9-C , 11-H ) :   0.9569 B(  9-C , 12-C ) :   1.0692
B( 12-C , 13-H ) :   0.9757 B( 12-C , 14-H ) :   0.9748 B( 12-C , 15-H ) :   0.9779
B( 16-S , 17-C ) :   1.1549 B( 16-S , 20-C ) :   1.1318 B( 17-C , 18-C ) :   1.5937
B( 17-C , 20-C ) :   0.1094 B( 17-C , 33-H ) :   0.9738 B( 18-C , 19-C ) :   1.2452
B( 18-C , 21-H ) :   0.9870 B( 19-C , 20-C ) :   1.5602 B( 19-C , 22-C ) :   1.0528
B( 22-C , 23-H ) :   0.9323 B( 22-C , 24-H ) :   0.9269 B( 22-C , 25-C ) :   1.0687
B( 25-C , 26-H ) :   0.9503 B( 25-C , 27-H ) :   0.9525 B( 25-C , 28-C ) :   1.0683
B( 28-C , 29-H ) :   0.9758 B( 28-C , 30-H ) :   0.9808 B( 28-C , 31-H ) :   0.9773

Dispersion correction           -0.013801453
FINAL SINGLE POINT ENERGY     -1339.873152004162

DIPOLE MOMENT
-------------
                                X             Y             Z
Electronic contribution:     11.97627      30.45532      -5.84703
Nuclear contribution   :    -12.36748     -31.04006       5.82161
                        -----------------------------------------
Total Dipole Moment    :     -0.39121      -0.58474      -0.02543
                        -----------------------------------------
Magnitude (a.u.)       :      0.70400
Magnitude (Debye)      :      1.78941

Rotational constants in cm-1:     0.017836     0.008787     0.006142
Rotational constants in MHz :   534.703353   263.442407   184.133940

                             ****ORCA TERMINATED NORMALLY****
TOTAL RUN TIME: 0 days 0 hours 0 minutes 32 seconds 462 msec
