                         Program Version 4.2.1 -  RELEASE  -
|  1> ! wB97X-D3 SP def2-SVP
|  2> %pal
|  3> nprocs 16
|  4> end
|  5>
|  6> * xyz 0 1
|  7> S 	 -4.40728 	 47.1435 	 38.1972
|  8> C 	 -5.87651 	 46.2377 	 37.8799
|  9> C 	 -6.56471 	 45.8167 	 38.9809
| 10> C 	 -6.05147 	 46.5322 	 40.1099
| 11> C 	 -4.98032 	 47.3435 	 39.8404
| 12> H 	 -6.44323 	 46.4913 	 41.1238
| 13> C 	 -7.68919 	 44.9268 	 39.0751
| 14> H 	 -7.30362 	 44.2087 	 39.7584
| 15> H 	 -7.85006 	 44.5151 	 38.1072
| 16> C 	 -8.98801 	 45.6326 	 39.4515
| 17> H 	 -9.68123 	 44.835 	 39.5087
| 18> H 	 -8.96058 	 46.1162 	 40.4341
| 19> C 	 -9.49004 	 46.5672 	 38.3415
| 20> H 	 -9.48038 	 46.0053 	 37.3618
| 21> H 	 -10.439 	 46.9679 	 38.519
| 22> H 	 -8.86447 	 47.408 	 38.2052
| 23> S 	 -2.54069 	 48.0206 	 40.7852
| 24> C 	 -2.34377 	 49.0714 	 42.1592
| 25> C 	 -3.55639 	 49.568 	 42.5933
| 26> C 	 -4.63041 	 49.1081 	 41.7945
| 27> C 	 -4.23876 	 48.1545 	 40.824
| 28> H 	 -3.5519 	 50.2706 	 43.4783
| 29> C 	 -6.02348 	 49.6114 	 42.0683
| 30> H 	 -6.11197 	 49.458 	 43.174
| 31> H 	 -6.72439 	 48.8567 	 41.6635
| 32> C 	 -6.31451 	 51.0963 	 41.6943
| 33> H 	 -6.08597 	 51.2771 	 40.6146
| 34> H 	 -5.61358 	 51.7241 	 42.2473
| 35> C 	 -7.71824 	 51.5461 	 42.104
| 36> H 	 -8.20253 	 52.0576 	 41.3149
| 37> H 	 -7.70275 	 52.2731 	 42.9267
| 38> H 	 -8.18269 	 50.6197 	 42.3723
| 39> H 	 -6.17919 	 45.944 	 36.8803
| 40> H 	 -1.41242 	 49.1313 	 42.7745
| 41> *
| 42>
| 43>                          ****END OF INPUT****

CARTESIAN COORDINATES (ANGSTROEM)
---------------------------------
  S     -4.407280   47.143500   38.197200
  C     -5.876510   46.237700   37.879900
  C     -6.564710   45.816700   38.980900
  C     -6.051470   46.532200   40.109900
  C     -4.980320   47.343500   39.840400
  H     -6.443230   46.491300   41.123800
  C     -7.689190   44.926800   39.075100
  H     -7.303620   44.208700   39.758400
  H     -7.850060   44.515100   38.107200
  C     -8.988010   45.632600   39.451500
  H     -9.681230   44.835000   39.508700
  H     -8.960580   46.116200   40.434100
  C     -9.490040   46.567200   38.341500
  H     -9.480380   46.005300   37.361800
  H    -10.439000   46.967900   38.519000
  H     -8.864470   47.408000   38.205200
  S     -2.540690   48.020600   40.785200
  C     -2.343770   49.071400   42.159200
  C     -3.556390   49.568000   42.593300
  C     -4.630410   49.108100   41.794500
  C     -4.238760   48.154500   40.824000
  H     -3.551900   50.270600   43.478300
  C     -6.023480   49.611400   42.068300
  H     -6.111970   49.458000   43.174000
  H     -6.724390   48.856700   41.663500
  C     -6.314510   51.096300   41.694300
  H     -6.085970   51.277100   40.614600
  H     -5.613580   51.724100   42.247300
  C     -7.718240   51.546100   42.104000
  H     -8.202530   52.057600   41.314900
  H     -7.702750   52.273100   42.926700
  H     -8.182690   50.619700   42.372300
  H     -6.179190   45.944000   36.880300
  H     -1.412420   49.131300   42.774500

 Total Charge           Charge          ....    0
 Multiplicity           Mult            ....    1
 Number of Electrons    NEL             ....  134
 Basis Dimension        Dim             ....  322

ORBITAL ENERGIES
----------------

  NO   OCC          E(Eh)            E(eV)
   0   2.0000     -88.965307     -2420.8691
   1   2.0000     -88.963689     -2420.8251
   2   2.0000     -10.327992      -281.0390
   3   2.0000     -10.325485      -280.9707
   4   2.0000     -10.315212      -280.6912
   5   2.0000     -10.308523      -280.5092
   6   2.0000     -10.301574      -280.3201
   7   2.0000     -10.295461      -280.1537
   8   2.0000     -10.293464      -280.0994
   9   2.0000     -10.292832      -280.0822
  10   2.0000     -10.289972      -280.0044
  11   2.0000     -10.287083      -279.9258
  12   2.0000     -10.286730      -279.9162
  13   2.0000     -10.284204      -279.8474
  14   2.0000     -10.274594      -279.5859
  15   2.0000     -10.271354      -279.4977
  16   2.0000      -8.080179      -219.8729
  17   2.0000      -8.079500      -219.8544
  18   2.0000      -6.038693      -164.3212
  19   2.0000      -6.037857      -164.2984
  20   2.0000      -6.035052      -164.2221
  21   2.0000      -6.033772      -164.1873
  22   2.0000      -6.030548      -164.0996
  23   2.0000      -6.030451      -164.0969
  24   2.0000      -1.010263       -27.4906
  25   2.0000      -0.988894       -26.9092
  26   2.0000      -0.926445       -25.2099
  27   2.0000      -0.905596       -24.6425
  28   2.0000      -0.868612       -23.6361
  29   2.0000      -0.852707       -23.2033
  30   2.0000      -0.849105       -23.1053
  31   2.0000      -0.815655       -22.1951
  32   2.0000      -0.786568       -21.4036
  33   2.0000      -0.768092       -20.9008
  34   2.0000      -0.713471       -19.4145
  35   2.0000      -0.699309       -19.0292
  36   2.0000      -0.691804       -18.8249
  37   2.0000      -0.656279       -17.8583
  38   2.0000      -0.637022       -17.3343
  39   2.0000      -0.626089       -17.0367
  40   2.0000      -0.593184       -16.1414
  41   2.0000      -0.571344       -15.5471
  42   2.0000      -0.565703       -15.3936
  43   2.0000      -0.554118       -15.0783
  44   2.0000      -0.540912       -14.7190
  45   2.0000      -0.531087       -14.4516
  46   2.0000      -0.519564       -14.1381
  47   2.0000      -0.514783       -14.0080
  48   2.0000      -0.499640       -13.5959
  49   2.0000      -0.490674       -13.3519
  50   2.0000      -0.490383       -13.3440
  51   2.0000      -0.482815       -13.1381
  52   2.0000      -0.468762       -12.7557
  53   2.0000      -0.460834       -12.5399
  54   2.0000      -0.455373       -12.3913
  55   2.0000      -0.451750       -12.2927
  56   2.0000      -0.445776       -12.1302
  57   2.0000      -0.444430       -12.0936
  58   2.0000      -0.433179       -11.7874
  59   2.0000      -0.432792       -11.7769
  60   2.0000      -0.422941       -11.5088
  61   2.0000      -0.418393       -11.3851
  62   2.0000      -0.411230       -11.1901
  63   2.0000      -0.350412        -9.5352
  64   2.0000      -0.330917        -9.0047
  65   2.0000      -0.326884        -8.8950
  66   2.0000      -0.284151        -7.7321
  67   0.0000       0.034369         0.9352
  68   0.0000       0.069463         1.8902
  69   0.0000       0.102753         2.7961
  70   0.0000       0.124210         3.3799
  71   0.0000       0.135839         3.6964

MULLIKEN ATOMIC CHARGES
-----------------------
   0 S :    0.110187
   1 C :   -0.124515
   2 C :   -0.090528
   3 C :   -0.002558
   4 C :   -0.128045
   5 H :    0.013229
   6 C :    0.118513
   7 H :    0.037046
   8 H :    0.000018
   9 C :   -0.055956
  10 H :    0.020960
  11 H :    0.032966
  12 C :   -0.031193
  13 H :    0.025622
  14 H :    0.024520
  15 H :    0.031310
  16 S :    0.101337
  17 C :   -0.116755
  18 C :   -0.060779
  19 C :   -0.050816
  20 C :   -0.151486
  21 H :    0.044737
  22 C :    0.036096
  23 H :    0.030330
  24 H :    0.015662
  25 C :   -0.081798
  26 H :    0.044651
  27 H :    0.021158
  28 C :   -0.007504
  29 H :    0.027852
  30 H :    0.032465
  31 H :    0.027491
  32 H :    0.031625
  33 H :    0.074156
Sum of atomic charges:   -0.0000000

LOEWDIN ATOMIC CHARGES
----------------------
   0 S :    0.389340
   1 C :   -0.193082
   2 C :   -0.061585
   3 C :   -0.063322
   4 C :   -0.187405
   5 H :    0.029398
   6 C :   -0.027569
   7 H :    0.038755
   8 H :    0.027410
   9 C :   -0.029826
  10 H :    0.020329
  11 H :    0.023688
  12 C :   -0.055909
  13 H :    0.030763
  14 H :    0.019605
  15 H :    0.021052
  16 S :    0.427391
  17 C :   -0.204540
  18 C :   -0.077974
  19 C :   -0.066663
  20 C :   -0.210923
  21 H :    0.044507
  22 C :   -0.043378
  23 H :    0.034760
  24 H :    0.026133
  25 C :   -0.040298
  26 H :    0.030768
  27 H :    0.022248
  28 C :   -0.060267
  29 H :    0.023446
  30 H :    0.028579
  31 H :    0.024254
  32 H :    0.021145
  33 H :    0.039166

  Mayer bond orders larger than 0.100000
B(  0-S ,  1-C ) :   1.1197 B(  0-S ,  4-C ) :   1.1318 B(  1-C ,  2-C ) :   1.6372
B(  1-C , 32-H ) :   0.9633 B(  2-C ,  3-C ) :   1.1901 B(  2-C ,  6-C ) :   1.0320
B(  3-C ,  4-C ) :   1.6158 B(  3-C ,  5-H ) :   0.9914 B(  4-C , 20-C ) :   1.0294
B(  6-C ,  7-H ) :   0.9233 B(  6-C ,  8-H ) :   0.9274 B(  6-C ,  9-C ) :   1.0787
B(  9-C , 10-H ) :   0.9545 B(  9-C , 11-H ) :   0.9555 B(  9-C , 12-C ) :   1.0712
B( 12-C , 13-H ) :   0.9721 B( 12-C , 14-H ) :   0.9726 B( 12-C , 15-H ) :   0.9752
B( 16-S , 17-C ) :   1.1640 B( 16-S , 20-C ) :   1.1655 B( 17-C , 18-C ) :   1.5997
B( 17-C , 20-C ) :   0.1025 B( 17-C , 33-H ) :   0.9595 B( 18-C , 19-C ) :   1.2608
B( 18-C , 21-H ) :   0.9808 B( 19-C , 20-C ) :   1.5596 B( 19-C , 22-C ) :   1.0435
B( 22-C , 23-H ) :   0.9356 B( 22-C , 24-H ) :   0.9260 B( 22-C , 25-C ) :   1.0641
B( 25-C , 26-H ) :   0.9605 B( 25-C , 27-H ) :   0.9582 B( 25-C , 28-C ) :   1.0650
B( 28-C , 29-H ) :   0.9750 B( 28-C , 30-H ) :   0.9768 B( 28-C , 31-H ) :   0.9796

Dispersion correction           -0.014149099
FINAL SINGLE POINT ENERGY     -1339.870473901020

DIPOLE MOMENT
-------------
                                X             Y             Z
Electronic contribution:     28.12695      -6.11178      -5.40154
Nuclear contribution   :    -28.75156       6.08163       5.74749
                        -----------------------------------------
Total Dipole Moment    :     -0.62461      -0.03015       0.34595
                        -----------------------------------------
Magnitude (a.u.)       :      0.71466
Magnitude (Debye)      :      1.81651

Rotational constants in cm-1:     0.016966     0.009650     0.006877
Rotational constants in MHz :   508.635047   289.297950   206.159979

                             ****ORCA TERMINATED NORMALLY****
TOTAL RUN TIME: 0 days 0 hours 0 minutes 33 seconds 539 msec
