                         Program Version 4.2.1 -  RELEASE  -
|  1> ! wB97X-D3 SP def2-SVP
|  2> %pal
|  3> nprocs 16
|  4> end
|  5>
|  6> * xyz 0 1
|  7> S 	 -73.9046 	 53.2178 	 139.432
|  8> C 	 -73.2428 	 52.1684 	 140.599
|  9> C 	 -72.8979 	 50.9719 	 140.058
| 10> C 	 -73.061 	 50.9354 	 138.622
| 11> C 	 -73.5922 	 52.0607 	 138.16
| 12> H 	 -72.8181 	 50.0512 	 137.986
| 13> C 	 -72.4408 	 49.7068 	 140.782
| 14> H 	 -72.2267 	 49.8583 	 141.883
| 15> H 	 -71.5091 	 49.4205 	 140.34
| 16> C 	 -73.2713 	 48.4722 	 140.686
| 17> H 	 -73.1264 	 48.0468 	 139.678
| 18> H 	 -72.7871 	 47.6469 	 141.249
| 19> C 	 -74.7381 	 48.7822 	 141.102
| 20> H 	 -75.367 	 47.9391 	 140.811
| 21> H 	 -74.818 	 48.9334 	 142.156
| 22> H 	 -75.2899 	 49.6344 	 140.542
| 23> S 	 -74.9211 	 50.9455 	 136.022
| 24> C 	 -74.702 	 51.6579 	 134.425
| 25> C 	 -74.1193 	 52.915 	 134.531
| 26> C 	 -73.729 	 53.2476 	 135.912
| 27> C 	 -74.025 	 52.2271 	 136.796
| 28> H 	 -73.9952 	 53.5573 	 133.664
| 29> C 	 -72.9543 	 54.5187 	 136.241
| 30> H 	 -72.1961 	 54.6318 	 135.475
| 31> H 	 -72.3639 	 54.2102 	 137.075
| 32> C 	 -73.919 	 55.679 	 136.632
| 33> H 	 -74.6494 	 55.4356 	 137.428
| 34> H 	 -74.4531 	 55.9922 	 135.703
| 35> C 	 -73.0173 	 56.863 	 136.991
| 36> H 	 -73.6533 	 57.7553 	 137.057
| 37> H 	 -72.1894 	 56.996 	 136.316
| 38> H 	 -72.6094 	 56.6577 	 137.969
| 39> H 	 -73.3917 	 52.4118 	 141.699
| 40> H 	 -74.8334 	 51.1844 	 133.445
| 41> *
| 42>
| 43>                          ****END OF INPUT****

CARTESIAN COORDINATES (ANGSTROEM)
---------------------------------
  S    -73.904600   53.217800  139.432000
  C    -73.242800   52.168400  140.599000
  C    -72.897900   50.971900  140.058000
  C    -73.061000   50.935400  138.622000
  C    -73.592200   52.060700  138.160000
  H    -72.818100   50.051200  137.986000
  C    -72.440800   49.706800  140.782000
  H    -72.226700   49.858300  141.883000
  H    -71.509100   49.420500  140.340000
  C    -73.271300   48.472200  140.686000
  H    -73.126400   48.046800  139.678000
  H    -72.787100   47.646900  141.249000
  C    -74.738100   48.782200  141.102000
  H    -75.367000   47.939100  140.811000
  H    -74.818000   48.933400  142.156000
  H    -75.289900   49.634400  140.542000
  S    -74.921100   50.945500  136.022000
  C    -74.702000   51.657900  134.425000
  C    -74.119300   52.915000  134.531000
  C    -73.729000   53.247600  135.912000
  C    -74.025000   52.227100  136.796000
  H    -73.995200   53.557300  133.664000
  C    -72.954300   54.518700  136.241000
  H    -72.196100   54.631800  135.475000
  H    -72.363900   54.210200  137.075000
  C    -73.919000   55.679000  136.632000
  H    -74.649400   55.435600  137.428000
  H    -74.453100   55.992200  135.703000
  C    -73.017300   56.863000  136.991000
  H    -73.653300   57.755300  137.057000
  H    -72.189400   56.996000  136.316000
  H    -72.609400   56.657700  137.969000
  H    -73.391700   52.411800  141.699000
  H    -74.833400   51.184400  133.445000

 Total Charge           Charge          ....    0
 Multiplicity           Mult            ....    1
 Number of Electrons    NEL             ....  134
 Basis Dimension        Dim             ....  322

ORBITAL ENERGIES
----------------

  NO   OCC          E(Eh)            E(eV)
   0   2.0000     -88.964595     -2420.8497
   1   2.0000     -88.964288     -2420.8413
   2   2.0000     -10.322218      -280.8818
   3   2.0000     -10.319612      -280.8109
   4   2.0000     -10.318427      -280.7787
   5   2.0000     -10.314040      -280.6593
   6   2.0000     -10.300199      -280.2827
   7   2.0000     -10.299894      -280.2744
   8   2.0000     -10.295832      -280.1638
   9   2.0000     -10.291934      -280.0578
  10   2.0000     -10.290762      -280.0259
  11   2.0000     -10.289241      -279.9845
  12   2.0000     -10.288254      -279.9576
  13   2.0000     -10.286390      -279.9069
  14   2.0000     -10.280117      -279.7362
  15   2.0000     -10.270875      -279.4847
  16   2.0000      -8.080350      -219.8775
  17   2.0000      -8.078667      -219.8317
  18   2.0000      -6.038916      -164.3273
  19   2.0000      -6.037356      -164.2848
  20   2.0000      -6.034761      -164.2142
  21   2.0000      -6.033220      -164.1723
  22   2.0000      -6.030946      -164.1104
  23   2.0000      -6.029268      -164.0647
  24   2.0000      -1.014187       -27.5974
  25   2.0000      -0.983294       -26.7568
  26   2.0000      -0.913357       -24.8537
  27   2.0000      -0.905771       -24.6473
  28   2.0000      -0.874521       -23.7969
  29   2.0000      -0.848709       -23.0945
  30   2.0000      -0.842025       -22.9127
  31   2.0000      -0.812087       -22.0980
  32   2.0000      -0.781702       -21.2712
  33   2.0000      -0.767284       -20.8789
  34   2.0000      -0.703805       -19.1515
  35   2.0000      -0.696306       -18.9475
  36   2.0000      -0.690133       -18.7795
  37   2.0000      -0.662260       -18.0210
  38   2.0000      -0.638614       -17.3776
  39   2.0000      -0.617474       -16.8023
  40   2.0000      -0.586636       -15.9632
  41   2.0000      -0.563835       -15.3427
  42   2.0000      -0.560183       -15.2433
  43   2.0000      -0.554862       -15.0986
  44   2.0000      -0.538604       -14.6561
  45   2.0000      -0.530459       -14.4345
  46   2.0000      -0.514323       -13.9954
  47   2.0000      -0.511032       -13.9059
  48   2.0000      -0.501603       -13.6493
  49   2.0000      -0.500239       -13.6122
  50   2.0000      -0.491120       -13.3640
  51   2.0000      -0.477295       -12.9879
  52   2.0000      -0.469717       -12.7816
  53   2.0000      -0.461194       -12.5497
  54   2.0000      -0.455364       -12.3911
  55   2.0000      -0.450428       -12.2568
  56   2.0000      -0.447693       -12.1824
  57   2.0000      -0.438454       -11.9310
  58   2.0000      -0.426985       -11.6189
  59   2.0000      -0.420163       -11.4332
  60   2.0000      -0.414733       -11.2855
  61   2.0000      -0.409404       -11.1404
  62   2.0000      -0.406071       -11.0498
  63   2.0000      -0.351295        -9.5592
  64   2.0000      -0.331047        -9.0082
  65   2.0000      -0.324064        -8.8182
  66   2.0000      -0.295455        -8.0397
  67   0.0000       0.034042         0.9263
  68   0.0000       0.079415         2.1610
  69   0.0000       0.110598         3.0095
  70   0.0000       0.116261         3.1636
  71   0.0000       0.129403         3.5212

MULLIKEN ATOMIC CHARGES
-----------------------
   0 S :    0.100856
   1 C :   -0.148345
   2 C :   -0.071662
   3 C :   -0.023223
   4 C :   -0.132695
   5 H :    0.038908
   6 C :    0.065567
   7 H :    0.025631
   8 H :    0.017049
   9 C :   -0.081120
  10 H :    0.018819
  11 H :    0.032308
  12 C :   -0.067093
  13 H :    0.030260
  14 H :    0.032507
  15 H :    0.060729
  16 S :    0.107917
  17 C :   -0.106977
  18 C :   -0.030549
  19 C :   -0.065831
  20 C :   -0.140701
  21 H :    0.021659
  22 C :    0.065956
  23 H :    0.026591
  24 H :    0.012244
  25 C :   -0.088978
  26 H :    0.050008
  27 H :    0.033894
  28 C :   -0.011340
  29 H :    0.033642
  30 H :    0.027272
  31 H :    0.023057
  32 H :    0.076446
  33 H :    0.067195
Sum of atomic charges:    0.0000000

LOEWDIN ATOMIC CHARGES
----------------------
   0 S :    0.418600
   1 C :   -0.217493
   2 C :   -0.064098
   3 C :   -0.064591
   4 C :   -0.191445
   5 H :    0.041224
   6 C :   -0.038644
   7 H :    0.031793
   8 H :    0.028029
   9 C :   -0.049460
  10 H :    0.021021
  11 H :    0.032021
  12 C :   -0.073656
  13 H :    0.025445
  14 H :    0.021151
  15 H :    0.042512
  16 S :    0.400547
  17 C :   -0.191815
  18 C :   -0.070100
  19 C :   -0.052485
  20 C :   -0.204598
  21 H :    0.030366
  22 C :   -0.035265
  23 H :    0.032384
  24 H :    0.021847
  25 C :   -0.035459
  26 H :    0.027460
  27 H :    0.026282
  28 C :   -0.061605
  29 H :    0.025258
  30 H :    0.022021
  31 H :    0.022248
  32 H :    0.043637
  33 H :    0.036868

  Mayer bond orders larger than 0.100000
B(  0-S ,  1-C ) :   1.1314 B(  0-S ,  4-C ) :   1.1399 B(  1-C ,  2-C ) :   1.6471
B(  1-C , 32-H ) :   0.9564 B(  2-C ,  3-C ) :   1.1980 B(  2-C ,  6-C ) :   1.0230
B(  3-C ,  4-C ) :   1.6033 B(  3-C ,  5-H ) :   0.9950 B(  4-C , 20-C ) :   1.0365
B(  6-C ,  7-H ) :   0.9477 B(  6-C ,  8-H ) :   0.9304 B(  6-C ,  9-C ) :   1.0931
B(  9-C , 10-H ) :   0.9499 B(  9-C , 11-H ) :   0.9502 B(  9-C , 12-C ) :   1.0621
B( 12-C , 13-H ) :   0.9749 B( 12-C , 14-H ) :   0.9773 B( 12-C , 15-H ) :   0.9723
B( 16-S , 17-C ) :   1.1389 B( 16-S , 20-C ) :   1.1253 B( 17-C , 18-C ) :   1.6292
B( 17-C , 33-H ) :   0.9641 B( 18-C , 19-C ) :   1.2245 B( 18-C , 21-H ) :   0.9883
B( 19-C , 20-C ) :   1.5991 B( 19-C , 22-C ) :   1.0381 B( 22-C , 23-H ) :   0.9394
B( 22-C , 24-H ) :   0.9265 B( 22-C , 25-C ) :   1.0503 B( 25-C , 26-H ) :   0.9543
B( 25-C , 27-H ) :   0.9591 B( 25-C , 28-C ) :   1.0803 B( 28-C , 29-H ) :   0.9747
B( 28-C , 30-H ) :   0.9720 B( 28-C , 31-H ) :   0.9738

Dispersion correction           -0.015075944
FINAL SINGLE POINT ENERGY     -1339.876831836889

DIPOLE MOMENT
-------------
                                X             Y             Z
Electronic contribution:     -4.91921      -1.80363      -7.19710
Nuclear contribution   :      5.18874       1.66045       7.20287
                        -----------------------------------------
Total Dipole Moment    :      0.26953      -0.14318       0.00577
                        -----------------------------------------
Magnitude (a.u.)       :      0.30525
Magnitude (Debye)      :      0.77589

Rotational constants in cm-1:     0.020997     0.009138     0.006869
Rotational constants in MHz :   629.462689   273.939591   205.924943

                             ****ORCA TERMINATED NORMALLY****
TOTAL RUN TIME: 0 days 0 hours 0 minutes 35 seconds 625 msec
