                         Program Version 4.2.1 -  RELEASE  -
|  1> ! wB97X-D3 SP def2-SVP
|  2> %pal
|  3> nprocs 16
|  4> end
|  5>
|  6> * xyz 0 1
|  7> S 	 -15.796 	 -9.54904 	 88.8074
|  8> C 	 -17.4532 	 -9.12229 	 88.3638
|  9> C 	 -18.3722 	 -9.86781 	 89.0437
| 10> C 	 -17.7449 	 -10.5711 	 90.1102
| 11> C 	 -16.4036 	 -10.5109 	 90.159
| 12> H 	 -18.2748 	 -11.0644 	 90.8934
| 13> C 	 -19.8759 	 -9.79352 	 88.9754
| 14> H 	 -20.2422 	 -8.90176 	 88.4834
| 15> H 	 -20.2701 	 -9.83773 	 90.0279
| 16> C 	 -20.4951 	 -10.9981 	 88.3028
| 17> H 	 -19.9776 	 -11.2442 	 87.3406
| 18> H 	 -20.5466 	 -11.8427 	 88.9768
| 19> C 	 -21.9723 	 -10.7603 	 87.9221
| 20> H 	 -22.4455 	 -11.594 	 87.3879
| 21> H 	 -22.5628 	 -10.6681 	 88.8585
| 22> H 	 -21.9646 	 -9.88862 	 87.304
| 23> S 	 -14.2298 	 -9.89373 	 91.5643
| 24> C 	 -13.7803 	 -10.7224 	 93.0207
| 25> C 	 -14.6478 	 -11.7892 	 93.2521
| 26> C 	 -15.5701 	 -11.9062 	 92.2172
| 27> C 	 -15.5306 	 -11.0101 	 91.1968
| 28> H 	 -14.6 	 -12.3921 	 94.1375
| 29> C 	 -16.5664 	 -13.0654 	 92.3358
| 30> H 	 -17.6297 	 -12.8857 	 92.2344
| 31> H 	 -16.5908 	 -13.2801 	 93.3499
| 32> C 	 -16.3106 	 -14.2559 	 91.4234
| 33> H 	 -16.671 	 -15.1963 	 91.7465
| 34> H 	 -15.2521 	 -14.4364 	 91.3502
| 35> C 	 -16.8653 	 -14.0379 	 90.039
| 36> H 	 -17.9777 	 -14.1692 	 90.141
| 37> H 	 -16.4608 	 -14.679 	 89.3179
| 38> H 	 -16.7479 	 -13.0034 	 89.6568
| 39> H 	 -17.8669 	 -8.34571 	 87.6632
| 40> H 	 -13.0366 	 -10.4043 	 93.8104
| 41> *
| 42>
| 43>                          ****END OF INPUT****

CARTESIAN COORDINATES (ANGSTROEM)
---------------------------------
  S    -15.796000   -9.549040   88.807400
  C    -17.453200   -9.122290   88.363800
  C    -18.372200   -9.867810   89.043700
  C    -17.744900  -10.571100   90.110200
  C    -16.403600  -10.510900   90.159000
  H    -18.274800  -11.064400   90.893400
  C    -19.875900   -9.793520   88.975400
  H    -20.242200   -8.901760   88.483400
  H    -20.270100   -9.837730   90.027900
  C    -20.495100  -10.998100   88.302800
  H    -19.977600  -11.244200   87.340600
  H    -20.546600  -11.842700   88.976800
  C    -21.972300  -10.760300   87.922100
  H    -22.445500  -11.594000   87.387900
  H    -22.562800  -10.668100   88.858500
  H    -21.964600   -9.888620   87.304000
  S    -14.229800   -9.893730   91.564300
  C    -13.780300  -10.722400   93.020700
  C    -14.647800  -11.789200   93.252100
  C    -15.570100  -11.906200   92.217200
  C    -15.530600  -11.010100   91.196800
  H    -14.600000  -12.392100   94.137500
  C    -16.566400  -13.065400   92.335800
  H    -17.629700  -12.885700   92.234400
  H    -16.590800  -13.280100   93.349900
  C    -16.310600  -14.255900   91.423400
  H    -16.671000  -15.196300   91.746500
  H    -15.252100  -14.436400   91.350200
  C    -16.865300  -14.037900   90.039000
  H    -17.977700  -14.169200   90.141000
  H    -16.460800  -14.679000   89.317900
  H    -16.747900  -13.003400   89.656800
  H    -17.866900   -8.345710   87.663200
  H    -13.036600  -10.404300   93.810400

 Total Charge           Charge          ....    0
 Multiplicity           Mult            ....    1
 Number of Electrons    NEL             ....  134
 Basis Dimension        Dim             ....  322

ORBITAL ENERGIES
----------------

  NO   OCC          E(Eh)            E(eV)
   0   2.0000     -88.968195     -2420.9477
   1   2.0000     -88.965325     -2420.8696
   2   2.0000     -10.329270      -281.0737
   3   2.0000     -10.326134      -280.9884
   4   2.0000     -10.323657      -280.9210
   5   2.0000     -10.317314      -280.7484
   6   2.0000     -10.301651      -280.3222
   7   2.0000     -10.297929      -280.2209
   8   2.0000     -10.295760      -280.1619
   9   2.0000     -10.292752      -280.0800
  10   2.0000     -10.285905      -279.8937
  11   2.0000     -10.285840      -279.8919
  12   2.0000     -10.282269      -279.7948
  13   2.0000     -10.278895      -279.7029
  14   2.0000     -10.273094      -279.5451
  15   2.0000     -10.265738      -279.3449
  16   2.0000      -8.082263      -219.9296
  17   2.0000      -8.080462      -219.8805
  18   2.0000      -6.041041      -164.3851
  19   2.0000      -6.038930      -164.3276
  20   2.0000      -6.037017      -164.2756
  21   2.0000      -6.034704      -164.2126
  22   2.0000      -6.032605      -164.1555
  23   2.0000      -6.031387      -164.1224
  24   2.0000      -1.015903       -27.6441
  25   2.0000      -0.990822       -26.9616
  26   2.0000      -0.918335       -24.9892
  27   2.0000      -0.912041       -24.8179
  28   2.0000      -0.876457       -23.8496
  29   2.0000      -0.853393       -23.2220
  30   2.0000      -0.847521       -23.0622
  31   2.0000      -0.817437       -22.2436
  32   2.0000      -0.781793       -21.2737
  33   2.0000      -0.776013       -21.1164
  34   2.0000      -0.707711       -19.2578
  35   2.0000      -0.694726       -18.9044
  36   2.0000      -0.691507       -18.8169
  37   2.0000      -0.672025       -18.2867
  38   2.0000      -0.639479       -17.4011
  39   2.0000      -0.625850       -17.0302
  40   2.0000      -0.602503       -16.3949
  41   2.0000      -0.579696       -15.7743
  42   2.0000      -0.569710       -15.5026
  43   2.0000      -0.558119       -15.1872
  44   2.0000      -0.540081       -14.6964
  45   2.0000      -0.522614       -14.2210
  46   2.0000      -0.518472       -14.1083
  47   2.0000      -0.510407       -13.8889
  48   2.0000      -0.507324       -13.8050
  49   2.0000      -0.500431       -13.6174
  50   2.0000      -0.492949       -13.4138
  51   2.0000      -0.475178       -12.9303
  52   2.0000      -0.473262       -12.8781
  53   2.0000      -0.466509       -12.6944
  54   2.0000      -0.459369       -12.5001
  55   2.0000      -0.450237       -12.2516
  56   2.0000      -0.440437       -11.9849
  57   2.0000      -0.438562       -11.9339
  58   2.0000      -0.430327       -11.7098
  59   2.0000      -0.425916       -11.5898
  60   2.0000      -0.417561       -11.3624
  61   2.0000      -0.410522       -11.1709
  62   2.0000      -0.405339       -11.0298
  63   2.0000      -0.358003        -9.7418
  64   2.0000      -0.336824        -9.1654
  65   2.0000      -0.330782        -9.0010
  66   2.0000      -0.288347        -7.8463
  67   0.0000       0.022943         0.6243
  68   0.0000       0.077149         2.0993
  69   0.0000       0.101010         2.7486
  70   0.0000       0.118793         3.2325
  71   0.0000       0.127770         3.4768

MULLIKEN ATOMIC CHARGES
-----------------------
   0 S :    0.108106
   1 C :   -0.134910
   2 C :   -0.052451
   3 C :   -0.002457
   4 C :   -0.099984
   5 H :   -0.010624
   6 C :    0.058968
   7 H :    0.013208
   8 H :    0.034091
   9 C :   -0.097718
  10 H :    0.040678
  11 H :    0.027643
  12 C :   -0.052987
  13 H :    0.039378
  14 H :    0.029682
  15 H :    0.027357
  16 S :    0.091417
  17 C :   -0.098691
  18 C :   -0.036784
  19 C :   -0.075175
  20 C :   -0.085649
  21 H :    0.017515
  22 C :    0.084337
  23 H :    0.007658
  24 H :   -0.017918
  25 C :   -0.010086
  26 H :    0.011419
  27 H :    0.012334
  28 C :   -0.058867
  29 H :    0.021416
  30 H :    0.023598
  31 H :    0.046987
  32 H :    0.058807
  33 H :    0.079700
Sum of atomic charges:    0.0000000

LOEWDIN ATOMIC CHARGES
----------------------
   0 S :    0.382112
   1 C :   -0.198257
   2 C :   -0.062557
   3 C :   -0.058749
   4 C :   -0.184789
   5 H :    0.024591
   6 C :   -0.030663
   7 H :    0.025076
   8 H :    0.039372
   9 C :   -0.042783
  10 H :    0.028258
  11 H :    0.020244
  12 C :   -0.064821
  13 H :    0.027725
  14 H :    0.026088
  15 H :    0.017764
  16 S :    0.420997
  17 C :   -0.194427
  18 C :   -0.073020
  19 C :   -0.057048
  20 C :   -0.192982
  21 H :    0.032593
  22 C :   -0.029506
  23 H :    0.025387
  24 H :    0.018616
  25 C :   -0.035987
  26 H :    0.018544
  27 H :    0.019735
  28 C :   -0.064070
  29 H :    0.025376
  30 H :    0.017186
  31 H :    0.030328
  32 H :    0.043439
  33 H :    0.046232

  Mayer bond orders larger than 0.100000
B(  0-S ,  1-C ) :   1.1094 B(  0-S ,  4-C ) :   1.1131 B(  1-C ,  2-C ) :   1.6562
B(  1-C , 32-H ) :   0.9558 B(  2-C ,  3-C ) :   1.2058 B(  2-C ,  6-C ) :   1.0339
B(  3-C ,  4-C ) :   1.6261 B(  3-C ,  5-H ) :   0.9963 B(  4-C , 20-C ) :   1.0450
B(  6-C ,  7-H ) :   0.9459 B(  6-C ,  8-H ) :   0.9376 B(  6-C ,  9-C ) :   1.0586
B(  9-C , 10-H ) :   0.9584 B(  9-C , 11-H ) :   0.9561 B(  9-C , 12-C ) :   1.0842
B( 12-C , 13-H ) :   0.9756 B( 12-C , 14-H ) :   0.9734 B( 12-C , 15-H ) :   0.9777
B( 16-S , 17-C ) :   1.1853 B( 16-S , 20-C ) :   1.1268 B( 17-C , 18-C ) :   1.5597
B( 17-C , 20-C ) :   0.1018 B( 17-C , 33-H ) :   0.9584 B( 18-C , 19-C ) :   1.2928
B( 18-C , 21-H ) :   0.9950 B( 19-C , 20-C ) :   1.5845 B( 19-C , 22-C ) :   1.0355
B( 22-C , 23-H ) :   0.9383 B( 22-C , 24-H ) :   0.9216 B( 22-C , 25-C ) :   1.0600
B( 25-C , 26-H ) :   0.9531 B( 25-C , 27-H ) :   0.9513 B( 25-C , 28-C ) :   1.0822
B( 28-C , 29-H ) :   0.9733 B( 28-C , 30-H ) :   0.9693 B( 28-C , 31-H ) :   0.9748

Dispersion correction           -0.014844940
FINAL SINGLE POINT ENERGY     -1339.862018625451

DIPOLE MOMENT
-------------
                                X             Y             Z
Electronic contribution:     25.29708      15.55906       4.01004
Nuclear contribution   :    -25.90377     -15.80537      -3.61398
                        -----------------------------------------
Total Dipole Moment    :     -0.60669      -0.24630       0.39606
                        -----------------------------------------
Magnitude (a.u.)       :      0.76525
Magnitude (Debye)      :      1.94510

Rotational constants in cm-1:     0.021115     0.008829     0.006956
Rotational constants in MHz :   633.013650   264.685223   208.545000

                             ****ORCA TERMINATED NORMALLY****
TOTAL RUN TIME: 0 days 0 hours 0 minutes 33 seconds 622 msec
