                         Program Version 4.2.1 -  RELEASE  -
|  1> ! wB97X-D3 SP def2-SVP
|  2> %pal
|  3> nprocs 16
|  4> end
|  5>
|  6> * xyz 0 1
|  7> S 	 6.11958 	 77.998 	 47.0426
|  8> C 	 5.64297 	 76.2818 	 46.9371
|  9> C 	 6.73246 	 75.4687 	 47.2256
| 10> C 	 7.90476 	 76.2255 	 47.5102
| 11> C 	 7.6992 	 77.5464 	 47.6272
| 12> H 	 8.81519 	 75.7365 	 47.7033
| 13> C 	 6.72413 	 73.9934 	 47.3949
| 14> H 	 7.56745 	 73.6475 	 46.8278
| 15> H 	 5.90337 	 73.6524 	 46.828
| 16> C 	 6.56311 	 73.4912 	 48.8435
| 17> H 	 7.5295 	 73.4467 	 49.35
| 18> H 	 5.92666 	 74.1885 	 49.3654
| 19> C 	 5.94267 	 72.0629 	 48.9358
| 20> H 	 4.84762 	 72.0264 	 48.8109
| 21> H 	 6.32679 	 71.4343 	 48.134
| 22> H 	 6.05511 	 71.5718 	 49.8523
| 23> S 	 8.60765 	 80.0667 	 47.0814
| 24> C 	 9.85123 	 80.7279 	 48.1547
| 25> C 	 10.2712 	 79.8619 	 49.1725
| 26> C 	 9.53381 	 78.6722 	 49.1342
| 27> C 	 8.6539 	 78.5746 	 48.0044
| 28> H 	 11.1152 	 79.9837 	 49.8926
| 29> C 	 9.77667 	 77.4974 	 50.0716
| 30> H 	 10.7117 	 77.523 	 50.5721
| 31> H 	 9.8501 	 76.5972 	 49.4171
| 32> C 	 8.67138 	 77.3031 	 51.0904
| 33> H 	 9.11244 	 76.4781 	 51.5997
| 34> H 	 7.79476 	 76.9772 	 50.5536
| 35> C 	 8.39744 	 78.4369 	 52.0235
| 36> H 	 9.21082 	 78.6651 	 52.6994
| 37> H 	 7.53921 	 78.1421 	 52.7171
| 38> H 	 8.18686 	 79.443 	 51.569
| 39> H 	 4.63882 	 75.9815 	 46.7415
| 40> H 	 10.4173 	 81.6918 	 48.0223
| 41> *
| 42>
| 43>                          ****END OF INPUT****

CARTESIAN COORDINATES (ANGSTROEM)
---------------------------------
  S      6.119580   77.998000   47.042600
  C      5.642970   76.281800   46.937100
  C      6.732460   75.468700   47.225600
  C      7.904760   76.225500   47.510200
  C      7.699200   77.546400   47.627200
  H      8.815190   75.736500   47.703300
  C      6.724130   73.993400   47.394900
  H      7.567450   73.647500   46.827800
  H      5.903370   73.652400   46.828000
  C      6.563110   73.491200   48.843500
  H      7.529500   73.446700   49.350000
  H      5.926660   74.188500   49.365400
  C      5.942670   72.062900   48.935800
  H      4.847620   72.026400   48.810900
  H      6.326790   71.434300   48.134000
  H      6.055110   71.571800   49.852300
  S      8.607650   80.066700   47.081400
  C      9.851230   80.727900   48.154700
  C     10.271200   79.861900   49.172500
  C      9.533810   78.672200   49.134200
  C      8.653900   78.574600   48.004400
  H     11.115200   79.983700   49.892600
  C      9.776670   77.497400   50.071600
  H     10.711700   77.523000   50.572100
  H      9.850100   76.597200   49.417100
  C      8.671380   77.303100   51.090400
  H      9.112440   76.478100   51.599700
  H      7.794760   76.977200   50.553600
  C      8.397440   78.436900   52.023500
  H      9.210820   78.665100   52.699400
  H      7.539210   78.142100   52.717100
  H      8.186860   79.443000   51.569000
  H      4.638820   75.981500   46.741500
  H     10.417300   81.691800   48.022300

 Total Charge           Charge          ....    0
 Multiplicity           Mult            ....    1
 Number of Electrons    NEL             ....  134
 Basis Dimension        Dim             ....  322

ORBITAL ENERGIES
----------------

  NO   OCC          E(Eh)            E(eV)
   0   2.0000     -88.973796     -2421.1001
   1   2.0000     -88.963279     -2420.8139
   2   2.0000     -10.327152      -281.0161
   3   2.0000     -10.325728      -280.9773
   4   2.0000     -10.323852      -280.9263
   5   2.0000     -10.313476      -280.6440
   6   2.0000     -10.302687      -280.3504
   7   2.0000     -10.298044      -280.2240
   8   2.0000     -10.297726      -280.2154
   9   2.0000     -10.291209      -280.0380
  10   2.0000     -10.286889      -279.9205
  11   2.0000     -10.285028      -279.8698
  12   2.0000     -10.283155      -279.8189
  13   2.0000     -10.278269      -279.6859
  14   2.0000     -10.277192      -279.6566
  15   2.0000     -10.275126      -279.6004
  16   2.0000      -8.087522      -220.0727
  17   2.0000      -8.077885      -219.8104
  18   2.0000      -6.045973      -164.5193
  19   2.0000      -6.042195      -164.4165
  20   2.0000      -6.038386      -164.3128
  21   2.0000      -6.036501      -164.2615
  22   2.0000      -6.032506      -164.1528
  23   2.0000      -6.028456      -164.0426
  24   2.0000      -1.006954       -27.4006
  25   2.0000      -0.980983       -26.6939
  26   2.0000      -0.915275       -24.9059
  27   2.0000      -0.912326       -24.8257
  28   2.0000      -0.867442       -23.6043
  29   2.0000      -0.850978       -23.1563
  30   2.0000      -0.846500       -23.0344
  31   2.0000      -0.813648       -22.1405
  32   2.0000      -0.785772       -21.3819
  33   2.0000      -0.769775       -20.9466
  34   2.0000      -0.712036       -19.3755
  35   2.0000      -0.706129       -19.2148
  36   2.0000      -0.683733       -18.6053
  37   2.0000      -0.661711       -18.0061
  38   2.0000      -0.642806       -17.4916
  39   2.0000      -0.627606       -17.0780
  40   2.0000      -0.596645       -16.2355
  41   2.0000      -0.569624       -15.5003
  42   2.0000      -0.557154       -15.1609
  43   2.0000      -0.545980       -14.8569
  44   2.0000      -0.541223       -14.7274
  45   2.0000      -0.526678       -14.3316
  46   2.0000      -0.521811       -14.1992
  47   2.0000      -0.512846       -13.9553
  48   2.0000      -0.501325       -13.6418
  49   2.0000      -0.494770       -13.4634
  50   2.0000      -0.488326       -13.2880
  51   2.0000      -0.480300       -13.0696
  52   2.0000      -0.473956       -12.8970
  53   2.0000      -0.463931       -12.6242
  54   2.0000      -0.462256       -12.5786
  55   2.0000      -0.452675       -12.3179
  56   2.0000      -0.444166       -12.0864
  57   2.0000      -0.437710       -11.9107
  58   2.0000      -0.431092       -11.7306
  59   2.0000      -0.426629       -11.6092
  60   2.0000      -0.420438       -11.4407
  61   2.0000      -0.416388       -11.3305
  62   2.0000      -0.409043       -11.1306
  63   2.0000      -0.348690        -9.4883
  64   2.0000      -0.337303        -9.1785
  65   2.0000      -0.328733        -8.9453
  66   2.0000      -0.282095        -7.6762
  67   0.0000       0.023281         0.6335
  68   0.0000       0.069960         1.9037
  69   0.0000       0.093859         2.5540
  70   0.0000       0.120288         3.2732
  71   0.0000       0.133231         3.6254

MULLIKEN ATOMIC CHARGES
-----------------------
   0 S :    0.088687
   1 C :   -0.121815
   2 C :   -0.121077
   3 C :    0.027393
   4 C :   -0.102784
   5 H :   -0.007536
   6 C :    0.108972
   7 H :    0.023980
   8 H :   -0.002798
   9 C :   -0.039250
  10 H :    0.032228
  11 H :    0.035095
  12 C :   -0.055482
  13 H :    0.027971
  14 H :    0.030724
  15 H :    0.023853
  16 S :    0.120413
  17 C :   -0.107874
  18 C :   -0.044531
  19 C :   -0.042505
  20 C :   -0.163428
  21 H :    0.037260
  22 C :    0.046700
  23 H :    0.003136
  24 H :    0.022851
  25 C :   -0.023627
  26 H :    0.016295
  27 H :    0.038501
  28 C :   -0.073509
  29 H :    0.016285
  30 H :    0.043658
  31 H :    0.051730
  32 H :    0.037917
  33 H :    0.072566
Sum of atomic charges:    0.0000000

LOEWDIN ATOMIC CHARGES
----------------------
   0 S :    0.382066
   1 C :   -0.184618
   2 C :   -0.056700
   3 C :   -0.065230
   4 C :   -0.185529
   5 H :    0.021965
   6 C :   -0.032752
   7 H :    0.031945
   8 H :    0.024638
   9 C :   -0.029797
  10 H :    0.025580
  11 H :    0.025947
  12 C :   -0.067102
  13 H :    0.027246
  14 H :    0.025682
  15 H :    0.018654
  16 S :    0.410241
  17 C :   -0.192628
  18 C :   -0.077119
  19 C :   -0.051715
  20 C :   -0.201752
  21 H :    0.042826
  22 C :   -0.030713
  23 H :    0.020120
  24 H :    0.033937
  25 C :   -0.039980
  26 H :    0.024368
  27 H :    0.025511
  28 C :   -0.075915
  29 H :    0.019881
  30 H :    0.037294
  31 H :    0.033194
  32 H :    0.021323
  33 H :    0.039132

  Mayer bond orders larger than 0.100000
B(  0-S ,  1-C ) :   1.1159 B(  0-S ,  4-C ) :   1.1374 B(  1-C ,  2-C ) :   1.6139
B(  1-C , 32-H ) :   0.9768 B(  2-C ,  3-C ) :   1.2262 B(  2-C ,  6-C ) :   1.0403
B(  3-C ,  4-C ) :   1.5803 B(  3-C ,  5-H ) :   1.0039 B(  4-C , 20-C ) :   1.0554
B(  6-C ,  7-H ) :   0.9250 B(  6-C ,  8-H ) :   0.9327 B(  6-C ,  9-C ) :   1.0474
B(  9-C , 10-H ) :   0.9558 B(  9-C , 11-H ) :   0.9599 B(  9-C , 12-C ) :   1.0800
B( 12-C , 13-H ) :   0.9747 B( 12-C , 14-H ) :   0.9771 B( 12-C , 15-H ) :   0.9762
B( 16-S , 17-C ) :   1.1635 B( 16-S , 20-C ) :   1.1447 B( 17-C , 18-C ) :   1.5726
B( 17-C , 20-C ) :   0.1139 B( 17-C , 33-H ) :   0.9572 B( 18-C , 19-C ) :   1.2964
B( 18-C , 21-H ) :   0.9779 B( 19-C , 20-C ) :   1.5440 B( 19-C , 22-C ) :   1.0273
B( 22-C , 23-H ) :   0.9380 B( 22-C , 24-H ) :   0.9402 B( 22-C , 25-C ) :   1.0695
B( 25-C , 26-H ) :   0.9501 B( 25-C , 27-H ) :   0.9533 B( 25-C , 28-C ) :   1.0854
B( 28-C , 29-H ) :   0.9711 B( 28-C , 30-H ) :   0.9713 B( 28-C , 31-H ) :   0.9713

Dispersion correction           -0.015093216
FINAL SINGLE POINT ENERGY     -1339.872848977601

DIPOLE MOMENT
-------------
                                X             Y             Z
Electronic contribution:     -0.06056      23.15038     -18.69837
Nuclear contribution   :      0.35104     -23.75282      19.12534
                        -----------------------------------------
Total Dipole Moment    :      0.29049      -0.60244       0.42697
                        -----------------------------------------
Magnitude (a.u.)       :      0.79349
Magnitude (Debye)      :      2.01689

Rotational constants in cm-1:     0.020570     0.009008     0.007015
Rotational constants in MHz :   616.674505   270.049316   210.300215

                             ****ORCA TERMINATED NORMALLY****
TOTAL RUN TIME: 0 days 0 hours 0 minutes 34 seconds 161 msec
