                         Program Version 4.2.1 -  RELEASE  -
|  1> ! wB97X-D3 SP def2-SVP
|  2> %pal
|  3> nprocs 16
|  4> end
|  5>
|  6> * xyz 0 1
|  7> S 	 -73.3576 	 46.7759 	 124.067
|  8> C 	 -73.1768 	 44.9392 	 124.079
|  9> C 	 -73.4875 	 44.4394 	 125.329
| 10> C 	 -73.7708 	 45.4564 	 126.315
| 11> C 	 -73.5132 	 46.737 	 125.873
| 12> H 	 -74.0021 	 45.3322 	 127.319
| 13> C 	 -73.7181 	 42.9954 	 125.79
| 14> H 	 -73.1886 	 42.3378 	 125.012
| 15> H 	 -74.6826 	 42.6595 	 125.505
| 16> C 	 -73.2772 	 42.4741 	 127.183
| 17> H 	 -73.8801 	 42.8287 	 128.003
| 18> H 	 -73.3993 	 41.4076 	 127.312
| 19> C 	 -71.7309 	 42.7354 	 127.452
| 20> H 	 -71.157 	 42.2637 	 126.637
| 21> H 	 -71.4787 	 43.778 	 127.602
| 22> H 	 -71.3718 	 42.2238 	 128.371
| 23> S 	 -71.6766 	 48.6614 	 126.258
| 24> C 	 -71.3649 	 49.349 	 127.715
| 25> C 	 -72.4318 	 49.2631 	 128.534
| 26> C 	 -73.4988 	 48.365 	 128.035
| 27> C 	 -73.0785 	 47.7841 	 126.808
| 28> H 	 -72.5221 	 49.6751 	 129.553
| 29> C 	 -74.7776 	 48.211 	 128.765
| 30> H 	 -74.363 	 48.1299 	 129.805
| 31> H 	 -75.3137 	 47.2897 	 128.5
| 32> C 	 -75.6226 	 49.4383 	 128.725
| 33> H 	 -75.0585 	 50.3391 	 128.917
| 34> H 	 -76.3739 	 49.3439 	 129.505
| 35> C 	 -76.4235 	 49.6859 	 127.469
| 36> H 	 -75.7489 	 49.6587 	 126.627
| 37> H 	 -76.8858 	 50.723 	 127.507
| 38> H 	 -77.0847 	 48.8831 	 127.34
| 39> H 	 -73.1131 	 44.2896 	 123.199
| 40> H 	 -70.4438 	 49.8996 	 127.844
| 41> *
| 42>
| 43>                          ****END OF INPUT****

CARTESIAN COORDINATES (ANGSTROEM)
---------------------------------
  S    -73.357600   46.775900  124.067000
  C    -73.176800   44.939200  124.079000
  C    -73.487500   44.439400  125.329000
  C    -73.770800   45.456400  126.315000
  C    -73.513200   46.737000  125.873000
  H    -74.002100   45.332200  127.319000
  C    -73.718100   42.995400  125.790000
  H    -73.188600   42.337800  125.012000
  H    -74.682600   42.659500  125.505000
  C    -73.277200   42.474100  127.183000
  H    -73.880100   42.828700  128.003000
  H    -73.399300   41.407600  127.312000
  C    -71.730900   42.735400  127.452000
  H    -71.157000   42.263700  126.637000
  H    -71.478700   43.778000  127.602000
  H    -71.371800   42.223800  128.371000
  S    -71.676600   48.661400  126.258000
  C    -71.364900   49.349000  127.715000
  C    -72.431800   49.263100  128.534000
  C    -73.498800   48.365000  128.035000
  C    -73.078500   47.784100  126.808000
  H    -72.522100   49.675100  129.553000
  C    -74.777600   48.211000  128.765000
  H    -74.363000   48.129900  129.805000
  H    -75.313700   47.289700  128.500000
  C    -75.622600   49.438300  128.725000
  H    -75.058500   50.339100  128.917000
  H    -76.373900   49.343900  129.505000
  C    -76.423500   49.685900  127.469000
  H    -75.748900   49.658700  126.627000
  H    -76.885800   50.723000  127.507000
  H    -77.084700   48.883100  127.340000
  H    -73.113100   44.289600  123.199000
  H    -70.443800   49.899600  127.844000

 Total Charge           Charge          ....    0
 Multiplicity           Mult            ....    1
 Number of Electrons    NEL             ....  134
 Basis Dimension        Dim             ....  322

ORBITAL ENERGIES
----------------

  NO   OCC          E(Eh)            E(eV)
   0   2.0000     -88.968598     -2420.9586
   1   2.0000     -88.955626     -2420.6057
   2   2.0000     -10.337083      -281.2863
   3   2.0000     -10.330004      -281.0937
   4   2.0000     -10.323644      -280.9206
   5   2.0000     -10.309522      -280.5364
   6   2.0000     -10.308804      -280.5168
   7   2.0000     -10.307652      -280.4855
   8   2.0000     -10.300067      -280.2791
   9   2.0000     -10.294624      -280.1310
  10   2.0000     -10.294598      -280.1303
  11   2.0000     -10.294295      -280.1220
  12   2.0000     -10.288588      -279.9667
  13   2.0000     -10.280660      -279.7510
  14   2.0000     -10.278945      -279.7043
  15   2.0000     -10.269721      -279.4533
  16   2.0000      -8.080829      -219.8905
  17   2.0000      -8.073520      -219.6916
  18   2.0000      -6.039838      -164.3524
  19   2.0000      -6.036028      -164.2487
  20   2.0000      -6.031862      -164.1353
  21   2.0000      -6.030859      -164.1080
  22   2.0000      -6.027605      -164.0195
  23   2.0000      -6.024184      -163.9264
  24   2.0000      -1.011214       -27.5165
  25   2.0000      -0.977563       -26.6008
  26   2.0000      -0.923479       -25.1291
  27   2.0000      -0.902370       -24.5547
  28   2.0000      -0.867849       -23.6154
  29   2.0000      -0.852032       -23.1850
  30   2.0000      -0.837155       -22.7802
  31   2.0000      -0.813554       -22.1379
  32   2.0000      -0.784306       -21.3421
  33   2.0000      -0.774384       -21.0721
  34   2.0000      -0.708920       -19.2907
  35   2.0000      -0.702149       -19.1065
  36   2.0000      -0.693124       -18.8608
  37   2.0000      -0.656500       -17.8643
  38   2.0000      -0.636426       -17.3180
  39   2.0000      -0.622611       -16.9421
  40   2.0000      -0.607567       -16.5327
  41   2.0000      -0.559376       -15.2214
  42   2.0000      -0.554731       -15.0950
  43   2.0000      -0.550062       -14.9680
  44   2.0000      -0.545172       -14.8349
  45   2.0000      -0.537242       -14.6191
  46   2.0000      -0.524932       -14.2841
  47   2.0000      -0.510419       -13.8892
  48   2.0000      -0.500256       -13.6127
  49   2.0000      -0.495805       -13.4915
  50   2.0000      -0.491571       -13.3763
  51   2.0000      -0.479576       -13.0499
  52   2.0000      -0.468331       -12.7439
  53   2.0000      -0.457203       -12.4411
  54   2.0000      -0.454753       -12.3745
  55   2.0000      -0.447317       -12.1721
  56   2.0000      -0.443622       -12.0716
  57   2.0000      -0.437373       -11.9015
  58   2.0000      -0.434006       -11.8099
  59   2.0000      -0.426889       -11.6162
  60   2.0000      -0.421661       -11.4740
  61   2.0000      -0.412238       -11.2176
  62   2.0000      -0.405103       -11.0234
  63   2.0000      -0.355298        -9.6682
  64   2.0000      -0.328099        -8.9280
  65   2.0000      -0.319454        -8.6928
  66   2.0000      -0.284083        -7.7303
  67   0.0000       0.023708         0.6451
  68   0.0000       0.066726         1.8157
  69   0.0000       0.098950         2.6926
  70   0.0000       0.119773         3.2592
  71   0.0000       0.133288         3.6269

MULLIKEN ATOMIC CHARGES
-----------------------
   0 S :    0.085341
   1 C :   -0.123668
   2 C :   -0.068371
   3 C :    0.052698
   4 C :   -0.123656
   5 H :   -0.008779
   6 C :    0.048997
   7 H :    0.014405
   8 H :    0.032211
   9 C :   -0.059806
  10 H :    0.026603
  11 H :    0.027204
  12 C :   -0.078505
  13 H :    0.037385
  14 H :    0.049134
  15 H :    0.031074
  16 S :    0.101170
  17 C :   -0.074095
  18 C :   -0.038660
  19 C :   -0.086018
  20 C :   -0.157581
  21 H :    0.025678
  22 C :    0.070017
  23 H :    0.031613
  24 H :    0.027771
  25 C :   -0.067167
  26 H :    0.022196
  27 H :    0.022399
  28 C :   -0.024714
  29 H :    0.023739
  30 H :    0.047498
  31 H :    0.016705
  32 H :    0.055362
  33 H :    0.061822
Sum of atomic charges:   -0.0000000

LOEWDIN ATOMIC CHARGES
----------------------
   0 S :    0.332790
   1 C :   -0.175028
   2 C :   -0.054041
   3 C :   -0.052476
   4 C :   -0.165574
   5 H :    0.018139
   6 C :   -0.041203
   7 H :    0.037225
   8 H :    0.030196
   9 C :   -0.041581
  10 H :    0.018570
  11 H :    0.029118
  12 C :   -0.067496
  13 H :    0.027930
  14 H :    0.025088
  15 H :    0.027258
  16 S :    0.448051
  17 C :   -0.213883
  18 C :   -0.082529
  19 C :   -0.057972
  20 C :   -0.197162
  21 H :    0.031745
  22 C :   -0.038344
  23 H :    0.042803
  24 H :    0.031913
  25 C :   -0.041974
  26 H :    0.023376
  27 H :    0.023040
  28 C :   -0.059006
  29 H :    0.022163
  30 H :    0.037464
  31 H :    0.015518
  32 H :    0.033858
  33 H :    0.032026

  Mayer bond orders larger than 0.100000
B(  0-S ,  1-C ) :   1.0777 B(  0-S ,  4-C ) :   1.1209 B(  1-C ,  2-C ) :   1.6689
B(  1-C , 32-H ) :   0.9634 B(  2-C ,  3-C ) :   1.1994 B(  2-C ,  6-C ) :   1.0128
B(  3-C ,  4-C ) :   1.6018 B(  3-C ,  5-H ) :   0.9973 B(  4-C , 20-C ) :   1.0575
B(  6-C ,  7-H ) :   0.9348 B(  6-C ,  8-H ) :   0.9387 B(  6-C ,  9-C ) :   1.0680
B(  9-C , 10-H ) :   0.9541 B(  9-C , 11-H ) :   0.9540 B(  9-C , 12-C ) :   1.0676
B( 12-C , 13-H ) :   0.9774 B( 12-C , 14-H ) :   0.9782 B( 12-C , 15-H ) :   0.9770
B( 16-S , 17-C ) :   1.1868 B( 16-S , 20-C ) :   1.1448 B( 17-C , 18-C ) :   1.5686
B( 17-C , 33-H ) :   0.9732 B( 18-C , 19-C ) :   1.2424 B( 18-C , 21-H ) :   0.9849
B( 19-C , 20-C ) :   1.5552 B( 19-C , 22-C ) :   1.0475 B( 22-C , 23-H ) :   0.9198
B( 22-C , 24-H ) :   0.9389 B( 22-C , 25-C ) :   1.0859 B( 25-C , 26-H ) :   0.9518
B( 25-C , 27-H ) :   0.9509 B( 25-C , 28-C ) :   1.0804 B( 28-C , 29-H ) :   0.9755
B( 28-C , 30-H ) :   0.9713 B( 28-C , 31-H ) :   0.9732

Dispersion correction           -0.014507468
FINAL SINGLE POINT ENERGY     -1339.839144570207

DIPOLE MOMENT
-------------
                                X             Y             Z
Electronic contribution:      9.54032      10.82015     -14.81234
Nuclear contribution   :     -9.74032     -11.19462      15.41554
                        -----------------------------------------
Total Dipole Moment    :     -0.20000      -0.37447       0.60320
                        -----------------------------------------
Magnitude (a.u.)       :      0.73761
Magnitude (Debye)      :      1.87486

Rotational constants in cm-1:     0.018304     0.008460     0.008042
Rotational constants in MHz :   548.740491   253.610816   241.079558

                             ****ORCA TERMINATED NORMALLY****
TOTAL RUN TIME: 0 days 0 hours 0 minutes 33 seconds 844 msec
