                         Program Version 4.2.1 -  RELEASE  -
|  1> ! wB97X-D3 SP def2-SVP
|  2> %pal
|  3> nprocs 16
|  4> end
|  5>
|  6> * xyz 0 1
|  7> S 	 -42.1133 	 50.7965 	 102.325
|  8> C 	 -41.5757 	 51.9982 	 103.564
|  9> C 	 -41.7158 	 51.519 	 104.877
| 10> C 	 -42.2983 	 50.2197 	 104.948
| 11> C 	 -42.5249 	 49.6816 	 103.646
| 12> H 	 -42.5255 	 49.7263 	 105.867
| 13> C 	 -41.4429 	 52.2554 	 106.154
| 14> H 	 -42.3452 	 52.4572 	 106.663
| 15> H 	 -41.0907 	 53.2499 	 105.881
| 16> C 	 -40.4509 	 51.6274 	 107.156
| 17> H 	 -39.676 	 51.048 	 106.718
| 18> H 	 -40.0384 	 52.4951 	 107.681
| 19> C 	 -41.0072 	 50.6779 	 108.234
| 20> H 	 -41.4518 	 49.7919 	 107.884
| 21> H 	 -40.1365 	 50.3425 	 108.81
| 22> H 	 -41.753 	 51.2506 	 108.923
| 23> S 	 -44.6043 	 48.177 	 102.619
| 24> C 	 -44.7466 	 46.4992 	 102.904
| 25> C 	 -43.8222 	 46.0233 	 103.761
| 26> C 	 -42.8819 	 47.0601 	 104.109
| 27> C 	 -43.1043 	 48.3168 	 103.504
| 28> H 	 -43.8355 	 45.0114 	 103.991
| 29> C 	 -41.7624 	 46.6817 	 104.997
| 30> H 	 -42.1649 	 46.1987 	 105.867
| 31> H 	 -41.2749 	 47.6302 	 105.258
| 32> C 	 -40.7204 	 45.7194 	 104.457
| 33> H 	 -40.5442 	 45.931 	 103.442
| 34> H 	 -41.1506 	 44.6974 	 104.32
| 35> C 	 -39.3687 	 45.6631 	 105.219
| 36> H 	 -38.795 	 44.8034 	 104.941
| 37> H 	 -39.634 	 45.6264 	 106.315
| 38> H 	 -38.7188 	 46.5249 	 104.987
| 39> H 	 -41.2993 	 53.0279 	 103.405
| 40> H 	 -45.5599 	 45.8921 	 102.494
| 41> *
| 42>
| 43>                          ****END OF INPUT****

CARTESIAN COORDINATES (ANGSTROEM)
---------------------------------
  S    -42.113300   50.796500  102.325000
  C    -41.575700   51.998200  103.564000
  C    -41.715800   51.519000  104.877000
  C    -42.298300   50.219700  104.948000
  C    -42.524900   49.681600  103.646000
  H    -42.525500   49.726300  105.867000
  C    -41.442900   52.255400  106.154000
  H    -42.345200   52.457200  106.663000
  H    -41.090700   53.249900  105.881000
  C    -40.450900   51.627400  107.156000
  H    -39.676000   51.048000  106.718000
  H    -40.038400   52.495100  107.681000
  C    -41.007200   50.677900  108.234000
  H    -41.451800   49.791900  107.884000
  H    -40.136500   50.342500  108.810000
  H    -41.753000   51.250600  108.923000
  S    -44.604300   48.177000  102.619000
  C    -44.746600   46.499200  102.904000
  C    -43.822200   46.023300  103.761000
  C    -42.881900   47.060100  104.109000
  C    -43.104300   48.316800  103.504000
  H    -43.835500   45.011400  103.991000
  C    -41.762400   46.681700  104.997000
  H    -42.164900   46.198700  105.867000
  H    -41.274900   47.630200  105.258000
  C    -40.720400   45.719400  104.457000
  H    -40.544200   45.931000  103.442000
  H    -41.150600   44.697400  104.320000
  C    -39.368700   45.663100  105.219000
  H    -38.795000   44.803400  104.941000
  H    -39.634000   45.626400  106.315000
  H    -38.718800   46.524900  104.987000
  H    -41.299300   53.027900  103.405000
  H    -45.559900   45.892100  102.494000

 Total Charge           Charge          ....    0
 Multiplicity           Mult            ....    1
 Number of Electrons    NEL             ....  134
 Basis Dimension        Dim             ....  322

ORBITAL ENERGIES
----------------

  NO   OCC          E(Eh)            E(eV)
   0   2.0000     -88.977562     -2421.2025
   1   2.0000     -88.958655     -2420.6881
   2   2.0000     -10.341540      -281.4076
   3   2.0000     -10.329609      -281.0829
   4   2.0000     -10.320453      -280.8338
   5   2.0000     -10.311005      -280.5767
   6   2.0000     -10.304163      -280.3905
   7   2.0000     -10.302386      -280.3422
   8   2.0000     -10.296779      -280.1896
   9   2.0000     -10.289238      -279.9844
  10   2.0000     -10.287515      -279.9375
  11   2.0000     -10.284998      -279.8690
  12   2.0000     -10.284741      -279.8620
  13   2.0000     -10.282004      -279.7876
  14   2.0000     -10.281621      -279.7771
  15   2.0000     -10.279753      -279.7263
  16   2.0000      -8.090154      -220.1443
  17   2.0000      -8.074737      -219.7248
  18   2.0000      -6.048831      -164.5971
  19   2.0000      -6.045083      -164.4951
  20   2.0000      -6.040729      -164.3766
  21   2.0000      -6.033151      -164.1704
  22   2.0000      -6.028981      -164.0569
  23   2.0000      -6.025582      -163.9644
  24   2.0000      -1.003621       -27.3099
  25   2.0000      -0.978779       -26.6339
  26   2.0000      -0.912558       -24.8320
  27   2.0000      -0.909919       -24.7601
  28   2.0000      -0.867756       -23.6128
  29   2.0000      -0.850459       -23.1422
  30   2.0000      -0.846461       -23.0334
  31   2.0000      -0.814946       -22.1758
  32   2.0000      -0.785345       -21.3703
  33   2.0000      -0.769776       -20.9467
  34   2.0000      -0.707103       -19.2413
  35   2.0000      -0.700422       -19.0594
  36   2.0000      -0.694297       -18.8928
  37   2.0000      -0.659860       -17.9557
  38   2.0000      -0.635997       -17.3063
  39   2.0000      -0.624950       -17.0057
  40   2.0000      -0.597892       -16.2695
  41   2.0000      -0.579287       -15.7632
  42   2.0000      -0.561175       -15.2704
  43   2.0000      -0.544406       -14.8140
  44   2.0000      -0.541362       -14.7312
  45   2.0000      -0.522758       -14.2250
  46   2.0000      -0.521930       -14.2024
  47   2.0000      -0.511450       -13.9173
  48   2.0000      -0.502302       -13.6683
  49   2.0000      -0.495792       -13.4912
  50   2.0000      -0.495480       -13.4827
  51   2.0000      -0.483281       -13.1507
  52   2.0000      -0.475511       -12.9393
  53   2.0000      -0.464270       -12.6334
  54   2.0000      -0.459497       -12.5036
  55   2.0000      -0.449038       -12.2189
  56   2.0000      -0.445698       -12.1280
  57   2.0000      -0.435518       -11.8510
  58   2.0000      -0.431455       -11.7405
  59   2.0000      -0.423697       -11.5294
  60   2.0000      -0.422618       -11.5000
  61   2.0000      -0.415092       -11.2952
  62   2.0000      -0.408940       -11.1278
  63   2.0000      -0.344261        -9.3678
  64   2.0000      -0.334384        -9.0991
  65   2.0000      -0.324505        -8.8302
  66   2.0000      -0.292434        -7.9575
  67   0.0000       0.026527         0.7218
  68   0.0000       0.073234         1.9928
  69   0.0000       0.107005         2.9118
  70   0.0000       0.118000         3.2110
  71   0.0000       0.125751         3.4219

MULLIKEN ATOMIC CHARGES
-----------------------
   0 S :    0.126049
   1 C :   -0.115944
   2 C :   -0.088660
   3 C :    0.036307
   4 C :   -0.141561
   5 H :    0.009288
   6 C :    0.095665
   7 H :    0.024397
   8 H :    0.004818
   9 C :   -0.068227
  10 H :    0.030830
  11 H :    0.033655
  12 C :   -0.077479
  13 H :    0.027541
  14 H :    0.037511
  15 H :    0.042386
  16 S :    0.093352
  17 C :   -0.087814
  18 C :   -0.008679
  19 C :   -0.072484
  20 C :   -0.138744
  21 H :   -0.003299
  22 C :    0.094568
  23 H :    0.019552
  24 H :    0.011202
  25 C :   -0.076367
  26 H :    0.011446
  27 H :    0.019011
  28 C :   -0.052873
  29 H :    0.032160
  30 H :    0.036796
  31 H :    0.043770
  32 H :    0.041976
  33 H :    0.059850
Sum of atomic charges:   -0.0000000

LOEWDIN ATOMIC CHARGES
----------------------
   0 S :    0.387435
   1 C :   -0.190316
   2 C :   -0.056185
   3 C :   -0.051199
   4 C :   -0.185807
   5 H :    0.027918
   6 C :   -0.031406
   7 H :    0.029484
   8 H :    0.028729
   9 C :   -0.036435
  10 H :    0.022593
  11 H :    0.031255
  12 C :   -0.067925
  13 H :    0.011337
  14 H :    0.031253
  15 H :    0.032269
  16 S :    0.416660
  17 C :   -0.188184
  18 C :   -0.070774
  19 C :   -0.051019
  20 C :   -0.205905
  21 H :    0.024117
  22 C :   -0.038370
  23 H :    0.029409
  24 H :    0.028290
  25 C :   -0.044669
  26 H :    0.015966
  27 H :    0.023417
  28 C :   -0.064822
  29 H :    0.023963
  30 H :    0.030053
  31 H :    0.029460
  32 H :    0.026806
  33 H :    0.032602

  Mayer bond orders larger than 0.100000
B(  0-S ,  1-C ) :   1.1124 B(  0-S ,  4-C ) :   1.1532 B(  1-C ,  2-C ) :   1.6226
B(  1-C , 32-H ) :   0.9612 B(  2-C ,  3-C ) :   1.2408 B(  2-C ,  6-C ) :   1.0387
B(  3-C ,  4-C ) :   1.5459 B(  3-C ,  5-H ) :   0.9932 B(  4-C , 20-C ) :   1.0306
B(  6-C ,  7-H ) :   0.9358 B(  6-C ,  8-H ) :   0.9342 B(  6-C ,  9-C ) :   1.0537
B(  9-C , 10-H ) :   0.9635 B(  9-C , 11-H ) :   0.9564 B(  9-C , 12-C ) :   1.0792
B( 12-C , 13-H ) :   0.9763 B( 12-C , 14-H ) :   0.9703 B( 12-C , 15-H ) :   0.9740
B( 16-S , 17-C ) :   1.1754 B( 16-S , 20-C ) :   1.1352 B( 17-C , 18-C ) :   1.6071
B( 17-C , 33-H ) :   0.9612 B( 18-C , 19-C ) :   1.2199 B( 18-C , 21-H ) :   1.0097
B( 19-C , 20-C ) :   1.5859 B( 19-C , 22-C ) :   1.0740 B( 22-C , 23-H ) :   0.9179
B( 22-C , 24-H ) :   0.9312 B( 22-C , 25-C ) :   1.0672 B( 25-C , 26-H ) :   0.9525
B( 25-C , 27-H ) :   0.9496 B( 25-C , 28-C ) :   1.0838 B( 28-C , 29-H ) :   0.9740
B( 28-C , 30-H ) :   0.9762 B( 28-C , 31-H ) :   0.9752

Dispersion correction           -0.014087730
FINAL SINGLE POINT ENERGY     -1339.868056286117

DIPOLE MOMENT
-------------
                                X             Y             Z
Electronic contribution:    -17.43516       5.82042     -24.12953
Nuclear contribution   :     17.65870      -5.94458      24.73845
                        -----------------------------------------
Total Dipole Moment    :      0.22354      -0.12416       0.60891
                        -----------------------------------------
Magnitude (a.u.)       :      0.66042
Magnitude (Debye)      :      1.67867

Rotational constants in cm-1:     0.015368     0.009780     0.007159
Rotational constants in MHz :   460.721921   293.188556   214.607077

                             ****ORCA TERMINATED NORMALLY****
TOTAL RUN TIME: 0 days 0 hours 0 minutes 30 seconds 381 msec
