                         Program Version 4.2.1 -  RELEASE  -
|  1> ! wB97X-D3 SP def2-SVP
|  2> %pal
|  3> nprocs 16
|  4> end
|  5>
|  6> * xyz 0 1
|  7> S 	 -11.9828 	 31.0829 	 36.6547
|  8> C 	 -11.3884 	 31.6342 	 35.1128
|  9> C 	 -12.3295 	 32.245 	 34.3758
| 10> C 	 -13.6273 	 32.0392 	 34.9316
| 11> C 	 -13.6328 	 31.3884 	 36.2004
| 12> H 	 -14.5961 	 32.4622 	 34.6048
| 13> C 	 -12.1333 	 32.9237 	 32.9919
| 14> H 	 -11.0395 	 33.075 	 32.7698
| 15> H 	 -12.8336 	 33.758 	 33.0721
| 16> C 	 -12.6159 	 32.1036 	 31.8411
| 17> H 	 -12.4471 	 31.0266 	 32.0111
| 18> H 	 -13.7288 	 32.2798 	 31.7331
| 19> C 	 -11.8111 	 32.6194 	 30.5377
| 20> H 	 -12.1715 	 32.1484 	 29.6007
| 21> H 	 -11.9707 	 33.6898 	 30.4527
| 22> H 	 -10.7559 	 32.4225 	 30.496
| 23> S 	 -14.7688 	 31.9722 	 38.6508
| 24> C 	 -16.261 	 31.1437 	 39.0912
| 25> C 	 -16.7591 	 30.4961 	 38.0182
| 26> C 	 -15.855 	 30.3898 	 36.8769
| 27> C 	 -14.7632 	 31.1809 	 37.0623
| 28> H 	 -17.7188 	 29.9318 	 38.2172
| 29> C 	 -16.039 	 29.3858 	 35.7546
| 30> H 	 -16.5842 	 28.4669 	 36.1141
| 31> H 	 -15.0543 	 29.0344 	 35.4641
| 32> C 	 -16.7545 	 29.8221 	 34.4869
| 33> H 	 -17.0751 	 28.9411 	 33.9659
| 34> H 	 -16.1018 	 30.3596 	 33.7882
| 35> C 	 -18.0413 	 30.6529 	 34.7838
| 36> H 	 -18.546 	 30.6388 	 33.8306
| 37> H 	 -17.9453 	 31.7243 	 35.0707
| 38> H 	 -18.6383 	 30.1787 	 35.5171
| 39> H 	 -10.3158 	 31.8078 	 34.9676
| 40> H 	 -16.7452 	 31.2628 	 40.0451
| 41> *
| 42>
| 43>                          ****END OF INPUT****

CARTESIAN COORDINATES (ANGSTROEM)
---------------------------------
  S    -11.982800   31.082900   36.654700
  C    -11.388400   31.634200   35.112800
  C    -12.329500   32.245000   34.375800
  C    -13.627300   32.039200   34.931600
  C    -13.632800   31.388400   36.200400
  H    -14.596100   32.462200   34.604800
  C    -12.133300   32.923700   32.991900
  H    -11.039500   33.075000   32.769800
  H    -12.833600   33.758000   33.072100
  C    -12.615900   32.103600   31.841100
  H    -12.447100   31.026600   32.011100
  H    -13.728800   32.279800   31.733100
  C    -11.811100   32.619400   30.537700
  H    -12.171500   32.148400   29.600700
  H    -11.970700   33.689800   30.452700
  H    -10.755900   32.422500   30.496000
  S    -14.768800   31.972200   38.650800
  C    -16.261000   31.143700   39.091200
  C    -16.759100   30.496100   38.018200
  C    -15.855000   30.389800   36.876900
  C    -14.763200   31.180900   37.062300
  H    -17.718800   29.931800   38.217200
  C    -16.039000   29.385800   35.754600
  H    -16.584200   28.466900   36.114100
  H    -15.054300   29.034400   35.464100
  C    -16.754500   29.822100   34.486900
  H    -17.075100   28.941100   33.965900
  H    -16.101800   30.359600   33.788200
  C    -18.041300   30.652900   34.783800
  H    -18.546000   30.638800   33.830600
  H    -17.945300   31.724300   35.070700
  H    -18.638300   30.178700   35.517100
  H    -10.315800   31.807800   34.967600
  H    -16.745200   31.262800   40.045100

 Total Charge           Charge          ....    0
 Multiplicity           Mult            ....    1
 Number of Electrons    NEL             ....  134
 Basis Dimension        Dim             ....  322

ORBITAL ENERGIES
----------------

  NO   OCC          E(Eh)            E(eV)
   0   2.0000     -88.965077     -2420.8628
   1   2.0000     -88.960211     -2420.7304
   2   2.0000     -10.329873      -281.0901
   3   2.0000     -10.324368      -280.9403
   4   2.0000     -10.315275      -280.6929
   5   2.0000     -10.310304      -280.5576
   6   2.0000     -10.305013      -280.4137
   7   2.0000     -10.300195      -280.2826
   8   2.0000     -10.299906      -280.2747
   9   2.0000     -10.297707      -280.2148
  10   2.0000     -10.296897      -280.1928
  11   2.0000     -10.295762      -280.1619
  12   2.0000     -10.291318      -280.0410
  13   2.0000     -10.284822      -279.8642
  14   2.0000     -10.284102      -279.8446
  15   2.0000     -10.272995      -279.5424
  16   2.0000      -8.080211      -219.8737
  17   2.0000      -8.074980      -219.7314
  18   2.0000      -6.038637      -164.3197
  19   2.0000      -6.034642      -164.2110
  20   2.0000      -6.033626      -164.1833
  21   2.0000      -6.031052      -164.1133
  22   2.0000      -6.029595      -164.0736
  23   2.0000      -6.025467      -163.9613
  24   2.0000      -1.007804       -27.4238
  25   2.0000      -0.985562       -26.8185
  26   2.0000      -0.913859       -24.8674
  27   2.0000      -0.907038       -24.6818
  28   2.0000      -0.873026       -23.7563
  29   2.0000      -0.845434       -23.0054
  30   2.0000      -0.839502       -22.8440
  31   2.0000      -0.811253       -22.0753
  32   2.0000      -0.782757       -21.2999
  33   2.0000      -0.777026       -21.1440
  34   2.0000      -0.711177       -19.3521
  35   2.0000      -0.695406       -18.9230
  36   2.0000      -0.690041       -18.7770
  37   2.0000      -0.657310       -17.8863
  38   2.0000      -0.640701       -17.4344
  39   2.0000      -0.615048       -16.7363
  40   2.0000      -0.587536       -15.9877
  41   2.0000      -0.575312       -15.6550
  42   2.0000      -0.562462       -15.3054
  43   2.0000      -0.557581       -15.1725
  44   2.0000      -0.543536       -14.7904
  45   2.0000      -0.521729       -14.1970
  46   2.0000      -0.513408       -13.9706
  47   2.0000      -0.508244       -13.8300
  48   2.0000      -0.500747       -13.6260
  49   2.0000      -0.494172       -13.4471
  50   2.0000      -0.484628       -13.1874
  51   2.0000      -0.481113       -13.0917
  52   2.0000      -0.477156       -12.9841
  53   2.0000      -0.466094       -12.6831
  54   2.0000      -0.459524       -12.5043
  55   2.0000      -0.441988       -12.0271
  56   2.0000      -0.438460       -11.9311
  57   2.0000      -0.436272       -11.8716
  58   2.0000      -0.433006       -11.7827
  59   2.0000      -0.431878       -11.7520
  60   2.0000      -0.419338       -11.4108
  61   2.0000      -0.411418       -11.1953
  62   2.0000      -0.409949       -11.1553
  63   2.0000      -0.342043        -9.3075
  64   2.0000      -0.333209        -9.0671
  65   2.0000      -0.326128        -8.8744
  66   2.0000      -0.301719        -8.2102
  67   0.0000       0.030736         0.8364
  68   0.0000       0.070823         1.9272
  69   0.0000       0.112634         3.0649
  70   0.0000       0.124002         3.3743
  71   0.0000       0.124199         3.3796

MULLIKEN ATOMIC CHARGES
-----------------------
   0 S :    0.115517
   1 C :   -0.131122
   2 C :   -0.082099
   3 C :    0.017236
   4 C :   -0.182127
   5 H :    0.025888
   6 C :    0.075091
   7 H :    0.034571
   8 H :    0.035853
   9 C :   -0.098339
  10 H :    0.046330
  11 H :    0.041439
  12 C :   -0.074971
  13 H :    0.033236
  14 H :    0.034771
  15 H :    0.038224
  16 S :    0.090393
  17 C :   -0.096765
  18 C :   -0.044265
  19 C :   -0.021529
  20 C :   -0.164822
  21 H :    0.039896
  22 C :    0.064943
  23 H :    0.031943
  24 H :    0.030540
  25 C :   -0.063259
  26 H :    0.022825
  27 H :    0.027715
  28 C :   -0.054640
  29 H :    0.027021
  30 H :    0.046635
  31 H :    0.017958
  32 H :    0.057736
  33 H :    0.058177
Sum of atomic charges:   -0.0000000

LOEWDIN ATOMIC CHARGES
----------------------
   0 S :    0.416687
   1 C :   -0.203525
   2 C :   -0.069148
   3 C :   -0.063190
   4 C :   -0.202519
   5 H :    0.033599
   6 C :   -0.032176
   7 H :    0.037378
   8 H :    0.037109
   9 C :   -0.042274
  10 H :    0.025740
  11 H :    0.029078
  12 C :   -0.069871
  13 H :    0.027493
  14 H :    0.024886
  15 H :    0.022506
  16 S :    0.374165
  17 C :   -0.174077
  18 C :   -0.079131
  19 C :   -0.052261
  20 C :   -0.191636
  21 H :    0.040672
  22 C :   -0.034795
  23 H :    0.037470
  24 H :    0.033264
  25 C :   -0.035931
  26 H :    0.023390
  27 H :    0.020916
  28 C :   -0.067323
  29 H :    0.025405
  30 H :    0.030561
  31 H :    0.016038
  32 H :    0.031486
  33 H :    0.030013

  Mayer bond orders larger than 0.100000
B(  0-S ,  1-C ) :   1.1428 B(  0-S ,  4-C ) :   1.1600 B(  1-C ,  2-C ) :   1.6308
B(  1-C , 32-H ) :   0.9569 B(  2-C ,  3-C ) :   1.2377 B(  2-C ,  6-C ) :   1.0213
B(  3-C ,  4-C ) :   1.5618 B(  3-C ,  5-H ) :   0.9829 B(  4-C , 20-C ) :   1.0594
B(  6-C ,  7-H ) :   0.9506 B(  6-C ,  8-H ) :   0.9285 B(  6-C ,  9-C ) :   1.0572
B(  9-C , 10-H ) :   0.9619 B(  9-C , 11-H ) :   0.9547 B(  9-C , 12-C ) :   1.0690
B( 12-C , 13-H ) :   0.9763 B( 12-C , 14-H ) :   0.9758 B( 12-C , 15-H ) :   0.9777
B( 16-S , 17-C ) :   1.1236 B( 16-S , 20-C ) :   1.1196 B( 17-C , 18-C ) :   1.6800
B( 17-C , 33-H ) :   0.9675 B( 18-C , 19-C ) :   1.1806 B( 18-C , 21-H ) :   0.9738
B( 19-C , 20-C ) :   1.6485 B( 19-C , 22-C ) :   1.0450 B( 22-C , 23-H ) :   0.9390
B( 22-C , 24-H ) :   0.9278 B( 22-C , 25-C ) :   1.0872 B( 25-C , 26-H ) :   0.9542
B( 25-C , 27-H ) :   0.9510 B( 25-C , 28-C ) :   1.0795 B( 28-C , 29-H ) :   0.9751
B( 28-C , 30-H ) :   0.9714 B( 28-C , 31-H ) :   0.9766

Dispersion correction           -0.014669723
FINAL SINGLE POINT ENERGY     -1339.873290859073

DIPOLE MOMENT
-------------
                                X             Y             Z
Electronic contribution:      8.28632       0.96690      28.61989
Nuclear contribution   :     -8.55203      -1.01899     -29.16251
                        -----------------------------------------
Total Dipole Moment    :     -0.26571      -0.05210      -0.54261
                        -----------------------------------------
Magnitude (a.u.)       :      0.60642
Magnitude (Debye)      :      1.54140

Rotational constants in cm-1:     0.019789     0.008664     0.006607
Rotational constants in MHz :   593.260257   259.752985   198.068470

                             ****ORCA TERMINATED NORMALLY****
TOTAL RUN TIME: 0 days 0 hours 0 minutes 34 seconds 316 msec
