                         Program Version 4.2.1 -  RELEASE  -
|  1> ! wB97X-D3 SP def2-SVP
|  2> %pal
|  3> nprocs 16
|  4> end
|  5>
|  6> * xyz 0 1
|  7> S 	 -45.5863 	 17.1426 	 83.0956
|  8> C 	 -45.1773 	 15.7275 	 82.2413
|  9> C 	 -44.5264 	 16.0308 	 81.0542
| 10> C 	 -44.3899 	 17.4738 	 80.8211
| 11> C 	 -44.9146 	 18.2262 	 81.8539
| 12> H 	 -44.0319 	 18.0364 	 80.0608
| 13> C 	 -44.0674 	 15.0616 	 79.979
| 14> H 	 -44.4631 	 15.3871 	 79.0354
| 15> H 	 -44.5676 	 14.092 	 80.2318
| 16> C 	 -42.5705 	 15.0181 	 79.7542
| 17> H 	 -42.3765 	 16.0836 	 79.5603
| 18> H 	 -42.128 	 14.6763 	 80.6564
| 19> C 	 -42.0124 	 14.068 	 78.6952
| 20> H 	 -40.941 	 14.1214 	 78.6835
| 21> H 	 -42.2645 	 12.9641 	 78.8425
| 22> H 	 -42.36 	 14.2287 	 77.6571
| 23> S 	 -46.7939 	 20.1005 	 81.8118
| 24> C 	 -46.4622 	 21.8231 	 82.0166
| 25> C 	 -45.1189 	 22.0157 	 81.9253
| 26> C 	 -44.3533 	 20.792 	 81.9333
| 27> C 	 -45.1685 	 19.649 	 81.9131
| 28> H 	 -44.7659 	 22.9911 	 81.8879
| 29> C 	 -42.855 	 20.8119 	 82.0328
| 30> H 	 -42.5961 	 20.0935 	 82.7575
| 31> H 	 -42.4563 	 21.7073 	 82.4475
| 32> C 	 -42.0873 	 20.4106 	 80.6871
| 33> H 	 -42.5588 	 21.0103 	 79.9335
| 34> H 	 -42.4596 	 19.401 	 80.4603
| 35> C 	 -40.5378 	 20.5443 	 80.5355
| 36> H 	 -40.3052 	 20.7477 	 79.4837
| 37> H 	 -40.0815 	 19.5929 	 80.813
| 38> H 	 -40.0576 	 21.3084 	 81.1075
| 39> H 	 -45.3285 	 14.7489 	 82.6516
| 40> H 	 -47.2041 	 22.5772 	 82.0795
| 41> *
| 42>
| 43>                          ****END OF INPUT****

CARTESIAN COORDINATES (ANGSTROEM)
---------------------------------
  S    -45.586300   17.142600   83.095600
  C    -45.177300   15.727500   82.241300
  C    -44.526400   16.030800   81.054200
  C    -44.389900   17.473800   80.821100
  C    -44.914600   18.226200   81.853900
  H    -44.031900   18.036400   80.060800
  C    -44.067400   15.061600   79.979000
  H    -44.463100   15.387100   79.035400
  H    -44.567600   14.092000   80.231800
  C    -42.570500   15.018100   79.754200
  H    -42.376500   16.083600   79.560300
  H    -42.128000   14.676300   80.656400
  C    -42.012400   14.068000   78.695200
  H    -40.941000   14.121400   78.683500
  H    -42.264500   12.964100   78.842500
  H    -42.360000   14.228700   77.657100
  S    -46.793900   20.100500   81.811800
  C    -46.462200   21.823100   82.016600
  C    -45.118900   22.015700   81.925300
  C    -44.353300   20.792000   81.933300
  C    -45.168500   19.649000   81.913100
  H    -44.765900   22.991100   81.887900
  C    -42.855000   20.811900   82.032800
  H    -42.596100   20.093500   82.757500
  H    -42.456300   21.707300   82.447500
  C    -42.087300   20.410600   80.687100
  H    -42.558800   21.010300   79.933500
  H    -42.459600   19.401000   80.460300
  C    -40.537800   20.544300   80.535500
  H    -40.305200   20.747700   79.483700
  H    -40.081500   19.592900   80.813000
  H    -40.057600   21.308400   81.107500
  H    -45.328500   14.748900   82.651600
  H    -47.204100   22.577200   82.079500

 Total Charge           Charge          ....    0
 Multiplicity           Mult            ....    1
 Number of Electrons    NEL             ....  134
 Basis Dimension        Dim             ....  322

ORBITAL ENERGIES
----------------

  NO   OCC          E(Eh)            E(eV)
   0   2.0000     -88.963759     -2420.8269
   1   2.0000     -88.961231     -2420.7582
   2   2.0000     -10.330903      -281.1182
   3   2.0000     -10.323840      -280.9260
   4   2.0000     -10.315675      -280.7038
   5   2.0000     -10.313307      -280.6394
   6   2.0000     -10.307657      -280.4856
   7   2.0000     -10.305372      -280.4234
   8   2.0000     -10.293987      -280.1136
   9   2.0000     -10.289842      -280.0008
  10   2.0000     -10.289051      -279.9793
  11   2.0000     -10.287854      -279.9467
  12   2.0000     -10.285131      -279.8727
  13   2.0000     -10.284752      -279.8623
  14   2.0000     -10.284172      -279.8465
  15   2.0000     -10.280200      -279.7385
  16   2.0000      -8.079110      -219.8438
  17   2.0000      -8.077085      -219.7887
  18   2.0000      -6.037604      -164.2916
  19   2.0000      -6.035587      -164.2367
  20   2.0000      -6.033388      -164.1768
  21   2.0000      -6.031280      -164.1195
  22   2.0000      -6.029974      -164.0839
  23   2.0000      -6.027899      -164.0275
  24   2.0000      -1.011449       -27.5229
  25   2.0000      -0.986736       -26.8504
  26   2.0000      -0.913905       -24.8686
  27   2.0000      -0.898864       -24.4593
  28   2.0000      -0.879124       -23.9222
  29   2.0000      -0.849770       -23.1234
  30   2.0000      -0.844915       -22.9913
  31   2.0000      -0.824021       -22.4227
  32   2.0000      -0.781976       -21.2787
  33   2.0000      -0.771896       -21.0043
  34   2.0000      -0.710590       -19.3361
  35   2.0000      -0.701618       -19.0920
  36   2.0000      -0.692880       -18.8542
  37   2.0000      -0.668661       -18.1952
  38   2.0000      -0.657452       -17.8902
  39   2.0000      -0.617724       -16.8091
  40   2.0000      -0.595580       -16.2066
  41   2.0000      -0.578797       -15.7499
  42   2.0000      -0.565119       -15.3777
  43   2.0000      -0.555092       -15.1048
  44   2.0000      -0.524361       -14.2686
  45   2.0000      -0.522995       -14.2314
  46   2.0000      -0.519955       -14.1487
  47   2.0000      -0.516953       -14.0670
  48   2.0000      -0.510441       -13.8898
  49   2.0000      -0.506193       -13.7742
  50   2.0000      -0.500058       -13.6073
  51   2.0000      -0.480924       -13.0866
  52   2.0000      -0.475410       -12.9366
  53   2.0000      -0.467281       -12.7154
  54   2.0000      -0.460877       -12.5411
  55   2.0000      -0.451376       -12.2826
  56   2.0000      -0.443094       -12.0572
  57   2.0000      -0.428960       -11.6726
  58   2.0000      -0.427088       -11.6216
  59   2.0000      -0.422758       -11.5038
  60   2.0000      -0.421502       -11.4697
  61   2.0000      -0.417819       -11.3694
  62   2.0000      -0.413604       -11.2547
  63   2.0000      -0.348777        -9.4907
  64   2.0000      -0.326677        -8.8893
  65   2.0000      -0.324347        -8.8259
  66   2.0000      -0.301005        -8.1908
  67   0.0000       0.034780         0.9464
  68   0.0000       0.066754         1.8165
  69   0.0000       0.115543         3.1441
  70   0.0000       0.123665         3.3651
  71   0.0000       0.130719         3.5570

MULLIKEN ATOMIC CHARGES
-----------------------
   0 S :    0.111961
   1 C :   -0.109022
   2 C :   -0.087453
   3 C :    0.094434
   4 C :   -0.185680
   5 H :   -0.020457
   6 C :    0.079286
   7 H :    0.017714
   8 H :    0.017353
   9 C :   -0.060333
  10 H :    0.031668
  11 H :    0.021323
  12 C :   -0.056792
  13 H :    0.036129
  14 H :    0.035647
  15 H :    0.027010
  16 S :    0.110820
  17 C :   -0.081528
  18 C :   -0.009877
  19 C :   -0.041865
  20 C :   -0.167315
  21 H :   -0.005542
  22 C :    0.119454
  23 H :    0.018199
  24 H :    0.003449
  25 C :   -0.101486
  26 H :    0.019179
  27 H :    0.012363
  28 C :   -0.021740
  29 H :    0.035266
  30 H :    0.035837
  31 H :    0.028018
  32 H :    0.048926
  33 H :    0.045053
Sum of atomic charges:    0.0000000

LOEWDIN ATOMIC CHARGES
----------------------
   0 S :    0.412905
   1 C :   -0.203620
   2 C :   -0.059660
   3 C :   -0.043326
   4 C :   -0.187711
   5 H :    0.011560
   6 C :   -0.034254
   7 H :    0.026827
   8 H :    0.028009
   9 C :   -0.040382
  10 H :    0.028677
  11 H :    0.021851
  12 C :   -0.071698
  13 H :    0.025461
  14 H :    0.033424
  15 H :    0.023333
  16 S :    0.430160
  17 C :   -0.173575
  18 C :   -0.060504
  19 C :   -0.054017
  20 C :   -0.224154
  21 H :    0.021906
  22 C :   -0.027951
  23 H :    0.027168
  24 H :    0.022362
  25 C :   -0.040357
  26 H :    0.017057
  27 H :    0.020932
  28 C :   -0.064344
  29 H :    0.031765
  30 H :    0.028175
  31 H :    0.021950
  32 H :    0.028711
  33 H :    0.023321

  Mayer bond orders larger than 0.100000
B(  0-S ,  1-C ) :   1.1514 B(  0-S ,  4-C ) :   1.1465 B(  1-C ,  2-C ) :   1.6128
B(  1-C , 32-H ) :   0.9724 B(  2-C ,  3-C ) :   1.1924 B(  2-C ,  6-C ) :   1.0349
B(  3-C ,  4-C ) :   1.6073 B(  3-C ,  5-H ) :   0.9930 B(  4-C , 20-C ) :   1.0159
B(  6-C ,  7-H ) :   0.9374 B(  6-C ,  8-H ) :   0.9415 B(  6-C ,  9-C ) :   1.0556
B(  9-C , 10-H ) :   0.9557 B(  9-C , 11-H ) :   0.9542 B(  9-C , 12-C ) :   1.0864
B( 12-C , 13-H ) :   0.9747 B( 12-C , 14-H ) :   0.9724 B( 12-C , 15-H ) :   0.9731
B( 16-S , 17-C ) :   1.1496 B( 16-S , 20-C ) :   1.1779 B( 17-C , 18-C ) :   1.6002
B( 17-C , 33-H ) :   0.9759 B( 18-C , 19-C ) :   1.2407 B( 18-C , 21-H ) :   1.0051
B( 19-C , 20-C ) :   1.5620 B( 19-C , 22-C ) :   1.0577 B( 22-C , 23-H ) :   0.9281
B( 22-C , 24-H ) :   0.9356 B( 22-C , 25-C ) :   1.0422 B( 25-C , 26-H ) :   0.9664
B( 25-C , 27-H ) :   0.9534 B( 25-C , 28-C ) :   1.0679 B( 28-C , 29-H ) :   0.9766
B( 28-C , 30-H ) :   0.9779 B( 28-C , 31-H ) :   0.9780

Dispersion correction           -0.014024877
FINAL SINGLE POINT ENERGY     -1339.868953448952

DIPOLE MOMENT
-------------
                                X             Y             Z
Electronic contribution:    -26.01479       7.50561      15.57287
Nuclear contribution   :     26.47080      -7.47913     -15.91273
                        -----------------------------------------
Total Dipole Moment    :      0.45601       0.02647      -0.33986
                        -----------------------------------------
Magnitude (a.u.)       :      0.56934
Magnitude (Debye)      :      1.44715

Rotational constants in cm-1:     0.017274     0.009027     0.006563
Rotational constants in MHz :   517.874662   270.610314   196.759491

                             ****ORCA TERMINATED NORMALLY****
TOTAL RUN TIME: 0 days 0 hours 0 minutes 29 seconds 825 msec
