                         Program Version 4.2.1 -  RELEASE  -
|  1> ! wB97X-D3 SP def2-SVP
|  2> %pal
|  3> nprocs 16
|  4> end
|  5>
|  6> * xyz 0 1
|  7> S 	 13.6671 	 6.96242 	 82.9758
|  8> C 	 14.2016 	 8.5176 	 82.371
|  9> C 	 14.4017 	 9.49757 	 83.33
| 10> C 	 14.1078 	 8.98964 	 84.6142
| 11> C 	 13.7239 	 7.66943 	 84.6484
| 12> H 	 14.2649 	 9.54904 	 85.5119
| 13> C 	 15.0506 	 10.8175 	 83.0812
| 14> H 	 14.9458 	 11.1803 	 82.0835
| 15> H 	 16.0349 	 10.58 	 83.2349
| 16> C 	 14.7647 	 12.0735 	 84.0813
| 17> H 	 15.1768 	 11.985 	 85.0862
| 18> H 	 15.222 	 13.0149 	 83.8096
| 19> C 	 13.2673 	 12.451 	 84.0368
| 20> H 	 12.9513 	 12.7479 	 83.0721
| 21> H 	 12.5904 	 11.6573 	 84.2934
| 22> H 	 13.0819 	 13.2229 	 84.7348
| 23> S 	 14.2398 	 7.02612 	 87.3271
| 24> C 	 13.025 	 6.15116 	 88.1283
| 25> C 	 11.8568 	 5.91982 	 87.3993
| 26> C 	 12.0011 	 6.41666 	 86.0631
| 27> C 	 13.2559 	 7.00162 	 85.8518
| 28> H 	 11.0443 	 5.44874 	 87.8835
| 29> C 	 10.8652 	 6.44551 	 85.0644
| 30> H 	 10.4844 	 5.42558 	 85.1672
| 31> H 	 11.0883 	 6.60211 	 83.9519
| 32> C 	 9.67742 	 7.33832 	 85.5195
| 33> H 	 9.48315 	 7.13586 	 86.5266
| 34> H 	 8.80943 	 6.92473 	 84.9439
| 35> C 	 9.78363 	 8.8815 	 85.2954
| 36> H 	 10.0332 	 9.04479 	 84.2534
| 37> H 	 10.5304 	 9.2281 	 86.0232
| 38> H 	 8.92975 	 9.55513 	 85.5125
| 39> H 	 14.5154 	 8.61932 	 81.3231
| 40> H 	 13.0511 	 5.99902 	 89.1713
| 41> *
| 42>
| 43>                          ****END OF INPUT****

CARTESIAN COORDINATES (ANGSTROEM)
---------------------------------
  S     13.667100    6.962420   82.975800
  C     14.201600    8.517600   82.371000
  C     14.401700    9.497570   83.330000
  C     14.107800    8.989640   84.614200
  C     13.723900    7.669430   84.648400
  H     14.264900    9.549040   85.511900
  C     15.050600   10.817500   83.081200
  H     14.945800   11.180300   82.083500
  H     16.034900   10.580000   83.234900
  C     14.764700   12.073500   84.081300
  H     15.176800   11.985000   85.086200
  H     15.222000   13.014900   83.809600
  C     13.267300   12.451000   84.036800
  H     12.951300   12.747900   83.072100
  H     12.590400   11.657300   84.293400
  H     13.081900   13.222900   84.734800
  S     14.239800    7.026120   87.327100
  C     13.025000    6.151160   88.128300
  C     11.856800    5.919820   87.399300
  C     12.001100    6.416660   86.063100
  C     13.255900    7.001620   85.851800
  H     11.044300    5.448740   87.883500
  C     10.865200    6.445510   85.064400
  H     10.484400    5.425580   85.167200
  H     11.088300    6.602110   83.951900
  C      9.677420    7.338320   85.519500
  H      9.483150    7.135860   86.526600
  H      8.809430    6.924730   84.943900
  C      9.783630    8.881500   85.295400
  H     10.033200    9.044790   84.253400
  H     10.530400    9.228100   86.023200
  H      8.929750    9.555130   85.512500
  H     14.515400    8.619320   81.323100
  H     13.051100    5.999020   89.171300

 Total Charge           Charge          ....    0
 Multiplicity           Mult            ....    1
 Number of Electrons    NEL             ....  134
 Basis Dimension        Dim             ....  322

ORBITAL ENERGIES
----------------

  NO   OCC          E(Eh)            E(eV)
   0   2.0000     -88.968527     -2420.9567
   1   2.0000     -88.968311     -2420.9508
   2   2.0000     -10.329227      -281.0726
   3   2.0000     -10.323098      -280.9058
   4   2.0000     -10.313106      -280.6339
   5   2.0000     -10.311307      -280.5849
   6   2.0000     -10.304213      -280.3919
   7   2.0000     -10.300457      -280.2897
   8   2.0000     -10.294712      -280.1334
   9   2.0000     -10.294144      -280.1179
  10   2.0000     -10.293701      -280.1058
  11   2.0000     -10.290577      -280.0208
  12   2.0000     -10.289262      -279.9851
  13   2.0000     -10.284255      -279.8488
  14   2.0000     -10.275121      -279.6003
  15   2.0000     -10.266178      -279.3569
  16   2.0000      -8.083444      -219.9617
  17   2.0000      -8.081751      -219.9156
  18   2.0000      -6.041744      -164.4042
  19   2.0000      -6.040332      -164.3658
  20   2.0000      -6.038011      -164.3026
  21   2.0000      -6.036610      -164.2645
  22   2.0000      -6.034314      -164.2020
  23   2.0000      -6.032397      -164.1499
  24   2.0000      -1.002908       -27.2905
  25   2.0000      -0.981955       -26.7203
  26   2.0000      -0.905878       -24.6502
  27   2.0000      -0.902947       -24.5704
  28   2.0000      -0.867098       -23.5949
  29   2.0000      -0.851020       -23.1574
  30   2.0000      -0.845168       -22.9982
  31   2.0000      -0.813609       -22.1394
  32   2.0000      -0.784622       -21.3507
  33   2.0000      -0.769755       -20.9461
  34   2.0000      -0.711892       -19.3716
  35   2.0000      -0.700266       -19.0552
  36   2.0000      -0.689159       -18.7530
  37   2.0000      -0.661675       -18.0051
  38   2.0000      -0.635060       -17.2808
  39   2.0000      -0.622368       -16.9355
  40   2.0000      -0.599245       -16.3063
  41   2.0000      -0.563676       -15.3384
  42   2.0000      -0.554749       -15.0955
  43   2.0000      -0.542409       -14.7597
  44   2.0000      -0.536902       -14.6098
  45   2.0000      -0.535336       -14.5672
  46   2.0000      -0.515076       -14.0159
  47   2.0000      -0.514731       -14.0065
  48   2.0000      -0.492960       -13.4141
  49   2.0000      -0.491060       -13.3624
  50   2.0000      -0.486149       -13.2288
  51   2.0000      -0.475435       -12.9373
  52   2.0000      -0.472065       -12.8455
  53   2.0000      -0.466361       -12.6903
  54   2.0000      -0.462976       -12.5982
  55   2.0000      -0.451652       -12.2901
  56   2.0000      -0.444206       -12.0875
  57   2.0000      -0.439824       -11.9682
  58   2.0000      -0.438839       -11.9414
  59   2.0000      -0.426821       -11.6144
  60   2.0000      -0.424170       -11.5423
  61   2.0000      -0.413746       -11.2586
  62   2.0000      -0.399617       -10.8741
  63   2.0000      -0.346195        -9.4204
  64   2.0000      -0.332265        -9.0414
  65   2.0000      -0.327357        -8.9079
  66   2.0000      -0.285044        -7.7565
  67   0.0000       0.031159         0.8479
  68   0.0000       0.067969         1.8495
  69   0.0000       0.103751         2.8232
  70   0.0000       0.112072         3.0496
  71   0.0000       0.133478         3.6321

MULLIKEN ATOMIC CHARGES
-----------------------
   0 S :    0.107577
   1 C :   -0.151548
   2 C :   -0.057480
   3 C :    0.014645
   4 C :   -0.128303
   5 H :    0.005231
   6 C :    0.097641
   7 H :    0.023231
   8 H :    0.029512
   9 C :   -0.092659
  10 H :    0.028532
  11 H :    0.024231
  12 C :   -0.024645
  13 H :    0.017020
  14 H :    0.027899
  15 H :    0.020911
  16 S :    0.121564
  17 C :   -0.077398
  18 C :   -0.040327
  19 C :   -0.024377
  20 C :   -0.171761
  21 H :    0.010071
  22 C :    0.043953
  23 H :    0.026280
  24 H :    0.050217
  25 C :   -0.068456
  26 H :    0.007752
  27 H :    0.028897
  28 C :   -0.051047
  29 H :    0.035349
  30 H :    0.037531
  31 H :    0.036074
  32 H :    0.052007
  33 H :    0.041873
Sum of atomic charges:    0.0000000

LOEWDIN ATOMIC CHARGES
----------------------
   0 S :    0.384721
   1 C :   -0.199396
   2 C :   -0.060690
   3 C :   -0.055887
   4 C :   -0.168702
   5 H :    0.026906
   6 C :   -0.019270
   7 H :    0.029341
   8 H :    0.028440
   9 C :   -0.039088
  10 H :    0.021528
  11 H :    0.027312
  12 C :   -0.060071
  13 H :    0.019643
  14 H :    0.022030
  15 H :    0.020405
  16 S :    0.421215
  17 C :   -0.192141
  18 C :   -0.067403
  19 C :   -0.052841
  20 C :   -0.199456
  21 H :    0.027113
  22 C :   -0.040163
  23 H :    0.035771
  24 H :    0.031489
  25 C :   -0.034407
  26 H :    0.010856
  27 H :    0.025950
  28 C :   -0.072220
  29 H :    0.024710
  30 H :    0.029111
  31 H :    0.029250
  32 H :    0.027723
  33 H :    0.018217

  Mayer bond orders larger than 0.100000
B(  0-S ,  1-C ) :   1.1355 B(  0-S ,  4-C ) :   1.1230 B(  1-C ,  2-C ) :   1.6178
B(  1-C , 32-H ) :   0.9617 B(  2-C ,  3-C ) :   1.2415 B(  2-C ,  6-C ) :   1.0118
B(  3-C ,  4-C ) :   1.5838 B(  3-C ,  5-H ) :   0.9910 B(  4-C , 20-C ) :   1.0499
B(  6-C ,  7-H ) :   0.9452 B(  6-C ,  8-H ) :   0.9330 B(  6-C ,  9-C ) :   1.0662
B(  9-C , 10-H ) :   0.9571 B(  9-C , 11-H ) :   0.9581 B(  9-C , 12-C ) :   1.0705
B( 12-C , 13-H ) :   0.9754 B( 12-C , 14-H ) :   0.9774 B( 12-C , 15-H ) :   0.9747
B( 16-S , 17-C ) :   1.1769 B( 16-S , 20-C ) :   1.1353 B( 17-C , 18-C ) :   1.6029
B( 17-C , 33-H ) :   0.9662 B( 18-C , 19-C ) :   1.2335 B( 18-C , 21-H ) :   0.9970
B( 19-C , 20-C ) :   1.5806 B( 19-C , 22-C ) :   1.0364 B( 22-C , 23-H ) :   0.9221
B( 22-C , 24-H ) :   0.9367 B( 22-C , 25-C ) :   1.0766 B( 25-C , 26-H ) :   0.9576
B( 25-C , 27-H ) :   0.9567 B( 25-C , 28-C ) :   1.0632 B( 28-C , 29-H ) :   0.9767
B( 28-C , 30-H ) :   0.9765 B( 28-C , 31-H ) :   0.9760

Dispersion correction           -0.015425745
FINAL SINGLE POINT ENERGY     -1339.864667866680

DIPOLE MOMENT
-------------
                                X             Y             Z
Electronic contribution:     12.62985     -19.76216       3.31501
Nuclear contribution   :    -12.77392      20.23243      -3.21972
                        -----------------------------------------
Total Dipole Moment    :     -0.14407       0.47026       0.09529
                        -----------------------------------------
Magnitude (a.u.)       :      0.50098
Magnitude (Debye)      :      1.27340

Rotational constants in cm-1:     0.017946     0.008998     0.008597
Rotational constants in MHz :   537.993300   269.762721   257.744858

                             ****ORCA TERMINATED NORMALLY****
TOTAL RUN TIME: 0 days 0 hours 0 minutes 38 seconds 298 msec
