                         Program Version 4.2.1 -  RELEASE  -
|  1> ! wB97X-D3 SP def2-SVP
|  2> %pal
|  3> nprocs 16
|  4> end
|  5>
|  6> * xyz 0 1
|  7> S 	 4.62325 	 22.0754 	 62.841
|  8> C 	 6.37115 	 21.7686 	 62.9472
|  9> C 	 7.06119 	 22.9348 	 63.2034
| 10> C 	 6.22137 	 24.0636 	 62.9464
| 11> C 	 4.8685 	 23.7598 	 62.7878
| 12> H 	 6.47952 	 25.1109 	 62.9537
| 13> C 	 8.57153 	 22.8995 	 63.5113
| 14> H 	 9.20569 	 23.4348 	 62.75
| 15> H 	 8.93724 	 21.9293 	 63.5104
| 16> C 	 8.96196 	 23.5268 	 64.8776
| 17> H 	 10.0387 	 23.5331 	 64.983
| 18> H 	 8.63052 	 24.5688 	 64.8567
| 19> C 	 8.30944 	 22.7462 	 66.0838
| 20> H 	 8.3922 	 23.4488 	 66.9062
| 21> H 	 7.27365 	 22.6284 	 65.917
| 22> H 	 8.90384 	 21.8549 	 66.3365
| 23> S 	 2.62308 	 24.7749 	 63.8542
| 24> C 	 1.46176 	 25.721 	 62.9567
| 25> C 	 2.0306 	 26.0825 	 61.7458
| 26> C 	 3.24702 	 25.3486 	 61.4319
| 27> C 	 3.72354 	 24.6602 	 62.5445
| 28> H 	 1.42805 	 26.6774 	 61.0398
| 29> C 	 3.87308 	 25.4837 	 60.0783
| 30> H 	 4.74999 	 24.9061 	 60.0229
| 31> H 	 4.15072 	 26.5391 	 59.9035
| 32> C 	 3.02904 	 24.9773 	 58.9124
| 33> H 	 1.98656 	 25.392 	 58.934
| 34> H 	 2.99007 	 23.8882 	 59.0416
| 35> C 	 3.67496 	 25.3203 	 57.5669
| 36> H 	 3.05781 	 25.1049 	 56.7635
| 37> H 	 4.51959 	 24.6052 	 57.4022
| 38> H 	 4.02245 	 26.3299 	 57.4197
| 39> H 	 6.80955 	 20.8206 	 63.0407
| 40> H 	 0.635333 	 26.2249 	 63.3925
| 41> *
| 42>
| 43>                          ****END OF INPUT****

CARTESIAN COORDINATES (ANGSTROEM)
---------------------------------
  S      4.623250   22.075400   62.841000
  C      6.371150   21.768600   62.947200
  C      7.061190   22.934800   63.203400
  C      6.221370   24.063600   62.946400
  C      4.868500   23.759800   62.787800
  H      6.479520   25.110900   62.953700
  C      8.571530   22.899500   63.511300
  H      9.205690   23.434800   62.750000
  H      8.937240   21.929300   63.510400
  C      8.961960   23.526800   64.877600
  H     10.038700   23.533100   64.983000
  H      8.630520   24.568800   64.856700
  C      8.309440   22.746200   66.083800
  H      8.392200   23.448800   66.906200
  H      7.273650   22.628400   65.917000
  H      8.903840   21.854900   66.336500
  S      2.623080   24.774900   63.854200
  C      1.461760   25.721000   62.956700
  C      2.030600   26.082500   61.745800
  C      3.247020   25.348600   61.431900
  C      3.723540   24.660200   62.544500
  H      1.428050   26.677400   61.039800
  C      3.873080   25.483700   60.078300
  H      4.749990   24.906100   60.022900
  H      4.150720   26.539100   59.903500
  C      3.029040   24.977300   58.912400
  H      1.986560   25.392000   58.934000
  H      2.990070   23.888200   59.041600
  C      3.674960   25.320300   57.566900
  H      3.057810   25.104900   56.763500
  H      4.519590   24.605200   57.402200
  H      4.022450   26.329900   57.419700
  H      6.809550   20.820600   63.040700
  H      0.635333   26.224900   63.392500

 Total Charge           Charge          ....    0
 Multiplicity           Mult            ....    1
 Number of Electrons    NEL             ....  134
 Basis Dimension        Dim             ....  322

ORBITAL ENERGIES
----------------

  NO   OCC          E(Eh)            E(eV)
   0   2.0000     -88.966051     -2420.8893
   1   2.0000     -88.961772     -2420.7729
   2   2.0000     -10.328810      -281.0612
   3   2.0000     -10.326877      -281.0086
   4   2.0000     -10.314964      -280.6844
   5   2.0000     -10.312238      -280.6103
   6   2.0000     -10.306010      -280.4408
   7   2.0000     -10.305560      -280.4285
   8   2.0000     -10.297355      -280.2053
   9   2.0000     -10.296934      -280.1938
  10   2.0000     -10.292821      -280.0819
  11   2.0000     -10.287532      -279.9380
  12   2.0000     -10.287388      -279.9341
  13   2.0000     -10.283996      -279.8418
  14   2.0000     -10.273231      -279.5488
  15   2.0000     -10.272225      -279.5215
  16   2.0000      -8.081200      -219.9006
  17   2.0000      -8.077455      -219.7987
  18   2.0000      -6.039606      -164.3460
  19   2.0000      -6.035967      -164.2470
  20   2.0000      -6.035622      -164.2376
  21   2.0000      -6.032042      -164.1402
  22   2.0000      -6.031614      -164.1286
  23   2.0000      -6.028365      -164.0401
  24   2.0000      -1.010083       -27.4858
  25   2.0000      -0.986420       -26.8419
  26   2.0000      -0.912021       -24.8173
  27   2.0000      -0.907681       -24.6993
  28   2.0000      -0.867527       -23.6066
  29   2.0000      -0.848600       -23.0916
  30   2.0000      -0.841122       -22.8881
  31   2.0000      -0.816087       -22.2069
  32   2.0000      -0.784459       -21.3462
  33   2.0000      -0.775027       -21.0896
  34   2.0000      -0.707619       -19.2553
  35   2.0000      -0.695578       -18.9276
  36   2.0000      -0.689386       -18.7591
  37   2.0000      -0.658461       -17.9176
  38   2.0000      -0.646640       -17.5960
  39   2.0000      -0.619177       -16.8487
  40   2.0000      -0.600276       -16.3343
  41   2.0000      -0.570448       -15.5227
  42   2.0000      -0.566536       -15.4162
  43   2.0000      -0.548837       -14.9346
  44   2.0000      -0.541019       -14.7219
  45   2.0000      -0.519614       -14.1394
  46   2.0000      -0.516967       -14.0674
  47   2.0000      -0.515068       -14.0157
  48   2.0000      -0.506450       -13.7812
  49   2.0000      -0.501632       -13.6501
  50   2.0000      -0.491021       -13.3614
  51   2.0000      -0.476242       -12.9592
  52   2.0000      -0.469898       -12.7866
  53   2.0000      -0.467655       -12.7256
  54   2.0000      -0.458379       -12.4731
  55   2.0000      -0.448955       -12.2167
  56   2.0000      -0.445831       -12.1317
  57   2.0000      -0.433748       -11.8029
  58   2.0000      -0.429372       -11.6838
  59   2.0000      -0.421772       -11.4770
  60   2.0000      -0.419630       -11.4187
  61   2.0000      -0.417340       -11.3564
  62   2.0000      -0.416089       -11.3223
  63   2.0000      -0.335365        -9.1257
  64   2.0000      -0.334533        -9.1031
  65   2.0000      -0.323592        -8.8054
  66   2.0000      -0.306521        -8.3409
  67   0.0000       0.043874         1.1939
  68   0.0000       0.057341         1.5603
  69   0.0000       0.114359         3.1119
  70   0.0000       0.117346         3.1931
  71   0.0000       0.130326         3.5464

MULLIKEN ATOMIC CHARGES
-----------------------
   0 S :    0.125585
   1 C :   -0.105572
   2 C :   -0.082776
   3 C :    0.050816
   4 C :   -0.176532
   5 H :    0.007166
   6 C :    0.091092
   7 H :    0.040746
   8 H :   -0.005907
   9 C :   -0.110846
  10 H :    0.029755
  11 H :    0.031505
  12 C :   -0.040503
  13 H :    0.025682
  14 H :    0.042103
  15 H :    0.041365
  16 S :    0.099805
  17 C :   -0.083480
  18 C :   -0.047682
  19 C :   -0.025050
  20 C :   -0.170972
  21 H :    0.034873
  22 C :    0.091996
  23 H :    0.006664
  24 H :    0.033040
  25 C :   -0.119018
  26 H :    0.035031
  27 H :    0.038762
  28 C :   -0.016132
  29 H :    0.014468
  30 H :    0.028149
  31 H :    0.028948
  32 H :    0.031357
  33 H :    0.055561
Sum of atomic charges:   -0.0000000

LOEWDIN ATOMIC CHARGES
----------------------
   0 S :    0.420650
   1 C :   -0.178668
   2 C :   -0.059477
   3 C :   -0.061492
   4 C :   -0.217079
   5 H :    0.030200
   6 C :   -0.027326
   7 H :    0.036812
   8 H :    0.016011
   9 C :   -0.037339
  10 H :    0.021610
  11 H :    0.021044
  12 C :   -0.061748
  13 H :    0.026520
  14 H :    0.021893
  15 H :    0.028645
  16 S :    0.422029
  17 C :   -0.185906
  18 C :   -0.069594
  19 C :   -0.054252
  20 C :   -0.215702
  21 H :    0.033687
  22 C :   -0.032184
  23 H :    0.024403
  24 H :    0.034280
  25 C :   -0.038828
  26 H :    0.022489
  27 H :    0.029885
  28 C :   -0.064050
  29 H :    0.016877
  30 H :    0.031819
  31 H :    0.023014
  32 H :    0.016548
  33 H :    0.025226

  Mayer bond orders larger than 0.100000
B(  0-S ,  1-C ) :   1.1456 B(  0-S ,  4-C ) :   1.1706 B(  1-C ,  2-C ) :   1.6016
B(  1-C ,  4-C ) :   0.1014 B(  1-C , 32-H ) :   0.9732 B(  2-C ,  3-C ) :   1.2181
B(  2-C ,  6-C ) :   1.0273 B(  3-C ,  4-C ) :   1.5876 B(  3-C ,  5-H ) :   0.9993
B(  4-C , 20-C ) :   0.9853 B(  6-C ,  7-H ) :   0.9444 B(  6-C ,  8-H ) :   0.9395
B(  6-C ,  9-C ) :   1.0659 B(  9-C , 10-H ) :   0.9587 B(  9-C , 11-H ) :   0.9632
B(  9-C , 12-C ) :   1.0687 B( 12-C , 13-H ) :   0.9751 B( 12-C , 14-H ) :   0.9778
B( 12-C , 15-H ) :   0.9770 B( 16-S , 17-C ) :   1.1566 B( 16-S , 20-C ) :   1.1647
B( 17-C , 18-C ) :   1.6181 B( 17-C , 33-H ) :   0.9686 B( 18-C , 19-C ) :   1.2279
B( 18-C , 21-H ) :   0.9783 B( 19-C , 20-C ) :   1.5990 B( 19-C , 22-C ) :   1.0597
B( 22-C , 23-H ) :   0.9290 B( 22-C , 24-H ) :   0.9365 B( 22-C , 25-C ) :   1.0569
B( 25-C , 26-H ) :   0.9607 B( 25-C , 27-H ) :   0.9537 B( 25-C , 28-C ) :   1.0868
B( 28-C , 29-H ) :   0.9714 B( 28-C , 30-H ) :   0.9715 B( 28-C , 31-H ) :   0.9749

Dispersion correction           -0.013857177
FINAL SINGLE POINT ENERGY     -1339.878768039895

DIPOLE MOMENT
-------------
                                X             Y             Z
Electronic contribution:    -15.14243      -3.95178       9.23736
Nuclear contribution   :     15.50780       4.20221      -9.50519
                        -----------------------------------------
Total Dipole Moment    :      0.36537       0.25044      -0.26783
                        -----------------------------------------
Magnitude (a.u.)       :      0.51764
Magnitude (Debye)      :      1.31573

Rotational constants in cm-1:     0.020717     0.007664     0.006507
Rotational constants in MHz :   621.088721   229.747432   195.065666

                             ****ORCA TERMINATED NORMALLY****
TOTAL RUN TIME: 0 days 0 hours 0 minutes 34 seconds 792 msec
