                         Program Version 4.2.1 -  RELEASE  -
|  1> ! wB97X-D3 SP def2-SVP
|  2> %pal
|  3> nprocs 16
|  4> end
|  5>
|  6> * xyz 0 1
|  7> S 	 -67.8429 	 35.0022 	 141.219
|  8> C 	 -68.2778 	 33.343 	 140.698
|  9> C 	 -67.6822 	 32.9591 	 139.55
| 10> C 	 -67.028 	 34.0705 	 138.904
| 11> C 	 -67.1568 	 35.2275 	 139.635
| 12> H 	 -66.6264 	 34.1352 	 137.943
| 13> C 	 -67.9295 	 31.6356 	 138.752
| 14> H 	 -67.0307 	 31.2364 	 138.481
| 15> H 	 -68.2441 	 31.9816 	 137.749
| 16> C 	 -68.9265 	 30.6616 	 139.386
| 17> H 	 -69.7592 	 31.1924 	 139.807
| 18> H 	 -69.3388 	 30.0634 	 138.586
| 19> C 	 -68.3416 	 29.7447 	 140.479
| 20> H 	 -69.1177 	 29.1417 	 140.926
| 21> H 	 -67.5137 	 29.0899 	 140.027
| 22> H 	 -67.8051 	 30.3461 	 141.226
| 23> S 	 -65.6931 	 37.5693 	 139.916
| 24> C 	 -65.5247 	 38.5934 	 138.596
| 25> C 	 -66.582 	 38.4081 	 137.705
| 26> C 	 -67.2846 	 37.1958 	 137.99
| 27> C 	 -66.833 	 36.5547 	 139.098
| 28> H 	 -66.7112 	 39.0956 	 136.899
| 29> C 	 -68.3376 	 36.7705 	 136.995
| 30> H 	 -68.3672 	 35.6836 	 137.157
| 31> H 	 -68.0619 	 37.0572 	 136.012
| 32> C 	 -69.7149 	 37.459 	 137.213
| 33> H 	 -70.3922 	 37.093 	 136.519
| 34> H 	 -69.6972 	 38.5409 	 137.119
| 35> C 	 -70.1032 	 37.2354 	 138.65
| 36> H 	 -71.0627 	 37.4291 	 138.898
| 37> H 	 -69.5018 	 37.8221 	 139.277
| 38> H 	 -69.8485 	 36.2051 	 138.987
| 39> H 	 -68.8134 	 32.5201 	 141.211
| 40> H 	 -64.9313 	 39.4846 	 138.465
| 41> *
| 42>
| 43>                          ****END OF INPUT****

CARTESIAN COORDINATES (ANGSTROEM)
---------------------------------
  S    -67.842900   35.002200  141.219000
  C    -68.277800   33.343000  140.698000
  C    -67.682200   32.959100  139.550000
  C    -67.028000   34.070500  138.904000
  C    -67.156800   35.227500  139.635000
  H    -66.626400   34.135200  137.943000
  C    -67.929500   31.635600  138.752000
  H    -67.030700   31.236400  138.481000
  H    -68.244100   31.981600  137.749000
  C    -68.926500   30.661600  139.386000
  H    -69.759200   31.192400  139.807000
  H    -69.338800   30.063400  138.586000
  C    -68.341600   29.744700  140.479000
  H    -69.117700   29.141700  140.926000
  H    -67.513700   29.089900  140.027000
  H    -67.805100   30.346100  141.226000
  S    -65.693100   37.569300  139.916000
  C    -65.524700   38.593400  138.596000
  C    -66.582000   38.408100  137.705000
  C    -67.284600   37.195800  137.990000
  C    -66.833000   36.554700  139.098000
  H    -66.711200   39.095600  136.899000
  C    -68.337600   36.770500  136.995000
  H    -68.367200   35.683600  137.157000
  H    -68.061900   37.057200  136.012000
  C    -69.714900   37.459000  137.213000
  H    -70.392200   37.093000  136.519000
  H    -69.697200   38.540900  137.119000
  C    -70.103200   37.235400  138.650000
  H    -71.062700   37.429100  138.898000
  H    -69.501800   37.822100  139.277000
  H    -69.848500   36.205100  138.987000
  H    -68.813400   32.520100  141.211000
  H    -64.931300   39.484600  138.465000

 Total Charge           Charge          ....    0
 Multiplicity           Mult            ....    1
 Number of Electrons    NEL             ....  134
 Basis Dimension        Dim             ....  322

ORBITAL ENERGIES
----------------

  NO   OCC          E(Eh)            E(eV)
   0   2.0000     -88.969936     -2420.9951
   1   2.0000     -88.962412     -2420.7903
   2   2.0000     -10.329071      -281.0683
   3   2.0000     -10.319628      -280.8114
   4   2.0000     -10.312756      -280.6243
   5   2.0000     -10.311119      -280.5798
   6   2.0000     -10.301498      -280.3180
   7   2.0000     -10.296881      -280.1924
   8   2.0000     -10.294203      -280.1195
   9   2.0000     -10.289876      -280.0018
  10   2.0000     -10.288781      -279.9720
  11   2.0000     -10.287664      -279.9416
  12   2.0000     -10.286657      -279.9142
  13   2.0000     -10.284984      -279.8686
  14   2.0000     -10.275330      -279.6060
  15   2.0000     -10.251676      -278.9623
  16   2.0000      -8.083953      -219.9755
  17   2.0000      -8.078964      -219.8398
  18   2.0000      -6.042620      -164.4280
  19   2.0000      -6.038880      -164.3263
  20   2.0000      -6.037381      -164.2855
  21   2.0000      -6.034249      -164.2003
  22   2.0000      -6.033232      -164.1726
  23   2.0000      -6.029702      -164.0765
  24   2.0000      -1.014535       -27.6069
  25   2.0000      -0.989310       -26.9205
  26   2.0000      -0.914211       -24.8769
  27   2.0000      -0.913009       -24.8442
  28   2.0000      -0.867921       -23.6173
  29   2.0000      -0.853207       -23.2169
  30   2.0000      -0.846231       -23.0271
  31   2.0000      -0.811648       -22.0861
  32   2.0000      -0.788676       -21.4610
  33   2.0000      -0.778441       -21.1824
  34   2.0000      -0.713123       -19.4051
  35   2.0000      -0.706240       -19.2178
  36   2.0000      -0.694027       -18.8854
  37   2.0000      -0.662885       -18.0380
  38   2.0000      -0.636622       -17.3234
  39   2.0000      -0.614255       -16.7147
  40   2.0000      -0.591765       -16.1027
  41   2.0000      -0.580754       -15.8031
  42   2.0000      -0.557417       -15.1681
  43   2.0000      -0.550527       -14.9806
  44   2.0000      -0.548592       -14.9279
  45   2.0000      -0.533222       -14.5097
  46   2.0000      -0.521265       -14.1843
  47   2.0000      -0.513767       -13.9803
  48   2.0000      -0.507428       -13.8078
  49   2.0000      -0.499000       -13.5785
  50   2.0000      -0.491304       -13.3691
  51   2.0000      -0.481896       -13.1130
  52   2.0000      -0.471667       -12.8347
  53   2.0000      -0.469215       -12.7680
  54   2.0000      -0.452277       -12.3071
  55   2.0000      -0.445510       -12.1230
  56   2.0000      -0.440695       -11.9919
  57   2.0000      -0.439107       -11.9487
  58   2.0000      -0.435406       -11.8480
  59   2.0000      -0.428178       -11.6513
  60   2.0000      -0.424138       -11.5414
  61   2.0000      -0.420198       -11.4342
  62   2.0000      -0.409540       -11.1442
  63   2.0000      -0.342868        -9.3299
  64   2.0000      -0.332626        -9.0512
  65   2.0000      -0.325546        -8.8586
  66   2.0000      -0.296828        -8.0771
  67   0.0000       0.040108         1.0914
  68   0.0000       0.062827         1.7096
  69   0.0000       0.103068         2.8046
  70   0.0000       0.119270         3.2455
  71   0.0000       0.130477         3.5505

MULLIKEN ATOMIC CHARGES
-----------------------
   0 S :    0.123651
   1 C :   -0.133255
   2 C :   -0.087577
   3 C :    0.049891
   4 C :   -0.163432
   5 H :   -0.003394
   6 C :    0.103228
   7 H :    0.000016
   8 H :    0.026171
   9 C :   -0.064270
  10 H :    0.026754
  11 H :    0.027614
  12 C :   -0.070564
  13 H :    0.046000
  14 H :    0.038506
  15 H :    0.036001
  16 S :    0.119858
  17 C :   -0.074211
  18 C :   -0.057066
  19 C :   -0.059096
  20 C :   -0.173867
  21 H :    0.010294
  22 C :    0.096117
  23 H :    0.024658
  24 H :    0.010113
  25 C :   -0.034048
  26 H :    0.017441
  27 H :    0.022871
  28 C :   -0.000217
  29 H :    0.001553
  30 H :    0.020471
  31 H :    0.019860
  32 H :    0.047872
  33 H :    0.052059
Sum of atomic charges:    0.0000000

LOEWDIN ATOMIC CHARGES
----------------------
   0 S :    0.387402
   1 C :   -0.199414
   2 C :   -0.055512
   3 C :   -0.053567
   4 C :   -0.183886
   5 H :    0.022781
   6 C :   -0.020245
   7 H :    0.018103
   8 H :    0.038475
   9 C :   -0.042887
  10 H :    0.021348
  11 H :    0.027173
  12 C :   -0.068173
  13 H :    0.025941
  14 H :    0.033297
  15 H :    0.024073
  16 S :    0.436241
  17 C :   -0.203831
  18 C :   -0.070712
  19 C :   -0.055986
  20 C :   -0.214087
  21 H :    0.025715
  22 C :   -0.021836
  23 H :    0.030707
  24 H :    0.022222
  25 C :   -0.026517
  26 H :    0.013545
  27 H :    0.024232
  28 C :   -0.053403
  29 H :    0.006799
  30 H :    0.020371
  31 H :    0.026070
  32 H :    0.034303
  33 H :    0.031256

  Mayer bond orders larger than 0.100000
B(  0-S ,  1-C ) :   1.0905 B(  0-S ,  4-C ) :   1.1315 B(  1-C ,  2-C ) :   1.7220
B(  1-C , 32-H ) :   0.9426 B(  2-C ,  3-C ) :   1.1710 B(  2-C ,  6-C ) :   0.9964
B(  3-C ,  4-C ) :   1.6392 B(  3-C ,  5-H ) :   1.0016 B(  4-C , 20-C ) :   1.0144
B(  6-C ,  7-H ) :   0.9315 B(  6-C ,  8-H ) :   0.9419 B(  6-C ,  9-C ) :   1.0714
B(  9-C , 10-H ) :   0.9536 B(  9-C , 11-H ) :   0.9510 B(  9-C , 12-C ) :   1.0737
B( 12-C , 13-H ) :   0.9755 B( 12-C , 14-H ) :   0.9733 B( 12-C , 15-H ) :   0.9768
B( 16-S , 17-C ) :   1.1816 B( 16-S , 20-C ) :   1.1354 B( 17-C , 18-C ) :   1.5965
B( 17-C , 33-H ) :   0.9657 B( 18-C , 19-C ) :   1.2377 B( 18-C , 21-H ) :   0.9960
B( 19-C , 20-C ) :   1.6008 B( 19-C , 22-C ) :   1.0373 B( 22-C , 23-H ) :   0.9327
B( 22-C , 24-H ) :   0.9328 B( 22-C , 25-C ) :   1.0781 B( 25-C , 26-H ) :   0.9582
B( 25-C , 27-H ) :   0.9556 B( 25-C , 28-C ) :   1.0754 B( 28-C , 29-H ) :   0.9703
B( 28-C , 30-H ) :   0.9644 B( 28-C , 31-H ) :   0.9758

Dispersion correction           -0.015697922
FINAL SINGLE POINT ENERGY     -1339.850544140505

DIPOLE MOMENT
-------------
                                X             Y             Z
Electronic contribution:     14.63533      15.60029      10.13948
Nuclear contribution   :    -14.89862     -15.84356     -10.79076
                        -----------------------------------------
Total Dipole Moment    :     -0.26329      -0.24327      -0.65128
                        -----------------------------------------
Magnitude (a.u.)       :      0.74342
Magnitude (Debye)      :      1.88961

Rotational constants in cm-1:     0.024538     0.007931     0.007071
Rotational constants in MHz :   735.642813   237.751777   211.995074

                             ****ORCA TERMINATED NORMALLY****
TOTAL RUN TIME: 0 days 0 hours 0 minutes 36 seconds 616 msec
