                         Program Version 4.2.1 -  RELEASE  -
|  1> ! wB97X-D3 SP def2-SVP
|  2> %pal
|  3> nprocs 16
|  4> end
|  5>
|  6> * xyz 0 1
|  7> S 	 -93.5819 	 56.0594 	 126.161
|  8> C 	 -92.2799 	 54.8844 	 126.028
|  9> C 	 -92.7275 	 53.6504 	 125.597
| 10> C 	 -94.1239 	 53.6593 	 125.447
| 11> C 	 -94.7088 	 54.833 	 125.639
| 12> H 	 -94.7456 	 52.8255 	 125.221
| 13> C 	 -91.8466 	 52.4513 	 125.164
| 14> H 	 -92.6105 	 51.6368 	 125.101
| 15> H 	 -91.2309 	 51.9828 	 125.979
| 16> C 	 -91.1192 	 52.4738 	 123.782
| 17> H 	 -90.1679 	 53.1106 	 123.825
| 18> H 	 -90.678 	 51.502 	 123.613
| 19> C 	 -92.0672 	 52.8754 	 122.638
| 20> H 	 -92.9278 	 52.2238 	 122.481
| 21> H 	 -92.4072 	 53.9027 	 122.78
| 22> H 	 -91.5801 	 52.9002 	 121.682
| 23> S 	 -96.9578 	 55.6658 	 126.971
| 24> C 	 -98.5624 	 55.432 	 126.252
| 25> C 	 -98.4616 	 55.2563 	 124.889
| 26> C 	 -97.111 	 54.9524 	 124.483
| 27> C 	 -96.1703 	 55.0795 	 125.518
| 28> H 	 -99.3008 	 55.355 	 124.226
| 29> C 	 -96.8139 	 54.328 	 123.16
| 30> H 	 -95.7209 	 54.4733 	 122.864
| 31> H 	 -97.548 	 54.8647 	 122.531
| 32> C 	 -97.1026 	 52.7969 	 123.152
| 33> H 	 -98.1155 	 52.5264 	 123.44
| 34> H 	 -96.5183 	 52.3206 	 123.923
| 35> C 	 -96.8566 	 52.1468 	 121.785
| 36> H 	 -95.8906 	 52.4669 	 121.393
| 37> H 	 -97.5296 	 52.4672 	 121.034
| 38> H 	 -96.9636 	 51.045 	 121.835
| 39> H 	 -91.2532 	 55.1916 	 126.06
| 40> H 	 -99.4459 	 55.6946 	 126.827
| 41> *
| 42>
| 43>                          ****END OF INPUT****

CARTESIAN COORDINATES (ANGSTROEM)
---------------------------------
  S    -93.581900   56.059400  126.161000
  C    -92.279900   54.884400  126.028000
  C    -92.727500   53.650400  125.597000
  C    -94.123900   53.659300  125.447000
  C    -94.708800   54.833000  125.639000
  H    -94.745600   52.825500  125.221000
  C    -91.846600   52.451300  125.164000
  H    -92.610500   51.636800  125.101000
  H    -91.230900   51.982800  125.979000
  C    -91.119200   52.473800  123.782000
  H    -90.167900   53.110600  123.825000
  H    -90.678000   51.502000  123.613000
  C    -92.067200   52.875400  122.638000
  H    -92.927800   52.223800  122.481000
  H    -92.407200   53.902700  122.780000
  H    -91.580100   52.900200  121.682000
  S    -96.957800   55.665800  126.971000
  C    -98.562400   55.432000  126.252000
  C    -98.461600   55.256300  124.889000
  C    -97.111000   54.952400  124.483000
  C    -96.170300   55.079500  125.518000
  H    -99.300800   55.355000  124.226000
  C    -96.813900   54.328000  123.160000
  H    -95.720900   54.473300  122.864000
  H    -97.548000   54.864700  122.531000
  C    -97.102600   52.796900  123.152000
  H    -98.115500   52.526400  123.440000
  H    -96.518300   52.320600  123.923000
  C    -96.856600   52.146800  121.785000
  H    -95.890600   52.466900  121.393000
  H    -97.529600   52.467200  121.034000
  H    -96.963600   51.045000  121.835000
  H    -91.253200   55.191600  126.060000
  H    -99.445900   55.694600  126.827000

 Total Charge           Charge          ....    0
 Multiplicity           Mult            ....    1
 Number of Electrons    NEL             ....  134
 Basis Dimension        Dim             ....  322

ORBITAL ENERGIES
----------------

  NO   OCC          E(Eh)            E(eV)
   0   2.0000     -88.966787     -2420.9094
   1   2.0000     -88.960293     -2420.7326
   2   2.0000     -10.327092      -281.0145
   3   2.0000     -10.324352      -280.9399
   4   2.0000     -10.320304      -280.8298
   5   2.0000     -10.313537      -280.6456
   6   2.0000     -10.304637      -280.4034
   7   2.0000     -10.302330      -280.3407
   8   2.0000     -10.302223      -280.3377
   9   2.0000     -10.298408      -280.2339
  10   2.0000     -10.297985      -280.2224
  11   2.0000     -10.297806      -280.2175
  12   2.0000     -10.286708      -279.9156
  13   2.0000     -10.283830      -279.8372
  14   2.0000     -10.276751      -279.6446
  15   2.0000     -10.276712      -279.6436
  16   2.0000      -8.081713      -219.9146
  17   2.0000      -8.075039      -219.7330
  18   2.0000      -6.040200      -164.3622
  19   2.0000      -6.036272      -164.2553
  20   2.0000      -6.033628      -164.1834
  21   2.0000      -6.032406      -164.1501
  22   2.0000      -6.029556      -164.0726
  23   2.0000      -6.025711      -163.9679
  24   2.0000      -1.009020       -27.4568
  25   2.0000      -0.984344       -26.7854
  26   2.0000      -0.907753       -24.7012
  27   2.0000      -0.903263       -24.5790
  28   2.0000      -0.867142       -23.5961
  29   2.0000      -0.852302       -23.1923
  30   2.0000      -0.847648       -23.0657
  31   2.0000      -0.816236       -22.2109
  32   2.0000      -0.781877       -21.2760
  33   2.0000      -0.767985       -20.8979
  34   2.0000      -0.706708       -19.2305
  35   2.0000      -0.704961       -19.1830
  36   2.0000      -0.691252       -18.8099
  37   2.0000      -0.665668       -18.1137
  38   2.0000      -0.646726       -17.5983
  39   2.0000      -0.615165       -16.7395
  40   2.0000      -0.593625       -16.1534
  41   2.0000      -0.568172       -15.4607
  42   2.0000      -0.560958       -15.2644
  43   2.0000      -0.547886       -14.9087
  44   2.0000      -0.538283       -14.6474
  45   2.0000      -0.524767       -14.2796
  46   2.0000      -0.520000       -14.1499
  47   2.0000      -0.510310       -13.8862
  48   2.0000      -0.505984       -13.7685
  49   2.0000      -0.491794       -13.3824
  50   2.0000      -0.489047       -13.3076
  51   2.0000      -0.479683       -13.0528
  52   2.0000      -0.467743       -12.7279
  53   2.0000      -0.463839       -12.6217
  54   2.0000      -0.455753       -12.4017
  55   2.0000      -0.451496       -12.2858
  56   2.0000      -0.442695       -12.0463
  57   2.0000      -0.440972       -11.9995
  58   2.0000      -0.437167       -11.8959
  59   2.0000      -0.431976       -11.7547
  60   2.0000      -0.420718       -11.4483
  61   2.0000      -0.414853       -11.2887
  62   2.0000      -0.407906       -11.0997
  63   2.0000      -0.347489        -9.4557
  64   2.0000      -0.334991        -9.1156
  65   2.0000      -0.322666        -8.7802
  66   2.0000      -0.297192        -8.0870
  67   0.0000       0.037019         1.0073
  68   0.0000       0.060720         1.6523
  69   0.0000       0.107748         2.9320
  70   0.0000       0.117521         3.1979
  71   0.0000       0.129045         3.5115

MULLIKEN ATOMIC CHARGES
-----------------------
   0 S :    0.111198
   1 C :   -0.120088
   2 C :   -0.064167
   3 C :    0.028145
   4 C :   -0.125975
   5 H :   -0.007248
   6 C :    0.029302
   7 H :    0.013905
   8 H :    0.045063
   9 C :   -0.055626
  10 H :    0.036330
  11 H :    0.025365
  12 C :   -0.053682
  13 H :    0.033168
  14 H :    0.046077
  15 H :    0.024904
  16 S :    0.086507
  17 C :   -0.100272
  18 C :   -0.018418
  19 C :   -0.036636
  20 C :   -0.169815
  21 H :    0.021971
  22 C :    0.029435
  23 H :    0.050728
  24 H :    0.027963
  25 C :   -0.054887
  26 H :    0.017768
  27 H :    0.014479
  28 C :   -0.025584
  29 H :    0.021163
  30 H :    0.018343
  31 H :    0.040886
  32 H :    0.045381
  33 H :    0.064316
Sum of atomic charges:    0.0000000

LOEWDIN ATOMIC CHARGES
----------------------
   0 S :    0.400231
   1 C :   -0.181404
   2 C :   -0.065462
   3 C :   -0.063885
   4 C :   -0.193580
   5 H :    0.027680
   6 C :   -0.042852
   7 H :    0.031178
   8 H :    0.037793
   9 C :   -0.041220
  10 H :    0.029521
  11 H :    0.023047
  12 C :   -0.068746
  13 H :    0.025556
  14 H :    0.029909
  15 H :    0.024536
  16 S :    0.387580
  17 C :   -0.171906
  18 C :   -0.067254
  19 C :   -0.059086
  20 C :   -0.195202
  21 H :    0.031455
  22 C :   -0.035748
  23 H :    0.040796
  24 H :    0.033833
  25 C :   -0.037236
  26 H :    0.022985
  27 H :    0.017952
  28 C :   -0.064783
  29 H :    0.022184
  30 H :    0.018978
  31 H :    0.031466
  32 H :    0.023752
  33 H :    0.027930

  Mayer bond orders larger than 0.100000
B(  0-S ,  1-C ) :   1.1387 B(  0-S ,  4-C ) :   1.1416 B(  1-C ,  2-C ) :   1.6175
B(  1-C , 32-H ) :   0.9730 B(  2-C ,  3-C ) :   1.2273 B(  2-C ,  6-C ) :   1.0058
B(  3-C ,  4-C ) :   1.6189 B(  3-C ,  5-H ) :   0.9994 B(  4-C , 20-C ) :   0.9986
B(  6-C ,  7-H ) :   0.9412 B(  6-C ,  8-H ) :   0.9432 B(  6-C ,  9-C ) :   1.0653
B(  9-C , 10-H ) :   0.9567 B(  9-C , 11-H ) :   0.9537 B(  9-C , 12-C ) :   1.0738
B( 12-C , 13-H ) :   0.9761 B( 12-C , 14-H ) :   0.9715 B( 12-C , 15-H ) :   0.9718
B( 16-S , 17-C ) :   1.1554 B( 16-S , 20-C ) :   1.1388 B( 17-C , 18-C ) :   1.6084
B( 17-C , 20-C ) :   0.1005 B( 17-C , 33-H ) :   0.9683 B( 18-C , 19-C ) :   1.2235
B( 18-C , 21-H ) :   0.9916 B( 19-C , 20-C ) :   1.6060 B( 19-C , 22-C ) :   1.0636
B( 22-C , 23-H ) :   0.9315 B( 22-C , 24-H ) :   0.9285 B( 22-C , 25-C ) :   1.0621
B( 25-C , 26-H ) :   0.9501 B( 25-C , 27-H ) :   0.9531 B( 25-C , 28-C ) :   1.0834
B( 28-C , 29-H ) :   0.9721 B( 28-C , 30-H ) :   0.9733 B( 28-C , 31-H ) :   0.9734

Dispersion correction           -0.015492770
FINAL SINGLE POINT ENERGY     -1339.880606946257

DIPOLE MOMENT
-------------
                                X             Y             Z
Electronic contribution:     -5.83970      20.21179      22.97152
Nuclear contribution   :      5.80970     -20.68190     -23.54138
                        -----------------------------------------
Total Dipole Moment    :     -0.03000      -0.47011      -0.56986
                        -----------------------------------------
Magnitude (a.u.)       :      0.73935
Magnitude (Debye)      :      1.87928

Rotational constants in cm-1:     0.017543     0.010441     0.007092
Rotational constants in MHz :   525.937656   313.000127   212.600642

                             ****ORCA TERMINATED NORMALLY****
TOTAL RUN TIME: 0 days 0 hours 0 minutes 35 seconds 790 msec
