                         Program Version 4.2.1 -  RELEASE  -
|  1> ! wB97X-D3 SP def2-SVP
|  2> %pal
|  3> nprocs 16
|  4> end
|  5>
|  6> * xyz 0 1
|  7> S 	 -33.5759 	 72.4953 	 170.701
|  8> C 	 -32.5576 	 73.1121 	 169.426
|  9> C 	 -33.3286 	 73.7069 	 168.42
| 10> C 	 -34.7233 	 73.6204 	 168.681
| 11> C 	 -34.9883 	 73.143 	 169.91
| 12> H 	 -35.4872 	 74.0227 	 167.995
| 13> C 	 -32.7221 	 74.4671 	 167.211
| 14> H 	 -33.2366 	 74.0479 	 166.354
| 15> H 	 -31.6221 	 74.3338 	 167.09
| 16> C 	 -33.0287 	 75.9852 	 167.202
| 17> H 	 -34.0085 	 76.2678 	 167.541
| 18> H 	 -32.4201 	 76.5474 	 167.95
| 19> C 	 -32.7865 	 76.5143 	 165.771
| 20> H 	 -33.4292 	 76.2507 	 164.974
| 21> H 	 -32.6734 	 77.5656 	 165.779
| 22> H 	 -31.8101 	 76.1803 	 165.334
| 23> S 	 -36.7512 	 71.4319 	 171.084
| 24> C 	 -38.325 	 71.869 	 171.326
| 25> C 	 -38.5156 	 73.2063 	 171.1
| 26> C 	 -37.3364 	 73.904 	 170.614
| 27> C 	 -36.3196 	 73.0368 	 170.495
| 28> H 	 -39.4923 	 73.6659 	 171.278
| 29> C 	 -37.4553 	 75.4373 	 170.349
| 30> H 	 -36.4675 	 75.9415 	 170.277
| 31> H 	 -37.8121 	 75.8776 	 171.268
| 32> C 	 -38.3123 	 75.8384 	 169.162
| 33> H 	 -38.5925 	 76.8564 	 169.26
| 34> H 	 -39.2118 	 75.1758 	 169.212
| 35> C 	 -37.6711 	 75.414 	 167.805
| 36> H 	 -36.6355 	 75.7484 	 167.881
| 37> H 	 -38.265 	 75.8346 	 166.937
| 38> H 	 -37.7344 	 74.3657 	 167.631
| 39> H 	 -31.5203 	 73.1477 	 169.41
| 40> H 	 -39.0147 	 71.0775 	 171.517
| 41> *
| 42>
| 43>                          ****END OF INPUT****

CARTESIAN COORDINATES (ANGSTROEM)
---------------------------------
  S    -33.575900   72.495300  170.701000
  C    -32.557600   73.112100  169.426000
  C    -33.328600   73.706900  168.420000
  C    -34.723300   73.620400  168.681000
  C    -34.988300   73.143000  169.910000
  H    -35.487200   74.022700  167.995000
  C    -32.722100   74.467100  167.211000
  H    -33.236600   74.047900  166.354000
  H    -31.622100   74.333800  167.090000
  C    -33.028700   75.985200  167.202000
  H    -34.008500   76.267800  167.541000
  H    -32.420100   76.547400  167.950000
  C    -32.786500   76.514300  165.771000
  H    -33.429200   76.250700  164.974000
  H    -32.673400   77.565600  165.779000
  H    -31.810100   76.180300  165.334000
  S    -36.751200   71.431900  171.084000
  C    -38.325000   71.869000  171.326000
  C    -38.515600   73.206300  171.100000
  C    -37.336400   73.904000  170.614000
  C    -36.319600   73.036800  170.495000
  H    -39.492300   73.665900  171.278000
  C    -37.455300   75.437300  170.349000
  H    -36.467500   75.941500  170.277000
  H    -37.812100   75.877600  171.268000
  C    -38.312300   75.838400  169.162000
  H    -38.592500   76.856400  169.260000
  H    -39.211800   75.175800  169.212000
  C    -37.671100   75.414000  167.805000
  H    -36.635500   75.748400  167.881000
  H    -38.265000   75.834600  166.937000
  H    -37.734400   74.365700  167.631000
  H    -31.520300   73.147700  169.410000
  H    -39.014700   71.077500  171.517000

 Total Charge           Charge          ....    0
 Multiplicity           Mult            ....    1
 Number of Electrons    NEL             ....  134
 Basis Dimension        Dim             ....  322

ORBITAL ENERGIES
----------------

  NO   OCC          E(Eh)            E(eV)
   0   2.0000     -88.964126     -2420.8369
   1   2.0000     -88.957566     -2420.6584
   2   2.0000     -10.322815      -280.8981
   3   2.0000     -10.321423      -280.8602
   4   2.0000     -10.308825      -280.5174
   5   2.0000     -10.306301      -280.4487
   6   2.0000     -10.305012      -280.4136
   7   2.0000     -10.299293      -280.2580
   8   2.0000     -10.297253      -280.2025
   9   2.0000     -10.297121      -280.1989
  10   2.0000     -10.292718      -280.0791
  11   2.0000     -10.291297      -280.0404
  12   2.0000     -10.289144      -279.9818
  13   2.0000     -10.287462      -279.9361
  14   2.0000     -10.283823      -279.8370
  15   2.0000     -10.274868      -279.5934
  16   2.0000      -8.079094      -219.8433
  17   2.0000      -8.075125      -219.7353
  18   2.0000      -6.037642      -164.2926
  19   2.0000      -6.033669      -164.1845
  20   2.0000      -6.033359      -164.1760
  21   2.0000      -6.029712      -164.0768
  22   2.0000      -6.029284      -164.0652
  23   2.0000      -6.025936      -163.9741
  24   2.0000      -1.015288       -27.6274
  25   2.0000      -0.989845       -26.9351
  26   2.0000      -0.912897       -24.8412
  27   2.0000      -0.906666       -24.6716
  28   2.0000      -0.870782       -23.6952
  29   2.0000      -0.851567       -23.1723
  30   2.0000      -0.845473       -23.0065
  31   2.0000      -0.811950       -22.0943
  32   2.0000      -0.787775       -21.4364
  33   2.0000      -0.772761       -21.0279
  34   2.0000      -0.710475       -19.3330
  35   2.0000      -0.702327       -19.1113
  36   2.0000      -0.694511       -18.8986
  37   2.0000      -0.662211       -18.0197
  38   2.0000      -0.640011       -17.4156
  39   2.0000      -0.623768       -16.9736
  40   2.0000      -0.607883       -16.5413
  41   2.0000      -0.562234       -15.2992
  42   2.0000      -0.556245       -15.1362
  43   2.0000      -0.553536       -15.0625
  44   2.0000      -0.549170       -14.9437
  45   2.0000      -0.522745       -14.2246
  46   2.0000      -0.519858       -14.1460
  47   2.0000      -0.511368       -13.9150
  48   2.0000      -0.502926       -13.6853
  49   2.0000      -0.496920       -13.5219
  50   2.0000      -0.492685       -13.4066
  51   2.0000      -0.483494       -13.1565
  52   2.0000      -0.468347       -12.7444
  53   2.0000      -0.461676       -12.5628
  54   2.0000      -0.458906       -12.4875
  55   2.0000      -0.455448       -12.3934
  56   2.0000      -0.451712       -12.2917
  57   2.0000      -0.442577       -12.0431
  58   2.0000      -0.439632       -11.9630
  59   2.0000      -0.421504       -11.4697
  60   2.0000      -0.419485       -11.4148
  61   2.0000      -0.412580       -11.2269
  62   2.0000      -0.408119       -11.1055
  63   2.0000      -0.351636        -9.5685
  64   2.0000      -0.332161        -9.0386
  65   2.0000      -0.327395        -8.9089
  66   2.0000      -0.291499        -7.9321
  67   0.0000       0.041787         1.1371
  68   0.0000       0.072909         1.9839
  69   0.0000       0.113608         3.0914
  70   0.0000       0.125424         3.4130
  71   0.0000       0.131661         3.5827

MULLIKEN ATOMIC CHARGES
-----------------------
   0 S :    0.109261
   1 C :   -0.089440
   2 C :   -0.094198
   3 C :    0.023347
   4 C :   -0.122514
   5 H :   -0.004944
   6 C :    0.058472
   7 H :    0.030159
   8 H :    0.035416
   9 C :   -0.063279
  10 H :    0.023025
  11 H :    0.031019
  12 C :   -0.045615
  13 H :    0.029421
  14 H :    0.020809
  15 H :    0.017349
  16 S :    0.102659
  17 C :   -0.077789
  18 C :   -0.054375
  19 C :   -0.024561
  20 C :   -0.176946
  21 H :    0.023911
  22 C :    0.057017
  23 H :    0.027667
  24 H :    0.026489
  25 C :   -0.059366
  26 H :    0.032939
  27 H :    0.028343
  28 C :   -0.075511
  29 H :    0.043128
  30 H :    0.045161
  31 H :    0.050899
  32 H :    0.015801
  33 H :    0.056245
Sum of atomic charges:   -0.0000000

LOEWDIN ATOMIC CHARGES
----------------------
   0 S :    0.402565
   1 C :   -0.195918
   2 C :   -0.057795
   3 C :   -0.069260
   4 C :   -0.189613
   5 H :    0.037007
   6 C :   -0.028085
   7 H :    0.030912
   8 H :    0.034719
   9 C :   -0.039337
  10 H :    0.018182
  11 H :    0.029866
  12 C :   -0.068475
  13 H :    0.020354
  14 H :    0.020657
  15 H :    0.028530
  16 S :    0.429914
  17 C :   -0.205520
  18 C :   -0.078458
  19 C :   -0.055721
  20 C :   -0.190608
  21 H :    0.030217
  22 C :   -0.030487
  23 H :    0.030640
  24 H :    0.032153
  25 C :   -0.038001
  26 H :    0.020751
  27 H :    0.028015
  28 C :   -0.066355
  29 H :    0.020221
  30 H :    0.036042
  31 H :    0.023310
  32 H :    0.013591
  33 H :    0.025988

  Mayer bond orders larger than 0.100000
B(  0-S ,  1-C ) :   1.1236 B(  0-S ,  4-C ) :   1.1482 B(  1-C ,  2-C ) :   1.6276
B(  1-C , 32-H ) :   0.9758 B(  2-C ,  3-C ) :   1.2289 B(  2-C ,  6-C ) :   1.0197
B(  3-C ,  4-C ) :   1.5970 B(  3-C ,  5-H ) :   0.9848 B(  4-C , 20-C ) :   1.0046
B(  6-C ,  7-H ) :   0.9430 B(  6-C ,  8-H ) :   0.9470 B(  6-C ,  9-C ) :   1.0524
B(  9-C , 10-H ) :   0.9588 B(  9-C , 11-H ) :   0.9525 B(  9-C , 12-C ) :   1.0706
B( 12-C , 13-H ) :   0.9779 B( 12-C , 14-H ) :   0.9734 B( 12-C , 15-H ) :   0.9718
B( 16-S , 17-C ) :   1.1813 B( 16-S , 20-C ) :   1.1422 B( 17-C , 18-C ) :   1.5934
B( 17-C , 33-H ) :   0.9747 B( 18-C , 19-C ) :   1.2076 B( 18-C , 21-H ) :   0.9902
B( 19-C , 20-C ) :   1.6630 B( 19-C , 22-C ) :   1.0236 B( 22-C , 23-H ) :   0.9391
B( 22-C , 24-H ) :   0.9347 B( 22-C , 25-C ) :   1.0763 B( 25-C , 26-H ) :   0.9568
B( 25-C , 27-H ) :   0.9570 B( 25-C , 28-C ) :   1.0650 B( 28-C , 29-H ) :   0.9688
B( 28-C , 30-H ) :   0.9672 B( 28-C , 31-H ) :   0.9668

Dispersion correction           -0.015255574
FINAL SINGLE POINT ENERGY     -1339.875754547512

DIPOLE MOMENT
-------------
                                X             Y             Z
Electronic contribution:      0.68714     -23.88006      21.49868
Nuclear contribution   :     -0.98244      24.46426     -21.91052
                        -----------------------------------------
Total Dipole Moment    :     -0.29530       0.58419      -0.41183
                        -----------------------------------------
Magnitude (a.u.)       :      0.77336
Magnitude (Debye)      :      1.96574

Rotational constants in cm-1:     0.018941     0.009819     0.006927
Rotational constants in MHz :   567.835998   294.357785   207.664994

                             ****ORCA TERMINATED NORMALLY****
TOTAL RUN TIME: 0 days 0 hours 0 minutes 35 seconds 467 msec
