                         Program Version 4.2.1 -  RELEASE  -
|  1> ! wB97X-D3 SP def2-SVP
|  2> %pal
|  3> nprocs 16
|  4> end
|  5>
|  6> * xyz 0 1
|  7> S 	 -30.6944 	 60.0006 	 104.083
|  8> C 	 -29.5659 	 59.1861 	 105.09
|  9> C 	 -29.0228 	 59.9416 	 106.087
| 10> C 	 -29.6659 	 61.2377 	 106.104
| 11> C 	 -30.5555 	 61.4643 	 105.097
| 12> H 	 -29.4721 	 62.0137 	 106.782
| 13> C 	 -28.2421 	 59.4106 	 107.186
| 14> H 	 -28.2984 	 58.3512 	 107.25
| 15> H 	 -28.6631 	 59.7623 	 108.075
| 16> C 	 -26.7495 	 59.8368 	 107.279
| 17> H 	 -26.5758 	 60.8887 	 107.342
| 18> H 	 -26.3479 	 59.4284 	 108.231
| 19> C 	 -26.1533 	 59.3763 	 105.981
| 20> H 	 -26.2502 	 58.279 	 105.819
| 21> H 	 -26.542 	 59.8219 	 105.138
| 22> H 	 -25.128 	 59.5554 	 105.908
| 23> S 	 -32.8641 	 62.6049 	 103.945
| 24> C 	 -33.1478 	 64.2872 	 104.163
| 25> C 	 -32.1006 	 64.9026 	 104.788
| 26> C 	 -31.083 	 64.0711 	 105.271
| 27> C 	 -31.313 	 62.724 	 104.882
| 28> H 	 -32.0865 	 66.0275 	 104.934
| 29> C 	 -29.7813 	 64.6434 	 105.899
| 30> H 	 -29.6879 	 64.2759 	 106.887
| 31> H 	 -30.0393 	 65.6894 	 105.921
| 32> C 	 -28.5347 	 64.5348 	 105.02
| 33> H 	 -28.7195 	 64.8148 	 103.96
| 34> H 	 -28.2327 	 63.4779 	 104.942
| 35> C 	 -27.3714 	 65.4522 	 105.665
| 36> H 	 -26.3787 	 65.2726 	 105.175
| 37> H 	 -27.38 	 65.348 	 106.779
| 38> H 	 -27.6297 	 66.543 	 105.577
| 39> H 	 -29.1743 	 58.1451 	 104.961
| 40> H 	 -33.9032 	 64.9174 	 103.794
| 41> *
| 42>
| 43>                          ****END OF INPUT****

CARTESIAN COORDINATES (ANGSTROEM)
---------------------------------
  S    -30.694400   60.000600  104.083000
  C    -29.565900   59.186100  105.090000
  C    -29.022800   59.941600  106.087000
  C    -29.665900   61.237700  106.104000
  C    -30.555500   61.464300  105.097000
  H    -29.472100   62.013700  106.782000
  C    -28.242100   59.410600  107.186000
  H    -28.298400   58.351200  107.250000
  H    -28.663100   59.762300  108.075000
  C    -26.749500   59.836800  107.279000
  H    -26.575800   60.888700  107.342000
  H    -26.347900   59.428400  108.231000
  C    -26.153300   59.376300  105.981000
  H    -26.250200   58.279000  105.819000
  H    -26.542000   59.821900  105.138000
  H    -25.128000   59.555400  105.908000
  S    -32.864100   62.604900  103.945000
  C    -33.147800   64.287200  104.163000
  C    -32.100600   64.902600  104.788000
  C    -31.083000   64.071100  105.271000
  C    -31.313000   62.724000  104.882000
  H    -32.086500   66.027500  104.934000
  C    -29.781300   64.643400  105.899000
  H    -29.687900   64.275900  106.887000
  H    -30.039300   65.689400  105.921000
  C    -28.534700   64.534800  105.020000
  H    -28.719500   64.814800  103.960000
  H    -28.232700   63.477900  104.942000
  C    -27.371400   65.452200  105.665000
  H    -26.378700   65.272600  105.175000
  H    -27.380000   65.348000  106.779000
  H    -27.629700   66.543000  105.577000
  H    -29.174300   58.145100  104.961000
  H    -33.903200   64.917400  103.794000

 Total Charge           Charge          ....    0
 Multiplicity           Mult            ....    1
 Number of Electrons    NEL             ....  134
 Basis Dimension        Dim             ....  322

ORBITAL ENERGIES
----------------

  NO   OCC          E(Eh)            E(eV)
   0   2.0000     -88.969687     -2420.9883
   1   2.0000     -88.967815     -2420.9373
   2   2.0000     -10.338033      -281.3122
   3   2.0000     -10.332960      -281.1741
   4   2.0000     -10.312331      -280.6128
   5   2.0000     -10.311056      -280.5781
   6   2.0000     -10.306734      -280.4605
   7   2.0000     -10.295281      -280.1488
   8   2.0000     -10.294862      -280.1374
   9   2.0000     -10.294508      -280.1278
  10   2.0000     -10.294340      -280.1232
  11   2.0000     -10.293334      -280.0959
  12   2.0000     -10.288848      -279.9738
  13   2.0000     -10.285568      -279.8845
  14   2.0000     -10.279873      -279.7296
  15   2.0000     -10.262560      -279.2585
  16   2.0000      -8.083692      -219.9685
  17   2.0000      -8.082447      -219.9346
  18   2.0000      -6.042205      -164.4168
  19   2.0000      -6.041100      -164.3867
  20   2.0000      -6.038334      -164.3114
  21   2.0000      -6.037102      -164.2779
  22   2.0000      -6.034469      -164.2062
  23   2.0000      -6.032939      -164.1646
  24   2.0000      -1.005024       -27.3481
  25   2.0000      -0.986548       -26.8453
  26   2.0000      -0.921669       -25.0799
  27   2.0000      -0.906053       -24.6550
  28   2.0000      -0.868363       -23.6293
  29   2.0000      -0.852657       -23.2020
  30   2.0000      -0.844379       -22.9767
  31   2.0000      -0.814645       -22.1676
  32   2.0000      -0.783835       -21.3292
  33   2.0000      -0.773389       -21.0450
  34   2.0000      -0.714066       -19.4307
  35   2.0000      -0.704774       -19.1779
  36   2.0000      -0.693704       -18.8766
  37   2.0000      -0.660344       -17.9689
  38   2.0000      -0.639341       -17.3974
  39   2.0000      -0.623878       -16.9766
  40   2.0000      -0.595189       -16.1959
  41   2.0000      -0.573227       -15.5983
  42   2.0000      -0.561496       -15.2791
  43   2.0000      -0.554900       -15.0996
  44   2.0000      -0.542484       -14.7617
  45   2.0000      -0.523362       -14.2414
  46   2.0000      -0.514591       -14.0027
  47   2.0000      -0.508788       -13.8448
  48   2.0000      -0.500964       -13.6319
  49   2.0000      -0.494836       -13.4652
  50   2.0000      -0.488761       -13.2999
  51   2.0000      -0.486055       -13.2262
  52   2.0000      -0.470983       -12.8161
  53   2.0000      -0.465818       -12.6756
  54   2.0000      -0.458186       -12.4679
  55   2.0000      -0.451453       -12.2847
  56   2.0000      -0.447581       -12.1793
  57   2.0000      -0.443952       -12.0806
  58   2.0000      -0.432434       -11.7671
  59   2.0000      -0.430582       -11.7167
  60   2.0000      -0.418915       -11.3993
  61   2.0000      -0.418052       -11.3758
  62   2.0000      -0.412451       -11.2234
  63   2.0000      -0.361476        -9.8363
  64   2.0000      -0.337771        -9.1912
  65   2.0000      -0.327427        -8.9098
  66   2.0000      -0.282256        -7.6806
  67   0.0000       0.020738         0.5643
  68   0.0000       0.080992         2.2039
  69   0.0000       0.101709         2.7676
  70   0.0000       0.122219         3.3257
  71   0.0000       0.130607         3.5540

MULLIKEN ATOMIC CHARGES
-----------------------
   0 S :    0.110471
   1 C :   -0.124034
   2 C :   -0.072320
   3 C :    0.009427
   4 C :   -0.095041
   5 H :   -0.025409
   6 C :    0.075854
   7 H :    0.015597
   8 H :    0.007985
   9 C :   -0.053389
  10 H :    0.020424
  11 H :    0.032551
  12 C :   -0.017596
  13 H :    0.016585
  14 H :    0.025711
  15 H :    0.009246
  16 S :    0.103819
  17 C :   -0.043181
  18 C :   -0.079582
  19 C :   -0.058470
  20 C :   -0.157825
  21 H :    0.036374
  22 C :    0.072029
  23 H :    0.038061
  24 H :    0.006045
  25 C :   -0.066720
  26 H :    0.041731
  27 H :    0.042906
  28 C :   -0.092258
  29 H :    0.056758
  30 H :    0.035068
  31 H :    0.036965
  32 H :    0.058111
  33 H :    0.034106
Sum of atomic charges:    0.0000000

LOEWDIN ATOMIC CHARGES
----------------------
   0 S :    0.392888
   1 C :   -0.204877
   2 C :   -0.067173
   3 C :   -0.054673
   4 C :   -0.178441
   5 H :    0.019917
   6 C :   -0.025951
   7 H :    0.028067
   8 H :    0.025809
   9 C :   -0.032135
  10 H :    0.019431
  11 H :    0.028114
  12 C :   -0.060020
  13 H :    0.026127
  14 H :    0.018364
  15 H :    0.015542
  16 S :    0.396156
  17 C :   -0.192787
  18 C :   -0.083423
  19 C :   -0.057570
  20 C :   -0.171069
  21 H :    0.039953
  22 C :   -0.026195
  23 H :    0.023960
  24 H :    0.028497
  25 C :   -0.039126
  26 H :    0.031283
  27 H :    0.024795
  28 C :   -0.077768
  29 H :    0.032439
  30 H :    0.027333
  31 H :    0.027923
  32 H :    0.038871
  33 H :    0.025738

  Mayer bond orders larger than 0.100000
B(  0-S ,  1-C ) :   1.1323 B(  0-S ,  4-C ) :   1.1158 B(  1-C ,  2-C ) :   1.6337
B(  1-C , 32-H ) :   0.9502 B(  2-C ,  3-C ) :   1.2055 B(  2-C ,  6-C ) :   1.0408
B(  3-C ,  4-C ) :   1.6066 B(  3-C ,  5-H ) :   1.0008 B(  4-C , 20-C ) :   1.0737
B(  6-C ,  7-H ) :   0.9482 B(  6-C ,  8-H ) :   0.9316 B(  6-C ,  9-C ) :   1.0641
B(  9-C , 10-H ) :   0.9551 B(  9-C , 11-H ) :   0.9566 B(  9-C , 12-C ) :   1.0762
B( 12-C , 13-H ) :   0.9737 B( 12-C , 14-H ) :   0.9683 B( 12-C , 15-H ) :   0.9690
B( 16-S , 17-C ) :   1.1520 B( 16-S , 20-C ) :   1.1387 B( 17-C , 18-C ) :   1.6141
B( 17-C , 20-C ) :   0.1046 B( 17-C , 33-H ) :   0.9639 B( 18-C , 19-C ) :   1.2966
B( 18-C , 21-H ) :   0.9662 B( 19-C , 20-C ) :   1.5512 B( 19-C , 22-C ) :   1.0228
B( 22-C , 23-H ) :   0.9262 B( 22-C , 24-H ) :   0.9357 B( 22-C , 25-C ) :   1.0633
B( 25-C , 26-H ) :   0.9559 B( 25-C , 27-H ) :   0.9557 B( 25-C , 28-C ) :   1.0569
B( 28-C , 29-H ) :   0.9758 B( 28-C , 30-H ) :   0.9751 B( 28-C , 31-H ) :   0.9774

Dispersion correction           -0.014687030
FINAL SINGLE POINT ENERGY     -1339.865580271001

DIPOLE MOMENT
-------------
                                X             Y             Z
Electronic contribution:    -27.51684      -5.97381     -12.25455
Nuclear contribution   :     28.02094       6.32338      12.64591
                        -----------------------------------------
Total Dipole Moment    :      0.50411       0.34957       0.39136
                        -----------------------------------------
Magnitude (a.u.)       :      0.72766
Magnitude (Debye)      :      1.84955

Rotational constants in cm-1:     0.018331     0.009615     0.006818
Rotational constants in MHz :   549.549380   288.245376   204.393278

                             ****ORCA TERMINATED NORMALLY****
TOTAL RUN TIME: 0 days 0 hours 0 minutes 31 seconds 195 msec
