                         Program Version 4.2.1 -  RELEASE  -
|  1> ! wB97X-D3 SP def2-SVP
|  2> %pal
|  3> nprocs 16
|  4> end
|  5>
|  6> * xyz 0 1
|  7> S 	 0.976643 	 -14.8047 	 78.2821
|  8> C 	 0.150753 	 -15.3182 	 79.6905
|  9> C 	 0.925636 	 -15.2385 	 80.8265
| 10> C 	 2.22916 	 -14.7895 	 80.5142
| 11> C 	 2.46856 	 -14.4985 	 79.1688
| 12> H 	 2.98979 	 -14.6247 	 81.2941
| 13> C 	 0.453875 	 -15.5716 	 82.1827
| 14> H 	 1.25295 	 -16.0886 	 82.6915
| 15> H 	 -0.342538 	 -16.2321 	 81.9803
| 16> C 	 0.217353 	 -14.2823 	 82.9915
| 17> H 	 1.06822 	 -13.6161 	 82.9411
| 18> H 	 -0.593432 	 -13.7456 	 82.5364
| 19> C 	 -0.2379 	 -14.4428 	 84.5023
| 20> H 	 -0.789926 	 -15.418 	 84.7748
| 21> H 	 0.608499 	 -14.2867 	 85.1666
| 22> H 	 -0.93096 	 -13.5346 	 84.6225
| 23> S 	 3.50744 	 -13.3064 	 76.9307
| 24> C 	 5.20566 	 -12.9237 	 76.7025
| 25> C 	 5.79371 	 -13.2143 	 77.9017
| 26> C 	 4.9551 	 -13.7806 	 78.9144
| 27> C 	 3.67881 	 -13.9375 	 78.5314
| 28> H 	 6.86699 	 -13.1919 	 77.825
| 29> C 	 5.54787 	 -14.259 	 80.1714
| 30> H 	 6.57935 	 -14.6078 	 79.9739
| 31> H 	 4.97084 	 -15.2095 	 80.5251
| 32> C 	 5.56638 	 -13.3088 	 81.3944
| 33> H 	 4.64433 	 -12.8947 	 81.5773
| 34> H 	 6.20192 	 -12.4844 	 81.1963
| 35> C 	 5.86412 	 -13.884 	 82.8218
| 36> H 	 5.67863 	 -13.0312 	 83.5477
| 37> H 	 6.82988 	 -14.3292 	 83.0438
| 38> H 	 5.1017 	 -14.5891 	 83.166
| 39> H 	 -0.870695 	 -15.5345 	 79.7874
| 40> H 	 5.71028 	 -12.5346 	 75.8237
| 41> *
| 42>
| 43>                          ****END OF INPUT****

CARTESIAN COORDINATES (ANGSTROEM)
---------------------------------
  S      0.976643  -14.804700   78.282100
  C      0.150753  -15.318200   79.690500
  C      0.925636  -15.238500   80.826500
  C      2.229160  -14.789500   80.514200
  C      2.468560  -14.498500   79.168800
  H      2.989790  -14.624700   81.294100
  C      0.453875  -15.571600   82.182700
  H      1.252950  -16.088600   82.691500
  H     -0.342538  -16.232100   81.980300
  C      0.217353  -14.282300   82.991500
  H      1.068220  -13.616100   82.941100
  H     -0.593432  -13.745600   82.536400
  C     -0.237900  -14.442800   84.502300
  H     -0.789926  -15.418000   84.774800
  H      0.608499  -14.286700   85.166600
  H     -0.930960  -13.534600   84.622500
  S      3.507440  -13.306400   76.930700
  C      5.205660  -12.923700   76.702500
  C      5.793710  -13.214300   77.901700
  C      4.955100  -13.780600   78.914400
  C      3.678810  -13.937500   78.531400
  H      6.866990  -13.191900   77.825000
  C      5.547870  -14.259000   80.171400
  H      6.579350  -14.607800   79.973900
  H      4.970840  -15.209500   80.525100
  C      5.566380  -13.308800   81.394400
  H      4.644330  -12.894700   81.577300
  H      6.201920  -12.484400   81.196300
  C      5.864120  -13.884000   82.821800
  H      5.678630  -13.031200   83.547700
  H      6.829880  -14.329200   83.043800
  H      5.101700  -14.589100   83.166000
  H     -0.870695  -15.534500   79.787400
  H      5.710280  -12.534600   75.823700

 Total Charge           Charge          ....    0
 Multiplicity           Mult            ....    1
 Number of Electrons    NEL             ....  134
 Basis Dimension        Dim             ....  322

ORBITAL ENERGIES
----------------

  NO   OCC          E(Eh)            E(eV)
   0   2.0000     -88.970070     -2420.9987
   1   2.0000     -88.959736     -2420.7175
   2   2.0000     -10.337789      -281.3055
   3   2.0000     -10.328596      -281.0554
   4   2.0000     -10.318431      -280.7788
   5   2.0000     -10.307337      -280.4769
   6   2.0000     -10.297989      -280.2225
   7   2.0000     -10.296901      -280.1929
   8   2.0000     -10.296594      -280.1846
   9   2.0000     -10.294303      -280.1222
  10   2.0000     -10.293649      -280.1044
  11   2.0000     -10.291104      -280.0352
  12   2.0000     -10.290041      -280.0063
  13   2.0000     -10.287472      -279.9363
  14   2.0000     -10.287054      -279.9250
  15   2.0000     -10.282134      -279.7911
  16   2.0000      -8.084819      -219.9991
  17   2.0000      -8.075222      -219.7380
  18   2.0000      -6.043429      -164.4501
  19   2.0000      -6.039231      -164.3358
  20   2.0000      -6.035569      -164.2362
  21   2.0000      -6.033851      -164.1894
  22   2.0000      -6.029542      -164.0722
  23   2.0000      -6.025863      -163.9721
  24   2.0000      -1.015128       -27.6230
  25   2.0000      -0.994111       -27.0511
  26   2.0000      -0.916912       -24.9504
  27   2.0000      -0.907945       -24.7064
  28   2.0000      -0.872698       -23.7473
  29   2.0000      -0.853897       -23.2357
  30   2.0000      -0.845751       -23.0140
  31   2.0000      -0.823203       -22.4005
  32   2.0000      -0.780033       -21.2258
  33   2.0000      -0.774670       -21.0798
  34   2.0000      -0.714442       -19.4410
  35   2.0000      -0.703055       -19.1311
  36   2.0000      -0.698893       -19.0178
  37   2.0000      -0.669298       -18.2125
  38   2.0000      -0.639095       -17.3907
  39   2.0000      -0.628221       -17.0948
  40   2.0000      -0.594308       -16.1719
  41   2.0000      -0.575046       -15.6478
  42   2.0000      -0.566799       -15.4234
  43   2.0000      -0.559385       -15.2216
  44   2.0000      -0.530471       -14.4349
  45   2.0000      -0.526819       -14.3355
  46   2.0000      -0.522429       -14.2160
  47   2.0000      -0.517785       -14.0896
  48   2.0000      -0.505290       -13.7496
  49   2.0000      -0.500911       -13.6305
  50   2.0000      -0.500514       -13.6197
  51   2.0000      -0.480353       -13.0711
  52   2.0000      -0.472638       -12.8611
  53   2.0000      -0.466930       -12.7058
  54   2.0000      -0.463632       -12.6161
  55   2.0000      -0.448274       -12.1981
  56   2.0000      -0.442644       -12.0449
  57   2.0000      -0.437529       -11.9058
  58   2.0000      -0.433541       -11.7973
  59   2.0000      -0.423682       -11.5290
  60   2.0000      -0.421947       -11.4818
  61   2.0000      -0.419235       -11.4080
  62   2.0000      -0.404543       -11.0082
  63   2.0000      -0.366012        -9.9597
  64   2.0000      -0.333881        -9.0854
  65   2.0000      -0.325321        -8.8524
  66   2.0000      -0.288653        -7.8547
  67   0.0000       0.021365         0.5814
  68   0.0000       0.090880         2.4730
  69   0.0000       0.104637         2.8473
  70   0.0000       0.122631         3.3370
  71   0.0000       0.123953         3.3729

MULLIKEN ATOMIC CHARGES
-----------------------
   0 S :    0.122412
   1 C :   -0.087741
   2 C :   -0.132338
   3 C :   -0.010699
   4 C :   -0.102710
   5 H :    0.000361
   6 C :    0.140656
   7 H :    0.018650
   8 H :    0.011607
   9 C :   -0.086073
  10 H :    0.030378
  11 H :    0.022574
  12 C :   -0.087220
  13 H :    0.056187
  14 H :    0.040086
  15 H :    0.045021
  16 S :    0.069126
  17 C :   -0.098001
  18 C :   -0.031914
  19 C :   -0.046282
  20 C :   -0.075284
  21 H :    0.017062
  22 C :   -0.000321
  23 H :    0.027224
  24 H :    0.033752
  25 C :   -0.004673
  26 H :    0.003588
  27 H :    0.016895
  28 C :   -0.082034
  29 H :    0.036490
  30 H :    0.040615
  31 H :    0.024304
  32 H :    0.022944
  33 H :    0.065358
Sum of atomic charges:   -0.0000000

LOEWDIN ATOMIC CHARGES
----------------------
   0 S :    0.422804
   1 C :   -0.203309
   2 C :   -0.063804
   3 C :   -0.067485
   4 C :   -0.183560
   5 H :    0.029925
   6 C :   -0.026386
   7 H :    0.031097
   8 H :    0.026799
   9 C :   -0.036758
  10 H :    0.025725
  11 H :    0.020614
  12 C :   -0.080728
  13 H :    0.036028
  14 H :    0.021600
  15 H :    0.037495
  16 S :    0.397779
  17 C :   -0.180878
  18 C :   -0.073440
  19 C :   -0.076172
  20 C :   -0.185485
  21 H :    0.030366
  22 C :   -0.039623
  23 H :    0.032588
  24 H :    0.037721
  25 C :   -0.034252
  26 H :    0.013565
  27 H :    0.020959
  28 C :   -0.069946
  29 H :    0.036386
  30 H :    0.020827
  31 H :    0.021079
  32 H :    0.020063
  33 H :    0.038409

  Mayer bond orders larger than 0.100000
B(  0-S ,  1-C ) :   1.1476 B(  0-S ,  4-C ) :   1.1537 B(  1-C ,  2-C ) :   1.5990
B(  1-C , 32-H ) :   0.9641 B(  2-C ,  3-C ) :   1.2795 B(  2-C ,  6-C ) :   1.0293
B(  3-C ,  4-C ) :   1.5380 B(  3-C ,  5-H ) :   0.9831 B(  4-C , 20-C ) :   1.0622
B(  6-C ,  7-H ) :   0.9308 B(  6-C ,  8-H ) :   0.9346 B(  6-C ,  9-C ) :   1.0530
B(  9-C , 10-H ) :   0.9588 B(  9-C , 11-H ) :   0.9664 B(  9-C , 12-C ) :   1.0562
B( 12-C , 13-H ) :   0.9762 B( 12-C , 14-H ) :   0.9796 B( 12-C , 15-H ) :   0.9816
B( 16-S , 17-C ) :   1.1406 B( 16-S , 20-C ) :   1.1278 B( 17-C , 18-C ) :   1.6252
B( 17-C , 33-H ) :   0.9704 B( 18-C , 19-C ) :   1.2235 B( 18-C , 21-H ) :   0.9898
B( 19-C , 20-C ) :   1.6155 B( 19-C , 22-C ) :   1.0561 B( 22-C , 23-H ) :   0.9313
B( 22-C , 24-H ) :   0.9365 B( 22-C , 25-C ) :   1.0599 B( 25-C , 26-H ) :   0.9517
B( 25-C , 27-H ) :   0.9507 B( 25-C , 28-C ) :   1.0768 B( 28-C , 29-H ) :   0.9733
B( 28-C , 30-H ) :   0.9783 B( 28-C , 31-H ) :   0.9742

Dispersion correction           -0.013960777
FINAL SINGLE POINT ENERGY     -1339.865158546527

DIPOLE MOMENT
-------------
                                X             Y             Z
Electronic contribution:     -3.28858       0.43581     -33.00326
Nuclear contribution   :      3.49829      -0.41423      33.62233
                        -----------------------------------------
Total Dipole Moment    :      0.20970       0.02158       0.61907
                        -----------------------------------------
Magnitude (a.u.)       :      0.65398
Magnitude (Debye)      :      1.66229

Rotational constants in cm-1:     0.017962     0.009268     0.006420
Rotational constants in MHz :   538.502049   277.837021   192.472447

                             ****ORCA TERMINATED NORMALLY****
TOTAL RUN TIME: 0 days 0 hours 0 minutes 33 seconds 314 msec
