                         Program Version 4.2.1 -  RELEASE  -
|  1> ! wB97X-D3 SP def2-SVP
|  2> %pal
|  3> nprocs 16
|  4> end
|  5>
|  6> * xyz 0 1
|  7> S 	 -8.90452 	 66.4989 	 51.2627
|  8> C 	 -10.1311 	 65.2331 	 50.8808
|  9> C 	 -10.3154 	 64.4682 	 52.0624
| 10> C 	 -9.59596 	 64.97 	 53.1691
| 11> C 	 -8.76568 	 66.0064 	 52.9386
| 12> H 	 -9.58825 	 64.5306 	 54.1668
| 13> C 	 -11.4094 	 63.4273 	 52.2589
| 14> H 	 -12.357 	 63.6201 	 51.7531
| 15> H 	 -11.6058 	 63.3168 	 53.3643
| 16> C 	 -10.8326 	 62.0505 	 51.7801
| 17> H 	 -10.586 	 62.2029 	 50.7132
| 18> H 	 -9.89369 	 61.7345 	 52.307
| 19> C 	 -11.9128 	 60.9588 	 51.8841
| 20> H 	 -12.5433 	 61.0522 	 51.0169
| 21> H 	 -11.5153 	 59.9793 	 51.6584
| 22> H 	 -12.4225 	 60.7067 	 52.7853
| 23> S 	 -6.1493 	 65.934 	 53.9328
| 24> C 	 -5.69841 	 66.9707 	 55.2762
| 25> C 	 -6.80902 	 67.6263 	 55.6693
| 26> C 	 -8.0265 	 67.2486 	 55.0671
| 27> C 	 -7.83556 	 66.5658 	 53.9233
| 28> H 	 -6.71278 	 68.2893 	 56.5971
| 29> C 	 -9.33854 	 67.8646 	 55.623
| 30> H 	 -9.35594 	 68.127 	 56.6359
| 31> H 	 -10.0312 	 67.0331 	 55.5299
| 32> C 	 -9.88254 	 69.0727 	 54.8444
| 33> H 	 -10.2196 	 68.8182 	 53.7981
| 34> H 	 -9.04754 	 69.7288 	 54.681
| 35> C 	 -10.9753 	 69.8541 	 55.5662
| 36> H 	 -11.9128 	 69.2742 	 55.7641
| 37> H 	 -11.2624 	 70.6931 	 54.8728
| 38> H 	 -10.5144 	 70.3175 	 56.5125
| 39> H 	 -10.657 	 65.1929 	 49.9562
| 40> H 	 -4.69602 	 67.1854 	 55.767
| 41> *
| 42>
| 43>                          ****END OF INPUT****

CARTESIAN COORDINATES (ANGSTROEM)
---------------------------------
  S     -8.904520   66.498900   51.262700
  C    -10.131100   65.233100   50.880800
  C    -10.315400   64.468200   52.062400
  C     -9.595960   64.970000   53.169100
  C     -8.765680   66.006400   52.938600
  H     -9.588250   64.530600   54.166800
  C    -11.409400   63.427300   52.258900
  H    -12.357000   63.620100   51.753100
  H    -11.605800   63.316800   53.364300
  C    -10.832600   62.050500   51.780100
  H    -10.586000   62.202900   50.713200
  H     -9.893690   61.734500   52.307000
  C    -11.912800   60.958800   51.884100
  H    -12.543300   61.052200   51.016900
  H    -11.515300   59.979300   51.658400
  H    -12.422500   60.706700   52.785300
  S     -6.149300   65.934000   53.932800
  C     -5.698410   66.970700   55.276200
  C     -6.809020   67.626300   55.669300
  C     -8.026500   67.248600   55.067100
  C     -7.835560   66.565800   53.923300
  H     -6.712780   68.289300   56.597100
  C     -9.338540   67.864600   55.623000
  H     -9.355940   68.127000   56.635900
  H    -10.031200   67.033100   55.529900
  C     -9.882540   69.072700   54.844400
  H    -10.219600   68.818200   53.798100
  H     -9.047540   69.728800   54.681000
  C    -10.975300   69.854100   55.566200
  H    -11.912800   69.274200   55.764100
  H    -11.262400   70.693100   54.872800
  H    -10.514400   70.317500   56.512500
  H    -10.657000   65.192900   49.956200
  H     -4.696020   67.185400   55.767000

 Total Charge           Charge          ....    0
 Multiplicity           Mult            ....    1
 Number of Electrons    NEL             ....  134
 Basis Dimension        Dim             ....  322

ORBITAL ENERGIES
----------------

  NO   OCC          E(Eh)            E(eV)
   0   2.0000     -88.966960     -2420.9141
   1   2.0000     -88.961221     -2420.7579
   2   2.0000     -10.328442      -281.0512
   3   2.0000     -10.327850      -281.0351
   4   2.0000     -10.324402      -280.9413
   5   2.0000     -10.318837      -280.7898
   6   2.0000     -10.306921      -280.4656
   7   2.0000     -10.302083      -280.3339
   8   2.0000     -10.298121      -280.2261
   9   2.0000     -10.293677      -280.1052
  10   2.0000     -10.290833      -280.0278
  11   2.0000     -10.289918      -280.0029
  12   2.0000     -10.289081      -279.9801
  13   2.0000     -10.287407      -279.9346
  14   2.0000     -10.283485      -279.8279
  15   2.0000     -10.271699      -279.5071
  16   2.0000      -8.080640      -219.8854
  17   2.0000      -8.075380      -219.7423
  18   2.0000      -6.039208      -164.3352
  19   2.0000      -6.035166      -164.2252
  20   2.0000      -6.034166      -164.1980
  21   2.0000      -6.031496      -164.1254
  22   2.0000      -6.030028      -164.0854
  23   2.0000      -6.025781      -163.9698
  24   2.0000      -1.007537       -27.4165
  25   2.0000      -0.985128       -26.8067
  26   2.0000      -0.907959       -24.7068
  27   2.0000      -0.905051       -24.6277
  28   2.0000      -0.868993       -23.6465
  29   2.0000      -0.847592       -23.0642
  30   2.0000      -0.844093       -22.9689
  31   2.0000      -0.814865       -22.1736
  32   2.0000      -0.780196       -21.2302
  33   2.0000      -0.772368       -21.0172
  34   2.0000      -0.705478       -19.1970
  35   2.0000      -0.698391       -19.0042
  36   2.0000      -0.688665       -18.7395
  37   2.0000      -0.653182       -17.7740
  38   2.0000      -0.647930       -17.6311
  39   2.0000      -0.619228       -16.8501
  40   2.0000      -0.594148       -16.1676
  41   2.0000      -0.566621       -15.4186
  42   2.0000      -0.563935       -15.3455
  43   2.0000      -0.560510       -15.2523
  44   2.0000      -0.527750       -14.3608
  45   2.0000      -0.518262       -14.1026
  46   2.0000      -0.513215       -13.9653
  47   2.0000      -0.511504       -13.9187
  48   2.0000      -0.506978       -13.7956
  49   2.0000      -0.497118       -13.5273
  50   2.0000      -0.494242       -13.4490
  51   2.0000      -0.480202       -13.0670
  52   2.0000      -0.472348       -12.8532
  53   2.0000      -0.466703       -12.6996
  54   2.0000      -0.458217       -12.4687
  55   2.0000      -0.448093       -12.1932
  56   2.0000      -0.437164       -11.8958
  57   2.0000      -0.428785       -11.6678
  58   2.0000      -0.427027       -11.6200
  59   2.0000      -0.420267       -11.4360
  60   2.0000      -0.417934       -11.3726
  61   2.0000      -0.411330       -11.1928
  62   2.0000      -0.408439       -11.1142
  63   2.0000      -0.338415        -9.2087
  64   2.0000      -0.328518        -8.9394
  65   2.0000      -0.324942        -8.8421
  66   2.0000      -0.311146        -8.4667
  67   0.0000       0.038196         1.0394
  68   0.0000       0.052637         1.4323
  69   0.0000       0.112699         3.0667
  70   0.0000       0.117389         3.1943
  71   0.0000       0.132912         3.6167

MULLIKEN ATOMIC CHARGES
-----------------------
   0 S :    0.101482
   1 C :   -0.123126
   2 C :   -0.052135
   3 C :    0.040927
   4 C :   -0.168539
   5 H :    0.018853
   6 C :    0.034293
   7 H :    0.037172
   8 H :    0.034048
   9 C :   -0.114459
  10 H :    0.032440
  11 H :    0.045480
  12 C :   -0.011721
  13 H :    0.019927
  14 H :    0.008690
  15 H :    0.032771
  16 S :    0.091371
  17 C :   -0.102539
  18 C :   -0.059091
  19 C :   -0.034173
  20 C :   -0.160784
  21 H :    0.037396
  22 C :    0.125472
  23 H :   -0.000393
  24 H :    0.013565
  25 C :   -0.083097
  26 H :    0.036226
  27 H :    0.021633
  28 C :   -0.089567
  29 H :    0.047758
  30 H :    0.044256
  31 H :    0.043904
  32 H :    0.051462
  33 H :    0.080497
Sum of atomic charges:   -0.0000000

LOEWDIN ATOMIC CHARGES
----------------------
   0 S :    0.390493
   1 C :   -0.176140
   2 C :   -0.059528
   3 C :   -0.063271
   4 C :   -0.199985
   5 H :    0.035646
   6 C :   -0.031091
   7 H :    0.030377
   8 H :    0.034022
   9 C :   -0.038847
  10 H :    0.026304
  11 H :    0.028982
  12 C :   -0.078082
  13 H :    0.026104
  14 H :    0.026323
  15 H :    0.022916
  16 S :    0.377693
  17 C :   -0.194072
  18 C :   -0.090107
  19 C :   -0.053368
  20 C :   -0.179015
  21 H :    0.040177
  22 C :   -0.023510
  23 H :    0.020698
  24 H :    0.029751
  25 C :   -0.046824
  26 H :    0.028568
  27 H :    0.020940
  28 C :   -0.077050
  29 H :    0.028649
  30 H :    0.034094
  31 H :    0.031717
  32 H :    0.025062
  33 H :    0.052375

  Mayer bond orders larger than 0.100000
B(  0-S ,  1-C ) :   1.1416 B(  0-S ,  4-C ) :   1.1398 B(  1-C ,  2-C ) :   1.5657
B(  1-C ,  4-C ) :   0.1045 B(  1-C , 32-H ) :   0.9814 B(  2-C ,  3-C ) :   1.2592
B(  2-C ,  6-C ) :   1.0151 B(  3-C ,  4-C ) :   1.6010 B(  3-C ,  5-H ) :   0.9871
B(  4-C , 20-C ) :   1.0088 B(  6-C ,  7-H ) :   0.9534 B(  6-C ,  8-H ) :   0.9503
B(  6-C ,  9-C ) :   1.0410 B(  9-C , 10-H ) :   0.9606 B(  9-C , 11-H ) :   0.9620
B(  9-C , 12-C ) :   1.0786 B( 12-C , 13-H ) :   0.9709 B( 12-C , 14-H ) :   0.9662
B( 12-C , 15-H ) :   0.9761 B( 16-S , 17-C ) :   1.1344 B( 16-S , 20-C ) :   1.1197
B( 17-C , 18-C ) :   1.6586 B( 17-C , 33-H ) :   0.9554 B( 18-C , 19-C ) :   1.2161
B( 18-C , 21-H ) :   0.9716 B( 19-C , 20-C ) :   1.6424 B( 19-C , 22-C ) :   1.0446
B( 22-C , 23-H ) :   0.9389 B( 22-C , 24-H ) :   0.9205 B( 22-C , 25-C ) :   1.0631
B( 25-C , 26-H ) :   0.9507 B( 25-C , 27-H ) :   0.9549 B( 25-C , 28-C ) :   1.0892
B( 28-C , 29-H ) :   0.9747 B( 28-C , 30-H ) :   0.9720 B( 28-C , 31-H ) :   0.9710

Dispersion correction           -0.013934278
FINAL SINGLE POINT ENERGY     -1339.858175577243

DIPOLE MOMENT
-------------
                                X             Y             Z
Electronic contribution:     21.40012       4.84664      -6.25843
Nuclear contribution   :    -21.92192      -4.98125       6.61877
                        -----------------------------------------
Total Dipole Moment    :     -0.52179      -0.13461       0.36034
                        -----------------------------------------
Magnitude (a.u.)       :      0.64826
Magnitude (Debye)      :      1.64774

Rotational constants in cm-1:     0.018361     0.007655     0.006622
Rotational constants in MHz :   550.446529   229.478822   198.531221

                             ****ORCA TERMINATED NORMALLY****
TOTAL RUN TIME: 0 days 0 hours 0 minutes 31 seconds 144 msec
