                         Program Version 4.2.1 -  RELEASE  -
|  1> ! wB97X-D3 SP def2-SVP
|  2> %pal
|  3> nprocs 16
|  4> end
|  5>
|  6> * xyz 0 1
|  7> S 	 -40.7212 	 35.2494 	 79.8516
|  8> C 	 -41.0665 	 36.419 	 78.6558
|  9> C 	 -42.2405 	 36.1103 	 77.9926
| 10> C 	 -42.9875 	 35.0904 	 78.7372
| 11> C 	 -42.3105 	 34.58 	 79.8432
| 12> H 	 -43.8986 	 34.5776 	 78.372
| 13> C 	 -42.8447 	 36.9605 	 76.8535
| 14> H 	 -43.3831 	 36.3206 	 76.1772
| 15> H 	 -42.0982 	 37.3991 	 76.2613
| 16> C 	 -43.9265 	 37.9494 	 77.3472
| 17> H 	 -44.6859 	 37.4365 	 77.9084
| 18> H 	 -43.5249 	 38.6563 	 78.0229
| 19> C 	 -44.5981 	 38.6309 	 76.1875
| 20> H 	 -45.2362 	 37.969 	 75.5697
| 21> H 	 -45.3854 	 39.3464 	 76.5307
| 22> H 	 -43.8877 	 39.0966 	 75.4403
| 23> S 	 -44.4083 	 33.8094 	 81.4775
| 24> C 	 -44.3404 	 32.3308 	 82.3344
| 25> C 	 -43.1913 	 31.5769 	 82.1968
| 26> C 	 -42.3332 	 32.2808 	 81.2846
| 27> C 	 -42.8571 	 33.5467 	 80.7448
| 28> H 	 -43.0522 	 30.6547 	 82.6912
| 29> C 	 -40.9889 	 31.6646 	 81.0428
| 30> H 	 -40.995 	 30.6283 	 81.4031
| 31> H 	 -40.1707 	 32.1135 	 81.6415
| 32> C 	 -40.4478 	 31.7136 	 79.5667
| 33> H 	 -40.2496 	 32.7653 	 79.2395
| 34> H 	 -41.2717 	 31.353 	 78.9179
| 35> C 	 -39.1488 	 30.8656 	 79.2398
| 36> H 	 -38.2775 	 31.5292 	 79.3526
| 37> H 	 -39.2467 	 30.5417 	 78.2313
| 38> H 	 -39.1284 	 29.9834 	 79.8524
| 39> H 	 -40.3652 	 37.1741 	 78.2045
| 40> H 	 -45.1164 	 31.9683 	 82.9735
| 41> *
| 42>
| 43>                          ****END OF INPUT****

CARTESIAN COORDINATES (ANGSTROEM)
---------------------------------
  S    -40.721200   35.249400   79.851600
  C    -41.066500   36.419000   78.655800
  C    -42.240500   36.110300   77.992600
  C    -42.987500   35.090400   78.737200
  C    -42.310500   34.580000   79.843200
  H    -43.898600   34.577600   78.372000
  C    -42.844700   36.960500   76.853500
  H    -43.383100   36.320600   76.177200
  H    -42.098200   37.399100   76.261300
  C    -43.926500   37.949400   77.347200
  H    -44.685900   37.436500   77.908400
  H    -43.524900   38.656300   78.022900
  C    -44.598100   38.630900   76.187500
  H    -45.236200   37.969000   75.569700
  H    -45.385400   39.346400   76.530700
  H    -43.887700   39.096600   75.440300
  S    -44.408300   33.809400   81.477500
  C    -44.340400   32.330800   82.334400
  C    -43.191300   31.576900   82.196800
  C    -42.333200   32.280800   81.284600
  C    -42.857100   33.546700   80.744800
  H    -43.052200   30.654700   82.691200
  C    -40.988900   31.664600   81.042800
  H    -40.995000   30.628300   81.403100
  H    -40.170700   32.113500   81.641500
  C    -40.447800   31.713600   79.566700
  H    -40.249600   32.765300   79.239500
  H    -41.271700   31.353000   78.917900
  C    -39.148800   30.865600   79.239800
  H    -38.277500   31.529200   79.352600
  H    -39.246700   30.541700   78.231300
  H    -39.128400   29.983400   79.852400
  H    -40.365200   37.174100   78.204500
  H    -45.116400   31.968300   82.973500

 Total Charge           Charge          ....    0
 Multiplicity           Mult            ....    1
 Number of Electrons    NEL             ....  134
 Basis Dimension        Dim             ....  322

ORBITAL ENERGIES
----------------

  NO   OCC          E(Eh)            E(eV)
   0   2.0000     -88.972030     -2421.0520
   1   2.0000     -88.967504     -2420.9289
   2   2.0000     -10.334994      -281.2295
   3   2.0000     -10.332971      -281.1744
   4   2.0000     -10.316171      -280.7173
   5   2.0000     -10.313229      -280.6372
   6   2.0000     -10.311937      -280.6021
   7   2.0000     -10.305069      -280.4152
   8   2.0000     -10.298919      -280.2478
   9   2.0000     -10.293406      -280.0978
  10   2.0000     -10.290045      -280.0064
  11   2.0000     -10.289536      -279.9925
  12   2.0000     -10.283890      -279.8389
  13   2.0000     -10.283262      -279.8218
  14   2.0000     -10.280345      -279.7424
  15   2.0000     -10.273147      -279.5466
  16   2.0000      -8.087044      -220.0597
  17   2.0000      -8.082701      -219.9415
  18   2.0000      -6.045376      -164.5030
  19   2.0000      -6.041382      -164.3944
  20   2.0000      -6.041194      -164.3893
  21   2.0000      -6.038118      -164.3055
  22   2.0000      -6.037164      -164.2796
  23   2.0000      -6.033377      -164.1765
  24   2.0000      -1.007606       -27.4183
  25   2.0000      -0.988111       -26.8879
  26   2.0000      -0.912824       -24.8392
  27   2.0000      -0.896813       -24.4035
  28   2.0000      -0.872619       -23.7452
  29   2.0000      -0.847944       -23.0737
  30   2.0000      -0.842641       -22.9294
  31   2.0000      -0.813599       -22.1392
  32   2.0000      -0.780268       -21.2322
  33   2.0000      -0.765499       -20.8303
  34   2.0000      -0.707176       -19.2432
  35   2.0000      -0.699693       -19.0396
  36   2.0000      -0.682748       -18.5785
  37   2.0000      -0.661586       -18.0027
  38   2.0000      -0.637326       -17.3425
  39   2.0000      -0.617177       -16.7942
  40   2.0000      -0.595073       -16.1927
  41   2.0000      -0.574630       -15.6365
  42   2.0000      -0.562832       -15.3154
  43   2.0000      -0.554656       -15.0930
  44   2.0000      -0.525952       -14.3119
  45   2.0000      -0.521274       -14.1846
  46   2.0000      -0.512396       -13.9430
  47   2.0000      -0.508110       -13.8264
  48   2.0000      -0.498577       -13.5670
  49   2.0000      -0.494078       -13.4446
  50   2.0000      -0.492707       -13.4072
  51   2.0000      -0.488559       -13.2944
  52   2.0000      -0.477437       -12.9917
  53   2.0000      -0.463656       -12.6167
  54   2.0000      -0.456580       -12.4242
  55   2.0000      -0.452116       -12.3027
  56   2.0000      -0.442412       -12.0387
  57   2.0000      -0.439716       -11.9653
  58   2.0000      -0.422236       -11.4896
  59   2.0000      -0.420801       -11.4506
  60   2.0000      -0.419626       -11.4186
  61   2.0000      -0.414351       -11.2751
  62   2.0000      -0.409697       -11.1484
  63   2.0000      -0.350878        -9.5479
  64   2.0000      -0.332317        -9.0428
  65   2.0000      -0.322572        -8.7776
  66   2.0000      -0.287895        -7.8340
  67   0.0000       0.027689         0.7535
  68   0.0000       0.069906         1.9022
  69   0.0000       0.103584         2.8187
  70   0.0000       0.120189         3.2705
  71   0.0000       0.134440         3.6583

MULLIKEN ATOMIC CHARGES
-----------------------
   0 S :    0.122910
   1 C :   -0.128264
   2 C :   -0.099819
   3 C :   -0.013735
   4 C :   -0.131207
   5 H :    0.033297
   6 C :    0.082965
   7 H :    0.011256
   8 H :    0.007765
   9 C :   -0.023952
  10 H :    0.023248
  11 H :    0.021157
  12 C :   -0.084588
  13 H :    0.024014
  14 H :    0.038811
  15 H :    0.039217
  16 S :    0.137870
  17 C :   -0.079708
  18 C :   -0.022583
  19 C :   -0.039418
  20 C :   -0.150456
  21 H :    0.013677
  22 C :    0.047379
  23 H :    0.011362
  24 H :    0.042283
  25 C :   -0.152999
  26 H :    0.045642
  27 H :    0.031077
  28 C :   -0.015685
  29 H :    0.041876
  30 H :    0.028322
  31 H :    0.022918
  32 H :    0.070676
  33 H :    0.044691
Sum of atomic charges:    0.0000000

LOEWDIN ATOMIC CHARGES
----------------------
   0 S :    0.445500
   1 C :   -0.220390
   2 C :   -0.063100
   3 C :   -0.071105
   4 C :   -0.207649
   5 H :    0.035160
   6 C :   -0.022806
   7 H :    0.028541
   8 H :    0.020083
   9 C :   -0.034427
  10 H :    0.026078
  11 H :    0.019294
  12 C :   -0.077153
  13 H :    0.023822
  14 H :    0.031897
  15 H :    0.028883
  16 S :    0.450973
  17 C :   -0.192932
  18 C :   -0.065254
  19 C :   -0.046854
  20 C :   -0.217093
  21 H :    0.031222
  22 C :   -0.046500
  23 H :    0.027258
  24 H :    0.035457
  25 C :   -0.052448
  26 H :    0.012222
  27 H :    0.021391
  28 C :   -0.060587
  29 H :    0.028991
  30 H :    0.024617
  31 H :    0.019523
  32 H :    0.043963
  33 H :    0.023423

  Mayer bond orders larger than 0.100000
B(  0-S ,  1-C ) :   1.1519 B(  0-S ,  4-C ) :   1.1497 B(  1-C ,  2-C ) :   1.6031
B(  1-C , 32-H ) :   0.9580 B(  2-C ,  3-C ) :   1.2398 B(  2-C ,  6-C ) :   1.0454
B(  3-C ,  4-C ) :   1.5598 B(  3-C ,  5-H ) :   0.9867 B(  4-C , 20-C ) :   1.0482
B(  6-C ,  7-H ) :   0.9373 B(  6-C ,  8-H ) :   0.9433 B(  6-C ,  9-C ) :   1.0565
B(  9-C , 10-H ) :   0.9508 B(  9-C , 11-H ) :   0.9557 B(  9-C , 12-C ) :   1.0867
B( 12-C , 13-H ) :   0.9721 B( 12-C , 14-H ) :   0.9709 B( 12-C , 15-H ) :   0.9742
B( 16-S , 17-C ) :   1.1940 B( 16-S , 20-C ) :   1.1580 B( 17-C , 18-C ) :   1.5691
B( 17-C , 33-H ) :   0.9620 B( 18-C , 19-C ) :   1.2845 B( 18-C , 21-H ) :   0.9985
B( 19-C , 20-C ) :   1.5040 B( 19-C , 22-C ) :   1.0609 B( 22-C , 23-H ) :   0.9353
B( 22-C , 24-H ) :   0.9292 B( 22-C , 25-C ) :   1.0508 B( 25-C , 26-H ) :   0.9485
B( 25-C , 27-H ) :   0.9669 B( 25-C , 28-C ) :   1.0726 B( 28-C , 29-H ) :   0.9790
B( 28-C , 30-H ) :   0.9772 B( 28-C , 31-H ) :   0.9777

Dispersion correction           -0.014133830
FINAL SINGLE POINT ENERGY     -1339.868716748887

DIPOLE MOMENT
-------------
                                X             Y             Z
Electronic contribution:     -3.37313      -1.34922      16.40206
Nuclear contribution   :      3.27117       1.22580     -16.66905
                        -----------------------------------------
Total Dipole Moment    :     -0.10196      -0.12342      -0.26699
                        -----------------------------------------
Magnitude (a.u.)       :      0.31131
Magnitude (Debye)      :      0.79128

Rotational constants in cm-1:     0.019682     0.008143     0.006329
Rotational constants in MHz :   590.064736   244.124294   189.738474

                             ****ORCA TERMINATED NORMALLY****
TOTAL RUN TIME: 0 days 0 hours 0 minutes 29 seconds 49 msec
