                         Program Version 4.2.1 -  RELEASE  -
|  1> ! wB97X-D3 SP def2-SVP
|  2> %pal
|  3> nprocs 16
|  4> end
|  5>
|  6> * xyz 0 1
|  7> S 	 51.5256 	 21.8669 	 88.3429
|  8> C 	 49.9289 	 21.2475 	 88.0464
|  9> C 	 49.0813 	 21.5329 	 89.1247
| 10> C 	 49.7244 	 22.264 	 90.1625
| 11> C 	 51.0078 	 22.5323 	 89.9644
| 12> H 	 49.2617 	 22.529 	 91.0881
| 13> C 	 47.6144 	 21.1479 	 89.2806
| 14> H 	 47.4441 	 21.1571 	 90.3386
| 15> H 	 47.4777 	 20.1363 	 88.9049
| 16> C 	 46.6175 	 22.1318 	 88.6995
| 17> H 	 46.8859 	 23.0981 	 89.1385
| 18> H 	 46.759 	 22.4197 	 87.6176
| 19> C 	 45.1527 	 21.7047 	 88.7663
| 20> H 	 44.9597 	 20.7496 	 88.2137
| 21> H 	 44.8035 	 21.5958 	 89.7868
| 22> H 	 44.5696 	 22.536 	 88.5045
| 23> S 	 52.9518 	 24.3892 	 90.2338
| 24> C 	 53.9779 	 24.4028 	 91.6707
| 25> C 	 53.5772 	 23.4704 	 92.6175
| 26> C 	 52.4212 	 22.7222 	 92.1887
| 27> C 	 52.001 	 23.0798 	 90.8873
| 28> H 	 54.1163 	 23.3978 	 93.5329
| 29> C 	 51.7997 	 21.6288 	 93.008
| 30> H 	 51.2917 	 20.8435 	 92.4578
| 31> H 	 51.0407 	 22.1032 	 93.6121
| 32> C 	 52.785 	 20.958 	 93.9675
| 33> H 	 52.9854 	 21.5169 	 94.885
| 34> H 	 53.7334 	 20.8574 	 93.4067
| 35> C 	 52.3625 	 19.6538 	 94.5564
| 36> H 	 52.0913 	 18.9629 	 93.7899
| 37> H 	 51.3939 	 19.7617 	 95.1617
| 38> H 	 53.0998 	 19.2491 	 95.2124
| 39> H 	 49.6839 	 20.9175 	 87.0833
| 40> H 	 54.8482 	 25.0643 	 91.6183
| 41> *
| 42>
| 43>                          ****END OF INPUT****

CARTESIAN COORDINATES (ANGSTROEM)
---------------------------------
  S     51.525600   21.866900   88.342900
  C     49.928900   21.247500   88.046400
  C     49.081300   21.532900   89.124700
  C     49.724400   22.264000   90.162500
  C     51.007800   22.532300   89.964400
  H     49.261700   22.529000   91.088100
  C     47.614400   21.147900   89.280600
  H     47.444100   21.157100   90.338600
  H     47.477700   20.136300   88.904900
  C     46.617500   22.131800   88.699500
  H     46.885900   23.098100   89.138500
  H     46.759000   22.419700   87.617600
  C     45.152700   21.704700   88.766300
  H     44.959700   20.749600   88.213700
  H     44.803500   21.595800   89.786800
  H     44.569600   22.536000   88.504500
  S     52.951800   24.389200   90.233800
  C     53.977900   24.402800   91.670700
  C     53.577200   23.470400   92.617500
  C     52.421200   22.722200   92.188700
  C     52.001000   23.079800   90.887300
  H     54.116300   23.397800   93.532900
  C     51.799700   21.628800   93.008000
  H     51.291700   20.843500   92.457800
  H     51.040700   22.103200   93.612100
  C     52.785000   20.958000   93.967500
  H     52.985400   21.516900   94.885000
  H     53.733400   20.857400   93.406700
  C     52.362500   19.653800   94.556400
  H     52.091300   18.962900   93.789900
  H     51.393900   19.761700   95.161700
  H     53.099800   19.249100   95.212400
  H     49.683900   20.917500   87.083300
  H     54.848200   25.064300   91.618300

 Total Charge           Charge          ....    0
 Multiplicity           Mult            ....    1
 Number of Electrons    NEL             ....  134
 Basis Dimension        Dim             ....  322

ORBITAL ENERGIES
----------------

  NO   OCC          E(Eh)            E(eV)
   0   2.0000     -88.962548     -2420.7940
   1   2.0000     -88.960638     -2420.7420
   2   2.0000     -10.327486      -281.0252
   3   2.0000     -10.326378      -280.9950
   4   2.0000     -10.321724      -280.8684
   5   2.0000     -10.313303      -280.6392
   6   2.0000     -10.310656      -280.5672
   7   2.0000     -10.301545      -280.3193
   8   2.0000     -10.298630      -280.2400
   9   2.0000     -10.289981      -280.0046
  10   2.0000     -10.288328      -279.9596
  11   2.0000     -10.287430      -279.9352
  12   2.0000     -10.287001      -279.9235
  13   2.0000     -10.283459      -279.8272
  14   2.0000     -10.277312      -279.6599
  15   2.0000     -10.276355      -279.6338
  16   2.0000      -8.077501      -219.8000
  17   2.0000      -8.074870      -219.7284
  18   2.0000      -6.035855      -164.2440
  19   2.0000      -6.033431      -164.1780
  20   2.0000      -6.031890      -164.1361
  21   2.0000      -6.029444      -164.0695
  22   2.0000      -6.028506      -164.0440
  23   2.0000      -6.025594      -163.9648
  24   2.0000      -1.002524       -27.2801
  25   2.0000      -0.980482       -26.6803
  26   2.0000      -0.915850       -24.9216
  27   2.0000      -0.909842       -24.7581
  28   2.0000      -0.869989       -23.6736
  29   2.0000      -0.855087       -23.2681
  30   2.0000      -0.848591       -23.0913
  31   2.0000      -0.819110       -22.2891
  32   2.0000      -0.783144       -21.3104
  33   2.0000      -0.768475       -20.9113
  34   2.0000      -0.702464       -19.1150
  35   2.0000      -0.699200       -19.0262
  36   2.0000      -0.695479       -18.9250
  37   2.0000      -0.656619       -17.8675
  38   2.0000      -0.648503       -17.6467
  39   2.0000      -0.625389       -17.0177
  40   2.0000      -0.603836       -16.4312
  41   2.0000      -0.576394       -15.6845
  42   2.0000      -0.564427       -15.3588
  43   2.0000      -0.560590       -15.2544
  44   2.0000      -0.534062       -14.5326
  45   2.0000      -0.526820       -14.3355
  46   2.0000      -0.516171       -14.0457
  47   2.0000      -0.515003       -14.0140
  48   2.0000      -0.510949       -13.9036
  49   2.0000      -0.495200       -13.4751
  50   2.0000      -0.488336       -13.2883
  51   2.0000      -0.480584       -13.0774
  52   2.0000      -0.472972       -12.8702
  53   2.0000      -0.464816       -12.6483
  54   2.0000      -0.459723       -12.5097
  55   2.0000      -0.456359       -12.4182
  56   2.0000      -0.444137       -12.0856
  57   2.0000      -0.437563       -11.9067
  58   2.0000      -0.426574       -11.6077
  59   2.0000      -0.425944       -11.5905
  60   2.0000      -0.418239       -11.3809
  61   2.0000      -0.414054       -11.2670
  62   2.0000      -0.405071       -11.0225
  63   2.0000      -0.347660        -9.4603
  64   2.0000      -0.331763        -9.0277
  65   2.0000      -0.325935        -8.8691
  66   2.0000      -0.293215        -7.9788
  67   0.0000       0.030232         0.8227
  68   0.0000       0.066039         1.7970
  69   0.0000       0.111743         3.0407
  70   0.0000       0.121294         3.3006
  71   0.0000       0.127244         3.4625

MULLIKEN ATOMIC CHARGES
-----------------------
   0 S :    0.089408
   1 C :   -0.102476
   2 C :   -0.103206
   3 C :    0.032965
   4 C :   -0.115823
   5 H :    0.003278
   6 C :    0.105958
   7 H :    0.010224
   8 H :    0.023786
   9 C :   -0.104243
  10 H :    0.016498
  11 H :    0.027209
  12 C :   -0.010200
  13 H :    0.050168
  14 H :    0.013225
  15 H :    0.023005
  16 S :    0.095580
  17 C :   -0.102276
  18 C :   -0.022295
  19 C :   -0.028044
  20 C :   -0.186796
  21 H :    0.019243
  22 C :    0.106726
  23 H :    0.031233
  24 H :    0.029474
  25 C :   -0.134854
  26 H :    0.029900
  27 H :    0.041152
  28 C :   -0.027764
  29 H :    0.021590
  30 H :    0.026726
  31 H :    0.035039
  32 H :    0.036510
  33 H :    0.069081
Sum of atomic charges:    0.0000000

LOEWDIN ATOMIC CHARGES
----------------------
   0 S :    0.372414
   1 C :   -0.183527
   2 C :   -0.060468
   3 C :   -0.062735
   4 C :   -0.171420
   5 H :    0.031395
   6 C :   -0.029076
   7 H :    0.027710
   8 H :    0.028354
   9 C :   -0.051182
  10 H :    0.024065
  11 H :    0.027164
  12 C :   -0.065930
  13 H :    0.035078
  14 H :    0.021322
  15 H :    0.024093
  16 S :    0.402927
  17 C :   -0.174734
  18 C :   -0.068909
  19 C :   -0.046484
  20 C :   -0.205346
  21 H :    0.031727
  22 C :   -0.031810
  23 H :    0.032807
  24 H :    0.034590
  25 C :   -0.050744
  26 H :    0.024886
  27 H :    0.027405
  28 C :   -0.062765
  29 H :    0.017129
  30 H :    0.031006
  31 H :    0.024952
  32 H :    0.017128
  33 H :    0.028976

  Mayer bond orders larger than 0.100000
B(  0-S ,  1-C ) :   1.1449 B(  0-S ,  4-C ) :   1.1191 B(  1-C ,  2-C ) :   1.6016
B(  1-C , 32-H ) :   0.9801 B(  2-C ,  3-C ) :   1.2249 B(  2-C ,  6-C ) :   1.0215
B(  3-C ,  4-C ) :   1.6187 B(  3-C ,  5-H ) :   1.0019 B(  4-C , 20-C ) :   1.0280
B(  6-C ,  7-H ) :   0.9345 B(  6-C ,  8-H ) :   0.9412 B(  6-C ,  9-C ) :   1.0632
B(  9-C , 10-H ) :   0.9490 B(  9-C , 11-H ) :   0.9573 B(  9-C , 12-C ) :   1.0823
B( 12-C , 13-H ) :   0.9729 B( 12-C , 14-H ) :   0.9709 B( 12-C , 15-H ) :   0.9687
B( 16-S , 17-C ) :   1.1654 B( 16-S , 20-C ) :   1.1547 B( 17-C , 18-C ) :   1.5773
B( 17-C , 20-C ) :   0.1017 B( 17-C , 33-H ) :   0.9673 B( 18-C , 19-C ) :   1.2370
B( 18-C , 21-H ) :   0.9981 B( 19-C , 20-C ) :   1.5785 B( 19-C , 22-C ) :   1.0431
B( 22-C , 23-H ) :   0.9418 B( 22-C , 24-H ) :   0.9118 B( 22-C , 25-C ) :   1.0726
B( 25-C , 26-H ) :   0.9424 B( 25-C , 27-H ) :   0.9590 B( 25-C , 28-C ) :   1.0988
B( 28-C , 29-H ) :   0.9716 B( 28-C , 30-H ) :   0.9689 B( 28-C , 31-H ) :   0.9715

Dispersion correction           -0.013412617
FINAL SINGLE POINT ENERGY     -1339.879213679335

DIPOLE MOMENT
-------------
                                X             Y             Z
Electronic contribution:     19.02916      13.02937     -13.35342
Nuclear contribution   :    -19.36939     -13.23574      13.85981
                        -----------------------------------------
Total Dipole Moment    :     -0.34023      -0.20637       0.50639
                        -----------------------------------------
Magnitude (a.u.)       :      0.64403
Magnitude (Debye)      :      1.63699

Rotational constants in cm-1:     0.018329     0.007562     0.006163
Rotational constants in MHz :   549.497284   226.700951   184.774167

                             ****ORCA TERMINATED NORMALLY****
TOTAL RUN TIME: 0 days 0 hours 0 minutes 28 seconds 848 msec
