                         Program Version 4.2.1 -  RELEASE  -
|  1> ! wB97X-D3 SP def2-SVP
|  2> %pal
|  3> nprocs 16
|  4> end
|  5>
|  6> * xyz 0 1
|  7> S 	 5.13544 	 -13.9336 	 91.6489
|  8> C 	 3.42939 	 -13.7774 	 92.0147
|  9> C 	 2.71122 	 -14.5474 	 91.1478
| 10> C 	 3.48496 	 -15.0443 	 90.0219
| 11> C 	 4.79171 	 -14.792 	 90.0784
| 12> H 	 3.09616 	 -15.5764 	 89.1722
| 13> C 	 1.27675 	 -14.8325 	 91.3247
| 14> H 	 0.726176 	 -14.054 	 90.6976
| 15> H 	 0.922627 	 -14.6546 	 92.3669
| 16> C 	 0.818798 	 -16.2403 	 90.8944
| 17> H 	 1.05048 	 -16.4594 	 89.8596
| 18> H 	 1.4701 	 -16.978 	 91.3521
| 19> C 	 -0.669089 	 -16.518 	 91.1774
| 20> H 	 -0.815272 	 -16.3612 	 92.2796
| 21> H 	 -1.29719 	 -15.9219 	 90.5095
| 22> H 	 -0.727245 	 -17.589 	 91.0006
| 23> S 	 6.34688 	 -13.4839 	 88.1844
| 24> C 	 7.39634 	 -14.4152 	 87.1447
| 25> C 	 7.06239 	 -15.7515 	 87.2474
| 26> C 	 6.12599 	 -16.0962 	 88.3081
| 27> C 	 5.77088 	 -14.9465 	 89.0083
| 28> H 	 7.63446 	 -16.3955 	 86.5863
| 29> C 	 5.63397 	 -17.4587 	 88.688
| 30> H 	 5.34792 	 -17.5388 	 89.735
| 31> H 	 6.37309 	 -18.1683 	 88.5501
| 32> C 	 4.38702 	 -17.9577 	 87.9072
| 33> H 	 4.44378 	 -17.6023 	 86.8519
| 34> H 	 3.37601 	 -17.4458 	 88.214
| 35> C 	 4.21715 	 -19.4765 	 88.0161
| 36> H 	 3.20038 	 -19.5776 	 87.5625
| 37> H 	 4.09155 	 -19.7967 	 89.0826
| 38> H 	 4.98417 	 -20.2036 	 87.6413
| 39> H 	 2.90733 	 -13.3508 	 92.8347
| 40> H 	 8.07157 	 -13.9579 	 86.4407
| 41> *
| 42>
| 43>                          ****END OF INPUT****

CARTESIAN COORDINATES (ANGSTROEM)
---------------------------------
  S      5.135440  -13.933600   91.648900
  C      3.429390  -13.777400   92.014700
  C      2.711220  -14.547400   91.147800
  C      3.484960  -15.044300   90.021900
  C      4.791710  -14.792000   90.078400
  H      3.096160  -15.576400   89.172200
  C      1.276750  -14.832500   91.324700
  H      0.726176  -14.054000   90.697600
  H      0.922627  -14.654600   92.366900
  C      0.818798  -16.240300   90.894400
  H      1.050480  -16.459400   89.859600
  H      1.470100  -16.978000   91.352100
  C     -0.669089  -16.518000   91.177400
  H     -0.815272  -16.361200   92.279600
  H     -1.297190  -15.921900   90.509500
  H     -0.727245  -17.589000   91.000600
  S      6.346880  -13.483900   88.184400
  C      7.396340  -14.415200   87.144700
  C      7.062390  -15.751500   87.247400
  C      6.125990  -16.096200   88.308100
  C      5.770880  -14.946500   89.008300
  H      7.634460  -16.395500   86.586300
  C      5.633970  -17.458700   88.688000
  H      5.347920  -17.538800   89.735000
  H      6.373090  -18.168300   88.550100
  C      4.387020  -17.957700   87.907200
  H      4.443780  -17.602300   86.851900
  H      3.376010  -17.445800   88.214000
  C      4.217150  -19.476500   88.016100
  H      3.200380  -19.577600   87.562500
  H      4.091550  -19.796700   89.082600
  H      4.984170  -20.203600   87.641300
  H      2.907330  -13.350800   92.834700
  H      8.071570  -13.957900   86.440700

 Total Charge           Charge          ....    0
 Multiplicity           Mult            ....    1
 Number of Electrons    NEL             ....  134
 Basis Dimension        Dim             ....  322

ORBITAL ENERGIES
----------------

  NO   OCC          E(Eh)            E(eV)
   0   2.0000     -88.961335     -2420.7610
   1   2.0000     -88.959981     -2420.7241
   2   2.0000     -10.328405      -281.0502
   3   2.0000     -10.327761      -281.0327
   4   2.0000     -10.318259      -280.7741
   5   2.0000     -10.309715      -280.5416
   6   2.0000     -10.309083      -280.5244
   7   2.0000     -10.301968      -280.3308
   8   2.0000     -10.298462      -280.2354
   9   2.0000     -10.295809      -280.1632
  10   2.0000     -10.295470      -280.1540
  11   2.0000     -10.291797      -280.0540
  12   2.0000     -10.290539      -280.0198
  13   2.0000     -10.287353      -279.9331
  14   2.0000     -10.286354      -279.9059
  15   2.0000     -10.285816      -279.8913
  16   2.0000      -8.076075      -219.7612
  17   2.0000      -8.073793      -219.6991
  18   2.0000      -6.034618      -164.2103
  19   2.0000      -6.032593      -164.1552
  20   2.0000      -6.030598      -164.1009
  21   2.0000      -6.028558      -164.0454
  22   2.0000      -6.026763      -163.9966
  23   2.0000      -6.024138      -163.9251
  24   2.0000      -1.003148       -27.2970
  25   2.0000      -0.981824       -26.7168
  26   2.0000      -0.911809       -24.8116
  27   2.0000      -0.910061       -24.7640
  28   2.0000      -0.874359       -23.7925
  29   2.0000      -0.849032       -23.1033
  30   2.0000      -0.843299       -22.9473
  31   2.0000      -0.820532       -22.3278
  32   2.0000      -0.781465       -21.2648
  33   2.0000      -0.767521       -20.8853
  34   2.0000      -0.712335       -19.3836
  35   2.0000      -0.697191       -18.9715
  36   2.0000      -0.691145       -18.8070
  37   2.0000      -0.658482       -17.9182
  38   2.0000      -0.643291       -17.5048
  39   2.0000      -0.620701       -16.8901
  40   2.0000      -0.600369       -16.3369
  41   2.0000      -0.569707       -15.5025
  42   2.0000      -0.565539       -15.3891
  43   2.0000      -0.557882       -15.1807
  44   2.0000      -0.532015       -14.4769
  45   2.0000      -0.524230       -14.2650
  46   2.0000      -0.519395       -14.1335
  47   2.0000      -0.512883       -13.9563
  48   2.0000      -0.509353       -13.8602
  49   2.0000      -0.500649       -13.6234
  50   2.0000      -0.496354       -13.5065
  51   2.0000      -0.477937       -13.0053
  52   2.0000      -0.471636       -12.8339
  53   2.0000      -0.463016       -12.5993
  54   2.0000      -0.459935       -12.5155
  55   2.0000      -0.449998       -12.2451
  56   2.0000      -0.447227       -12.1697
  57   2.0000      -0.437071       -11.8933
  58   2.0000      -0.432280       -11.7629
  59   2.0000      -0.420953       -11.4547
  60   2.0000      -0.417299       -11.3553
  61   2.0000      -0.411532       -11.1984
  62   2.0000      -0.408860       -11.1256
  63   2.0000      -0.345506        -9.4017
  64   2.0000      -0.326633        -8.8881
  65   2.0000      -0.317768        -8.6469
  66   2.0000      -0.303165        -8.2495
  67   0.0000       0.031051         0.8449
  68   0.0000       0.067291         1.8311
  69   0.0000       0.109512         2.9800
  70   0.0000       0.117790         3.2052
  71   0.0000       0.122155         3.3240

MULLIKEN ATOMIC CHARGES
-----------------------
   0 S :    0.092435
   1 C :   -0.086715
   2 C :   -0.090475
   3 C :    0.059014
   4 C :   -0.158215
   5 H :   -0.003255
   6 C :    0.043409
   7 H :    0.045649
   8 H :    0.020218
   9 C :   -0.121106
  10 H :    0.019334
  11 H :    0.023650
  12 C :   -0.024882
  13 H :    0.040017
  14 H :    0.046754
  15 H :    0.034526
  16 S :    0.103328
  17 C :   -0.096646
  18 C :   -0.038395
  19 C :   -0.012402
  20 C :   -0.160968
  21 H :    0.019196
  22 C :    0.125812
  23 H :    0.033090
  24 H :    0.000581
  25 C :   -0.136610
  26 H :    0.037703
  27 H :    0.037926
  28 C :   -0.071444
  29 H :    0.041176
  30 H :    0.031662
  31 H :    0.055180
  32 H :    0.029997
  33 H :    0.060452
Sum of atomic charges:    0.0000000

LOEWDIN ATOMIC CHARGES
----------------------
   0 S :    0.362843
   1 C :   -0.185653
   2 C :   -0.069938
   3 C :   -0.051722
   4 C :   -0.172425
   5 H :    0.026714
   6 C :   -0.042704
   7 H :    0.040121
   8 H :    0.029685
   9 C :   -0.048221
  10 H :    0.017261
  11 H :    0.022298
  12 C :   -0.059668
  13 H :    0.031478
  14 H :    0.028285
  15 H :    0.029447
  16 S :    0.395579
  17 C :   -0.180546
  18 C :   -0.073671
  19 C :   -0.048155
  20 C :   -0.189450
  21 H :    0.030546
  22 C :   -0.030486
  23 H :    0.037021
  24 H :    0.021475
  25 C :   -0.047178
  26 H :    0.025000
  27 H :    0.030086
  28 C :   -0.081348
  29 H :    0.035714
  30 H :    0.028033
  31 H :    0.031853
  32 H :    0.027586
  33 H :    0.030135

  Mayer bond orders larger than 0.100000
B(  0-S ,  1-C ) :   1.1140 B(  0-S ,  4-C ) :   1.1039 B(  1-C ,  2-C ) :   1.6599
B(  1-C , 32-H ) :   0.9686 B(  2-C ,  3-C ) :   1.1793 B(  2-C ,  6-C ) :   1.0373
B(  3-C ,  4-C ) :   1.6450 B(  3-C ,  5-H ) :   0.9897 B(  4-C , 20-C ) :   1.0290
B(  6-C ,  7-H ) :   0.9270 B(  6-C ,  8-H ) :   0.9450 B(  6-C ,  9-C ) :   1.0624
B(  9-C , 10-H ) :   0.9444 B(  9-C , 11-H ) :   0.9578 B(  9-C , 12-C ) :   1.0852
B( 12-C , 13-H ) :   0.9746 B( 12-C , 14-H ) :   0.9752 B( 12-C , 15-H ) :   0.9731
B( 16-S , 17-C ) :   1.1472 B( 16-S , 20-C ) :   1.1467 B( 17-C , 18-C ) :   1.6234
B( 17-C , 33-H ) :   0.9714 B( 18-C , 19-C ) :   1.2018 B( 18-C , 21-H ) :   0.9916
B( 19-C , 20-C ) :   1.5970 B( 19-C , 22-C ) :   1.0662 B( 22-C , 23-H ) :   0.9225
B( 22-C , 24-H ) :   0.9315 B( 22-C , 25-C ) :   1.0456 B( 25-C , 26-H ) :   0.9592
B( 25-C , 27-H ) :   0.9456 B( 25-C , 28-C ) :   1.0700 B( 28-C , 29-H ) :   0.9726
B( 28-C , 30-H ) :   0.9718 B( 28-C , 31-H ) :   0.9747

Dispersion correction           -0.014519532
FINAL SINGLE POINT ENERGY     -1339.866599232996

DIPOLE MOMENT
-------------
                                X             Y             Z
Electronic contribution:     22.39280      22.98860       1.74637
Nuclear contribution   :    -22.87953     -23.60371      -2.03142
                        -----------------------------------------
Total Dipole Moment    :     -0.48673      -0.61510      -0.28505
                        -----------------------------------------
Magnitude (a.u.)       :      0.83457
Magnitude (Debye)      :      2.12131

Rotational constants in cm-1:     0.016675     0.009632     0.006783
Rotational constants in MHz :   499.908486   288.756558   203.350933

                             ****ORCA TERMINATED NORMALLY****
TOTAL RUN TIME: 0 days 0 hours 0 minutes 33 seconds 418 msec
