                         Program Version 4.2.1 -  RELEASE  -
|  1> ! wB97X-D3 SP def2-SVP
|  2> %pal
|  3> nprocs 16
|  4> end
|  5>
|  6> * xyz 0 1
|  7> S 	 45.4527 	 25.1683 	 81.6602
|  8> C 	 45.1216 	 25.4445 	 79.9754
|  9> C 	 44.7083 	 24.3521 	 79.294
| 10> C 	 44.8461 	 23.213 	 80.0944
| 11> C 	 45.2603 	 23.4186 	 81.4208
| 12> H 	 44.7229 	 22.1911 	 79.7881
| 13> C 	 44.2891 	 24.3548 	 77.7905
| 14> H 	 44.4832 	 23.3418 	 77.491
| 15> H 	 44.9805 	 24.9776 	 77.3118
| 16> C 	 42.846 	 24.7253 	 77.5003
| 17> H 	 42.684 	 25.7493 	 77.8278
| 18> H 	 42.7929 	 24.7376 	 76.4173
| 19> C 	 41.7793 	 23.836 	 78.1443
| 20> H 	 40.7855 	 24.1789 	 78.3131
| 21> H 	 41.7484 	 22.9006 	 77.5414
| 22> H 	 41.9177 	 23.4565 	 79.1489
| 23> S 	 46.7672 	 22.7139 	 83.532
| 24> C 	 46.0646 	 21.5559 	 84.6517
| 25> C 	 45.0414 	 20.8259 	 84.0574
| 26> C 	 44.7589 	 21.2948 	 82.7515
| 27> C 	 45.4867 	 22.4563 	 82.4232
| 28> H 	 44.5151 	 19.9826 	 84.4878
| 29> C 	 43.6293 	 20.7023 	 81.9463
| 30> H 	 43.8449 	 19.6977 	 81.5275
| 31> H 	 43.4325 	 21.4457 	 81.1564
| 32> C 	 42.3412 	 20.2976 	 82.7147
| 33> H 	 42.1576 	 21.0996 	 83.6074
| 34> H 	 42.6905 	 19.4211 	 83.243
| 35> C 	 41.0454 	 20.0752 	 81.9626
| 36> H 	 40.6664 	 21.0347 	 81.6893
| 37> H 	 40.3121 	 19.6816 	 82.6544
| 38> H 	 41.1149 	 19.5368 	 81.007
| 39> H 	 45.2713 	 26.3943 	 79.4917
| 40> H 	 46.4127 	 21.2786 	 85.5494
| 41> *
| 42>
| 43>                          ****END OF INPUT****

CARTESIAN COORDINATES (ANGSTROEM)
---------------------------------
  S     45.452700   25.168300   81.660200
  C     45.121600   25.444500   79.975400
  C     44.708300   24.352100   79.294000
  C     44.846100   23.213000   80.094400
  C     45.260300   23.418600   81.420800
  H     44.722900   22.191100   79.788100
  C     44.289100   24.354800   77.790500
  H     44.483200   23.341800   77.491000
  H     44.980500   24.977600   77.311800
  C     42.846000   24.725300   77.500300
  H     42.684000   25.749300   77.827800
  H     42.792900   24.737600   76.417300
  C     41.779300   23.836000   78.144300
  H     40.785500   24.178900   78.313100
  H     41.748400   22.900600   77.541400
  H     41.917700   23.456500   79.148900
  S     46.767200   22.713900   83.532000
  C     46.064600   21.555900   84.651700
  C     45.041400   20.825900   84.057400
  C     44.758900   21.294800   82.751500
  C     45.486700   22.456300   82.423200
  H     44.515100   19.982600   84.487800
  C     43.629300   20.702300   81.946300
  H     43.844900   19.697700   81.527500
  H     43.432500   21.445700   81.156400
  C     42.341200   20.297600   82.714700
  H     42.157600   21.099600   83.607400
  H     42.690500   19.421100   83.243000
  C     41.045400   20.075200   81.962600
  H     40.666400   21.034700   81.689300
  H     40.312100   19.681600   82.654400
  H     41.114900   19.536800   81.007000
  H     45.271300   26.394300   79.491700
  H     46.412700   21.278600   85.549400

 Total Charge           Charge          ....    0
 Multiplicity           Mult            ....    1
 Number of Electrons    NEL             ....  134
 Basis Dimension        Dim             ....  322

ORBITAL ENERGIES
----------------

  NO   OCC          E(Eh)            E(eV)
   0   2.0000     -88.968479     -2420.9554
   1   2.0000     -88.965782     -2420.8820
   2   2.0000     -10.326778      -281.0059
   3   2.0000     -10.322729      -280.8957
   4   2.0000     -10.310460      -280.5619
   5   2.0000     -10.307389      -280.4783
   6   2.0000     -10.302114      -280.3348
   7   2.0000     -10.296035      -280.1694
   8   2.0000     -10.294829      -280.1365
   9   2.0000     -10.293395      -280.0975
  10   2.0000     -10.292267      -280.0668
  11   2.0000     -10.290730      -280.0250
  12   2.0000     -10.289861      -280.0014
  13   2.0000     -10.289839      -280.0007
  14   2.0000     -10.279402      -279.7167
  15   2.0000     -10.276253      -279.6311
  16   2.0000      -8.083607      -219.9661
  17   2.0000      -8.080263      -219.8751
  18   2.0000      -6.042036      -164.4122
  19   2.0000      -6.038733      -164.3223
  20   2.0000      -6.038126      -164.3058
  21   2.0000      -6.034891      -164.2177
  22   2.0000      -6.034352      -164.2031
  23   2.0000      -6.030981      -164.1113
  24   2.0000      -1.011309       -27.5191
  25   2.0000      -0.986507       -26.8442
  26   2.0000      -0.913535       -24.8586
  27   2.0000      -0.908087       -24.7103
  28   2.0000      -0.875510       -23.8238
  29   2.0000      -0.855330       -23.2747
  30   2.0000      -0.845277       -23.0012
  31   2.0000      -0.814822       -22.1724
  32   2.0000      -0.790307       -21.5053
  33   2.0000      -0.776573       -21.1316
  34   2.0000      -0.710857       -19.3434
  35   2.0000      -0.708586       -19.2816
  36   2.0000      -0.699244       -19.0274
  37   2.0000      -0.657468       -17.8906
  38   2.0000      -0.640554       -17.4304
  39   2.0000      -0.616206       -16.7678
  40   2.0000      -0.598259       -16.2795
  41   2.0000      -0.575879       -15.6705
  42   2.0000      -0.563932       -15.3454
  43   2.0000      -0.556738       -15.1496
  44   2.0000      -0.541767       -14.7422
  45   2.0000      -0.526906       -14.3378
  46   2.0000      -0.519078       -14.1248
  47   2.0000      -0.510779       -13.8990
  48   2.0000      -0.507443       -13.8082
  49   2.0000      -0.499252       -13.5853
  50   2.0000      -0.489465       -13.3190
  51   2.0000      -0.484245       -13.1770
  52   2.0000      -0.476912       -12.9774
  53   2.0000      -0.469529       -12.7765
  54   2.0000      -0.463783       -12.6202
  55   2.0000      -0.450336       -12.2543
  56   2.0000      -0.447514       -12.1775
  57   2.0000      -0.438855       -11.9418
  58   2.0000      -0.430444       -11.7130
  59   2.0000      -0.425401       -11.5758
  60   2.0000      -0.415166       -11.2972
  61   2.0000      -0.412136       -11.2148
  62   2.0000      -0.405633       -11.0378
  63   2.0000      -0.351637        -9.5685
  64   2.0000      -0.336164        -9.1475
  65   2.0000      -0.330721        -8.9994
  66   2.0000      -0.279240        -7.5985
  67   0.0000       0.017057         0.4642
  68   0.0000       0.080669         2.1951
  69   0.0000       0.105366         2.8672
  70   0.0000       0.119979         3.2648
  71   0.0000       0.133594         3.6353

MULLIKEN ATOMIC CHARGES
-----------------------
   0 S :    0.118462
   1 C :   -0.131831
   2 C :   -0.081168
   3 C :    0.004407
   4 C :   -0.158546
   5 H :    0.008940
   6 C :    0.117130
   7 H :    0.008450
   8 H :    0.015934
   9 C :   -0.025288
  10 H :    0.023673
  11 H :    0.034216
  12 C :   -0.058625
  13 H :    0.026660
  14 H :    0.025695
  15 H :    0.025823
  16 S :    0.125691
  17 C :   -0.027742
  18 C :   -0.042607
  19 C :   -0.028157
  20 C :   -0.167756
  21 H :    0.020362
  22 C :    0.070714
  23 H :    0.038230
  24 H :    0.019718
  25 C :   -0.173789
  26 H :    0.044365
  27 H :    0.025623
  28 C :    0.005768
  29 H :    0.021800
  30 H :    0.038685
  31 H :    0.034380
  32 H :    0.037888
  33 H :    0.002894
Sum of atomic charges:   -0.0000000

LOEWDIN ATOMIC CHARGES
----------------------
   0 S :    0.398893
   1 C :   -0.193152
   2 C :   -0.067837
   3 C :   -0.065178
   4 C :   -0.189571
   5 H :    0.025597
   6 C :   -0.013198
   7 H :    0.025567
   8 H :    0.025320
   9 C :   -0.035166
  10 H :    0.023179
  11 H :    0.027830
  12 C :   -0.076107
  13 H :    0.025370
  14 H :    0.029261
  15 H :    0.027520
  16 S :    0.426724
  17 C :   -0.164871
  18 C :   -0.060782
  19 C :   -0.051661
  20 C :   -0.213706
  21 H :    0.032863
  22 C :   -0.042832
  23 H :    0.038684
  24 H :    0.026875
  25 C :   -0.052791
  26 H :    0.032846
  27 H :    0.012374
  28 C :   -0.064364
  29 H :    0.024804
  30 H :    0.032742
  31 H :    0.028281
  32 H :    0.024286
  33 H :    0.002200

  Mayer bond orders larger than 0.100000
B(  0-S ,  1-C ) :   1.1452 B(  0-S ,  4-C ) :   1.1309 B(  1-C ,  2-C ) :   1.6117
B(  1-C , 32-H ) :   0.9636 B(  2-C ,  3-C ) :   1.2628 B(  2-C ,  6-C ) :   0.9917
B(  3-C ,  4-C ) :   1.5398 B(  3-C ,  5-H ) :   0.9894 B(  4-C , 20-C ) :   1.1260
B(  6-C ,  7-H ) :   0.9409 B(  6-C ,  8-H ) :   0.9376 B(  6-C ,  9-C ) :   1.0795
B(  9-C , 10-H ) :   0.9558 B(  9-C , 11-H ) :   0.9572 B(  9-C , 12-C ) :   1.0603
B( 12-C , 13-H ) :   0.9748 B( 12-C , 14-H ) :   0.9757 B( 12-C , 15-H ) :   0.9751
B( 16-S , 17-C ) :   1.1489 B( 16-S , 20-C ) :   1.1502 B( 17-C , 18-C ) :   1.5763
B( 17-C , 33-H ) :   0.9797 B( 18-C , 19-C ) :   1.2835 B( 18-C , 21-H ) :   0.9869
B( 19-C , 20-C ) :   1.5188 B( 19-C , 22-C ) :   1.0610 B( 22-C , 23-H ) :   0.9243
B( 22-C , 24-H ) :   0.9302 B( 22-C , 25-C ) :   1.0423 B( 25-C , 26-H ) :   0.9581
B( 25-C , 27-H ) :   0.9530 B( 25-C , 28-C ) :   1.0862 B( 28-C , 29-H ) :   0.9698
B( 28-C , 30-H ) :   0.9689 B( 28-C , 31-H ) :   0.9716

Dispersion correction           -0.014271797
FINAL SINGLE POINT ENERGY     -1339.855499799179

DIPOLE MOMENT
-------------
                                X             Y             Z
Electronic contribution:     24.96386      10.58602      15.66372
Nuclear contribution   :    -25.40140     -10.93577     -16.04105
                        -----------------------------------------
Total Dipole Moment    :     -0.43754      -0.34975      -0.37733
                        -----------------------------------------
Magnitude (a.u.)       :      0.67539
Magnitude (Debye)      :      1.71669

Rotational constants in cm-1:     0.016869     0.010031     0.006722
Rotational constants in MHz :   505.727964   300.729834   201.512840

                             ****ORCA TERMINATED NORMALLY****
TOTAL RUN TIME: 0 days 0 hours 0 minutes 30 seconds 579 msec
