                         Program Version 4.2.1 -  RELEASE  -
|  1> ! wB97X-D3 SP def2-SVP
|  2> %pal
|  3> nprocs 16
|  4> end
|  5>
|  6> * xyz 0 1
|  7> S 	 52.9282 	 13.6779 	 49.2369
|  8> C 	 54.0406 	 14.6337 	 50.1973
|  9> C 	 53.43 	 15.8214 	 50.6132
| 10> C 	 52.0291 	 15.8781 	 50.2634
| 11> C 	 51.6067 	 14.651 	 49.8247
| 12> H 	 51.2718 	 16.5867 	 50.5011
| 13> C 	 54.2119 	 16.9697 	 51.2317
| 14> H 	 55.235 	 16.6592 	 51.5133
| 15> H 	 53.6752 	 17.2271 	 52.1655
| 16> C 	 54.1884 	 18.2956 	 50.3839
| 17> H 	 53.1247 	 18.5455 	 50.2469
| 18> H 	 54.6141 	 19.1966 	 50.8227
| 19> C 	 54.8847 	 18.0391 	 49.0392
| 20> H 	 55.9236 	 17.6989 	 49.2632
| 21> H 	 54.3829 	 17.2444 	 48.4788
| 22> H 	 54.9616 	 18.9871 	 48.467
| 23> S 	 49.7251 	 14.203 	 47.7612
| 24> C 	 48.0486 	 14.1851 	 48.1378
| 25> C 	 47.8632 	 14.3071 	 49.5109
| 26> C 	 49.087 	 14.3394 	 50.2699
| 27> C 	 50.2191 	 14.3886 	 49.4493
| 28> H 	 46.8307 	 14.285 	 49.9599
| 29> C 	 49.1821 	 14.3664 	 51.7386
| 30> H 	 49.3944 	 15.369 	 52.051
| 31> H 	 50.0339 	 13.6861 	 52.0189
| 32> C 	 47.8783 	 13.941 	 52.535
| 33> H 	 47.5867 	 12.9409 	 52.3536
| 34> H 	 47.108 	 14.5352 	 52.1582
| 35> C 	 47.9341 	 14.1068 	 54.0718
| 36> H 	 47.6881 	 15.1512 	 54.3149
| 37> H 	 48.9556 	 13.9379 	 54.3856
| 38> H 	 47.2284 	 13.3975 	 54.556
| 39> H 	 55.0606 	 14.4719 	 50.3899
| 40> H 	 47.3215 	 14.2911 	 47.3581
| 41> *
| 42>
| 43>                          ****END OF INPUT****

CARTESIAN COORDINATES (ANGSTROEM)
---------------------------------
  S     52.928200   13.677900   49.236900
  C     54.040600   14.633700   50.197300
  C     53.430000   15.821400   50.613200
  C     52.029100   15.878100   50.263400
  C     51.606700   14.651000   49.824700
  H     51.271800   16.586700   50.501100
  C     54.211900   16.969700   51.231700
  H     55.235000   16.659200   51.513300
  H     53.675200   17.227100   52.165500
  C     54.188400   18.295600   50.383900
  H     53.124700   18.545500   50.246900
  H     54.614100   19.196600   50.822700
  C     54.884700   18.039100   49.039200
  H     55.923600   17.698900   49.263200
  H     54.382900   17.244400   48.478800
  H     54.961600   18.987100   48.467000
  S     49.725100   14.203000   47.761200
  C     48.048600   14.185100   48.137800
  C     47.863200   14.307100   49.510900
  C     49.087000   14.339400   50.269900
  C     50.219100   14.388600   49.449300
  H     46.830700   14.285000   49.959900
  C     49.182100   14.366400   51.738600
  H     49.394400   15.369000   52.051000
  H     50.033900   13.686100   52.018900
  C     47.878300   13.941000   52.535000
  H     47.586700   12.940900   52.353600
  H     47.108000   14.535200   52.158200
  C     47.934100   14.106800   54.071800
  H     47.688100   15.151200   54.314900
  H     48.955600   13.937900   54.385600
  H     47.228400   13.397500   54.556000
  H     55.060600   14.471900   50.389900
  H     47.321500   14.291100   47.358100

 Total Charge           Charge          ....    0
 Multiplicity           Mult            ....    1
 Number of Electrons    NEL             ....  134
 Basis Dimension        Dim             ....  322

ORBITAL ENERGIES
----------------

  NO   OCC          E(Eh)            E(eV)
   0   2.0000     -88.967597     -2420.9314
   1   2.0000     -88.963220     -2420.8123
   2   2.0000     -10.328662      -281.0572
   3   2.0000     -10.324014      -280.9307
   4   2.0000     -10.316286      -280.7204
   5   2.0000     -10.313426      -280.6426
   6   2.0000     -10.307173      -280.4724
   7   2.0000     -10.302530      -280.3461
   8   2.0000     -10.299435      -280.2619
   9   2.0000     -10.298443      -280.2349
  10   2.0000     -10.295983      -280.1679
  11   2.0000     -10.292267      -280.0668
  12   2.0000     -10.290253      -280.0120
  13   2.0000     -10.280882      -279.7570
  14   2.0000     -10.279479      -279.7188
  15   2.0000     -10.277424      -279.6629
  16   2.0000      -8.082493      -219.9358
  17   2.0000      -8.078320      -219.8223
  18   2.0000      -6.041069      -164.3858
  19   2.0000      -6.037219      -164.2811
  20   2.0000      -6.036767      -164.2688
  21   2.0000      -6.032928      -164.1643
  22   2.0000      -6.032647      -164.1567
  23   2.0000      -6.029263      -164.0646
  24   2.0000      -1.008305       -27.4374
  25   2.0000      -0.984944       -26.8017
  26   2.0000      -0.908014       -24.7083
  27   2.0000      -0.907487       -24.6940
  28   2.0000      -0.869813       -23.6688
  29   2.0000      -0.850458       -23.1421
  30   2.0000      -0.844839       -22.9892
  31   2.0000      -0.813570       -22.1384
  32   2.0000      -0.778812       -21.1925
  33   2.0000      -0.768224       -20.9044
  34   2.0000      -0.708502       -19.2793
  35   2.0000      -0.704059       -19.1584
  36   2.0000      -0.691888       -18.8272
  37   2.0000      -0.647915       -17.6307
  38   2.0000      -0.645013       -17.5517
  39   2.0000      -0.617411       -16.8006
  40   2.0000      -0.597958       -16.2713
  41   2.0000      -0.571197       -15.5431
  42   2.0000      -0.561598       -15.2819
  43   2.0000      -0.550005       -14.9664
  44   2.0000      -0.542230       -14.7548
  45   2.0000      -0.527945       -14.3661
  46   2.0000      -0.519494       -14.1362
  47   2.0000      -0.510213       -13.8836
  48   2.0000      -0.503422       -13.6988
  49   2.0000      -0.500405       -13.6167
  50   2.0000      -0.487646       -13.2695
  51   2.0000      -0.474468       -12.9109
  52   2.0000      -0.470606       -12.8058
  53   2.0000      -0.464107       -12.6290
  54   2.0000      -0.459667       -12.5082
  55   2.0000      -0.453183       -12.3317
  56   2.0000      -0.450556       -12.2602
  57   2.0000      -0.430488       -11.7142
  58   2.0000      -0.428999       -11.6737
  59   2.0000      -0.427291       -11.6272
  60   2.0000      -0.421310       -11.4644
  61   2.0000      -0.417406       -11.3582
  62   2.0000      -0.414565       -11.2809
  63   2.0000      -0.343013        -9.3339
  64   2.0000      -0.328263        -8.9325
  65   2.0000      -0.325732        -8.8636
  66   2.0000      -0.294299        -8.0083
  67   0.0000       0.029509         0.8030
  68   0.0000       0.058482         1.5914
  69   0.0000       0.104502         2.8437
  70   0.0000       0.122704         3.3389
  71   0.0000       0.138120         3.7584

MULLIKEN ATOMIC CHARGES
-----------------------
   0 S :    0.114772
   1 C :   -0.078294
   2 C :   -0.106758
   3 C :    0.049171
   4 C :   -0.180876
   5 H :    0.018396
   6 C :    0.059734
   7 H :    0.023728
   8 H :    0.033647
   9 C :   -0.080720
  10 H :    0.028941
  11 H :    0.033425
  12 C :   -0.071925
  13 H :    0.025838
  14 H :    0.054016
  15 H :    0.041229
  16 S :    0.105178
  17 C :   -0.089514
  18 C :   -0.059830
  19 C :   -0.057724
  20 C :   -0.157745
  21 H :    0.041476
  22 C :    0.069203
  23 H :    0.025990
  24 H :    0.053224
  25 C :   -0.087238
  26 H :    0.021709
  27 H :    0.016341
  28 C :   -0.036095
  29 H :    0.031767
  30 H :    0.028883
  31 H :    0.045062
  32 H :    0.025319
  33 H :    0.059671
Sum of atomic charges:   -0.0000000

LOEWDIN ATOMIC CHARGES
----------------------
   0 S :    0.403134
   1 C :   -0.189688
   2 C :   -0.056715
   3 C :   -0.050466
   4 C :   -0.189028
   5 H :    0.030595
   6 C :   -0.032276
   7 H :    0.027278
   8 H :    0.032468
   9 C :   -0.042192
  10 H :    0.022455
  11 H :    0.024523
  12 C :   -0.070328
  13 H :    0.025206
  14 H :    0.027966
  15 H :    0.027468
  16 S :    0.409758
  17 C :   -0.193730
  18 C :   -0.082528
  19 C :   -0.059879
  20 C :   -0.203634
  21 H :    0.039759
  22 C :   -0.033125
  23 H :    0.029025
  24 H :    0.043170
  25 C :   -0.035663
  26 H :    0.017745
  27 H :    0.011723
  28 C :   -0.061306
  29 H :    0.025557
  30 H :    0.023212
  31 H :    0.033133
  32 H :    0.019013
  33 H :    0.027368

  Mayer bond orders larger than 0.100000
B(  0-S ,  1-C ) :   1.1235 B(  0-S ,  4-C ) :   1.1470 B(  1-C ,  2-C ) :   1.6185
B(  1-C , 32-H ) :   0.9747 B(  2-C ,  3-C ) :   1.1997 B(  2-C ,  6-C ) :   1.0315
B(  3-C ,  4-C ) :   1.5946 B(  3-C ,  5-H ) :   0.9924 B(  4-C , 20-C ) :   1.0413
B(  6-C ,  7-H ) :   0.9482 B(  6-C ,  8-H ) :   0.9370 B(  6-C ,  9-C ) :   1.0599
B(  9-C , 10-H ) :   0.9541 B(  9-C , 11-H ) :   0.9602 B(  9-C , 12-C ) :   1.0692
B( 12-C , 13-H ) :   0.9750 B( 12-C , 14-H ) :   0.9753 B( 12-C , 15-H ) :   0.9752
B( 16-S , 17-C ) :   1.1776 B( 16-S , 20-C ) :   1.1435 B( 17-C , 18-C ) :   1.5752
B( 17-C , 20-C ) :   0.1001 B( 17-C , 33-H ) :   0.9682 B( 18-C , 19-C ) :   1.2648
B( 18-C , 21-H ) :   0.9778 B( 19-C , 20-C ) :   1.5836 B( 19-C , 22-C ) :   1.0538
B( 22-C , 23-H ) :   0.9227 B( 22-C , 24-H ) :   0.9262 B( 22-C , 25-C ) :   1.0731
B( 25-C , 26-H ) :   0.9630 B( 25-C , 27-H ) :   0.9492 B( 25-C , 28-C ) :   1.0812
B( 28-C , 29-H ) :   0.9772 B( 28-C , 30-H ) :   0.9770 B( 28-C , 31-H ) :   0.9759

Dispersion correction           -0.014223996
FINAL SINGLE POINT ENERGY     -1339.875291524430

DIPOLE MOMENT
-------------
                                X             Y             Z
Electronic contribution:     -0.32636     -13.34107     -18.51282
Nuclear contribution   :      0.17237      13.83049      18.97222
                        -----------------------------------------
Total Dipole Moment    :     -0.15399       0.48942       0.45939
                        -----------------------------------------
Magnitude (a.u.)       :      0.68868
Magnitude (Debye)      :      1.75049

Rotational constants in cm-1:     0.018308     0.008205     0.006768
Rotational constants in MHz :   548.872473   245.987385   202.906539

                             ****ORCA TERMINATED NORMALLY****
TOTAL RUN TIME: 0 days 0 hours 0 minutes 30 seconds 56 msec
