                         Program Version 4.2.1 -  RELEASE  -
|  1> ! wB97X-D3 SP def2-SVP
|  2> %pal
|  3> nprocs 16
|  4> end
|  5>
|  6> * xyz 0 1
|  7> S 	 -30.7626 	 73.138 	 158.164
|  8> C 	 -29.9133 	 74.1587 	 159.261
|  9> C 	 -29.5812 	 73.5489 	 160.452
| 10> C 	 -30.1595 	 72.2344 	 160.538
| 11> C 	 -30.8921 	 71.8875 	 159.382
| 12> H 	 -29.966 	 71.577 	 161.4
| 13> C 	 -28.6046 	 73.9503 	 161.533
| 14> H 	 -29.0084 	 73.4971 	 162.445
| 15> H 	 -28.6482 	 75.0556 	 161.562
| 16> C 	 -27.1117 	 73.6596 	 161.36
| 17> H 	 -27.0207 	 72.5504 	 161.025
| 18> H 	 -26.7702 	 74.3301 	 160.615
| 19> C 	 -26.2506 	 73.6871 	 162.639
| 20> H 	 -25.4181 	 72.8917 	 162.685
| 21> H 	 -25.9368 	 74.6864 	 162.718
| 22> H 	 -26.8504 	 73.3835 	 163.532
| 23> S 	 -30.8635 	 69.1249 	 159.324
| 24> C 	 -32.3809 	 68.2635 	 159.064
| 25> C 	 -33.4371 	 69.1136 	 159.107
| 26> C 	 -33.0729 	 70.5113 	 159.179
| 27> C 	 -31.6871 	 70.6659 	 159.245
| 28> H 	 -34.3901 	 68.6512 	 159.046
| 29> C 	 -34.1044 	 71.642 	 159.261
| 30> H 	 -33.5935 	 72.572 	 158.904
| 31> H 	 -34.2892 	 71.9442 	 160.265
| 32> C 	 -35.407 	 71.4156 	 158.516
| 33> H 	 -36.1237 	 72.2363 	 158.651
| 34> H 	 -35.94 	 70.5886 	 158.941
| 35> C 	 -35.2317 	 71.0145 	 156.989
| 36> H 	 -34.6154 	 70.1526 	 156.929
| 37> H 	 -34.6902 	 71.6608 	 156.292
| 38> H 	 -36.2235 	 70.7393 	 156.487
| 39> H 	 -29.548 	 75.1763 	 159.024
| 40> H 	 -32.3983 	 67.105 	 159.146
| 41> *
| 42>
| 43>                          ****END OF INPUT****

CARTESIAN COORDINATES (ANGSTROEM)
---------------------------------
  S    -30.762600   73.138000  158.164000
  C    -29.913300   74.158700  159.261000
  C    -29.581200   73.548900  160.452000
  C    -30.159500   72.234400  160.538000
  C    -30.892100   71.887500  159.382000
  H    -29.966000   71.577000  161.400000
  C    -28.604600   73.950300  161.533000
  H    -29.008400   73.497100  162.445000
  H    -28.648200   75.055600  161.562000
  C    -27.111700   73.659600  161.360000
  H    -27.020700   72.550400  161.025000
  H    -26.770200   74.330100  160.615000
  C    -26.250600   73.687100  162.639000
  H    -25.418100   72.891700  162.685000
  H    -25.936800   74.686400  162.718000
  H    -26.850400   73.383500  163.532000
  S    -30.863500   69.124900  159.324000
  C    -32.380900   68.263500  159.064000
  C    -33.437100   69.113600  159.107000
  C    -33.072900   70.511300  159.179000
  C    -31.687100   70.665900  159.245000
  H    -34.390100   68.651200  159.046000
  C    -34.104400   71.642000  159.261000
  H    -33.593500   72.572000  158.904000
  H    -34.289200   71.944200  160.265000
  C    -35.407000   71.415600  158.516000
  H    -36.123700   72.236300  158.651000
  H    -35.940000   70.588600  158.941000
  C    -35.231700   71.014500  156.989000
  H    -34.615400   70.152600  156.929000
  H    -34.690200   71.660800  156.292000
  H    -36.223500   70.739300  156.487000
  H    -29.548000   75.176300  159.024000
  H    -32.398300   67.105000  159.146000

 Total Charge           Charge          ....    0
 Multiplicity           Mult            ....    1
 Number of Electrons    NEL             ....  134
 Basis Dimension        Dim             ....  322

ORBITAL ENERGIES
----------------

  NO   OCC          E(Eh)            E(eV)
   0   2.0000     -88.972807     -2421.0732
   1   2.0000     -88.962240     -2420.7856
   2   2.0000     -10.331682      -281.1393
   3   2.0000     -10.326406      -280.9958
   4   2.0000     -10.322210      -280.8816
   5   2.0000     -10.315621      -280.7023
   6   2.0000     -10.307969      -280.4941
   7   2.0000     -10.299170      -280.2547
   8   2.0000     -10.297245      -280.2023
   9   2.0000     -10.294335      -280.1231
  10   2.0000     -10.292293      -280.0675
  11   2.0000     -10.290836      -280.0279
  12   2.0000     -10.290372      -280.0153
  13   2.0000     -10.289129      -279.9814
  14   2.0000     -10.285734      -279.8891
  15   2.0000     -10.277049      -279.6527
  16   2.0000      -8.087255      -220.0654
  17   2.0000      -8.077095      -219.7889
  18   2.0000      -6.045730      -164.5127
  19   2.0000      -6.041771      -164.4049
  20   2.0000      -6.038112      -164.3054
  21   2.0000      -6.035633      -164.2379
  22   2.0000      -6.031652      -164.1296
  23   2.0000      -6.027755      -164.0236
  24   2.0000      -1.004846       -27.3433
  25   2.0000      -0.984193       -26.7813
  26   2.0000      -0.911557       -24.8047
  27   2.0000      -0.903147       -24.5759
  28   2.0000      -0.869337       -23.6559
  29   2.0000      -0.852501       -23.1977
  30   2.0000      -0.836700       -22.7678
  31   2.0000      -0.811273       -22.0758
  32   2.0000      -0.782969       -21.3057
  33   2.0000      -0.772078       -21.0093
  34   2.0000      -0.707585       -19.2544
  35   2.0000      -0.696528       -18.9535
  36   2.0000      -0.693313       -18.8660
  37   2.0000      -0.653235       -17.7754
  38   2.0000      -0.636947       -17.3322
  39   2.0000      -0.615782       -16.7563
  40   2.0000      -0.596425       -16.2295
  41   2.0000      -0.574165       -15.6238
  42   2.0000      -0.562938       -15.3183
  43   2.0000      -0.545187       -14.8353
  44   2.0000      -0.531109       -14.4522
  45   2.0000      -0.522197       -14.2097
  46   2.0000      -0.512680       -13.9507
  47   2.0000      -0.510069       -13.8797
  48   2.0000      -0.499882       -13.6025
  49   2.0000      -0.495813       -13.4918
  50   2.0000      -0.486789       -13.2462
  51   2.0000      -0.479590       -13.0503
  52   2.0000      -0.469297       -12.7702
  53   2.0000      -0.465798       -12.6750
  54   2.0000      -0.457033       -12.4365
  55   2.0000      -0.450029       -12.2459
  56   2.0000      -0.442792       -12.0490
  57   2.0000      -0.434996       -11.8368
  58   2.0000      -0.432788       -11.7768
  59   2.0000      -0.431170       -11.7327
  60   2.0000      -0.423590       -11.5265
  61   2.0000      -0.412620       -11.2280
  62   2.0000      -0.401181       -10.9167
  63   2.0000      -0.339779        -9.2459
  64   2.0000      -0.331694        -9.0259
  65   2.0000      -0.325616        -8.8605
  66   2.0000      -0.298795        -8.1306
  67   0.0000       0.035286         0.9602
  68   0.0000       0.064921         1.7666
  69   0.0000       0.109112         2.9691
  70   0.0000       0.114685         3.1207
  71   0.0000       0.129028         3.5110

MULLIKEN ATOMIC CHARGES
-----------------------
   0 S :    0.140025
   1 C :   -0.141115
   2 C :   -0.082363
   3 C :    0.016464
   4 C :   -0.171114
   5 H :    0.025646
   6 C :    0.058346
   7 H :    0.021623
   8 H :    0.019614
   9 C :   -0.075656
  10 H :    0.035769
  11 H :    0.026865
  12 C :   -0.056221
  13 H :    0.052260
  14 H :    0.032764
  15 H :    0.030217
  16 S :    0.098827
  17 C :   -0.133842
  18 C :   -0.026299
  19 C :   -0.038306
  20 C :   -0.167027
  21 H :    0.014188
  22 C :    0.116337
  23 H :    0.019314
  24 H :    0.031398
  25 C :   -0.061064
  26 H :    0.033162
  27 H :    0.020600
  28 C :   -0.075269
  29 H :    0.020747
  30 H :    0.031514
  31 H :    0.040256
  32 H :    0.052129
  33 H :    0.090213
Sum of atomic charges:   -0.0000000

LOEWDIN ATOMIC CHARGES
----------------------
   0 S :    0.432167
   1 C :   -0.212728
   2 C :   -0.068928
   3 C :   -0.058473
   4 C :   -0.201923
   5 H :    0.034583
   6 C :   -0.035059
   7 H :    0.028522
   8 H :    0.030591
   9 C :   -0.043288
  10 H :    0.031944
  11 H :    0.018590
  12 C :   -0.069466
  13 H :    0.039357
  14 H :    0.018254
  15 H :    0.028765
  16 S :    0.394986
  17 C :   -0.192366
  18 C :   -0.073895
  19 C :   -0.050413
  20 C :   -0.201918
  21 H :    0.028926
  22 C :   -0.034581
  23 H :    0.031340
  24 H :    0.032792
  25 C :   -0.039309
  26 H :    0.028530
  27 H :    0.020149
  28 C :   -0.075657
  29 H :    0.018705
  30 H :    0.024884
  31 H :    0.033352
  32 H :    0.032919
  33 H :    0.048650

  Mayer bond orders larger than 0.100000
B(  0-S ,  1-C ) :   1.1481 B(  0-S ,  4-C ) :   1.1573 B(  1-C ,  2-C ) :   1.6059
B(  1-C , 32-H ) :   0.9605 B(  2-C ,  3-C ) :   1.2613 B(  2-C ,  6-C ) :   1.0351
B(  3-C ,  4-C ) :   1.5557 B(  3-C ,  5-H ) :   0.9860 B(  4-C , 20-C ) :   1.0230
B(  6-C ,  7-H ) :   0.9355 B(  6-C ,  8-H ) :   0.9341 B(  6-C ,  9-C ) :   1.0657
B(  9-C , 10-H ) :   0.9597 B(  9-C , 11-H ) :   0.9604 B(  9-C , 12-C ) :   1.0614
B( 12-C , 13-H ) :   0.9780 B( 12-C , 14-H ) :   0.9797 B( 12-C , 15-H ) :   0.9743
B( 16-S , 17-C ) :   1.1434 B( 16-S , 20-C ) :   1.1483 B( 17-C , 18-C ) :   1.6362
B( 17-C , 33-H ) :   0.9520 B( 18-C , 19-C ) :   1.2087 B( 18-C , 21-H ) :   0.9939
B( 19-C , 20-C ) :   1.6043 B( 19-C , 22-C ) :   1.0305 B( 22-C , 23-H ) :   0.9224
B( 22-C , 24-H ) :   0.9301 B( 22-C , 25-C ) :   1.0755 B( 25-C , 26-H ) :   0.9566
B( 25-C , 27-H ) :   0.9486 B( 25-C , 28-C ) :   1.0633 B( 28-C , 29-H ) :   0.9709
B( 28-C , 30-H ) :   0.9774 B( 28-C , 31-H ) :   0.9768

Dispersion correction           -0.014253970
FINAL SINGLE POINT ENERGY     -1339.868971156196

DIPOLE MOMENT
-------------
                                X             Y             Z
Electronic contribution:      0.65680      -7.93640      -7.58751
Nuclear contribution   :     -0.70775       8.04243       7.99938
                        -----------------------------------------
Total Dipole Moment    :     -0.05095       0.10603       0.41187
                        -----------------------------------------
Magnitude (a.u.)       :      0.42834
Magnitude (Debye)      :      1.08875

Rotational constants in cm-1:     0.024867     0.007121     0.006097
Rotational constants in MHz :   745.501631   213.484560   182.777392

                             ****ORCA TERMINATED NORMALLY****
TOTAL RUN TIME: 0 days 0 hours 0 minutes 33 seconds 201 msec
