                         Program Version 4.2.1 -  RELEASE  -
|  1> ! wB97X-D3 SP def2-SVP
|  2> %pal
|  3> nprocs 16
|  4> end
|  5>
|  6> * xyz 0 1
|  7> S 	 -10.4626 	 -12.8712 	 85.5325
|  8> C 	 -11.9664 	 -12.7636 	 84.772
|  9> C 	 -12.9763 	 -12.6001 	 85.7285
| 10> C 	 -12.4921 	 -12.5328 	 87.06
| 11> C 	 -11.1444 	 -12.6798 	 87.1424
| 12> H 	 -13.0912 	 -12.5033 	 87.9503
| 13> C 	 -14.4541 	 -12.4739 	 85.4239
| 14> H 	 -14.9533 	 -13.3218 	 85.9229
| 15> H 	 -14.6975 	 -12.6327 	 84.3736
| 16> C 	 -15.0414 	 -11.1574 	 85.9419
| 17> H 	 -15.0482 	 -11.2418 	 86.9676
| 18> H 	 -14.4049 	 -10.2565 	 85.855
| 19> C 	 -16.4838 	 -10.8612 	 85.4396
| 20> H 	 -16.7375 	 -9.8744 	 85.8098
| 21> H 	 -16.3225 	 -10.8401 	 84.34
| 22> H 	 -17.1402 	 -11.6093 	 85.78
| 23> S 	 -9.10548 	 -11.269 	 88.3424
| 24> C 	 -8.93394 	 -11.4116 	 90.0281
| 25> C 	 -9.74402 	 -12.3882 	 90.6107
| 26> C 	 -10.503 	 -13.0942 	 89.6055
| 27> C 	 -10.3835 	 -12.4954 	 88.3716
| 28> H 	 -9.70552 	 -12.6571 	 91.677
| 29> C 	 -11.4873 	 -14.19 	 89.9411
| 30> H 	 -12.5309 	 -13.8358 	 89.7068
| 31> H 	 -11.48 	 -14.3779 	 90.9733
| 32> C 	 -11.3531 	 -15.5427 	 89.2937
| 33> H 	 -11.7396 	 -15.4588 	 88.2426
| 34> H 	 -12.0812 	 -16.2258 	 89.8061
| 35> C 	 -10.0298 	 -16.301 	 89.5064
| 36> H 	 -9.99595 	 -17.2927 	 89.0309
| 37> H 	 -9.85807 	 -16.5491 	 90.5099
| 38> H 	 -9.20007 	 -15.6352 	 89.1152
| 39> H 	 -12.1341 	 -12.8099 	 83.7225
| 40> H 	 -8.17716 	 -10.8473 	 90.6294
| 41> *
| 42>
| 43>                          ****END OF INPUT****

CARTESIAN COORDINATES (ANGSTROEM)
---------------------------------
  S    -10.462600  -12.871200   85.532500
  C    -11.966400  -12.763600   84.772000
  C    -12.976300  -12.600100   85.728500
  C    -12.492100  -12.532800   87.060000
  C    -11.144400  -12.679800   87.142400
  H    -13.091200  -12.503300   87.950300
  C    -14.454100  -12.473900   85.423900
  H    -14.953300  -13.321800   85.922900
  H    -14.697500  -12.632700   84.373600
  C    -15.041400  -11.157400   85.941900
  H    -15.048200  -11.241800   86.967600
  H    -14.404900  -10.256500   85.855000
  C    -16.483800  -10.861200   85.439600
  H    -16.737500   -9.874400   85.809800
  H    -16.322500  -10.840100   84.340000
  H    -17.140200  -11.609300   85.780000
  S     -9.105480  -11.269000   88.342400
  C     -8.933940  -11.411600   90.028100
  C     -9.744020  -12.388200   90.610700
  C    -10.503000  -13.094200   89.605500
  C    -10.383500  -12.495400   88.371600
  H     -9.705520  -12.657100   91.677000
  C    -11.487300  -14.190000   89.941100
  H    -12.530900  -13.835800   89.706800
  H    -11.480000  -14.377900   90.973300
  C    -11.353100  -15.542700   89.293700
  H    -11.739600  -15.458800   88.242600
  H    -12.081200  -16.225800   89.806100
  C    -10.029800  -16.301000   89.506400
  H     -9.995950  -17.292700   89.030900
  H     -9.858070  -16.549100   90.509900
  H     -9.200070  -15.635200   89.115200
  H    -12.134100  -12.809900   83.722500
  H     -8.177160  -10.847300   90.629400

 Total Charge           Charge          ....    0
 Multiplicity           Mult            ....    1
 Number of Electrons    NEL             ....  134
 Basis Dimension        Dim             ....  322

ORBITAL ENERGIES
----------------

  NO   OCC          E(Eh)            E(eV)
   0   2.0000     -88.966695     -2420.9068
   1   2.0000     -88.965409     -2420.8718
   2   2.0000     -10.325262      -280.9647
   3   2.0000     -10.324350      -280.9398
   4   2.0000     -10.318827      -280.7896
   5   2.0000     -10.309736      -280.5422
   6   2.0000     -10.303353      -280.3685
   7   2.0000     -10.299065      -280.2518
   8   2.0000     -10.297605      -280.2121
   9   2.0000     -10.290992      -280.0321
  10   2.0000     -10.289304      -279.9862
  11   2.0000     -10.288703      -279.9698
  12   2.0000     -10.286623      -279.9132
  13   2.0000     -10.277819      -279.6737
  14   2.0000     -10.277753      -279.6719
  15   2.0000     -10.274328      -279.5787
  16   2.0000      -8.082127      -219.9259
  17   2.0000      -8.081060      -219.8968
  18   2.0000      -6.040473      -164.3696
  19   2.0000      -6.039501      -164.3432
  20   2.0000      -6.036571      -164.2634
  21   2.0000      -6.035342      -164.2300
  22   2.0000      -6.032984      -164.1658
  23   2.0000      -6.031939      -164.1374
  24   2.0000      -1.011273       -27.5182
  25   2.0000      -0.988917       -26.9098
  26   2.0000      -0.911119       -24.7928
  27   2.0000      -0.910903       -24.7869
  28   2.0000      -0.871255       -23.7081
  29   2.0000      -0.852656       -23.2019
  30   2.0000      -0.847537       -23.0627
  31   2.0000      -0.812293       -22.1036
  32   2.0000      -0.786431       -21.3999
  33   2.0000      -0.769724       -20.9453
  34   2.0000      -0.709149       -19.2969
  35   2.0000      -0.698063       -18.9953
  36   2.0000      -0.682358       -18.5679
  37   2.0000      -0.663603       -18.0576
  38   2.0000      -0.645762       -17.5721
  39   2.0000      -0.621486       -16.9115
  40   2.0000      -0.591692       -16.1008
  41   2.0000      -0.567319       -15.4375
  42   2.0000      -0.561133       -15.2692
  43   2.0000      -0.551391       -15.0041
  44   2.0000      -0.546242       -14.8640
  45   2.0000      -0.528698       -14.3866
  46   2.0000      -0.514641       -14.0041
  47   2.0000      -0.511273       -13.9124
  48   2.0000      -0.506347       -13.7784
  49   2.0000      -0.499950       -13.6043
  50   2.0000      -0.486249       -13.2315
  51   2.0000      -0.478322       -13.0158
  52   2.0000      -0.476453       -12.9650
  53   2.0000      -0.464514       -12.6401
  54   2.0000      -0.462781       -12.5929
  55   2.0000      -0.450366       -12.2551
  56   2.0000      -0.447152       -12.1676
  57   2.0000      -0.442730       -12.0473
  58   2.0000      -0.435482       -11.8501
  59   2.0000      -0.421857       -11.4793
  60   2.0000      -0.416371       -11.3300
  61   2.0000      -0.410100       -11.1594
  62   2.0000      -0.403935       -10.9916
  63   2.0000      -0.349714        -9.5162
  64   2.0000      -0.332930        -9.0595
  65   2.0000      -0.325726        -8.8635
  66   2.0000      -0.291316        -7.9271
  67   0.0000       0.033333         0.9070
  68   0.0000       0.070572         1.9204
  69   0.0000       0.116617         3.1733
  70   0.0000       0.119510         3.2520
  71   0.0000       0.134050         3.6477

MULLIKEN ATOMIC CHARGES
-----------------------
   0 S :    0.119434
   1 C :   -0.105245
   2 C :   -0.088902
   3 C :    0.021867
   4 C :   -0.147769
   5 H :    0.012505
   6 C :    0.084647
   7 H :    0.030995
   8 H :    0.005411
   9 C :   -0.107249
  10 H :    0.001907
  11 H :    0.035224
  12 C :   -0.017322
  13 H :    0.035222
  14 H :    0.038393
  15 H :    0.030696
  16 S :    0.127124
  17 C :   -0.102361
  18 C :   -0.048156
  19 C :   -0.038344
  20 C :   -0.169161
  21 H :    0.029336
  22 C :    0.089377
  23 H :    0.036491
  24 H :   -0.007355
  25 C :   -0.106012
  26 H :    0.047281
  27 H :    0.025562
  28 C :   -0.044100
  29 H :    0.036283
  30 H :    0.012933
  31 H :    0.051082
  32 H :    0.039022
  33 H :    0.071184
Sum of atomic charges:   -0.0000000

LOEWDIN ATOMIC CHARGES
----------------------
   0 S :    0.425552
   1 C :   -0.213509
   2 C :   -0.061425
   3 C :   -0.059615
   4 C :   -0.195997
   5 H :    0.030006
   6 C :   -0.031967
   7 H :    0.034671
   8 H :    0.022338
   9 C :   -0.044337
  10 H :    0.007950
  11 H :    0.028949
  12 C :   -0.053970
  13 H :    0.027503
  14 H :    0.030484
  15 H :    0.018256
  16 S :    0.421315
  17 C :   -0.205698
  18 C :   -0.076889
  19 C :   -0.056107
  20 C :   -0.191219
  21 H :    0.035649
  22 C :   -0.033895
  23 H :    0.039414
  24 H :    0.020665
  25 C :   -0.049035
  26 H :    0.028587
  27 H :    0.027963
  28 C :   -0.068690
  29 H :    0.030919
  30 H :    0.015166
  31 H :    0.033538
  32 H :    0.025632
  33 H :    0.037797

  Mayer bond orders larger than 0.100000
B(  0-S ,  1-C ) :   1.1512 B(  0-S ,  4-C ) :   1.1568 B(  1-C ,  2-C ) :   1.5834
B(  1-C , 32-H ) :   0.9749 B(  2-C ,  3-C ) :   1.2549 B(  2-C ,  6-C ) :   1.0333
B(  3-C ,  4-C ) :   1.5612 B(  3-C ,  5-H ) :   0.9955 B(  4-C , 20-C ) :   1.0433
B(  6-C ,  7-H ) :   0.9330 B(  6-C ,  8-H ) :   0.9479 B(  6-C ,  9-C ) :   1.0461
B(  9-C , 10-H ) :   0.9474 B(  9-C , 11-H ) :   0.9621 B(  9-C , 12-C ) :   1.0832
B( 12-C , 13-H ) :   0.9746 B( 12-C , 14-H ) :   0.9802 B( 12-C , 15-H ) :   0.9757
B( 16-S , 17-C ) :   1.1739 B( 16-S , 20-C ) :   1.1346 B( 17-C , 18-C ) :   1.6020
B( 17-C , 33-H ) :   0.9592 B( 18-C , 19-C ) :   1.2400 B( 18-C , 21-H ) :   0.9843
B( 19-C , 20-C ) :   1.5972 B( 19-C , 22-C ) :   1.0439 B( 22-C , 23-H ) :   0.9322
B( 22-C , 24-H ) :   0.9251 B( 22-C , 25-C ) :   1.0817 B( 25-C , 26-H ) :   0.9549
B( 25-C , 27-H ) :   0.9527 B( 25-C , 28-C ) :   1.0718 B( 28-C , 29-H ) :   0.9732
B( 28-C , 30-H ) :   0.9724 B( 28-C , 31-H ) :   0.9751

Dispersion correction           -0.014564871
FINAL SINGLE POINT ENERGY     -1339.881064998781

DIPOLE MOMENT
-------------
                                X             Y             Z
Electronic contribution:     21.55225       8.58416      -3.71671
Nuclear contribution   :    -22.06488      -8.73346       4.04813
                        -----------------------------------------
Total Dipole Moment    :     -0.51263      -0.14930       0.33142
                        -----------------------------------------
Magnitude (a.u.)       :      0.62842
Magnitude (Debye)      :      1.59733

Rotational constants in cm-1:     0.019063     0.008089     0.007518
Rotational constants in MHz :   571.500176   242.515889   225.370140

                             ****ORCA TERMINATED NORMALLY****
TOTAL RUN TIME: 0 days 0 hours 0 minutes 33 seconds 504 msec
