                         Program Version 4.2.1 -  RELEASE  -
|  1> ! wB97X-D3 SP def2-SVP
|  2> %pal
|  3> nprocs 16
|  4> end
|  5>
|  6> * xyz 0 1
|  7> S 	 -43.4949 	 27.0592 	 85.2324
|  8> C 	 -43.8649 	 25.6575 	 86.1434
|  9> C 	 -44.9419 	 24.9312 	 85.617
| 10> C 	 -45.4893 	 25.5399 	 84.4353
| 11> C 	 -44.7234 	 26.676 	 84.0524
| 12> H 	 -46.2204 	 25.1831 	 83.7715
| 13> C 	 -45.4958 	 23.6613 	 86.227
| 14> H 	 -46.5609 	 23.7982 	 86.4482
| 15> H 	 -44.9592 	 23.5136 	 87.138
| 16> C 	 -45.5147 	 22.3637 	 85.353
| 17> H 	 -46.239 	 21.629 	 85.7373
| 18> H 	 -45.9275 	 22.4933 	 84.3987
| 19> C 	 -44.0913 	 21.9386 	 85.227
| 20> H 	 -44.0199 	 21.0851 	 85.9802
| 21> H 	 -43.7677 	 21.6318 	 84.2417
| 22> H 	 -43.4327 	 22.7177 	 85.4774
| 23> S 	 -45.1634 	 29.2072 	 83.2812
| 24> C 	 -45.7657 	 29.5159 	 81.6972
| 25> C 	 -45.5888 	 28.4552 	 80.8584
| 26> C 	 -45.0896 	 27.2955 	 81.5681
| 27> C 	 -45.0154 	 27.5179 	 82.9611
| 28> H 	 -45.7044 	 28.5503 	 79.8017
| 29> C 	 -44.7671 	 26.0159 	 80.8385
| 30> H 	 -45.5208 	 25.8353 	 80.0444
| 31> H 	 -44.8338 	 25.2176 	 81.6351
| 32> C 	 -43.398 	 26.0097 	 80.1984
| 33> H 	 -42.6174 	 26.1808 	 80.9784
| 34> H 	 -43.4417 	 26.7591 	 79.4499
| 35> C 	 -42.9218 	 24.7004 	 79.6139
| 36> H 	 -42.5884 	 24.1112 	 80.4004
| 37> H 	 -41.9431 	 24.9994 	 79.2297
| 38> H 	 -43.6102 	 24.2748 	 78.9495
| 39> H 	 -43.391 	 25.37 	 87.0235
| 40> H 	 -46.0548 	 30.5161 	 81.5305
| 41> *
| 42>
| 43>                          ****END OF INPUT****

CARTESIAN COORDINATES (ANGSTROEM)
---------------------------------
  S    -43.494900   27.059200   85.232400
  C    -43.864900   25.657500   86.143400
  C    -44.941900   24.931200   85.617000
  C    -45.489300   25.539900   84.435300
  C    -44.723400   26.676000   84.052400
  H    -46.220400   25.183100   83.771500
  C    -45.495800   23.661300   86.227000
  H    -46.560900   23.798200   86.448200
  H    -44.959200   23.513600   87.138000
  C    -45.514700   22.363700   85.353000
  H    -46.239000   21.629000   85.737300
  H    -45.927500   22.493300   84.398700
  C    -44.091300   21.938600   85.227000
  H    -44.019900   21.085100   85.980200
  H    -43.767700   21.631800   84.241700
  H    -43.432700   22.717700   85.477400
  S    -45.163400   29.207200   83.281200
  C    -45.765700   29.515900   81.697200
  C    -45.588800   28.455200   80.858400
  C    -45.089600   27.295500   81.568100
  C    -45.015400   27.517900   82.961100
  H    -45.704400   28.550300   79.801700
  C    -44.767100   26.015900   80.838500
  H    -45.520800   25.835300   80.044400
  H    -44.833800   25.217600   81.635100
  C    -43.398000   26.009700   80.198400
  H    -42.617400   26.180800   80.978400
  H    -43.441700   26.759100   79.449900
  C    -42.921800   24.700400   79.613900
  H    -42.588400   24.111200   80.400400
  H    -41.943100   24.999400   79.229700
  H    -43.610200   24.274800   78.949500
  H    -43.391000   25.370000   87.023500
  H    -46.054800   30.516100   81.530500

 Total Charge           Charge          ....    0
 Multiplicity           Mult            ....    1
 Number of Electrons    NEL             ....  134
 Basis Dimension        Dim             ....  322

ORBITAL ENERGIES
----------------

  NO   OCC          E(Eh)            E(eV)
   0   2.0000     -88.970414     -2421.0080
   1   2.0000     -88.959760     -2420.7181
   2   2.0000     -10.328373      -281.0493
   3   2.0000     -10.320954      -280.8474
   4   2.0000     -10.311908      -280.6013
   5   2.0000     -10.308988      -280.5218
   6   2.0000     -10.305631      -280.4305
   7   2.0000     -10.303894      -280.3832
   8   2.0000     -10.294609      -280.1306
   9   2.0000     -10.293600      -280.1031
  10   2.0000     -10.291356      -280.0420
  11   2.0000     -10.289984      -280.0047
  12   2.0000     -10.280332      -279.7420
  13   2.0000     -10.278967      -279.7049
  14   2.0000     -10.269378      -279.4440
  15   2.0000     -10.266012      -279.3524
  16   2.0000      -8.085608      -220.0206
  17   2.0000      -8.076188      -219.7643
  18   2.0000      -6.043967      -164.4647
  19   2.0000      -6.040039      -164.3578
  20   2.0000      -6.036527      -164.2622
  21   2.0000      -6.034481      -164.2066
  22   2.0000      -6.030603      -164.1011
  23   2.0000      -6.026928      -164.0010
  24   2.0000      -1.011534       -27.5252
  25   2.0000      -0.985973       -26.8297
  26   2.0000      -0.916066       -24.9274
  27   2.0000      -0.914688       -24.8899
  28   2.0000      -0.876436       -23.8490
  29   2.0000      -0.857403       -23.3311
  30   2.0000      -0.849501       -23.1161
  31   2.0000      -0.814798       -22.1718
  32   2.0000      -0.783398       -21.3173
  33   2.0000      -0.770437       -20.9647
  34   2.0000      -0.714039       -19.4300
  35   2.0000      -0.698449       -19.0058
  36   2.0000      -0.690942       -18.8015
  37   2.0000      -0.664222       -18.0744
  38   2.0000      -0.646473       -17.5914
  39   2.0000      -0.617694       -16.8083
  40   2.0000      -0.599137       -16.3033
  41   2.0000      -0.582956       -15.8631
  42   2.0000      -0.565178       -15.3793
  43   2.0000      -0.553540       -15.0626
  44   2.0000      -0.543646       -14.7934
  45   2.0000      -0.532969       -14.5028
  46   2.0000      -0.522703       -14.2235
  47   2.0000      -0.515335       -14.0230
  48   2.0000      -0.504833       -13.7372
  49   2.0000      -0.503458       -13.6998
  50   2.0000      -0.496833       -13.5195
  51   2.0000      -0.489656       -13.3242
  52   2.0000      -0.469767       -12.7830
  53   2.0000      -0.465632       -12.6705
  54   2.0000      -0.460211       -12.5230
  55   2.0000      -0.451608       -12.2889
  56   2.0000      -0.446995       -12.1633
  57   2.0000      -0.434696       -11.8287
  58   2.0000      -0.429606       -11.6902
  59   2.0000      -0.420550       -11.4437
  60   2.0000      -0.418855       -11.3976
  61   2.0000      -0.413275       -11.2458
  62   2.0000      -0.406686       -11.0665
  63   2.0000      -0.348642        -9.4870
  64   2.0000      -0.330408        -8.9908
  65   2.0000      -0.325165        -8.8482
  66   2.0000      -0.285984        -7.7820
  67   0.0000       0.029454         0.8015
  68   0.0000       0.065786         1.7901
  69   0.0000       0.111843         3.0434
  70   0.0000       0.117207         3.1894
  71   0.0000       0.130223         3.5435

MULLIKEN ATOMIC CHARGES
-----------------------
   0 S :    0.127734
   1 C :   -0.086234
   2 C :   -0.101531
   3 C :    0.060835
   4 C :   -0.181708
   5 H :    0.005519
   6 C :    0.071182
   7 H :    0.030798
   8 H :    0.009694
   9 C :   -0.057033
  10 H :    0.029731
  11 H :    0.006868
  12 C :   -0.036015
  13 H :    0.039781
  14 H :    0.023804
  15 H :    0.023647
  16 S :    0.096931
  17 C :   -0.077864
  18 C :   -0.004667
  19 C :   -0.039117
  20 C :   -0.164477
  21 H :    0.013742
  22 C :    0.060554
  23 H :    0.025633
  24 H :    0.018443
  25 C :   -0.104949
  26 H :    0.032078
  27 H :    0.014384
  28 C :    0.035646
  29 H :    0.010956
  30 H :    0.022453
  31 H :    0.028991
  32 H :    0.020226
  33 H :    0.043968
Sum of atomic charges:   -0.0000000

LOEWDIN ATOMIC CHARGES
----------------------
   0 S :    0.428008
   1 C :   -0.207727
   2 C :   -0.058170
   3 C :   -0.049023
   4 C :   -0.197221
   5 H :    0.024080
   6 C :   -0.026107
   7 H :    0.033376
   8 H :    0.023497
   9 C :   -0.043454
  10 H :    0.027118
  11 H :    0.013879
  12 C :   -0.064076
  13 H :    0.037233
  14 H :    0.022224
  15 H :    0.017371
  16 S :    0.420329
  17 C :   -0.176383
  18 C :   -0.068824
  19 C :   -0.048052
  20 C :   -0.214924
  21 H :    0.029321
  22 C :   -0.040879
  23 H :    0.029966
  24 H :    0.031527
  25 C :   -0.038505
  26 H :    0.032833
  27 H :    0.013679
  28 C :   -0.052242
  29 H :    0.019042
  30 H :    0.035085
  31 H :    0.015970
  32 H :    0.014231
  33 H :    0.016816

  Mayer bond orders larger than 0.100000
B(  0-S ,  1-C ) :   1.1436 B(  0-S ,  4-C ) :   1.1605 B(  1-C ,  2-C ) :   1.5823
B(  1-C , 32-H ) :   0.9717 B(  2-C ,  3-C ) :   1.2426 B(  2-C ,  6-C ) :   1.0404
B(  3-C ,  4-C ) :   1.5391 B(  3-C ,  5-H ) :   0.9978 B(  4-C , 20-C ) :   1.0860
B(  6-C ,  7-H ) :   0.9324 B(  6-C ,  8-H ) :   0.9438 B(  6-C ,  9-C ) :   1.0697
B(  9-C , 10-H ) :   0.9623 B(  9-C , 11-H ) :   0.9562 B(  9-C , 12-C ) :   1.0514
B( 12-C , 13-H ) :   0.9768 B( 12-C , 14-H ) :   0.9751 B( 12-C , 15-H ) :   0.9822
B( 16-S , 17-C ) :   1.1738 B( 16-S , 20-C ) :   1.1450 B( 17-C , 18-C ) :   1.5739
B( 17-C , 20-C ) :   0.1006 B( 17-C , 33-H ) :   0.9790 B( 18-C , 19-C ) :   1.2370
B( 18-C , 21-H ) :   1.0001 B( 19-C , 20-C ) :   1.5600 B( 19-C , 22-C ) :   1.0538
B( 22-C , 23-H ) :   0.9310 B( 22-C , 24-H ) :   0.9268 B( 22-C , 25-C ) :   1.0775
B( 25-C , 26-H ) :   0.9562 B( 25-C , 27-H ) :   0.9563 B( 25-C , 28-C ) :   1.0904
B( 28-C , 29-H ) :   0.9713 B( 28-C , 30-H ) :   0.9679 B( 28-C , 31-H ) :   0.9731

Dispersion correction           -0.014140345
FINAL SINGLE POINT ENERGY     -1339.855639503226

DIPOLE MOMENT
-------------
                                X             Y             Z
Electronic contribution:     -2.44927      26.93206       8.94507
Nuclear contribution   :      2.35989     -27.31871      -9.27653
                        -----------------------------------------
Total Dipole Moment    :     -0.08939      -0.38666      -0.33146
                        -----------------------------------------
Magnitude (a.u.)       :      0.51707
Magnitude (Debye)      :      1.31428

Rotational constants in cm-1:     0.017631     0.009354     0.007093
Rotational constants in MHz :   528.557708   280.426570   212.627883

                             ****ORCA TERMINATED NORMALLY****
TOTAL RUN TIME: 0 days 0 hours 0 minutes 30 seconds 460 msec
