                         Program Version 4.2.1 -  RELEASE  -
|  1> ! wB97X-D3 SP def2-SVP
|  2> %pal
|  3> nprocs 16
|  4> end
|  5>
|  6> * xyz 0 1
|  7> S 	 53.9205 	 14.2475 	 77.3322
|  8> C 	 55.6052 	 14.6586 	 77.3842
|  9> C 	 56.2324 	 13.843 	 78.3202
| 10> C 	 55.3275 	 12.8878 	 78.9137
| 11> C 	 54.0349 	 12.8712 	 78.4093
| 12> H 	 55.692 	 12.1464 	 79.6699
| 13> C 	 57.7294 	 13.8792 	 78.65
| 14> H 	 58.3889 	 14.2525 	 77.9087
| 15> H 	 58.0422 	 12.8294 	 78.646
| 16> C 	 58.1932 	 14.5755 	 80.0242
| 17> H 	 58.0347 	 13.7996 	 80.7678
| 18> H 	 59.2728 	 14.7453 	 79.9411
| 19> C 	 57.4396 	 15.8633 	 80.3369
| 20> H 	 57.7744 	 16.6965 	 79.7739
| 21> H 	 56.3518 	 15.8107 	 80.0774
| 22> H 	 57.4242 	 16.1431 	 81.3841
| 23> S 	 51.7512 	 12.7083 	 79.8501
| 24> C 	 50.8951 	 11.2768 	 80.1552
| 25> C 	 51.4391 	 10.2748 	 79.4024
| 26> C 	 52.6686 	 10.6653 	 78.7297
| 27> C 	 52.93 	 12.0025 	 78.8193
| 28> H 	 51.0557 	 9.23042 	 79.4861
| 29> C 	 53.5376 	 9.71479 	 77.9243
| 30> H 	 53.5607 	 8.71781 	 78.4173
| 31> H 	 54.5543 	 10.0908 	 77.9396
| 32> C 	 53.2864 	 9.53825 	 76.4982
| 33> H 	 53.0049 	 10.5476 	 76.0343
| 34> H 	 52.4093 	 8.9499 	 76.4079
| 35> C 	 54.4287 	 8.94712 	 75.7375
| 36> H 	 54.6947 	 7.9088 	 76.0334
| 37> H 	 55.3474 	 9.49268 	 75.9601
| 38> H 	 54.1181 	 9.01093 	 74.6975
| 39> H 	 56.0467 	 15.4041 	 76.8042
| 40> H 	 50.0185 	 11.2001 	 80.8042
| 41> *
| 42>
| 43>                          ****END OF INPUT****

CARTESIAN COORDINATES (ANGSTROEM)
---------------------------------
  S     53.920500   14.247500   77.332200
  C     55.605200   14.658600   77.384200
  C     56.232400   13.843000   78.320200
  C     55.327500   12.887800   78.913700
  C     54.034900   12.871200   78.409300
  H     55.692000   12.146400   79.669900
  C     57.729400   13.879200   78.650000
  H     58.388900   14.252500   77.908700
  H     58.042200   12.829400   78.646000
  C     58.193200   14.575500   80.024200
  H     58.034700   13.799600   80.767800
  H     59.272800   14.745300   79.941100
  C     57.439600   15.863300   80.336900
  H     57.774400   16.696500   79.773900
  H     56.351800   15.810700   80.077400
  H     57.424200   16.143100   81.384100
  S     51.751200   12.708300   79.850100
  C     50.895100   11.276800   80.155200
  C     51.439100   10.274800   79.402400
  C     52.668600   10.665300   78.729700
  C     52.930000   12.002500   78.819300
  H     51.055700    9.230420   79.486100
  C     53.537600    9.714790   77.924300
  H     53.560700    8.717810   78.417300
  H     54.554300   10.090800   77.939600
  C     53.286400    9.538250   76.498200
  H     53.004900   10.547600   76.034300
  H     52.409300    8.949900   76.407900
  C     54.428700    8.947120   75.737500
  H     54.694700    7.908800   76.033400
  H     55.347400    9.492680   75.960100
  H     54.118100    9.010930   74.697500
  H     56.046700   15.404100   76.804200
  H     50.018500   11.200100   80.804200

 Total Charge           Charge          ....    0
 Multiplicity           Mult            ....    1
 Number of Electrons    NEL             ....  134
 Basis Dimension        Dim             ....  322

ORBITAL ENERGIES
----------------

  NO   OCC          E(Eh)            E(eV)
   0   2.0000     -88.966117     -2420.8911
   1   2.0000     -88.959851     -2420.7206
   2   2.0000     -10.335155      -281.2339
   3   2.0000     -10.324474      -280.9432
   4   2.0000     -10.316165      -280.7171
   5   2.0000     -10.315147      -280.6894
   6   2.0000     -10.306629      -280.4576
   7   2.0000     -10.304720      -280.4057
   8   2.0000     -10.301396      -280.3152
   9   2.0000     -10.297310      -280.2041
  10   2.0000     -10.292707      -280.0788
  11   2.0000     -10.291434      -280.0442
  12   2.0000     -10.282181      -279.7924
  13   2.0000     -10.275408      -279.6081
  14   2.0000     -10.274706      -279.5890
  15   2.0000     -10.271678      -279.5066
  16   2.0000      -8.081015      -219.8956
  17   2.0000      -8.076611      -219.7758
  18   2.0000      -6.039531      -164.3440
  19   2.0000      -6.035280      -164.2283
  20   2.0000      -6.035050      -164.2221
  21   2.0000      -6.031946      -164.1376
  22   2.0000      -6.030574      -164.1003
  23   2.0000      -6.027550      -164.0180
  24   2.0000      -1.014795       -27.6140
  25   2.0000      -0.990899       -26.9637
  26   2.0000      -0.921057       -25.0632
  27   2.0000      -0.902271       -24.5520
  28   2.0000      -0.873306       -23.7639
  29   2.0000      -0.850631       -23.1469
  30   2.0000      -0.841918       -22.9098
  31   2.0000      -0.817531       -22.2462
  32   2.0000      -0.782478       -21.2923
  33   2.0000      -0.776097       -21.1187
  34   2.0000      -0.707160       -19.2428
  35   2.0000      -0.698184       -18.9985
  36   2.0000      -0.690681       -18.7944
  37   2.0000      -0.660871       -17.9832
  38   2.0000      -0.643585       -17.5128
  39   2.0000      -0.621762       -16.9190
  40   2.0000      -0.602126       -16.3847
  41   2.0000      -0.571706       -15.5569
  42   2.0000      -0.567317       -15.4375
  43   2.0000      -0.547783       -14.9059
  44   2.0000      -0.539044       -14.6681
  45   2.0000      -0.531731       -14.4691
  46   2.0000      -0.516563       -14.0564
  47   2.0000      -0.513508       -13.9733
  48   2.0000      -0.509104       -13.8534
  49   2.0000      -0.502250       -13.6669
  50   2.0000      -0.489859       -13.3297
  51   2.0000      -0.482880       -13.1398
  52   2.0000      -0.471261       -12.8237
  53   2.0000      -0.467916       -12.7326
  54   2.0000      -0.460660       -12.5352
  55   2.0000      -0.445336       -12.1182
  56   2.0000      -0.443841       -12.0775
  57   2.0000      -0.432099       -11.7580
  58   2.0000      -0.428050       -11.6478
  59   2.0000      -0.421634       -11.4733
  60   2.0000      -0.416815       -11.3421
  61   2.0000      -0.407542       -11.0898
  62   2.0000      -0.404354       -11.0030
  63   2.0000      -0.343770        -9.3544
  64   2.0000      -0.328458        -8.9378
  65   2.0000      -0.326067        -8.8727
  66   2.0000      -0.309260        -8.4154
  67   0.0000       0.042575         1.1585
  68   0.0000       0.059624         1.6224
  69   0.0000       0.119275         3.2456
  70   0.0000       0.125189         3.4066
  71   0.0000       0.132515         3.6059

MULLIKEN ATOMIC CHARGES
-----------------------
   0 S :    0.111029
   1 C :   -0.091723
   2 C :   -0.099846
   3 C :    0.044730
   4 C :   -0.166861
   5 H :    0.031981
   6 C :    0.043558
   7 H :    0.012002
   8 H :    0.025815
   9 C :   -0.065844
  10 H :    0.029472
  11 H :    0.036408
  12 C :   -0.050352
  13 H :    0.020033
  14 H :    0.044680
  15 H :    0.033389
  16 S :    0.108857
  17 C :   -0.092990
  18 C :   -0.044204
  19 C :   -0.055603
  20 C :   -0.143997
  21 H :    0.033243
  22 C :    0.071856
  23 H :    0.020539
  24 H :   -0.000564
  25 C :   -0.062536
  26 H :    0.032721
  27 H :    0.008866
  28 C :   -0.036168
  29 H :    0.027253
  30 H :    0.029471
  31 H :    0.043916
  32 H :    0.032305
  33 H :    0.068562
Sum of atomic charges:   -0.0000000

LOEWDIN ATOMIC CHARGES
----------------------
   0 S :    0.416103
   1 C :   -0.185668
   2 C :   -0.067768
   3 C :   -0.062667
   4 C :   -0.205289
   5 H :    0.038453
   6 C :   -0.035708
   7 H :    0.022346
   8 H :    0.032539
   9 C :   -0.035042
  10 H :    0.021199
  11 H :    0.026903
  12 C :   -0.073017
  13 H :    0.019272
  14 H :    0.034233
  15 H :    0.026957
  16 S :    0.442458
  17 C :   -0.200001
  18 C :   -0.083966
  19 C :   -0.052393
  20 C :   -0.213220
  21 H :    0.037440
  22 C :   -0.039083
  23 H :    0.031409
  24 H :    0.026065
  25 C :   -0.048141
  26 H :    0.032619
  27 H :    0.015713
  28 C :   -0.062363
  29 H :    0.026037
  30 H :    0.025008
  31 H :    0.032083
  32 H :    0.019966
  33 H :    0.037522

  Mayer bond orders larger than 0.100000
B(  0-S ,  1-C ) :   1.1557 B(  0-S ,  4-C ) :   1.1560 B(  1-C ,  2-C ) :   1.5670
B(  1-C ,  4-C ) :   0.1027 B(  1-C , 32-H ) :   0.9839 B(  2-C ,  3-C ) :   1.2629
B(  2-C ,  6-C ) :   1.0213 B(  3-C ,  4-C ) :   1.5629 B(  3-C ,  5-H ) :   0.9855
B(  4-C , 20-C ) :   1.0027 B(  6-C ,  7-H ) :   0.9516 B(  6-C ,  8-H ) :   0.9471
B(  6-C ,  9-C ) :   1.0520 B(  9-C , 10-H ) :   0.9616 B(  9-C , 11-H ) :   0.9611
B(  9-C , 12-C ) :   1.0779 B( 12-C , 13-H ) :   0.9762 B( 12-C , 14-H ) :   0.9689
B( 12-C , 15-H ) :   0.9755 B( 16-S , 17-C ) :   1.1828 B( 16-S , 20-C ) :   1.1560
B( 17-C , 18-C ) :   1.5854 B( 17-C , 33-H ) :   0.9679 B( 18-C , 19-C ) :   1.2446
B( 18-C , 21-H ) :   0.9859 B( 19-C , 20-C ) :   1.6124 B( 19-C , 22-C ) :   1.0561
B( 22-C , 23-H ) :   0.9233 B( 22-C , 24-H ) :   0.9259 B( 22-C , 25-C ) :   1.0843
B( 25-C , 26-H ) :   0.9490 B( 25-C , 27-H ) :   0.9424 B( 25-C , 28-C ) :   1.0895
B( 28-C , 29-H ) :   0.9710 B( 28-C , 30-H ) :   0.9716 B( 28-C , 31-H ) :   0.9720

Dispersion correction           -0.014351494
FINAL SINGLE POINT ENERGY     -1339.879404017687

DIPOLE MOMENT
-------------
                                X             Y             Z
Electronic contribution:    -19.12254       7.67519       2.69512
Nuclear contribution   :     19.53876      -8.02409      -2.59976
                        -----------------------------------------
Total Dipole Moment    :      0.41622      -0.34890       0.09536
                        -----------------------------------------
Magnitude (a.u.)       :      0.55142
Magnitude (Debye)      :      1.40160

Rotational constants in cm-1:     0.018799     0.008472     0.007055
Rotational constants in MHz :   563.568558   253.973536   211.515142

                             ****ORCA TERMINATED NORMALLY****
TOTAL RUN TIME: 0 days 0 hours 0 minutes 29 seconds 503 msec
