                         Program Version 4.2.1 -  RELEASE  -
|  1> ! wB97X-D3 SP def2-SVP
|  2> %pal
|  3> nprocs 16
|  4> end
|  5>
|  6> * xyz 0 1
|  7> S 	 -36.4316 	 54.792 	 108.622
|  8> C 	 -36.6686 	 55.9143 	 109.919
|  9> C 	 -37.033 	 55.3505 	 111.116
| 10> C 	 -37.042 	 53.9086 	 110.977
| 11> C 	 -36.641 	 53.4769 	 109.708
| 12> H 	 -37.0927 	 53.1917 	 111.809
| 13> C 	 -37.3407 	 56.1198 	 112.4
| 14> H 	 -37.0486 	 57.2018 	 112.203
| 15> H 	 -36.6399 	 55.7323 	 113.152
| 16> C 	 -38.7643 	 55.9501 	 112.963
| 17> H 	 -38.9481 	 54.9474 	 113.366
| 18> H 	 -38.8212 	 56.671 	 113.823
| 19> C 	 -39.8446 	 56.2635 	 111.997
| 20> H 	 -40.8996 	 56.1591 	 112.229
| 21> H 	 -39.8296 	 57.2963 	 111.633
| 22> H 	 -39.7131 	 55.6594 	 111.113
| 23> S 	 -34.6507 	 51.6844 	 109.69
| 24> C 	 -35.0097 	 50 	 109.442
| 25> C 	 -36.339 	 49.7869 	 109.13
| 26> C 	 -37.0325 	 50.9921 	 109.107
| 27> C 	 -36.2754 	 52.112 	 109.349
| 28> H 	 -36.8062 	 48.8488 	 108.991
| 29> C 	 -38.5 	 51.0799 	 108.731
| 30> H 	 -38.6922 	 50.2482 	 108.069
| 31> H 	 -38.628 	 52.0097 	 108.152
| 32> C 	 -39.4596 	 50.9032 	 109.872
| 33> H 	 -40.4235 	 50.9611 	 109.364
| 34> H 	 -39.2845 	 51.6861 	 110.579
| 35> C 	 -39.4356 	 49.5838 	 110.694
| 36> H 	 -40.3652 	 49.4132 	 111.262
| 37> H 	 -38.6031 	 49.5393 	 111.39
| 38> H 	 -39.2217 	 48.7861 	 110.038
| 39> H 	 -36.6029 	 56.9584 	 109.769
| 40> H 	 -34.3774 	 49.2304 	 109.782
| 41> *
| 42>
| 43>                          ****END OF INPUT****

CARTESIAN COORDINATES (ANGSTROEM)
---------------------------------
  S    -36.431600   54.792000  108.622000
  C    -36.668600   55.914300  109.919000
  C    -37.033000   55.350500  111.116000
  C    -37.042000   53.908600  110.977000
  C    -36.641000   53.476900  109.708000
  H    -37.092700   53.191700  111.809000
  C    -37.340700   56.119800  112.400000
  H    -37.048600   57.201800  112.203000
  H    -36.639900   55.732300  113.152000
  C    -38.764300   55.950100  112.963000
  H    -38.948100   54.947400  113.366000
  H    -38.821200   56.671000  113.823000
  C    -39.844600   56.263500  111.997000
  H    -40.899600   56.159100  112.229000
  H    -39.829600   57.296300  111.633000
  H    -39.713100   55.659400  111.113000
  S    -34.650700   51.684400  109.690000
  C    -35.009700   50.000000  109.442000
  C    -36.339000   49.786900  109.130000
  C    -37.032500   50.992100  109.107000
  C    -36.275400   52.112000  109.349000
  H    -36.806200   48.848800  108.991000
  C    -38.500000   51.079900  108.731000
  H    -38.692200   50.248200  108.069000
  H    -38.628000   52.009700  108.152000
  C    -39.459600   50.903200  109.872000
  H    -40.423500   50.961100  109.364000
  H    -39.284500   51.686100  110.579000
  C    -39.435600   49.583800  110.694000
  H    -40.365200   49.413200  111.262000
  H    -38.603100   49.539300  111.390000
  H    -39.221700   48.786100  110.038000
  H    -36.602900   56.958400  109.769000
  H    -34.377400   49.230400  109.782000

 Total Charge           Charge          ....    0
 Multiplicity           Mult            ....    1
 Number of Electrons    NEL             ....  134
 Basis Dimension        Dim             ....  322

ORBITAL ENERGIES
----------------

  NO   OCC          E(Eh)            E(eV)
   0   2.0000     -88.966317     -2420.8966
   1   2.0000     -88.963498     -2420.8199
   2   2.0000     -10.327021      -281.0125
   3   2.0000     -10.315332      -280.6945
   4   2.0000     -10.312423      -280.6153
   5   2.0000     -10.308038      -280.4960
   6   2.0000     -10.302749      -280.3520
   7   2.0000     -10.302434      -280.3435
   8   2.0000     -10.298287      -280.2306
   9   2.0000     -10.291852      -280.0555
  10   2.0000     -10.291674      -280.0507
  11   2.0000     -10.287517      -279.9376
  12   2.0000     -10.284008      -279.8421
  13   2.0000     -10.279034      -279.7067
  14   2.0000     -10.275269      -279.6043
  15   2.0000     -10.268260      -279.4136
  16   2.0000      -8.082033      -219.9233
  17   2.0000      -8.079265      -219.8480
  18   2.0000      -6.040357      -164.3665
  19   2.0000      -6.037565      -164.2905
  20   2.0000      -6.036414      -164.2592
  21   2.0000      -6.033525      -164.1806
  22   2.0000      -6.032934      -164.1645
  23   2.0000      -6.030281      -164.0923
  24   2.0000      -1.013414       -27.5764
  25   2.0000      -0.989807       -26.9340
  26   2.0000      -0.914253       -24.8781
  27   2.0000      -0.911407       -24.8006
  28   2.0000      -0.872074       -23.7303
  29   2.0000      -0.849702       -23.1216
  30   2.0000      -0.847315       -23.0566
  31   2.0000      -0.813816       -22.1451
  32   2.0000      -0.787006       -21.4155
  33   2.0000      -0.776555       -21.1311
  34   2.0000      -0.708044       -19.2669
  35   2.0000      -0.696692       -18.9579
  36   2.0000      -0.687255       -18.7012
  37   2.0000      -0.671233       -18.2652
  38   2.0000      -0.642865       -17.4933
  39   2.0000      -0.615701       -16.7541
  40   2.0000      -0.596856       -16.2413
  41   2.0000      -0.569277       -15.4908
  42   2.0000      -0.556957       -15.1556
  43   2.0000      -0.553179       -15.0528
  44   2.0000      -0.545476       -14.8432
  45   2.0000      -0.543781       -14.7970
  46   2.0000      -0.519724       -14.1424
  47   2.0000      -0.512745       -13.9525
  48   2.0000      -0.497190       -13.5292
  49   2.0000      -0.491389       -13.3714
  50   2.0000      -0.484113       -13.1734
  51   2.0000      -0.483028       -13.1439
  52   2.0000      -0.473713       -12.8904
  53   2.0000      -0.464310       -12.6345
  54   2.0000      -0.460767       -12.5381
  55   2.0000      -0.450428       -12.2568
  56   2.0000      -0.446138       -12.1400
  57   2.0000      -0.443573       -12.0702
  58   2.0000      -0.442528       -12.0418
  59   2.0000      -0.422589       -11.4992
  60   2.0000      -0.415189       -11.2979
  61   2.0000      -0.413587       -11.2543
  62   2.0000      -0.407673       -11.0933
  63   2.0000      -0.341691        -9.2979
  64   2.0000      -0.328645        -8.9429
  65   2.0000      -0.317938        -8.6515
  66   2.0000      -0.310045        -8.4368
  67   0.0000       0.047735         1.2989
  68   0.0000       0.052415         1.4263
  69   0.0000       0.118110         3.2139
  70   0.0000       0.123156         3.3512
  71   0.0000       0.126965         3.4549

MULLIKEN ATOMIC CHARGES
-----------------------
   0 S :    0.127222
   1 C :   -0.112381
   2 C :   -0.106973
   3 C :    0.052153
   4 C :   -0.198853
   5 H :    0.024414
   6 C :    0.056647
   7 H :    0.033942
   8 H :    0.041882
   9 C :   -0.060343
  10 H :    0.035307
  11 H :    0.037152
  12 C :   -0.052074
  13 H :    0.029567
  14 H :    0.015885
  15 H :    0.033722
  16 S :    0.120066
  17 C :   -0.075792
  18 C :   -0.019554
  19 C :   -0.043393
  20 C :   -0.175399
  21 H :    0.001080
  22 C :    0.076422
  23 H :    0.007386
  24 H :    0.036848
  25 C :   -0.046850
  26 H :    0.031191
  27 H :    0.021618
  28 C :   -0.046004
  29 H :    0.046628
  30 H :    0.029493
  31 H :    0.005128
  32 H :    0.027776
  33 H :    0.046089
Sum of atomic charges:   -0.0000000

LOEWDIN ATOMIC CHARGES
----------------------
   0 S :    0.426754
   1 C :   -0.196370
   2 C :   -0.066425
   3 C :   -0.061350
   4 C :   -0.212677
   5 H :    0.033063
   6 C :   -0.030585
   7 H :    0.037502
   8 H :    0.037118
   9 C :   -0.044571
  10 H :    0.026794
  11 H :    0.031279
  12 C :   -0.076331
  13 H :    0.026616
  14 H :    0.024499
  15 H :    0.025965
  16 S :    0.436300
  17 C :   -0.179311
  18 C :   -0.066355
  19 C :   -0.057593
  20 C :   -0.225651
  21 H :    0.026320
  22 C :   -0.029542
  23 H :    0.025190
  24 H :    0.036788
  25 C :   -0.035462
  26 H :    0.027262
  27 H :    0.018986
  28 C :   -0.064088
  29 H :    0.033214
  30 H :    0.024286
  31 H :    0.012674
  32 H :    0.016145
  33 H :    0.019554

  Mayer bond orders larger than 0.100000
B(  0-S ,  1-C ) :   1.1470 B(  0-S ,  4-C ) :   1.1683 B(  1-C ,  2-C ) :   1.6229
B(  1-C , 32-H ) :   0.9689 B(  2-C ,  3-C ) :   1.2244 B(  2-C ,  6-C ) :   1.0181
B(  3-C ,  4-C ) :   1.5936 B(  3-C ,  5-H ) :   0.9863 B(  4-C , 20-C ) :   0.9863
B(  6-C ,  7-H ) :   0.9437 B(  6-C ,  8-H ) :   0.9363 B(  6-C ,  9-C ) :   1.0683
B(  9-C , 10-H ) :   0.9531 B(  9-C , 11-H ) :   0.9547 B(  9-C , 12-C ) :   1.0781
B( 12-C , 13-H ) :   0.9743 B( 12-C , 14-H ) :   0.9714 B( 12-C , 15-H ) :   0.9688
B( 16-S , 17-C ) :   1.1872 B( 16-S , 20-C ) :   1.1587 B( 17-C , 18-C ) :   1.5592
B( 17-C , 33-H ) :   0.9693 B( 18-C , 19-C ) :   1.2907 B( 18-C , 21-H ) :   0.9970
B( 19-C , 20-C ) :   1.5981 B( 19-C , 22-C ) :   1.0245 B( 22-C , 23-H ) :   0.9311
B( 22-C , 24-H ) :   0.9365 B( 22-C , 25-C ) :   1.0834 B( 25-C , 26-H ) :   0.9547
B( 25-C , 27-H ) :   0.9523 B( 25-C , 28-C ) :   1.0774 B( 28-C , 29-H ) :   0.9746
B( 28-C , 30-H ) :   0.9713 B( 28-C , 31-H ) :   0.9737

Dispersion correction           -0.015399167
FINAL SINGLE POINT ENERGY     -1339.885255545495

DIPOLE MOMENT
-------------
                                X             Y             Z
Electronic contribution:     22.66955       0.02430     -13.42958
Nuclear contribution   :    -23.03805      -0.11920      13.88005
                        -----------------------------------------
Total Dipole Moment    :     -0.36850      -0.09490       0.45047
                        -----------------------------------------
Magnitude (a.u.)       :      0.58968
Magnitude (Debye)      :      1.49885

Rotational constants in cm-1:     0.019163     0.009333     0.007477
Rotational constants in MHz :   574.483934   279.788475   224.152124

                             ****ORCA TERMINATED NORMALLY****
TOTAL RUN TIME: 0 days 0 hours 0 minutes 32 seconds 449 msec
