                         Program Version 4.2.1 -  RELEASE  -
|  1> ! wB97X-D3 SP def2-SVP
|  2> %pal
|  3> nprocs 16
|  4> end
|  5>
|  6> * xyz 0 1
|  7> S 	 -1.82153 	 -4.91069 	 75.114
|  8> C 	 -1.51 	 -6.36787 	 76.0907
|  9> C 	 -0.321457 	 -6.26378 	 76.922
| 10> C 	 0.401433 	 -5.05923 	 76.6087
| 11> C 	 -0.295983 	 -4.24516 	 75.7449
| 12> H 	 1.3993 	 -4.72273 	 76.8749
| 13> C 	 0.394767 	 -7.26803 	 77.7859
| 14> H 	 1.43927 	 -7.24541 	 77.4505
| 15> H 	 0.0727916 	 -8.17872 	 77.4277
| 16> C 	 0.292141 	 -7.12507 	 79.2922
| 17> H 	 0.852451 	 -7.9095 	 79.7636
| 18> H 	 0.628533 	 -6.11475 	 79.5442
| 19> C 	 -1.19173 	 -7.15434 	 79.7649
| 20> H 	 -1.55991 	 -6.29609 	 79.172
| 21> H 	 -1.71292 	 -8.09366 	 79.7556
| 22> H 	 -1.21171 	 -6.76111 	 80.8197
| 23> S 	 1.14781 	 -2.43706 	 74.3174
| 24> C 	 0.942659 	 -0.732506 	 74.6645
| 25> C 	 -0.0532775 	 -0.604238 	 75.6068
| 26> C 	 -0.602593 	 -1.80039 	 76.1535
| 27> C 	 -0.0425752 	 -2.88747 	 75.4824
| 28> H 	 -0.349462 	 0.383867 	 75.9885
| 29> C 	 -1.75642 	 -1.87343 	 77.0676
| 30> H 	 -1.61462 	 -1.14491 	 77.915
| 31> H 	 -1.74011 	 -2.83813 	 77.5898
| 32> C 	 -3.11553 	 -1.68809 	 76.3257
| 33> H 	 -3.2568 	 -2.4083 	 75.5535
| 34> H 	 -3.09555 	 -0.676834 	 75.932
| 35> C 	 -4.27836 	 -1.85196 	 77.3367
| 36> H 	 -5.23763 	 -2.12236 	 76.879
| 37> H 	 -4.34429 	 -1.00707 	 78.0726
| 38> H 	 -4.08813 	 -2.72759 	 77.9181
| 39> H 	 -2.0454 	 -7.30732 	 76.0753
| 40> H 	 1.4554 	 0.0903133 	 74.1913
| 41> *
| 42>
| 43>                          ****END OF INPUT****

CARTESIAN COORDINATES (ANGSTROEM)
---------------------------------
  S     -1.821530   -4.910690   75.114000
  C     -1.510000   -6.367870   76.090700
  C     -0.321457   -6.263780   76.922000
  C      0.401433   -5.059230   76.608700
  C     -0.295983   -4.245160   75.744900
  H      1.399300   -4.722730   76.874900
  C      0.394767   -7.268030   77.785900
  H      1.439270   -7.245410   77.450500
  H      0.072792   -8.178720   77.427700
  C      0.292141   -7.125070   79.292200
  H      0.852451   -7.909500   79.763600
  H      0.628533   -6.114750   79.544200
  C     -1.191730   -7.154340   79.764900
  H     -1.559910   -6.296090   79.172000
  H     -1.712920   -8.093660   79.755600
  H     -1.211710   -6.761110   80.819700
  S      1.147810   -2.437060   74.317400
  C      0.942659   -0.732506   74.664500
  C     -0.053277   -0.604238   75.606800
  C     -0.602593   -1.800390   76.153500
  C     -0.042575   -2.887470   75.482400
  H     -0.349462    0.383867   75.988500
  C     -1.756420   -1.873430   77.067600
  H     -1.614620   -1.144910   77.915000
  H     -1.740110   -2.838130   77.589800
  C     -3.115530   -1.688090   76.325700
  H     -3.256800   -2.408300   75.553500
  H     -3.095550   -0.676834   75.932000
  C     -4.278360   -1.851960   77.336700
  H     -5.237630   -2.122360   76.879000
  H     -4.344290   -1.007070   78.072600
  H     -4.088130   -2.727590   77.918100
  H     -2.045400   -7.307320   76.075300
  H      1.455400    0.090313   74.191300

 Total Charge           Charge          ....    0
 Multiplicity           Mult            ....    1
 Number of Electrons    NEL             ....  134
 Basis Dimension        Dim             ....  322

ORBITAL ENERGIES
----------------

  NO   OCC          E(Eh)            E(eV)
   0   2.0000     -88.974297     -2421.1137
   1   2.0000     -88.964070     -2420.8354
   2   2.0000     -10.325839      -280.9804
   3   2.0000     -10.322931      -280.9012
   4   2.0000     -10.314915      -280.6831
   5   2.0000     -10.314755      -280.6788
   6   2.0000     -10.310577      -280.5651
   7   2.0000     -10.296172      -280.1731
   8   2.0000     -10.295857      -280.1645
   9   2.0000     -10.291398      -280.0432
  10   2.0000     -10.291386      -280.0428
  11   2.0000     -10.287601      -279.9399
  12   2.0000     -10.284854      -279.8651
  13   2.0000     -10.283988      -279.8415
  14   2.0000     -10.278448      -279.6908
  15   2.0000     -10.275699      -279.6160
  16   2.0000      -8.087265      -220.0657
  17   2.0000      -8.079156      -219.8450
  18   2.0000      -6.045768      -164.5137
  19   2.0000      -6.042071      -164.4131
  20   2.0000      -6.038075      -164.3044
  21   2.0000      -6.037662      -164.2931
  22   2.0000      -6.033492      -164.1797
  23   2.0000      -6.030032      -164.0855
  24   2.0000      -1.008176       -27.4339
  25   2.0000      -0.977111       -26.5885
  26   2.0000      -0.916722       -24.9453
  27   2.0000      -0.907695       -24.6996
  28   2.0000      -0.868194       -23.6248
  29   2.0000      -0.850311       -23.1382
  30   2.0000      -0.848215       -23.0811
  31   2.0000      -0.809270       -22.0213
  32   2.0000      -0.782136       -21.2830
  33   2.0000      -0.766091       -20.8464
  34   2.0000      -0.706662       -19.2292
  35   2.0000      -0.699714       -19.0402
  36   2.0000      -0.696122       -18.9425
  37   2.0000      -0.660484       -17.9727
  38   2.0000      -0.640729       -17.4351
  39   2.0000      -0.617421       -16.8009
  40   2.0000      -0.596868       -16.2416
  41   2.0000      -0.571330       -15.5467
  42   2.0000      -0.564944       -15.3729
  43   2.0000      -0.546406       -14.8685
  44   2.0000      -0.543217       -14.7817
  45   2.0000      -0.521753       -14.1976
  46   2.0000      -0.518732       -14.1154
  47   2.0000      -0.513231       -13.9657
  48   2.0000      -0.510358       -13.8875
  49   2.0000      -0.492556       -13.4031
  50   2.0000      -0.485183       -13.2025
  51   2.0000      -0.474930       -12.9235
  52   2.0000      -0.465638       -12.6707
  53   2.0000      -0.463217       -12.6048
  54   2.0000      -0.455550       -12.3962
  55   2.0000      -0.444368       -12.0919
  56   2.0000      -0.441262       -12.0074
  57   2.0000      -0.436167       -11.8687
  58   2.0000      -0.431364       -11.7380
  59   2.0000      -0.429107       -11.6766
  60   2.0000      -0.423886       -11.5345
  61   2.0000      -0.418151       -11.3785
  62   2.0000      -0.413771       -11.2593
  63   2.0000      -0.339663        -9.2427
  64   2.0000      -0.331449        -9.0192
  65   2.0000      -0.316473        -8.6117
  66   2.0000      -0.300478        -8.1764
  67   0.0000       0.037907         1.0315
  68   0.0000       0.054018         1.4699
  69   0.0000       0.100161         2.7255
  70   0.0000       0.113826         3.0974
  71   0.0000       0.128594         3.4992

MULLIKEN ATOMIC CHARGES
-----------------------
   0 S :    0.121775
   1 C :   -0.095136
   2 C :   -0.149724
   3 C :    0.052126
   4 C :   -0.197064
   5 H :    0.022895
   6 C :    0.105775
   7 H :    0.030931
   8 H :   -0.011630
   9 C :   -0.035488
  10 H :    0.033348
  11 H :    0.024682
  12 C :   -0.088127
  13 H :    0.046758
  14 H :    0.044367
  15 H :    0.033649
  16 S :    0.117516
  17 C :   -0.093212
  18 C :   -0.036785
  19 C :   -0.003862
  20 C :   -0.193687
  21 H :    0.015903
  22 C :    0.033198
  23 H :    0.030599
  24 H :    0.028727
  25 C :   -0.037360
  26 H :    0.022959
  27 H :    0.028382
  28 C :   -0.036874
  29 H :    0.033616
  30 H :    0.037787
  31 H :    0.012338
  32 H :    0.045110
  33 H :    0.056507
Sum of atomic charges:    0.0000000

LOEWDIN ATOMIC CHARGES
----------------------
   0 S :    0.400644
   1 C :   -0.194632
   2 C :   -0.055579
   3 C :   -0.051414
   4 C :   -0.187707
   5 H :    0.037770
   6 C :   -0.033853
   7 H :    0.037591
   8 H :    0.016699
   9 C :   -0.031658
  10 H :    0.021311
  11 H :    0.026653
  12 C :   -0.072615
  13 H :    0.032590
  14 H :    0.020972
  15 H :    0.030151
  16 S :    0.417764
  17 C :   -0.193571
  18 C :   -0.070529
  19 C :   -0.058380
  20 C :   -0.221884
  21 H :    0.029416
  22 C :   -0.039047
  23 H :    0.035965
  24 H :    0.030574
  25 C :   -0.027238
  26 H :    0.013058
  27 H :    0.023398
  28 C :   -0.069918
  29 H :    0.027401
  30 H :    0.029241
  31 H :    0.020128
  32 H :    0.025096
  33 H :    0.031603

  Mayer bond orders larger than 0.100000
B(  0-S ,  1-C ) :   1.1370 B(  0-S ,  4-C ) :   1.1344 B(  1-C ,  2-C ) :   1.6018
B(  1-C ,  4-C ) :   0.1052 B(  1-C , 32-H ) :   0.9653 B(  2-C ,  3-C ) :   1.2074
B(  2-C ,  6-C ) :   1.0133 B(  3-C ,  4-C ) :   1.6257 B(  3-C ,  5-H ) :   0.9850
B(  4-C , 20-C ) :   1.0144 B(  6-C ,  7-H ) :   0.9432 B(  6-C ,  8-H ) :   0.9301
B(  6-C ,  9-C ) :   1.0665 B(  9-C , 10-H ) :   0.9557 B(  9-C , 11-H ) :   0.9570
B(  9-C , 12-C ) :   1.0719 B( 12-C , 13-H ) :   0.9723 B( 12-C , 14-H ) :   0.9784
B( 12-C , 15-H ) :   0.9748 B( 16-S , 17-C ) :   1.1438 B( 16-S , 20-C ) :   1.1632
B( 17-C , 18-C ) :   1.5976 B( 17-C , 20-C ) :   0.1009 B( 17-C , 33-H ) :   0.9719
B( 18-C , 19-C ) :   1.2576 B( 18-C , 21-H ) :   0.9808 B( 19-C , 20-C ) :   1.5587
B( 19-C , 22-C ) :   1.0753 B( 22-C , 23-H ) :   0.9290 B( 22-C , 24-H ) :   0.9181
B( 22-C , 25-C ) :   1.0574 B( 25-C , 26-H ) :   0.9508 B( 25-C , 27-H ) :   0.9572
B( 25-C , 28-C ) :   1.0807 B( 28-C , 29-H ) :   0.9745 B( 28-C , 30-H ) :   0.9757
B( 28-C , 31-H ) :   0.9709

Dispersion correction           -0.015316092
FINAL SINGLE POINT ENERGY     -1339.866423643674

DIPOLE MOMENT
-------------
                                X             Y             Z
Electronic contribution:     10.80387       4.87636     -21.57696
Nuclear contribution   :    -10.78546      -4.97592      22.02920
                        -----------------------------------------
Total Dipole Moment    :      0.01840      -0.09956       0.45224
                        -----------------------------------------
Magnitude (a.u.)       :      0.46343
Magnitude (Debye)      :      1.17795

Rotational constants in cm-1:     0.018527     0.009297     0.007662
Rotational constants in MHz :   555.416572   278.704775   229.696458

                             ****ORCA TERMINATED NORMALLY****
TOTAL RUN TIME: 0 days 0 hours 0 minutes 36 seconds 421 msec
