                         Program Version 4.2.1 -  RELEASE  -
|  1> ! wB97X-D3 SP def2-SVP
|  2> %pal
|  3> nprocs 16
|  4> end
|  5>
|  6> * xyz 0 1
|  7> S 	 22.0418 	 31.7835 	 58.3315
|  8> C 	 20.668 	 32.2679 	 59.3124
|  9> C 	 20.6311 	 33.6364 	 59.4232
| 10> C 	 21.7953 	 34.2683 	 58.8081
| 11> C 	 22.5931 	 33.4383 	 58.0845
| 12> H 	 21.9967 	 35.3017 	 58.9981
| 13> C 	 19.681 	 34.4428 	 60.1895
| 14> H 	 18.731 	 34.1445 	 59.7767
| 15> H 	 19.7606 	 35.467 	 59.9712
| 16> C 	 19.7971 	 34.3149 	 61.6758
| 17> H 	 19.8301 	 33.208 	 61.9099
| 18> H 	 20.7432 	 34.7308 	 62.0592
| 19> C 	 18.6065 	 35.0012 	 62.4614
| 20> H 	 18.471 	 36.1472 	 62.4671
| 21> H 	 17.6398 	 34.6129 	 62.2351
| 22> H 	 18.8285 	 34.7495 	 63.5331
| 23> S 	 25.2819 	 32.974 	 58.11
| 24> C 	 26.2303 	 33.6534 	 56.8255
| 25> C 	 25.535 	 34.4883 	 55.9626
| 26> C 	 24.1787 	 34.6068 	 56.351
| 27> C 	 23.7957 	 33.7629 	 57.3798
| 28> H 	 26.106 	 34.9838 	 55.1927
| 29> C 	 23.2141 	 35.4744 	 55.6003
| 30> H 	 22.2345 	 35.3044 	 55.999
| 31> H 	 23.2195 	 35.2165 	 54.578
| 32> C 	 23.6752 	 36.9206 	 55.7589
| 33> H 	 24.7565 	 37.045 	 55.3737
| 34> H 	 23.7243 	 37.0249 	 56.8417
| 35> C 	 22.7887 	 38.0034 	 55.1321
| 36> H 	 21.8874 	 38.1728 	 55.8052
| 37> H 	 22.4806 	 37.7812 	 54.1327
| 38> H 	 23.1723 	 38.9999 	 55.0019
| 39> H 	 19.937 	 31.6227 	 59.8425
| 40> H 	 27.3062 	 33.4644 	 56.6995
| 41> *
| 42>
| 43>                          ****END OF INPUT****

CARTESIAN COORDINATES (ANGSTROEM)
---------------------------------
  S     22.041800   31.783500   58.331500
  C     20.668000   32.267900   59.312400
  C     20.631100   33.636400   59.423200
  C     21.795300   34.268300   58.808100
  C     22.593100   33.438300   58.084500
  H     21.996700   35.301700   58.998100
  C     19.681000   34.442800   60.189500
  H     18.731000   34.144500   59.776700
  H     19.760600   35.467000   59.971200
  C     19.797100   34.314900   61.675800
  H     19.830100   33.208000   61.909900
  H     20.743200   34.730800   62.059200
  C     18.606500   35.001200   62.461400
  H     18.471000   36.147200   62.467100
  H     17.639800   34.612900   62.235100
  H     18.828500   34.749500   63.533100
  S     25.281900   32.974000   58.110000
  C     26.230300   33.653400   56.825500
  C     25.535000   34.488300   55.962600
  C     24.178700   34.606800   56.351000
  C     23.795700   33.762900   57.379800
  H     26.106000   34.983800   55.192700
  C     23.214100   35.474400   55.600300
  H     22.234500   35.304400   55.999000
  H     23.219500   35.216500   54.578000
  C     23.675200   36.920600   55.758900
  H     24.756500   37.045000   55.373700
  H     23.724300   37.024900   56.841700
  C     22.788700   38.003400   55.132100
  H     21.887400   38.172800   55.805200
  H     22.480600   37.781200   54.132700
  H     23.172300   38.999900   55.001900
  H     19.937000   31.622700   59.842500
  H     27.306200   33.464400   56.699500

 Total Charge           Charge          ....    0
 Multiplicity           Mult            ....    1
 Number of Electrons    NEL             ....  134
 Basis Dimension        Dim             ....  322

ORBITAL ENERGIES
----------------

  NO   OCC          E(Eh)            E(eV)
   0   2.0000     -88.963985     -2420.8331
   1   2.0000     -88.962872     -2420.8028
   2   2.0000     -10.328303      -281.0474
   3   2.0000     -10.327214      -281.0178
   4   2.0000     -10.319242      -280.8009
   5   2.0000     -10.316639      -280.7300
   6   2.0000     -10.305899      -280.4378
   7   2.0000     -10.296783      -280.1897
   8   2.0000     -10.295868      -280.1648
   9   2.0000     -10.293130      -280.0903
  10   2.0000     -10.292327      -280.0685
  11   2.0000     -10.290788      -280.0266
  12   2.0000     -10.289247      -279.9846
  13   2.0000     -10.282861      -279.8109
  14   2.0000     -10.279578      -279.7215
  15   2.0000     -10.279296      -279.7139
  16   2.0000      -8.078412      -219.8248
  17   2.0000      -8.077033      -219.7872
  18   2.0000      -6.037119      -164.2784
  19   2.0000      -6.035499      -164.2343
  20   2.0000      -6.032917      -164.1640
  21   2.0000      -6.031742      -164.1321
  22   2.0000      -6.028988      -164.0571
  23   2.0000      -6.027731      -164.0229
  24   2.0000      -1.004836       -27.3430
  25   2.0000      -0.982556       -26.7367
  26   2.0000      -0.919269       -25.0146
  27   2.0000      -0.912272       -24.8242
  28   2.0000      -0.869808       -23.6687
  29   2.0000      -0.849166       -23.1070
  30   2.0000      -0.842251       -22.9188
  31   2.0000      -0.814064       -22.1518
  32   2.0000      -0.785174       -21.3657
  33   2.0000      -0.772758       -21.0278
  34   2.0000      -0.706970       -19.2376
  35   2.0000      -0.704795       -19.1784
  36   2.0000      -0.696574       -18.9547
  37   2.0000      -0.660672       -17.9778
  38   2.0000      -0.638348       -17.3703
  39   2.0000      -0.621907       -16.9230
  40   2.0000      -0.595539       -16.2055
  41   2.0000      -0.577277       -15.7085
  42   2.0000      -0.569271       -15.4906
  43   2.0000      -0.554225       -15.0812
  44   2.0000      -0.531495       -14.4627
  45   2.0000      -0.521024       -14.1778
  46   2.0000      -0.519945       -14.1484
  47   2.0000      -0.512469       -13.9450
  48   2.0000      -0.503965       -13.7136
  49   2.0000      -0.503513       -13.7013
  50   2.0000      -0.497019       -13.5246
  51   2.0000      -0.475557       -12.9406
  52   2.0000      -0.465655       -12.6711
  53   2.0000      -0.463155       -12.6031
  54   2.0000      -0.458143       -12.4667
  55   2.0000      -0.453774       -12.3478
  56   2.0000      -0.445460       -12.1216
  57   2.0000      -0.443439       -12.0666
  58   2.0000      -0.426857       -11.6154
  59   2.0000      -0.423960       -11.5365
  60   2.0000      -0.419092       -11.4041
  61   2.0000      -0.416319       -11.3286
  62   2.0000      -0.408717       -11.1217
  63   2.0000      -0.340865        -9.2754
  64   2.0000      -0.333920        -9.0864
  65   2.0000      -0.322678        -8.7805
  66   2.0000      -0.297129        -8.0853
  67   0.0000       0.031177         0.8484
  68   0.0000       0.063947         1.7401
  69   0.0000       0.109718         2.9856
  70   0.0000       0.122190         3.3250
  71   0.0000       0.130800         3.5592

MULLIKEN ATOMIC CHARGES
-----------------------
   0 S :    0.109994
   1 C :   -0.135066
   2 C :   -0.116615
   3 C :    0.041128
   4 C :   -0.143971
   5 H :    0.005446
   6 C :    0.121246
   7 H :    0.022031
   8 H :   -0.001855
   9 C :   -0.084240
  10 H :    0.032035
  11 H :    0.034321
  12 C :   -0.080013
  13 H :    0.047152
  14 H :    0.028291
  15 H :    0.039552
  16 S :    0.092953
  17 C :   -0.093818
  18 C :   -0.041213
  19 C :   -0.033055
  20 C :   -0.166575
  21 H :    0.021250
  22 C :    0.155790
  23 H :    0.016238
  24 H :    0.016157
  25 C :   -0.146399
  26 H :    0.042030
  27 H :    0.030115
  28 C :   -0.016390
  29 H :    0.034447
  30 H :    0.020068
  31 H :    0.026005
  32 H :    0.060469
  33 H :    0.062493
Sum of atomic charges:   -0.0000000

LOEWDIN ATOMIC CHARGES
----------------------
   0 S :    0.397876
   1 C :   -0.201600
   2 C :   -0.063377
   3 C :   -0.056519
   4 C :   -0.201199
   5 H :    0.026553
   6 C :   -0.040644
   7 H :    0.034013
   8 H :    0.023360
   9 C :   -0.035003
  10 H :    0.028734
  11 H :    0.028574
  12 C :   -0.078521
  13 H :    0.034133
  14 H :    0.016962
  15 H :    0.032621
  16 S :    0.375922
  17 C :   -0.178067
  18 C :   -0.077666
  19 C :   -0.041469
  20 C :   -0.175992
  21 H :    0.033851
  22 C :   -0.019340
  23 H :    0.027231
  24 H :    0.024335
  25 C :   -0.045169
  26 H :    0.030366
  27 H :    0.023995
  28 C :   -0.073041
  29 H :    0.033362
  30 H :    0.020643
  31 H :    0.024746
  32 H :    0.038656
  33 H :    0.031674

  Mayer bond orders larger than 0.100000
B(  0-S ,  1-C ) :   1.1254 B(  0-S ,  4-C ) :   1.1339 B(  1-C ,  2-C ) :   1.6240
B(  1-C , 32-H ) :   0.9637 B(  2-C ,  3-C ) :   1.2329 B(  2-C ,  6-C ) :   1.0334
B(  3-C ,  4-C ) :   1.5775 B(  3-C ,  5-H ) :   0.9985 B(  4-C , 20-C ) :   1.0486
B(  6-C ,  7-H ) :   0.9279 B(  6-C ,  8-H ) :   0.9306 B(  6-C ,  9-C ) :   1.0688
B(  9-C , 10-H ) :   0.9578 B(  9-C , 11-H ) :   0.9537 B(  9-C , 12-C ) :   1.0653
B( 12-C , 13-H ) :   0.9763 B( 12-C , 14-H ) :   0.9780 B( 12-C , 15-H ) :   0.9759
B( 16-S , 17-C ) :   1.1640 B( 16-S , 20-C ) :   1.1112 B( 17-C , 18-C ) :   1.6297
B( 17-C , 20-C ) :   0.1032 B( 17-C , 33-H ) :   0.9597 B( 18-C , 19-C ) :   1.1989
B( 18-C , 21-H ) :   0.9934 B( 19-C , 20-C ) :   1.6208 B( 19-C , 22-C ) :   1.0545
B( 22-C , 23-H ) :   0.9314 B( 22-C , 24-H ) :   0.9257 B( 22-C , 25-C ) :   1.0439
B( 25-C , 26-H ) :   0.9573 B( 25-C , 27-H ) :   0.9597 B( 25-C , 28-C ) :   1.0785
B( 28-C , 29-H ) :   0.9735 B( 28-C , 30-H ) :   0.9716 B( 28-C , 31-H ) :   0.9746

Dispersion correction           -0.013652888
FINAL SINGLE POINT ENERGY     -1339.871942824135

DIPOLE MOMENT
-------------
                                X             Y             Z
Electronic contribution:     15.73453     -22.37964      -3.81805
Nuclear contribution   :    -15.95092      23.00828       3.84278
                        -----------------------------------------
Total Dipole Moment    :     -0.21639       0.62864       0.02473
                        -----------------------------------------
Magnitude (a.u.)       :      0.66530
Magnitude (Debye)      :      1.69106

Rotational constants in cm-1:     0.018232     0.007906     0.006197
Rotational constants in MHz :   546.587396   237.017074   185.776831

                             ****ORCA TERMINATED NORMALLY****
TOTAL RUN TIME: 0 days 0 hours 0 minutes 33 seconds 363 msec
