                         Program Version 4.2.1 -  RELEASE  -
|  1> ! wB97X-D3 SP def2-SVP
|  2> %pal
|  3> nprocs 16
|  4> end
|  5>
|  6> * xyz 0 1
|  7> S 	 -65.6504 	 38.6209 	 131.041
|  8> C 	 -66.1195 	 39.7449 	 132.308
|  9> C 	 -64.9726 	 40.3863 	 132.822
| 10> C 	 -63.7373 	 39.914 	 132.206
| 11> C 	 -63.9978 	 39.0919 	 131.155
| 12> H 	 -62.7909 	 40.184 	 132.564
| 13> C 	 -64.9991 	 41.4319 	 133.973
| 14> H 	 -65.2435 	 42.4251 	 133.515
| 15> H 	 -63.9344 	 41.5008 	 134.301
| 16> C 	 -65.9556 	 41.1464 	 135.072
| 17> H 	 -65.7831 	 41.9301 	 135.887
| 18> H 	 -66.9284 	 41.2773 	 134.697
| 19> C 	 -65.7184 	 39.7692 	 135.747
| 20> H 	 -66.3048 	 39.0416 	 135.176
| 21> H 	 -64.6448 	 39.5222 	 135.796
| 22> H 	 -65.9753 	 39.735 	 136.733
| 23> S 	 -63.0236 	 36.729 	 130.026
| 24> C 	 -61.6486 	 36.7948 	 128.977
| 25> C 	 -61.1449 	 38.0929 	 128.919
| 26> C 	 -61.8584 	 39.0802 	 129.674
| 27> C 	 -62.899 	 38.5001 	 130.38
| 28> H 	 -60.3681 	 38.4032 	 128.293
| 29> C 	 -61.506 	 40.5756 	 129.755
| 30> H 	 -60.4267 	 40.7626 	 129.938
| 31> H 	 -62.0217 	 41.0423 	 130.567
| 32> C 	 -61.8483 	 41.4533 	 128.594
| 33> H 	 -61.2279 	 41.1575 	 127.7
| 34> H 	 -61.5536 	 42.4573 	 128.835
| 35> C 	 -63.3593 	 41.1824 	 128.28
| 36> H 	 -63.5234 	 40.113 	 128.276
| 37> H 	 -63.58 	 41.6369 	 127.269
| 38> H 	 -63.97 	 41.6202 	 129.067
| 39> H 	 -67.1086 	 39.9257 	 132.608
| 40> H 	 -61.2354 	 36.0417 	 128.452
| 41> *
| 42>
| 43>                          ****END OF INPUT****

CARTESIAN COORDINATES (ANGSTROEM)
---------------------------------
  S    -65.650400   38.620900  131.041000
  C    -66.119500   39.744900  132.308000
  C    -64.972600   40.386300  132.822000
  C    -63.737300   39.914000  132.206000
  C    -63.997800   39.091900  131.155000
  H    -62.790900   40.184000  132.564000
  C    -64.999100   41.431900  133.973000
  H    -65.243500   42.425100  133.515000
  H    -63.934400   41.500800  134.301000
  C    -65.955600   41.146400  135.072000
  H    -65.783100   41.930100  135.887000
  H    -66.928400   41.277300  134.697000
  C    -65.718400   39.769200  135.747000
  H    -66.304800   39.041600  135.176000
  H    -64.644800   39.522200  135.796000
  H    -65.975300   39.735000  136.733000
  S    -63.023600   36.729000  130.026000
  C    -61.648600   36.794800  128.977000
  C    -61.144900   38.092900  128.919000
  C    -61.858400   39.080200  129.674000
  C    -62.899000   38.500100  130.380000
  H    -60.368100   38.403200  128.293000
  C    -61.506000   40.575600  129.755000
  H    -60.426700   40.762600  129.938000
  H    -62.021700   41.042300  130.567000
  C    -61.848300   41.453300  128.594000
  H    -61.227900   41.157500  127.700000
  H    -61.553600   42.457300  128.835000
  C    -63.359300   41.182400  128.280000
  H    -63.523400   40.113000  128.276000
  H    -63.580000   41.636900  127.269000
  H    -63.970000   41.620200  129.067000
  H    -67.108600   39.925700  132.608000
  H    -61.235400   36.041700  128.452000

 Total Charge           Charge          ....    0
 Multiplicity           Mult            ....    1
 Number of Electrons    NEL             ....  134
 Basis Dimension        Dim             ....  322

ORBITAL ENERGIES
----------------

  NO   OCC          E(Eh)            E(eV)
   0   2.0000     -88.970323     -2421.0056
   1   2.0000     -88.966059     -2420.8896
   2   2.0000     -10.330696      -281.1125
   3   2.0000     -10.327619      -281.0288
   4   2.0000     -10.314581      -280.6740
   5   2.0000     -10.313111      -280.6340
   6   2.0000     -10.307462      -280.4803
   7   2.0000     -10.306220      -280.4465
   8   2.0000     -10.297471      -280.2084
   9   2.0000     -10.291586      -280.0483
  10   2.0000     -10.291326      -280.0412
  11   2.0000     -10.287835      -279.9462
  12   2.0000     -10.287588      -279.9395
  13   2.0000     -10.283323      -279.8234
  14   2.0000     -10.272173      -279.5200
  15   2.0000     -10.270226      -279.4670
  16   2.0000      -8.085068      -220.0059
  17   2.0000      -8.080221      -219.8740
  18   2.0000      -6.043691      -164.4572
  19   2.0000      -6.039533      -164.3440
  20   2.0000      -6.038753      -164.3228
  21   2.0000      -6.035744      -164.2409
  22   2.0000      -6.034768      -164.2144
  23   2.0000      -6.031040      -164.1129
  24   2.0000      -1.006246       -27.3813
  25   2.0000      -0.981472       -26.7072
  26   2.0000      -0.914818       -24.8935
  27   2.0000      -0.913213       -24.8498
  28   2.0000      -0.866933       -23.5905
  29   2.0000      -0.849505       -23.1162
  30   2.0000      -0.840657       -22.8754
  31   2.0000      -0.810275       -22.0487
  32   2.0000      -0.783450       -21.3187
  33   2.0000      -0.775309       -21.0972
  34   2.0000      -0.709727       -19.3126
  35   2.0000      -0.700273       -19.0554
  36   2.0000      -0.694330       -18.8937
  37   2.0000      -0.661082       -17.9890
  38   2.0000      -0.646084       -17.5808
  39   2.0000      -0.612860       -16.6768
  40   2.0000      -0.600322       -16.3356
  41   2.0000      -0.575458       -15.6590
  42   2.0000      -0.556043       -15.1307
  43   2.0000      -0.551175       -14.9982
  44   2.0000      -0.548213       -14.9176
  45   2.0000      -0.536101       -14.5881
  46   2.0000      -0.519914       -14.1476
  47   2.0000      -0.511419       -13.9164
  48   2.0000      -0.502383       -13.6705
  49   2.0000      -0.499545       -13.5933
  50   2.0000      -0.487819       -13.2742
  51   2.0000      -0.477891       -13.0041
  52   2.0000      -0.468952       -12.7608
  53   2.0000      -0.465533       -12.6678
  54   2.0000      -0.460923       -12.5424
  55   2.0000      -0.450625       -12.2621
  56   2.0000      -0.446908       -12.1610
  57   2.0000      -0.439112       -11.9488
  58   2.0000      -0.432421       -11.7668
  59   2.0000      -0.422189       -11.4884
  60   2.0000      -0.416241       -11.3265
  61   2.0000      -0.409357       -11.1392
  62   2.0000      -0.405181       -11.0255
  63   2.0000      -0.350567        -9.5394
  64   2.0000      -0.332431        -9.0459
  65   2.0000      -0.328631        -8.9425
  66   2.0000      -0.291412        -7.9297
  67   0.0000       0.026738         0.7276
  68   0.0000       0.070968         1.9311
  69   0.0000       0.106531         2.8988
  70   0.0000       0.117979         3.2104
  71   0.0000       0.130787         3.5589

MULLIKEN ATOMIC CHARGES
-----------------------
   0 S :    0.122261
   1 C :   -0.118956
   2 C :   -0.113410
   3 C :    0.028687
   4 C :   -0.114081
   5 H :    0.008025
   6 C :    0.067009
   7 H :    0.047141
   8 H :    0.021037
   9 C :   -0.091822
  10 H :    0.037657
  11 H :    0.022200
  12 C :   -0.007301
  13 H :    0.038683
  14 H :    0.027089
  15 H :    0.009581
  16 S :    0.096909
  17 C :   -0.031044
  18 C :   -0.004661
  19 C :   -0.056954
  20 C :   -0.176099
  21 H :   -0.006557
  22 C :    0.071363
  23 H :    0.030806
  24 H :    0.001788
  25 C :   -0.077729
  26 H :    0.025377
  27 H :    0.028701
  28 C :   -0.063890
  29 H :    0.052925
  30 H :    0.040261
  31 H :    0.037778
  32 H :    0.032355
  33 H :    0.014871
Sum of atomic charges:   -0.0000000

LOEWDIN ATOMIC CHARGES
----------------------
   0 S :    0.418777
   1 C :   -0.198425
   2 C :   -0.051127
   3 C :   -0.057470
   4 C :   -0.201798
   5 H :    0.023553
   6 C :   -0.037105
   7 H :    0.038936
   8 H :    0.028856
   9 C :   -0.044217
  10 H :    0.033954
  11 H :    0.015283
  12 C :   -0.057337
  13 H :    0.029364
  14 H :    0.030935
  15 H :    0.011030
  16 S :    0.386517
  17 C :   -0.169277
  18 C :   -0.060344
  19 C :   -0.054899
  20 C :   -0.172691
  21 H :    0.019884
  22 C :   -0.035246
  23 H :    0.033767
  24 H :    0.024187
  25 C :   -0.039946
  26 H :    0.020804
  27 H :    0.020995
  28 C :   -0.064043
  29 H :    0.027607
  30 H :    0.029002
  31 H :    0.025501
  32 H :    0.016489
  33 H :    0.008484

  Mayer bond orders larger than 0.100000
B(  0-S ,  1-C ) :   1.1265 B(  0-S ,  4-C ) :   1.1581 B(  1-C ,  2-C ) :   1.6011
B(  1-C , 32-H ) :   0.9788 B(  2-C ,  3-C ) :   1.2454 B(  2-C ,  6-C ) :   0.9998
B(  3-C ,  4-C ) :   1.5554 B(  3-C ,  5-H ) :   0.9971 B(  4-C , 20-C ) :   1.0398
B(  6-C ,  7-H ) :   0.9353 B(  6-C ,  8-H ) :   0.9447 B(  6-C ,  9-C ) :   1.0901
B(  9-C , 10-H ) :   0.9547 B(  9-C , 11-H ) :   0.9535 B(  9-C , 12-C ) :   1.0720
B( 12-C , 13-H ) :   0.9724 B( 12-C , 14-H ) :   0.9759 B( 12-C , 15-H ) :   0.9754
B( 16-S , 17-C ) :   1.1496 B( 16-S , 20-C ) :   1.1302 B( 17-C , 18-C ) :   1.5950
B( 17-C , 33-H ) :   0.9832 B( 18-C , 19-C ) :   1.2511 B( 18-C , 21-H ) :   0.9925
B( 19-C , 20-C ) :   1.5999 B( 19-C , 22-C ) :   1.0361 B( 22-C , 23-H ) :   0.9337
B( 22-C , 24-H ) :   0.9308 B( 22-C , 25-C ) :   1.0817 B( 25-C , 26-H ) :   0.9560
B( 25-C , 27-H ) :   0.9564 B( 25-C , 28-C ) :   1.0617 B( 28-C , 29-H ) :   0.9732
B( 28-C , 30-H ) :   0.9756 B( 28-C , 31-H ) :   0.9752

Dispersion correction           -0.015625006
FINAL SINGLE POINT ENERGY     -1339.869615310468

DIPOLE MOMENT
-------------
                                X             Y             Z
Electronic contribution:     -0.91218     -19.54110      -8.82491
Nuclear contribution   :      1.12108      20.08230       9.08129
                        -----------------------------------------
Total Dipole Moment    :      0.20890       0.54120       0.25638
                        -----------------------------------------
Magnitude (a.u.)       :      0.63425
Magnitude (Debye)      :      1.61212

Rotational constants in cm-1:     0.022532     0.008473     0.007263
Rotational constants in MHz :   675.497851   254.000646   217.747774

                             ****ORCA TERMINATED NORMALLY****
TOTAL RUN TIME: 0 days 0 hours 0 minutes 37 seconds 663 msec
