                         Program Version 4.2.1 -  RELEASE  -
|  1> ! wB97X-D3 SP def2-SVP
|  2> %pal
|  3> nprocs 16
|  4> end
|  5>
|  6> * xyz 0 1
|  7> S 	 -95.9033 	 61.5749 	 125.167
|  8> C 	 -95.5673 	 60.0794 	 124.321
|  9> C 	 -94.2703 	 59.6173 	 124.457
| 10> C 	 -93.5684 	 60.5827 	 125.32
| 11> C 	 -94.2488 	 61.7118 	 125.715
| 12> H 	 -92.5708 	 60.399 	 125.57
| 13> C 	 -93.658 	 58.2489 	 123.996
| 14> H 	 -92.689 	 58.3441 	 123.445
| 15> H 	 -94.3883 	 57.8167 	 123.342
| 16> C 	 -93.446 	 57.3615 	 125.201
| 17> H 	 -92.7744 	 57.9305 	 125.855
| 18> H 	 -94.3477 	 57.2813 	 125.707
| 19> C 	 -92.7745 	 56.028 	 124.899
| 20> H 	 -91.7095 	 56.148 	 124.696
| 21> H 	 -92.9987 	 55.4761 	 125.786
| 22> H 	 -93.2217 	 55.6517 	 124.018
| 23> S 	 -95.0864 	 63.5505 	 127.63
| 24> C 	 -93.8479 	 64.4347 	 128.538
| 25> C 	 -92.5946 	 64.2194 	 128.061
| 26> C 	 -92.5218 	 63.0617 	 127.214
| 27> C 	 -93.7988 	 62.6586 	 126.784
| 28> H 	 -91.7443 	 64.7305 	 128.495
| 29> C 	 -91.2174 	 62.497 	 126.744
| 30> H 	 -91.269 	 62.417 	 125.618
| 31> H 	 -91.3333 	 61.4608 	 127.041
| 32> C 	 -89.8711 	 62.9974 	 127.31
| 33> H 	 -89.8236 	 62.9717 	 128.413
| 34> H 	 -89.7761 	 64.0723 	 127.064
| 35> C 	 -88.661 	 62.167 	 126.834
| 36> H 	 -88.5809 	 61.2638 	 127.413
| 37> H 	 -87.7541 	 62.7475 	 126.892
| 38> H 	 -88.6851 	 61.72 	 125.809
| 39> H 	 -96.3894 	 59.4755 	 123.938
| 40> H 	 -94.1437 	 65.1177 	 129.332
| 41> *
| 42>
| 43>                          ****END OF INPUT****

CARTESIAN COORDINATES (ANGSTROEM)
---------------------------------
  S    -95.903300   61.574900  125.167000
  C    -95.567300   60.079400  124.321000
  C    -94.270300   59.617300  124.457000
  C    -93.568400   60.582700  125.320000
  C    -94.248800   61.711800  125.715000
  H    -92.570800   60.399000  125.570000
  C    -93.658000   58.248900  123.996000
  H    -92.689000   58.344100  123.445000
  H    -94.388300   57.816700  123.342000
  C    -93.446000   57.361500  125.201000
  H    -92.774400   57.930500  125.855000
  H    -94.347700   57.281300  125.707000
  C    -92.774500   56.028000  124.899000
  H    -91.709500   56.148000  124.696000
  H    -92.998700   55.476100  125.786000
  H    -93.221700   55.651700  124.018000
  S    -95.086400   63.550500  127.630000
  C    -93.847900   64.434700  128.538000
  C    -92.594600   64.219400  128.061000
  C    -92.521800   63.061700  127.214000
  C    -93.798800   62.658600  126.784000
  H    -91.744300   64.730500  128.495000
  C    -91.217400   62.497000  126.744000
  H    -91.269000   62.417000  125.618000
  H    -91.333300   61.460800  127.041000
  C    -89.871100   62.997400  127.310000
  H    -89.823600   62.971700  128.413000
  H    -89.776100   64.072300  127.064000
  C    -88.661000   62.167000  126.834000
  H    -88.580900   61.263800  127.413000
  H    -87.754100   62.747500  126.892000
  H    -88.685100   61.720000  125.809000
  H    -96.389400   59.475500  123.938000
  H    -94.143700   65.117700  129.332000

 Total Charge           Charge          ....    0
 Multiplicity           Mult            ....    1
 Number of Electrons    NEL             ....  134
 Basis Dimension        Dim             ....  322

ORBITAL ENERGIES
----------------

  NO   OCC          E(Eh)            E(eV)
   0   2.0000     -88.965699     -2420.8798
   1   2.0000     -88.963352     -2420.8159
   2   2.0000     -10.332873      -281.1718
   3   2.0000     -10.332348      -281.1575
   4   2.0000     -10.317340      -280.7491
   5   2.0000     -10.316064      -280.7144
   6   2.0000     -10.308239      -280.5014
   7   2.0000     -10.307335      -280.4768
   8   2.0000     -10.299322      -280.2588
   9   2.0000     -10.299042      -280.2512
  10   2.0000     -10.297277      -280.2031
  11   2.0000     -10.293370      -280.0968
  12   2.0000     -10.290434      -280.0169
  13   2.0000     -10.283306      -279.8230
  14   2.0000     -10.278083      -279.6809
  15   2.0000     -10.274693      -279.5886
  16   2.0000      -8.080516      -219.8820
  17   2.0000      -8.077587      -219.8023
  18   2.0000      -6.039195      -164.3348
  19   2.0000      -6.036102      -164.2507
  20   2.0000      -6.035109      -164.2237
  21   2.0000      -6.032376      -164.1493
  22   2.0000      -6.031010      -164.1121
  23   2.0000      -6.028179      -164.0351
  24   2.0000      -1.001616       -27.2553
  25   2.0000      -0.980449       -26.6794
  26   2.0000      -0.917784       -24.9742
  27   2.0000      -0.909124       -24.7385
  28   2.0000      -0.867702       -23.6114
  29   2.0000      -0.854364       -23.2484
  30   2.0000      -0.842892       -22.9363
  31   2.0000      -0.815241       -22.1838
  32   2.0000      -0.785068       -21.3628
  33   2.0000      -0.773819       -21.0567
  34   2.0000      -0.713166       -19.4062
  35   2.0000      -0.700744       -19.0682
  36   2.0000      -0.691010       -18.8033
  37   2.0000      -0.655479       -17.8365
  38   2.0000      -0.637551       -17.3486
  39   2.0000      -0.625133       -17.0107
  40   2.0000      -0.598087       -16.2748
  41   2.0000      -0.577801       -15.7228
  42   2.0000      -0.566811       -15.4237
  43   2.0000      -0.560137       -15.2421
  44   2.0000      -0.535994       -14.5851
  45   2.0000      -0.530705       -14.4412
  46   2.0000      -0.514610       -14.0033
  47   2.0000      -0.513757       -13.9800
  48   2.0000      -0.502068       -13.6620
  49   2.0000      -0.494981       -13.4691
  50   2.0000      -0.487838       -13.2747
  51   2.0000      -0.481455       -13.1011
  52   2.0000      -0.476800       -12.9744
  53   2.0000      -0.462392       -12.5823
  54   2.0000      -0.457952       -12.4615
  55   2.0000      -0.452126       -12.3030
  56   2.0000      -0.450104       -12.2480
  57   2.0000      -0.442631       -12.0446
  58   2.0000      -0.431016       -11.7285
  59   2.0000      -0.430219       -11.7069
  60   2.0000      -0.421017       -11.4565
  61   2.0000      -0.419559       -11.4168
  62   2.0000      -0.413261       -11.2454
  63   2.0000      -0.359222        -9.7749
  64   2.0000      -0.332055        -9.0357
  65   2.0000      -0.325673        -8.8620
  66   2.0000      -0.281137        -7.6501
  67   0.0000       0.024061         0.6547
  68   0.0000       0.077969         2.1216
  69   0.0000       0.100862         2.7446
  70   0.0000       0.122948         3.3456
  71   0.0000       0.133003         3.6192

MULLIKEN ATOMIC CHARGES
-----------------------
   0 S :    0.089524
   1 C :   -0.135148
   2 C :   -0.083558
   3 C :   -0.027195
   4 C :   -0.064045
   5 H :   -0.023059
   6 C :    0.080485
   7 H :    0.038036
   8 H :    0.013326
   9 C :   -0.105427
  10 H :    0.021116
  11 H :    0.016913
  12 C :    0.016307
  13 H :    0.033920
  14 H :    0.039426
  15 H :    0.017332
  16 S :    0.080940
  17 C :   -0.092886
  18 C :   -0.015671
  19 C :   -0.073610
  20 C :   -0.128700
  21 H :    0.024059
  22 C :   -0.000537
  23 H :    0.055357
  24 H :    0.043081
  25 C :   -0.069190
  26 H :    0.040167
  27 H :    0.039822
  28 C :   -0.042171
  29 H :    0.028423
  30 H :    0.037611
  31 H :    0.030552
  32 H :    0.053553
  33 H :    0.061251
Sum of atomic charges:   -0.0000000

LOEWDIN ATOMIC CHARGES
----------------------
   0 S :    0.395197
   1 C :   -0.196344
   2 C :   -0.054992
   3 C :   -0.064785
   4 C :   -0.190887
   5 H :    0.011242
   6 C :   -0.025079
   7 H :    0.034909
   8 H :    0.023235
   9 C :   -0.038332
  10 H :    0.023149
  11 H :    0.015432
  12 C :   -0.053639
  13 H :    0.027855
  14 H :    0.030720
  15 H :    0.018381
  16 S :    0.372767
  17 C :   -0.170162
  18 C :   -0.072584
  19 C :   -0.053389
  20 C :   -0.181429
  21 H :    0.033170
  22 C :   -0.046115
  23 H :    0.042527
  24 H :    0.033915
  25 C :   -0.042879
  26 H :    0.030596
  27 H :    0.025320
  28 C :   -0.066591
  29 H :    0.024126
  30 H :    0.027894
  31 H :    0.029901
  32 H :    0.027941
  33 H :    0.028931

  Mayer bond orders larger than 0.100000
B(  0-S ,  1-C ) :   1.1421 B(  0-S ,  4-C ) :   1.1247 B(  1-C ,  2-C ) :   1.6363
B(  1-C , 32-H ) :   0.9583 B(  2-C ,  3-C ) :   1.2293 B(  2-C ,  6-C ) :   1.0251
B(  3-C ,  4-C ) :   1.5784 B(  3-C ,  5-H ) :   0.9917 B(  4-C , 20-C ) :   1.0691
B(  6-C ,  7-H ) :   0.9411 B(  6-C ,  8-H ) :   0.9358 B(  6-C ,  9-C ) :   1.0681
B(  9-C , 10-H ) :   0.9555 B(  9-C , 11-H ) :   0.9568 B(  9-C , 12-C ) :   1.0750
B( 12-C , 13-H ) :   0.9730 B( 12-C , 14-H ) :   0.9735 B( 12-C , 15-H ) :   0.9745
B( 16-S , 17-C ) :   1.1442 B( 16-S , 20-C ) :   1.1231 B( 17-C , 18-C ) :   1.6210
B( 17-C , 33-H ) :   0.9659 B( 18-C , 19-C ) :   1.2484 B( 18-C , 21-H ) :   0.9789
B( 19-C , 20-C ) :   1.5937 B( 19-C , 22-C ) :   1.0361 B( 22-C , 23-H ) :   0.9255
B( 22-C , 24-H ) :   0.9228 B( 22-C , 25-C ) :   1.0695 B( 25-C , 26-H ) :   0.9527
B( 25-C , 27-H ) :   0.9506 B( 25-C , 28-C ) :   1.0718 B( 28-C , 29-H ) :   0.9755
B( 28-C , 30-H ) :   0.9747 B( 28-C , 31-H ) :   0.9768

Dispersion correction           -0.013283509
FINAL SINGLE POINT ENERGY     -1339.870135890217

DIPOLE MOMENT
-------------
                                X             Y             Z
Electronic contribution:    -25.83535      18.97365       2.64903
Nuclear contribution   :     26.55278     -19.46330      -2.48774
                        -----------------------------------------
Total Dipole Moment    :      0.71743      -0.48965       0.16129
                        -----------------------------------------
Magnitude (a.u.)       :      0.88344
Magnitude (Debye)      :      2.24554

Rotational constants in cm-1:     0.015518     0.008993     0.006100
Rotational constants in MHz :   465.226502   269.598001   182.868300

                             ****ORCA TERMINATED NORMALLY****
TOTAL RUN TIME: 0 days 0 hours 0 minutes 34 seconds 74 msec
