                         Program Version 4.2.1 -  RELEASE  -
|  1> ! wB97X-D3 SP def2-SVP
|  2> %pal
|  3> nprocs 16
|  4> end
|  5>
|  6> * xyz 0 1
|  7> S 	 45.5153 	 4.21347 	 85.9014
|  8> C 	 45.5091 	 4.481 	 84.16
|  9> C 	 46.6589 	 5.20519 	 83.7745
| 10> C 	 47.4497 	 5.56011 	 84.9054
| 11> C 	 47.1166 	 4.93143 	 86.1063
| 12> H 	 48.3957 	 6.12642 	 84.7886
| 13> C 	 46.9201 	 5.80227 	 82.375
| 14> H 	 46.5525 	 5.14688 	 81.5318
| 15> H 	 47.9608 	 5.91107 	 82.2118
| 16> C 	 46.2237 	 7.18608 	 82.2226
| 17> H 	 45.1087 	 7.15415 	 82.178
| 18> H 	 46.4274 	 7.6979 	 83.1734
| 19> C 	 46.602 	 7.93112 	 80.9232
| 20> H 	 45.9085 	 8.6929 	 80.7936
| 21> H 	 47.5851 	 8.33818 	 81.0439
| 22> H 	 46.6418 	 7.38135 	 79.9784
| 23> S 	 46.8612 	 4.63348 	 88.8765
| 24> C 	 48.3095 	 4.80777 	 89.8873
| 25> C 	 49.4333 	 4.74036 	 89.0526
| 26> C 	 49.1981 	 4.86447 	 87.6642
| 27> C 	 47.8544 	 4.89664 	 87.3722
| 28> H 	 50.3863 	 4.49795 	 89.6159
| 29> C 	 50.3675 	 4.74713 	 86.706
| 30> H 	 51.2824 	 4.97508 	 87.2239
| 31> H 	 50.2434 	 5.50936 	 85.9589
| 32> C 	 50.6077 	 3.46531 	 85.9798
| 33> H 	 49.7864 	 3.24563 	 85.3745
| 34> H 	 50.542 	 2.63988 	 86.7311
| 35> C 	 51.8674 	 3.59761 	 85.0801
| 36> H 	 52.6177 	 4.23111 	 85.515
| 37> H 	 51.707 	 4.05716 	 84.0845
| 38> H 	 52.3921 	 2.62794 	 84.8803
| 39> H 	 44.6165 	 4.31356 	 83.6223
| 40> H 	 48.3349 	 4.54012 	 90.9383
| 41> *
| 42>
| 43>                          ****END OF INPUT****

CARTESIAN COORDINATES (ANGSTROEM)
---------------------------------
  S     45.515300    4.213470   85.901400
  C     45.509100    4.481000   84.160000
  C     46.658900    5.205190   83.774500
  C     47.449700    5.560110   84.905400
  C     47.116600    4.931430   86.106300
  H     48.395700    6.126420   84.788600
  C     46.920100    5.802270   82.375000
  H     46.552500    5.146880   81.531800
  H     47.960800    5.911070   82.211800
  C     46.223700    7.186080   82.222600
  H     45.108700    7.154150   82.178000
  H     46.427400    7.697900   83.173400
  C     46.602000    7.931120   80.923200
  H     45.908500    8.692900   80.793600
  H     47.585100    8.338180   81.043900
  H     46.641800    7.381350   79.978400
  S     46.861200    4.633480   88.876500
  C     48.309500    4.807770   89.887300
  C     49.433300    4.740360   89.052600
  C     49.198100    4.864470   87.664200
  C     47.854400    4.896640   87.372200
  H     50.386300    4.497950   89.615900
  C     50.367500    4.747130   86.706000
  H     51.282400    4.975080   87.223900
  H     50.243400    5.509360   85.958900
  C     50.607700    3.465310   85.979800
  H     49.786400    3.245630   85.374500
  H     50.542000    2.639880   86.731100
  C     51.867400    3.597610   85.080100
  H     52.617700    4.231110   85.515000
  H     51.707000    4.057160   84.084500
  H     52.392100    2.627940   84.880300
  H     44.616500    4.313560   83.622300
  H     48.334900    4.540120   90.938300

 Total Charge           Charge          ....    0
 Multiplicity           Mult            ....    1
 Number of Electrons    NEL             ....  134
 Basis Dimension        Dim             ....  322

ORBITAL ENERGIES
----------------

  NO   OCC          E(Eh)            E(eV)
   0   2.0000     -88.967159     -2420.9195
   1   2.0000     -88.966420     -2420.8994
   2   2.0000     -10.338335      -281.3204
   3   2.0000     -10.337581      -281.2999
   4   2.0000     -10.322072      -280.8779
   5   2.0000     -10.317493      -280.7533
   6   2.0000     -10.309319      -280.5308
   7   2.0000     -10.307650      -280.4854
   8   2.0000     -10.301871      -280.3282
   9   2.0000     -10.299637      -280.2674
  10   2.0000     -10.297881      -280.2196
  11   2.0000     -10.291511      -280.0462
  12   2.0000     -10.287242      -279.9301
  13   2.0000     -10.284588      -279.8579
  14   2.0000     -10.283054      -279.8161
  15   2.0000     -10.272958      -279.5414
  16   2.0000      -8.081424      -219.9067
  17   2.0000      -8.079862      -219.8642
  18   2.0000      -6.039987      -164.3564
  19   2.0000      -6.038543      -164.3171
  20   2.0000      -6.035986      -164.2475
  21   2.0000      -6.034758      -164.2141
  22   2.0000      -6.032173      -164.1438
  23   2.0000      -6.030314      -164.0932
  24   2.0000      -1.002231       -27.2721
  25   2.0000      -0.980105       -26.6700
  26   2.0000      -0.915257       -24.9054
  27   2.0000      -0.906626       -24.6705
  28   2.0000      -0.866442       -23.5771
  29   2.0000      -0.852451       -23.1964
  30   2.0000      -0.843580       -22.9550
  31   2.0000      -0.811354       -22.0781
  32   2.0000      -0.782879       -21.3032
  33   2.0000      -0.774748       -21.0820
  34   2.0000      -0.713287       -19.4095
  35   2.0000      -0.700519       -19.0621
  36   2.0000      -0.697563       -18.9817
  37   2.0000      -0.662553       -18.0290
  38   2.0000      -0.642632       -17.4869
  39   2.0000      -0.621746       -16.9186
  40   2.0000      -0.598043       -16.2736
  41   2.0000      -0.568519       -15.4702
  42   2.0000      -0.564097       -15.3498
  43   2.0000      -0.554475       -15.0880
  44   2.0000      -0.525745       -14.3062
  45   2.0000      -0.518925       -14.1207
  46   2.0000      -0.517733       -14.0882
  47   2.0000      -0.516169       -14.0457
  48   2.0000      -0.507493       -13.8096
  49   2.0000      -0.498706       -13.5705
  50   2.0000      -0.491199       -13.3662
  51   2.0000      -0.482776       -13.1370
  52   2.0000      -0.472274       -12.8512
  53   2.0000      -0.463434       -12.6107
  54   2.0000      -0.461336       -12.5536
  55   2.0000      -0.445841       -12.1320
  56   2.0000      -0.445104       -12.1119
  57   2.0000      -0.441887       -12.0244
  58   2.0000      -0.437809       -11.9134
  59   2.0000      -0.427802       -11.6411
  60   2.0000      -0.420836       -11.4515
  61   2.0000      -0.413183       -11.2433
  62   2.0000      -0.406056       -11.0493
  63   2.0000      -0.356492        -9.7006
  64   2.0000      -0.335163        -9.1203
  65   2.0000      -0.328903        -8.9499
  66   2.0000      -0.283518        -7.7149
  67   0.0000       0.010361         0.2819
  68   0.0000       0.069582         1.8934
  69   0.0000       0.093448         2.5429
  70   0.0000       0.117535         3.1983
  71   0.0000       0.132591         3.6080

MULLIKEN ATOMIC CHARGES
-----------------------
   0 S :    0.093639
   1 C :   -0.103718
   2 C :   -0.095467
   3 C :   -0.001935
   4 C :   -0.122519
   5 H :    0.025836
   6 C :    0.064882
   7 H :    0.035604
   8 H :    0.015486
   9 C :   -0.112114
  10 H :    0.031242
  11 H :    0.035517
  12 C :   -0.008445
  13 H :    0.021395
  14 H :    0.023665
  15 H :    0.031633
  16 S :    0.075420
  17 C :   -0.089143
  18 C :   -0.083286
  19 C :   -0.021051
  20 C :   -0.129857
  21 H :    0.046314
  22 C :    0.063533
  23 H :    0.011855
  24 H :    0.007910
  25 C :   -0.015250
  26 H :    0.018761
  27 H :    0.028756
  28 C :   -0.065843
  29 H :    0.019907
  30 H :    0.039060
  31 H :    0.042772
  32 H :    0.046825
  33 H :    0.068613
Sum of atomic charges:   -0.0000000

LOEWDIN ATOMIC CHARGES
----------------------
   0 S :    0.395434
   1 C :   -0.185175
   2 C :   -0.060253
   3 C :   -0.075580
   4 C :   -0.184834
   5 H :    0.033232
   6 C :   -0.030455
   7 H :    0.036146
   8 H :    0.021584
   9 C :   -0.041748
  10 H :    0.026072
  11 H :    0.026947
  12 C :   -0.062005
  13 H :    0.019112
  14 H :    0.022001
  15 H :    0.028855
  16 S :    0.362756
  17 C :   -0.182279
  18 C :   -0.074026
  19 C :   -0.058817
  20 C :   -0.163443
  21 H :    0.043598
  22 C :   -0.028588
  23 H :    0.027025
  24 H :    0.024542
  25 C :   -0.036776
  26 H :    0.019231
  27 H :    0.029673
  28 C :   -0.069066
  29 H :    0.019245
  30 H :    0.031358
  31 H :    0.034042
  32 H :    0.020235
  33 H :    0.031956

  Mayer bond orders larger than 0.100000
B(  0-S ,  1-C ) :   1.1476 B(  0-S ,  4-C ) :   1.1493 B(  1-C ,  2-C ) :   1.5663
B(  1-C ,  4-C ) :   0.1094 B(  1-C , 32-H ) :   0.9779 B(  2-C ,  3-C ) :   1.2793
B(  2-C ,  6-C ) :   1.0358 B(  3-C ,  4-C ) :   1.5405 B(  3-C ,  5-H ) :   0.9799
B(  4-C , 20-C ) :   1.0895 B(  6-C ,  7-H ) :   0.9438 B(  6-C ,  8-H ) :   0.9434
B(  6-C ,  9-C ) :   1.0507 B(  9-C , 10-H ) :   0.9629 B(  9-C , 11-H ) :   0.9588
B(  9-C , 12-C ) :   1.0690 B( 12-C , 13-H ) :   0.9757 B( 12-C , 14-H ) :   0.9748
B( 12-C , 15-H ) :   0.9747 B( 16-S , 17-C ) :   1.1406 B( 16-S , 20-C ) :   1.1221
B( 17-C , 18-C ) :   1.6239 B( 17-C , 20-C ) :   0.1075 B( 17-C , 33-H ) :   0.9622
B( 18-C , 19-C ) :   1.2404 B( 18-C , 21-H ) :   0.9749 B( 19-C , 20-C ) :   1.5885
B( 19-C , 22-C ) :   1.0415 B( 22-C , 23-H ) :   0.9299 B( 22-C , 24-H ) :   0.9256
B( 22-C , 25-C ) :   1.0741 B( 25-C , 26-H ) :   0.9501 B( 25-C , 27-H ) :   0.9545
B( 25-C , 28-C ) :   1.0604 B( 28-C , 29-H ) :   0.9774 B( 28-C , 30-H ) :   0.9746
B( 28-C , 31-H ) :   0.9754

Dispersion correction           -0.013914167
FINAL SINGLE POINT ENERGY     -1339.863539114330

DIPOLE MOMENT
-------------
                                X             Y             Z
Electronic contribution:    -16.54546      -6.83408      23.99783
Nuclear contribution   :     17.07342       6.89703     -24.45879
                        -----------------------------------------
Total Dipole Moment    :      0.52795       0.06296      -0.46096
                        -----------------------------------------
Magnitude (a.u.)       :      0.70369
Magnitude (Debye)      :      1.78865

Rotational constants in cm-1:     0.017994     0.008349     0.006454
Rotational constants in MHz :   539.451776   250.304127   193.476000

                             ****ORCA TERMINATED NORMALLY****
TOTAL RUN TIME: 0 days 0 hours 0 minutes 28 seconds 160 msec
