                         Program Version 4.2.1 -  RELEASE  -
|  1> ! wB97X-D3 SP def2-SVP
|  2> %pal
|  3> nprocs 16
|  4> end
|  5>
|  6> * xyz 0 1
|  7> S 	 -47.0599 	 50.4617 	 102.541
|  8> C 	 -46.5222 	 51.6365 	 103.684
|  9> C 	 -45.7655 	 51.1229 	 104.724
| 10> C 	 -45.6992 	 49.6948 	 104.64
| 11> C 	 -46.4841 	 49.1876 	 103.633
| 12> H 	 -45.0977 	 49.0163 	 105.311
| 13> C 	 -45.1731 	 51.9309 	 105.877
| 14> H 	 -45.8948 	 52.5489 	 106.451
| 15> H 	 -44.4098 	 52.5851 	 105.401
| 16> C 	 -44.5378 	 51.0813 	 107.012
| 17> H 	 -45.2808 	 50.3639 	 107.322
| 18> H 	 -43.67 	 50.5868 	 106.535
| 19> C 	 -44.0126 	 51.9554 	 108.161
| 20> H 	 -43.2931 	 52.6927 	 107.696
| 21> H 	 -44.8581 	 52.4245 	 108.573
| 22> H 	 -43.4795 	 51.4185 	 108.903
| 23> S 	 -45.0511 	 46.9913 	 102.821
| 24> C 	 -45.8163 	 45.465 	 102.639
| 25> C 	 -47.1568 	 45.5348 	 102.872
| 26> C 	 -47.6227 	 46.8739 	 103.157
| 27> C 	 -46.583 	 47.7796 	 103.25
| 28> H 	 -47.7497 	 44.6872 	 102.815
| 29> C 	 -49.0826 	 47.1579 	 103.452
| 30> H 	 -49.1581 	 48.099 	 103.947
| 31> H 	 -49.5415 	 46.3579 	 104.061
| 32> C 	 -49.9667 	 47.1903 	 102.262
| 33> H 	 -49.779 	 46.3179 	 101.686
| 34> H 	 -49.743 	 47.9812 	 101.563
| 35> C 	 -51.5013 	 47.3217 	 102.595
| 36> H 	 -51.7414 	 48.1034 	 103.302
| 37> H 	 -51.807 	 46.4493 	 103.172
| 38> H 	 -52.0716 	 47.3813 	 101.663
| 39> H 	 -46.7245 	 52.7136 	 103.527
| 40> H 	 -45.2178 	 44.5368 	 102.496
| 41> *
| 42>
| 43>                          ****END OF INPUT****

CARTESIAN COORDINATES (ANGSTROEM)
---------------------------------
  S    -47.059900   50.461700  102.541000
  C    -46.522200   51.636500  103.684000
  C    -45.765500   51.122900  104.724000
  C    -45.699200   49.694800  104.640000
  C    -46.484100   49.187600  103.633000
  H    -45.097700   49.016300  105.311000
  C    -45.173100   51.930900  105.877000
  H    -45.894800   52.548900  106.451000
  H    -44.409800   52.585100  105.401000
  C    -44.537800   51.081300  107.012000
  H    -45.280800   50.363900  107.322000
  H    -43.670000   50.586800  106.535000
  C    -44.012600   51.955400  108.161000
  H    -43.293100   52.692700  107.696000
  H    -44.858100   52.424500  108.573000
  H    -43.479500   51.418500  108.903000
  S    -45.051100   46.991300  102.821000
  C    -45.816300   45.465000  102.639000
  C    -47.156800   45.534800  102.872000
  C    -47.622700   46.873900  103.157000
  C    -46.583000   47.779600  103.250000
  H    -47.749700   44.687200  102.815000
  C    -49.082600   47.157900  103.452000
  H    -49.158100   48.099000  103.947000
  H    -49.541500   46.357900  104.061000
  C    -49.966700   47.190300  102.262000
  H    -49.779000   46.317900  101.686000
  H    -49.743000   47.981200  101.563000
  C    -51.501300   47.321700  102.595000
  H    -51.741400   48.103400  103.302000
  H    -51.807000   46.449300  103.172000
  H    -52.071600   47.381300  101.663000
  H    -46.724500   52.713600  103.527000
  H    -45.217800   44.536800  102.496000

 Total Charge           Charge          ....    0
 Multiplicity           Mult            ....    1
 Number of Electrons    NEL             ....  134
 Basis Dimension        Dim             ....  322

ORBITAL ENERGIES
----------------

  NO   OCC          E(Eh)            E(eV)
   0   2.0000     -88.967518     -2420.9292
   1   2.0000     -88.959830     -2420.7200
   2   2.0000     -10.327547      -281.0268
   3   2.0000     -10.324241      -280.9369
   4   2.0000     -10.315327      -280.6943
   5   2.0000     -10.313976      -280.6576
   6   2.0000     -10.303621      -280.3758
   7   2.0000     -10.303052      -280.3603
   8   2.0000     -10.299437      -280.2619
   9   2.0000     -10.297765      -280.2164
  10   2.0000     -10.287374      -279.9337
  11   2.0000     -10.287229      -279.9297
  12   2.0000     -10.284270      -279.8492
  13   2.0000     -10.278075      -279.6806
  14   2.0000     -10.277145      -279.6553
  15   2.0000     -10.275788      -279.6184
  16   2.0000      -8.082273      -219.9298
  17   2.0000      -8.075111      -219.7349
  18   2.0000      -6.040693      -164.3756
  19   2.0000      -6.036922      -164.2730
  20   2.0000      -6.033613      -164.1830
  21   2.0000      -6.032986      -164.1659
  22   2.0000      -6.029496      -164.0709
  23   2.0000      -6.025897      -163.9730
  24   2.0000      -1.005643       -27.3649
  25   2.0000      -0.984849       -26.7991
  26   2.0000      -0.912465       -24.8294
  27   2.0000      -0.910687       -24.7811
  28   2.0000      -0.869466       -23.6594
  29   2.0000      -0.850310       -23.1381
  30   2.0000      -0.844852       -22.9896
  31   2.0000      -0.812400       -22.1065
  32   2.0000      -0.782405       -21.2903
  33   2.0000      -0.769897       -20.9500
  34   2.0000      -0.708333       -19.2747
  35   2.0000      -0.697351       -18.9759
  36   2.0000      -0.681575       -18.5466
  37   2.0000      -0.663823       -18.0635
  38   2.0000      -0.635124       -17.2826
  39   2.0000      -0.619008       -16.8441
  40   2.0000      -0.601057       -16.3556
  41   2.0000      -0.580148       -15.7866
  42   2.0000      -0.569928       -15.5085
  43   2.0000      -0.559657       -15.2291
  44   2.0000      -0.523964       -14.2578
  45   2.0000      -0.521507       -14.1909
  46   2.0000      -0.514984       -14.0134
  47   2.0000      -0.506985       -13.7958
  48   2.0000      -0.501723       -13.6526
  49   2.0000      -0.500644       -13.6232
  50   2.0000      -0.491825       -13.3832
  51   2.0000      -0.477067       -12.9817
  52   2.0000      -0.467184       -12.7127
  53   2.0000      -0.465949       -12.6791
  54   2.0000      -0.459486       -12.5033
  55   2.0000      -0.454738       -12.3740
  56   2.0000      -0.446199       -12.1417
  57   2.0000      -0.439794       -11.9674
  58   2.0000      -0.435396       -11.8477
  59   2.0000      -0.427099       -11.6220
  60   2.0000      -0.419421       -11.4130
  61   2.0000      -0.413212       -11.2441
  62   2.0000      -0.410479       -11.1697
  63   2.0000      -0.338765        -9.2183
  64   2.0000      -0.331411        -9.0181
  65   2.0000      -0.326259        -8.8779
  66   2.0000      -0.300386        -8.1739
  67   0.0000       0.035865         0.9759
  68   0.0000       0.067477         1.8361
  69   0.0000       0.106981         2.9111
  70   0.0000       0.115817         3.1515
  71   0.0000       0.134615         3.6631

MULLIKEN ATOMIC CHARGES
-----------------------
   0 S :    0.123343
   1 C :   -0.136055
   2 C :   -0.065496
   3 C :   -0.016310
   4 C :   -0.146575
   5 H :    0.046025
   6 C :    0.025149
   7 H :    0.038324
   8 H :    0.043332
   9 C :   -0.133787
  10 H :    0.041529
  11 H :    0.035290
  12 C :    0.002711
  13 H :    0.034351
  14 H :    0.022426
  15 H :    0.032225
  16 S :    0.102798
  17 C :   -0.100011
  18 C :   -0.006849
  19 C :   -0.013360
  20 C :   -0.184682
  21 H :   -0.008628
  22 C :    0.090301
  23 H :    0.018249
  24 H :    0.020766
  25 C :   -0.072682
  26 H :    0.010580
  27 H :    0.017566
  28 C :   -0.040178
  29 H :    0.028203
  30 H :    0.016801
  31 H :    0.045970
  32 H :    0.055339
  33 H :    0.073334
Sum of atomic charges:   -0.0000000

LOEWDIN ATOMIC CHARGES
----------------------
   0 S :    0.409980
   1 C :   -0.202844
   2 C :   -0.069336
   3 C :   -0.064040
   4 C :   -0.196250
   5 H :    0.044418
   6 C :   -0.036178
   7 H :    0.032735
   8 H :    0.036060
   9 C :   -0.044801
  10 H :    0.021367
  11 H :    0.023450
  12 C :   -0.054918
  13 H :    0.034203
  14 H :    0.017604
  15 H :    0.022441
  16 S :    0.404157
  17 C :   -0.193732
  18 C :   -0.068389
  19 C :   -0.047157
  20 C :   -0.196394
  21 H :    0.019230
  22 C :   -0.030328
  23 H :    0.025968
  24 H :    0.034474
  25 C :   -0.038532
  26 H :    0.016579
  27 H :    0.019226
  28 C :   -0.064212
  29 H :    0.024017
  30 H :    0.021207
  31 H :    0.030485
  32 H :    0.031424
  33 H :    0.038085

  Mayer bond orders larger than 0.100000
B(  0-S ,  1-C ) :   1.1507 B(  0-S ,  4-C ) :   1.1482 B(  1-C ,  2-C ) :   1.6179
B(  1-C , 32-H ) :   0.9672 B(  2-C ,  3-C ) :   1.2500 B(  2-C ,  6-C ) :   0.9976
B(  3-C ,  4-C ) :   1.5713 B(  3-C ,  5-H ) :   0.9826 B(  4-C , 20-C ) :   1.0239
B(  6-C ,  7-H ) :   0.9514 B(  6-C ,  8-H ) :   0.9332 B(  6-C ,  9-C ) :   1.0842
B(  9-C , 10-H ) :   0.9540 B(  9-C , 11-H ) :   0.9482 B(  9-C , 12-C ) :   1.0816
B( 12-C , 13-H ) :   0.9735 B( 12-C , 14-H ) :   0.9740 B( 12-C , 15-H ) :   0.9728
B( 16-S , 17-C ) :   1.1604 B( 16-S , 20-C ) :   1.1347 B( 17-C , 18-C ) :   1.6129
B( 17-C , 33-H ) :   0.9607 B( 18-C , 19-C ) :   1.2176 B( 18-C , 21-H ) :   1.0040
B( 19-C , 20-C ) :   1.6137 B( 19-C , 22-C ) :   1.0559 B( 22-C , 23-H ) :   0.9264
B( 22-C , 24-H ) :   0.9362 B( 22-C , 25-C ) :   1.0695 B( 25-C , 26-H ) :   0.9555
B( 25-C , 27-H ) :   0.9482 B( 25-C , 28-C ) :   1.0788 B( 28-C , 29-H ) :   0.9752
B( 28-C , 30-H ) :   0.9728 B( 28-C , 31-H ) :   0.9755

Dispersion correction           -0.013567429
FINAL SINGLE POINT ENERGY     -1339.888145235848

DIPOLE MOMENT
-------------
                                X             Y             Z
Electronic contribution:      8.79238      -4.82572     -14.58635
Nuclear contribution   :     -8.86218       4.83411      14.99394
                        -----------------------------------------
Total Dipole Moment    :     -0.06980       0.00840       0.40759
                        -----------------------------------------
Magnitude (a.u.)       :      0.41361
Magnitude (Debye)      :      1.05131

Rotational constants in cm-1:     0.019400     0.007541     0.006437
Rotational constants in MHz :   581.611742   226.084225   192.970611

                             ****ORCA TERMINATED NORMALLY****
TOTAL RUN TIME: 0 days 0 hours 0 minutes 28 seconds 915 msec
