                         Program Version 4.2.1 -  RELEASE  -
|  1> ! wB97X-D3 SP def2-SVP
|  2> %pal
|  3> nprocs 16
|  4> end
|  5>
|  6> * xyz 0 1
|  7> S 	 -23.3475 	 50.7106 	 64.8292
|  8> C 	 -22.829 	 49.1168 	 64.2206
|  9> C 	 -22.3404 	 48.381 	 65.302
| 10> C 	 -22.3309 	 49.1865 	 66.4783
| 11> C 	 -22.7283 	 50.5167 	 66.4364
| 12> H 	 -21.9625 	 48.8099 	 67.4402
| 13> C 	 -21.7452 	 46.9578 	 65.3715
| 14> H 	 -20.6866 	 47.0088 	 65.6436
| 15> H 	 -21.7978 	 46.586 	 64.3309
| 16> C 	 -22.5514 	 45.9372 	 66.2204
| 17> H 	 -22.0241 	 44.9938 	 66.4254
| 18> H 	 -22.6427 	 46.3749 	 67.2615
| 19> C 	 -23.9602 	 45.6604 	 65.5455
| 20> H 	 -24.4998 	 46.5303 	 65.4733
| 21> H 	 -23.9264 	 45.3103 	 64.5186
| 22> H 	 -24.5153 	 44.9384 	 66.1493
| 23> S 	 -23.6568 	 52.9727 	 66.9713
| 24> C 	 -23.7529 	 53.601 	 68.6065
| 25> C 	 -23.1721 	 52.7161 	 69.4686
| 26> C 	 -22.5451 	 51.5252 	 68.8677
| 27> C 	 -22.8589 	 51.4741 	 67.4995
| 28> H 	 -23.0478 	 52.9499 	 70.5466
| 29> C 	 -21.6503 	 50.4316 	 69.5553
| 30> H 	 -20.9615 	 50.9245 	 70.2669
| 31> H 	 -21.0447 	 50.1604 	 68.697
| 32> C 	 -22.3929 	 49.2042 	 70.1153
| 33> H 	 -23.0812 	 48.7921 	 69.3734
| 34> H 	 -22.9794 	 49.4773 	 71.0081
| 35> C 	 -21.4076 	 48.0766 	 70.5274
| 36> H 	 -21.1197 	 47.6244 	 69.6111
| 37> H 	 -21.7411 	 47.2409 	 71.2252
| 38> H 	 -20.5081 	 48.5185 	 70.9766
| 39> H 	 -22.8694 	 48.8066 	 63.1982
| 40> H 	 -24.4013 	 54.4847 	 68.8656
| 41> *
| 42>
| 43>                          ****END OF INPUT****

CARTESIAN COORDINATES (ANGSTROEM)
---------------------------------
  S    -23.347500   50.710600   64.829200
  C    -22.829000   49.116800   64.220600
  C    -22.340400   48.381000   65.302000
  C    -22.330900   49.186500   66.478300
  C    -22.728300   50.516700   66.436400
  H    -21.962500   48.809900   67.440200
  C    -21.745200   46.957800   65.371500
  H    -20.686600   47.008800   65.643600
  H    -21.797800   46.586000   64.330900
  C    -22.551400   45.937200   66.220400
  H    -22.024100   44.993800   66.425400
  H    -22.642700   46.374900   67.261500
  C    -23.960200   45.660400   65.545500
  H    -24.499800   46.530300   65.473300
  H    -23.926400   45.310300   64.518600
  H    -24.515300   44.938400   66.149300
  S    -23.656800   52.972700   66.971300
  C    -23.752900   53.601000   68.606500
  C    -23.172100   52.716100   69.468600
  C    -22.545100   51.525200   68.867700
  C    -22.858900   51.474100   67.499500
  H    -23.047800   52.949900   70.546600
  C    -21.650300   50.431600   69.555300
  H    -20.961500   50.924500   70.266900
  H    -21.044700   50.160400   68.697000
  C    -22.392900   49.204200   70.115300
  H    -23.081200   48.792100   69.373400
  H    -22.979400   49.477300   71.008100
  C    -21.407600   48.076600   70.527400
  H    -21.119700   47.624400   69.611100
  H    -21.741100   47.240900   71.225200
  H    -20.508100   48.518500   70.976600
  H    -22.869400   48.806600   63.198200
  H    -24.401300   54.484700   68.865600

 Total Charge           Charge          ....    0
 Multiplicity           Mult            ....    1
 Number of Electrons    NEL             ....  134
 Basis Dimension        Dim             ....  322

ORBITAL ENERGIES
----------------

  NO   OCC          E(Eh)            E(eV)
   0   2.0000     -88.966122     -2420.8912
   1   2.0000     -88.963388     -2420.8168
   2   2.0000     -10.336244      -281.2635
   3   2.0000     -10.333467      -281.1879
   4   2.0000     -10.324676      -280.9487
   5   2.0000     -10.323427      -280.9147
   6   2.0000     -10.317458      -280.7523
   7   2.0000     -10.308388      -280.5055
   8   2.0000     -10.305323      -280.4221
   9   2.0000     -10.303569      -280.3744
  10   2.0000     -10.300821      -280.2996
  11   2.0000     -10.300008      -280.2775
  12   2.0000     -10.295090      -280.1436
  13   2.0000     -10.293040      -280.0879
  14   2.0000     -10.284741      -279.8620
  15   2.0000     -10.273910      -279.5673
  16   2.0000      -8.080491      -219.8813
  17   2.0000      -8.078182      -219.8185
  18   2.0000      -6.039255      -164.3365
  19   2.0000      -6.036864      -164.2714
  20   2.0000      -6.034921      -164.2185
  21   2.0000      -6.032710      -164.1584
  22   2.0000      -6.031084      -164.1141
  23   2.0000      -6.028724      -164.0499
  24   2.0000      -1.008448       -27.4413
  25   2.0000      -0.981492       -26.7078
  26   2.0000      -0.908613       -24.7246
  27   2.0000      -0.907367       -24.6907
  28   2.0000      -0.871755       -23.7217
  29   2.0000      -0.849780       -23.1237
  30   2.0000      -0.836055       -22.7502
  31   2.0000      -0.814156       -22.1543
  32   2.0000      -0.782965       -21.3056
  33   2.0000      -0.776032       -21.1169
  34   2.0000      -0.712386       -19.3850
  35   2.0000      -0.703330       -19.1386
  36   2.0000      -0.698593       -19.0097
  37   2.0000      -0.661976       -18.0133
  38   2.0000      -0.637930       -17.3589
  39   2.0000      -0.622913       -16.9503
  40   2.0000      -0.591636       -16.0992
  41   2.0000      -0.571065       -15.5395
  42   2.0000      -0.562434       -15.3046
  43   2.0000      -0.550748       -14.9866
  44   2.0000      -0.533051       -14.5051
  45   2.0000      -0.527494       -14.3539
  46   2.0000      -0.517036       -14.0693
  47   2.0000      -0.516239       -14.0476
  48   2.0000      -0.509026       -13.8513
  49   2.0000      -0.500607       -13.6222
  50   2.0000      -0.487888       -13.2761
  51   2.0000      -0.486125       -13.2281
  52   2.0000      -0.470181       -12.7943
  53   2.0000      -0.466149       -12.6846
  54   2.0000      -0.458738       -12.4829
  55   2.0000      -0.448904       -12.2153
  56   2.0000      -0.441795       -12.0219
  57   2.0000      -0.439443       -11.9579
  58   2.0000      -0.433355       -11.7922
  59   2.0000      -0.430477       -11.7139
  60   2.0000      -0.421687       -11.4747
  61   2.0000      -0.415234       -11.2991
  62   2.0000      -0.403923       -10.9913
  63   2.0000      -0.368288       -10.0216
  64   2.0000      -0.334981        -9.1153
  65   2.0000      -0.325608        -8.8602
  66   2.0000      -0.284820        -7.7503
  67   0.0000       0.011754         0.3198
  68   0.0000       0.089560         2.4371
  69   0.0000       0.090658         2.4669
  70   0.0000       0.114105         3.1050
  71   0.0000       0.122490         3.3331

MULLIKEN ATOMIC CHARGES
-----------------------
   0 S :    0.086197
   1 C :   -0.118557
   2 C :   -0.070299
   3 C :   -0.029665
   4 C :   -0.067683
   5 H :   -0.022826
   6 C :    0.055964
   7 H :    0.048823
   8 H :    0.017260
   9 C :   -0.090668
  10 H :    0.037680
  11 H :    0.034618
  12 C :   -0.035046
  13 H :    0.025814
  14 H :    0.026735
  15 H :    0.036504
  16 S :    0.071074
  17 C :   -0.096603
  18 C :   -0.034716
  19 C :   -0.076890
  20 C :   -0.128065
  21 H :    0.031618
  22 C :    0.029434
  23 H :    0.038741
  24 H :    0.032599
  25 C :   -0.061346
  26 H :    0.042814
  27 H :    0.035543
  28 C :   -0.054773
  29 H :    0.017297
  30 H :    0.053034
  31 H :    0.029773
  32 H :    0.046957
  33 H :    0.088657
Sum of atomic charges:   -0.0000000

LOEWDIN ATOMIC CHARGES
----------------------
   0 S :    0.397449
   1 C :   -0.180739
   2 C :   -0.064081
   3 C :   -0.077611
   4 C :   -0.199759
   5 H :    0.021477
   6 C :   -0.032381
   7 H :    0.034337
   8 H :    0.028815
   9 C :   -0.040682
  10 H :    0.025523
  11 H :    0.026021
  12 C :   -0.058352
  13 H :    0.015876
  14 H :    0.025695
  15 H :    0.028376
  16 S :    0.382526
  17 C :   -0.191562
  18 C :   -0.076736
  19 C :   -0.052542
  20 C :   -0.175246
  21 H :    0.036226
  22 C :   -0.030429
  23 H :    0.035444
  24 H :    0.030662
  25 C :   -0.042213
  26 H :    0.025742
  27 H :    0.027116
  28 C :   -0.070617
  29 H :    0.015046
  30 H :    0.036526
  31 H :    0.025013
  32 H :    0.027949
  33 H :    0.047133

  Mayer bond orders larger than 0.100000
B(  0-S ,  1-C ) :   1.1396 B(  0-S ,  4-C ) :   1.1347 B(  1-C ,  2-C ) :   1.5734
B(  1-C ,  4-C ) :   0.1013 B(  1-C , 32-H ) :   0.9750 B(  2-C ,  3-C ) :   1.2724
B(  2-C ,  6-C ) :   1.0135 B(  3-C ,  4-C ) :   1.5507 B(  3-C ,  5-H ) :   0.9820
B(  4-C , 20-C ) :   1.1094 B(  6-C ,  7-H ) :   0.9467 B(  6-C ,  8-H ) :   0.9439
B(  6-C ,  9-C ) :   1.0631 B(  9-C , 10-H ) :   0.9602 B(  9-C , 11-H ) :   0.9576
B(  9-C , 12-C ) :   1.0564 B( 12-C , 13-H ) :   0.9788 B( 12-C , 14-H ) :   0.9758
B( 12-C , 15-H ) :   0.9760 B( 16-S , 17-C ) :   1.1346 B( 16-S , 20-C ) :   1.1297
B( 17-C , 18-C ) :   1.6317 B( 17-C , 33-H ) :   0.9607 B( 18-C , 19-C ) :   1.2279
B( 18-C , 21-H ) :   0.9816 B( 19-C , 20-C ) :   1.5844 B( 19-C , 22-C ) :   1.0187
B( 22-C , 23-H ) :   0.9342 B( 22-C , 24-H ) :   0.9417 B( 22-C , 25-C ) :   1.0577
B( 25-C , 26-H ) :   0.9578 B( 25-C , 27-H ) :   0.9542 B( 25-C , 28-C ) :   1.0649
B( 28-C , 29-H ) :   0.9776 B( 28-C , 30-H ) :   0.9749 B( 28-C , 31-H ) :   0.9720

Dispersion correction           -0.014849880
FINAL SINGLE POINT ENERGY     -1339.871961729240

DIPOLE MOMENT
-------------
                                X             Y             Z
Electronic contribution:     -6.22977      28.20170     -12.37759
Nuclear contribution   :      6.43406     -28.73949      12.85248
                        -----------------------------------------
Total Dipole Moment    :      0.20429      -0.53779       0.47489
                        -----------------------------------------
Magnitude (a.u.)       :      0.74597
Magnitude (Debye)      :      1.89612

Rotational constants in cm-1:     0.017699     0.010093     0.006898
Rotational constants in MHz :   530.601972   302.581761   206.794442

                             ****ORCA TERMINATED NORMALLY****
TOTAL RUN TIME: 0 days 0 hours 0 minutes 34 seconds 429 msec
