                         Program Version 4.2.1 -  RELEASE  -
|  1> ! wB97X-D3 SP def2-SVP
|  2> %pal
|  3> nprocs 16
|  4> end
|  5>
|  6> * xyz 0 1
|  7> S 	 -78.3814 	 46.5078 	 121.141
|  8> C 	 -79.9596 	 47.0432 	 120.512
|  9> C 	 -80.982 	 46.3604 	 121.082
| 10> C 	 -80.4883 	 45.3558 	 122.019
| 11> C 	 -79.1383 	 45.4792 	 122.375
| 12> H 	 -81.2618 	 44.8526 	 122.667
| 13> C 	 -82.4442 	 46.5341 	 120.894
| 14> H 	 -82.8592 	 45.582 	 120.665
| 15> H 	 -82.5932 	 47.1044 	 119.98
| 16> C 	 -83.301 	 47.173 	 122.085
| 17> H 	 -84.3195 	 47.4354 	 121.69
| 18> H 	 -83.4599 	 46.42 	 122.904
| 19> C 	 -82.8329 	 48.5164 	 122.63
| 20> H 	 -83.5041 	 48.7386 	 123.457
| 21> H 	 -81.7837 	 48.4407 	 122.915
| 22> H 	 -82.9163 	 49.3368 	 121.901
| 23> S 	 -76.6142 	 45.3169 	 123.563
| 24> C 	 -76.2667 	 44.1193 	 124.787
| 25> C 	 -77.4524 	 43.5529 	 125.238
| 26> C 	 -78.6048 	 43.8508 	 124.415
| 27> C 	 -78.2929 	 44.8071 	 123.432
| 28> H 	 -77.4049 	 42.8239 	 125.981
| 29> C 	 -79.8201 	 43.0498 	 124.416
| 30> H 	 -80.2209 	 43.1977 	 123.368
| 31> H 	 -80.5824 	 43.6327 	 125.063
| 32> C 	 -79.6589 	 41.5584 	 124.68
| 33> H 	 -79.418 	 41.6447 	 125.699
| 34> H 	 -78.8082 	 41.2154 	 124.188
| 35> C 	 -80.8865 	 40.6302 	 124.418
| 36> H 	 -81.3833 	 40.735 	 123.442
| 37> H 	 -81.6774 	 40.8038 	 125.151
| 38> H 	 -80.5491 	 39.6097 	 124.379
| 39> H 	 -79.9755 	 47.7345 	 119.658
| 40> H 	 -75.3146 	 44.0843 	 125.289
| 41> *
| 42>
| 43>                          ****END OF INPUT****

CARTESIAN COORDINATES (ANGSTROEM)
---------------------------------
  S    -78.381400   46.507800  121.141000
  C    -79.959600   47.043200  120.512000
  C    -80.982000   46.360400  121.082000
  C    -80.488300   45.355800  122.019000
  C    -79.138300   45.479200  122.375000
  H    -81.261800   44.852600  122.667000
  C    -82.444200   46.534100  120.894000
  H    -82.859200   45.582000  120.665000
  H    -82.593200   47.104400  119.980000
  C    -83.301000   47.173000  122.085000
  H    -84.319500   47.435400  121.690000
  H    -83.459900   46.420000  122.904000
  C    -82.832900   48.516400  122.630000
  H    -83.504100   48.738600  123.457000
  H    -81.783700   48.440700  122.915000
  H    -82.916300   49.336800  121.901000
  S    -76.614200   45.316900  123.563000
  C    -76.266700   44.119300  124.787000
  C    -77.452400   43.552900  125.238000
  C    -78.604800   43.850800  124.415000
  C    -78.292900   44.807100  123.432000
  H    -77.404900   42.823900  125.981000
  C    -79.820100   43.049800  124.416000
  H    -80.220900   43.197700  123.368000
  H    -80.582400   43.632700  125.063000
  C    -79.658900   41.558400  124.680000
  H    -79.418000   41.644700  125.699000
  H    -78.808200   41.215400  124.188000
  C    -80.886500   40.630200  124.418000
  H    -81.383300   40.735000  123.442000
  H    -81.677400   40.803800  125.151000
  H    -80.549100   39.609700  124.379000
  H    -79.975500   47.734500  119.658000
  H    -75.314600   44.084300  125.289000

 Total Charge           Charge          ....    0
 Multiplicity           Mult            ....    1
 Number of Electrons    NEL             ....  134
 Basis Dimension        Dim             ....  322

ORBITAL ENERGIES
----------------

  NO   OCC          E(Eh)            E(eV)
   0   2.0000     -88.966303     -2420.8962
   1   2.0000     -88.961720     -2420.7715
   2   2.0000     -10.344021      -281.4751
   3   2.0000     -10.335826      -281.2521
   4   2.0000     -10.321256      -280.8556
   5   2.0000     -10.316645      -280.7302
   6   2.0000     -10.306613      -280.4572
   7   2.0000     -10.301074      -280.3065
   8   2.0000     -10.300466      -280.2899
   9   2.0000     -10.297970      -280.2220
  10   2.0000     -10.295872      -280.1649
  11   2.0000     -10.295235      -280.1476
  12   2.0000     -10.291980      -280.0590
  13   2.0000     -10.283784      -279.8360
  14   2.0000     -10.283005      -279.8148
  15   2.0000     -10.275370      -279.6070
  16   2.0000      -8.080975      -219.8945
  17   2.0000      -8.076012      -219.7594
  18   2.0000      -6.039504      -164.3433
  19   2.0000      -6.035471      -164.2335
  20   2.0000      -6.034782      -164.2148
  21   2.0000      -6.031740      -164.1320
  22   2.0000      -6.030640      -164.1021
  23   2.0000      -6.026462      -163.9884
  24   2.0000      -1.002426       -27.2774
  25   2.0000      -0.981990       -26.7213
  26   2.0000      -0.916561       -24.9409
  27   2.0000      -0.905565       -24.6417
  28   2.0000      -0.866216       -23.5709
  29   2.0000      -0.853373       -23.2215
  30   2.0000      -0.840743       -22.8778
  31   2.0000      -0.815245       -22.1840
  32   2.0000      -0.783490       -21.3198
  33   2.0000      -0.775622       -21.1057
  34   2.0000      -0.717362       -19.5204
  35   2.0000      -0.698660       -19.0115
  36   2.0000      -0.691379       -18.8134
  37   2.0000      -0.656666       -17.8688
  38   2.0000      -0.632260       -17.2047
  39   2.0000      -0.622729       -16.9453
  40   2.0000      -0.596031       -16.2188
  41   2.0000      -0.573551       -15.6071
  42   2.0000      -0.563056       -15.3215
  43   2.0000      -0.548886       -14.9360
  44   2.0000      -0.542658       -14.7665
  45   2.0000      -0.528253       -14.3745
  46   2.0000      -0.522296       -14.2124
  47   2.0000      -0.510676       -13.8962
  48   2.0000      -0.499434       -13.5903
  49   2.0000      -0.498419       -13.5627
  50   2.0000      -0.491037       -13.3618
  51   2.0000      -0.481853       -13.1119
  52   2.0000      -0.470967       -12.8157
  53   2.0000      -0.468584       -12.7508
  54   2.0000      -0.455253       -12.3881
  55   2.0000      -0.451015       -12.2727
  56   2.0000      -0.448063       -12.1924
  57   2.0000      -0.436401       -11.8751
  58   2.0000      -0.433667       -11.8007
  59   2.0000      -0.428949       -11.6723
  60   2.0000      -0.417555       -11.3622
  61   2.0000      -0.411426       -11.1955
  62   2.0000      -0.400730       -10.9044
  63   2.0000      -0.360944        -9.8218
  64   2.0000      -0.330623        -8.9967
  65   2.0000      -0.324402        -8.8274
  66   2.0000      -0.285751        -7.7757
  67   0.0000       0.015478         0.4212
  68   0.0000       0.085080         2.3151
  69   0.0000       0.095591         2.6012
  70   0.0000       0.113475         3.0878
  71   0.0000       0.137635         3.7452

MULLIKEN ATOMIC CHARGES
-----------------------
   0 S :    0.067818
   1 C :   -0.128055
   2 C :   -0.093247
   3 C :   -0.026474
   4 C :   -0.102463
   5 H :    0.037644
   6 C :    0.098770
   7 H :    0.023679
   8 H :    0.011132
   9 C :   -0.120812
  10 H :    0.035368
  11 H :    0.040168
  12 C :   -0.045256
  13 H :    0.037219
  14 H :    0.048537
  15 H :    0.030010
  16 S :    0.092444
  17 C :   -0.090072
  18 C :   -0.012458
  19 C :   -0.068507
  20 C :   -0.114288
  21 H :   -0.000315
  22 C :   -0.019352
  23 H :    0.041552
  24 H :    0.052654
  25 C :   -0.035205
  26 H :    0.022901
  27 H :    0.025668
  28 C :   -0.032484
  29 H :    0.030586
  30 H :    0.036497
  31 H :    0.034506
  32 H :    0.057154
  33 H :    0.064679
Sum of atomic charges:    0.0000000

LOEWDIN ATOMIC CHARGES
----------------------
   0 S :    0.366157
   1 C :   -0.183404
   2 C :   -0.068673
   3 C :   -0.086599
   4 C :   -0.167326
   5 H :    0.034183
   6 C :   -0.033428
   7 H :    0.030898
   8 H :    0.029686
   9 C :   -0.043889
  10 H :    0.030311
  11 H :    0.025178
  12 C :   -0.066899
  13 H :    0.029303
  14 H :    0.026915
  15 H :    0.025212
  16 S :    0.400727
  17 C :   -0.178369
  18 C :   -0.063644
  19 C :   -0.057061
  20 C :   -0.192240
  21 H :    0.019067
  22 C :   -0.048687
  23 H :    0.036099
  24 H :    0.042392
  25 C :   -0.031646
  26 H :    0.021067
  27 H :    0.020928
  28 C :   -0.061976
  29 H :    0.028204
  30 H :    0.027864
  31 H :    0.028303
  32 H :    0.031670
  33 H :    0.029680

  Mayer bond orders larger than 0.100000
B(  0-S ,  1-C ) :   1.1084 B(  0-S ,  4-C ) :   1.1384 B(  1-C ,  2-C ) :   1.6430
B(  1-C , 32-H ) :   0.9658 B(  2-C ,  3-C ) :   1.2132 B(  2-C ,  6-C ) :   1.0402
B(  3-C ,  4-C ) :   1.5920 B(  3-C ,  5-H ) :   0.9625 B(  4-C , 20-C ) :   1.0596
B(  6-C ,  7-H ) :   0.9336 B(  6-C ,  8-H ) :   0.9376 B(  6-C ,  9-C ) :   1.0573
B(  9-C , 10-H ) :   0.9573 B(  9-C , 11-H ) :   0.9584 B(  9-C , 12-C ) :   1.0746
B( 12-C , 13-H ) :   0.9725 B( 12-C , 14-H ) :   0.9744 B( 12-C , 15-H ) :   0.9759
B( 16-S , 17-C ) :   1.1586 B( 16-S , 20-C ) :   1.1417 B( 17-C , 18-C ) :   1.6015
B( 17-C , 33-H ) :   0.9681 B( 18-C , 19-C ) :   1.2403 B( 18-C , 21-H ) :   0.9934
B( 19-C , 20-C ) :   1.5776 B( 19-C , 22-C ) :   1.0509 B( 22-C , 23-H ) :   0.9324
B( 22-C , 24-H ) :   0.9176 B( 22-C , 25-C ) :   1.0507 B( 25-C , 26-H ) :   0.9473
B( 25-C , 27-H ) :   0.9582 B( 25-C , 28-C ) :   1.0826 B( 28-C , 29-H ) :   0.9754
B( 28-C , 30-H ) :   0.9761 B( 28-C , 31-H ) :   0.9752

Dispersion correction           -0.013783054
FINAL SINGLE POINT ENERGY     -1339.863116107462

DIPOLE MOMENT
-------------
                                X             Y             Z
Electronic contribution:     25.93452       7.80034      -5.60407
Nuclear contribution   :    -26.51914      -8.14626       5.86368
                        -----------------------------------------
Total Dipole Moment    :     -0.58461      -0.34592       0.25962
                        -----------------------------------------
Magnitude (a.u.)       :      0.72721
Magnitude (Debye)      :      1.84842

Rotational constants in cm-1:     0.016959     0.008867     0.006601
Rotational constants in MHz :   508.409898   265.817291   197.881102

                             ****ORCA TERMINATED NORMALLY****
TOTAL RUN TIME: 0 days 0 hours 0 minutes 33 seconds 543 msec
