                         Program Version 4.2.1 -  RELEASE  -
|  1> ! wB97X-D3 SP def2-SVP
|  2> %pal
|  3> nprocs 16
|  4> end
|  5>
|  6> * xyz 0 1
|  7> S 	 -106.741 	 40.213 	 130.632
|  8> C 	 -106.188 	 40.6344 	 132.259
|  9> C 	 -106.997 	 41.4832 	 132.937
| 10> C 	 -108.101 	 41.8276 	 132.111
| 11> C 	 -108.216 	 41.1113 	 130.935
| 12> H 	 -108.824 	 42.6274 	 132.272
| 13> C 	 -106.61 	 42.2187 	 134.284
| 14> H 	 -107.104 	 43.2062 	 134.215
| 15> H 	 -105.53 	 42.4005 	 134.497
| 16> C 	 -107.26 	 41.5012 	 135.504
| 17> H 	 -107.277 	 42.1619 	 136.349
| 18> H 	 -108.287 	 41.3546 	 135.294
| 19> C 	 -106.583 	 40.1762 	 135.859
| 20> H 	 -107.145 	 39.641 	 136.619
| 21> H 	 -106.612 	 39.4294 	 135.079
| 22> H 	 -105.554 	 40.2793 	 136.095
| 23> S 	 -108.604 	 42.2449 	 128.434
| 24> C 	 -110.298 	 42.5425 	 127.841
| 25> C 	 -111.185 	 41.8875 	 128.688
| 26> C 	 -110.584 	 41.3244 	 129.864
| 27> C 	 -109.222 	 41.4475 	 129.887
| 28> H 	 -112.211 	 41.7537 	 128.437
| 29> C 	 -111.459 	 40.5138 	 130.91
| 30> H 	 -111.037 	 39.4871 	 131.053
| 31> H 	 -112.32 	 40.3054 	 130.219
| 32> C 	 -111.736 	 41.4028 	 132.162
| 33> H 	 -112.018 	 42.418 	 131.888
| 34> H 	 -110.78 	 41.4918 	 132.59
| 35> C 	 -112.619 	 40.8797 	 133.207
| 36> H 	 -112.752 	 41.4918 	 134.031
| 37> H 	 -112.3 	 39.929 	 133.589
| 38> H 	 -113.586 	 40.5707 	 132.795
| 39> H 	 -105.201 	 40.4437 	 132.685
| 40> H 	 -110.602 	 42.7825 	 126.862
| 41> *
| 42>
| 43>                          ****END OF INPUT****

CARTESIAN COORDINATES (ANGSTROEM)
---------------------------------
  S    -106.741000   40.213000  130.632000
  C    -106.188000   40.634400  132.259000
  C    -106.997000   41.483200  132.937000
  C    -108.101000   41.827600  132.111000
  C    -108.216000   41.111300  130.935000
  H    -108.824000   42.627400  132.272000
  C    -106.610000   42.218700  134.284000
  H    -107.104000   43.206200  134.215000
  H    -105.530000   42.400500  134.497000
  C    -107.260000   41.501200  135.504000
  H    -107.277000   42.161900  136.349000
  H    -108.287000   41.354600  135.294000
  C    -106.583000   40.176200  135.859000
  H    -107.145000   39.641000  136.619000
  H    -106.612000   39.429400  135.079000
  H    -105.554000   40.279300  136.095000
  S    -108.604000   42.244900  128.434000
  C    -110.298000   42.542500  127.841000
  C    -111.185000   41.887500  128.688000
  C    -110.584000   41.324400  129.864000
  C    -109.222000   41.447500  129.887000
  H    -112.211000   41.753700  128.437000
  C    -111.459000   40.513800  130.910000
  H    -111.037000   39.487100  131.053000
  H    -112.320000   40.305400  130.219000
  C    -111.736000   41.402800  132.162000
  H    -112.018000   42.418000  131.888000
  H    -110.780000   41.491800  132.590000
  C    -112.619000   40.879700  133.207000
  H    -112.752000   41.491800  134.031000
  H    -112.300000   39.929000  133.589000
  H    -113.586000   40.570700  132.795000
  H    -105.201000   40.443700  132.685000
  H    -110.602000   42.782500  126.862000

 Total Charge           Charge          ....    0
 Multiplicity           Mult            ....    1
 Number of Electrons    NEL             ....  134
 Basis Dimension        Dim             ....  322

ORBITAL ENERGIES
----------------

  NO   OCC          E(Eh)            E(eV)
   0   2.0000     -88.971686     -2421.0427
   1   2.0000     -88.964044     -2420.8347
   2   2.0000     -10.330740      -281.1137
   3   2.0000     -10.328937      -281.0647
   4   2.0000     -10.319180      -280.7992
   5   2.0000     -10.315417      -280.6968
   6   2.0000     -10.306421      -280.4520
   7   2.0000     -10.304227      -280.3923
   8   2.0000     -10.303681      -280.3774
   9   2.0000     -10.303173      -280.3636
  10   2.0000     -10.297026      -280.1963
  11   2.0000     -10.295527      -280.1555
  12   2.0000     -10.283766      -279.8355
  13   2.0000     -10.280099      -279.7357
  14   2.0000     -10.271596      -279.5043
  15   2.0000     -10.264923      -279.3228
  16   2.0000      -8.085829      -220.0266
  17   2.0000      -8.077493      -219.7997
  18   2.0000      -6.044396      -164.4764
  19   2.0000      -6.040591      -164.3728
  20   2.0000      -6.036386      -164.2584
  21   2.0000      -6.036255      -164.2549
  22   2.0000      -6.032211      -164.1448
  23   2.0000      -6.028010      -164.0305
  24   2.0000      -1.004440       -27.3322
  25   2.0000      -0.979309       -26.6483
  26   2.0000      -0.907975       -24.7073
  27   2.0000      -0.906098       -24.6562
  28   2.0000      -0.867278       -23.5998
  29   2.0000      -0.850596       -23.1459
  30   2.0000      -0.846559       -23.0360
  31   2.0000      -0.813588       -22.1389
  32   2.0000      -0.785884       -21.3850
  33   2.0000      -0.773978       -21.0610
  34   2.0000      -0.708628       -19.2828
  35   2.0000      -0.702367       -19.1124
  36   2.0000      -0.694224       -18.8908
  37   2.0000      -0.664937       -18.0939
  38   2.0000      -0.641347       -17.4519
  39   2.0000      -0.616587       -16.7782
  40   2.0000      -0.586502       -15.9595
  41   2.0000      -0.570287       -15.5183
  42   2.0000      -0.559046       -15.2124
  43   2.0000      -0.547556       -14.8998
  44   2.0000      -0.540485       -14.7073
  45   2.0000      -0.534501       -14.5445
  46   2.0000      -0.517947       -14.0941
  47   2.0000      -0.513605       -13.9759
  48   2.0000      -0.508670       -13.8416
  49   2.0000      -0.492778       -13.4092
  50   2.0000      -0.484721       -13.1899
  51   2.0000      -0.480832       -13.0841
  52   2.0000      -0.471472       -12.8294
  53   2.0000      -0.460951       -12.5431
  54   2.0000      -0.455430       -12.3929
  55   2.0000      -0.449476       -12.2309
  56   2.0000      -0.443496       -12.0681
  57   2.0000      -0.438885       -11.9427
  58   2.0000      -0.437348       -11.9008
  59   2.0000      -0.429335       -11.6828
  60   2.0000      -0.418631       -11.3915
  61   2.0000      -0.417979       -11.3738
  62   2.0000      -0.405928       -11.0459
  63   2.0000      -0.341561        -9.2943
  64   2.0000      -0.335896        -9.1402
  65   2.0000      -0.327724        -8.9178
  66   2.0000      -0.303008        -8.2453
  67   0.0000       0.030274         0.8238
  68   0.0000       0.061358         1.6696
  69   0.0000       0.102716         2.7951
  70   0.0000       0.116277         3.1641
  71   0.0000       0.133735         3.6391

MULLIKEN ATOMIC CHARGES
-----------------------
   0 S :    0.114528
   1 C :   -0.113658
   2 C :   -0.068860
   3 C :    0.025019
   4 C :   -0.158496
   5 H :    0.033408
   6 C :    0.032396
   7 H :    0.031315
   8 H :    0.044784
   9 C :   -0.041419
  10 H :    0.023412
  11 H :    0.015243
  12 C :   -0.032602
  13 H :    0.028613
  14 H :    0.021136
  15 H :    0.021688
  16 S :    0.086639
  17 C :   -0.068356
  18 C :   -0.034540
  19 C :   -0.078514
  20 C :   -0.162000
  21 H :    0.015222
  22 C :    0.049216
  23 H :    0.049090
  24 H :    0.016774
  25 C :   -0.045453
  26 H :    0.027640
  27 H :    0.007460
  28 C :    0.032343
  29 H :    0.020477
  30 H :    0.004756
  31 H :    0.011435
  32 H :    0.044583
  33 H :    0.046719
Sum of atomic charges:    0.0000000

LOEWDIN ATOMIC CHARGES
----------------------
   0 S :    0.397451
   1 C :   -0.184881
   2 C :   -0.067065
   3 C :   -0.052779
   4 C :   -0.202079
   5 H :    0.033100
   6 C :   -0.023273
   7 H :    0.034130
   8 H :    0.033124
   9 C :   -0.036426
  10 H :    0.020590
  11 H :    0.019453
  12 C :   -0.065856
  13 H :    0.028776
  14 H :    0.024411
  15 H :    0.018560
  16 S :    0.367522
  17 C :   -0.165952
  18 C :   -0.061926
  19 C :   -0.063254
  20 C :   -0.187376
  21 H :    0.026644
  22 C :   -0.024771
  23 H :    0.037599
  24 H :    0.028471
  25 C :   -0.040799
  26 H :    0.027735
  27 H :    0.018953
  28 C :   -0.059182
  29 H :    0.018760
  30 H :    0.023169
  31 H :    0.024392
  32 H :    0.030359
  33 H :    0.022420

  Mayer bond orders larger than 0.100000
B(  0-S ,  1-C ) :   1.1370 B(  0-S ,  4-C ) :   1.1346 B(  1-C ,  2-C ) :   1.6444
B(  1-C , 32-H ) :   0.9565 B(  2-C ,  3-C ) :   1.2430 B(  2-C ,  6-C ) :   0.9989
B(  3-C ,  4-C ) :   1.6047 B(  3-C ,  5-H ) :   0.9719 B(  4-C , 20-C ) :   1.0087
B(  6-C ,  7-H ) :   0.9435 B(  6-C ,  8-H ) :   0.9565 B(  6-C ,  9-C ) :   1.0693
B(  9-C , 10-H ) :   0.9561 B(  9-C , 11-H ) :   0.9539 B(  9-C , 12-C ) :   1.0797
B( 12-C , 13-H ) :   0.9714 B( 12-C , 14-H ) :   0.9715 B( 12-C , 15-H ) :   0.9763
B( 16-S , 17-C ) :   1.1268 B( 16-S , 20-C ) :   1.1305 B( 17-C , 18-C ) :   1.6381
B( 17-C , 33-H ) :   0.9659 B( 18-C , 19-C ) :   1.2443 B( 18-C , 21-H ) :   0.9813
B( 19-C , 20-C ) :   1.6527 B( 19-C , 22-C ) :   1.0071 B( 22-C , 23-H ) :   0.9453
B( 22-C , 24-H ) :   0.9426 B( 22-C , 25-C ) :   1.0398 B( 25-C , 26-H ) :   0.9542
B( 25-C , 27-H ) :   0.9448 B( 25-C , 28-C ) :   1.1076 B( 28-C , 29-H ) :   0.9687
B( 28-C , 30-H ) :   0.9616 B( 28-C , 31-H ) :   0.9676

Dispersion correction           -0.014575196
FINAL SINGLE POINT ENERGY     -1339.859339340440

DIPOLE MOMENT
-------------
                                X             Y             Z
Electronic contribution:     10.89237       1.80094     -27.65299
Nuclear contribution   :    -11.15817      -1.71109      28.18941
                        -----------------------------------------
Total Dipole Moment    :     -0.26580       0.08985       0.53642
                        -----------------------------------------
Magnitude (a.u.)       :      0.60537
Magnitude (Debye)      :      1.53872

Rotational constants in cm-1:     0.018258     0.009197     0.006784
Rotational constants in MHz :   547.351090   275.719723   203.379301

                             ****ORCA TERMINATED NORMALLY****
TOTAL RUN TIME: 0 days 0 hours 0 minutes 34 seconds 393 msec
