                         Program Version 4.2.1 -  RELEASE  -
|  1> ! wB97X-D3 SP def2-SVP
|  2> %pal
|  3> nprocs 16
|  4> end
|  5>
|  6> * xyz 0 1
|  7> S 	 33.4716 	 -3.04531 	 73.655
|  8> C 	 32.8623 	 -1.59666 	 74.3812
|  9> C 	 32.0839 	 -0.943193 	 73.4142
| 10> C 	 32.2308 	 -1.41214 	 72.0885
| 11> C 	 32.8728 	 -2.6353 	 72.0478
| 12> H 	 31.6998 	 -1.19857 	 71.2223
| 13> C 	 31.2919 	 0.325882 	 73.6498
| 14> H 	 31.2537 	 0.371445 	 74.7564
| 15> H 	 30.2804 	 0.228133 	 73.3332
| 16> C 	 32.0061 	 1.61384 	 73.0795
| 17> H 	 32.8586 	 1.71624 	 73.7336
| 18> H 	 32.388 	 1.57239 	 72.1036
| 19> C 	 31.067 	 2.78861 	 73.2376
| 20> H 	 30.76 	 2.98541 	 74.2312
| 21> H 	 31.5491 	 3.73799 	 72.8719
| 22> H 	 30.0953 	 2.68819 	 72.7223
| 23> S 	 33.5104 	 -5.17824 	 71.2037
| 24> C 	 33.4375 	 -5.6166 	 69.5653
| 25> C 	 33.1725 	 -4.47021 	 68.7941
| 26> C 	 33.0396 	 -3.21874 	 69.4671
| 27> C 	 33.1021 	 -3.46712 	 70.8649
| 28> H 	 33.1651 	 -4.50407 	 67.7116
| 29> C 	 32.9965 	 -1.82802 	 68.8646
| 30> H 	 33.6384 	 -1.87969 	 67.9855
| 31> H 	 33.3944 	 -1.13616 	 69.6607
| 32> C 	 31.6241 	 -1.44218 	 68.3329
| 33> H 	 30.8197 	 -1.67925 	 68.987
| 34> H 	 31.4522 	 -1.90937 	 67.3566
| 35> C 	 31.6949 	 -0.0279159 	 68.1291
| 36> H 	 32.4135 	 0.239356 	 67.2701
| 37> H 	 31.8919 	 0.536271 	 68.9997
| 38> H 	 30.6633 	 0.275095 	 67.8822
| 39> H 	 32.863 	 -1.39489 	 75.4891
| 40> H 	 33.5719 	 -6.65631 	 69.1127
| 41> *
| 42>
| 43>                          ****END OF INPUT****

CARTESIAN COORDINATES (ANGSTROEM)
---------------------------------
  S     33.471600   -3.045310   73.655000
  C     32.862300   -1.596660   74.381200
  C     32.083900   -0.943193   73.414200
  C     32.230800   -1.412140   72.088500
  C     32.872800   -2.635300   72.047800
  H     31.699800   -1.198570   71.222300
  C     31.291900    0.325882   73.649800
  H     31.253700    0.371445   74.756400
  H     30.280400    0.228133   73.333200
  C     32.006100    1.613840   73.079500
  H     32.858600    1.716240   73.733600
  H     32.388000    1.572390   72.103600
  C     31.067000    2.788610   73.237600
  H     30.760000    2.985410   74.231200
  H     31.549100    3.737990   72.871900
  H     30.095300    2.688190   72.722300
  S     33.510400   -5.178240   71.203700
  C     33.437500   -5.616600   69.565300
  C     33.172500   -4.470210   68.794100
  C     33.039600   -3.218740   69.467100
  C     33.102100   -3.467120   70.864900
  H     33.165100   -4.504070   67.711600
  C     32.996500   -1.828020   68.864600
  H     33.638400   -1.879690   67.985500
  H     33.394400   -1.136160   69.660700
  C     31.624100   -1.442180   68.332900
  H     30.819700   -1.679250   68.987000
  H     31.452200   -1.909370   67.356600
  C     31.694900   -0.027916   68.129100
  H     32.413500    0.239356   67.270100
  H     31.891900    0.536271   68.999700
  H     30.663300    0.275095   67.882200
  H     32.863000   -1.394890   75.489100
  H     33.571900   -6.656310   69.112700

 Total Charge           Charge          ....    0
 Multiplicity           Mult            ....    1
 Number of Electrons    NEL             ....  134
 Basis Dimension        Dim             ....  322

ORBITAL ENERGIES
----------------

  NO   OCC          E(Eh)            E(eV)
   0   2.0000     -88.966930     -2420.9133
   1   2.0000     -88.964392     -2420.8442
   2   2.0000     -10.332173      -281.1527
   3   2.0000     -10.332028      -281.1488
   4   2.0000     -10.324105      -280.9332
   5   2.0000     -10.319056      -280.7958
   6   2.0000     -10.307838      -280.4905
   7   2.0000     -10.301638      -280.3218
   8   2.0000     -10.298080      -280.2250
   9   2.0000     -10.295633      -280.1584
  10   2.0000     -10.290330      -280.0141
  11   2.0000     -10.285366      -279.8790
  12   2.0000     -10.284015      -279.8423
  13   2.0000     -10.280742      -279.7532
  14   2.0000     -10.277036      -279.6524
  15   2.0000     -10.276665      -279.6423
  16   2.0000      -8.081833      -219.9178
  17   2.0000      -8.079173      -219.8455
  18   2.0000      -6.040316      -164.3654
  19   2.0000      -6.037837      -164.2979
  20   2.0000      -6.036222      -164.2540
  21   2.0000      -6.033565      -164.1817
  22   2.0000      -6.032710      -164.1584
  23   2.0000      -6.029884      -164.0815
  24   2.0000      -1.006354       -27.3843
  25   2.0000      -0.984314       -26.7845
  26   2.0000      -0.932126       -25.3644
  27   2.0000      -0.908919       -24.7330
  28   2.0000      -0.870840       -23.6968
  29   2.0000      -0.861038       -23.4300
  30   2.0000      -0.849086       -23.1048
  31   2.0000      -0.811452       -22.0807
  32   2.0000      -0.781809       -21.2741
  33   2.0000      -0.763409       -20.7734
  34   2.0000      -0.709551       -19.3079
  35   2.0000      -0.700241       -19.0545
  36   2.0000      -0.693823       -18.8799
  37   2.0000      -0.664542       -18.0831
  38   2.0000      -0.640961       -17.4414
  39   2.0000      -0.619221       -16.8499
  40   2.0000      -0.598802       -16.2942
  41   2.0000      -0.585510       -15.9325
  42   2.0000      -0.566391       -15.4123
  43   2.0000      -0.554552       -15.0901
  44   2.0000      -0.535342       -14.5674
  45   2.0000      -0.525811       -14.3080
  46   2.0000      -0.521364       -14.1870
  47   2.0000      -0.512167       -13.9368
  48   2.0000      -0.505220       -13.7477
  49   2.0000      -0.500472       -13.6185
  50   2.0000      -0.494876       -13.4663
  51   2.0000      -0.488412       -13.2904
  52   2.0000      -0.469150       -12.7662
  53   2.0000      -0.467301       -12.7159
  54   2.0000      -0.457172       -12.4403
  55   2.0000      -0.451788       -12.2938
  56   2.0000      -0.443342       -12.0639
  57   2.0000      -0.438861       -11.9420
  58   2.0000      -0.434010       -11.8100
  59   2.0000      -0.427645       -11.6368
  60   2.0000      -0.423118       -11.5136
  61   2.0000      -0.413725       -11.2580
  62   2.0000      -0.409735       -11.1494
  63   2.0000      -0.361206        -9.8289
  64   2.0000      -0.332324        -9.0430
  65   2.0000      -0.326778        -8.8921
  66   2.0000      -0.277258        -7.5446
  67   0.0000       0.017202         0.4681
  68   0.0000       0.082904         2.2559
  69   0.0000       0.108046         2.9401
  70   0.0000       0.114341         3.1114
  71   0.0000       0.123355         3.3567

MULLIKEN ATOMIC CHARGES
-----------------------
   0 S :    0.095733
   1 C :   -0.133442
   2 C :   -0.096340
   3 C :    0.015612
   4 C :   -0.095327
   5 H :   -0.023819
   6 C :    0.053304
   7 H :    0.013691
   8 H :    0.023742
   9 C :   -0.035321
  10 H :    0.024772
  11 H :    0.027484
  12 C :   -0.044940
  13 H :    0.014376
  14 H :    0.035733
  15 H :    0.027066
  16 S :    0.104935
  17 C :   -0.102386
  18 C :   -0.042740
  19 C :   -0.031916
  20 C :   -0.162748
  21 H :    0.005024
  22 C :    0.008496
  23 H :    0.029109
  24 H :    0.056776
  25 C :   -0.048999
  26 H :    0.031503
  27 H :    0.030385
  28 C :   -0.027344
  29 H :    0.040421
  30 H :    0.019158
  31 H :    0.020246
  32 H :    0.078515
  33 H :    0.089242
Sum of atomic charges:   -0.0000000

LOEWDIN ATOMIC CHARGES
----------------------
   0 S :    0.400657
   1 C :   -0.222528
   2 C :   -0.060022
   3 C :   -0.075643
   4 C :   -0.174393
   5 H :    0.020813
   6 C :   -0.027572
   7 H :    0.030093
   8 H :    0.022233
   9 C :   -0.029290
  10 H :    0.027822
  11 H :    0.016878
  12 C :   -0.069385
  13 H :    0.017581
  14 H :    0.030508
  15 H :    0.025590
  16 S :    0.414105
  17 C :   -0.217990
  18 C :   -0.079697
  19 C :   -0.053001
  20 C :   -0.185530
  21 H :    0.024267
  22 C :   -0.031282
  23 H :    0.036228
  24 H :    0.041784
  25 C :   -0.043567
  26 H :    0.019558
  27 H :    0.031123
  28 C :   -0.063146
  29 H :    0.035678
  30 H :    0.015048
  31 H :    0.026289
  32 H :    0.044718
  33 H :    0.052073

  Mayer bond orders larger than 0.100000
B(  0-S ,  1-C ) :   1.1322 B(  0-S ,  4-C ) :   1.1512 B(  1-C ,  2-C ) :   1.5877
B(  1-C , 32-H ) :   0.9599 B(  2-C ,  3-C ) :   1.2475 B(  2-C ,  6-C ) :   1.0419
B(  3-C ,  4-C ) :   1.5649 B(  3-C ,  5-H ) :   0.9917 B(  4-C , 20-C ) :   1.0840
B(  6-C ,  7-H ) :   0.9413 B(  6-C ,  8-H ) :   0.9440 B(  6-C ,  9-C ) :   1.0430
B(  9-C , 10-H ) :   0.9510 B(  9-C , 11-H ) :   0.9651 B(  9-C , 12-C ) :   1.0856
B( 12-C , 13-H ) :   0.9720 B( 12-C , 14-H ) :   0.9725 B( 12-C , 15-H ) :   0.9744
B( 16-S , 17-C ) :   1.1721 B( 16-S , 20-C ) :   1.1447 B( 17-C , 18-C ) :   1.5652
B( 17-C , 20-C ) :   0.1040 B( 17-C , 33-H ) :   0.9597 B( 18-C , 19-C ) :   1.2885
B( 18-C , 21-H ) :   0.9836 B( 19-C , 20-C ) :   1.5306 B( 19-C , 22-C ) :   1.0281
B( 22-C , 23-H ) :   0.9198 B( 22-C , 24-H ) :   0.9488 B( 22-C , 25-C ) :   1.0663
B( 25-C , 26-H ) :   0.9539 B( 25-C , 27-H ) :   0.9384 B( 25-C , 28-C ) :   1.1127
B( 28-C , 29-H ) :   0.9624 B( 28-C , 30-H ) :   0.9728 B( 28-C , 31-H ) :   0.9655

Dispersion correction           -0.014168288
FINAL SINGLE POINT ENERGY     -1339.860349717161

DIPOLE MOMENT
-------------
                                X             Y             Z
Electronic contribution:     11.68721     -29.98155       9.59094
Nuclear contribution   :    -12.01716      30.42862     -10.02642
                        -----------------------------------------
Total Dipole Moment    :     -0.32995       0.44707      -0.43548
                        -----------------------------------------
Magnitude (a.u.)       :      0.70596
Magnitude (Debye)      :      1.79441

Rotational constants in cm-1:     0.018100     0.009636     0.006468
Rotational constants in MHz :   542.612813   288.884981   193.895959

                             ****ORCA TERMINATED NORMALLY****
TOTAL RUN TIME: 0 days 0 hours 0 minutes 30 seconds 968 msec
