                         Program Version 4.2.1 -  RELEASE  -
|  1> ! wB97X-D3 SP def2-SVP
|  2> %pal
|  3> nprocs 16
|  4> end
|  5>
|  6> * xyz 0 1
|  7> S 	 -41.1318 	 1.03639 	 97.9881
|  8> C 	 -42.1157 	 -0.375441 	 98.1442
|  9> C 	 -41.3454 	 -1.38237 	 98.618
| 10> C 	 -39.9536 	 -1.08822 	 98.7156
| 11> C 	 -39.6399 	 0.187449 	 98.3255
| 12> H 	 -39.0683 	 -1.64362 	 99.1766
| 13> C 	 -41.9825 	 -2.69495 	 99.0293
| 14> H 	 -42.7265 	 -2.76139 	 98.231
| 15> H 	 -42.4736 	 -2.41819 	 99.9212
| 16> C 	 -41.0823 	 -3.95497 	 99.1015
| 17> H 	 -40.3639 	 -3.82441 	 99.8721
| 18> H 	 -41.7614 	 -4.8117 	 99.3356
| 19> C 	 -40.3236 	 -4.29682 	 97.8179
| 20> H 	 -39.6869 	 -5.07257 	 98.1415
| 21> H 	 -41.0426 	 -4.58614 	 97.0146
| 22> H 	 -39.6182 	 -3.46932 	 97.5386
| 23> S 	 -38.2092 	 2.36797 	 99.1852
| 24> C 	 -36.5582 	 2.61356 	 98.8256
| 25> C 	 -36.1015 	 1.48157 	 98.2023
| 26> C 	 -37.0998 	 0.503382 	 97.9443
| 27> C 	 -38.3538 	 0.891524 	 98.3969
| 28> H 	 -35.0937 	 1.21602 	 97.9421
| 29> C 	 -36.6864 	 -0.859476 	 97.293
| 30> H 	 -36.1765 	 -0.60856 	 96.349
| 31> H 	 -37.5798 	 -1.25593 	 96.9586
| 32> C 	 -35.7925 	 -1.8959 	 97.9791
| 33> H 	 -36.1966 	 -2.0779 	 98.9833
| 34> H 	 -34.7962 	 -1.40531 	 98.1245
| 35> C 	 -35.6326 	 -3.23135 	 97.2184
| 36> H 	 -36.4966 	 -3.89355 	 97.3396
| 37> H 	 -34.796 	 -3.76684 	 97.8336
| 38> H 	 -35.4188 	 -3.27461 	 96.0802
| 39> H 	 -43.0878 	 -0.503327 	 97.6353
| 40> H 	 -35.9468 	 3.42329 	 99.1817
| 41> *
| 42>
| 43>                          ****END OF INPUT****

CARTESIAN COORDINATES (ANGSTROEM)
---------------------------------
  S    -41.131800    1.036390   97.988100
  C    -42.115700   -0.375441   98.144200
  C    -41.345400   -1.382370   98.618000
  C    -39.953600   -1.088220   98.715600
  C    -39.639900    0.187449   98.325500
  H    -39.068300   -1.643620   99.176600
  C    -41.982500   -2.694950   99.029300
  H    -42.726500   -2.761390   98.231000
  H    -42.473600   -2.418190   99.921200
  C    -41.082300   -3.954970   99.101500
  H    -40.363900   -3.824410   99.872100
  H    -41.761400   -4.811700   99.335600
  C    -40.323600   -4.296820   97.817900
  H    -39.686900   -5.072570   98.141500
  H    -41.042600   -4.586140   97.014600
  H    -39.618200   -3.469320   97.538600
  S    -38.209200    2.367970   99.185200
  C    -36.558200    2.613560   98.825600
  C    -36.101500    1.481570   98.202300
  C    -37.099800    0.503382   97.944300
  C    -38.353800    0.891524   98.396900
  H    -35.093700    1.216020   97.942100
  C    -36.686400   -0.859476   97.293000
  H    -36.176500   -0.608560   96.349000
  H    -37.579800   -1.255930   96.958600
  C    -35.792500   -1.895900   97.979100
  H    -36.196600   -2.077900   98.983300
  H    -34.796200   -1.405310   98.124500
  C    -35.632600   -3.231350   97.218400
  H    -36.496600   -3.893550   97.339600
  H    -34.796000   -3.766840   97.833600
  H    -35.418800   -3.274610   96.080200
  H    -43.087800   -0.503327   97.635300
  H    -35.946800    3.423290   99.181700

 Total Charge           Charge          ....    0
 Multiplicity           Mult            ....    1
 Number of Electrons    NEL             ....  134
 Basis Dimension        Dim             ....  322

ORBITAL ENERGIES
----------------

  NO   OCC          E(Eh)            E(eV)
   0   2.0000     -88.964994     -2420.8606
   1   2.0000     -88.960755     -2420.7452
   2   2.0000     -10.331101      -281.1236
   3   2.0000     -10.324978      -280.9569
   4   2.0000     -10.314391      -280.6688
   5   2.0000     -10.309263      -280.5293
   6   2.0000     -10.300390      -280.2879
   7   2.0000     -10.299226      -280.2562
   8   2.0000     -10.298799      -280.2446
   9   2.0000     -10.298557      -280.2380
  10   2.0000     -10.297673      -280.2139
  11   2.0000     -10.289210      -279.9836
  12   2.0000     -10.288851      -279.9739
  13   2.0000     -10.286573      -279.9119
  14   2.0000     -10.286007      -279.8965
  15   2.0000     -10.280010      -279.7333
  16   2.0000      -8.081744      -219.9154
  17   2.0000      -8.076171      -219.7638
  18   2.0000      -6.040128      -164.3602
  19   2.0000      -6.035773      -164.2417
  20   2.0000      -6.034681      -164.2120
  21   2.0000      -6.032677      -164.1575
  22   2.0000      -6.030511      -164.0985
  23   2.0000      -6.026938      -164.0013
  24   2.0000      -1.018816       -27.7234
  25   2.0000      -0.996676       -27.1209
  26   2.0000      -0.912936       -24.8422
  27   2.0000      -0.905613       -24.6430
  28   2.0000      -0.876420       -23.8486
  29   2.0000      -0.850852       -23.1529
  30   2.0000      -0.843811       -22.9613
  31   2.0000      -0.824177       -22.4270
  32   2.0000      -0.782343       -21.2886
  33   2.0000      -0.773357       -21.0441
  34   2.0000      -0.709238       -19.2994
  35   2.0000      -0.699231       -19.0270
  36   2.0000      -0.690435       -18.7877
  37   2.0000      -0.661703       -18.0059
  38   2.0000      -0.641002       -17.4426
  39   2.0000      -0.617882       -16.8134
  40   2.0000      -0.599570       -16.3151
  41   2.0000      -0.571324       -15.5465
  42   2.0000      -0.564012       -15.3475
  43   2.0000      -0.560922       -15.2635
  44   2.0000      -0.534251       -14.5377
  45   2.0000      -0.525351       -14.2955
  46   2.0000      -0.519756       -14.1433
  47   2.0000      -0.518580       -14.1113
  48   2.0000      -0.509267       -13.8579
  49   2.0000      -0.501357       -13.6426
  50   2.0000      -0.494214       -13.4482
  51   2.0000      -0.486713       -13.2441
  52   2.0000      -0.474466       -12.9109
  53   2.0000      -0.467441       -12.7197
  54   2.0000      -0.454930       -12.3793
  55   2.0000      -0.445841       -12.1319
  56   2.0000      -0.438186       -11.9236
  57   2.0000      -0.434155       -11.8140
  58   2.0000      -0.432509       -11.7692
  59   2.0000      -0.428653       -11.6642
  60   2.0000      -0.417434       -11.3590
  61   2.0000      -0.415491       -11.3061
  62   2.0000      -0.407868       -11.0987
  63   2.0000      -0.356276        -9.6948
  64   2.0000      -0.329272        -8.9599
  65   2.0000      -0.327308        -8.9065
  66   2.0000      -0.294296        -8.0082
  67   0.0000       0.031624         0.8605
  68   0.0000       0.072257         1.9662
  69   0.0000       0.116178         3.1614
  70   0.0000       0.119121         3.2415
  71   0.0000       0.132003         3.5920

MULLIKEN ATOMIC CHARGES
-----------------------
   0 S :    0.099524
   1 C :   -0.145502
   2 C :   -0.121320
   3 C :   -0.001213
   4 C :   -0.160785
   5 H :    0.044332
   6 C :    0.093715
   7 H :    0.015866
   8 H :    0.040300
   9 C :   -0.077036
  10 H :    0.021619
  11 H :    0.040321
  12 C :   -0.060341
  13 H :    0.026302
  14 H :    0.049520
  15 H :    0.046154
  16 S :    0.120604
  17 C :   -0.082759
  18 C :   -0.013562
  19 C :   -0.078826
  20 C :   -0.145512
  21 H :    0.005716
  22 C :    0.086712
  23 H :    0.020236
  24 H :   -0.008078
  25 C :   -0.050247
  26 H :    0.029903
  27 H :    0.033557
  28 C :   -0.108891
  29 H :    0.036533
  30 H :    0.049504
  31 H :    0.058533
  32 H :    0.074279
  33 H :    0.060838
Sum of atomic charges:   -0.0000000

LOEWDIN ATOMIC CHARGES
----------------------
   0 S :    0.408927
   1 C :   -0.217175
   2 C :   -0.064455
   3 C :   -0.085002
   4 C :   -0.185557
   5 H :    0.046764
   6 C :   -0.031805
   7 H :    0.031403
   8 H :    0.031430
   9 C :   -0.040839
  10 H :    0.017264
  11 H :    0.033053
  12 C :   -0.066299
  13 H :    0.021914
  14 H :    0.032028
  15 H :    0.029894
  16 S :    0.459380
  17 C :   -0.201718
  18 C :   -0.069699
  19 C :   -0.063094
  20 C :   -0.226173
  21 H :    0.026253
  22 C :   -0.036489
  23 H :    0.033228
  24 H :    0.013738
  25 C :   -0.043715
  26 H :    0.025164
  27 H :    0.026751
  28 C :   -0.083080
  29 H :    0.023649
  30 H :    0.041443
  31 H :    0.038155
  32 H :    0.041811
  33 H :    0.032852

  Mayer bond orders larger than 0.100000
B(  0-S ,  1-C ) :   1.1330 B(  0-S ,  4-C ) :   1.1693 B(  1-C ,  2-C ) :   1.6214
B(  1-C ,  4-C ) :   0.1024 B(  1-C , 32-H ) :   0.9642 B(  2-C ,  3-C ) :   1.2353
B(  2-C ,  6-C ) :   0.9769 B(  3-C ,  4-C ) :   1.5765 B(  3-C ,  5-H ) :   0.9758
B(  4-C , 20-C ) :   1.0123 B(  6-C ,  7-H ) :   0.9415 B(  6-C ,  8-H ) :   0.9410
B(  6-C ,  9-C ) :   1.0781 B(  9-C , 10-H ) :   0.9493 B(  9-C , 11-H ) :   0.9543
B(  9-C , 12-C ) :   1.0862 B( 12-C , 13-H ) :   0.9714 B( 12-C , 14-H ) :   0.9736
B( 12-C , 15-H ) :   0.9691 B( 16-S , 17-C ) :   1.1726 B( 16-S , 20-C ) :   1.1820
B( 17-C , 18-C ) :   1.5346 B( 17-C , 33-H ) :   0.9758 B( 18-C , 19-C ) :   1.3120
B( 18-C , 21-H ) :   0.9935 B( 19-C , 20-C ) :   1.5529 B( 19-C , 22-C ) :   1.0357
B( 22-C , 23-H ) :   0.9289 B( 22-C , 24-H ) :   0.9306 B( 22-C , 25-C ) :   1.0632
B( 25-C , 26-H ) :   0.9512 B( 25-C , 27-H ) :   0.9540 B( 25-C , 28-C ) :   1.0681
B( 28-C , 29-H ) :   0.9749 B( 28-C , 30-H ) :   0.9729 B( 28-C , 31-H ) :   0.9742

Dispersion correction           -0.014744306
FINAL SINGLE POINT ENERGY     -1339.862850566330

DIPOLE MOMENT
-------------
                                X             Y             Z
Electronic contribution:     -8.40233      30.79247       4.10333
Nuclear contribution   :      8.65530     -31.50675      -4.03307
                        -----------------------------------------
Total Dipole Moment    :      0.25298      -0.71429       0.07025
                        -----------------------------------------
Magnitude (a.u.)       :      0.76101
Magnitude (Debye)      :      1.93433

Rotational constants in cm-1:     0.015902     0.010858     0.006877
Rotational constants in MHz :   476.715263   325.500033   206.177837

                             ****ORCA TERMINATED NORMALLY****
TOTAL RUN TIME: 0 days 0 hours 0 minutes 31 seconds 834 msec
