                         Program Version 4.2.1 -  RELEASE  -
|  1> ! wB97X-D3 SP def2-SVP
|  2> %pal
|  3> nprocs 16
|  4> end
|  5>
|  6> * xyz 0 1
|  7> S 	 61.6554 	 -4.77815 	 91.8874
|  8> C 	 60.3505 	 -4.29028 	 92.9448
|  9> C 	 60.7962 	 -3.58102 	 94.043
| 10> C 	 62.2129 	 -3.42359 	 94.0142
| 11> C 	 62.8194 	 -3.82583 	 92.8986
| 12> H 	 62.73 	 -2.80699 	 94.7976
| 13> C 	 59.8419 	 -2.94513 	 94.9572
| 14> H 	 59.096 	 -2.36301 	 94.4393
| 15> H 	 60.4957 	 -2.18381 	 95.5118
| 16> C 	 58.8907 	 -3.80959 	 95.744
| 17> H 	 58.1062 	 -3.28833 	 96.2749
| 18> H 	 58.4114 	 -4.62783 	 95.1748
| 19> C 	 59.7333 	 -4.57777 	 96.851
| 20> H 	 59.2199 	 -5.03721 	 97.6079
| 21> H 	 60.1542 	 -5.35187 	 96.3537
| 22> H 	 60.4328 	 -3.89519 	 97.3038
| 23> S 	 65.2835 	 -5.15009 	 92.7882
| 24> C 	 66.6687 	 -4.17846 	 92.3814
| 25> C 	 66.31 	 -2.88528 	 92.1155
| 26> C 	 64.9399 	 -2.60656 	 92.2252
| 27> C 	 64.2257 	 -3.71498 	 92.6103
| 28> H 	 67.0157 	 -2.10122 	 91.7992
| 29> C 	 64.4239 	 -1.20619 	 92.0485
| 30> H 	 65.1537 	 -0.619818 	 92.5321
| 31> H 	 63.4772 	 -1.17687 	 92.5105
| 32> C 	 64.4007 	 -0.644179 	 90.5649
| 33> H 	 63.7852 	 -1.3014 	 89.9536
| 34> H 	 65.3702 	 -0.839479 	 90.1352
| 35> C 	 63.9617 	 0.818981 	 90.3507
| 36> H 	 62.9155 	 1.01598 	 90.4925
| 37> H 	 64.1087 	 1.15601 	 89.3279
| 38> H 	 64.5702 	 1.55203 	 90.9069
| 39> H 	 59.3407 	 -4.42969 	 92.6871
| 40> H 	 67.6799 	 -4.6069 	 92.2827
| 41> *
| 42>
| 43>                          ****END OF INPUT****

CARTESIAN COORDINATES (ANGSTROEM)
---------------------------------
  S     61.655400   -4.778150   91.887400
  C     60.350500   -4.290280   92.944800
  C     60.796200   -3.581020   94.043000
  C     62.212900   -3.423590   94.014200
  C     62.819400   -3.825830   92.898600
  H     62.730000   -2.806990   94.797600
  C     59.841900   -2.945130   94.957200
  H     59.096000   -2.363010   94.439300
  H     60.495700   -2.183810   95.511800
  C     58.890700   -3.809590   95.744000
  H     58.106200   -3.288330   96.274900
  H     58.411400   -4.627830   95.174800
  C     59.733300   -4.577770   96.851000
  H     59.219900   -5.037210   97.607900
  H     60.154200   -5.351870   96.353700
  H     60.432800   -3.895190   97.303800
  S     65.283500   -5.150090   92.788200
  C     66.668700   -4.178460   92.381400
  C     66.310000   -2.885280   92.115500
  C     64.939900   -2.606560   92.225200
  C     64.225700   -3.714980   92.610300
  H     67.015700   -2.101220   91.799200
  C     64.423900   -1.206190   92.048500
  H     65.153700   -0.619818   92.532100
  H     63.477200   -1.176870   92.510500
  C     64.400700   -0.644179   90.564900
  H     63.785200   -1.301400   89.953600
  H     65.370200   -0.839479   90.135200
  C     63.961700    0.818981   90.350700
  H     62.915500    1.015980   90.492500
  H     64.108700    1.156010   89.327900
  H     64.570200    1.552030   90.906900
  H     59.340700   -4.429690   92.687100
  H     67.679900   -4.606900   92.282700

 Total Charge           Charge          ....    0
 Multiplicity           Mult            ....    1
 Number of Electrons    NEL             ....  134
 Basis Dimension        Dim             ....  322

ORBITAL ENERGIES
----------------

  NO   OCC          E(Eh)            E(eV)
   0   2.0000     -88.964379     -2420.8438
   1   2.0000     -88.963000     -2420.8063
   2   2.0000     -10.325653      -280.9753
   3   2.0000     -10.323077      -280.9052
   4   2.0000     -10.318491      -280.7804
   5   2.0000     -10.309543      -280.5369
   6   2.0000     -10.297608      -280.2122
   7   2.0000     -10.296139      -280.1722
   8   2.0000     -10.295344      -280.1506
   9   2.0000     -10.292656      -280.0774
  10   2.0000     -10.289713      -279.9973
  11   2.0000     -10.288802      -279.9725
  12   2.0000     -10.288727      -279.9705
  13   2.0000     -10.285673      -279.8874
  14   2.0000     -10.279339      -279.7150
  15   2.0000     -10.255057      -279.0543
  16   2.0000      -8.078862      -219.8370
  17   2.0000      -8.077162      -219.7908
  18   2.0000      -6.037385      -164.2856
  19   2.0000      -6.035774      -164.2417
  20   2.0000      -6.033468      -164.1790
  21   2.0000      -6.031803      -164.1337
  22   2.0000      -6.029560      -164.0727
  23   2.0000      -6.027794      -164.0246
  24   2.0000      -1.006641       -27.3921
  25   2.0000      -0.985821       -26.8255
  26   2.0000      -0.916149       -24.9297
  27   2.0000      -0.904539       -24.6138
  28   2.0000      -0.870365       -23.6838
  29   2.0000      -0.852120       -23.1874
  30   2.0000      -0.846631       -23.0380
  31   2.0000      -0.815836       -22.2000
  32   2.0000      -0.787156       -21.4196
  33   2.0000      -0.772483       -21.0203
  34   2.0000      -0.709507       -19.3067
  35   2.0000      -0.708743       -19.2859
  36   2.0000      -0.698839       -19.0164
  37   2.0000      -0.662119       -18.0172
  38   2.0000      -0.641713       -17.4619
  39   2.0000      -0.616265       -16.7694
  40   2.0000      -0.596860       -16.2414
  41   2.0000      -0.573761       -15.6128
  42   2.0000      -0.562883       -15.3168
  43   2.0000      -0.551425       -15.0050
  44   2.0000      -0.541149       -14.7254
  45   2.0000      -0.519375       -14.1329
  46   2.0000      -0.518481       -14.1086
  47   2.0000      -0.512752       -13.9527
  48   2.0000      -0.511223       -13.9111
  49   2.0000      -0.497143       -13.5279
  50   2.0000      -0.491828       -13.3833
  51   2.0000      -0.481694       -13.1076
  52   2.0000      -0.469136       -12.7658
  53   2.0000      -0.464937       -12.6516
  54   2.0000      -0.458433       -12.4746
  55   2.0000      -0.453520       -12.3409
  56   2.0000      -0.443564       -12.0700
  57   2.0000      -0.441373       -12.0104
  58   2.0000      -0.428230       -11.6527
  59   2.0000      -0.427162       -11.6237
  60   2.0000      -0.422175       -11.4880
  61   2.0000      -0.418567       -11.3898
  62   2.0000      -0.404338       -11.0026
  63   2.0000      -0.342397        -9.3171
  64   2.0000      -0.331373        -9.0171
  65   2.0000      -0.322501        -8.7757
  66   2.0000      -0.301722        -8.2103
  67   0.0000       0.040358         1.0982
  68   0.0000       0.052705         1.4342
  69   0.0000       0.113334         3.0840
  70   0.0000       0.121461         3.3051
  71   0.0000       0.127970         3.4822

MULLIKEN ATOMIC CHARGES
-----------------------
   0 S :    0.099119
   1 C :   -0.108380
   2 C :   -0.072723
   3 C :    0.045013
   4 C :   -0.183043
   5 H :    0.032688
   6 C :    0.046042
   7 H :    0.031695
   8 H :    0.032479
   9 C :   -0.090468
  10 H :    0.031755
  11 H :    0.036693
  12 C :   -0.002301
  13 H :    0.003368
  14 H :    0.013591
  15 H :    0.021630
  16 S :    0.110443
  17 C :   -0.096609
  18 C :   -0.038851
  19 C :   -0.028861
  20 C :   -0.195155
  21 H :    0.021898
  22 C :    0.146310
  23 H :    0.010746
  24 H :    0.014056
  25 C :   -0.075940
  26 H :    0.025621
  27 H :    0.014259
  28 C :   -0.032703
  29 H :    0.033375
  30 H :    0.024824
  31 H :    0.027130
  32 H :    0.033635
  33 H :    0.068667
Sum of atomic charges:   -0.0000000

LOEWDIN ATOMIC CHARGES
----------------------
   0 S :    0.373375
   1 C :   -0.175230
   2 C :   -0.071525
   3 C :   -0.057428
   4 C :   -0.180604
   5 H :    0.042240
   6 C :   -0.042008
   7 H :    0.035684
   8 H :    0.038497
   9 C :   -0.032546
  10 H :    0.021249
  11 H :    0.028886
  12 C :   -0.052608
  13 H :    0.011189
  14 H :    0.013201
  15 H :    0.021714
  16 S :    0.392638
  17 C :   -0.184622
  18 C :   -0.079531
  19 C :   -0.050859
  20 C :   -0.192009
  21 H :    0.033914
  22 C :   -0.016179
  23 H :    0.026661
  24 H :    0.023918
  25 C :   -0.036670
  26 H :    0.025082
  27 H :    0.019967
  28 C :   -0.068926
  29 H :    0.024577
  30 H :    0.029437
  31 H :    0.026025
  32 H :    0.016637
  33 H :    0.035857

  Mayer bond orders larger than 0.100000
B(  0-S ,  1-C ) :   1.1412 B(  0-S ,  4-C ) :   1.1114 B(  1-C ,  2-C ) :   1.6119
B(  1-C , 32-H ) :   0.9736 B(  2-C ,  3-C ) :   1.2279 B(  2-C ,  6-C ) :   1.0181
B(  3-C ,  4-C ) :   1.6292 B(  3-C ,  5-H ) :   0.9777 B(  4-C , 20-C ) :   1.0368
B(  6-C ,  7-H ) :   0.9359 B(  6-C ,  8-H ) :   0.9459 B(  6-C ,  9-C ) :   1.0647
B(  9-C , 10-H ) :   0.9618 B(  9-C , 11-H ) :   0.9596 B(  9-C , 12-C ) :   1.0595
B( 12-C , 13-H ) :   0.9747 B( 12-C , 14-H ) :   0.9784 B( 12-C , 15-H ) :   0.9793
B( 16-S , 17-C ) :   1.1546 B( 16-S , 20-C ) :   1.1331 B( 17-C , 18-C ) :   1.6034
B( 17-C , 33-H ) :   0.9643 B( 18-C , 19-C ) :   1.2513 B( 18-C , 21-H ) :   0.9819
B( 19-C , 20-C ) :   1.6095 B( 19-C , 22-C ) :   1.0460 B( 22-C , 23-H ) :   0.9271
B( 22-C , 24-H ) :   0.9254 B( 22-C , 25-C ) :   1.0571 B( 25-C , 26-H ) :   0.9536
B( 25-C , 27-H ) :   0.9566 B( 25-C , 28-C ) :   1.0853 B( 28-C , 29-H ) :   0.9764
B( 28-C , 30-H ) :   0.9713 B( 28-C , 31-H ) :   0.9741

Dispersion correction           -0.014003592
FINAL SINGLE POINT ENERGY     -1339.861429974517

DIPOLE MOMENT
-------------
                                X             Y             Z
Electronic contribution:     10.34731     -18.45269      -6.67807
Nuclear contribution   :    -10.48327      19.06303       6.78209
                        -----------------------------------------
Total Dipole Moment    :     -0.13596       0.61034       0.10402
                        -----------------------------------------
Magnitude (a.u.)       :      0.63389
Magnitude (Debye)      :      1.61122

Rotational constants in cm-1:     0.018576     0.008004     0.006639
Rotational constants in MHz :   556.898264   239.949371   199.025537

                             ****ORCA TERMINATED NORMALLY****
TOTAL RUN TIME: 0 days 0 hours 0 minutes 27 seconds 754 msec
