                         Program Version 4.2.1 -  RELEASE  -
|  1> ! wB97X-D3 SP def2-SVP
|  2> %pal
|  3> nprocs 16
|  4> end
|  5>
|  6> * xyz 0 1
|  7> S 	 -17.7521 	 57.5056 	 63.2775
|  8> C 	 -16.8502 	 56.0229 	 62.9801
|  9> C 	 -15.4892 	 56.1364 	 63.2428
| 10> C 	 -15.2001 	 57.5033 	 63.6025
| 11> C 	 -16.3052 	 58.3803 	 63.7223
| 12> H 	 -14.2771 	 57.9587 	 63.7995
| 13> C 	 -14.4197 	 55.0783 	 63.1479
| 14> H 	 -14.6653 	 54.2786 	 63.8306
| 15> H 	 -13.4901 	 55.562 	 63.4961
| 16> C 	 -14.2478 	 54.4121 	 61.7619
| 17> H 	 -15.1357 	 53.7585 	 61.5928
| 18> H 	 -14.2787 	 55.1325 	 60.9734
| 19> C 	 -12.9517 	 53.6468 	 61.7596
| 20> H 	 -12.2066 	 54.4428 	 61.6537
| 21> H 	 -12.7406 	 53.107 	 62.6685
| 22> H 	 -12.7693 	 52.9901 	 60.9527
| 23> S 	 -17.0336 	 60.7416 	 62.5751
| 24> C 	 -16.2637 	 62.174 	 63.298
| 25> C 	 -15.6141 	 61.9409 	 64.504
| 26> C 	 -15.6529 	 60.5193 	 64.8576
| 27> C 	 -16.3492 	 59.7683 	 63.9066
| 28> H 	 -15.1387 	 62.6887 	 65.1214
| 29> C 	 -14.8924 	 59.9091 	 66.0791
| 30> H 	 -14.2413 	 59.1515 	 65.6066
| 31> H 	 -15.5374 	 59.2231 	 66.6395
| 32> C 	 -14.1762 	 60.8523 	 66.9321
| 33> H 	 -13.6203 	 61.5395 	 66.2525
| 34> H 	 -13.3541 	 60.314 	 67.4665
| 35> C 	 -15.1285 	 61.6043 	 67.8888
| 36> H 	 -15.9957 	 62.1063 	 67.4015
| 37> H 	 -14.5442 	 62.3574 	 68.3678
| 38> H 	 -15.6831 	 60.9287 	 68.5818
| 39> H 	 -17.1699 	 55.039 	 62.9411
| 40> H 	 -16.3748 	 63.1827 	 62.8768
| 41> *
| 42>
| 43>                          ****END OF INPUT****

CARTESIAN COORDINATES (ANGSTROEM)
---------------------------------
  S    -17.752100   57.505600   63.277500
  C    -16.850200   56.022900   62.980100
  C    -15.489200   56.136400   63.242800
  C    -15.200100   57.503300   63.602500
  C    -16.305200   58.380300   63.722300
  H    -14.277100   57.958700   63.799500
  C    -14.419700   55.078300   63.147900
  H    -14.665300   54.278600   63.830600
  H    -13.490100   55.562000   63.496100
  C    -14.247800   54.412100   61.761900
  H    -15.135700   53.758500   61.592800
  H    -14.278700   55.132500   60.973400
  C    -12.951700   53.646800   61.759600
  H    -12.206600   54.442800   61.653700
  H    -12.740600   53.107000   62.668500
  H    -12.769300   52.990100   60.952700
  S    -17.033600   60.741600   62.575100
  C    -16.263700   62.174000   63.298000
  C    -15.614100   61.940900   64.504000
  C    -15.652900   60.519300   64.857600
  C    -16.349200   59.768300   63.906600
  H    -15.138700   62.688700   65.121400
  C    -14.892400   59.909100   66.079100
  H    -14.241300   59.151500   65.606600
  H    -15.537400   59.223100   66.639500
  C    -14.176200   60.852300   66.932100
  H    -13.620300   61.539500   66.252500
  H    -13.354100   60.314000   67.466500
  C    -15.128500   61.604300   67.888800
  H    -15.995700   62.106300   67.401500
  H    -14.544200   62.357400   68.367800
  H    -15.683100   60.928700   68.581800
  H    -17.169900   55.039000   62.941100
  H    -16.374800   63.182700   62.876800

 Total Charge           Charge          ....    0
 Multiplicity           Mult            ....    1
 Number of Electrons    NEL             ....  134
 Basis Dimension        Dim             ....  322

ORBITAL ENERGIES
----------------

  NO   OCC          E(Eh)            E(eV)
   0   2.0000     -88.968176     -2420.9472
   1   2.0000     -88.965889     -2420.8849
   2   2.0000     -10.324884      -280.9544
   3   2.0000     -10.324420      -280.9417
   4   2.0000     -10.322318      -280.8846
   5   2.0000     -10.310443      -280.5614
   6   2.0000     -10.306640      -280.4579
   7   2.0000     -10.301982      -280.3312
   8   2.0000     -10.300730      -280.2971
   9   2.0000     -10.295304      -280.1495
  10   2.0000     -10.292709      -280.0789
  11   2.0000     -10.292436      -280.0714
  12   2.0000     -10.291941      -280.0580
  13   2.0000     -10.287853      -279.9467
  14   2.0000     -10.283452      -279.8270
  15   2.0000     -10.273859      -279.5659
  16   2.0000      -8.081927      -219.9204
  17   2.0000      -8.080183      -219.8730
  18   2.0000      -6.040570      -164.3723
  19   2.0000      -6.038770      -164.3233
  20   2.0000      -6.036746      -164.2682
  21   2.0000      -6.034624      -164.2105
  22   2.0000      -6.032407      -164.1502
  23   2.0000      -6.031038      -164.1129
  24   2.0000      -1.002092       -27.2683
  25   2.0000      -0.974181       -26.5088
  26   2.0000      -0.917932       -24.9782
  27   2.0000      -0.914948       -24.8970
  28   2.0000      -0.874073       -23.7847
  29   2.0000      -0.850057       -23.1312
  30   2.0000      -0.840524       -22.8718
  31   2.0000      -0.809997       -22.0412
  32   2.0000      -0.787437       -21.4272
  33   2.0000      -0.773812       -21.0565
  34   2.0000      -0.709827       -19.3154
  35   2.0000      -0.706974       -19.2377
  36   2.0000      -0.696436       -18.9510
  37   2.0000      -0.657365       -17.8878
  38   2.0000      -0.642572       -17.4853
  39   2.0000      -0.613662       -16.6986
  40   2.0000      -0.600419       -16.3382
  41   2.0000      -0.570824       -15.5329
  42   2.0000      -0.565035       -15.3754
  43   2.0000      -0.556404       -15.1405
  44   2.0000      -0.536456       -14.5977
  45   2.0000      -0.524307       -14.2671
  46   2.0000      -0.518690       -14.1143
  47   2.0000      -0.511958       -13.9311
  48   2.0000      -0.505206       -13.7474
  49   2.0000      -0.498365       -13.5612
  50   2.0000      -0.497135       -13.5277
  51   2.0000      -0.473674       -12.8893
  52   2.0000      -0.469784       -12.7835
  53   2.0000      -0.465101       -12.6560
  54   2.0000      -0.456393       -12.4191
  55   2.0000      -0.448978       -12.2173
  56   2.0000      -0.446492       -12.1497
  57   2.0000      -0.439050       -11.9472
  58   2.0000      -0.436501       -11.8778
  59   2.0000      -0.428258       -11.6535
  60   2.0000      -0.423502       -11.5241
  61   2.0000      -0.417656       -11.3650
  62   2.0000      -0.412718       -11.2306
  63   2.0000      -0.346037        -9.4161
  64   2.0000      -0.330049        -8.9811
  65   2.0000      -0.328441        -8.9373
  66   2.0000      -0.283654        -7.7186
  67   0.0000       0.024908         0.6778
  68   0.0000       0.061462         1.6725
  69   0.0000       0.104359         2.8397
  70   0.0000       0.117772         3.2048
  71   0.0000       0.137192         3.7332

MULLIKEN ATOMIC CHARGES
-----------------------
   0 S :    0.106684
   1 C :   -0.069200
   2 C :   -0.107346
   3 C :    0.045913
   4 C :   -0.198341
   5 H :   -0.011373
   6 C :    0.055582
   7 H :    0.035473
   8 H :    0.022823
   9 C :   -0.065026
  10 H :    0.029163
  11 H :    0.029894
  12 C :   -0.025193
  13 H :    0.025844
  14 H :    0.027004
  15 H :    0.026373
  16 S :    0.112000
  17 C :   -0.091995
  18 C :   -0.033984
  19 C :   -0.078818
  20 C :   -0.126031
  21 H :    0.024628
  22 C :    0.089164
  23 H :    0.015816
  24 H :    0.030405
  25 C :   -0.076976
  26 H :    0.028347
  27 H :    0.037980
  28 C :   -0.051366
  29 H :    0.037321
  30 H :    0.035984
  31 H :    0.037386
  32 H :    0.018050
  33 H :    0.063815
Sum of atomic charges:    0.0000000

LOEWDIN ATOMIC CHARGES
----------------------
   0 S :    0.405185
   1 C :   -0.194425
   2 C :   -0.056622
   3 C :   -0.057398
   4 C :   -0.197927
   5 H :    0.015559
   6 C :   -0.029571
   7 H :    0.033780
   8 H :    0.031790
   9 C :   -0.034544
  10 H :    0.023536
  11 H :    0.021317
  12 C :   -0.062333
  13 H :    0.030136
  14 H :    0.023676
  15 H :    0.020402
  16 S :    0.383115
  17 C :   -0.172964
  18 C :   -0.072674
  19 C :   -0.039318
  20 C :   -0.205607
  21 H :    0.031129
  22 C :   -0.039767
  23 H :    0.034232
  24 H :    0.034820
  25 C :   -0.051790
  26 H :    0.027069
  27 H :    0.034663
  28 C :   -0.067751
  29 H :    0.030693
  30 H :    0.022852
  31 H :    0.032457
  32 H :    0.014756
  33 H :    0.031528

  Mayer bond orders larger than 0.100000
B(  0-S ,  1-C ) :   1.1379 B(  0-S ,  4-C ) :   1.1429 B(  1-C ,  2-C ) :   1.6105
B(  1-C ,  4-C ) :   0.1011 B(  1-C , 32-H ) :   0.9655 B(  2-C ,  3-C ) :   1.2482
B(  2-C ,  6-C ) :   1.0208 B(  3-C ,  4-C ) :   1.5588 B(  3-C ,  5-H ) :   0.9880
B(  4-C , 20-C ) :   1.0744 B(  6-C ,  7-H ) :   0.9271 B(  6-C ,  8-H ) :   0.9493
B(  6-C ,  9-C ) :   1.0586 B(  9-C , 10-H ) :   0.9502 B(  9-C , 11-H ) :   0.9642
B(  9-C , 12-C ) :   1.0786 B( 12-C , 13-H ) :   0.9755 B( 12-C , 14-H ) :   0.9731
B( 12-C , 15-H ) :   0.9732 B( 16-S , 17-C ) :   1.1438 B( 16-S , 20-C ) :   1.1114
B( 17-C , 18-C ) :   1.6251 B( 17-C , 33-H ) :   0.9606 B( 18-C , 19-C ) :   1.2243
B( 18-C , 21-H ) :   0.9811 B( 19-C , 20-C ) :   1.6159 B( 19-C , 22-C ) :   1.0174
B( 22-C , 23-H ) :   0.9201 B( 22-C , 24-H ) :   0.9265 B( 22-C , 25-C ) :   1.0913
B( 25-C , 26-H ) :   0.9456 B( 25-C , 27-H ) :   0.9479 B( 25-C , 28-C ) :   1.0677
B( 28-C , 29-H ) :   0.9753 B( 28-C , 30-H ) :   0.9759 B( 28-C , 31-H ) :   0.9712

Dispersion correction           -0.013749473
FINAL SINGLE POINT ENERGY     -1339.867273968081

DIPOLE MOMENT
-------------
                                X             Y             Z
Electronic contribution:    -20.22431       9.78233     -10.15247
Nuclear contribution   :     20.94782      -9.91623      10.48757
                        -----------------------------------------
Total Dipole Moment    :      0.72351      -0.13390       0.33510
                        -----------------------------------------
Magnitude (a.u.)       :      0.80851
Magnitude (Debye)      :      2.05508

Rotational constants in cm-1:     0.020519     0.007264     0.006172
Rotational constants in MHz :   615.133534   217.782938   185.017903

                             ****ORCA TERMINATED NORMALLY****
TOTAL RUN TIME: 0 days 0 hours 0 minutes 32 seconds 398 msec
