                         Program Version 4.2.1 -  RELEASE  -
|  1> ! wB97X-D3 SP def2-SVP
|  2> %pal
|  3> nprocs 16
|  4> end
|  5>
|  6> * xyz 0 1
|  7> S 	 52.7094 	 21.4183 	 94.8364
|  8> C 	 51.0853 	 21.0315 	 95.4707
|  9> C 	 51.0005 	 19.6689 	 95.654
| 10> C 	 52.2624 	 19.036 	 95.3927
| 11> C 	 53.3294 	 19.8022 	 95.0263
| 12> H 	 52.4232 	 17.9772 	 95.4237
| 13> C 	 49.7641 	 18.9 	 95.8868
| 14> H 	 49.2823 	 18.842 	 94.8957
| 15> H 	 48.9277 	 19.473 	 96.4608
| 16> C 	 49.8872 	 17.481 	 96.4904
| 17> H 	 48.8948 	 17.0222 	 96.6477
| 18> H 	 50.3608 	 16.7829 	 95.7378
| 19> C 	 50.6076 	 17.4978 	 97.8619
| 20> H 	 51.6049 	 17.8635 	 97.7977
| 21> H 	 50.1089 	 17.932 	 98.698
| 22> H 	 50.6041 	 16.5145 	 98.2681
| 23> S 	 55.1991 	 20.0768 	 93.019
| 24> C 	 56.7293 	 19.1768 	 93.0594
| 25> C 	 56.7991 	 18.4482 	 94.2042
| 26> C 	 55.604 	 18.4238 	 95.0383
| 27> C 	 54.6631 	 19.3934 	 94.5562
| 28> H 	 57.7704 	 17.8578 	 94.3491
| 29> C 	 55.447 	 17.4528 	 96.121
| 30> H 	 56.4145 	 16.9697 	 96.2851
| 31> H 	 54.7729 	 16.6143 	 95.7679
| 32> C 	 54.9607 	 17.9669 	 97.4664
| 33> H 	 54.9412 	 17.1598 	 98.2553
| 34> H 	 53.9767 	 18.4716 	 97.4098
| 35> C 	 55.9585 	 19.1166 	 97.8192
| 36> H 	 57.0919 	 18.9378 	 97.6515
| 37> H 	 55.9216 	 19.2781 	 98.923
| 38> H 	 55.6299 	 20.0794 	 97.4436
| 39> H 	 50.2359 	 21.7354 	 95.6015
| 40> H 	 57.5146 	 19.2258 	 92.3353
| 41> *
| 42>
| 43>                          ****END OF INPUT****

CARTESIAN COORDINATES (ANGSTROEM)
---------------------------------
  S     52.709400   21.418300   94.836400
  C     51.085300   21.031500   95.470700
  C     51.000500   19.668900   95.654000
  C     52.262400   19.036000   95.392700
  C     53.329400   19.802200   95.026300
  H     52.423200   17.977200   95.423700
  C     49.764100   18.900000   95.886800
  H     49.282300   18.842000   94.895700
  H     48.927700   19.473000   96.460800
  C     49.887200   17.481000   96.490400
  H     48.894800   17.022200   96.647700
  H     50.360800   16.782900   95.737800
  C     50.607600   17.497800   97.861900
  H     51.604900   17.863500   97.797700
  H     50.108900   17.932000   98.698000
  H     50.604100   16.514500   98.268100
  S     55.199100   20.076800   93.019000
  C     56.729300   19.176800   93.059400
  C     56.799100   18.448200   94.204200
  C     55.604000   18.423800   95.038300
  C     54.663100   19.393400   94.556200
  H     57.770400   17.857800   94.349100
  C     55.447000   17.452800   96.121000
  H     56.414500   16.969700   96.285100
  H     54.772900   16.614300   95.767900
  C     54.960700   17.966900   97.466400
  H     54.941200   17.159800   98.255300
  H     53.976700   18.471600   97.409800
  C     55.958500   19.116600   97.819200
  H     57.091900   18.937800   97.651500
  H     55.921600   19.278100   98.923000
  H     55.629900   20.079400   97.443600
  H     50.235900   21.735400   95.601500
  H     57.514600   19.225800   92.335300

 Total Charge           Charge          ....    0
 Multiplicity           Mult            ....    1
 Number of Electrons    NEL             ....  134
 Basis Dimension        Dim             ....  322

ORBITAL ENERGIES
----------------

  NO   OCC          E(Eh)            E(eV)
   0   2.0000     -88.966500     -2420.9015
   1   2.0000     -88.963653     -2420.8241
   2   2.0000     -10.337835      -281.3068
   3   2.0000     -10.332076      -281.1501
   4   2.0000     -10.320068      -280.8233
   5   2.0000     -10.317268      -280.7471
   6   2.0000     -10.312305      -280.6121
   7   2.0000     -10.303626      -280.3759
   8   2.0000     -10.301134      -280.3081
   9   2.0000     -10.301010      -280.3047
  10   2.0000     -10.299121      -280.2533
  11   2.0000     -10.293695      -280.1057
  12   2.0000     -10.292018      -280.0600
  13   2.0000     -10.291166      -280.0369
  14   2.0000     -10.279001      -279.7058
  15   2.0000     -10.270550      -279.4759
  16   2.0000      -8.080479      -219.8810
  17   2.0000      -8.078013      -219.8139
  18   2.0000      -6.039136      -164.3332
  19   2.0000      -6.036731      -164.2678
  20   2.0000      -6.035058      -164.2223
  21   2.0000      -6.032489      -164.1524
  22   2.0000      -6.031142      -164.1157
  23   2.0000      -6.028625      -164.0472
  24   2.0000      -1.005732       -27.3674
  25   2.0000      -0.982259       -26.7286
  26   2.0000      -0.913965       -24.8702
  27   2.0000      -0.912026       -24.8175
  28   2.0000      -0.870875       -23.6977
  29   2.0000      -0.841264       -22.8920
  30   2.0000      -0.838910       -22.8279
  31   2.0000      -0.818770       -22.2799
  32   2.0000      -0.784480       -21.3468
  33   2.0000      -0.770503       -20.9665
  34   2.0000      -0.715100       -19.4589
  35   2.0000      -0.701036       -19.0761
  36   2.0000      -0.684979       -18.6392
  37   2.0000      -0.655882       -17.8475
  38   2.0000      -0.639459       -17.4006
  39   2.0000      -0.623689       -16.9714
  40   2.0000      -0.589148       -16.0315
  41   2.0000      -0.565119       -15.3777
  42   2.0000      -0.555777       -15.1235
  43   2.0000      -0.553527       -15.0622
  44   2.0000      -0.546158       -14.8617
  45   2.0000      -0.537620       -14.6294
  46   2.0000      -0.512267       -13.9395
  47   2.0000      -0.508905       -13.8480
  48   2.0000      -0.503819       -13.7096
  49   2.0000      -0.501780       -13.6541
  50   2.0000      -0.489770       -13.3273
  51   2.0000      -0.478748       -13.0274
  52   2.0000      -0.468369       -12.7450
  53   2.0000      -0.464976       -12.6526
  54   2.0000      -0.457586       -12.4515
  55   2.0000      -0.445080       -12.1112
  56   2.0000      -0.439516       -11.9598
  57   2.0000      -0.433964       -11.8088
  58   2.0000      -0.428870       -11.6702
  59   2.0000      -0.422510       -11.4971
  60   2.0000      -0.414066       -11.2673
  61   2.0000      -0.412429       -11.2228
  62   2.0000      -0.411330       -11.1929
  63   2.0000      -0.353778        -9.6268
  64   2.0000      -0.326988        -8.8978
  65   2.0000      -0.324648        -8.8341
  66   2.0000      -0.290598        -7.9076
  67   0.0000       0.023020         0.6264
  68   0.0000       0.069559         1.8928
  69   0.0000       0.110748         3.0136
  70   0.0000       0.118555         3.2260
  71   0.0000       0.126510         3.4425

MULLIKEN ATOMIC CHARGES
-----------------------
   0 S :    0.088574
   1 C :   -0.137208
   2 C :   -0.050464
   3 C :    0.006875
   4 C :   -0.129249
   5 H :    0.001277
   6 C :    0.014674
   7 H :    0.050699
   8 H :    0.037923
   9 C :   -0.097350
  10 H :    0.032414
  11 H :    0.043582
  12 C :   -0.012008
  13 H :    0.029518
  14 H :    0.019548
  15 H :    0.013216
  16 S :    0.097136
  17 C :   -0.084002
  18 C :   -0.059914
  19 C :   -0.031503
  20 C :   -0.145252
  21 H :    0.046264
  22 C :    0.041533
  23 H :    0.020127
  24 H :    0.050907
  25 C :   -0.093731
  26 H :    0.045690
  27 H :    0.068563
  28 C :   -0.094207
  29 H :    0.043455
  30 H :    0.023860
  31 H :    0.046099
  32 H :    0.063102
  33 H :    0.049849
Sum of atomic charges:   -0.0000000

LOEWDIN ATOMIC CHARGES
----------------------
   0 S :    0.391825
   1 C :   -0.189522
   2 C :   -0.067580
   3 C :   -0.069397
   4 C :   -0.198043
   5 H :    0.024463
   6 C :   -0.047639
   7 H :    0.041321
   8 H :    0.041037
   9 C :   -0.045369
  10 H :    0.029860
  11 H :    0.029499
  12 C :   -0.066571
  13 H :    0.020073
  14 H :    0.026471
  15 H :    0.025427
  16 S :    0.391112
  17 C :   -0.178622
  18 C :   -0.077665
  19 C :   -0.051102
  20 C :   -0.189058
  21 H :    0.045181
  22 C :   -0.045448
  23 H :    0.032488
  24 H :    0.038235
  25 C :   -0.045572
  26 H :    0.030462
  27 H :    0.030355
  28 C :   -0.078899
  29 H :    0.032050
  30 H :    0.024333
  31 H :    0.027331
  32 H :    0.040059
  33 H :    0.028905

  Mayer bond orders larger than 0.100000
B(  0-S ,  1-C ) :   1.1291 B(  0-S ,  4-C ) :   1.1434 B(  1-C ,  2-C ) :   1.6007
B(  1-C , 32-H ) :   0.9681 B(  2-C ,  3-C ) :   1.2409 B(  2-C ,  6-C ) :   1.0237
B(  3-C ,  4-C ) :   1.5663 B(  3-C ,  5-H ) :   0.9932 B(  4-C , 20-C ) :   1.0508
B(  6-C ,  7-H ) :   0.9318 B(  6-C ,  8-H ) :   0.9416 B(  6-C ,  9-C ) :   1.0808
B(  9-C , 10-H ) :   0.9526 B(  9-C , 11-H ) :   0.9473 B(  9-C , 12-C ) :   1.0784
B( 12-C , 13-H ) :   0.9761 B( 12-C , 14-H ) :   0.9683 B( 12-C , 15-H ) :   0.9661
B( 16-S , 17-C ) :   1.1301 B( 16-S , 20-C ) :   1.1472 B( 17-C , 18-C ) :   1.6518
B( 17-C , 33-H ) :   0.9685 B( 18-C , 19-C ) :   1.2290 B( 18-C , 21-H ) :   0.9697
B( 19-C , 20-C ) :   1.5583 B( 19-C , 22-C ) :   1.0533 B( 22-C , 23-H ) :   0.9343
B( 22-C , 24-H ) :   0.9224 B( 22-C , 25-C ) :   1.0742 B( 25-C , 26-H ) :   0.9607
B( 25-C , 27-H ) :   0.9384 B( 25-C , 28-C ) :   1.0614 B( 28-C , 29-H ) :   0.9777
B( 28-C , 30-H ) :   0.9727 B( 28-C , 31-H ) :   0.9711

Dispersion correction           -0.015968992
FINAL SINGLE POINT ENERGY     -1339.866875601042

DIPOLE MOMENT
-------------
                                X             Y             Z
Electronic contribution:      6.68399      16.39188     -20.63350
Nuclear contribution   :     -6.93426     -17.07421      20.90253
                        -----------------------------------------
Total Dipole Moment    :     -0.25027      -0.68233       0.26903
                        -----------------------------------------
Magnitude (a.u.)       :      0.77497
Magnitude (Debye)      :      1.96983

Rotational constants in cm-1:     0.019426     0.010086     0.007857
Rotational constants in MHz :   582.389996   302.372768   235.553842

                             ****ORCA TERMINATED NORMALLY****
TOTAL RUN TIME: 0 days 0 hours 0 minutes 33 seconds 289 msec
