                         Program Version 4.2.1 -  RELEASE  -
|  1> ! wB97X-D3 SP def2-SVP
|  2> %pal
|  3> nprocs 16
|  4> end
|  5>
|  6> * xyz 0 1
|  7> S 	 40.4839 	 28.8596 	 52.3754
|  8> C 	 40.2083 	 30.4393 	 51.5535
|  9> C 	 38.9001 	 30.889 	 51.7032
| 10> C 	 38.0915 	 29.9492 	 52.376
| 11> C 	 38.746 	 28.7613 	 52.72
| 12> H 	 37.0209 	 30.0572 	 52.5931
| 13> C 	 38.2357 	 32.1126 	 50.9972
| 14> H 	 38.9269 	 32.9173 	 51.0826
| 15> H 	 37.3903 	 32.4952 	 51.5753
| 16> C 	 37.7465 	 31.8419 	 49.539
| 17> H 	 37.1483 	 30.9918 	 49.484
| 18> H 	 36.9701 	 32.5979 	 49.3344
| 19> C 	 38.6683 	 31.8184 	 48.412
| 20> H 	 39.1887 	 32.7445 	 48.2912
| 21> H 	 39.3814 	 30.9728 	 48.5456
| 22> H 	 38.0648 	 31.5664 	 47.5303
| 23> S 	 39.3056 	 26.6661 	 54.3
| 24> C 	 38.0446 	 25.6111 	 54.8394
| 25> C 	 36.8447 	 26.0123 	 54.379
| 26> C 	 36.873 	 27.1528 	 53.5033
| 27> C 	 38.2025 	 27.612 	 53.4069
| 28> H 	 36.0387 	 25.3227 	 54.5048
| 29> C 	 35.6385 	 27.7073 	 52.8181
| 30> H 	 35.3008 	 28.6535 	 53.1503
| 31> H 	 34.8617 	 27.0273 	 53.2232
| 32> C 	 35.617 	 27.6997 	 51.2042
| 33> H 	 36.3664 	 26.9165 	 50.8747
| 34> H 	 35.9106 	 28.6832 	 50.783
| 35> C 	 34.2435 	 27.3682 	 50.5682
| 36> H 	 33.9505 	 26.3441 	 50.5955
| 37> H 	 34.1298 	 27.6217 	 49.4769
| 38> H 	 33.4688 	 27.9009 	 51.1061
| 39> H 	 40.9152 	 30.9336 	 50.9911
| 40> H 	 38.0809 	 24.6889 	 55.3968
| 41> *
| 42>
| 43>                          ****END OF INPUT****

CARTESIAN COORDINATES (ANGSTROEM)
---------------------------------
  S     40.483900   28.859600   52.375400
  C     40.208300   30.439300   51.553500
  C     38.900100   30.889000   51.703200
  C     38.091500   29.949200   52.376000
  C     38.746000   28.761300   52.720000
  H     37.020900   30.057200   52.593100
  C     38.235700   32.112600   50.997200
  H     38.926900   32.917300   51.082600
  H     37.390300   32.495200   51.575300
  C     37.746500   31.841900   49.539000
  H     37.148300   30.991800   49.484000
  H     36.970100   32.597900   49.334400
  C     38.668300   31.818400   48.412000
  H     39.188700   32.744500   48.291200
  H     39.381400   30.972800   48.545600
  H     38.064800   31.566400   47.530300
  S     39.305600   26.666100   54.300000
  C     38.044600   25.611100   54.839400
  C     36.844700   26.012300   54.379000
  C     36.873000   27.152800   53.503300
  C     38.202500   27.612000   53.406900
  H     36.038700   25.322700   54.504800
  C     35.638500   27.707300   52.818100
  H     35.300800   28.653500   53.150300
  H     34.861700   27.027300   53.223200
  C     35.617000   27.699700   51.204200
  H     36.366400   26.916500   50.874700
  H     35.910600   28.683200   50.783000
  C     34.243500   27.368200   50.568200
  H     33.950500   26.344100   50.595500
  H     34.129800   27.621700   49.476900
  H     33.468800   27.900900   51.106100
  H     40.915200   30.933600   50.991100
  H     38.080900   24.688900   55.396800

 Total Charge           Charge          ....    0
 Multiplicity           Mult            ....    1
 Number of Electrons    NEL             ....  134
 Basis Dimension        Dim             ....  322

ORBITAL ENERGIES
----------------

  NO   OCC          E(Eh)            E(eV)
   0   2.0000     -88.968287     -2420.9502
   1   2.0000     -88.967429     -2420.9268
   2   2.0000     -10.331748      -281.1412
   3   2.0000     -10.325360      -280.9673
   4   2.0000     -10.313896      -280.6554
   5   2.0000     -10.309683      -280.5407
   6   2.0000     -10.306219      -280.4465
   7   2.0000     -10.303973      -280.3854
   8   2.0000     -10.299282      -280.2577
   9   2.0000     -10.299020      -280.2506
  10   2.0000     -10.296260      -280.1755
  11   2.0000     -10.293609      -280.1033
  12   2.0000     -10.288225      -279.9568
  13   2.0000     -10.279732      -279.7257
  14   2.0000     -10.279405      -279.7168
  15   2.0000     -10.274046      -279.5710
  16   2.0000      -8.083348      -219.9591
  17   2.0000      -8.081832      -219.9178
  18   2.0000      -6.041776      -164.4051
  19   2.0000      -6.040436      -164.3686
  20   2.0000      -6.037701      -164.2942
  21   2.0000      -6.036699      -164.2669
  22   2.0000      -6.034110      -164.1965
  23   2.0000      -6.032388      -164.1496
  24   2.0000      -1.011428       -27.5223
  25   2.0000      -0.980417       -26.6785
  26   2.0000      -0.913029       -24.8448
  27   2.0000      -0.899660       -24.4810
  28   2.0000      -0.876063       -23.8389
  29   2.0000      -0.851514       -23.1709
  30   2.0000      -0.847357       -23.0578
  31   2.0000      -0.815748       -22.1976
  32   2.0000      -0.787275       -21.4228
  33   2.0000      -0.774683       -21.0802
  34   2.0000      -0.711681       -19.3658
  35   2.0000      -0.699935       -19.0462
  36   2.0000      -0.693434       -18.8693
  37   2.0000      -0.663894       -18.0655
  38   2.0000      -0.637252       -17.3405
  39   2.0000      -0.621187       -16.9034
  40   2.0000      -0.597592       -16.2613
  41   2.0000      -0.569975       -15.5098
  42   2.0000      -0.553040       -15.0490
  43   2.0000      -0.547916       -14.9095
  44   2.0000      -0.539085       -14.6692
  45   2.0000      -0.527117       -14.3436
  46   2.0000      -0.521100       -14.1798
  47   2.0000      -0.516808       -14.0631
  48   2.0000      -0.505204       -13.7473
  49   2.0000      -0.494847       -13.4655
  50   2.0000      -0.490485       -13.3468
  51   2.0000      -0.486714       -13.2442
  52   2.0000      -0.473653       -12.8887
  53   2.0000      -0.466104       -12.6833
  54   2.0000      -0.459665       -12.5081
  55   2.0000      -0.447054       -12.1649
  56   2.0000      -0.442278       -12.0350
  57   2.0000      -0.437838       -11.9142
  58   2.0000      -0.435924       -11.8621
  59   2.0000      -0.426764       -11.6128
  60   2.0000      -0.423574       -11.5260
  61   2.0000      -0.415694       -11.3116
  62   2.0000      -0.406356       -11.0575
  63   2.0000      -0.360369        -9.8061
  64   2.0000      -0.337829        -9.1928
  65   2.0000      -0.329607        -8.9691
  66   2.0000      -0.279717        -7.6115
  67   0.0000       0.016623         0.4523
  68   0.0000       0.080631         2.1941
  69   0.0000       0.096629         2.6294
  70   0.0000       0.122417         3.3311
  71   0.0000       0.129847         3.5333

MULLIKEN ATOMIC CHARGES
-----------------------
   0 S :    0.091296
   1 C :   -0.091409
   2 C :   -0.067977
   3 C :   -0.010880
   4 C :   -0.119729
   5 H :    0.009647
   6 C :    0.080286
   7 H :    0.013102
   8 H :    0.022254
   9 C :   -0.051888
  10 H :    0.003900
  11 H :    0.014427
  12 C :   -0.023540
  13 H :    0.028396
  14 H :    0.033416
  15 H :    0.033080
  16 S :    0.109403
  17 C :   -0.075067
  18 C :   -0.033603
  19 C :   -0.071318
  20 C :   -0.113653
  21 H :    0.011208
  22 C :    0.061277
  23 H :    0.033045
  24 H :    0.014895
  25 C :   -0.083531
  26 H :    0.052270
  27 H :    0.045013
  28 C :   -0.067470
  29 H :    0.025661
  30 H :    0.039759
  31 H :    0.024611
  32 H :    0.015497
  33 H :    0.047620
Sum of atomic charges:    0.0000000

LOEWDIN ATOMIC CHARGES
----------------------
   0 S :    0.369350
   1 C :   -0.169493
   2 C :   -0.057075
   3 C :   -0.066184
   4 C :   -0.175948
   5 H :    0.033217
   6 C :   -0.024308
   7 H :    0.023735
   8 H :    0.033834
   9 C :   -0.043998
  10 H :    0.017048
  11 H :    0.026368
  12 C :   -0.061243
  13 H :    0.019842
  14 H :    0.028739
  15 H :    0.033745
  16 S :    0.430613
  17 C :   -0.196851
  18 C :   -0.070964
  19 C :   -0.061748
  20 C :   -0.203330
  21 H :    0.028375
  22 C :   -0.034012
  23 H :    0.022476
  24 H :    0.035958
  25 C :   -0.040214
  26 H :    0.034109
  27 H :    0.025160
  28 C :   -0.073855
  29 H :    0.018901
  30 H :    0.033230
  31 H :    0.021351
  32 H :    0.009457
  33 H :    0.033714

  Mayer bond orders larger than 0.100000
B(  0-S ,  1-C ) :   1.1178 B(  0-S ,  4-C ) :   1.1345 B(  1-C ,  2-C ) :   1.6157
B(  1-C ,  4-C ) :   0.1053 B(  1-C , 32-H ) :   0.9782 B(  2-C ,  3-C ) :   1.2432
B(  2-C ,  6-C ) :   1.0230 B(  3-C ,  4-C ) :   1.5646 B(  3-C ,  5-H ) :   0.9860
B(  4-C , 20-C ) :   1.0948 B(  6-C ,  7-H ) :   0.9405 B(  6-C ,  8-H ) :   0.9414
B(  6-C ,  9-C ) :   1.0566 B(  9-C , 10-H ) :   0.9506 B(  9-C , 11-H ) :   0.9469
B(  9-C , 12-C ) :   1.1046 B( 12-C , 13-H ) :   0.9742 B( 12-C , 14-H ) :   0.9692
B( 12-C , 15-H ) :   0.9657 B( 16-S , 17-C ) :   1.1395 B( 16-S , 20-C ) :   1.1565
B( 17-C , 18-C ) :   1.6456 B( 17-C , 33-H ) :   0.9618 B( 18-C , 19-C ) :   1.2604
B( 18-C , 21-H ) :   0.9805 B( 19-C , 20-C ) :   1.5475 B( 19-C , 22-C ) :   1.0481
B( 22-C , 23-H ) :   0.9287 B( 22-C , 24-H ) :   0.9343 B( 22-C , 25-C ) :   1.0322
B( 25-C , 26-H ) :   0.9644 B( 25-C , 27-H ) :   0.9546 B( 25-C , 28-C ) :   1.0773
B( 28-C , 29-H ) :   0.9768 B( 28-C , 30-H ) :   0.9760 B( 28-C , 31-H ) :   0.9757

Dispersion correction           -0.014688716
FINAL SINGLE POINT ENERGY     -1339.869369475839

DIPOLE MOMENT
-------------
                                X             Y             Z
Electronic contribution:     20.96116     -11.67708      20.71215
Nuclear contribution   :    -21.65910      11.83169     -21.05670
                        -----------------------------------------
Total Dipole Moment    :     -0.69794       0.15461      -0.34456
                        -----------------------------------------
Magnitude (a.u.)       :      0.79357
Magnitude (Debye)      :      2.01709

Rotational constants in cm-1:     0.018178     0.009727     0.006840
Rotational constants in MHz :   544.950781   291.604540   205.064905

                             ****ORCA TERMINATED NORMALLY****
TOTAL RUN TIME: 0 days 0 hours 0 minutes 35 seconds 745 msec
