                         Program Version 4.2.1 -  RELEASE  -
|  1> ! wB97X-D3 SP def2-SVP
|  2> %pal
|  3> nprocs 16
|  4> end
|  5>
|  6> * xyz 0 1
|  7> S 	 -35.2608 	 60.2394 	 112.582
|  8> C 	 -36.6864 	 61.0956 	 112.999
|  9> C 	 -37.1227 	 60.9066 	 114.314
| 10> C 	 -36.249 	 59.9882 	 114.982
| 11> C 	 -35.2512 	 59.5194 	 114.132
| 12> H 	 -36.2722 	 59.6192 	 116.006
| 13> C 	 -38.4432 	 61.4088 	 114.922
| 14> H 	 -39.2103 	 61.5006 	 114.211
| 15> H 	 -38.3417 	 62.3936 	 115.4
| 16> C 	 -39.191 	 60.4781 	 115.906
| 17> H 	 -39.2911 	 59.4996 	 115.417
| 18> H 	 -38.6197 	 60.2624 	 116.801
| 19> C 	 -40.4874 	 60.9737 	 116.487
| 20> H 	 -41.2944 	 60.8619 	 115.777
| 21> H 	 -40.8723 	 60.4856 	 117.341
| 22> H 	 -40.4899 	 62.0673 	 116.588
| 23> S 	 -33.6747 	 57.4052 	 113.327
| 24> C 	 -32.2738 	 57.0166 	 114.307
| 25> C 	 -32.3594 	 57.5905 	 115.607
| 26> C 	 -33.4488 	 58.5052 	 115.728
| 27> C 	 -34.1988 	 58.6115 	 114.539
| 28> H 	 -31.6462 	 57.3079 	 116.377
| 29> C 	 -33.6661 	 59.3158 	 116.969
| 30> H 	 -34.0353 	 60.3567 	 116.937
| 31> H 	 -32.6636 	 59.4489 	 117.443
| 32> C 	 -34.3508 	 58.5229 	 118.094
| 33> H 	 -33.684 	 57.8067 	 118.647
| 34> H 	 -35.2607 	 58.035 	 117.617
| 35> C 	 -34.9502 	 59.3964 	 119.223
| 36> H 	 -35.9171 	 59.9029 	 118.914
| 37> H 	 -34.2445 	 60.0541 	 119.521
| 38> H 	 -35.263 	 58.8026 	 120.129
| 39> H 	 -37.4488 	 61.5335 	 112.325
| 40> H 	 -31.5848 	 56.2085 	 114.225
| 41> *
| 42>
| 43>                          ****END OF INPUT****

CARTESIAN COORDINATES (ANGSTROEM)
---------------------------------
  S    -35.260800   60.239400  112.582000
  C    -36.686400   61.095600  112.999000
  C    -37.122700   60.906600  114.314000
  C    -36.249000   59.988200  114.982000
  C    -35.251200   59.519400  114.132000
  H    -36.272200   59.619200  116.006000
  C    -38.443200   61.408800  114.922000
  H    -39.210300   61.500600  114.211000
  H    -38.341700   62.393600  115.400000
  C    -39.191000   60.478100  115.906000
  H    -39.291100   59.499600  115.417000
  H    -38.619700   60.262400  116.801000
  C    -40.487400   60.973700  116.487000
  H    -41.294400   60.861900  115.777000
  H    -40.872300   60.485600  117.341000
  H    -40.489900   62.067300  116.588000
  S    -33.674700   57.405200  113.327000
  C    -32.273800   57.016600  114.307000
  C    -32.359400   57.590500  115.607000
  C    -33.448800   58.505200  115.728000
  C    -34.198800   58.611500  114.539000
  H    -31.646200   57.307900  116.377000
  C    -33.666100   59.315800  116.969000
  H    -34.035300   60.356700  116.937000
  H    -32.663600   59.448900  117.443000
  C    -34.350800   58.522900  118.094000
  H    -33.684000   57.806700  118.647000
  H    -35.260700   58.035000  117.617000
  C    -34.950200   59.396400  119.223000
  H    -35.917100   59.902900  118.914000
  H    -34.244500   60.054100  119.521000
  H    -35.263000   58.802600  120.129000
  H    -37.448800   61.533500  112.325000
  H    -31.584800   56.208500  114.225000

 Total Charge           Charge          ....    0
 Multiplicity           Mult            ....    1
 Number of Electrons    NEL             ....  134
 Basis Dimension        Dim             ....  322

ORBITAL ENERGIES
----------------

  NO   OCC          E(Eh)            E(eV)
   0   2.0000     -88.973176     -2421.0832
   1   2.0000     -88.970915     -2421.0217
   2   2.0000     -10.330715      -281.1131
   3   2.0000     -10.325172      -280.9622
   4   2.0000     -10.318917      -280.7920
   5   2.0000     -10.311827      -280.5991
   6   2.0000     -10.309002      -280.5222
   7   2.0000     -10.306826      -280.4630
   8   2.0000     -10.299947      -280.2758
   9   2.0000     -10.296010      -280.1687
  10   2.0000     -10.295692      -280.1600
  11   2.0000     -10.294396      -280.1248
  12   2.0000     -10.294165      -280.1185
  13   2.0000     -10.285350      -279.8786
  14   2.0000     -10.279512      -279.7197
  15   2.0000     -10.275061      -279.5986
  16   2.0000      -8.088713      -220.1051
  17   2.0000      -8.084593      -219.9929
  18   2.0000      -6.047073      -164.5492
  19   2.0000      -6.043164      -164.4429
  20   2.0000      -6.043141      -164.4422
  21   2.0000      -6.039512      -164.3435
  22   2.0000      -6.039280      -164.3372
  23   2.0000      -6.035352      -164.2303
  24   2.0000      -1.010131       -27.4871
  25   2.0000      -0.981247       -26.7011
  26   2.0000      -0.914375       -24.8814
  27   2.0000      -0.910003       -24.7624
  28   2.0000      -0.869439       -23.6586
  29   2.0000      -0.856496       -23.3064
  30   2.0000      -0.849459       -23.1149
  31   2.0000      -0.811747       -22.0888
  32   2.0000      -0.787195       -21.4207
  33   2.0000      -0.773025       -21.0351
  34   2.0000      -0.709150       -19.2969
  35   2.0000      -0.693165       -18.8620
  36   2.0000      -0.687377       -18.7045
  37   2.0000      -0.663846       -18.0642
  38   2.0000      -0.640198       -17.4207
  39   2.0000      -0.621955       -16.9243
  40   2.0000      -0.598471       -16.2852
  41   2.0000      -0.570773       -15.5315
  42   2.0000      -0.569036       -15.4843
  43   2.0000      -0.564613       -15.3639
  44   2.0000      -0.531481       -14.4623
  45   2.0000      -0.524487       -14.2720
  46   2.0000      -0.516925       -14.0663
  47   2.0000      -0.505885       -13.7658
  48   2.0000      -0.504642       -13.7320
  49   2.0000      -0.495871       -13.4933
  50   2.0000      -0.487397       -13.2627
  51   2.0000      -0.482155       -13.1201
  52   2.0000      -0.475258       -12.9324
  53   2.0000      -0.472497       -12.8573
  54   2.0000      -0.459638       -12.5074
  55   2.0000      -0.457690       -12.4544
  56   2.0000      -0.443478       -12.0676
  57   2.0000      -0.438465       -11.9312
  58   2.0000      -0.430698       -11.7199
  59   2.0000      -0.423797       -11.5321
  60   2.0000      -0.422862       -11.5067
  61   2.0000      -0.410253       -11.1635
  62   2.0000      -0.409278       -11.1370
  63   2.0000      -0.347966        -9.4686
  64   2.0000      -0.336948        -9.1688
  65   2.0000      -0.331574        -9.0226
  66   2.0000      -0.284417        -7.7394
  67   0.0000       0.020693         0.5631
  68   0.0000       0.072680         1.9777
  69   0.0000       0.103709         2.8221
  70   0.0000       0.117211         3.1895
  71   0.0000       0.120499         3.2789

MULLIKEN ATOMIC CHARGES
-----------------------
   0 S :    0.148517
   1 C :   -0.119080
   2 C :   -0.077850
   3 C :    0.003239
   4 C :   -0.132741
   5 H :    0.004292
   6 C :    0.084417
   7 H :    0.010596
   8 H :    0.040343
   9 C :   -0.111555
  10 H :    0.035243
  11 H :    0.023060
  12 C :   -0.020602
  13 H :    0.011195
  14 H :    0.031550
  15 H :    0.022870
  16 S :    0.107647
  17 C :   -0.069616
  18 C :   -0.065190
  19 C :    0.015511
  20 C :   -0.169865
  21 H :    0.026533
  22 C :    0.021587
  23 H :    0.049857
  24 H :    0.022051
  25 C :   -0.124499
  26 H :    0.046332
  27 H :    0.043758
  28 C :   -0.054561
  29 H :    0.040017
  30 H :    0.012496
  31 H :    0.040032
  32 H :    0.055122
  33 H :    0.049295
Sum of atomic charges:   -0.0000000

LOEWDIN ATOMIC CHARGES
----------------------
   0 S :    0.449087
   1 C :   -0.224317
   2 C :   -0.056445
   3 C :   -0.062510
   4 C :   -0.210014
   5 H :    0.031970
   6 C :   -0.028608
   7 H :    0.023927
   8 H :    0.034543
   9 C :   -0.046818
  10 H :    0.026972
  11 H :    0.017379
  12 C :   -0.064763
  13 H :    0.021976
  14 H :    0.025085
  15 H :    0.028745
  16 S :    0.393309
  17 C :   -0.188972
  18 C :   -0.062839
  19 C :   -0.052113
  20 C :   -0.183678
  21 H :    0.033114
  22 C :   -0.048404
  23 H :    0.037086
  24 H :    0.036818
  25 C :   -0.047071
  26 H :    0.029652
  27 H :    0.025296
  28 C :   -0.066436
  29 H :    0.028923
  30 H :    0.004662
  31 H :    0.033611
  32 H :    0.035709
  33 H :    0.025122

  Mayer bond orders larger than 0.100000
B(  0-S ,  1-C ) :   1.1458 B(  0-S ,  4-C ) :   1.1675 B(  1-C ,  2-C ) :   1.6138
B(  1-C , 32-H ) :   0.9543 B(  2-C ,  3-C ) :   1.2498 B(  2-C ,  6-C ) :   1.0161
B(  3-C ,  4-C ) :   1.5422 B(  3-C ,  5-H ) :   0.9959 B(  4-C , 20-C ) :   1.0666
B(  6-C ,  7-H ) :   0.9506 B(  6-C ,  8-H ) :   0.9287 B(  6-C ,  9-C ) :   1.0673
B(  9-C , 10-H ) :   0.9578 B(  9-C , 11-H ) :   0.9504 B(  9-C , 12-C ) :   1.0833
B( 12-C , 13-H ) :   0.9693 B( 12-C , 14-H ) :   0.9745 B( 12-C , 15-H ) :   0.9704
B( 16-S , 17-C ) :   1.1496 B( 16-S , 20-C ) :   1.1337 B( 17-C , 18-C ) :   1.6058
B( 17-C , 20-C ) :   0.1044 B( 17-C , 33-H ) :   0.9648 B( 18-C , 19-C ) :   1.2593
B( 18-C , 21-H ) :   0.9827 B( 19-C , 20-C ) :   1.5587 B( 19-C , 22-C ) :   1.0515
B( 22-C , 23-H ) :   0.9472 B( 22-C , 24-H ) :   0.9221 B( 22-C , 25-C ) :   1.0364
B( 25-C , 26-H ) :   0.9579 B( 25-C , 27-H ) :   0.9618 B( 25-C , 28-C ) :   1.0798
B( 28-C , 29-H ) :   0.9770 B( 28-C , 30-H ) :   0.9723 B( 28-C , 31-H ) :   0.9740

Dispersion correction           -0.014112835
FINAL SINGLE POINT ENERGY     -1339.855669716311

DIPOLE MOMENT
-------------
                                X             Y             Z
Electronic contribution:     17.80825      -7.15049     -27.47006
Nuclear contribution   :    -18.07167       7.17388      28.13756
                        -----------------------------------------
Total Dipole Moment    :     -0.26342       0.02338       0.66750
                        -----------------------------------------
Magnitude (a.u.)       :      0.71798
Magnitude (Debye)      :      1.82496

Rotational constants in cm-1:     0.016890     0.009459     0.006602
Rotational constants in MHz :   506.358752   283.567840   197.913597

                             ****ORCA TERMINATED NORMALLY****
TOTAL RUN TIME: 0 days 0 hours 0 minutes 28 seconds 485 msec
