                         Program Version 4.2.1 -  RELEASE  -
|  1> ! wB97X-D3 SP def2-SVP
|  2> %pal
|  3> nprocs 16
|  4> end
|  5>
|  6> * xyz 0 1
|  7> S 	 42.5709 	 22.3577 	 44.2733
|  8> C 	 40.8866 	 21.9413 	 44.3238
|  9> C 	 40.3276 	 22.5949 	 45.4324
| 10> C 	 41.294 	 23.2971 	 46.2174
| 11> C 	 42.5732 	 23.248 	 45.7609
| 12> H 	 41.0274 	 23.8923 	 47.1018
| 13> C 	 38.8736 	 22.894 	 45.6934
| 14> H 	 38.3156 	 22.3286 	 44.9628
| 15> H 	 38.7387 	 23.9778 	 45.3916
| 16> C 	 38.3869 	 22.6398 	 47.1797
| 17> H 	 39.0731 	 23.1217 	 47.8401
| 18> H 	 37.4055 	 23.0491 	 47.3477
| 19> C 	 38.4347 	 21.1625 	 47.5141
| 20> H 	 38.117 	 20.9676 	 48.461
| 21> H 	 37.7755 	 20.6351 	 46.8228
| 22> H 	 39.4515 	 20.7914 	 47.4164
| 23> S 	 44.736 	 25.0097 	 45.4656
| 24> C 	 45.8128 	 25.3262 	 46.7512
| 25> C 	 45.4431 	 24.6531 	 47.8561
| 26> C 	 44.2861 	 23.8057 	 47.7061
| 27> C 	 43.7558 	 23.8852 	 46.3988
| 28> H 	 45.9017 	 24.9441 	 48.7842
| 29> C 	 43.6966 	 23.1258 	 48.8938
| 30> H 	 42.7932 	 22.5195 	 48.5212
| 31> H 	 43.222 	 23.8011 	 49.5891
| 32> C 	 44.6422 	 22.1754 	 49.7611
| 33> H 	 45.5411 	 22.6548 	 50.045
| 34> H 	 45.1354 	 21.2771 	 49.293
| 35> C 	 43.9847 	 21.6783 	 51.0306
| 36> H 	 44.555 	 20.9321 	 51.6305
| 37> H 	 43.0477 	 21.1852 	 50.7189
| 38> H 	 43.8466 	 22.5909 	 51.6387
| 39> H 	 40.3587 	 21.3275 	 43.6125
| 40> H 	 46.6945 	 26.0295 	 46.7492
| 41> *
| 42>
| 43>                          ****END OF INPUT****

CARTESIAN COORDINATES (ANGSTROEM)
---------------------------------
  S     42.570900   22.357700   44.273300
  C     40.886600   21.941300   44.323800
  C     40.327600   22.594900   45.432400
  C     41.294000   23.297100   46.217400
  C     42.573200   23.248000   45.760900
  H     41.027400   23.892300   47.101800
  C     38.873600   22.894000   45.693400
  H     38.315600   22.328600   44.962800
  H     38.738700   23.977800   45.391600
  C     38.386900   22.639800   47.179700
  H     39.073100   23.121700   47.840100
  H     37.405500   23.049100   47.347700
  C     38.434700   21.162500   47.514100
  H     38.117000   20.967600   48.461000
  H     37.775500   20.635100   46.822800
  H     39.451500   20.791400   47.416400
  S     44.736000   25.009700   45.465600
  C     45.812800   25.326200   46.751200
  C     45.443100   24.653100   47.856100
  C     44.286100   23.805700   47.706100
  C     43.755800   23.885200   46.398800
  H     45.901700   24.944100   48.784200
  C     43.696600   23.125800   48.893800
  H     42.793200   22.519500   48.521200
  H     43.222000   23.801100   49.589100
  C     44.642200   22.175400   49.761100
  H     45.541100   22.654800   50.045000
  H     45.135400   21.277100   49.293000
  C     43.984700   21.678300   51.030600
  H     44.555000   20.932100   51.630500
  H     43.047700   21.185200   50.718900
  H     43.846600   22.590900   51.638700
  H     40.358700   21.327500   43.612500
  H     46.694500   26.029500   46.749200

 Total Charge           Charge          ....    0
 Multiplicity           Mult            ....    1
 Number of Electrons    NEL             ....  134
 Basis Dimension        Dim             ....  322

ORBITAL ENERGIES
----------------

  NO   OCC          E(Eh)            E(eV)
   0   2.0000     -88.965512     -2420.8747
   1   2.0000     -88.964694     -2420.8524
   2   2.0000     -10.335625      -281.2467
   3   2.0000     -10.331198      -281.1262
   4   2.0000     -10.318771      -280.7880
   5   2.0000     -10.316522      -280.7268
   6   2.0000     -10.309156      -280.5264
   7   2.0000     -10.301809      -280.3265
   8   2.0000     -10.301458      -280.3169
   9   2.0000     -10.296351      -280.1780
  10   2.0000     -10.291118      -280.0356
  11   2.0000     -10.287879      -279.9474
  12   2.0000     -10.286258      -279.9033
  13   2.0000     -10.285746      -279.8894
  14   2.0000     -10.281366      -279.7702
  15   2.0000     -10.266233      -279.3584
  16   2.0000      -8.080697      -219.8869
  17   2.0000      -8.080191      -219.8732
  18   2.0000      -6.039265      -164.3368
  19   2.0000      -6.038700      -164.3214
  20   2.0000      -6.034978      -164.2201
  21   2.0000      -6.034437      -164.2054
  22   2.0000      -6.031487      -164.1251
  23   2.0000      -6.031043      -164.1130
  24   2.0000      -1.009889       -27.4805
  25   2.0000      -0.991169       -26.9711
  26   2.0000      -0.910639       -24.7797
  27   2.0000      -0.904994       -24.6261
  28   2.0000      -0.872151       -23.7324
  29   2.0000      -0.854043       -23.2397
  30   2.0000      -0.847179       -23.0529
  31   2.0000      -0.820071       -22.3153
  32   2.0000      -0.779051       -21.1991
  33   2.0000      -0.768435       -20.9102
  34   2.0000      -0.709584       -19.3088
  35   2.0000      -0.698524       -19.0078
  36   2.0000      -0.696122       -18.9424
  37   2.0000      -0.652180       -17.7467
  38   2.0000      -0.639728       -17.4079
  39   2.0000      -0.627830       -17.0841
  40   2.0000      -0.599914       -16.3245
  41   2.0000      -0.571693       -15.5566
  42   2.0000      -0.557521       -15.1709
  43   2.0000      -0.553924       -15.0730
  44   2.0000      -0.541048       -14.7227
  45   2.0000      -0.526380       -14.3235
  46   2.0000      -0.518742       -14.1157
  47   2.0000      -0.513090       -13.9619
  48   2.0000      -0.511396       -13.9158
  49   2.0000      -0.503349       -13.6968
  50   2.0000      -0.489897       -13.3308
  51   2.0000      -0.481645       -13.1062
  52   2.0000      -0.469738       -12.7822
  53   2.0000      -0.459072       -12.4920
  54   2.0000      -0.456988       -12.4353
  55   2.0000      -0.450806       -12.2671
  56   2.0000      -0.446861       -12.1597
  57   2.0000      -0.437585       -11.9073
  58   2.0000      -0.428300       -11.6546
  59   2.0000      -0.426488       -11.6053
  60   2.0000      -0.421890       -11.4802
  61   2.0000      -0.415082       -11.2950
  62   2.0000      -0.407692       -11.0939
  63   2.0000      -0.349626        -9.5138
  64   2.0000      -0.328805        -8.9472
  65   2.0000      -0.326042        -8.8720
  66   2.0000      -0.299761        -8.1569
  67   0.0000       0.034823         0.9476
  68   0.0000       0.069858         1.9009
  69   0.0000       0.115092         3.1318
  70   0.0000       0.121464         3.3052
  71   0.0000       0.132972         3.6183

MULLIKEN ATOMIC CHARGES
-----------------------
   0 S :    0.114655
   1 C :   -0.117370
   2 C :   -0.106765
   3 C :    0.006230
   4 C :   -0.132467
   5 H :    0.025248
   6 C :    0.037698
   7 H :    0.007861
   8 H :    0.056901
   9 C :   -0.053643
  10 H :    0.016627
  11 H :    0.028350
  12 C :   -0.012016
  13 H :    0.010196
  14 H :    0.021518
  15 H :    0.037125
  16 S :    0.107822
  17 C :   -0.102361
  18 C :   -0.037482
  19 C :    0.005531
  20 C :   -0.164556
  21 H :    0.017586
  22 C :    0.029051
  23 H :    0.036354
  24 H :    0.032728
  25 C :   -0.073049
  26 H :    0.008846
  27 H :    0.030560
  28 C :   -0.076170
  29 H :    0.044032
  30 H :    0.036567
  31 H :    0.033624
  32 H :    0.052838
  33 H :    0.077932
Sum of atomic charges:   -0.0000000

LOEWDIN ATOMIC CHARGES
----------------------
   0 S :    0.422767
   1 C :   -0.201827
   2 C :   -0.070834
   3 C :   -0.069332
   4 C :   -0.202605
   5 H :    0.033653
   6 C :   -0.031220
   7 H :    0.021785
   8 H :    0.043240
   9 C :   -0.032037
  10 H :    0.016239
  11 H :    0.022159
  12 C :   -0.052882
  13 H :    0.011042
  14 H :    0.024520
  15 H :    0.028284
  16 S :    0.418848
  17 C :   -0.203757
  18 C :   -0.078990
  19 C :   -0.054433
  20 C :   -0.194045
  21 H :    0.029825
  22 C :   -0.036248
  23 H :    0.039740
  24 H :    0.031350
  25 C :   -0.048983
  26 H :    0.012479
  27 H :    0.030826
  28 C :   -0.070720
  29 H :    0.030821
  30 H :    0.026243
  31 H :    0.025303
  32 H :    0.031467
  33 H :    0.047322

  Mayer bond orders larger than 0.100000
B(  0-S ,  1-C ) :   1.1492 B(  0-S ,  4-C ) :   1.1590 B(  1-C ,  2-C ) :   1.5719
B(  1-C , 32-H ) :   0.9741 B(  2-C ,  3-C ) :   1.2518 B(  2-C ,  6-C ) :   1.0243
B(  3-C ,  4-C ) :   1.5696 B(  3-C ,  5-H ) :   0.9912 B(  4-C , 20-C ) :   1.0199
B(  6-C ,  7-H ) :   0.9443 B(  6-C ,  8-H ) :   0.9451 B(  6-C ,  9-C ) :   1.0555
B(  9-C , 10-H ) :   0.9577 B(  9-C , 11-H ) :   0.9572 B(  9-C , 12-C ) :   1.0801
B( 12-C , 13-H ) :   0.9715 B( 12-C , 14-H ) :   0.9755 B( 12-C , 15-H ) :   0.9731
B( 16-S , 17-C ) :   1.1585 B( 16-S , 20-C ) :   1.1516 B( 17-C , 18-C ) :   1.6282
B( 17-C , 33-H ) :   0.9561 B( 18-C , 19-C ) :   1.2346 B( 18-C , 21-H ) :   0.9881
B( 19-C , 20-C ) :   1.5774 B( 19-C , 22-C ) :   1.0604 B( 22-C , 23-H ) :   0.9303
B( 22-C , 24-H ) :   0.9394 B( 22-C , 25-C ) :   1.0331 B( 25-C , 26-H ) :   0.9571
B( 25-C , 27-H ) :   0.9554 B( 25-C , 28-C ) :   1.0839 B( 28-C , 29-H ) :   0.9739
B( 28-C , 30-H ) :   0.9762 B( 28-C , 31-H ) :   0.9759

Dispersion correction           -0.013845262
FINAL SINGLE POINT ENERGY     -1339.875654773907

DIPOLE MOMENT
-------------
                                X             Y             Z
Electronic contribution:     14.78384      10.39390     -24.03681
Nuclear contribution   :    -15.12269     -10.27204      24.61531
                        -----------------------------------------
Total Dipole Moment    :     -0.33885       0.12186       0.57849
                        -----------------------------------------
Magnitude (a.u.)       :      0.68142
Magnitude (Debye)      :      1.73202

Rotational constants in cm-1:     0.016032     0.009391     0.006684
Rotational constants in MHz :   480.614199   281.543577   200.371943

                             ****ORCA TERMINATED NORMALLY****
TOTAL RUN TIME: 0 days 0 hours 0 minutes 34 seconds 334 msec
