                         Program Version 4.2.1 -  RELEASE  -
|  1> ! wB97X-D3 SP def2-SVP
|  2> %pal
|  3> nprocs 16
|  4> end
|  5>
|  6> * xyz 0 1
|  7> S 	 -44.7205 	 27.4497 	 86.1452
|  8> C 	 -45.0811 	 27.6302 	 84.3557
|  9> C 	 -44.1377 	 26.9546 	 83.5692
| 10> C 	 -43.2055 	 26.2229 	 84.3823
| 11> C 	 -43.3374 	 26.4772 	 85.7461
| 12> H 	 -42.4498 	 25.5841 	 83.9677
| 13> C 	 -44.0555 	 26.8325 	 82.0399
| 14> H 	 -43.0313 	 26.9643 	 81.9668
| 15> H 	 -44.6339 	 27.5943 	 81.5664
| 16> C 	 -44.4776 	 25.4233 	 81.5927
| 17> H 	 -43.8925 	 25.1855 	 80.66
| 18> H 	 -44.1601 	 24.7221 	 82.2711
| 19> C 	 -45.9791 	 25.3451 	 81.4726
| 20> H 	 -46.1318 	 24.3691 	 80.9231
| 21> H 	 -46.5624 	 25.2838 	 82.3901
| 22> H 	 -46.4081 	 26.056 	 80.7447
| 23> S 	 -42.7632 	 24.1647 	 87.0934
| 24> C 	 -41.7397 	 24.2337 	 88.4655
| 25> C 	 -41.0865 	 25.4507 	 88.5843
| 26> C 	 -41.634 	 26.4128 	 87.7299
| 27> C 	 -42.5785 	 25.8995 	 86.8453
| 28> H 	 -40.2888 	 25.5147 	 89.2857
| 29> C 	 -41.0673 	 27.8263 	 87.7541
| 30> H 	 -41.0006 	 28.0965 	 88.7878
| 31> H 	 -41.9191 	 28.5025 	 87.4291
| 32> C 	 -39.7159 	 28.0771 	 87.1194
| 33> H 	 -38.9941 	 27.5493 	 87.7247
| 34> H 	 -39.566 	 29.1108 	 87.2471
| 35> C 	 -39.3862 	 27.67 	 85.7163
| 36> H 	 -38.3076 	 27.4838 	 85.4769
| 37> H 	 -39.7653 	 28.4711 	 85.0822
| 38> H 	 -39.8649 	 26.8537 	 85.3031
| 39> H 	 -45.9468 	 28.0482 	 84.0605
| 40> H 	 -41.3451 	 23.3581 	 88.9609
| 41> *
| 42>
| 43>                          ****END OF INPUT****

CARTESIAN COORDINATES (ANGSTROEM)
---------------------------------
  S    -44.720500   27.449700   86.145200
  C    -45.081100   27.630200   84.355700
  C    -44.137700   26.954600   83.569200
  C    -43.205500   26.222900   84.382300
  C    -43.337400   26.477200   85.746100
  H    -42.449800   25.584100   83.967700
  C    -44.055500   26.832500   82.039900
  H    -43.031300   26.964300   81.966800
  H    -44.633900   27.594300   81.566400
  C    -44.477600   25.423300   81.592700
  H    -43.892500   25.185500   80.660000
  H    -44.160100   24.722100   82.271100
  C    -45.979100   25.345100   81.472600
  H    -46.131800   24.369100   80.923100
  H    -46.562400   25.283800   82.390100
  H    -46.408100   26.056000   80.744700
  S    -42.763200   24.164700   87.093400
  C    -41.739700   24.233700   88.465500
  C    -41.086500   25.450700   88.584300
  C    -41.634000   26.412800   87.729900
  C    -42.578500   25.899500   86.845300
  H    -40.288800   25.514700   89.285700
  C    -41.067300   27.826300   87.754100
  H    -41.000600   28.096500   88.787800
  H    -41.919100   28.502500   87.429100
  C    -39.715900   28.077100   87.119400
  H    -38.994100   27.549300   87.724700
  H    -39.566000   29.110800   87.247100
  C    -39.386200   27.670000   85.716300
  H    -38.307600   27.483800   85.476900
  H    -39.765300   28.471100   85.082200
  H    -39.864900   26.853700   85.303100
  H    -45.946800   28.048200   84.060500
  H    -41.345100   23.358100   88.960900

 Total Charge           Charge          ....    0
 Multiplicity           Mult            ....    1
 Number of Electrons    NEL             ....  134
 Basis Dimension        Dim             ....  322

ORBITAL ENERGIES
----------------

  NO   OCC          E(Eh)            E(eV)
   0   2.0000     -88.964838     -2420.8563
   1   2.0000     -88.964618     -2420.8503
   2   2.0000     -10.329935      -281.0918
   3   2.0000     -10.323340      -280.9123
   4   2.0000     -10.311694      -280.5955
   5   2.0000     -10.310499      -280.5629
   6   2.0000     -10.305652      -280.4311
   7   2.0000     -10.299487      -280.2633
   8   2.0000     -10.294722      -280.1336
   9   2.0000     -10.288476      -279.9637
  10   2.0000     -10.286771      -279.9173
  11   2.0000     -10.286031      -279.8971
  12   2.0000     -10.285260      -279.8762
  13   2.0000     -10.281545      -279.7751
  14   2.0000     -10.277847      -279.6744
  15   2.0000     -10.266141      -279.3559
  16   2.0000      -8.079811      -219.8628
  17   2.0000      -8.078516      -219.8276
  18   2.0000      -6.038117      -164.3055
  19   2.0000      -6.036991      -164.2749
  20   2.0000      -6.034297      -164.2016
  21   2.0000      -6.033277      -164.1738
  22   2.0000      -6.030716      -164.1041
  23   2.0000      -6.029269      -164.0648
  24   2.0000      -1.004952       -27.3461
  25   2.0000      -0.978722       -26.6324
  26   2.0000      -0.918186       -24.9851
  27   2.0000      -0.910817       -24.7846
  28   2.0000      -0.866135       -23.5687
  29   2.0000      -0.853522       -23.2255
  30   2.0000      -0.843738       -22.9593
  31   2.0000      -0.809433       -22.0258
  32   2.0000      -0.789220       -21.4758
  33   2.0000      -0.777601       -21.1596
  34   2.0000      -0.710694       -19.3390
  35   2.0000      -0.703111       -19.1326
  36   2.0000      -0.691547       -18.8180
  37   2.0000      -0.662320       -18.0227
  38   2.0000      -0.642405       -17.4807
  39   2.0000      -0.623321       -16.9614
  40   2.0000      -0.593892       -16.1606
  41   2.0000      -0.569145       -15.4872
  42   2.0000      -0.559242       -15.2177
  43   2.0000      -0.551625       -15.0105
  44   2.0000      -0.545023       -14.8308
  45   2.0000      -0.536389       -14.5959
  46   2.0000      -0.520076       -14.1520
  47   2.0000      -0.517241       -14.0748
  48   2.0000      -0.502591       -13.6762
  49   2.0000      -0.495923       -13.4948
  50   2.0000      -0.489983       -13.3331
  51   2.0000      -0.478839       -13.0299
  52   2.0000      -0.464431       -12.6378
  53   2.0000      -0.459630       -12.5072
  54   2.0000      -0.457141       -12.4395
  55   2.0000      -0.451435       -12.2842
  56   2.0000      -0.448003       -12.1908
  57   2.0000      -0.443293       -12.0626
  58   2.0000      -0.439933       -11.9712
  59   2.0000      -0.424479       -11.5507
  60   2.0000      -0.416677       -11.3384
  61   2.0000      -0.410473       -11.1695
  62   2.0000      -0.401410       -10.9229
  63   2.0000      -0.334758        -9.1092
  64   2.0000      -0.329081        -8.9548
  65   2.0000      -0.327617        -8.9149
  66   2.0000      -0.297847        -8.1048
  67   0.0000       0.038762         1.0548
  68   0.0000       0.057832         1.5737
  69   0.0000       0.106515         2.8984
  70   0.0000       0.112107         3.0506
  71   0.0000       0.129487         3.5235

MULLIKEN ATOMIC CHARGES
-----------------------
   0 S :    0.099873
   1 C :   -0.098517
   2 C :   -0.105909
   3 C :    0.020821
   4 C :   -0.147474
   5 H :    0.010670
   6 C :    0.131450
   7 H :    0.012170
   8 H :    0.018035
   9 C :   -0.048470
  10 H :    0.035315
  11 H :    0.009489
  12 C :   -0.069688
  13 H :    0.030847
  14 H :    0.054708
  15 H :    0.032308
  16 S :    0.121140
  17 C :   -0.085932
  18 C :   -0.052095
  19 C :   -0.019932
  20 C :   -0.182924
  21 H :    0.010057
  22 C :    0.075872
  23 H :    0.014477
  24 H :    0.023704
  25 C :   -0.021546
  26 H :    0.013929
  27 H :    0.024053
  28 C :   -0.026563
  29 H :    0.036261
  30 H :    0.020457
  31 H :    0.007940
  32 H :    0.001831
  33 H :    0.053643
Sum of atomic charges:   -0.0000000

LOEWDIN ATOMIC CHARGES
----------------------
   0 S :    0.382083
   1 C :   -0.163599
   2 C :   -0.045593
   3 C :   -0.067255
   4 C :   -0.193132
   5 H :    0.027194
   6 C :   -0.016749
   7 H :    0.023640
   8 H :    0.026222
   9 C :   -0.034175
  10 H :    0.031384
  11 H :    0.013906
  12 C :   -0.070221
  13 H :    0.034773
  14 H :    0.030428
  15 H :    0.025681
  16 S :    0.423435
  17 C :   -0.196261
  18 C :   -0.068913
  19 C :   -0.056776
  20 C :   -0.207677
  21 H :    0.028195
  22 C :   -0.032507
  23 H :    0.030216
  24 H :    0.031489
  25 C :   -0.036542
  26 H :    0.022582
  27 H :    0.024720
  28 C :   -0.067150
  29 H :    0.033960
  30 H :    0.028179
  31 H :    0.014187
  32 H :   -0.001907
  33 H :    0.026183

  Mayer bond orders larger than 0.100000
B(  0-S ,  1-C ) :   1.1141 B(  0-S ,  4-C ) :   1.1618 B(  1-C ,  2-C ) :   1.6159
B(  1-C , 32-H ) :   0.9891 B(  2-C ,  3-C ) :   1.2207 B(  2-C ,  6-C ) :   1.0017
B(  3-C ,  4-C ) :   1.5918 B(  3-C ,  5-H ) :   0.9907 B(  4-C , 20-C ) :   1.0137
B(  6-C ,  7-H ) :   0.9291 B(  6-C ,  8-H ) :   0.9480 B(  6-C ,  9-C ) :   1.0734
B(  9-C , 10-H ) :   0.9549 B(  9-C , 11-H ) :   0.9535 B(  9-C , 12-C ) :   1.0759
B( 12-C , 13-H ) :   0.9694 B( 12-C , 14-H ) :   0.9748 B( 12-C , 15-H ) :   0.9759
B( 16-S , 17-C ) :   1.1774 B( 16-S , 20-C ) :   1.1523 B( 17-C , 18-C ) :   1.5942
B( 17-C , 20-C ) :   0.1030 B( 17-C , 33-H ) :   0.9610 B( 18-C , 19-C ) :   1.2550
B( 18-C , 21-H ) :   0.9983 B( 19-C , 20-C ) :   1.5735 B( 19-C , 22-C ) :   1.0413
B( 22-C , 23-H ) :   0.9258 B( 22-C , 24-H ) :   0.9269 B( 22-C , 25-C ) :   1.0804
B( 25-C , 26-H ) :   0.9512 B( 25-C , 27-H ) :   0.9543 B( 25-C , 28-C ) :   1.0754
B( 28-C , 29-H ) :   0.9745 B( 28-C , 30-H ) :   0.9724 B( 28-C , 31-H ) :   0.9735

Dispersion correction           -0.015023327
FINAL SINGLE POINT ENERGY     -1339.854008758955

DIPOLE MOMENT
-------------
                                X             Y             Z
Electronic contribution:     -7.69830      -5.04288      16.37065
Nuclear contribution   :      8.06369       4.98613     -16.76390
                        -----------------------------------------
Total Dipole Moment    :      0.36538      -0.05675      -0.39324
                        -----------------------------------------
Magnitude (a.u.)       :      0.53978
Magnitude (Debye)      :      1.37202

Rotational constants in cm-1:     0.021145     0.008204     0.007475
Rotational constants in MHz :   633.911106   245.934783   224.103682

                             ****ORCA TERMINATED NORMALLY****
TOTAL RUN TIME: 0 days 0 hours 0 minutes 30 seconds 949 msec
