                         Program Version 4.2.1 -  RELEASE  -
|  1> ! wB97X-D3 SP def2-SVP
|  2> %pal
|  3> nprocs 16
|  4> end
|  5>
|  6> * xyz 0 1
|  7> S 	 13.4718 	 20.3138 	 38.8745
|  8> C 	 13.956 	 20.4561 	 37.2309
|  9> C 	 13.1521 	 19.6474 	 36.397
| 10> C 	 12.0349 	 19.1209 	 37.1398
| 11> C 	 12.0291 	 19.5309 	 38.4439
| 12> H 	 11.2552 	 18.5968 	 36.7126
| 13> C 	 13.3018 	 19.4543 	 34.9312
| 14> H 	 13.1779 	 18.4133 	 34.6636
| 15> H 	 14.352 	 19.6148 	 34.8097
| 16> C 	 12.5622 	 20.3391 	 33.9985
| 17> H 	 13.1336 	 20.2975 	 33.0323
| 18> H 	 11.5408 	 20.0219 	 33.868
| 19> C 	 12.7679 	 21.8533 	 34.3578
| 20> H 	 12.549 	 22.3881 	 33.4338
| 21> H 	 12.0959 	 22.3147 	 35.0578
| 22> H 	 13.7798 	 22.1077 	 34.5847
| 23> S 	 11.501 	 19.062 	 41.1189
| 24> C 	 9.90211 	 18.2426 	 41.4445
| 25> C 	 8.98906 	 18.6943 	 40.523
| 26> C 	 9.63382 	 19.0984 	 39.2941
| 27> C 	 11.015 	 19.2233 	 39.4192
| 28> H 	 7.93515 	 18.5563 	 40.6447
| 29> C 	 8.91117 	 19.432 	 37.957
| 30> H 	 9.49174 	 20.1567 	 37.325
| 31> H 	 8.03818 	 19.9856 	 38.3113
| 32> C 	 8.48157 	 18.2696 	 37.0484
| 33> H 	 7.6853 	 17.7977 	 37.5261
| 34> H 	 9.23749 	 17.5197 	 36.9632
| 35> C 	 7.94705 	 18.7522 	 35.6896
| 36> H 	 7.59139 	 17.9016 	 35.1595
| 37> H 	 8.77492 	 19.4001 	 35.1871
| 38> H 	 7.08023 	 19.3762 	 35.822
| 39> H 	 14.7775 	 21.0301 	 36.8732
| 40> H 	 9.45332 	 18.0479 	 42.4474
| 41> *
| 42>
| 43>                          ****END OF INPUT****

CARTESIAN COORDINATES (ANGSTROEM)
---------------------------------
  S     13.471800   20.313800   38.874500
  C     13.956000   20.456100   37.230900
  C     13.152100   19.647400   36.397000
  C     12.034900   19.120900   37.139800
  C     12.029100   19.530900   38.443900
  H     11.255200   18.596800   36.712600
  C     13.301800   19.454300   34.931200
  H     13.177900   18.413300   34.663600
  H     14.352000   19.614800   34.809700
  C     12.562200   20.339100   33.998500
  H     13.133600   20.297500   33.032300
  H     11.540800   20.021900   33.868000
  C     12.767900   21.853300   34.357800
  H     12.549000   22.388100   33.433800
  H     12.095900   22.314700   35.057800
  H     13.779800   22.107700   34.584700
  S     11.501000   19.062000   41.118900
  C      9.902110   18.242600   41.444500
  C      8.989060   18.694300   40.523000
  C      9.633820   19.098400   39.294100
  C     11.015000   19.223300   39.419200
  H      7.935150   18.556300   40.644700
  C      8.911170   19.432000   37.957000
  H      9.491740   20.156700   37.325000
  H      8.038180   19.985600   38.311300
  C      8.481570   18.269600   37.048400
  H      7.685300   17.797700   37.526100
  H      9.237490   17.519700   36.963200
  C      7.947050   18.752200   35.689600
  H      7.591390   17.901600   35.159500
  H      8.774920   19.400100   35.187100
  H      7.080230   19.376200   35.822000
  H     14.777500   21.030100   36.873200
  H      9.453320   18.047900   42.447400

 Total Charge           Charge          ....    0
 Multiplicity           Mult            ....    1
 Number of Electrons    NEL             ....  134
 Basis Dimension        Dim             ....  322

ORBITAL ENERGIES
----------------

  NO   OCC          E(Eh)            E(eV)
   0   2.0000     -88.966941     -2420.9135
   1   2.0000     -88.962426     -2420.7907
   2   2.0000     -10.328091      -281.0416
   3   2.0000     -10.322049      -280.8772
   4   2.0000     -10.321283      -280.8564
   5   2.0000     -10.312236      -280.6102
   6   2.0000     -10.306312      -280.4490
   7   2.0000     -10.300389      -280.2878
   8   2.0000     -10.299832      -280.2727
   9   2.0000     -10.296722      -280.1881
  10   2.0000     -10.290960      -280.0312
  11   2.0000     -10.285527      -279.8834
  12   2.0000     -10.285191      -279.8743
  13   2.0000     -10.281874      -279.7840
  14   2.0000     -10.280903      -279.7576
  15   2.0000     -10.274524      -279.5840
  16   2.0000      -8.083227      -219.9558
  17   2.0000      -8.076096      -219.7618
  18   2.0000      -6.041652      -164.4017
  19   2.0000      -6.037598      -164.2914
  20   2.0000      -6.034904      -164.2181
  21   2.0000      -6.033926      -164.1915
  22   2.0000      -6.031311      -164.1203
  23   2.0000      -6.026033      -163.9767
  24   2.0000      -1.012696       -27.5569
  25   2.0000      -0.981140       -26.6982
  26   2.0000      -0.921373       -25.0718
  27   2.0000      -0.907448       -24.6929
  28   2.0000      -0.871217       -23.7070
  29   2.0000      -0.853692       -23.2301
  30   2.0000      -0.842203       -22.9175
  31   2.0000      -0.816586       -22.2204
  32   2.0000      -0.787063       -21.4171
  33   2.0000      -0.770332       -20.9618
  34   2.0000      -0.712266       -19.3817
  35   2.0000      -0.702172       -19.1071
  36   2.0000      -0.695478       -18.9249
  37   2.0000      -0.662296       -18.0220
  38   2.0000      -0.642403       -17.4807
  39   2.0000      -0.624725       -16.9996
  40   2.0000      -0.587640       -15.9905
  41   2.0000      -0.570439       -15.5224
  42   2.0000      -0.566215       -15.4075
  43   2.0000      -0.561776       -15.2867
  44   2.0000      -0.545143       -14.8341
  45   2.0000      -0.526511       -14.3271
  46   2.0000      -0.518358       -14.1052
  47   2.0000      -0.515153       -14.0180
  48   2.0000      -0.499277       -13.5860
  49   2.0000      -0.498139       -13.5550
  50   2.0000      -0.495913       -13.4945
  51   2.0000      -0.482046       -13.1171
  52   2.0000      -0.467848       -12.7308
  53   2.0000      -0.462038       -12.5727
  54   2.0000      -0.457727       -12.4554
  55   2.0000      -0.454018       -12.3544
  56   2.0000      -0.443588       -12.0706
  57   2.0000      -0.441904       -12.0248
  58   2.0000      -0.439030       -11.9466
  59   2.0000      -0.424665       -11.5557
  60   2.0000      -0.421302       -11.4642
  61   2.0000      -0.413225       -11.2444
  62   2.0000      -0.410219       -11.1626
  63   2.0000      -0.358208        -9.7473
  64   2.0000      -0.333490        -9.0747
  65   2.0000      -0.322602        -8.7784
  66   2.0000      -0.282320        -7.6823
  67   0.0000       0.017781         0.4839
  68   0.0000       0.062415         1.6984
  69   0.0000       0.094934         2.5833
  70   0.0000       0.111870         3.0442
  71   0.0000       0.122475         3.3327

MULLIKEN ATOMIC CHARGES
-----------------------
   0 S :    0.121512
   1 C :   -0.110329
   2 C :   -0.101472
   3 C :    0.040700
   4 C :   -0.104149
   5 H :   -0.048690
   6 C :    0.088679
   7 H :    0.025066
   8 H :    0.003235
   9 C :   -0.057390
  10 H :    0.036362
  11 H :    0.034736
  12 C :   -0.043140
  13 H :    0.020398
  14 H :    0.039407
  15 H :    0.016444
  16 S :    0.069374
  17 C :   -0.084721
  18 C :   -0.028808
  19 C :   -0.059378
  20 C :   -0.110206
  21 H :    0.021517
  22 C :    0.006094
  23 H :    0.037106
  24 H :    0.024093
  25 C :   -0.036961
  26 H :    0.003873
  27 H :    0.031716
  28 C :   -0.047412
  29 H :    0.035350
  30 H :    0.045864
  31 H :    0.025812
  32 H :    0.035055
  33 H :    0.070264
Sum of atomic charges:    0.0000000

LOEWDIN ATOMIC CHARGES
----------------------
   0 S :    0.439213
   1 C :   -0.203682
   2 C :   -0.051405
   3 C :   -0.053924
   4 C :   -0.202881
   5 H :    0.015985
   6 C :   -0.044302
   7 H :    0.032713
   8 H :    0.028148
   9 C :   -0.033826
  10 H :    0.036478
  11 H :    0.021236
  12 C :   -0.063937
  13 H :    0.026515
  14 H :    0.023761
  15 H :    0.019411
  16 S :    0.346466
  17 C :   -0.176829
  18 C :   -0.054751
  19 C :   -0.060620
  20 C :   -0.171983
  21 H :    0.029385
  22 C :   -0.035171
  23 H :    0.030575
  24 H :    0.030892
  25 C :   -0.039851
  26 H :    0.016457
  27 H :    0.018199
  28 C :   -0.061649
  29 H :    0.024429
  30 H :    0.033707
  31 H :    0.023016
  32 H :    0.020735
  33 H :    0.037492

  Mayer bond orders larger than 0.100000
B(  0-S ,  1-C ) :   1.1508 B(  0-S ,  4-C ) :   1.1569 B(  1-C ,  2-C ) :   1.5745
B(  1-C , 32-H ) :   0.9750 B(  2-C ,  3-C ) :   1.2417 B(  2-C ,  6-C ) :   1.0362
B(  3-C ,  4-C ) :   1.5298 B(  3-C ,  5-H ) :   1.0161 B(  4-C , 20-C ) :   1.0867
B(  6-C ,  7-H ) :   0.9340 B(  6-C ,  8-H ) :   0.9251 B(  6-C ,  9-C ) :   1.0876
B(  9-C , 10-H ) :   0.9549 B(  9-C , 11-H ) :   0.9565 B(  9-C , 12-C ) :   1.0683
B( 12-C , 13-H ) :   0.9747 B( 12-C , 14-H ) :   0.9741 B( 12-C , 15-H ) :   0.9750
B( 16-S , 17-C ) :   1.1020 B( 16-S , 20-C ) :   1.1101 B( 17-C , 18-C ) :   1.6586
B( 17-C , 33-H ) :   0.9537 B( 18-C , 19-C ) :   1.2128 B( 18-C , 21-H ) :   0.9846
B( 19-C , 20-C ) :   1.6104 B( 19-C , 22-C ) :   1.0331 B( 22-C , 23-H ) :   0.9455
B( 22-C , 24-H ) :   0.9330 B( 22-C , 25-C ) :   1.0550 B( 25-C , 26-H ) :   0.9434
B( 25-C , 27-H ) :   0.9550 B( 25-C , 28-C ) :   1.0869 B( 28-C , 29-H ) :   0.9725
B( 28-C , 30-H ) :   0.9729 B( 28-C , 31-H ) :   0.9727

Dispersion correction           -0.015072773
FINAL SINGLE POINT ENERGY     -1339.847972184317

DIPOLE MOMENT
-------------
                                X             Y             Z
Electronic contribution:     11.78178      -2.02885      28.95004
Nuclear contribution   :    -12.30978       2.09361     -29.64774
                        -----------------------------------------
Total Dipole Moment    :     -0.52800       0.06476      -0.69770
                        -----------------------------------------
Magnitude (a.u.)       :      0.87737
Magnitude (Debye)      :      2.23009

Rotational constants in cm-1:     0.018248     0.010285     0.007015
Rotational constants in MHz :   547.054163   308.334620   210.305082

                             ****ORCA TERMINATED NORMALLY****
TOTAL RUN TIME: 0 days 0 hours 0 minutes 37 seconds 736 msec
