                         Program Version 4.2.1 -  RELEASE  -
|  1> ! wB97X-D3 SP def2-SVP
|  2> %pal
|  3> nprocs 16
|  4> end
|  5>
|  6> * xyz 0 1
|  7> S 	 -78.606 	 45.2068 	 140.925
|  8> C 	 -79.225 	 43.5679 	 141.086
|  9> C 	 -79.5044 	 42.9848 	 139.832
| 10> C 	 -79.1531 	 43.8865 	 138.745
| 11> C 	 -78.911 	 45.1715 	 139.172
| 12> H 	 -79.1011 	 43.6464 	 137.724
| 13> C 	 -79.8905 	 41.5581 	 139.576
| 14> H 	 -80.6201 	 41.632 	 138.738
| 15> H 	 -80.3996 	 41.186 	 140.432
| 16> C 	 -78.7322 	 40.5181 	 139.459
| 17> H 	 -77.9463 	 40.7578 	 140.186
| 18> H 	 -79.1119 	 39.5302 	 139.737
| 19> C 	 -77.9682 	 40.5612 	 138.105
| 20> H 	 -77.163 	 39.8337 	 138.277
| 21> H 	 -78.7622 	 40.3504 	 137.373
| 22> H 	 -77.5188 	 41.5053 	 137.752
| 23> S 	 -79.4571 	 47.237 	 137.349
| 24> C 	 -78.1583 	 48.1468 	 136.762
| 25> C 	 -76.9641 	 47.5927 	 137.103
| 26> C 	 -77.0443 	 46.587 	 138.094
| 27> C 	 -78.3738 	 46.2557 	 138.36
| 28> H 	 -76.0204 	 47.8938 	 136.644
| 29> C 	 -75.8268 	 45.9434 	 138.701
| 30> H 	 -75.9499 	 45.7421 	 139.717
| 31> H 	 -75.0943 	 46.7273 	 138.751
| 32> C 	 -75.3759 	 44.7098 	 137.884
| 33> H 	 -76.0602 	 43.8131 	 138.04
| 34> H 	 -74.4244 	 44.3206 	 138.284
| 35> C 	 -75.0551 	 44.9007 	 136.32
| 36> H 	 -74.2494 	 45.6046 	 136.248
| 37> H 	 -75.7791 	 45.2796 	 135.648
| 38> H 	 -74.5867 	 43.917 	 135.909
| 39> H 	 -79.3605 	 43.1932 	 142.06
| 40> H 	 -78.1761 	 48.9062 	 136.05
| 41> *
| 42>
| 43>                          ****END OF INPUT****

CARTESIAN COORDINATES (ANGSTROEM)
---------------------------------
  S    -78.606000   45.206800  140.925000
  C    -79.225000   43.567900  141.086000
  C    -79.504400   42.984800  139.832000
  C    -79.153100   43.886500  138.745000
  C    -78.911000   45.171500  139.172000
  H    -79.101100   43.646400  137.724000
  C    -79.890500   41.558100  139.576000
  H    -80.620100   41.632000  138.738000
  H    -80.399600   41.186000  140.432000
  C    -78.732200   40.518100  139.459000
  H    -77.946300   40.757800  140.186000
  H    -79.111900   39.530200  139.737000
  C    -77.968200   40.561200  138.105000
  H    -77.163000   39.833700  138.277000
  H    -78.762200   40.350400  137.373000
  H    -77.518800   41.505300  137.752000
  S    -79.457100   47.237000  137.349000
  C    -78.158300   48.146800  136.762000
  C    -76.964100   47.592700  137.103000
  C    -77.044300   46.587000  138.094000
  C    -78.373800   46.255700  138.360000
  H    -76.020400   47.893800  136.644000
  C    -75.826800   45.943400  138.701000
  H    -75.949900   45.742100  139.717000
  H    -75.094300   46.727300  138.751000
  C    -75.375900   44.709800  137.884000
  H    -76.060200   43.813100  138.040000
  H    -74.424400   44.320600  138.284000
  C    -75.055100   44.900700  136.320000
  H    -74.249400   45.604600  136.248000
  H    -75.779100   45.279600  135.648000
  H    -74.586700   43.917000  135.909000
  H    -79.360500   43.193200  142.060000
  H    -78.176100   48.906200  136.050000

 Total Charge           Charge          ....    0
 Multiplicity           Mult            ....    1
 Number of Electrons    NEL             ....  134
 Basis Dimension        Dim             ....  322

ORBITAL ENERGIES
----------------

  NO   OCC          E(Eh)            E(eV)
   0   2.0000     -88.963923     -2420.8314
   1   2.0000     -88.963676     -2420.8247
   2   2.0000     -10.327181      -281.0169
   3   2.0000     -10.321952      -280.8746
   4   2.0000     -10.316644      -280.7302
   5   2.0000     -10.306657      -280.4584
   6   2.0000     -10.304917      -280.4110
   7   2.0000     -10.299139      -280.2538
   8   2.0000     -10.298047      -280.2241
   9   2.0000     -10.294667      -280.1321
  10   2.0000     -10.293251      -280.0936
  11   2.0000     -10.291726      -280.0521
  12   2.0000     -10.286049      -279.8976
  13   2.0000     -10.285818      -279.8913
  14   2.0000     -10.284107      -279.8448
  15   2.0000     -10.282916      -279.8124
  16   2.0000      -8.078999      -219.8407
  17   2.0000      -8.078036      -219.8145
  18   2.0000      -6.037357      -164.2848
  19   2.0000      -6.036515      -164.2619
  20   2.0000      -6.033440      -164.1783
  21   2.0000      -6.032742      -164.1593
  22   2.0000      -6.029863      -164.0809
  23   2.0000      -6.028759      -164.0509
  24   2.0000      -1.005587       -27.3634
  25   2.0000      -0.982025       -26.7223
  26   2.0000      -0.909207       -24.7408
  27   2.0000      -0.904081       -24.6013
  28   2.0000      -0.866618       -23.5819
  29   2.0000      -0.846228       -23.0270
  30   2.0000      -0.840815       -22.8797
  31   2.0000      -0.814809       -22.1721
  32   2.0000      -0.788103       -21.4454
  33   2.0000      -0.771741       -21.0001
  34   2.0000      -0.707443       -19.2505
  35   2.0000      -0.701867       -19.0988
  36   2.0000      -0.692043       -18.8314
  37   2.0000      -0.659122       -17.9356
  38   2.0000      -0.649257       -17.6672
  39   2.0000      -0.615020       -16.7356
  40   2.0000      -0.596853       -16.2412
  41   2.0000      -0.568556       -15.4712
  42   2.0000      -0.550085       -14.9686
  43   2.0000      -0.544382       -14.8134
  44   2.0000      -0.539684       -14.6855
  45   2.0000      -0.538043       -14.6409
  46   2.0000      -0.529134       -14.3985
  47   2.0000      -0.511008       -13.9052
  48   2.0000      -0.499466       -13.5912
  49   2.0000      -0.492923       -13.4131
  50   2.0000      -0.486870       -13.2484
  51   2.0000      -0.477844       -13.0028
  52   2.0000      -0.473036       -12.8720
  53   2.0000      -0.466229       -12.6867
  54   2.0000      -0.459121       -12.4933
  55   2.0000      -0.448320       -12.1994
  56   2.0000      -0.441571       -12.0158
  57   2.0000      -0.438111       -11.9216
  58   2.0000      -0.431609       -11.7447
  59   2.0000      -0.427782       -11.6405
  60   2.0000      -0.425500       -11.5785
  61   2.0000      -0.412046       -11.2123
  62   2.0000      -0.401891       -10.9360
  63   2.0000      -0.337085        -9.1726
  64   2.0000      -0.329252        -8.9594
  65   2.0000      -0.320943        -8.7333
  66   2.0000      -0.300129        -8.1669
  67   0.0000       0.038752         1.0545
  68   0.0000       0.057007         1.5512
  69   0.0000       0.103712         2.8222
  70   0.0000       0.121084         3.2949
  71   0.0000       0.129263         3.5174

MULLIKEN ATOMIC CHARGES
-----------------------
   0 S :    0.089150
   1 C :   -0.112449
   2 C :   -0.081028
   3 C :    0.049499
   4 C :   -0.148293
   5 H :    0.004571
   6 C :    0.066816
   7 H :    0.039185
   8 H :    0.010673
   9 C :   -0.068437
  10 H :    0.026759
  11 H :    0.037288
  12 C :   -0.075678
  13 H :    0.045529
  14 H :    0.032421
  15 H :    0.044977
  16 S :    0.118538
  17 C :   -0.042401
  18 C :   -0.062574
  19 C :   -0.045747
  20 C :   -0.198661
  21 H :    0.015467
  22 C :    0.164502
  23 H :    0.002477
  24 H :    0.009760
  25 C :   -0.092604
  26 H :    0.048448
  27 H :    0.027430
  28 C :   -0.079840
  29 H :    0.017712
  30 H :    0.045116
  31 H :    0.044623
  32 H :    0.038503
  33 H :    0.028270
Sum of atomic charges:   -0.0000000

LOEWDIN ATOMIC CHARGES
----------------------
   0 S :    0.392969
   1 C :   -0.181231
   2 C :   -0.058324
   3 C :   -0.045886
   4 C :   -0.186676
   5 H :    0.024585
   6 C :   -0.039537
   7 H :    0.035071
   8 H :    0.028208
   9 C :   -0.034489
  10 H :    0.026299
  11 H :    0.026010
  12 C :   -0.073063
  13 H :    0.031269
  14 H :    0.025568
  15 H :    0.026205
  16 S :    0.422527
  17 C :   -0.195201
  18 C :   -0.075757
  19 C :   -0.049672
  20 C :   -0.204758
  21 H :    0.029965
  22 C :   -0.028446
  23 H :    0.020153
  24 H :    0.029484
  25 C :   -0.036854
  26 H :    0.029608
  27 H :    0.025252
  28 C :   -0.073451
  29 H :    0.018272
  30 H :    0.017521
  31 H :    0.039515
  32 H :    0.015695
  33 H :    0.019167

  Mayer bond orders larger than 0.100000
B(  0-S ,  1-C ) :   1.1478 B(  0-S ,  4-C ) :   1.1400 B(  1-C ,  2-C ) :   1.5886
B(  1-C , 32-H ) :   0.9800 B(  2-C ,  3-C ) :   1.2171 B(  2-C ,  6-C ) :   1.0390
B(  3-C ,  4-C ) :   1.6073 B(  3-C ,  5-H ) :   0.9960 B(  4-C , 20-C ) :   1.0118
B(  6-C ,  7-H ) :   0.9448 B(  6-C ,  8-H ) :   0.9312 B(  6-C ,  9-C ) :   1.0592
B(  9-C , 10-H ) :   0.9545 B(  9-C , 11-H ) :   0.9602 B(  9-C , 12-C ) :   1.0650
B( 12-C , 13-H ) :   0.9747 B( 12-C , 14-H ) :   0.9772 B( 12-C , 15-H ) :   0.9748
B( 16-S , 17-C ) :   1.1696 B( 16-S , 20-C ) :   1.1458 B( 17-C , 18-C ) :   1.5969
B( 17-C , 33-H ) :   0.9708 B( 18-C , 19-C ) :   1.2721 B( 18-C , 21-H ) :   0.9838
B( 19-C , 20-C ) :   1.5752 B( 19-C , 22-C ) :   1.0404 B( 22-C , 23-H ) :   0.9197
B( 22-C , 24-H ) :   0.9268 B( 22-C , 25-C ) :   1.0651 B( 25-C , 26-H ) :   0.9572
B( 25-C , 27-H ) :   0.9546 B( 25-C , 28-C ) :   1.0614 B( 28-C , 29-H ) :   0.9750
B( 28-C , 30-H ) :   0.9772 B( 28-C , 31-H ) :   0.9752

Dispersion correction           -0.016177534
FINAL SINGLE POINT ENERGY     -1339.860804589262

DIPOLE MOMENT
-------------
                                X             Y             Z
Electronic contribution:    -14.47671      21.41817       7.53570
Nuclear contribution   :     14.94199     -21.95984      -7.66891
                        -----------------------------------------
Total Dipole Moment    :      0.46527      -0.54166      -0.13321
                        -----------------------------------------
Magnitude (a.u.)       :      0.72638
Magnitude (Debye)      :      1.84630

Rotational constants in cm-1:     0.019005     0.009505     0.007996
Rotational constants in MHz :   569.754623   284.955993   239.706874

                             ****ORCA TERMINATED NORMALLY****
TOTAL RUN TIME: 0 days 0 hours 0 minutes 37 seconds 158 msec
