                         Program Version 4.2.1 -  RELEASE  -
|  1> ! wB97X-D3 SP def2-SVP
|  2> %pal
|  3> nprocs 16
|  4> end
|  5>
|  6> * xyz 0 1
|  7> S 	 -30.875 	 67.2384 	 115.774
|  8> C 	 -32.3532 	 66.4367 	 116.327
|  9> C 	 -32.1736 	 65.1313 	 116.724
| 10> C 	 -30.8472 	 64.6671 	 116.519
| 11> C 	 -30.0062 	 65.6614 	 115.954
| 12> H 	 -30.5142 	 63.6902 	 116.758
| 13> C 	 -33.2801 	 64.2233 	 117.264
| 14> H 	 -33.5315 	 63.7174 	 116.366
| 15> H 	 -34.0965 	 64.899 	 117.544
| 16> C 	 -32.8337 	 63.2716 	 118.398
| 17> H 	 -33.7155 	 62.6921 	 118.571
| 18> H 	 -32.0153 	 62.5959 	 118.083
| 19> C 	 -32.408 	 64.0662 	 119.6
| 20> H 	 -32.1373 	 63.5815 	 120.533
| 21> H 	 -31.5104 	 64.6497 	 119.436
| 22> H 	 -33.0776 	 64.8705 	 119.823
| 23> S 	 -27.3565 	 65.7196 	 116.794
| 24> C 	 -26.0995 	 65.7364 	 115.639
| 25> C 	 -26.5454 	 65.8117 	 114.371
| 26> C 	 -27.9696 	 65.8174 	 114.308
| 27> C 	 -28.6063 	 65.6252 	 115.54
| 28> H 	 -25.8867 	 66.0098 	 113.542
| 29> C 	 -28.6811 	 66.0711 	 113.037
| 30> H 	 -28.5397 	 67.1944 	 112.728
| 31> H 	 -29.7787 	 65.9601 	 113.1
| 32> C 	 -28.1988 	 65.2688 	 111.875
| 33> H 	 -28.2952 	 64.245 	 112.179
| 34> H 	 -27.1469 	 65.3184 	 111.627
| 35> C 	 -29.1866 	 65.3739 	 110.743
| 36> H 	 -29.38 	 66.4651 	 110.343
| 37> H 	 -30.158 	 65.0215 	 111.007
| 38> H 	 -28.9972 	 64.6319 	 110.008
| 39> H 	 -33.2906 	 66.931 	 116.425
| 40> H 	 -25.1212 	 65.9925 	 115.959
| 41> *
| 42>
| 43>                          ****END OF INPUT****

CARTESIAN COORDINATES (ANGSTROEM)
---------------------------------
  S    -30.875000   67.238400  115.774000
  C    -32.353200   66.436700  116.327000
  C    -32.173600   65.131300  116.724000
  C    -30.847200   64.667100  116.519000
  C    -30.006200   65.661400  115.954000
  H    -30.514200   63.690200  116.758000
  C    -33.280100   64.223300  117.264000
  H    -33.531500   63.717400  116.366000
  H    -34.096500   64.899000  117.544000
  C    -32.833700   63.271600  118.398000
  H    -33.715500   62.692100  118.571000
  H    -32.015300   62.595900  118.083000
  C    -32.408000   64.066200  119.600000
  H    -32.137300   63.581500  120.533000
  H    -31.510400   64.649700  119.436000
  H    -33.077600   64.870500  119.823000
  S    -27.356500   65.719600  116.794000
  C    -26.099500   65.736400  115.639000
  C    -26.545400   65.811700  114.371000
  C    -27.969600   65.817400  114.308000
  C    -28.606300   65.625200  115.540000
  H    -25.886700   66.009800  113.542000
  C    -28.681100   66.071100  113.037000
  H    -28.539700   67.194400  112.728000
  H    -29.778700   65.960100  113.100000
  C    -28.198800   65.268800  111.875000
  H    -28.295200   64.245000  112.179000
  H    -27.146900   65.318400  111.627000
  C    -29.186600   65.373900  110.743000
  H    -29.380000   66.465100  110.343000
  H    -30.158000   65.021500  111.007000
  H    -28.997200   64.631900  110.008000
  H    -33.290600   66.931000  116.425000
  H    -25.121200   65.992500  115.959000

 Total Charge           Charge          ....    0
 Multiplicity           Mult            ....    1
 Number of Electrons    NEL             ....  134
 Basis Dimension        Dim             ....  322

ORBITAL ENERGIES
----------------

  NO   OCC          E(Eh)            E(eV)
   0   2.0000     -88.966836     -2420.9107
   1   2.0000     -88.958965     -2420.6965
   2   2.0000     -10.337260      -281.2911
   3   2.0000     -10.324352      -280.9399
   4   2.0000     -10.309979      -280.5488
   5   2.0000     -10.309695      -280.5411
   6   2.0000     -10.301492      -280.3178
   7   2.0000     -10.298019      -280.2234
   8   2.0000     -10.297620      -280.2125
   9   2.0000     -10.292951      -280.0854
  10   2.0000     -10.291427      -280.0440
  11   2.0000     -10.289876      -280.0018
  12   2.0000     -10.288707      -279.9699
  13   2.0000     -10.276888      -279.6483
  14   2.0000     -10.276538      -279.6388
  15   2.0000     -10.269616      -279.4505
  16   2.0000      -8.080009      -219.8682
  17   2.0000      -8.074629      -219.7218
  18   2.0000      -6.038498      -164.3159
  19   2.0000      -6.034874      -164.2173
  20   2.0000      -6.033036      -164.1672
  21   2.0000      -6.030751      -164.1051
  22   2.0000      -6.028955      -164.0562
  23   2.0000      -6.025505      -163.9623
  24   2.0000      -1.003833       -27.3157
  25   2.0000      -0.980112       -26.6702
  26   2.0000      -0.918788       -25.0015
  27   2.0000      -0.914579       -24.8870
  28   2.0000      -0.869018       -23.6472
  29   2.0000      -0.851780       -23.1781
  30   2.0000      -0.844257       -22.9734
  31   2.0000      -0.815573       -22.1929
  32   2.0000      -0.783448       -21.3187
  33   2.0000      -0.769226       -20.9317
  34   2.0000      -0.714347       -19.4384
  35   2.0000      -0.703262       -19.1367
  36   2.0000      -0.694363       -18.8946
  37   2.0000      -0.656660       -17.8686
  38   2.0000      -0.637042       -17.3348
  39   2.0000      -0.623302       -16.9609
  40   2.0000      -0.607960       -16.5434
  41   2.0000      -0.566306       -15.4100
  42   2.0000      -0.563768       -15.3409
  43   2.0000      -0.560062       -15.2401
  44   2.0000      -0.534745       -14.5511
  45   2.0000      -0.525029       -14.2868
  46   2.0000      -0.518405       -14.1065
  47   2.0000      -0.515041       -14.0150
  48   2.0000      -0.507301       -13.8044
  49   2.0000      -0.491353       -13.3704
  50   2.0000      -0.485348       -13.2070
  51   2.0000      -0.475429       -12.9371
  52   2.0000      -0.472947       -12.8695
  53   2.0000      -0.467529       -12.7221
  54   2.0000      -0.454031       -12.3548
  55   2.0000      -0.447545       -12.1783
  56   2.0000      -0.444003       -12.0819
  57   2.0000      -0.439442       -11.9578
  58   2.0000      -0.436834       -11.8869
  59   2.0000      -0.433451       -11.7948
  60   2.0000      -0.422589       -11.4992
  61   2.0000      -0.412999       -11.2383
  62   2.0000      -0.402664       -10.9571
  63   2.0000      -0.334752        -9.1091
  64   2.0000      -0.332767        -9.0550
  65   2.0000      -0.319483        -8.6936
  66   2.0000      -0.300300        -8.1716
  67   0.0000       0.035698         0.9714
  68   0.0000       0.057298         1.5592
  69   0.0000       0.105274         2.8647
  70   0.0000       0.120697         3.2843
  71   0.0000       0.129744         3.5305

MULLIKEN ATOMIC CHARGES
-----------------------
   0 S :    0.111449
   1 C :   -0.119920
   2 C :   -0.119545
   3 C :    0.066562
   4 C :   -0.181190
   5 H :   -0.003740
   6 C :    0.076526
   7 H :    0.039367
   8 H :    0.023013
   9 C :   -0.046469
  10 H :    0.031714
  11 H :    0.040191
  12 C :   -0.037524
  13 H :    0.033188
  14 H :    0.024945
  15 H :    0.014022
  16 S :    0.097189
  17 C :   -0.062262
  18 C :   -0.026677
  19 C :   -0.015430
  20 C :   -0.156599
  21 H :    0.019399
  22 C :    0.024045
  23 H :    0.045785
  24 H :    0.027118
  25 C :   -0.073306
  26 H :    0.015226
  27 H :    0.030899
  28 C :   -0.027044
  29 H :    0.041752
  30 H :    0.011231
  31 H :    0.017276
  32 H :    0.030021
  33 H :    0.048788
Sum of atomic charges:   -0.0000000

LOEWDIN ATOMIC CHARGES
----------------------
   0 S :    0.379904
   1 C :   -0.192873
   2 C :   -0.065224
   3 C :   -0.048658
   4 C :   -0.173334
   5 H :    0.025826
   6 C :   -0.022242
   7 H :    0.032532
   8 H :    0.030978
   9 C :   -0.036675
  10 H :    0.025600
  11 H :    0.028530
  12 C :   -0.072789
  13 H :    0.026762
  14 H :    0.029729
  15 H :    0.023293
  16 S :    0.411572
  17 C :   -0.181279
  18 C :   -0.074929
  19 C :   -0.050040
  20 C :   -0.211655
  21 H :    0.032658
  22 C :   -0.042330
  23 H :    0.041996
  24 H :    0.030861
  25 C :   -0.048921
  26 H :    0.026649
  27 H :    0.021340
  28 C :   -0.067814
  29 H :    0.034567
  30 H :    0.021756
  31 H :    0.022496
  32 H :    0.018901
  33 H :    0.022814

  Mayer bond orders larger than 0.100000
B(  0-S ,  1-C ) :   1.1286 B(  0-S ,  4-C ) :   1.1427 B(  1-C ,  2-C ) :   1.6386
B(  1-C ,  4-C ) :   0.1035 B(  1-C , 32-H ) :   0.9652 B(  2-C ,  3-C ) :   1.2303
B(  2-C ,  6-C ) :   0.9906 B(  3-C ,  4-C ) :   1.5802 B(  3-C ,  5-H ) :   0.9981
B(  4-C , 20-C ) :   1.0320 B(  6-C ,  7-H ) :   0.9351 B(  6-C ,  8-H ) :   0.9432
B(  6-C ,  9-C ) :   1.0779 B(  9-C , 10-H ) :   0.9535 B(  9-C , 11-H ) :   0.9505
B(  9-C , 12-C ) :   1.0731 B( 12-C , 13-H ) :   0.9745 B( 12-C , 14-H ) :   0.9654
B( 12-C , 15-H ) :   0.9724 B( 16-S , 17-C ) :   1.1830 B( 16-S , 20-C ) :   1.1325
B( 17-C , 18-C ) :   1.5910 B( 17-C , 33-H ) :   0.9650 B( 18-C , 19-C ) :   1.2462
B( 18-C , 21-H ) :   0.9943 B( 19-C , 20-C ) :   1.5771 B( 19-C , 22-C ) :   1.0615
B( 22-C , 23-H ) :   0.9218 B( 22-C , 24-H ) :   0.9385 B( 22-C , 25-C ) :   1.0587
B( 25-C , 26-H ) :   0.9462 B( 25-C , 27-H ) :   0.9523 B( 25-C , 28-C ) :   1.0984
B( 28-C , 29-H ) :   0.9700 B( 28-C , 30-H ) :   0.9652 B( 28-C , 31-H ) :   0.9676

Dispersion correction           -0.014252935
FINAL SINGLE POINT ENERGY     -1339.867915482953

DIPOLE MOMENT
-------------
                                X             Y             Z
Electronic contribution:     10.56819      10.11373       7.03351
Nuclear contribution   :    -10.77657     -10.34657      -7.18225
                        -----------------------------------------
Total Dipole Moment    :     -0.20838      -0.23284      -0.14874
                        -----------------------------------------
Magnitude (a.u.)       :      0.34606
Magnitude (Debye)      :      0.87962

Rotational constants in cm-1:     0.019989     0.008125     0.006792
Rotational constants in MHz :   599.251894   243.571460   203.633690

                             ****ORCA TERMINATED NORMALLY****
TOTAL RUN TIME: 0 days 0 hours 0 minutes 27 seconds 404 msec
