                         Program Version 4.2.1 -  RELEASE  -
|  1> ! wB97X-D3 SP def2-SVP
|  2> %pal
|  3> nprocs 16
|  4> end
|  5>
|  6> * xyz 0 1
|  7> S 	 -14.6153 	 44.6279 	 34.9389
|  8> C 	 -14.8575 	 43.2994 	 36.1084
|  9> C 	 -14.7544 	 42.066 	 35.5316
| 10> C 	 -14.3295 	 42.113 	 34.1936
| 11> C 	 -14.2977 	 43.363 	 33.7193
| 12> H 	 -14.1018 	 41.2727 	 33.6021
| 13> C 	 -14.6022 	 40.6893 	 36.2735
| 14> H 	 -13.6371 	 40.6564 	 36.7222
| 15> H 	 -14.4662 	 39.9173 	 35.4657
| 16> C 	 -15.7092 	 40.3214 	 37.2572
| 17> H 	 -16.6835 	 40.492 	 36.7345
| 18> H 	 -15.6805 	 39.219 	 37.3481
| 19> C 	 -15.7982 	 41.0887 	 38.5983
| 20> H 	 -16.5718 	 40.6693 	 39.2564
| 21> H 	 -14.821 	 41.2284 	 39.0936
| 22> H 	 -16.1184 	 42.0635 	 38.4105
| 23> S 	 -15.5551 	 43.8083 	 31.297
| 24> C 	 -14.7058 	 43.9288 	 29.7962
| 25> C 	 -13.3881 	 43.6461 	 30.0402
| 26> C 	 -13.0298 	 43.4333 	 31.3872
| 27> C 	 -14.1259 	 43.6148 	 32.2515
| 28> H 	 -12.7976 	 43.5565 	 29.1974
| 29> C 	 -11.6419 	 43.0005 	 31.8144
| 30> H 	 -11.3395 	 42.098 	 31.339
| 31> H 	 -11.5234 	 42.9885 	 32.9057
| 32> C 	 -10.5883 	 43.9801 	 31.3942
| 33> H 	 -10.7219 	 44.9334 	 31.9298
| 34> H 	 -10.7102 	 44.2081 	 30.2935
| 35> C 	 -9.08608 	 43.5361 	 31.8282
| 36> H 	 -8.84048 	 42.6185 	 31.3699
| 37> H 	 -9.04246 	 43.2985 	 32.8565
| 38> H 	 -8.25275 	 44.2885 	 31.599
| 39> H 	 -15.1988 	 43.5426 	 37.0734
| 40> H 	 -15.0662 	 43.8929 	 28.8172
| 41> *
| 42>
| 43>                          ****END OF INPUT****

CARTESIAN COORDINATES (ANGSTROEM)
---------------------------------
  S    -14.615300   44.627900   34.938900
  C    -14.857500   43.299400   36.108400
  C    -14.754400   42.066000   35.531600
  C    -14.329500   42.113000   34.193600
  C    -14.297700   43.363000   33.719300
  H    -14.101800   41.272700   33.602100
  C    -14.602200   40.689300   36.273500
  H    -13.637100   40.656400   36.722200
  H    -14.466200   39.917300   35.465700
  C    -15.709200   40.321400   37.257200
  H    -16.683500   40.492000   36.734500
  H    -15.680500   39.219000   37.348100
  C    -15.798200   41.088700   38.598300
  H    -16.571800   40.669300   39.256400
  H    -14.821000   41.228400   39.093600
  H    -16.118400   42.063500   38.410500
  S    -15.555100   43.808300   31.297000
  C    -14.705800   43.928800   29.796200
  C    -13.388100   43.646100   30.040200
  C    -13.029800   43.433300   31.387200
  C    -14.125900   43.614800   32.251500
  H    -12.797600   43.556500   29.197400
  C    -11.641900   43.000500   31.814400
  H    -11.339500   42.098000   31.339000
  H    -11.523400   42.988500   32.905700
  C    -10.588300   43.980100   31.394200
  H    -10.721900   44.933400   31.929800
  H    -10.710200   44.208100   30.293500
  C     -9.086080   43.536100   31.828200
  H     -8.840480   42.618500   31.369900
  H     -9.042460   43.298500   32.856500
  H     -8.252750   44.288500   31.599000
  H    -15.198800   43.542600   37.073400
  H    -15.066200   43.892900   28.817200

 Total Charge           Charge          ....    0
 Multiplicity           Mult            ....    1
 Number of Electrons    NEL             ....  134
 Basis Dimension        Dim             ....  322

ORBITAL ENERGIES
----------------

  NO   OCC          E(Eh)            E(eV)
   0   2.0000     -88.968793     -2420.9639
   1   2.0000     -88.962236     -2420.7855
   2   2.0000     -10.329661      -281.0844
   3   2.0000     -10.326689      -281.0035
   4   2.0000     -10.314990      -280.6851
   5   2.0000     -10.308349      -280.5044
   6   2.0000     -10.302519      -280.3458
   7   2.0000     -10.299650      -280.2677
   8   2.0000     -10.297578      -280.2113
   9   2.0000     -10.292259      -280.0666
  10   2.0000     -10.289737      -279.9980
  11   2.0000     -10.286590      -279.9124
  12   2.0000     -10.286130      -279.8998
  13   2.0000     -10.283297      -279.8227
  14   2.0000     -10.280621      -279.7499
  15   2.0000     -10.279873      -279.7296
  16   2.0000      -8.082664      -219.9405
  17   2.0000      -8.077580      -219.8021
  18   2.0000      -6.041183      -164.3890
  19   2.0000      -6.037512      -164.2891
  20   2.0000      -6.036037      -164.2489
  21   2.0000      -6.033237      -164.1727
  22   2.0000      -6.031874      -164.1356
  23   2.0000      -6.028464      -164.0429
  24   2.0000      -1.008302       -27.4373
  25   2.0000      -0.988306       -26.8932
  26   2.0000      -0.909565       -24.7505
  27   2.0000      -0.905611       -24.6429
  28   2.0000      -0.868647       -23.6371
  29   2.0000      -0.853155       -23.2155
  30   2.0000      -0.840412       -22.8688
  31   2.0000      -0.815940       -22.2028
  32   2.0000      -0.788137       -21.4463
  33   2.0000      -0.775858       -21.1122
  34   2.0000      -0.705124       -19.1874
  35   2.0000      -0.699671       -19.0390
  36   2.0000      -0.693770       -18.8785
  37   2.0000      -0.657475       -17.8908
  38   2.0000      -0.651297       -17.7227
  39   2.0000      -0.621905       -16.9229
  40   2.0000      -0.599513       -16.3136
  41   2.0000      -0.574994       -15.6464
  42   2.0000      -0.567726       -15.4486
  43   2.0000      -0.543650       -14.7935
  44   2.0000      -0.537850       -14.6356
  45   2.0000      -0.522173       -14.2090
  46   2.0000      -0.513577       -13.9751
  47   2.0000      -0.512345       -13.9416
  48   2.0000      -0.504266       -13.7218
  49   2.0000      -0.499458       -13.5909
  50   2.0000      -0.487555       -13.2670
  51   2.0000      -0.481594       -13.1048
  52   2.0000      -0.472797       -12.8655
  53   2.0000      -0.468378       -12.7452
  54   2.0000      -0.466837       -12.7033
  55   2.0000      -0.453460       -12.3393
  56   2.0000      -0.443853       -12.0779
  57   2.0000      -0.439536       -11.9604
  58   2.0000      -0.428551       -11.6615
  59   2.0000      -0.425000       -11.5648
  60   2.0000      -0.421709       -11.4753
  61   2.0000      -0.409786       -11.1509
  62   2.0000      -0.407172       -11.0797
  63   2.0000      -0.344231        -9.3670
  64   2.0000      -0.329205        -8.9581
  65   2.0000      -0.323130        -8.7928
  66   2.0000      -0.309165        -8.4128
  67   0.0000       0.041750         1.1361
  68   0.0000       0.055706         1.5158
  69   0.0000       0.104543         2.8448
  70   0.0000       0.121859         3.3159
  71   0.0000       0.132498         3.6055

MULLIKEN ATOMIC CHARGES
-----------------------
   0 S :    0.105973
   1 C :   -0.126877
   2 C :   -0.027370
   3 C :    0.044535
   4 C :   -0.157940
   5 H :    0.004560
   6 C :    0.030495
   7 H :    0.036051
   8 H :    0.023790
   9 C :   -0.085085
  10 H :    0.032369
  11 H :    0.031666
  12 C :   -0.026187
  13 H :    0.042641
  14 H :    0.035185
  15 H :    0.010735
  16 S :    0.109976
  17 C :   -0.059939
  18 C :   -0.039751
  19 C :   -0.015886
  20 C :   -0.175569
  21 H :   -0.010845
  22 C :    0.125481
  23 H :    0.019915
  24 H :    0.028616
  25 C :   -0.148612
  26 H :    0.035314
  27 H :    0.038987
  28 C :   -0.039740
  29 H :    0.012609
  30 H :    0.018211
  31 H :    0.052936
  32 H :    0.035690
  33 H :    0.038066
Sum of atomic charges:    0.0000000

LOEWDIN ATOMIC CHARGES
----------------------
   0 S :    0.375768
   1 C :   -0.170147
   2 C :   -0.060892
   3 C :   -0.049879
   4 C :   -0.181739
   5 H :    0.030122
   6 C :   -0.028285
   7 H :    0.027572
   8 H :    0.033964
   9 C :   -0.049148
  10 H :    0.030590
  11 H :    0.026223
  12 C :   -0.064153
  13 H :    0.034231
  14 H :    0.028071
  15 H :    0.013848
  16 S :    0.429897
  17 C :   -0.188093
  18 C :   -0.067194
  19 C :   -0.057302
  20 C :   -0.204416
  21 H :    0.017307
  22 C :   -0.031995
  23 H :    0.027262
  24 H :    0.034642
  25 C :   -0.041187
  26 H :    0.024121
  27 H :    0.023189
  28 C :   -0.069084
  29 H :    0.013972
  30 H :    0.018350
  31 H :    0.037905
  32 H :    0.012831
  33 H :    0.023650

  Mayer bond orders larger than 0.100000
B(  0-S ,  1-C ) :   1.1242 B(  0-S ,  4-C ) :   1.1336 B(  1-C ,  2-C ) :   1.6350
B(  1-C , 32-H ) :   0.9724 B(  2-C ,  3-C ) :   1.2159 B(  2-C ,  6-C ) :   1.0019
B(  3-C ,  4-C ) :   1.6217 B(  3-C ,  5-H ) :   1.0022 B(  4-C , 20-C ) :   0.9936
B(  6-C ,  7-H ) :   0.9449 B(  6-C ,  8-H ) :   0.9445 B(  6-C ,  9-C ) :   1.0665
B(  9-C , 10-H ) :   0.9583 B(  9-C , 11-H ) :   0.9580 B(  9-C , 12-C ) :   1.0705
B( 12-C , 13-H ) :   0.9688 B( 12-C , 14-H ) :   0.9776 B( 12-C , 15-H ) :   0.9709
B( 16-S , 17-C ) :   1.1646 B( 16-S , 20-C ) :   1.1763 B( 17-C , 18-C ) :   1.5957
B( 17-C , 20-C ) :   0.1007 B( 17-C , 33-H ) :   0.9714 B( 18-C , 19-C ) :   1.2596
B( 18-C , 21-H ) :   0.9995 B( 19-C , 20-C ) :   1.5653 B( 19-C , 22-C ) :   1.0477
B( 22-C , 23-H ) :   0.9326 B( 22-C , 24-H ) :   0.9324 B( 22-C , 25-C ) :   1.0531
B( 25-C , 26-H ) :   0.9579 B( 25-C , 27-H ) :   0.9611 B( 25-C , 28-C ) :   1.0633
B( 28-C , 29-H ) :   0.9759 B( 28-C , 30-H ) :   0.9738 B( 28-C , 31-H ) :   0.9780

Dispersion correction           -0.013798527
FINAL SINGLE POINT ENERGY     -1339.857313021708

DIPOLE MOMENT
-------------
                                X             Y             Z
Electronic contribution:    -14.63321      12.88526     -10.20107
Nuclear contribution   :     14.93232     -13.52002      10.29220
                        -----------------------------------------
Total Dipole Moment    :      0.29910      -0.63476       0.09113
                        -----------------------------------------
Magnitude (a.u.)       :      0.70759
Magnitude (Debye)      :      1.79855

Rotational constants in cm-1:     0.020162     0.007325     0.006275
Rotational constants in MHz :   604.434623   219.608778   188.125937

                             ****ORCA TERMINATED NORMALLY****
TOTAL RUN TIME: 0 days 0 hours 0 minutes 32 seconds 559 msec
