                         Program Version 4.2.1 -  RELEASE  -
|  1> ! wB97X-D3 SP def2-SVP
|  2> %pal
|  3> nprocs 16
|  4> end
|  5>
|  6> * xyz 0 1
|  7> S 	 38.5018 	 17.0406 	 76.0349
|  8> C 	 36.9038 	 16.651 	 75.5201
|  9> C 	 35.8959 	 16.9893 	 76.4452
| 10> C 	 36.4388 	 17.718 	 77.5592
| 11> C 	 37.8639 	 17.7826 	 77.5366
| 12> H 	 35.8859 	 18.045 	 78.4267
| 13> C 	 34.4474 	 16.6311 	 76.3421
| 14> H 	 34.3998 	 15.594 	 75.8732
| 15> H 	 34.0128 	 17.3765 	 75.6373
| 16> C 	 33.576 	 16.6223 	 77.6656
| 17> H 	 34.2108 	 16.2156 	 78.4301
| 18> H 	 33.3385 	 17.6458 	 77.9587
| 19> C 	 32.2088 	 15.92 	 77.5079
| 20> H 	 31.7989 	 16.3743 	 76.5889
| 21> H 	 32.3723 	 14.8504 	 77.4711
| 22> H 	 31.6414 	 16.196 	 78.4067
| 23> S 	 40.3319 	 19.0077 	 77.8992
| 24> C 	 40.8632 	 19.5361 	 79.509
| 25> C 	 39.7937 	 19.4023 	 80.3664
| 26> C 	 38.6254 	 18.8664 	 79.8071
| 27> C 	 38.7634 	 18.4832 	 78.4903
| 28> H 	 39.9759 	 19.7319 	 81.3349
| 29> C 	 37.4149 	 18.6305 	 80.6604
| 30> H 	 37.7624 	 18.6208 	 81.6916
| 31> H 	 36.9259 	 17.6563 	 80.5411
| 32> C 	 36.4094 	 19.8014 	 80.6393
| 33> H 	 36.1412 	 20.1074 	 79.6313
| 34> H 	 36.6661 	 20.7148 	 81.1461
| 35> C 	 35.1068 	 19.5012 	 81.3833
| 36> H 	 34.8093 	 18.4594 	 81.2123
| 37> H 	 34.2784 	 20.1149 	 80.9665
| 38> H 	 35.2169 	 19.5896 	 82.4314
| 39> H 	 36.5605 	 16.226 	 74.5811
| 40> H 	 41.8102 	 19.7832 	 79.9228
| 41> *
| 42>
| 43>                          ****END OF INPUT****

CARTESIAN COORDINATES (ANGSTROEM)
---------------------------------
  S     38.501800   17.040600   76.034900
  C     36.903800   16.651000   75.520100
  C     35.895900   16.989300   76.445200
  C     36.438800   17.718000   77.559200
  C     37.863900   17.782600   77.536600
  H     35.885900   18.045000   78.426700
  C     34.447400   16.631100   76.342100
  H     34.399800   15.594000   75.873200
  H     34.012800   17.376500   75.637300
  C     33.576000   16.622300   77.665600
  H     34.210800   16.215600   78.430100
  H     33.338500   17.645800   77.958700
  C     32.208800   15.920000   77.507900
  H     31.798900   16.374300   76.588900
  H     32.372300   14.850400   77.471100
  H     31.641400   16.196000   78.406700
  S     40.331900   19.007700   77.899200
  C     40.863200   19.536100   79.509000
  C     39.793700   19.402300   80.366400
  C     38.625400   18.866400   79.807100
  C     38.763400   18.483200   78.490300
  H     39.975900   19.731900   81.334900
  C     37.414900   18.630500   80.660400
  H     37.762400   18.620800   81.691600
  H     36.925900   17.656300   80.541100
  C     36.409400   19.801400   80.639300
  H     36.141200   20.107400   79.631300
  H     36.666100   20.714800   81.146100
  C     35.106800   19.501200   81.383300
  H     34.809300   18.459400   81.212300
  H     34.278400   20.114900   80.966500
  H     35.216900   19.589600   82.431400
  H     36.560500   16.226000   74.581100
  H     41.810200   19.783200   79.922800

 Total Charge           Charge          ....    0
 Multiplicity           Mult            ....    1
 Number of Electrons    NEL             ....  134
 Basis Dimension        Dim             ....  322

ORBITAL ENERGIES
----------------

  NO   OCC          E(Eh)            E(eV)
   0   2.0000     -88.974871     -2421.1293
   1   2.0000     -88.965000     -2420.8607
   2   2.0000     -10.341064      -281.3946
   3   2.0000     -10.331236      -281.1272
   4   2.0000     -10.314114      -280.6613
   5   2.0000     -10.314102      -280.6610
   6   2.0000     -10.303778      -280.3800
   7   2.0000     -10.301940      -280.3301
   8   2.0000     -10.299985      -280.2768
   9   2.0000     -10.298566      -280.2382
  10   2.0000     -10.293276      -280.0943
  11   2.0000     -10.291080      -280.0345
  12   2.0000     -10.285968      -279.8954
  13   2.0000     -10.285667      -279.8872
  14   2.0000     -10.283479      -279.8277
  15   2.0000     -10.276282      -279.6319
  16   2.0000      -8.088474      -220.0986
  17   2.0000      -8.079012      -219.8411
  18   2.0000      -6.047055      -164.5487
  19   2.0000      -6.043085      -164.4407
  20   2.0000      -6.039288      -164.3374
  21   2.0000      -6.037679      -164.2936
  22   2.0000      -6.033568      -164.1817
  23   2.0000      -6.029696      -164.0764
  24   2.0000      -1.003590       -27.3091
  25   2.0000      -0.981504       -26.7081
  26   2.0000      -0.911634       -24.8068
  27   2.0000      -0.907808       -24.7027
  28   2.0000      -0.869060       -23.6483
  29   2.0000      -0.855292       -23.2737
  30   2.0000      -0.849240       -23.1090
  31   2.0000      -0.816829       -22.2270
  32   2.0000      -0.778735       -21.1905
  33   2.0000      -0.769686       -20.9442
  34   2.0000      -0.713021       -19.4023
  35   2.0000      -0.698716       -19.0130
  36   2.0000      -0.690988       -18.8027
  37   2.0000      -0.665116       -18.0987
  38   2.0000      -0.633664       -17.2429
  39   2.0000      -0.621890       -16.9225
  40   2.0000      -0.595646       -16.2083
  41   2.0000      -0.575973       -15.6730
  42   2.0000      -0.568861       -15.4795
  43   2.0000      -0.566058       -15.4032
  44   2.0000      -0.530317       -14.4307
  45   2.0000      -0.526999       -14.3404
  46   2.0000      -0.516858       -14.0644
  47   2.0000      -0.513681       -13.9780
  48   2.0000      -0.503846       -13.7103
  49   2.0000      -0.501837       -13.6557
  50   2.0000      -0.492820       -13.4103
  51   2.0000      -0.482142       -13.1198
  52   2.0000      -0.471880       -12.8405
  53   2.0000      -0.468519       -12.7490
  54   2.0000      -0.457127       -12.4391
  55   2.0000      -0.450409       -12.2563
  56   2.0000      -0.442151       -12.0316
  57   2.0000      -0.435591       -11.8530
  58   2.0000      -0.432852       -11.7785
  59   2.0000      -0.429633       -11.6909
  60   2.0000      -0.422194       -11.4885
  61   2.0000      -0.416557       -11.3351
  62   2.0000      -0.411646       -11.2015
  63   2.0000      -0.356828        -9.7098
  64   2.0000      -0.333809        -9.0834
  65   2.0000      -0.328354        -8.9350
  66   2.0000      -0.280020        -7.6197
  67   0.0000       0.015846         0.4312
  68   0.0000       0.082832         2.2540
  69   0.0000       0.098985         2.6935
  70   0.0000       0.119815         3.2603
  71   0.0000       0.124770         3.3952

MULLIKEN ATOMIC CHARGES
-----------------------
   0 S :    0.129151
   1 C :   -0.105084
   2 C :   -0.102303
   3 C :    0.010044
   4 C :   -0.128189
   5 H :    0.007934
   6 C :    0.013617
   7 H :    0.042885
   8 H :    0.051793
   9 C :   -0.114436
  10 H :    0.032119
  11 H :    0.032273
  12 C :   -0.031658
  13 H :    0.042314
  14 H :    0.043165
  15 H :    0.043444
  16 S :    0.086910
  17 C :   -0.071540
  18 C :   -0.028301
  19 C :   -0.019213
  20 C :   -0.117010
  21 H :   -0.008049
  22 C :    0.049277
  23 H :    0.011310
  24 H :    0.037604
  25 C :   -0.080704
  26 H :    0.027877
  27 H :    0.026513
  28 C :   -0.045745
  29 H :    0.010874
  30 H :    0.041393
  31 H :    0.028685
  32 H :    0.040669
  33 H :    0.042378
Sum of atomic charges:    0.0000000

LOEWDIN ATOMIC CHARGES
----------------------
   0 S :    0.413116
   1 C :   -0.214371
   2 C :   -0.065523
   3 C :   -0.061508
   4 C :   -0.177014
   5 H :    0.028547
   6 C :   -0.044977
   7 H :    0.038690
   8 H :    0.039137
   9 C :   -0.042213
  10 H :    0.017387
  11 H :    0.021803
  12 C :   -0.058849
  13 H :    0.031644
  14 H :    0.025218
  15 H :    0.031853
  16 S :    0.388037
  17 C :   -0.178000
  18 C :   -0.060555
  19 C :   -0.066036
  20 C :   -0.185035
  21 H :    0.021696
  22 C :   -0.032898
  23 H :    0.032318
  24 H :    0.031351
  25 C :   -0.043277
  26 H :    0.019361
  27 H :    0.026271
  28 C :   -0.064216
  29 H :    0.017416
  30 H :    0.033158
  31 H :    0.017581
  32 H :    0.030417
  33 H :    0.029468

  Mayer bond orders larger than 0.100000
B(  0-S ,  1-C ) :   1.1453 B(  0-S ,  4-C ) :   1.1506 B(  1-C ,  2-C ) :   1.5979
B(  1-C ,  4-C ) :   0.1017 B(  1-C , 32-H ) :   0.9627 B(  2-C ,  3-C ) :   1.2740
B(  2-C ,  6-C ) :   1.0160 B(  3-C ,  4-C ) :   1.5278 B(  3-C ,  5-H ) :   0.9789
B(  4-C , 20-C ) :   1.0743 B(  6-C ,  7-H ) :   0.9489 B(  6-C ,  8-H ) :   0.9258
B(  6-C ,  9-C ) :   1.0708 B(  9-C , 10-H ) :   0.9604 B(  9-C , 11-H ) :   0.9491
B(  9-C , 12-C ) :   1.0767 B( 12-C , 13-H ) :   0.9744 B( 12-C , 14-H ) :   0.9772
B( 12-C , 15-H ) :   0.9742 B( 16-S , 17-C ) :   1.1348 B( 16-S , 20-C ) :   1.1316
B( 17-C , 18-C ) :   1.6244 B( 17-C , 33-H ) :   0.9674 B( 18-C , 19-C ) :   1.2548
B( 18-C , 21-H ) :   0.9969 B( 19-C , 20-C ) :   1.5765 B( 19-C , 22-C ) :   1.0494
B( 22-C , 23-H ) :   0.9264 B( 22-C , 24-H ) :   0.9429 B( 22-C , 25-C ) :   1.0524
B( 25-C , 26-H ) :   0.9628 B( 25-C , 27-H ) :   0.9552 B( 25-C , 28-C ) :   1.0746
B( 28-C , 29-H ) :   0.9733 B( 28-C , 30-H ) :   0.9746 B( 28-C , 31-H ) :   0.9786

Dispersion correction           -0.014184337
FINAL SINGLE POINT ENERGY     -1339.870713597384

DIPOLE MOMENT
-------------
                                X             Y             Z
Electronic contribution:     31.46957       1.13141     -13.91380
Nuclear contribution   :    -32.11709      -1.14529      14.39846
                        -----------------------------------------
Total Dipole Moment    :     -0.64752      -0.01387       0.48466
                        -----------------------------------------
Magnitude (a.u.)       :      0.80893
Magnitude (Debye)      :      2.05615

Rotational constants in cm-1:     0.017616     0.009581     0.006370
Rotational constants in MHz :   528.120835   287.240860   190.963721

                             ****ORCA TERMINATED NORMALLY****
TOTAL RUN TIME: 0 days 0 hours 0 minutes 29 seconds 81 msec
