                         Program Version 4.2.1 -  RELEASE  -
|  1> ! wB97X-D3 SP def2-SVP
|  2> %pal
|  3> nprocs 16
|  4> end
|  5>
|  6> * xyz 0 1
|  7> S 	 40.7797 	 23.489 	 93.9084
|  8> C 	 41.8563 	 24.7302 	 93.4329
|  9> C 	 43.1872 	 24.4093 	 93.7653
| 10> C 	 43.2997 	 23.0809 	 94.2608
| 11> C 	 42.0828 	 22.4498 	 94.4063
| 12> H 	 44.0768 	 22.6142 	 94.7028
| 13> C 	 44.2567 	 25.4763 	 93.757
| 14> H 	 43.7666 	 26.4489 	 93.7365
| 15> H 	 44.7177 	 25.398 	 92.8282
| 16> C 	 45.3223 	 25.3979 	 94.8468
| 17> H 	 45.6729 	 24.3812 	 94.9658
| 18> H 	 46.1395 	 26.0511 	 94.6089
| 19> C 	 44.8178 	 25.8656 	 96.2409
| 20> H 	 45.7045 	 25.8259 	 96.9868
| 21> H 	 44.3185 	 26.851 	 96.2921
| 22> H 	 44.1391 	 25.0497 	 96.5192
| 23> S 	 40.1279 	 20.9744 	 95.7493
| 24> C 	 40.35 	 19.3382 	 96.1115
| 25> C 	 41.6442 	 18.9371 	 95.8499
| 26> C 	 42.4822 	 20.0046 	 95.2759
| 27> C 	 41.7658 	 21.1921 	 95.0939
| 28> H 	 41.9229 	 17.8584 	 95.8625
| 29> C 	 43.8654 	 19.6802 	 94.8945
| 30> H 	 43.9617 	 20.1497 	 93.9224
| 31> H 	 44.0046 	 18.6454 	 94.4752
| 32> C 	 44.8033 	 19.979 	 95.9838
| 33> H 	 44.6565 	 19.2071 	 96.7709
| 34> H 	 44.5316 	 20.9509 	 96.3637
| 35> C 	 46.1855 	 19.9497 	 95.3864
| 36> H 	 46.3578 	 20.604 	 94.4968
| 37> H 	 46.2468 	 18.9046 	 95.0555
| 38> H 	 46.8626 	 20.2275 	 96.1842
| 39> H 	 41.6789 	 25.7073 	 93.1025
| 40> H 	 39.6856 	 18.6649 	 96.6487
| 41> *
| 42>
| 43>                          ****END OF INPUT****

CARTESIAN COORDINATES (ANGSTROEM)
---------------------------------
  S     40.779700   23.489000   93.908400
  C     41.856300   24.730200   93.432900
  C     43.187200   24.409300   93.765300
  C     43.299700   23.080900   94.260800
  C     42.082800   22.449800   94.406300
  H     44.076800   22.614200   94.702800
  C     44.256700   25.476300   93.757000
  H     43.766600   26.448900   93.736500
  H     44.717700   25.398000   92.828200
  C     45.322300   25.397900   94.846800
  H     45.672900   24.381200   94.965800
  H     46.139500   26.051100   94.608900
  C     44.817800   25.865600   96.240900
  H     45.704500   25.825900   96.986800
  H     44.318500   26.851000   96.292100
  H     44.139100   25.049700   96.519200
  S     40.127900   20.974400   95.749300
  C     40.350000   19.338200   96.111500
  C     41.644200   18.937100   95.849900
  C     42.482200   20.004600   95.275900
  C     41.765800   21.192100   95.093900
  H     41.922900   17.858400   95.862500
  C     43.865400   19.680200   94.894500
  H     43.961700   20.149700   93.922400
  H     44.004600   18.645400   94.475200
  C     44.803300   19.979000   95.983800
  H     44.656500   19.207100   96.770900
  H     44.531600   20.950900   96.363700
  C     46.185500   19.949700   95.386400
  H     46.357800   20.604000   94.496800
  H     46.246800   18.904600   95.055500
  H     46.862600   20.227500   96.184200
  H     41.678900   25.707300   93.102500
  H     39.685600   18.664900   96.648700

 Total Charge           Charge          ....    0
 Multiplicity           Mult            ....    1
 Number of Electrons    NEL             ....  134
 Basis Dimension        Dim             ....  322

ORBITAL ENERGIES
----------------

  NO   OCC          E(Eh)            E(eV)
   0   2.0000     -88.968689     -2420.9611
   1   2.0000     -88.965276     -2420.8682
   2   2.0000     -10.332618      -281.1648
   3   2.0000     -10.331469      -281.1336
   4   2.0000     -10.314392      -280.6689
   5   2.0000     -10.306711      -280.4599
   6   2.0000     -10.304078      -280.3882
   7   2.0000     -10.301930      -280.3298
   8   2.0000     -10.295424      -280.1527
   9   2.0000     -10.287582      -279.9393
  10   2.0000     -10.286556      -279.9114
  11   2.0000     -10.286317      -279.9049
  12   2.0000     -10.284557      -279.8570
  13   2.0000     -10.284381      -279.8522
  14   2.0000     -10.284323      -279.8506
  15   2.0000     -10.280980      -279.7597
  16   2.0000      -8.083916      -219.9745
  17   2.0000      -8.080635      -219.8853
  18   2.0000      -6.042403      -164.4222
  19   2.0000      -6.039280      -164.3372
  20   2.0000      -6.038293      -164.3103
  21   2.0000      -6.034946      -164.2192
  22   2.0000      -6.034720      -164.2131
  23   2.0000      -6.031326      -164.1207
  24   2.0000      -1.010776       -27.5046
  25   2.0000      -0.987897       -26.8820
  26   2.0000      -0.930823       -25.3290
  27   2.0000      -0.914608       -24.8878
  28   2.0000      -0.871312       -23.7096
  29   2.0000      -0.855593       -23.2819
  30   2.0000      -0.846661       -23.0388
  31   2.0000      -0.819547       -22.3010
  32   2.0000      -0.782393       -21.2900
  33   2.0000      -0.770835       -20.9755
  34   2.0000      -0.710351       -19.3296
  35   2.0000      -0.701708       -19.0944
  36   2.0000      -0.690805       -18.7978
  37   2.0000      -0.662018       -18.0144
  38   2.0000      -0.644887       -17.5483
  39   2.0000      -0.628339       -17.0980
  40   2.0000      -0.601520       -16.3682
  41   2.0000      -0.574859       -15.6427
  42   2.0000      -0.567221       -15.4349
  43   2.0000      -0.552737       -15.0407
  44   2.0000      -0.542860       -14.7720
  45   2.0000      -0.540038       -14.6952
  46   2.0000      -0.520319       -14.1586
  47   2.0000      -0.515217       -14.0198
  48   2.0000      -0.510945       -13.9035
  49   2.0000      -0.495539       -13.4843
  50   2.0000      -0.491949       -13.3866
  51   2.0000      -0.481774       -13.1097
  52   2.0000      -0.475838       -12.9482
  53   2.0000      -0.468497       -12.7485
  54   2.0000      -0.458500       -12.4764
  55   2.0000      -0.453874       -12.3505
  56   2.0000      -0.449263       -12.2251
  57   2.0000      -0.438331       -11.9276
  58   2.0000      -0.433767       -11.8034
  59   2.0000      -0.427828       -11.6418
  60   2.0000      -0.415985       -11.3195
  61   2.0000      -0.410712       -11.1760
  62   2.0000      -0.403585       -10.9821
  63   2.0000      -0.362341        -9.8598
  64   2.0000      -0.332547        -9.0491
  65   2.0000      -0.326192        -8.8761
  66   2.0000      -0.281243        -7.6530
  67   0.0000       0.022834         0.6213
  68   0.0000       0.080548         2.1918
  69   0.0000       0.110895         3.0176
  70   0.0000       0.119449         3.2504
  71   0.0000       0.127666         3.4740

MULLIKEN ATOMIC CHARGES
-----------------------
   0 S :    0.119353
   1 C :   -0.076505
   2 C :   -0.128005
   3 C :    0.060416
   4 C :   -0.127139
   5 H :   -0.061744
   6 C :    0.124853
   7 H :    0.012590
   8 H :    0.021801
   9 C :   -0.071634
  10 H :    0.031359
  11 H :    0.026256
  12 C :   -0.097533
  13 H :    0.044984
  14 H :    0.046554
  15 H :    0.040671
  16 S :    0.100149
  17 C :   -0.075850
  18 C :   -0.053771
  19 C :   -0.082092
  20 C :   -0.119090
  21 H :    0.035639
  22 C :   -0.000700
  23 H :    0.021458
  24 H :    0.018305
  25 C :   -0.042374
  26 H :    0.039410
  27 H :    0.028384
  28 C :   -0.023737
  29 H :    0.041261
  30 H :    0.026845
  31 H :    0.037743
  32 H :    0.019457
  33 H :    0.062688
Sum of atomic charges:    0.0000000

LOEWDIN ATOMIC CHARGES
----------------------
   0 S :    0.431990
   1 C :   -0.210950
   2 C :   -0.052095
   3 C :   -0.064732
   4 C :   -0.182423
   5 H :    0.008889
   6 C :   -0.027739
   7 H :    0.030446
   8 H :    0.027133
   9 C :   -0.036969
  10 H :    0.023621
  11 H :    0.021798
  12 C :   -0.073780
  13 H :    0.033720
  14 H :    0.026248
  15 H :    0.026223
  16 S :    0.412379
  17 C :   -0.207475
  18 C :   -0.081760
  19 C :   -0.051588
  20 C :   -0.192651
  21 H :    0.036655
  22 C :   -0.052870
  23 H :    0.030831
  24 H :    0.033868
  25 C :   -0.038463
  26 H :    0.035235
  27 H :    0.018761
  28 C :   -0.061887
  29 H :    0.029483
  30 H :    0.028991
  31 H :    0.024303
  32 H :    0.017934
  33 H :    0.036874

  Mayer bond orders larger than 0.100000
B(  0-S ,  1-C ) :   1.1462 B(  0-S ,  4-C ) :   1.1631 B(  1-C ,  2-C ) :   1.5935
B(  1-C , 32-H ) :   0.9718 B(  2-C ,  3-C ) :   1.2533 B(  2-C ,  6-C ) :   1.0092
B(  3-C ,  4-C ) :   1.5472 B(  3-C ,  5-H ) :   1.0080 B(  4-C , 20-C ) :   1.0728
B(  6-C ,  7-H ) :   0.9417 B(  6-C ,  8-H ) :   0.9219 B(  6-C ,  9-C ) :   1.0847
B(  9-C , 10-H ) :   0.9544 B(  9-C , 11-H ) :   0.9543 B(  9-C , 12-C ) :   1.0687
B( 12-C , 13-H ) :   0.9751 B( 12-C , 14-H ) :   0.9756 B( 12-C , 15-H ) :   0.9794
B( 16-S , 17-C ) :   1.1638 B( 16-S , 20-C ) :   1.1212 B( 17-C , 18-C ) :   1.6142
B( 17-C , 33-H ) :   0.9616 B( 18-C , 19-C ) :   1.2475 B( 18-C , 21-H ) :   0.9793
B( 19-C , 20-C ) :   1.5874 B( 19-C , 22-C ) :   1.0528 B( 22-C , 23-H ) :   0.9348
B( 22-C , 24-H ) :   0.9246 B( 22-C , 25-C ) :   1.0523 B( 25-C , 26-H ) :   0.9440
B( 25-C , 27-H ) :   0.9544 B( 25-C , 28-C ) :   1.0763 B( 28-C , 29-H ) :   0.9768
B( 28-C , 30-H ) :   0.9673 B( 28-C , 31-H ) :   0.9726

Dispersion correction           -0.014687695
FINAL SINGLE POINT ENERGY     -1339.859928975077

DIPOLE MOMENT
-------------
                                X             Y             Z
Electronic contribution:    -28.60706      -3.63150      -4.28728
Nuclear contribution   :     29.23327       3.54040       4.37398
                        -----------------------------------------
Total Dipole Moment    :      0.62621      -0.09110       0.08669
                        -----------------------------------------
Magnitude (a.u.)       :      0.63872
Magnitude (Debye)      :      1.62349

Rotational constants in cm-1:     0.017246     0.010273     0.007195
Rotational constants in MHz :   517.016824   307.969119   215.711337

                             ****ORCA TERMINATED NORMALLY****
TOTAL RUN TIME: 0 days 0 hours 0 minutes 31 seconds 842 msec
