                         Program Version 4.2.1 -  RELEASE  -
|  1> ! wB97X-D3 SP def2-SVP
|  2> %pal
|  3> nprocs 16
|  4> end
|  5>
|  6> * xyz 0 1
|  7> S 	 52.5758 	 5.63289 	 83.1862
|  8> C 	 53.5665 	 4.08702 	 83.3071
|  9> C 	 52.8025 	 2.95271 	 83.3502
| 10> C 	 51.4575 	 3.30427 	 83.1529
| 11> C 	 51.1887 	 4.6631 	 83.173
| 12> H 	 50.6508 	 2.6164 	 82.9795
| 13> C 	 53.2422 	 1.52512 	 83.2693
| 14> H 	 54.2629 	 1.3538 	 83.1211
| 15> H 	 52.7661 	 1.10372 	 82.3343
| 16> C 	 52.8391 	 0.57626 	 84.4517
| 17> H 	 53.4697 	 0.840111 	 85.3418
| 18> H 	 51.8212 	 0.767108 	 84.7307
| 19> C 	 52.7523 	 -0.870414 	 84.0482
| 20> H 	 51.8964 	 -1.16563 	 83.4296
| 21> H 	 53.6298 	 -1.24435 	 83.4827
| 22> H 	 52.609 	 -1.47273 	 84.9389
| 23> S 	 48.713 	 4.98587 	 84.0965
| 24> C 	 47.5684 	 5.95316 	 83.3525
| 25> C 	 48.0646 	 6.5045 	 82.18
| 26> C 	 49.438 	 6.09686 	 81.8853
| 27> C 	 49.9375 	 5.34826 	 82.9256
| 28> H 	 47.4403 	 7.13981 	 81.6638
| 29> C 	 50.2157 	 6.4311 	 80.6136
| 30> H 	 51.2145 	 6.15922 	 80.788
| 31> H 	 50.2385 	 7.53104 	 80.4591
| 32> C 	 49.6108 	 5.7805 	 79.3815
| 33> H 	 48.7151 	 6.32028 	 79.0096
| 34> H 	 49.2304 	 4.795 	 79.4907
| 35> C 	 50.6149 	 5.98505 	 78.1665
| 36> H 	 51.4422 	 5.21702 	 78.0763
| 37> H 	 51.1561 	 7.008 	 78.4255
| 38> H 	 50.0906 	 6.07337 	 77.2008
| 39> H 	 54.6227 	 4.15319 	 83.3197
| 40> H 	 46.5959 	 6.12188 	 83.7685
| 41> *
| 42>
| 43>                          ****END OF INPUT****

CARTESIAN COORDINATES (ANGSTROEM)
---------------------------------
  S     52.575800    5.632890   83.186200
  C     53.566500    4.087020   83.307100
  C     52.802500    2.952710   83.350200
  C     51.457500    3.304270   83.152900
  C     51.188700    4.663100   83.173000
  H     50.650800    2.616400   82.979500
  C     53.242200    1.525120   83.269300
  H     54.262900    1.353800   83.121100
  H     52.766100    1.103720   82.334300
  C     52.839100    0.576260   84.451700
  H     53.469700    0.840111   85.341800
  H     51.821200    0.767108   84.730700
  C     52.752300   -0.870414   84.048200
  H     51.896400   -1.165630   83.429600
  H     53.629800   -1.244350   83.482700
  H     52.609000   -1.472730   84.938900
  S     48.713000    4.985870   84.096500
  C     47.568400    5.953160   83.352500
  C     48.064600    6.504500   82.180000
  C     49.438000    6.096860   81.885300
  C     49.937500    5.348260   82.925600
  H     47.440300    7.139810   81.663800
  C     50.215700    6.431100   80.613600
  H     51.214500    6.159220   80.788000
  H     50.238500    7.531040   80.459100
  C     49.610800    5.780500   79.381500
  H     48.715100    6.320280   79.009600
  H     49.230400    4.795000   79.490700
  C     50.614900    5.985050   78.166500
  H     51.442200    5.217020   78.076300
  H     51.156100    7.008000   78.425500
  H     50.090600    6.073370   77.200800
  H     54.622700    4.153190   83.319700
  H     46.595900    6.121880   83.768500

 Total Charge           Charge          ....    0
 Multiplicity           Mult            ....    1
 Number of Electrons    NEL             ....  134
 Basis Dimension        Dim             ....  322

ORBITAL ENERGIES
----------------

  NO   OCC          E(Eh)            E(eV)
   0   2.0000     -88.966243     -2420.8945
   1   2.0000     -88.958331     -2420.6793
   2   2.0000     -10.322411      -280.8871
   3   2.0000     -10.318067      -280.7689
   4   2.0000     -10.315356      -280.6951
   5   2.0000     -10.308836      -280.5177
   6   2.0000     -10.304889      -280.4103
   7   2.0000     -10.301435      -280.3163
   8   2.0000     -10.294299      -280.1221
   9   2.0000     -10.292574      -280.0752
  10   2.0000     -10.289427      -279.9895
  11   2.0000     -10.289325      -279.9868
  12   2.0000     -10.288914      -279.9756
  13   2.0000     -10.288667      -279.9689
  14   2.0000     -10.286549      -279.9112
  15   2.0000     -10.280546      -279.7479
  16   2.0000      -8.080735      -219.8880
  17   2.0000      -8.075249      -219.7387
  18   2.0000      -6.039129      -164.3331
  19   2.0000      -6.035423      -164.2322
  20   2.0000      -6.033575      -164.1819
  21   2.0000      -6.031473      -164.1247
  22   2.0000      -6.029283      -164.0651
  23   2.0000      -6.026231      -163.9821
  24   2.0000      -1.013128       -27.5686
  25   2.0000      -0.987509       -26.8715
  26   2.0000      -0.915711       -24.9178
  27   2.0000      -0.907722       -24.7004
  28   2.0000      -0.874588       -23.7987
  29   2.0000      -0.848052       -23.0767
  30   2.0000      -0.843590       -22.9553
  31   2.0000      -0.809830       -22.0366
  32   2.0000      -0.785670       -21.3792
  33   2.0000      -0.769614       -20.9423
  34   2.0000      -0.704470       -19.1696
  35   2.0000      -0.702220       -19.1084
  36   2.0000      -0.694194       -18.8900
  37   2.0000      -0.664094       -18.0709
  38   2.0000      -0.644781       -17.5454
  39   2.0000      -0.625996       -17.0342
  40   2.0000      -0.598904       -16.2970
  41   2.0000      -0.569654       -15.5011
  42   2.0000      -0.559830       -15.2337
  43   2.0000      -0.557346       -15.1662
  44   2.0000      -0.528419       -14.3790
  45   2.0000      -0.526031       -14.3140
  46   2.0000      -0.519476       -14.1356
  47   2.0000      -0.514042       -13.9878
  48   2.0000      -0.506982       -13.7957
  49   2.0000      -0.503958       -13.7134
  50   2.0000      -0.481542       -13.1034
  51   2.0000      -0.477386       -12.9903
  52   2.0000      -0.466686       -12.6992
  53   2.0000      -0.462745       -12.5919
  54   2.0000      -0.460657       -12.5351
  55   2.0000      -0.452925       -12.3247
  56   2.0000      -0.445526       -12.1234
  57   2.0000      -0.437074       -11.8934
  58   2.0000      -0.435369       -11.8470
  59   2.0000      -0.424558       -11.5528
  60   2.0000      -0.417208       -11.3528
  61   2.0000      -0.415717       -11.3122
  62   2.0000      -0.411518       -11.1980
  63   2.0000      -0.339169        -9.2293
  64   2.0000      -0.334394        -9.0993
  65   2.0000      -0.324981        -8.8432
  66   2.0000      -0.296671        -8.0728
  67   0.0000       0.040444         1.1006
  68   0.0000       0.072416         1.9705
  69   0.0000       0.101342         2.7577
  70   0.0000       0.119474         3.2511
  71   0.0000       0.130763         3.5582

MULLIKEN ATOMIC CHARGES
-----------------------
   0 S :    0.100355
   1 C :   -0.139076
   2 C :    0.003607
   3 C :    0.028315
   4 C :   -0.156918
   5 H :    0.004212
   6 C :    0.043990
   7 H :    0.008242
   8 H :    0.037333
   9 C :   -0.066971
  10 H :    0.045917
  11 H :    0.021451
  12 C :   -0.064815
  13 H :    0.033881
  14 H :    0.030598
  15 H :    0.033233
  16 S :    0.116121
  17 C :   -0.085698
  18 C :   -0.015050
  19 C :   -0.026119
  20 C :   -0.188595
  21 H :   -0.016705
  22 C :    0.115746
  23 H :    0.005715
  24 H :    0.035616
  25 C :   -0.072658
  26 H :    0.028335
  27 H :    0.031236
  28 C :   -0.110695
  29 H :    0.052892
  30 H :    0.040508
  31 H :    0.043652
  32 H :    0.029821
  33 H :    0.052523
Sum of atomic charges:   -0.0000000

LOEWDIN ATOMIC CHARGES
----------------------
   0 S :    0.404273
   1 C :   -0.159061
   2 C :   -0.060180
   3 C :   -0.061848
   4 C :   -0.212228
   5 H :    0.027066
   6 C :   -0.027908
   7 H :    0.020256
   8 H :    0.041437
   9 C :   -0.041508
  10 H :    0.032048
  11 H :    0.022292
  12 C :   -0.071184
  13 H :    0.028181
  14 H :    0.023226
  15 H :    0.029303
  16 S :    0.444941
  17 C :   -0.203792
  18 C :   -0.065675
  19 C :   -0.050025
  20 C :   -0.215234
  21 H :    0.014792
  22 C :   -0.029750
  23 H :    0.013611
  24 H :    0.037854
  25 C :   -0.039876
  26 H :    0.028458
  27 H :    0.019637
  28 C :   -0.078040
  29 H :    0.028124
  30 H :    0.036385
  31 H :    0.024085
  32 H :    0.013962
  33 H :    0.026379

  Mayer bond orders larger than 0.100000
B(  0-S ,  1-C ) :   1.1238 B(  0-S ,  4-C ) :   1.1606 B(  1-C ,  2-C ) :   1.6134
B(  1-C , 32-H ) :   0.9768 B(  2-C ,  3-C ) :   1.2144 B(  2-C ,  6-C ) :   1.0286
B(  3-C ,  4-C ) :   1.5998 B(  3-C ,  5-H ) :   0.9925 B(  4-C , 20-C ) :   0.9919
B(  6-C ,  7-H ) :   0.9418 B(  6-C ,  8-H ) :   0.9461 B(  6-C ,  9-C ) :   1.0472
B(  9-C , 10-H ) :   0.9566 B(  9-C , 11-H ) :   0.9584 B(  9-C , 12-C ) :   1.0780
B( 12-C , 13-H ) :   0.9731 B( 12-C , 14-H ) :   0.9752 B( 12-C , 15-H ) :   0.9704
B( 16-S , 17-C ) :   1.1809 B( 16-S , 20-C ) :   1.1593 B( 17-C , 18-C ) :   1.5897
B( 17-C , 33-H ) :   0.9720 B( 18-C , 19-C ) :   1.2104 B( 18-C , 21-H ) :   1.0114
B( 19-C , 20-C ) :   1.5998 B( 19-C , 22-C ) :   1.0488 B( 22-C , 23-H ) :   0.9294
B( 22-C , 24-H ) :   0.9221 B( 22-C , 25-C ) :   1.0617 B( 25-C , 26-H ) :   0.9544
B( 25-C , 27-H ) :   0.9639 B( 25-C , 28-C ) :   1.0588 B( 28-C , 29-H ) :   0.9775
B( 28-C , 30-H ) :   0.9704 B( 28-C , 31-H ) :   0.9784

Dispersion correction           -0.013676503
FINAL SINGLE POINT ENERGY     -1339.867353893690

DIPOLE MOMENT
-------------
                                X             Y             Z
Electronic contribution:     -5.53288      14.80789      14.04446
Nuclear contribution   :      5.47210     -15.16274     -14.40541
                        -----------------------------------------
Total Dipole Moment    :     -0.06078      -0.35485      -0.36095
                        -----------------------------------------
Magnitude (a.u.)       :      0.50980
Magnitude (Debye)      :      1.29580

Rotational constants in cm-1:     0.018246     0.007903     0.006873
Rotational constants in MHz :   547.014107   236.931120   206.051895

                             ****ORCA TERMINATED NORMALLY****
TOTAL RUN TIME: 0 days 0 hours 0 minutes 29 seconds 650 msec
