                         Program Version 4.2.1 -  RELEASE  -
|  1> ! wB97X-D3 SP def2-SVP
|  2> %pal
|  3> nprocs 16
|  4> end
|  5>
|  6> * xyz 0 1
|  7> S 	 -44.5797 	 24.7977 	 83.3878
|  8> C 	 -46.0491 	 24.76 	 82.6024
|  9> C 	 -45.8462 	 24.5086 	 81.25
| 10> C 	 -44.4835 	 24.4762 	 80.8689
| 11> C 	 -43.6962 	 24.693 	 81.95
| 12> H 	 -44.0496 	 24.2465 	 79.9083
| 13> C 	 -46.9876 	 24.2213 	 80.2359
| 14> H 	 -47.4303 	 25.2104 	 79.9178
| 15> H 	 -47.8001 	 23.7292 	 80.8263
| 16> C 	 -46.6207 	 23.3459 	 78.9897
| 17> H 	 -47.5517 	 23.3012 	 78.3902
| 18> H 	 -45.7755 	 23.7985 	 78.434
| 19> C 	 -46.3965 	 21.909 	 79.37
| 20> H 	 -45.4135 	 21.8333 	 79.8898
| 21> H 	 -47.1154 	 21.4578 	 80.002
| 22> H 	 -46.3549 	 21.3021 	 78.4096
| 23> S 	 -41.6686 	 23.3811 	 80.9539
| 24> C 	 -40.0447 	 23.629 	 81.4606
| 25> C 	 -39.9221 	 24.826 	 82.1389
| 26> C 	 -41.2167 	 25.3854 	 82.4713
| 27> C 	 -42.2629 	 24.6473 	 81.9036
| 28> H 	 -38.9441 	 25.1683 	 82.4336
| 29> C 	 -41.3381 	 26.6665 	 83.2924
| 30> H 	 -40.9866 	 26.394 	 84.3031
| 31> H 	 -42.3488 	 26.987 	 83.4718
| 32> C 	 -40.5144 	 27.8866 	 82.7276
| 33> H 	 -39.4986 	 27.5188 	 82.4662
| 34> H 	 -40.3072 	 28.7489 	 83.3597
| 35> C 	 -41.064 	 28.4374 	 81.3937
| 36> H 	 -40.6789 	 27.9175 	 80.4855
| 37> H 	 -40.5601 	 29.4077 	 81.2428
| 38> H 	 -42.1423 	 28.6345 	 81.4156
| 39> H 	 -46.9599 	 24.6262 	 83.0346
| 40> H 	 -39.2288 	 23.0577 	 81.1162
| 41> *
| 42>
| 43>                          ****END OF INPUT****

CARTESIAN COORDINATES (ANGSTROEM)
---------------------------------
  S    -44.579700   24.797700   83.387800
  C    -46.049100   24.760000   82.602400
  C    -45.846200   24.508600   81.250000
  C    -44.483500   24.476200   80.868900
  C    -43.696200   24.693000   81.950000
  H    -44.049600   24.246500   79.908300
  C    -46.987600   24.221300   80.235900
  H    -47.430300   25.210400   79.917800
  H    -47.800100   23.729200   80.826300
  C    -46.620700   23.345900   78.989700
  H    -47.551700   23.301200   78.390200
  H    -45.775500   23.798500   78.434000
  C    -46.396500   21.909000   79.370000
  H    -45.413500   21.833300   79.889800
  H    -47.115400   21.457800   80.002000
  H    -46.354900   21.302100   78.409600
  S    -41.668600   23.381100   80.953900
  C    -40.044700   23.629000   81.460600
  C    -39.922100   24.826000   82.138900
  C    -41.216700   25.385400   82.471300
  C    -42.262900   24.647300   81.903600
  H    -38.944100   25.168300   82.433600
  C    -41.338100   26.666500   83.292400
  H    -40.986600   26.394000   84.303100
  H    -42.348800   26.987000   83.471800
  C    -40.514400   27.886600   82.727600
  H    -39.498600   27.518800   82.466200
  H    -40.307200   28.748900   83.359700
  C    -41.064000   28.437400   81.393700
  H    -40.678900   27.917500   80.485500
  H    -40.560100   29.407700   81.242800
  H    -42.142300   28.634500   81.415600
  H    -46.959900   24.626200   83.034600
  H    -39.228800   23.057700   81.116200

 Total Charge           Charge          ....    0
 Multiplicity           Mult            ....    1
 Number of Electrons    NEL             ....  134
 Basis Dimension        Dim             ....  322

ORBITAL ENERGIES
----------------

  NO   OCC          E(Eh)            E(eV)
   0   2.0000     -88.966386     -2420.8984
   1   2.0000     -88.962597     -2420.7953
   2   2.0000     -10.319836      -280.8170
   3   2.0000     -10.318901      -280.7916
   4   2.0000     -10.311050      -280.5779
   5   2.0000     -10.307294      -280.4757
   6   2.0000     -10.298976      -280.2494
   7   2.0000     -10.298019      -280.2233
   8   2.0000     -10.297971      -280.2220
   9   2.0000     -10.295451      -280.1535
  10   2.0000     -10.293420      -280.0982
  11   2.0000     -10.291400      -280.0432
  12   2.0000     -10.290033      -280.0060
  13   2.0000     -10.285826      -279.8916
  14   2.0000     -10.276088      -279.6266
  15   2.0000     -10.275708      -279.6162
  16   2.0000      -8.083406      -219.9607
  17   2.0000      -8.079092      -219.8433
  18   2.0000      -6.041656      -164.4018
  19   2.0000      -6.037532      -164.2896
  20   2.0000      -6.037500      -164.2887
  21   2.0000      -6.034355      -164.2032
  22   2.0000      -6.033324      -164.1751
  23   2.0000      -6.029889      -164.0816
  24   2.0000      -1.024614       -27.8812
  25   2.0000      -0.996399       -27.1134
  26   2.0000      -0.906770       -24.6745
  27   2.0000      -0.901208       -24.5231
  28   2.0000      -0.881484       -23.9864
  29   2.0000      -0.852722       -23.2037
  30   2.0000      -0.842765       -22.9328
  31   2.0000      -0.817487       -22.2449
  32   2.0000      -0.779960       -21.2238
  33   2.0000      -0.768210       -20.9041
  34   2.0000      -0.708263       -19.2728
  35   2.0000      -0.697167       -18.9709
  36   2.0000      -0.688289       -18.7293
  37   2.0000      -0.665702       -18.1147
  38   2.0000      -0.640706       -17.4345
  39   2.0000      -0.620500       -16.8847
  40   2.0000      -0.600376       -16.3371
  41   2.0000      -0.573585       -15.6081
  42   2.0000      -0.547658       -14.9025
  43   2.0000      -0.542715       -14.7680
  44   2.0000      -0.541503       -14.7350
  45   2.0000      -0.536026       -14.5860
  46   2.0000      -0.521887       -14.2013
  47   2.0000      -0.516103       -14.0439
  48   2.0000      -0.510394       -13.8885
  49   2.0000      -0.496016       -13.4973
  50   2.0000      -0.489103       -13.3092
  51   2.0000      -0.482693       -13.1347
  52   2.0000      -0.472003       -12.8439
  53   2.0000      -0.466173       -12.6852
  54   2.0000      -0.458839       -12.4857
  55   2.0000      -0.445104       -12.1119
  56   2.0000      -0.439964       -11.9720
  57   2.0000      -0.437215       -11.8972
  58   2.0000      -0.430355       -11.7106
  59   2.0000      -0.420668       -11.4469
  60   2.0000      -0.419103       -11.4044
  61   2.0000      -0.413288       -11.2461
  62   2.0000      -0.408097       -11.1049
  63   2.0000      -0.356638        -9.7046
  64   2.0000      -0.331181        -9.0119
  65   2.0000      -0.325267        -8.8510
  66   2.0000      -0.288087        -7.8392
  67   0.0000       0.035953         0.9783
  68   0.0000       0.077073         2.0973
  69   0.0000       0.108168         2.9434
  70   0.0000       0.124651         3.3919
  71   0.0000       0.141962         3.8630

MULLIKEN ATOMIC CHARGES
-----------------------
   0 S :    0.142782
   1 C :   -0.073229
   2 C :   -0.101171
   3 C :   -0.016303
   4 C :   -0.109438
   5 H :    0.016037
   6 C :    0.027559
   7 H :    0.050992
   8 H :    0.021143
   9 C :   -0.085701
  10 H :    0.035103
  11 H :    0.049700
  12 C :   -0.056999
  13 H :    0.037823
  14 H :    0.025340
  15 H :    0.040792
  16 S :    0.102331
  17 C :   -0.075780
  18 C :   -0.041547
  19 C :   -0.042740
  20 C :   -0.160761
  21 H :    0.020621
  22 C :    0.093885
  23 H :    0.034507
  24 H :    0.014426
  25 C :   -0.097613
  26 H :    0.021203
  27 H :    0.036634
  28 C :   -0.067141
  29 H :    0.043652
  30 H :    0.019320
  31 H :    0.044204
  32 H :    0.007551
  33 H :    0.042817
Sum of atomic charges:    0.0000000

LOEWDIN ATOMIC CHARGES
----------------------
   0 S :    0.476339
   1 C :   -0.222684
   2 C :   -0.056996
   3 C :   -0.080656
   4 C :   -0.211377
   5 H :    0.026160
   6 C :   -0.038574
   7 H :    0.036521
   8 H :    0.028979
   9 C :   -0.047629
  10 H :    0.031297
  11 H :    0.028505
  12 C :   -0.068774
  13 H :    0.027899
  14 H :    0.018560
  15 H :    0.033144
  16 S :    0.449476
  17 C :   -0.189240
  18 C :   -0.065587
  19 C :   -0.056972
  20 C :   -0.213849
  21 H :    0.029512
  22 C :   -0.032734
  23 H :    0.035418
  24 H :    0.020112
  25 C :   -0.045204
  26 H :    0.023952
  27 H :    0.025493
  28 C :   -0.074694
  29 H :    0.031175
  30 H :    0.026882
  31 H :    0.025909
  32 H :    0.009305
  33 H :    0.020330

  Mayer bond orders larger than 0.100000
B(  0-S ,  1-C ) :   1.1593 B(  0-S ,  4-C ) :   1.1975 B(  1-C ,  2-C ) :   1.5787
B(  1-C , 32-H ) :   0.9805 B(  2-C ,  3-C ) :   1.2755 B(  2-C ,  6-C ) :   0.9990
B(  3-C ,  4-C ) :   1.5187 B(  3-C ,  5-H ) :   0.9951 B(  4-C , 20-C ) :   1.0296
B(  6-C ,  7-H ) :   0.9417 B(  6-C ,  8-H ) :   0.9459 B(  6-C ,  9-C ) :   1.0772
B(  9-C , 10-H ) :   0.9530 B(  9-C , 11-H ) :   0.9494 B(  9-C , 12-C ) :   1.0804
B( 12-C , 13-H ) :   0.9731 B( 12-C , 14-H ) :   0.9735 B( 12-C , 15-H ) :   0.9741
B( 16-S , 17-C ) :   1.1685 B( 16-S , 20-C ) :   1.1637 B( 17-C , 18-C ) :   1.5997
B( 17-C , 33-H ) :   0.9737 B( 18-C , 19-C ) :   1.2321 B( 18-C , 21-H ) :   0.9918
B( 19-C , 20-C ) :   1.5634 B( 19-C , 22-C ) :   1.0410 B( 22-C , 23-H ) :   0.9318
B( 22-C , 24-H ) :   0.9426 B( 22-C , 25-C ) :   1.0569 B( 25-C , 26-H ) :   0.9569
B( 25-C , 27-H ) :   0.9653 B( 25-C , 28-C ) :   1.0709 B( 28-C , 29-H ) :   0.9769
B( 28-C , 30-H ) :   0.9722 B( 28-C , 31-H ) :   0.9773

Dispersion correction           -0.014570593
FINAL SINGLE POINT ENERGY     -1339.875309155476

DIPOLE MOMENT
-------------
                                X             Y             Z
Electronic contribution:      3.87541      -7.30245       9.37251
Nuclear contribution   :     -3.83295       7.37417      -9.52141
                        -----------------------------------------
Total Dipole Moment    :      0.04246       0.07171      -0.14890
                        -----------------------------------------
Magnitude (a.u.)       :      0.17064
Magnitude (Debye)      :      0.43373

Rotational constants in cm-1:     0.021964     0.008471     0.007337
Rotational constants in MHz :   658.478592   253.942237   219.969061

                             ****ORCA TERMINATED NORMALLY****
TOTAL RUN TIME: 0 days 0 hours 0 minutes 30 seconds 380 msec
