                         Program Version 4.2.1 -  RELEASE  -
|  1> ! wB97X-D3 SP def2-SVP
|  2> %pal
|  3> nprocs 16
|  4> end
|  5>
|  6> * xyz 0 1
|  7> S 	 -109.196 	 37.9945 	 128.849
|  8> C 	 -107.412 	 37.7473 	 129.022
|  9> C 	 -106.805 	 38.9252 	 128.868
| 10> C 	 -107.718 	 40.056 	 128.899
| 11> C 	 -109.065 	 39.7197 	 129.019
| 12> H 	 -107.333 	 41.0271 	 128.89
| 13> C 	 -105.296 	 39.2031 	 128.685
| 14> H 	 -105.158 	 39.5918 	 127.685
| 15> H 	 -104.778 	 38.3304 	 128.72
| 16> C 	 -104.57 	 40.1749 	 129.728
| 17> H 	 -103.622 	 40.4327 	 129.303
| 18> H 	 -105.074 	 41.1823 	 129.706
| 19> C 	 -104.557 	 39.5736 	 131.187
| 20> H 	 -104.045 	 40.348 	 131.818
| 21> H 	 -105.556 	 39.4231 	 131.548
| 22> H 	 -104.047 	 38.5927 	 131.172
| 23> S 	 -111.155 	 40.2411 	 127.187
| 24> C 	 -112.098 	 41.7156 	 127.373
| 25> C 	 -111.66 	 42.4282 	 128.476
| 26> C 	 -110.489 	 41.8607 	 129.18
| 27> C 	 -110.171 	 40.6207 	 128.683
| 28> H 	 -112.176 	 43.3214 	 128.771
| 29> C 	 -109.825 	 42.5396 	 130.364
| 30> H 	 -109.154 	 41.7985 	 130.826
| 31> H 	 -110.575 	 42.8319 	 131.169
| 32> C 	 -109.113 	 43.8645 	 129.988
| 33> H 	 -109.869 	 44.5631 	 129.828
| 34> H 	 -108.57 	 43.6493 	 129.109
| 35> C 	 -108.169 	 44.4268 	 131.052
| 36> H 	 -107.561 	 45.238 	 130.644
| 37> H 	 -107.473 	 43.6386 	 131.509
| 38> H 	 -108.651 	 44.8035 	 131.958
| 39> H 	 -106.861 	 36.837 	 129.123
| 40> H 	 -113.005 	 41.9297 	 126.851
| 41> *
| 42>
| 43>                          ****END OF INPUT****

CARTESIAN COORDINATES (ANGSTROEM)
---------------------------------
  S    -109.196000   37.994500  128.849000
  C    -107.412000   37.747300  129.022000
  C    -106.805000   38.925200  128.868000
  C    -107.718000   40.056000  128.899000
  C    -109.065000   39.719700  129.019000
  H    -107.333000   41.027100  128.890000
  C    -105.296000   39.203100  128.685000
  H    -105.158000   39.591800  127.685000
  H    -104.778000   38.330400  128.720000
  C    -104.570000   40.174900  129.728000
  H    -103.622000   40.432700  129.303000
  H    -105.074000   41.182300  129.706000
  C    -104.557000   39.573600  131.187000
  H    -104.045000   40.348000  131.818000
  H    -105.556000   39.423100  131.548000
  H    -104.047000   38.592700  131.172000
  S    -111.155000   40.241100  127.187000
  C    -112.098000   41.715600  127.373000
  C    -111.660000   42.428200  128.476000
  C    -110.489000   41.860700  129.180000
  C    -110.171000   40.620700  128.683000
  H    -112.176000   43.321400  128.771000
  C    -109.825000   42.539600  130.364000
  H    -109.154000   41.798500  130.826000
  H    -110.575000   42.831900  131.169000
  C    -109.113000   43.864500  129.988000
  H    -109.869000   44.563100  129.828000
  H    -108.570000   43.649300  129.109000
  C    -108.169000   44.426800  131.052000
  H    -107.561000   45.238000  130.644000
  H    -107.473000   43.638600  131.509000
  H    -108.651000   44.803500  131.958000
  H    -106.861000   36.837000  129.123000
  H    -113.005000   41.929700  126.851000

 Total Charge           Charge          ....    0
 Multiplicity           Mult            ....    1
 Number of Electrons    NEL             ....  134
 Basis Dimension        Dim             ....  322

ORBITAL ENERGIES
----------------

  NO   OCC          E(Eh)            E(eV)
   0   2.0000     -88.965176     -2420.8655
   1   2.0000     -88.962397     -2420.7899
   2   2.0000     -10.333933      -281.2006
   3   2.0000     -10.333463      -281.1878
   4   2.0000     -10.317986      -280.7667
   5   2.0000     -10.316487      -280.7259
   6   2.0000     -10.307463      -280.4803
   7   2.0000     -10.301318      -280.3131
   8   2.0000     -10.298010      -280.2231
   9   2.0000     -10.297429      -280.2073
  10   2.0000     -10.297134      -280.1993
  11   2.0000     -10.294510      -280.1279
  12   2.0000     -10.291271      -280.0397
  13   2.0000     -10.287348      -279.9330
  14   2.0000     -10.285194      -279.8744
  15   2.0000     -10.281361      -279.7701
  16   2.0000      -8.079336      -219.8499
  17   2.0000      -8.075977      -219.7585
  18   2.0000      -6.038156      -164.3066
  19   2.0000      -6.034763      -164.2142
  20   2.0000      -6.034039      -164.1946
  21   2.0000      -6.030763      -164.1054
  22   2.0000      -6.029639      -164.0748
  23   2.0000      -6.026378      -163.9861
  24   2.0000      -1.002293       -27.2738
  25   2.0000      -0.976024       -26.5590
  26   2.0000      -0.907933       -24.7061
  27   2.0000      -0.904599       -24.6154
  28   2.0000      -0.869570       -23.6622
  29   2.0000      -0.847873       -23.0718
  30   2.0000      -0.835615       -22.7382
  31   2.0000      -0.812720       -22.1152
  32   2.0000      -0.784533       -21.3482
  33   2.0000      -0.775395       -21.0996
  34   2.0000      -0.711569       -19.3628
  35   2.0000      -0.701659       -19.0931
  36   2.0000      -0.699157       -19.0250
  37   2.0000      -0.657883       -17.9019
  38   2.0000      -0.638528       -17.3752
  39   2.0000      -0.624333       -16.9890
  40   2.0000      -0.592224       -16.1152
  41   2.0000      -0.573168       -15.5967
  42   2.0000      -0.564858       -15.3706
  43   2.0000      -0.548745       -14.9321
  44   2.0000      -0.535650       -14.5758
  45   2.0000      -0.523427       -14.2432
  46   2.0000      -0.517842       -14.0912
  47   2.0000      -0.517247       -14.0750
  48   2.0000      -0.506591       -13.7850
  49   2.0000      -0.500197       -13.6111
  50   2.0000      -0.490756       -13.3541
  51   2.0000      -0.484745       -13.1906
  52   2.0000      -0.466907       -12.7052
  53   2.0000      -0.461605       -12.5609
  54   2.0000      -0.456162       -12.4128
  55   2.0000      -0.449475       -12.2308
  56   2.0000      -0.445347       -12.1185
  57   2.0000      -0.431311       -11.7366
  58   2.0000      -0.430485       -11.7141
  59   2.0000      -0.426856       -11.6153
  60   2.0000      -0.424275       -11.5451
  61   2.0000      -0.418921       -11.3994
  62   2.0000      -0.414088       -11.2679
  63   2.0000      -0.351335        -9.5603
  64   2.0000      -0.328169        -8.9299
  65   2.0000      -0.325849        -8.8668
  66   2.0000      -0.296636        -8.0719
  67   0.0000       0.026999         0.7347
  68   0.0000       0.066234         1.8023
  69   0.0000       0.106459         2.8969
  70   0.0000       0.115396         3.1401
  71   0.0000       0.121130         3.2961

MULLIKEN ATOMIC CHARGES
-----------------------
   0 S :    0.083066
   1 C :   -0.112918
   2 C :   -0.093009
   3 C :    0.049151
   4 C :   -0.122590
   5 H :   -0.013367
   6 C :    0.102871
   7 H :    0.038501
   8 H :   -0.014445
   9 C :   -0.095829
  10 H :    0.025173
  11 H :    0.028042
  12 C :   -0.059737
  13 H :    0.050102
  14 H :    0.045654
  15 H :    0.040427
  16 S :    0.082148
  17 C :   -0.083277
  18 C :   -0.021762
  19 C :   -0.048763
  20 C :   -0.125800
  21 H :    0.014660
  22 C :    0.021006
  23 H :    0.028705
  24 H :    0.039618
  25 C :   -0.033404
  26 H :    0.022077
  27 H :    0.026536
  28 C :   -0.070756
  29 H :    0.042422
  30 H :    0.032474
  31 H :    0.027678
  32 H :    0.037106
  33 H :    0.058241
Sum of atomic charges:   -0.0000000

LOEWDIN ATOMIC CHARGES
----------------------
   0 S :    0.383265
   1 C :   -0.170963
   2 C :   -0.062824
   3 C :   -0.044512
   4 C :   -0.197196
   5 H :    0.016961
   6 C :   -0.021234
   7 H :    0.035722
   8 H :    0.010833
   9 C :   -0.039311
  10 H :    0.019631
  11 H :    0.023148
  12 C :   -0.065168
  13 H :    0.034595
  14 H :    0.025434
  15 H :    0.028239
  16 S :    0.358093
  17 C :   -0.178271
  18 C :   -0.065173
  19 C :   -0.057174
  20 C :   -0.166465
  21 H :    0.025882
  22 C :   -0.034607
  23 H :    0.028410
  24 H :    0.037360
  25 C :   -0.031998
  26 H :    0.018514
  27 H :    0.019580
  28 C :   -0.072247
  29 H :    0.028509
  30 H :    0.030733
  31 H :    0.023700
  32 H :    0.029611
  33 H :    0.028925

  Mayer bond orders larger than 0.100000
B(  0-S ,  1-C ) :   1.1081 B(  0-S ,  4-C ) :   1.1353 B(  1-C ,  2-C ) :   1.6519
B(  1-C , 32-H ) :   0.9700 B(  2-C ,  3-C ) :   1.2273 B(  2-C ,  6-C ) :   1.0172
B(  3-C ,  4-C ) :   1.5499 B(  3-C ,  5-H ) :   1.0041 B(  4-C , 20-C ) :   1.0395
B(  6-C ,  7-H ) :   0.9378 B(  6-C ,  8-H ) :   0.9391 B(  6-C ,  9-C ) :   1.0674
B(  9-C , 10-H ) :   0.9574 B(  9-C , 11-H ) :   0.9574 B(  9-C , 12-C ) :   1.0560
B( 12-C , 13-H ) :   0.9756 B( 12-C , 14-H ) :   0.9776 B( 12-C , 15-H ) :   0.9775
B( 16-S , 17-C ) :   1.1269 B( 16-S , 20-C ) :   1.1037 B( 17-C , 18-C ) :   1.6608
B( 17-C , 33-H ) :   0.9672 B( 18-C , 19-C ) :   1.1796 B( 18-C , 21-H ) :   0.9889
B( 19-C , 20-C ) :   1.6618 B( 19-C , 22-C ) :   1.0625 B( 22-C , 23-H ) :   0.9351
B( 22-C , 24-H ) :   0.9388 B( 22-C , 25-C ) :   1.0483 B( 25-C , 26-H ) :   0.9527
B( 25-C , 27-H ) :   0.9591 B( 25-C , 28-C ) :   1.0897 B( 28-C , 29-H ) :   0.9753
B( 28-C , 30-H ) :   0.9742 B( 28-C , 31-H ) :   0.9727

Dispersion correction           -0.014403767
FINAL SINGLE POINT ENERGY     -1339.866233194783

DIPOLE MOMENT
-------------
                                X             Y             Z
Electronic contribution:    -22.02818     -16.91220     -14.92441
Nuclear contribution   :     22.62715      17.44636      15.11202
                        -----------------------------------------
Total Dipole Moment    :      0.59898       0.53416       0.18761
                        -----------------------------------------
Magnitude (a.u.)       :      0.82420
Magnitude (Debye)      :      2.09494

Rotational constants in cm-1:     0.016451     0.009962     0.006745
Rotational constants in MHz :   493.190172   298.659278   202.196056

                             ****ORCA TERMINATED NORMALLY****
TOTAL RUN TIME: 0 days 0 hours 0 minutes 33 seconds 395 msec
