                         Program Version 4.2.1 -  RELEASE  -
|  1> ! wB97X-D3 SP def2-SVP
|  2> %pal
|  3> nprocs 16
|  4> end
|  5>
|  6> * xyz 0 1
|  7> S 	 -0.134337 	 -8.58284 	 86.4352
|  8> C 	 1.10986 	 -9.43551 	 87.3796
|  9> C 	 0.788127 	 -9.44553 	 88.7219
| 10> C 	 -0.259988 	 -8.61605 	 89.0895
| 11> C 	 -0.884502 	 -8.0308 	 87.9841
| 12> H 	 -0.679786 	 -8.43406 	 90.1161
| 13> C 	 1.60029 	 -10.1804 	 89.7757
| 14> H 	 2.68143 	 -10.1461 	 89.3861
| 15> H 	 1.26712 	 -11.1988 	 89.6529
| 16> C 	 1.71651 	 -9.62357 	 91.1971
| 17> H 	 2.68558 	 -9.76568 	 91.585
| 18> H 	 1.52318 	 -8.5161 	 91.2567
| 19> C 	 0.670806 	 -10.2405 	 92.1326
| 20> H 	 -0.261869 	 -10.4598 	 91.6305
| 21> H 	 1.06979 	 -11.1594 	 92.5635
| 22> H 	 0.533734 	 -9.64955 	 93.022
| 23> S 	 -3.57704 	 -8.17619 	 87.3855
| 24> C 	 -4.65233 	 -6.95597 	 88.0445
| 25> C 	 -3.93062 	 -5.95116 	 88.5967
| 26> C 	 -2.56585 	 -6.12634 	 88.6488
| 27> C 	 -2.19103 	 -7.32882 	 88.0438
| 28> H 	 -4.42914 	 -5.10658 	 88.9931
| 29> C 	 -1.66017 	 -5.18038 	 89.4324
| 30> H 	 -2.03168 	 -4.12337 	 89.3433
| 31> H 	 -0.579116 	 -5.23765 	 89.0716
| 32> C 	 -1.79438 	 -5.5114 	 90.8997
| 33> H 	 -1.75614 	 -6.55667 	 91.0662
| 34> H 	 -2.7666 	 -5.26572 	 91.2072
| 35> C 	 -0.680545 	 -4.81659 	 91.7021
| 36> H 	 -0.632706 	 -3.73353 	 91.6609
| 37> H 	 0.319287 	 -5.18068 	 91.4266
| 38> H 	 -0.713512 	 -4.89944 	 92.7551
| 39> H 	 1.93737 	 -10.0598 	 87.0282
| 40> H 	 -5.71981 	 -7.02951 	 87.9393
| 41> *
| 42>
| 43>                          ****END OF INPUT****

CARTESIAN COORDINATES (ANGSTROEM)
---------------------------------
  S     -0.134337   -8.582840   86.435200
  C      1.109860   -9.435510   87.379600
  C      0.788127   -9.445530   88.721900
  C     -0.259988   -8.616050   89.089500
  C     -0.884502   -8.030800   87.984100
  H     -0.679786   -8.434060   90.116100
  C      1.600290  -10.180400   89.775700
  H      2.681430  -10.146100   89.386100
  H      1.267120  -11.198800   89.652900
  C      1.716510   -9.623570   91.197100
  H      2.685580   -9.765680   91.585000
  H      1.523180   -8.516100   91.256700
  C      0.670806  -10.240500   92.132600
  H     -0.261869  -10.459800   91.630500
  H      1.069790  -11.159400   92.563500
  H      0.533734   -9.649550   93.022000
  S     -3.577040   -8.176190   87.385500
  C     -4.652330   -6.955970   88.044500
  C     -3.930620   -5.951160   88.596700
  C     -2.565850   -6.126340   88.648800
  C     -2.191030   -7.328820   88.043800
  H     -4.429140   -5.106580   88.993100
  C     -1.660170   -5.180380   89.432400
  H     -2.031680   -4.123370   89.343300
  H     -0.579116   -5.237650   89.071600
  C     -1.794380   -5.511400   90.899700
  H     -1.756140   -6.556670   91.066200
  H     -2.766600   -5.265720   91.207200
  C     -0.680545   -4.816590   91.702100
  H     -0.632706   -3.733530   91.660900
  H      0.319287   -5.180680   91.426600
  H     -0.713512   -4.899440   92.755100
  H      1.937370  -10.059800   87.028200
  H     -5.719810   -7.029510   87.939300

 Total Charge           Charge          ....    0
 Multiplicity           Mult            ....    1
 Number of Electrons    NEL             ....  134
 Basis Dimension        Dim             ....  322

ORBITAL ENERGIES
----------------

  NO   OCC          E(Eh)            E(eV)
   0   2.0000     -88.970168     -2421.0014
   1   2.0000     -88.963104     -2420.8091
   2   2.0000     -10.334309      -281.2108
   3   2.0000     -10.325934      -280.9829
   4   2.0000     -10.314218      -280.6641
   5   2.0000     -10.313221      -280.6370
   6   2.0000     -10.298055      -280.2243
   7   2.0000     -10.297837      -280.2184
   8   2.0000     -10.296350      -280.1779
   9   2.0000     -10.295887      -280.1653
  10   2.0000     -10.295084      -280.1435
  11   2.0000     -10.289105      -279.9808
  12   2.0000     -10.283431      -279.8264
  13   2.0000     -10.280248      -279.7398
  14   2.0000     -10.274880      -279.5937
  15   2.0000     -10.274757      -279.5903
  16   2.0000      -8.083077      -219.9517
  17   2.0000      -8.077992      -219.8133
  18   2.0000      -6.041652      -164.4017
  19   2.0000      -6.037940      -164.3007
  20   2.0000      -6.036405      -164.2589
  21   2.0000      -6.033777      -164.1874
  22   2.0000      -6.032476      -164.1520
  23   2.0000      -6.028847      -164.0533
  24   2.0000      -1.004796       -27.3419
  25   2.0000      -0.983432       -26.7605
  26   2.0000      -0.914785       -24.8926
  27   2.0000      -0.910025       -24.7630
  28   2.0000      -0.867521       -23.6064
  29   2.0000      -0.850533       -23.1442
  30   2.0000      -0.846545       -23.0357
  31   2.0000      -0.814582       -22.1659
  32   2.0000      -0.782340       -21.2886
  33   2.0000      -0.770370       -20.9628
  34   2.0000      -0.711076       -19.3494
  35   2.0000      -0.703783       -19.1509
  36   2.0000      -0.696082       -18.9413
  37   2.0000      -0.663308       -18.0495
  38   2.0000      -0.632634       -17.2149
  39   2.0000      -0.619225       -16.8500
  40   2.0000      -0.601843       -16.3770
  41   2.0000      -0.568902       -15.4806
  42   2.0000      -0.563571       -15.3356
  43   2.0000      -0.551834       -15.0162
  44   2.0000      -0.533429       -14.5153
  45   2.0000      -0.523690       -14.2503
  46   2.0000      -0.522573       -14.2199
  47   2.0000      -0.516732       -14.0610
  48   2.0000      -0.503893       -13.7116
  49   2.0000      -0.497895       -13.5484
  50   2.0000      -0.487256       -13.2589
  51   2.0000      -0.477126       -12.9833
  52   2.0000      -0.472125       -12.8472
  53   2.0000      -0.464513       -12.6401
  54   2.0000      -0.456115       -12.4115
  55   2.0000      -0.447664       -12.1816
  56   2.0000      -0.445411       -12.1202
  57   2.0000      -0.440080       -11.9752
  58   2.0000      -0.438778       -11.9398
  59   2.0000      -0.426211       -11.5978
  60   2.0000      -0.421376       -11.4662
  61   2.0000      -0.415304       -11.3010
  62   2.0000      -0.411754       -11.2044
  63   2.0000      -0.344253        -9.3676
  64   2.0000      -0.332579        -9.0499
  65   2.0000      -0.326511        -8.8848
  66   2.0000      -0.292639        -7.9631
  67   0.0000       0.032670         0.8890
  68   0.0000       0.057777         1.5722
  69   0.0000       0.111924         3.0456
  70   0.0000       0.119242         3.2447
  71   0.0000       0.133049         3.6204

MULLIKEN ATOMIC CHARGES
-----------------------
   0 S :    0.108968
   1 C :   -0.118606
   2 C :   -0.083276
   3 C :    0.013583
   4 C :   -0.154465
   5 H :    0.036227
   6 C :    0.024357
   7 H :    0.037238
   8 H :    0.047029
   9 C :   -0.057198
  10 H :    0.024852
  11 H :    0.040430
  12 C :   -0.056006
  13 H :    0.041321
  14 H :    0.024717
  15 H :    0.024079
  16 S :    0.106237
  17 C :   -0.093537
  18 C :   -0.020663
  19 C :   -0.009710
  20 C :   -0.191650
  21 H :   -0.001146
  22 C :    0.038334
  23 H :    0.032033
  24 H :    0.050179
  25 C :   -0.017055
  26 H :    0.012244
  27 H :    0.006840
  28 C :   -0.027718
  29 H :    0.018177
  30 H :    0.028947
  31 H :    0.013786
  32 H :    0.048031
  33 H :    0.053422
Sum of atomic charges:    0.0000000

LOEWDIN ATOMIC CHARGES
----------------------
   0 S :    0.377838
   1 C :   -0.199085
   2 C :   -0.068015
   3 C :   -0.066726
   4 C :   -0.176440
   5 H :    0.042234
   6 C :   -0.037003
   7 H :    0.041487
   8 H :    0.034235
   9 C :   -0.041824
  10 H :    0.020884
  11 H :    0.031894
  12 C :   -0.066564
  13 H :    0.023125
  14 H :    0.025233
  15 H :    0.022746
  16 S :    0.404332
  17 C :   -0.177179
  18 C :   -0.072651
  19 C :   -0.058557
  20 C :   -0.199911
  21 H :    0.025734
  22 C :   -0.028517
  23 H :    0.036074
  24 H :    0.039071
  25 C :   -0.031329
  26 H :    0.017212
  27 H :    0.017722
  28 C :   -0.067891
  29 H :    0.024893
  30 H :    0.027419
  31 H :    0.019444
  32 H :    0.033092
  33 H :    0.027024

  Mayer bond orders larger than 0.100000
B(  0-S ,  1-C ) :   1.1211 B(  0-S ,  4-C ) :   1.1489 B(  1-C ,  2-C ) :   1.6284
B(  1-C ,  4-C ) :   0.1072 B(  1-C , 32-H ) :   0.9624 B(  2-C ,  3-C ) :   1.2659
B(  2-C ,  6-C ) :   0.9974 B(  3-C ,  4-C ) :   1.5656 B(  3-C ,  5-H ) :   0.9736
B(  4-C , 20-C ) :   1.0181 B(  6-C ,  7-H ) :   0.9514 B(  6-C ,  8-H ) :   0.9366
B(  6-C ,  9-C ) :   1.0552 B(  9-C , 10-H ) :   0.9612 B(  9-C , 11-H ) :   0.9612
B(  9-C , 12-C ) :   1.0696 B( 12-C , 13-H ) :   0.9792 B( 12-C , 14-H ) :   0.9740
B( 12-C , 15-H ) :   0.9750 B( 16-S , 17-C ) :   1.1564 B( 16-S , 20-C ) :   1.1610
B( 17-C , 18-C ) :   1.5847 B( 17-C , 20-C ) :   0.1057 B( 17-C , 33-H ) :   0.9727
B( 18-C , 19-C ) :   1.2646 B( 18-C , 21-H ) :   0.9961 B( 19-C , 20-C ) :   1.5810
B( 19-C , 22-C ) :   1.0461 B( 22-C , 23-H ) :   0.9324 B( 22-C , 24-H ) :   0.9409
B( 22-C , 25-C ) :   1.0553 B( 25-C , 26-H ) :   0.9535 B( 25-C , 27-H ) :   0.9482
B( 25-C , 28-C ) :   1.0791 B( 28-C , 29-H ) :   0.9710 B( 28-C , 30-H ) :   0.9751
B( 28-C , 31-H ) :   0.9721

Dispersion correction           -0.014888997
FINAL SINGLE POINT ENERGY     -1339.869166822981

DIPOLE MOMENT
-------------
                                X             Y             Z
Electronic contribution:    -11.68253      -4.43938     -27.89888
Nuclear contribution   :     11.80833       4.48771      28.68096
                        -----------------------------------------
Total Dipole Moment    :      0.12581       0.04833       0.78208
                        -----------------------------------------
Magnitude (a.u.)       :      0.79361
Magnitude (Debye)      :      2.01719

Rotational constants in cm-1:     0.015784     0.010436     0.007574
Rotational constants in MHz :   473.202231   312.874248   227.076127

                             ****ORCA TERMINATED NORMALLY****
TOTAL RUN TIME: 0 days 0 hours 0 minutes 35 seconds 936 msec
