                         Program Version 4.2.1 -  RELEASE  -
|  1> ! wB97X-D3 SP def2-SVP
|  2> %pal
|  3> nprocs 16
|  4> end
|  5>
|  6> * xyz 0 1
|  7> S 	 -12.1758 	 61.0617 	 54.5112
|  8> C 	 -11.423 	 59.7082 	 53.7895
|  9> C 	 -10.2123 	 59.3842 	 54.3617
| 10> C 	 -9.77559 	 60.4924 	 55.2919
| 11> C 	 -10.7401 	 61.4583 	 55.4089
| 12> H 	 -8.88295 	 60.5534 	 55.8741
| 13> C 	 -9.3257 	 58.1972 	 53.8814
| 14> H 	 -9.88867 	 57.3412 	 53.4597
| 15> H 	 -8.87015 	 57.6749 	 54.7771
| 16> C 	 -8.10275 	 58.4863 	 53.1258
| 17> H 	 -7.6782 	 57.5641 	 52.8259
| 18> H 	 -8.32755 	 59.0697 	 52.2009
| 19> C 	 -7.00064 	 59.185 	 53.8909
| 20> H 	 -6.07363 	 59.0633 	 53.463
| 21> H 	 -7.32218 	 60.2089 	 53.6971
| 22> H 	 -6.95033 	 59.0413 	 54.9817
| 23> S 	 -11.8762 	 62.8308 	 57.5399
| 24> C 	 -10.9981 	 64.1345 	 58.1294
| 25> C 	 -9.82567 	 64.3889 	 57.5219
| 26> C 	 -9.58687 	 63.5104 	 56.4212
| 27> C 	 -10.6355 	 62.5892 	 56.3154
| 28> H 	 -9.18359 	 65.2509 	 57.7629
| 29> C 	 -8.40778 	 63.5541 	 55.5103
| 30> H 	 -8.26991 	 64.5887 	 55.1323
| 31> H 	 -8.61336 	 62.8098 	 54.6972
| 32> C 	 -7.06334 	 63.1297 	 56.2007
| 33> H 	 -7.30093 	 62.2611 	 56.7367
| 34> H 	 -6.59971 	 64.0392 	 56.7343
| 35> C 	 -6.05691 	 62.7793 	 55.1086
| 36> H 	 -5.02983 	 62.9093 	 55.4383
| 37> H 	 -6.06189 	 63.4526 	 54.2548
| 38> H 	 -6.15724 	 61.8699 	 54.4792
| 39> H 	 -11.9163 	 59.0394 	 53.1514
| 40> H 	 -11.4059 	 64.7312 	 58.9165
| 41> *
| 42>
| 43>                          ****END OF INPUT****

CARTESIAN COORDINATES (ANGSTROEM)
---------------------------------
  S    -12.175800   61.061700   54.511200
  C    -11.423000   59.708200   53.789500
  C    -10.212300   59.384200   54.361700
  C     -9.775590   60.492400   55.291900
  C    -10.740100   61.458300   55.408900
  H     -8.882950   60.553400   55.874100
  C     -9.325700   58.197200   53.881400
  H     -9.888670   57.341200   53.459700
  H     -8.870150   57.674900   54.777100
  C     -8.102750   58.486300   53.125800
  H     -7.678200   57.564100   52.825900
  H     -8.327550   59.069700   52.200900
  C     -7.000640   59.185000   53.890900
  H     -6.073630   59.063300   53.463000
  H     -7.322180   60.208900   53.697100
  H     -6.950330   59.041300   54.981700
  S    -11.876200   62.830800   57.539900
  C    -10.998100   64.134500   58.129400
  C     -9.825670   64.388900   57.521900
  C     -9.586870   63.510400   56.421200
  C    -10.635500   62.589200   56.315400
  H     -9.183590   65.250900   57.762900
  C     -8.407780   63.554100   55.510300
  H     -8.269910   64.588700   55.132300
  H     -8.613360   62.809800   54.697200
  C     -7.063340   63.129700   56.200700
  H     -7.300930   62.261100   56.736700
  H     -6.599710   64.039200   56.734300
  C     -6.056910   62.779300   55.108600
  H     -5.029830   62.909300   55.438300
  H     -6.061890   63.452600   54.254800
  H     -6.157240   61.869900   54.479200
  H    -11.916300   59.039400   53.151400
  H    -11.405900   64.731200   58.916500

 Total Charge           Charge          ....    0
 Multiplicity           Mult            ....    1
 Number of Electrons    NEL             ....  134
 Basis Dimension        Dim             ....  322

ORBITAL ENERGIES
----------------

  NO   OCC          E(Eh)            E(eV)
   0   2.0000     -88.964844     -2420.8565
   1   2.0000     -88.964596     -2420.8497
   2   2.0000     -10.325394      -280.9683
   3   2.0000     -10.321950      -280.8745
   4   2.0000     -10.311155      -280.5808
   5   2.0000     -10.308891      -280.5192
   6   2.0000     -10.306302      -280.4487
   7   2.0000     -10.299456      -280.2625
   8   2.0000     -10.298924      -280.2480
   9   2.0000     -10.297522      -280.2098
  10   2.0000     -10.293536      -280.1014
  11   2.0000     -10.293285      -280.0945
  12   2.0000     -10.289050      -279.9793
  13   2.0000     -10.279979      -279.7324
  14   2.0000     -10.274466      -279.5824
  15   2.0000     -10.270337      -279.4701
  16   2.0000      -8.081146      -219.8992
  17   2.0000      -8.080518      -219.8821
  18   2.0000      -6.039355      -164.3392
  19   2.0000      -6.039000      -164.3296
  20   2.0000      -6.035624      -164.2377
  21   2.0000      -6.034939      -164.2190
  22   2.0000      -6.031947      -164.1376
  23   2.0000      -6.031160      -164.1162
  24   2.0000      -1.011788       -27.5321
  25   2.0000      -0.989055       -26.9136
  26   2.0000      -0.921305       -25.0700
  27   2.0000      -0.911477       -24.8025
  28   2.0000      -0.874961       -23.8089
  29   2.0000      -0.855536       -23.2803
  30   2.0000      -0.843123       -22.9425
  31   2.0000      -0.816510       -22.2184
  32   2.0000      -0.787625       -21.4324
  33   2.0000      -0.773302       -21.0426
  34   2.0000      -0.704090       -19.1593
  35   2.0000      -0.695329       -18.9209
  36   2.0000      -0.694466       -18.8974
  37   2.0000      -0.661046       -17.9880
  38   2.0000      -0.645313       -17.5599
  39   2.0000      -0.614822       -16.7302
  40   2.0000      -0.599185       -16.3046
  41   2.0000      -0.575773       -15.6676
  42   2.0000      -0.575251       -15.6534
  43   2.0000      -0.557548       -15.1716
  44   2.0000      -0.542164       -14.7530
  45   2.0000      -0.523231       -14.2378
  46   2.0000      -0.513734       -13.9794
  47   2.0000      -0.512781       -13.9535
  48   2.0000      -0.507195       -13.8015
  49   2.0000      -0.494744       -13.4627
  50   2.0000      -0.492518       -13.4021
  51   2.0000      -0.484153       -13.1745
  52   2.0000      -0.468652       -12.7527
  53   2.0000      -0.466011       -12.6808
  54   2.0000      -0.463038       -12.5999
  55   2.0000      -0.454941       -12.3796
  56   2.0000      -0.448729       -12.2105
  57   2.0000      -0.437801       -11.9132
  58   2.0000      -0.430311       -11.7094
  59   2.0000      -0.427289       -11.6271
  60   2.0000      -0.419298       -11.4097
  61   2.0000      -0.411804       -11.2057
  62   2.0000      -0.401895       -10.9361
  63   2.0000      -0.350198        -9.5294
  64   2.0000      -0.331900        -9.0315
  65   2.0000      -0.326322        -8.8797
  66   2.0000      -0.294325        -8.0090
  67   0.0000       0.038146         1.0380
  68   0.0000       0.075407         2.0519
  69   0.0000       0.115028         3.1301
  70   0.0000       0.122419         3.3312
  71   0.0000       0.124244         3.3809

MULLIKEN ATOMIC CHARGES
-----------------------
   0 S :    0.116254
   1 C :   -0.084913
   2 C :   -0.077929
   3 C :    0.021097
   4 C :   -0.152028
   5 H :    0.001034
   6 C :    0.031224
   7 H :    0.030321
   8 H :    0.021976
   9 C :   -0.034903
  10 H :    0.010276
  11 H :    0.028607
  12 C :   -0.065975
  13 H :    0.021669
  14 H :    0.046351
  15 H :    0.037152
  16 S :    0.122520
  17 C :   -0.073863
  18 C :   -0.025943
  19 C :   -0.038974
  20 C :   -0.169643
  21 H :    0.020840
  22 C :    0.020247
  23 H :    0.036667
  24 H :    0.045044
  25 C :   -0.042058
  26 H :    0.029175
  27 H :    0.051359
  28 C :   -0.057212
  29 H :    0.026812
  30 H :    0.004741
  31 H :    0.025037
  32 H :    0.029642
  33 H :    0.045397
Sum of atomic charges:    0.0000000

LOEWDIN ATOMIC CHARGES
----------------------
   0 S :    0.417261
   1 C :   -0.197978
   2 C :   -0.054715
   3 C :   -0.058052
   4 C :   -0.199273
   5 H :    0.025602
   6 C :   -0.042747
   7 H :    0.034286
   8 H :    0.037193
   9 C :   -0.041588
  10 H :    0.018383
  11 H :    0.026429
  12 C :   -0.063027
  13 H :    0.015761
  14 H :    0.029560
  15 H :    0.025815
  16 S :    0.426755
  17 C :   -0.196198
  18 C :   -0.076970
  19 C :   -0.053618
  20 C :   -0.202118
  21 H :    0.036260
  22 C :   -0.036781
  23 H :    0.034871
  24 H :    0.036250
  25 C :   -0.032115
  26 H :    0.016366
  27 H :    0.040169
  28 C :   -0.084350
  29 H :    0.024126
  30 H :    0.023279
  31 H :    0.029454
  32 H :    0.018602
  33 H :    0.023108

  Mayer bond orders larger than 0.100000
B(  0-S ,  1-C ) :   1.1360 B(  0-S ,  4-C ) :   1.1399 B(  1-C ,  2-C ) :   1.6494
B(  1-C , 32-H ) :   0.9712 B(  2-C ,  3-C ) :   1.1846 B(  2-C ,  6-C ) :   1.0279
B(  3-C ,  4-C ) :   1.5983 B(  3-C ,  5-H ) :   0.9972 B(  4-C , 20-C ) :   1.0357
B(  6-C ,  7-H ) :   0.9455 B(  6-C ,  8-H ) :   0.9334 B(  6-C ,  9-C ) :   1.0808
B(  9-C , 10-H ) :   0.9439 B(  9-C , 11-H ) :   0.9546 B(  9-C , 12-C ) :   1.0719
B( 12-C , 13-H ) :   0.9721 B( 12-C , 14-H ) :   0.9661 B( 12-C , 15-H ) :   0.9744
B( 16-S , 17-C ) :   1.1692 B( 16-S , 20-C ) :   1.1427 B( 17-C , 18-C ) :   1.6103
B( 17-C , 33-H ) :   0.9665 B( 18-C , 19-C ) :   1.2340 B( 18-C , 21-H ) :   0.9909
B( 19-C , 20-C ) :   1.5929 B( 19-C , 22-C ) :   1.0624 B( 22-C , 23-H ) :   0.9217
B( 22-C , 24-H ) :   0.9353 B( 22-C , 25-C ) :   1.0627 B( 25-C , 26-H ) :   0.9578
B( 25-C , 27-H ) :   0.9490 B( 25-C , 28-C ) :   1.0809 B( 28-C , 29-H ) :   0.9733
B( 28-C , 30-H ) :   0.9607 B( 28-C , 31-H ) :   0.9680

Dispersion correction           -0.015900201
FINAL SINGLE POINT ENERGY     -1339.862926585643

DIPOLE MOMENT
-------------
                                X             Y             Z
Electronic contribution:    -30.36292       6.65827       9.58963
Nuclear contribution   :     30.96531      -6.76140      -9.71372
                        -----------------------------------------
Total Dipole Moment    :      0.60239      -0.10313      -0.12409
                        -----------------------------------------
Magnitude (a.u.)       :      0.62362
Magnitude (Debye)      :      1.58512

Rotational constants in cm-1:     0.017464     0.010917     0.007214
Rotational constants in MHz :   523.555043   327.293849   216.255471

                             ****ORCA TERMINATED NORMALLY****
TOTAL RUN TIME: 0 days 0 hours 0 minutes 36 seconds 996 msec
