                         Program Version 4.2.1 -  RELEASE  -
|  1> ! wB97X-D3 SP def2-SVP
|  2> %pal
|  3> nprocs 16
|  4> end
|  5>
|  6> * xyz 0 1
|  7> S 	 -24.4962 	 54.4214 	 108.383
|  8> C 	 -26.2142 	 53.8409 	 108.412
|  9> C 	 -27.101 	 54.9301 	 108.48
| 10> C 	 -26.4205 	 56.1988 	 108.605
| 11> C 	 -25.0471 	 56.0625 	 108.573
| 12> H 	 -26.8823 	 57.2188 	 108.718
| 13> C 	 -28.5648 	 54.9331 	 108.631
| 14> H 	 -28.9486 	 55.4219 	 109.556
| 15> H 	 -28.8115 	 53.8636 	 108.814
| 16> C 	 -29.4759 	 55.3882 	 107.541
| 17> H 	 -30.5434 	 55.0812 	 107.698
| 18> H 	 -29.307 	 56.4755 	 107.561
| 19> C 	 -29.079 	 54.7899 	 106.17
| 20> H 	 -28.1122 	 55.2286 	 105.812
| 21> H 	 -29.1208 	 53.6892 	 106.161
| 22> H 	 -29.8053 	 55.0682 	 105.391
| 23> S 	 -23.9356 	 58.3861 	 107.675
| 24> C 	 -22.7258 	 59.1903 	 108.565
| 25> C 	 -22.3657 	 58.4362 	 109.705
| 26> C 	 -23.1771 	 57.261 	 109.887
| 27> C 	 -24.156 	 57.1759 	 108.879
| 28> H 	 -21.6218 	 58.9404 	 110.382
| 29> C 	 -22.9871 	 56.3718 	 111.089
| 30> H 	 -22.1711 	 55.6326 	 111.057
| 31> H 	 -23.9216 	 55.7865 	 111.214
| 32> C 	 -22.438 	 57.0943 	 112.35
| 33> H 	 -21.5774 	 57.7308 	 112.147
| 34> H 	 -22.0667 	 56.413 	 113.103
| 35> C 	 -23.4399 	 58.1068 	 113.017
| 36> H 	 -24.3844 	 57.6097 	 113.222
| 37> H 	 -23.7208 	 58.8571 	 112.253
| 38> H 	 -23.1104 	 58.6252 	 113.918
| 39> H 	 -26.5102 	 52.7749 	 108.588
| 40> H 	 -22.2327 	 60.0576 	 108.298
| 41> *
| 42>
| 43>                          ****END OF INPUT****

CARTESIAN COORDINATES (ANGSTROEM)
---------------------------------
  S    -24.496200   54.421400  108.383000
  C    -26.214200   53.840900  108.412000
  C    -27.101000   54.930100  108.480000
  C    -26.420500   56.198800  108.605000
  C    -25.047100   56.062500  108.573000
  H    -26.882300   57.218800  108.718000
  C    -28.564800   54.933100  108.631000
  H    -28.948600   55.421900  109.556000
  H    -28.811500   53.863600  108.814000
  C    -29.475900   55.388200  107.541000
  H    -30.543400   55.081200  107.698000
  H    -29.307000   56.475500  107.561000
  C    -29.079000   54.789900  106.170000
  H    -28.112200   55.228600  105.812000
  H    -29.120800   53.689200  106.161000
  H    -29.805300   55.068200  105.391000
  S    -23.935600   58.386100  107.675000
  C    -22.725800   59.190300  108.565000
  C    -22.365700   58.436200  109.705000
  C    -23.177100   57.261000  109.887000
  C    -24.156000   57.175900  108.879000
  H    -21.621800   58.940400  110.382000
  C    -22.987100   56.371800  111.089000
  H    -22.171100   55.632600  111.057000
  H    -23.921600   55.786500  111.214000
  C    -22.438000   57.094300  112.350000
  H    -21.577400   57.730800  112.147000
  H    -22.066700   56.413000  113.103000
  C    -23.439900   58.106800  113.017000
  H    -24.384400   57.609700  113.222000
  H    -23.720800   58.857100  112.253000
  H    -23.110400   58.625200  113.918000
  H    -26.510200   52.774900  108.588000
  H    -22.232700   60.057600  108.298000

 Total Charge           Charge          ....    0
 Multiplicity           Mult            ....    1
 Number of Electrons    NEL             ....  134
 Basis Dimension        Dim             ....  322

ORBITAL ENERGIES
----------------

  NO   OCC          E(Eh)            E(eV)
   0   2.0000     -88.971705     -2421.0432
   1   2.0000     -88.968200     -2420.9478
   2   2.0000     -10.328410      -281.0503
   3   2.0000     -10.327584      -281.0278
   4   2.0000     -10.324458      -280.9428
   5   2.0000     -10.311518      -280.5907
   6   2.0000     -10.308848      -280.5180
   7   2.0000     -10.307322      -280.4765
   8   2.0000     -10.299310      -280.2585
   9   2.0000     -10.298121      -280.2261
  10   2.0000     -10.296284      -280.1761
  11   2.0000     -10.289762      -279.9987
  12   2.0000     -10.288147      -279.9547
  13   2.0000     -10.288120      -279.9540
  14   2.0000     -10.278178      -279.6834
  15   2.0000     -10.272181      -279.5203
  16   2.0000      -8.085201      -220.0095
  17   2.0000      -8.083891      -219.9738
  18   2.0000      -6.043824      -164.4608
  19   2.0000      -6.042159      -164.4155
  20   2.0000      -6.039953      -164.3555
  21   2.0000      -6.038059      -164.3039
  22   2.0000      -6.035830      -164.2433
  23   2.0000      -6.035064      -164.2224
  24   2.0000      -1.008086       -27.4314
  25   2.0000      -0.981914       -26.7192
  26   2.0000      -0.917874       -24.9766
  27   2.0000      -0.906498       -24.6671
  28   2.0000      -0.866164       -23.5695
  29   2.0000      -0.845861       -23.0170
  30   2.0000      -0.841394       -22.8955
  31   2.0000      -0.809006       -22.0142
  32   2.0000      -0.782608       -21.2958
  33   2.0000      -0.773841       -21.0573
  34   2.0000      -0.705807       -19.2060
  35   2.0000      -0.699872       -19.0445
  36   2.0000      -0.692029       -18.8311
  37   2.0000      -0.654456       -17.8087
  38   2.0000      -0.630332       -17.1522
  39   2.0000      -0.618629       -16.8338
  40   2.0000      -0.601270       -16.3614
  41   2.0000      -0.566845       -15.4246
  42   2.0000      -0.554731       -15.0950
  43   2.0000      -0.547044       -14.8858
  44   2.0000      -0.541491       -14.7347
  45   2.0000      -0.532203       -14.4820
  46   2.0000      -0.521131       -14.1807
  47   2.0000      -0.510276       -13.8853
  48   2.0000      -0.499189       -13.5836
  49   2.0000      -0.496160       -13.5012
  50   2.0000      -0.491777       -13.3819
  51   2.0000      -0.478039       -13.0081
  52   2.0000      -0.463928       -12.6241
  53   2.0000      -0.461182       -12.5494
  54   2.0000      -0.456572       -12.4240
  55   2.0000      -0.445771       -12.1300
  56   2.0000      -0.440862       -11.9965
  57   2.0000      -0.433209       -11.7882
  58   2.0000      -0.430087       -11.7033
  59   2.0000      -0.420883       -11.4528
  60   2.0000      -0.419727       -11.4214
  61   2.0000      -0.414353       -11.2751
  62   2.0000      -0.406308       -11.0562
  63   2.0000      -0.337155        -9.1745
  64   2.0000      -0.333408        -9.0725
  65   2.0000      -0.324752        -8.8369
  66   2.0000      -0.300631        -8.1806
  67   0.0000       0.029528         0.8035
  68   0.0000       0.065906         1.7934
  69   0.0000       0.104495         2.8435
  70   0.0000       0.113951         3.1008
  71   0.0000       0.122576         3.3355

MULLIKEN ATOMIC CHARGES
-----------------------
   0 S :    0.119185
   1 C :   -0.145362
   2 C :   -0.059993
   3 C :   -0.004822
   4 C :   -0.144026
   5 H :    0.044111
   6 C :    0.038995
   7 H :    0.042323
   8 H :    0.001991
   9 C :   -0.076967
  10 H :    0.046602
  11 H :    0.030701
  12 C :   -0.077705
  13 H :    0.052444
  14 H :    0.032621
  15 H :    0.028797
  16 S :    0.132821
  17 C :   -0.073661
  18 C :   -0.077729
  19 C :   -0.024799
  20 C :   -0.178192
  21 H :    0.046299
  22 C :    0.082010
  23 H :    0.044824
  24 H :    0.042313
  25 C :   -0.109741
  26 H :    0.028259
  27 H :    0.028276
  28 C :   -0.062933
  29 H :    0.022431
  30 H :    0.032073
  31 H :    0.037911
  32 H :    0.072475
  33 H :    0.028474
Sum of atomic charges:   -0.0000000

LOEWDIN ATOMIC CHARGES
----------------------
   0 S :    0.392898
   1 C :   -0.189514
   2 C :   -0.058985
   3 C :   -0.064871
   4 C :   -0.201353
   5 H :    0.043793
   6 C :   -0.049240
   7 H :    0.038037
   8 H :    0.026418
   9 C :   -0.044425
  10 H :    0.034577
  11 H :    0.024018
  12 C :   -0.074333
  13 H :    0.032939
  14 H :    0.025180
  15 H :    0.024773
  16 S :    0.450833
  17 C :   -0.195084
  18 C :   -0.078071
  19 C :   -0.056196
  20 C :   -0.217931
  21 H :    0.040677
  22 C :   -0.037479
  23 H :    0.042562
  24 H :    0.035939
  25 C :   -0.040073
  26 H :    0.022472
  27 H :    0.022148
  28 C :   -0.074955
  29 H :    0.020471
  30 H :    0.026601
  31 H :    0.023664
  32 H :    0.040030
  33 H :    0.014477

  Mayer bond orders larger than 0.100000
B(  0-S ,  1-C ) :   1.1181 B(  0-S ,  4-C ) :   1.1413 B(  1-C ,  2-C ) :   1.6239
B(  1-C , 32-H ) :   0.9570 B(  2-C ,  3-C ) :   1.2074 B(  2-C ,  6-C ) :   1.0359
B(  3-C ,  4-C ) :   1.5899 B(  3-C ,  5-H ) :   0.9845 B(  4-C , 20-C ) :   1.0156
B(  6-C ,  7-H ) :   0.9452 B(  6-C ,  8-H ) :   0.9287 B(  6-C ,  9-C ) :   1.0704
B(  9-C , 10-H ) :   0.9547 B(  9-C , 11-H ) :   0.9546 B(  9-C , 12-C ) :   1.0844
B( 12-C , 13-H ) :   0.9689 B( 12-C , 14-H ) :   0.9757 B( 12-C , 15-H ) :   0.9746
B( 16-S , 17-C ) :   1.1862 B( 16-S , 20-C ) :   1.1722 B( 17-C , 18-C ) :   1.5798
B( 17-C , 20-C ) :   0.1022 B( 17-C , 33-H ) :   0.9753 B( 18-C , 19-C ) :   1.2569
B( 18-C , 21-H ) :   0.9766 B( 19-C , 20-C ) :   1.5487 B( 19-C , 22-C ) :   1.0446
B( 22-C , 23-H ) :   0.9299 B( 22-C , 24-H ) :   0.9392 B( 22-C , 25-C ) :   1.0574
B( 25-C , 26-H ) :   0.9514 B( 25-C , 27-H ) :   0.9597 B( 25-C , 28-C ) :   1.0667
B( 28-C , 29-H ) :   0.9766 B( 28-C , 30-H ) :   0.9740 B( 28-C , 31-H ) :   0.9775

Dispersion correction           -0.014632681
FINAL SINGLE POINT ENERGY     -1339.867552603998

DIPOLE MOMENT
-------------
                                X             Y             Z
Electronic contribution:     11.86271       0.83714     -11.07316
Nuclear contribution   :    -12.03108      -0.79275      11.44120
                        -----------------------------------------
Total Dipole Moment    :     -0.16837       0.04439       0.36804
                        -----------------------------------------
Magnitude (a.u.)       :      0.40715
Magnitude (Debye)      :      1.03490

Rotational constants in cm-1:     0.022555     0.007618     0.006907
Rotational constants in MHz :   676.179453   228.374040   207.068814

                             ****ORCA TERMINATED NORMALLY****
TOTAL RUN TIME: 0 days 0 hours 0 minutes 28 seconds 626 msec
