                         Program Version 4.2.1 -  RELEASE  -
|  1> ! wB97X-D3 SP def2-SVP
|  2> %pal
|  3> nprocs 16
|  4> end
|  5>
|  6> * xyz 0 1
|  7> S 	 -40.0514 	 51.3637 	 104.203
|  8> C 	 -38.7556 	 50.1811 	 104.274
|  9> C 	 -39.1159 	 49.0581 	 104.973
| 10> C 	 -40.5478 	 49.0675 	 105.249
| 11> C 	 -41.2089 	 50.1582 	 104.698
| 12> H 	 -41.1761 	 48.3455 	 105.716
| 13> C 	 -38.1626 	 47.894 	 105.256
| 14> H 	 -37.2678 	 48.0566 	 104.619
| 15> H 	 -38.648 	 47.0311 	 104.972
| 16> C 	 -37.7131 	 47.7217 	 106.735
| 17> H 	 -38.4153 	 47.3625 	 107.441
| 18> H 	 -36.7764 	 47.1249 	 106.703
| 19> C 	 -37.2196 	 48.9953 	 107.37
| 20> H 	 -36.8191 	 48.6817 	 108.329
| 21> H 	 -36.4234 	 49.1821 	 106.71
| 22> H 	 -37.9093 	 49.839 	 107.454
| 23> S 	 -43.1542 	 51.0819 	 106.331
| 24> C 	 -44.7924 	 50.8453 	 105.963
| 25> C 	 -44.9141 	 50.0861 	 104.862
| 26> C 	 -43.7027 	 49.7784 	 104.137
| 27> C 	 -42.6145 	 50.3503 	 104.785
| 28> H 	 -45.8998 	 49.7914 	 104.639
| 29> C 	 -43.6634 	 48.8921 	 102.958
| 30> H 	 -43.0204 	 48.1234 	 103.296
| 31> H 	 -43.0791 	 49.3241 	 102.154
| 32> C 	 -44.9455 	 48.2931 	 102.326
| 33> H 	 -45.5418 	 47.8626 	 103.121
| 34> H 	 -44.7424 	 47.4664 	 101.696
| 35> C 	 -45.8592 	 49.2966 	 101.559
| 36> H 	 -45.8842 	 50.2673 	 102.104
| 37> H 	 -46.8605 	 48.9198 	 101.537
| 38> H 	 -45.458 	 49.5238 	 100.572
| 39> H 	 -37.8652 	 50.2887 	 103.76
| 40> H 	 -45.6063 	 51.1876 	 106.531
| 41> *
| 42>
| 43>                          ****END OF INPUT****

CARTESIAN COORDINATES (ANGSTROEM)
---------------------------------
  S    -40.051400   51.363700  104.203000
  C    -38.755600   50.181100  104.274000
  C    -39.115900   49.058100  104.973000
  C    -40.547800   49.067500  105.249000
  C    -41.208900   50.158200  104.698000
  H    -41.176100   48.345500  105.716000
  C    -38.162600   47.894000  105.256000
  H    -37.267800   48.056600  104.619000
  H    -38.648000   47.031100  104.972000
  C    -37.713100   47.721700  106.735000
  H    -38.415300   47.362500  107.441000
  H    -36.776400   47.124900  106.703000
  C    -37.219600   48.995300  107.370000
  H    -36.819100   48.681700  108.329000
  H    -36.423400   49.182100  106.710000
  H    -37.909300   49.839000  107.454000
  S    -43.154200   51.081900  106.331000
  C    -44.792400   50.845300  105.963000
  C    -44.914100   50.086100  104.862000
  C    -43.702700   49.778400  104.137000
  C    -42.614500   50.350300  104.785000
  H    -45.899800   49.791400  104.639000
  C    -43.663400   48.892100  102.958000
  H    -43.020400   48.123400  103.296000
  H    -43.079100   49.324100  102.154000
  C    -44.945500   48.293100  102.326000
  H    -45.541800   47.862600  103.121000
  H    -44.742400   47.466400  101.696000
  C    -45.859200   49.296600  101.559000
  H    -45.884200   50.267300  102.104000
  H    -46.860500   48.919800  101.537000
  H    -45.458000   49.523800  100.572000
  H    -37.865200   50.288700  103.760000
  H    -45.606300   51.187600  106.531000

 Total Charge           Charge          ....    0
 Multiplicity           Mult            ....    1
 Number of Electrons    NEL             ....  134
 Basis Dimension        Dim             ....  322

ORBITAL ENERGIES
----------------

  NO   OCC          E(Eh)            E(eV)
   0   2.0000     -88.961574     -2420.7675
   1   2.0000     -88.956615     -2420.6326
   2   2.0000     -10.323506      -280.9169
   3   2.0000     -10.321231      -280.8550
   4   2.0000     -10.308357      -280.5047
   5   2.0000     -10.308282      -280.5026
   6   2.0000     -10.305792      -280.4349
   7   2.0000     -10.304446      -280.3982
   8   2.0000     -10.295067      -280.1430
   9   2.0000     -10.292206      -280.0652
  10   2.0000     -10.286953      -279.9222
  11   2.0000     -10.286841      -279.9192
  12   2.0000     -10.283420      -279.8261
  13   2.0000     -10.282816      -279.8096
  14   2.0000     -10.278441      -279.6906
  15   2.0000     -10.264166      -279.3021
  16   2.0000      -8.076730      -219.7790
  17   2.0000      -8.072322      -219.6590
  18   2.0000      -6.035253      -164.2276
  19   2.0000      -6.031331      -164.1208
  20   2.0000      -6.030794      -164.1062
  21   2.0000      -6.027296      -164.0111
  22   2.0000      -6.026734      -163.9958
  23   2.0000      -6.023007      -163.8943
  24   2.0000      -1.008518       -27.4432
  25   2.0000      -0.985242       -26.8098
  26   2.0000      -0.915216       -24.9043
  27   2.0000      -0.911223       -24.7956
  28   2.0000      -0.877862       -23.8878
  29   2.0000      -0.850359       -23.1394
  30   2.0000      -0.845842       -23.0165
  31   2.0000      -0.815173       -22.1820
  32   2.0000      -0.788441       -21.4546
  33   2.0000      -0.777433       -21.1550
  34   2.0000      -0.713757       -19.4223
  35   2.0000      -0.703018       -19.1301
  36   2.0000      -0.688310       -18.7299
  37   2.0000      -0.654106       -17.7991
  38   2.0000      -0.647843       -17.6287
  39   2.0000      -0.615439       -16.7470
  40   2.0000      -0.603421       -16.4199
  41   2.0000      -0.573023       -15.5927
  42   2.0000      -0.563551       -15.3350
  43   2.0000      -0.556829       -15.1521
  44   2.0000      -0.547332       -14.8936
  45   2.0000      -0.536582       -14.6011
  46   2.0000      -0.524399       -14.2696
  47   2.0000      -0.517894       -14.0926
  48   2.0000      -0.509328       -13.8595
  49   2.0000      -0.501975       -13.6594
  50   2.0000      -0.488830       -13.3017
  51   2.0000      -0.481689       -13.1074
  52   2.0000      -0.471816       -12.8388
  53   2.0000      -0.464754       -12.6466
  54   2.0000      -0.462823       -12.5940
  55   2.0000      -0.442297       -12.0355
  56   2.0000      -0.439289       -11.9537
  57   2.0000      -0.435527       -11.8513
  58   2.0000      -0.435037       -11.8380
  59   2.0000      -0.424014       -11.5380
  60   2.0000      -0.418229       -11.3806
  61   2.0000      -0.417014       -11.3475
  62   2.0000      -0.414167       -11.2701
  63   2.0000      -0.330992        -9.0067
  64   2.0000      -0.323166        -8.7938
  65   2.0000      -0.320037        -8.7086
  66   2.0000      -0.309474        -8.4212
  67   0.0000       0.041373         1.1258
  68   0.0000       0.050491         1.3739
  69   0.0000       0.113054         3.0764
  70   0.0000       0.124832         3.3969
  71   0.0000       0.131693         3.5835

MULLIKEN ATOMIC CHARGES
-----------------------
   0 S :    0.110432
   1 C :   -0.101794
   2 C :   -0.083982
   3 C :    0.048591
   4 C :   -0.191262
   5 H :    0.005426
   6 C :    0.119231
   7 H :    0.020969
   8 H :    0.013324
   9 C :   -0.091244
  10 H :    0.028505
  11 H :    0.032585
  12 C :   -0.034935
  13 H :    0.025856
  14 H :    0.001437
  15 H :    0.054736
  16 S :    0.096148
  17 C :   -0.046999
  18 C :   -0.053574
  19 C :   -0.006490
  20 C :   -0.185525
  21 H :   -0.005801
  22 C :    0.097159
  23 H :    0.018546
  24 H :    0.031751
  25 C :   -0.050353
  26 H :    0.016937
  27 H :    0.023216
  28 C :   -0.058975
  29 H :    0.036115
  30 H :    0.035067
  31 H :    0.035735
  32 H :    0.023044
  33 H :    0.036127
Sum of atomic charges:   -0.0000000

LOEWDIN ATOMIC CHARGES
----------------------
   0 S :    0.398264
   1 C :   -0.179842
   2 C :   -0.056656
   3 C :   -0.051811
   4 C :   -0.208056
   5 H :    0.026386
   6 C :   -0.022001
   7 H :    0.034655
   8 H :    0.020433
   9 C :   -0.037222
  10 H :    0.015788
  11 H :    0.032318
  12 C :   -0.060099
  13 H :    0.025358
  14 H :    0.014866
  15 H :    0.026286
  16 S :    0.405040
  17 C :   -0.185470
  18 C :   -0.079794
  19 C :   -0.037963
  20 C :   -0.197247
  21 H :    0.020982
  22 C :   -0.036019
  23 H :    0.036096
  24 H :    0.038029
  25 C :   -0.035662
  26 H :    0.020580
  27 H :    0.023134
  28 C :   -0.065159
  29 H :    0.029268
  30 H :    0.024246
  31 H :    0.024919
  32 H :    0.012530
  33 H :    0.023820

  Mayer bond orders larger than 0.100000
B(  0-S ,  1-C ) :   1.1353 B(  0-S ,  4-C ) :   1.1357 B(  1-C ,  2-C ) :   1.6235
B(  1-C , 32-H ) :   0.9776 B(  2-C ,  3-C ) :   1.1871 B(  2-C ,  6-C ) :   1.0280
B(  3-C ,  4-C ) :   1.6023 B(  3-C ,  5-H ) :   1.0019 B(  4-C , 20-C ) :   1.0396
B(  6-C ,  7-H ) :   0.9380 B(  6-C ,  8-H ) :   0.9376 B(  6-C ,  9-C ) :   1.0699
B(  9-C , 10-H ) :   0.9618 B(  9-C , 11-H ) :   0.9626 B(  9-C , 12-C ) :   1.0684
B( 12-C , 13-H ) :   0.9734 B( 12-C , 14-H ) :   0.9833 B( 12-C , 15-H ) :   0.9707
B( 16-S , 17-C ) :   1.1581 B( 16-S , 20-C ) :   1.1395 B( 17-C , 18-C ) :   1.6265
B( 17-C , 33-H ) :   0.9680 B( 18-C , 19-C ) :   1.2145 B( 18-C , 21-H ) :   0.9958
B( 19-C , 20-C ) :   1.6025 B( 19-C , 22-C ) :   1.0356 B( 22-C , 23-H ) :   0.9088
B( 22-C , 24-H ) :   0.9259 B( 22-C , 25-C ) :   1.0870 B( 25-C , 26-H ) :   0.9507
B( 25-C , 27-H ) :   0.9529 B( 25-C , 28-C ) :   1.0728 B( 28-C , 29-H ) :   0.9787
B( 28-C , 30-H ) :   0.9764 B( 28-C , 31-H ) :   0.9753

Dispersion correction           -0.014283512
FINAL SINGLE POINT ENERGY     -1339.852189113402

DIPOLE MOMENT
-------------
                                X             Y             Z
Electronic contribution:     -1.99077      15.84351       4.63905
Nuclear contribution   :      1.89495     -16.58686      -4.77284
                        -----------------------------------------
Total Dipole Moment    :     -0.09582      -0.74335      -0.13379
                        -----------------------------------------
Magnitude (a.u.)       :      0.76135
Magnitude (Debye)      :      1.93519

Rotational constants in cm-1:     0.023130     0.007201     0.006592
Rotational constants in MHz :   693.426418   215.888804   197.614405

                             ****ORCA TERMINATED NORMALLY****
TOTAL RUN TIME: 0 days 0 hours 0 minutes 30 seconds 12 msec
