                         Program Version 4.2.1 -  RELEASE  -
|  1> ! wB97X-D3 SP def2-SVP
|  2> %pal
|  3> nprocs 16
|  4> end
|  5>
|  6> * xyz 0 1
|  7> S 	 37.4983 	 3.09162 	 74.9795
|  8> C 	 37.8482 	 3.01327 	 73.2696
|  9> C 	 37.0793 	 2.0087 	 72.629
| 10> C 	 36.1466 	 1.39684 	 73.5271
| 11> C 	 36.2068 	 1.90111 	 74.8121
| 12> H 	 35.4178 	 0.709334 	 73.1758
| 13> C 	 37.0936 	 1.70205 	 71.1294
| 14> H 	 36.3792 	 0.856331 	 70.9666
| 15> H 	 38.1104 	 1.39779 	 70.9331
| 16> C 	 36.6938 	 2.92136 	 70.1804
| 17> H 	 37.4579 	 3.68708 	 70.2368
| 18> H 	 36.6714 	 2.61994 	 69.0993
| 19> C 	 35.2285 	 3.35228 	 70.5132
| 20> H 	 34.56 	 2.49551 	 70.5038
| 21> H 	 35.0582 	 3.8854 	 71.4486
| 22> H 	 34.8245 	 4.04997 	 69.7155
| 23> S 	 36.1906 	 0.734837 	 77.2517
| 24> C 	 34.6816 	 0.247854 	 77.8732
| 25> C 	 33.5997 	 0.549778 	 77.0805
| 26> C 	 33.9801 	 1.28104 	 75.9236
| 27> C 	 35.3469 	 1.49397 	 75.895
| 28> H 	 32.594 	 0.212252 	 77.3664
| 29> C 	 33.1121 	 1.81177 	 74.8104
| 30> H 	 32.188 	 1.38673 	 74.9819
| 31> H 	 33.4964 	 1.43739 	 73.8084
| 32> C 	 32.8364 	 3.3084 	 74.8393
| 33> H 	 32.2046 	 3.61339 	 73.944
| 34> H 	 33.8659 	 3.70434 	 74.7424
| 35> C 	 32.0336 	 3.89624 	 76.0545
| 36> H 	 32.5452 	 3.74718 	 76.9865
| 37> H 	 30.9906 	 3.54295 	 76.1692
| 38> H 	 31.9713 	 4.97244 	 75.8752
| 39> H 	 38.695 	 3.47314 	 72.7381
| 40> H 	 34.5945 	 -0.453232 	 78.6838
| 41> *
| 42>
| 43>                          ****END OF INPUT****

CARTESIAN COORDINATES (ANGSTROEM)
---------------------------------
  S     37.498300    3.091620   74.979500
  C     37.848200    3.013270   73.269600
  C     37.079300    2.008700   72.629000
  C     36.146600    1.396840   73.527100
  C     36.206800    1.901110   74.812100
  H     35.417800    0.709334   73.175800
  C     37.093600    1.702050   71.129400
  H     36.379200    0.856331   70.966600
  H     38.110400    1.397790   70.933100
  C     36.693800    2.921360   70.180400
  H     37.457900    3.687080   70.236800
  H     36.671400    2.619940   69.099300
  C     35.228500    3.352280   70.513200
  H     34.560000    2.495510   70.503800
  H     35.058200    3.885400   71.448600
  H     34.824500    4.049970   69.715500
  S     36.190600    0.734837   77.251700
  C     34.681600    0.247854   77.873200
  C     33.599700    0.549778   77.080500
  C     33.980100    1.281040   75.923600
  C     35.346900    1.493970   75.895000
  H     32.594000    0.212252   77.366400
  C     33.112100    1.811770   74.810400
  H     32.188000    1.386730   74.981900
  H     33.496400    1.437390   73.808400
  C     32.836400    3.308400   74.839300
  H     32.204600    3.613390   73.944000
  H     33.865900    3.704340   74.742400
  C     32.033600    3.896240   76.054500
  H     32.545200    3.747180   76.986500
  H     30.990600    3.542950   76.169200
  H     31.971300    4.972440   75.875200
  H     38.695000    3.473140   72.738100
  H     34.594500   -0.453232   78.683800

 Total Charge           Charge          ....    0
 Multiplicity           Mult            ....    1
 Number of Electrons    NEL             ....  134
 Basis Dimension        Dim             ....  322

ORBITAL ENERGIES
----------------

  NO   OCC          E(Eh)            E(eV)
   0   2.0000     -88.970271     -2421.0041
   1   2.0000     -88.965795     -2420.8824
   2   2.0000     -10.328320      -281.0479
   3   2.0000     -10.320605      -280.8380
   4   2.0000     -10.315848      -280.7085
   5   2.0000     -10.311892      -280.6008
   6   2.0000     -10.302598      -280.3480
   7   2.0000     -10.302201      -280.3371
   8   2.0000     -10.298983      -280.2496
   9   2.0000     -10.298739      -280.2429
  10   2.0000     -10.295614      -280.1579
  11   2.0000     -10.291211      -280.0381
  12   2.0000     -10.290821      -280.0275
  13   2.0000     -10.286300      -279.9045
  14   2.0000     -10.281809      -279.7822
  15   2.0000     -10.277904      -279.6760
  16   2.0000      -8.084331      -219.9858
  17   2.0000      -8.081401      -219.9061
  18   2.0000      -6.042866      -164.4347
  19   2.0000      -6.039586      -164.3455
  20   2.0000      -6.038845      -164.3253
  21   2.0000      -6.035880      -164.2446
  22   2.0000      -6.035204      -164.2262
  23   2.0000      -6.032356      -164.1488
  24   2.0000      -1.009021       -27.4569
  25   2.0000      -0.982561       -26.7368
  26   2.0000      -0.909367       -24.7451
  27   2.0000      -0.901991       -24.5444
  28   2.0000      -0.866053       -23.5665
  29   2.0000      -0.849616       -23.1192
  30   2.0000      -0.843344       -22.9486
  31   2.0000      -0.809090       -22.0165
  32   2.0000      -0.785468       -21.3737
  33   2.0000      -0.767896       -20.8955
  34   2.0000      -0.706492       -19.2246
  35   2.0000      -0.704451       -19.1691
  36   2.0000      -0.685168       -18.6444
  37   2.0000      -0.664676       -18.0868
  38   2.0000      -0.636060       -17.3081
  39   2.0000      -0.613470       -16.6934
  40   2.0000      -0.590725       -16.0744
  41   2.0000      -0.566732       -15.4216
  42   2.0000      -0.553414       -15.0592
  43   2.0000      -0.548290       -14.9197
  44   2.0000      -0.544698       -14.8220
  45   2.0000      -0.533431       -14.5154
  46   2.0000      -0.510331       -13.8868
  47   2.0000      -0.501905       -13.6575
  48   2.0000      -0.497341       -13.5333
  49   2.0000      -0.495471       -13.4825
  50   2.0000      -0.485905       -13.2221
  51   2.0000      -0.478958       -13.0331
  52   2.0000      -0.470293       -12.7973
  53   2.0000      -0.466177       -12.6853
  54   2.0000      -0.460731       -12.5371
  55   2.0000      -0.449173       -12.2226
  56   2.0000      -0.443748       -12.0750
  57   2.0000      -0.439579       -11.9616
  58   2.0000      -0.434972       -11.8362
  59   2.0000      -0.425809       -11.5868
  60   2.0000      -0.417824       -11.3696
  61   2.0000      -0.415614       -11.3094
  62   2.0000      -0.409632       -11.1466
  63   2.0000      -0.345035        -9.3889
  64   2.0000      -0.335634        -9.1331
  65   2.0000      -0.328468        -8.9381
  66   2.0000      -0.288803        -7.8587
  67   0.0000       0.029603         0.8055
  68   0.0000       0.062438         1.6990
  69   0.0000       0.111112         3.0235
  70   0.0000       0.117044         3.1849
  71   0.0000       0.126708         3.4479

MULLIKEN ATOMIC CHARGES
-----------------------
   0 S :    0.123943
   1 C :   -0.124271
   2 C :   -0.121642
   3 C :    0.047317
   4 C :   -0.161408
   5 H :    0.003160
   6 C :    0.046586
   7 H :    0.029790
   8 H :    0.036136
   9 C :   -0.061605
  10 H :    0.031594
  11 H :    0.040243
  12 C :   -0.082051
  13 H :    0.024450
  14 H :    0.051010
  15 H :    0.037015
  16 S :    0.115821
  17 C :   -0.074882
  18 C :   -0.056467
  19 C :   -0.054850
  20 C :   -0.162683
  21 H :    0.022848
  22 C :    0.132498
  23 H :   -0.022048
  24 H :    0.038806
  25 C :   -0.102802
  26 H :    0.039367
  27 H :    0.044456
  28 C :   -0.059851
  29 H :    0.039859
  30 H :    0.034873
  31 H :    0.038139
  32 H :    0.056444
  33 H :    0.050208
Sum of atomic charges:    0.0000000

LOEWDIN ATOMIC CHARGES
----------------------
   0 S :    0.408359
   1 C :   -0.214385
   2 C :   -0.060869
   3 C :   -0.059733
   4 C :   -0.196963
   5 H :    0.024389
   6 C :   -0.031836
   7 H :    0.031414
   8 H :    0.029716
   9 C :   -0.036200
  10 H :    0.019791
  11 H :    0.031073
  12 C :   -0.073977
  13 H :    0.021829
  14 H :    0.027068
  15 H :    0.031003
  16 S :    0.422142
  17 C :   -0.194429
  18 C :   -0.074561
  19 C :   -0.051463
  20 C :   -0.196568
  21 H :    0.036064
  22 C :   -0.034044
  23 H :    0.013936
  24 H :    0.039655
  25 C :   -0.040280
  26 H :    0.031123
  27 H :    0.027615
  28 C :   -0.068543
  29 H :    0.022688
  30 H :    0.026947
  31 H :    0.031002
  32 H :    0.032745
  33 H :    0.025290

  Mayer bond orders larger than 0.100000
B(  0-S ,  1-C ) :   1.1407 B(  0-S ,  4-C ) :   1.1512 B(  1-C ,  2-C ) :   1.5904
B(  1-C ,  4-C ) :   0.1035 B(  1-C , 32-H ) :   0.9639 B(  2-C ,  3-C ) :   1.2703
B(  2-C ,  6-C ) :   1.0120 B(  3-C ,  4-C ) :   1.5501 B(  3-C ,  5-H ) :   0.9924
B(  4-C , 20-C ) :   1.0326 B(  6-C ,  7-H ) :   0.9511 B(  6-C ,  8-H ) :   0.9371
B(  6-C ,  9-C ) :   1.0670 B(  9-C , 10-H ) :   0.9589 B(  9-C , 11-H ) :   0.9596
B(  9-C , 12-C ) :   1.0588 B( 12-C , 13-H ) :   0.9768 B( 12-C , 14-H ) :   0.9768
B( 12-C , 15-H ) :   0.9765 B( 16-S , 17-C ) :   1.1747 B( 16-S , 20-C ) :   1.1515
B( 17-C , 18-C ) :   1.6051 B( 17-C , 33-H ) :   0.9636 B( 18-C , 19-C ) :   1.2450
B( 18-C , 21-H ) :   0.9915 B( 19-C , 20-C ) :   1.5845 B( 19-C , 22-C ) :   1.0397
B( 22-C , 23-H ) :   0.9105 B( 22-C , 24-H ) :   0.9304 B( 22-C , 25-C ) :   1.0661
B( 25-C , 26-H ) :   0.9561 B( 25-C , 27-H ) :   0.9584 B( 25-C , 28-C ) :   1.0709
B( 28-C , 29-H ) :   0.9762 B( 28-C , 30-H ) :   0.9738 B( 28-C , 31-H ) :   0.9745

Dispersion correction           -0.015697986
FINAL SINGLE POINT ENERGY     -1339.882415244079

DIPOLE MOMENT
-------------
                                X             Y             Z
Electronic contribution:     16.46749      -7.98486      20.05310
Nuclear contribution   :    -16.86815       7.79290     -20.53508
                        -----------------------------------------
Total Dipole Moment    :     -0.40066      -0.19196      -0.48198
                        -----------------------------------------
Magnitude (a.u.)       :      0.65550
Magnitude (Debye)      :      1.66615

Rotational constants in cm-1:     0.019726     0.009471     0.007553
Rotational constants in MHz :   591.364477   283.925385   226.426568

                             ****ORCA TERMINATED NORMALLY****
TOTAL RUN TIME: 0 days 0 hours 0 minutes 30 seconds 576 msec
