                         Program Version 4.2.1 -  RELEASE  -
|  1> ! wB97X-D3 SP def2-SVP
|  2> %pal
|  3> nprocs 16
|  4> end
|  5>
|  6> * xyz 0 1
|  7> S 	 -8.95081 	 -7.22035 	 76.5113
|  8> C 	 -8.12435 	 -8.73052 	 75.9695
|  9> C 	 -8.72617 	 -9.8499 	 76.5481
| 10> C 	 -9.87655 	 -9.48141 	 77.4024
| 11> C 	 -10.1233 	 -8.09182 	 77.463
| 12> H 	 -10.5526 	 -10.1321 	 77.9137
| 13> C 	 -8.31419 	 -11.2836 	 76.2404
| 14> H 	 -7.85963 	 -11.2763 	 75.2742
| 15> H 	 -9.16713 	 -11.8848 	 75.9906
| 16> C 	 -7.26232 	 -11.9712 	 77.1524
| 17> H 	 -6.48888 	 -11.2861 	 77.452
| 18> H 	 -7.78834 	 -12.3409 	 78.0326
| 19> C 	 -6.72416 	 -13.283 	 76.4974
| 20> H 	 -7.51288 	 -14.0811 	 76.5371
| 21> H 	 -6.3862 	 -13.2437 	 75.4583
| 22> H 	 -5.78277 	 -13.7072 	 77.0464
| 23> S 	 -10.813 	 -6.4837 	 79.5896
| 24> C 	 -12.5253 	 -6.12535 	 79.8298
| 25> C 	 -13.3314 	 -6.58855 	 78.7976
| 26> C 	 -12.5573 	 -7.24896 	 77.7791
| 27> C 	 -11.2176 	 -7.31863 	 78.0905
| 28> H 	 -14.3777 	 -6.40641 	 78.6835
| 29> C 	 -13.1864 	 -7.81779 	 76.5117
| 30> H 	 -13.8325 	 -8.71541 	 76.7987
| 31> H 	 -12.3489 	 -8.14878 	 75.8442
| 32> C 	 -14.1818 	 -6.86279 	 75.8458
| 33> H 	 -15.0148 	 -6.4636 	 76.4465
| 34> H 	 -14.6565 	 -7.53917 	 75.1309
| 35> C 	 -13.6677 	 -5.62106 	 75.079
| 36> H 	 -12.9873 	 -5.0679 	 75.7294
| 37> H 	 -14.475 	 -5.05216 	 74.7542
| 38> H 	 -13.1291 	 -6.08773 	 74.1827
| 39> H 	 -7.2226 	 -8.78174 	 75.3456
| 40> H 	 -12.9295 	 -5.5393 	 80.6763
| 41> *
| 42>
| 43>                          ****END OF INPUT****

CARTESIAN COORDINATES (ANGSTROEM)
---------------------------------
  S     -8.950810   -7.220350   76.511300
  C     -8.124350   -8.730520   75.969500
  C     -8.726170   -9.849900   76.548100
  C     -9.876550   -9.481410   77.402400
  C    -10.123300   -8.091820   77.463000
  H    -10.552600  -10.132100   77.913700
  C     -8.314190  -11.283600   76.240400
  H     -7.859630  -11.276300   75.274200
  H     -9.167130  -11.884800   75.990600
  C     -7.262320  -11.971200   77.152400
  H     -6.488880  -11.286100   77.452000
  H     -7.788340  -12.340900   78.032600
  C     -6.724160  -13.283000   76.497400
  H     -7.512880  -14.081100   76.537100
  H     -6.386200  -13.243700   75.458300
  H     -5.782770  -13.707200   77.046400
  S    -10.813000   -6.483700   79.589600
  C    -12.525300   -6.125350   79.829800
  C    -13.331400   -6.588550   78.797600
  C    -12.557300   -7.248960   77.779100
  C    -11.217600   -7.318630   78.090500
  H    -14.377700   -6.406410   78.683500
  C    -13.186400   -7.817790   76.511700
  H    -13.832500   -8.715410   76.798700
  H    -12.348900   -8.148780   75.844200
  C    -14.181800   -6.862790   75.845800
  H    -15.014800   -6.463600   76.446500
  H    -14.656500   -7.539170   75.130900
  C    -13.667700   -5.621060   75.079000
  H    -12.987300   -5.067900   75.729400
  H    -14.475000   -5.052160   74.754200
  H    -13.129100   -6.087730   74.182700
  H     -7.222600   -8.781740   75.345600
  H    -12.929500   -5.539300   80.676300

 Total Charge           Charge          ....    0
 Multiplicity           Mult            ....    1
 Number of Electrons    NEL             ....  134
 Basis Dimension        Dim             ....  322

ORBITAL ENERGIES
----------------

  NO   OCC          E(Eh)            E(eV)
   0   2.0000     -88.966555     -2420.9030
   1   2.0000     -88.964546     -2420.8484
   2   2.0000     -10.333343      -281.1846
   3   2.0000     -10.325519      -280.9716
   4   2.0000     -10.324088      -280.9327
   5   2.0000     -10.321714      -280.8681
   6   2.0000     -10.310852      -280.5726
   7   2.0000     -10.302998      -280.3588
   8   2.0000     -10.301410      -280.3156
   9   2.0000     -10.301261      -280.3116
  10   2.0000     -10.295142      -280.1451
  11   2.0000     -10.292391      -280.0702
  12   2.0000     -10.291338      -280.0416
  13   2.0000     -10.290176      -280.0099
  14   2.0000     -10.286388      -279.9068
  15   2.0000     -10.275048      -279.5983
  16   2.0000      -8.080956      -219.8940
  17   2.0000      -8.078482      -219.8267
  18   2.0000      -6.039476      -164.3425
  19   2.0000      -6.037111      -164.2781
  20   2.0000      -6.035597      -164.2370
  21   2.0000      -6.032911      -164.1639
  22   2.0000      -6.031632      -164.1291
  23   2.0000      -6.029348      -164.0669
  24   2.0000      -0.999002       -27.1842
  25   2.0000      -0.973823       -26.4991
  26   2.0000      -0.907434       -24.6925
  27   2.0000      -0.905651       -24.6440
  28   2.0000      -0.863439       -23.4954
  29   2.0000      -0.847172       -23.0527
  30   2.0000      -0.837734       -22.7959
  31   2.0000      -0.810858       -22.0646
  32   2.0000      -0.781936       -21.2776
  33   2.0000      -0.769779       -20.9468
  34   2.0000      -0.705367       -19.1940
  35   2.0000      -0.696406       -18.9502
  36   2.0000      -0.688886       -18.7455
  37   2.0000      -0.657455       -17.8903
  38   2.0000      -0.642884       -17.4938
  39   2.0000      -0.610597       -16.6152
  40   2.0000      -0.595096       -16.1934
  41   2.0000      -0.571150       -15.5418
  42   2.0000      -0.554655       -15.0929
  43   2.0000      -0.551043       -14.9946
  44   2.0000      -0.537210       -14.6182
  45   2.0000      -0.522526       -14.2187
  46   2.0000      -0.513723       -13.9791
  47   2.0000      -0.509333       -13.8597
  48   2.0000      -0.505017       -13.7422
  49   2.0000      -0.495575       -13.4853
  50   2.0000      -0.492030       -13.3888
  51   2.0000      -0.474097       -12.9008
  52   2.0000      -0.462591       -12.5877
  53   2.0000      -0.459301       -12.4982
  54   2.0000      -0.456909       -12.4331
  55   2.0000      -0.448147       -12.1947
  56   2.0000      -0.446049       -12.1376
  57   2.0000      -0.440695       -11.9919
  58   2.0000      -0.435710       -11.8563
  59   2.0000      -0.422612       -11.4999
  60   2.0000      -0.415532       -11.3072
  61   2.0000      -0.413829       -11.2609
  62   2.0000      -0.407184       -11.0800
  63   2.0000      -0.335670        -9.1340
  64   2.0000      -0.328553        -8.9404
  65   2.0000      -0.321898        -8.7593
  66   2.0000      -0.308271        -8.3885
  67   0.0000       0.041670         1.1339
  68   0.0000       0.055012         1.4970
  69   0.0000       0.113889         3.0991
  70   0.0000       0.118242         3.2175
  71   0.0000       0.124128         3.3777

MULLIKEN ATOMIC CHARGES
-----------------------
   0 S :    0.101330
   1 C :   -0.121392
   2 C :   -0.097343
   3 C :    0.073473
   4 C :   -0.192535
   5 H :    0.004482
   6 C :    0.061226
   7 H :   -0.000137
   8 H :    0.021220
   9 C :   -0.024943
  10 H :    0.036913
  11 H :    0.034055
  12 C :   -0.118543
  13 H :    0.040059
  14 H :    0.034545
  15 H :    0.048855
  16 S :    0.116159
  17 C :   -0.096968
  18 C :   -0.021072
  19 C :   -0.020643
  20 C :   -0.187751
  21 H :    0.012672
  22 C :    0.069210
  23 H :    0.048270
  24 H :    0.048807
  25 C :   -0.134846
  26 H :    0.029191
  27 H :    0.023760
  28 C :   -0.026406
  29 H :    0.046118
  30 H :    0.027108
  31 H :    0.037240
  32 H :    0.059293
  33 H :    0.068592
Sum of atomic charges:    0.0000000

LOEWDIN ATOMIC CHARGES
----------------------
   0 S :    0.388637
   1 C :   -0.187205
   2 C :   -0.058147
   3 C :   -0.057582
   4 C :   -0.200915
   5 H :    0.027700
   6 C :   -0.037811
   7 H :    0.026482
   8 H :    0.030376
   9 C :   -0.033184
  10 H :    0.024617
  11 H :    0.027499
  12 C :   -0.080665
  13 H :    0.028767
  14 H :    0.019517
  15 H :    0.037655
  16 S :    0.398006
  17 C :   -0.177294
  18 C :   -0.069443
  19 C :   -0.054491
  20 C :   -0.212376
  21 H :    0.027788
  22 C :   -0.033509
  23 H :    0.044859
  24 H :    0.039960
  25 C :   -0.052564
  26 H :    0.021801
  27 H :    0.023983
  28 C :   -0.059342
  29 H :    0.027526
  30 H :    0.016252
  31 H :    0.034032
  32 H :    0.033889
  33 H :    0.035181

  Mayer bond orders larger than 0.100000
B(  0-S ,  1-C ) :   1.1260 B(  0-S ,  4-C ) :   1.1601 B(  1-C ,  2-C ) :   1.6294
B(  1-C , 32-H ) :   0.9654 B(  2-C ,  3-C ) :   1.2063 B(  2-C ,  6-C ) :   1.0268
B(  3-C ,  4-C ) :   1.5964 B(  3-C ,  5-H ) :   1.0012 B(  4-C , 20-C ) :   0.9845
B(  6-C ,  7-H ) :   0.9409 B(  6-C ,  8-H ) :   0.9405 B(  6-C ,  9-C ) :   1.0504
B(  9-C , 10-H ) :   0.9610 B(  9-C , 11-H ) :   0.9570 B(  9-C , 12-C ) :   1.0644
B( 12-C , 13-H ) :   0.9778 B( 12-C , 14-H ) :   0.9782 B( 12-C , 15-H ) :   0.9754
B( 16-S , 17-C ) :   1.1535 B( 16-S , 20-C ) :   1.1344 B( 17-C , 18-C ) :   1.6154
B( 17-C , 33-H ) :   0.9627 B( 18-C , 19-C ) :   1.2266 B( 18-C , 21-H ) :   0.9900
B( 19-C , 20-C ) :   1.6286 B( 19-C , 22-C ) :   1.0416 B( 22-C , 23-H ) :   0.9301
B( 22-C , 24-H ) :   0.9365 B( 22-C , 25-C ) :   1.0616 B( 25-C , 26-H ) :   0.9570
B( 25-C , 27-H ) :   0.9568 B( 25-C , 28-C ) :   1.0705 B( 28-C , 29-H ) :   0.9770
B( 28-C , 30-H ) :   0.9745 B( 28-C , 31-H ) :   0.9773

Dispersion correction           -0.013876954
FINAL SINGLE POINT ENERGY     -1339.875456427530

DIPOLE MOMENT
-------------
                                X             Y             Z
Electronic contribution:      3.10657      16.79602      12.90094
Nuclear contribution   :     -3.48140     -17.26984     -13.13690
                        -----------------------------------------
Total Dipole Moment    :     -0.37483      -0.47382      -0.23597
                        -----------------------------------------
Magnitude (a.u.)       :      0.64860
Magnitude (Debye)      :      1.64861

Rotational constants in cm-1:     0.022431     0.006779     0.006198
Rotational constants in MHz :   672.458275   203.222543   185.798413

                             ****ORCA TERMINATED NORMALLY****
TOTAL RUN TIME: 0 days 0 hours 0 minutes 33 seconds 267 msec
