                         Program Version 4.2.1 -  RELEASE  -
|  1> ! wB97X-D3 SP def2-SVP
|  2> %pal
|  3> nprocs 16
|  4> end
|  5>
|  6> * xyz 0 1
|  7> S 	 -12.8445 	 34.523 	 33.3389
|  8> C 	 -12.0408 	 33.9952 	 31.8521
|  9> C 	 -11.3191 	 34.9883 	 31.1876
| 10> C 	 -11.4012 	 36.194 	 31.9724
| 11> C 	 -12.2411 	 36.1368 	 33.1106
| 12> H 	 -10.8321 	 37.1084 	 31.7864
| 13> C 	 -10.3825 	 34.7938 	 29.9436
| 14> H 	 -9.90567 	 33.845 	 30.0405
| 15> H 	 -9.47759 	 35.4691 	 30.0443
| 16> C 	 -11.0075 	 35.0352 	 28.5236
| 17> H 	 -11.6596 	 34.1719 	 28.3265
| 18> H 	 -11.6394 	 35.8898 	 28.6759
| 19> C 	 -9.99574 	 35.0817 	 27.3434
| 20> H 	 -10.4724 	 35.4301 	 26.46
| 21> H 	 -9.10093 	 35.8132 	 27.4474
| 22> H 	 -9.52486 	 34.1362 	 27.1475
| 23> S 	 -11.1235 	 38.3255 	 34.1836
| 24> C 	 -12.1485 	 39.4303 	 35.0491
| 25> C 	 -13.3549 	 38.8444 	 35.4057
| 26> C 	 -13.5876 	 37.6034 	 34.7961
| 27> C 	 -12.5073 	 37.2406 	 33.9926
| 28> H 	 -13.9214 	 39.4451 	 36.0517
| 29> C 	 -14.9716 	 36.971 	 34.7633
| 30> H 	 -15.4147 	 37.1797 	 35.7297
| 31> H 	 -14.9021 	 35.8982 	 34.5971
| 32> C 	 -15.9064 	 37.4092 	 33.633
| 33> H 	 -16.7439 	 36.7033 	 33.4147
| 34> H 	 -15.3276 	 37.3759 	 32.7127
| 35> C 	 -16.5137 	 38.7871 	 33.7787
| 36> H 	 -16.6219 	 39.2631 	 32.8016
| 37> H 	 -15.846 	 39.5244 	 34.1927
| 38> H 	 -17.4068 	 38.7725 	 34.3784
| 39> H 	 -12.1304 	 33.0163 	 31.4462
| 40> H 	 -11.8578 	 40.3405 	 35.5125
| 41> *
| 42>
| 43>                          ****END OF INPUT****

CARTESIAN COORDINATES (ANGSTROEM)
---------------------------------
  S    -12.844500   34.523000   33.338900
  C    -12.040800   33.995200   31.852100
  C    -11.319100   34.988300   31.187600
  C    -11.401200   36.194000   31.972400
  C    -12.241100   36.136800   33.110600
  H    -10.832100   37.108400   31.786400
  C    -10.382500   34.793800   29.943600
  H     -9.905670   33.845000   30.040500
  H     -9.477590   35.469100   30.044300
  C    -11.007500   35.035200   28.523600
  H    -11.659600   34.171900   28.326500
  H    -11.639400   35.889800   28.675900
  C     -9.995740   35.081700   27.343400
  H    -10.472400   35.430100   26.460000
  H     -9.100930   35.813200   27.447400
  H     -9.524860   34.136200   27.147500
  S    -11.123500   38.325500   34.183600
  C    -12.148500   39.430300   35.049100
  C    -13.354900   38.844400   35.405700
  C    -13.587600   37.603400   34.796100
  C    -12.507300   37.240600   33.992600
  H    -13.921400   39.445100   36.051700
  C    -14.971600   36.971000   34.763300
  H    -15.414700   37.179700   35.729700
  H    -14.902100   35.898200   34.597100
  C    -15.906400   37.409200   33.633000
  H    -16.743900   36.703300   33.414700
  H    -15.327600   37.375900   32.712700
  C    -16.513700   38.787100   33.778700
  H    -16.621900   39.263100   32.801600
  H    -15.846000   39.524400   34.192700
  H    -17.406800   38.772500   34.378400
  H    -12.130400   33.016300   31.446200
  H    -11.857800   40.340500   35.512500

 Total Charge           Charge          ....    0
 Multiplicity           Mult            ....    1
 Number of Electrons    NEL             ....  134
 Basis Dimension        Dim             ....  322

ORBITAL ENERGIES
----------------

  NO   OCC          E(Eh)            E(eV)
   0   2.0000     -88.972858     -2421.0745
   1   2.0000     -88.967337     -2420.9243
   2   2.0000     -10.330589      -281.1096
   3   2.0000     -10.328133      -281.0428
   4   2.0000     -10.316057      -280.7142
   5   2.0000     -10.310806      -280.5713
   6   2.0000     -10.309881      -280.5461
   7   2.0000     -10.303532      -280.3734
   8   2.0000     -10.301469      -280.3172
   9   2.0000     -10.297506      -280.2094
  10   2.0000     -10.293443      -280.0988
  11   2.0000     -10.289532      -279.9924
  12   2.0000     -10.288847      -279.9737
  13   2.0000     -10.285937      -279.8946
  14   2.0000     -10.282030      -279.7883
  15   2.0000     -10.266776      -279.3732
  16   2.0000      -8.086741      -220.0514
  17   2.0000      -8.081851      -219.9184
  18   2.0000      -6.045271      -164.5002
  19   2.0000      -6.041387      -164.3945
  20   2.0000      -6.040259      -164.3638
  21   2.0000      -6.037539      -164.2898
  22   2.0000      -6.036504      -164.2616
  23   2.0000      -6.032620      -164.1559
  24   2.0000      -1.007294       -27.4099
  25   2.0000      -0.981341       -26.7037
  26   2.0000      -0.908940       -24.7335
  27   2.0000      -0.902352       -24.5542
  28   2.0000      -0.870458       -23.6864
  29   2.0000      -0.853985       -23.2381
  30   2.0000      -0.843790       -22.9607
  31   2.0000      -0.808452       -21.9991
  32   2.0000      -0.786948       -21.4139
  33   2.0000      -0.775480       -21.1019
  34   2.0000      -0.710444       -19.3322
  35   2.0000      -0.703528       -19.1440
  36   2.0000      -0.689668       -18.7668
  37   2.0000      -0.669639       -18.2218
  38   2.0000      -0.633422       -17.2363
  39   2.0000      -0.615331       -16.7440
  40   2.0000      -0.591482       -16.0950
  41   2.0000      -0.566696       -15.4206
  42   2.0000      -0.558132       -15.1875
  43   2.0000      -0.553408       -15.0590
  44   2.0000      -0.543876       -14.7996
  45   2.0000      -0.523195       -14.2369
  46   2.0000      -0.519316       -14.1313
  47   2.0000      -0.512582       -13.9481
  48   2.0000      -0.501087       -13.6353
  49   2.0000      -0.496181       -13.5018
  50   2.0000      -0.487804       -13.2738
  51   2.0000      -0.481094       -13.0912
  52   2.0000      -0.470853       -12.8126
  53   2.0000      -0.463850       -12.6220
  54   2.0000      -0.458869       -12.4865
  55   2.0000      -0.450845       -12.2681
  56   2.0000      -0.439423       -11.9573
  57   2.0000      -0.437667       -11.9095
  58   2.0000      -0.433707       -11.8018
  59   2.0000      -0.426441       -11.6040
  60   2.0000      -0.420801       -11.4506
  61   2.0000      -0.415829       -11.3153
  62   2.0000      -0.410480       -11.1697
  63   2.0000      -0.351911        -9.5760
  64   2.0000      -0.336548        -9.1579
  65   2.0000      -0.333549        -9.0763
  66   2.0000      -0.280058        -7.6208
  67   0.0000       0.016985         0.4622
  68   0.0000       0.078805         2.1444
  69   0.0000       0.103615         2.8195
  70   0.0000       0.110523         3.0075
  71   0.0000       0.125206         3.4070

MULLIKEN ATOMIC CHARGES
-----------------------
   0 S :    0.120117
   1 C :   -0.114197
   2 C :   -0.059905
   3 C :   -0.021116
   4 C :   -0.133405
   5 H :    0.023466
   6 C :    0.031579
   7 H :    0.019967
   8 H :    0.030936
   9 C :   -0.052014
  10 H :    0.033406
  11 H :    0.035445
  12 C :   -0.056502
  13 H :    0.033764
  14 H :    0.034575
  15 H :    0.034014
  16 S :    0.105023
  17 C :   -0.079023
  18 C :   -0.047057
  19 C :   -0.013043
  20 C :   -0.147796
  21 H :    0.000413
  22 C :    0.080557
  23 H :    0.021361
  24 H :    0.018807
  25 C :   -0.065922
  26 H :    0.036472
  27 H :    0.024304
  28 C :   -0.041497
  29 H :    0.026227
  30 H :    0.013226
  31 H :    0.034122
  32 H :    0.034671
  33 H :    0.039029
Sum of atomic charges:    0.0000000

LOEWDIN ATOMIC CHARGES
----------------------
   0 S :    0.416087
   1 C :   -0.185451
   2 C :   -0.059824
   3 C :   -0.071345
   4 C :   -0.206650
   5 H :    0.023558
   6 C :   -0.032383
   7 H :    0.023503
   8 H :    0.035834
   9 C :   -0.037468
  10 H :    0.028312
  11 H :    0.024400
  12 C :   -0.069361
  13 H :    0.024360
  14 H :    0.032618
  15 H :    0.024053
  16 S :    0.416276
  17 C :   -0.187541
  18 C :   -0.061962
  19 C :   -0.061331
  20 C :   -0.178442
  21 H :    0.023755
  22 C :   -0.030378
  23 H :    0.028478
  24 H :    0.022102
  25 C :   -0.042665
  26 H :    0.030799
  27 H :    0.026344
  28 C :   -0.072608
  29 H :    0.031736
  30 H :    0.021763
  31 H :    0.022609
  32 H :    0.019385
  33 H :    0.021436

  Mayer bond orders larger than 0.100000
B(  0-S ,  1-C ) :   1.1427 B(  0-S ,  4-C ) :   1.1420 B(  1-C ,  2-C ) :   1.6107
B(  1-C , 32-H ) :   0.9667 B(  2-C ,  3-C ) :   1.2587 B(  2-C ,  6-C ) :   1.0071
B(  3-C ,  4-C ) :   1.5331 B(  3-C ,  5-H ) :   0.9807 B(  4-C , 20-C ) :   1.0980
B(  6-C ,  7-H ) :   0.9468 B(  6-C ,  8-H ) :   0.9508 B(  6-C ,  9-C ) :   1.0448
B(  9-C , 10-H ) :   0.9556 B(  9-C , 11-H ) :   0.9631 B(  9-C , 12-C ) :   1.0728
B( 12-C , 13-H ) :   0.9754 B( 12-C , 14-H ) :   0.9755 B( 12-C , 15-H ) :   0.9761
B( 16-S , 17-C ) :   1.1465 B( 16-S , 20-C ) :   1.1500 B( 17-C , 18-C ) :   1.6234
B( 17-C , 20-C ) :   0.1019 B( 17-C , 33-H ) :   0.9681 B( 18-C , 19-C ) :   1.2267
B( 18-C , 21-H ) :   0.9973 B( 19-C , 20-C ) :   1.5505 B( 19-C , 22-C ) :   1.0622
B( 22-C , 23-H ) :   0.9339 B( 22-C , 24-H ) :   0.9260 B( 22-C , 25-C ) :   1.0645
B( 25-C , 26-H ) :   0.9572 B( 25-C , 27-H ) :   0.9536 B( 25-C , 28-C ) :   1.0832
B( 28-C , 29-H ) :   0.9699 B( 28-C , 30-H ) :   0.9698 B( 28-C , 31-H ) :   0.9764

Dispersion correction           -0.014006634
FINAL SINGLE POINT ENERGY     -1339.871818348797

DIPOLE MOMENT
-------------
                                X             Y             Z
Electronic contribution:      7.06879      -1.13810      17.85779
Nuclear contribution   :     -7.11040       1.18512     -18.18187
                        -----------------------------------------
Total Dipole Moment    :     -0.04161       0.04701      -0.32408
                        -----------------------------------------
Magnitude (a.u.)       :      0.33011
Magnitude (Debye)      :      0.83906

Rotational constants in cm-1:     0.021053     0.007181     0.006566
Rotational constants in MHz :   631.157775   215.287807   196.839329

                             ****ORCA TERMINATED NORMALLY****
TOTAL RUN TIME: 0 days 0 hours 0 minutes 31 seconds 323 msec
