                         Program Version 4.2.1 -  RELEASE  -
|  1> ! wB97X-D3 SP def2-SVP
|  2> %pal
|  3> nprocs 16
|  4> end
|  5>
|  6> * xyz 0 1
|  7> S 	 -5.96461 	 21.1479 	 52.0068
|  8> C 	 -4.40574 	 20.8633 	 51.1758
|  9> C 	 -3.37968 	 20.7657 	 52.1311
| 10> C 	 -3.84363 	 20.9172 	 53.4631
| 11> C 	 -5.19902 	 21.1092 	 53.5347
| 12> H 	 -3.18648 	 20.88 	 54.3783
| 13> C 	 -1.94765 	 20.5336 	 51.651
| 14> H 	 -1.87907 	 19.4832 	 51.3934
| 15> H 	 -1.38453 	 20.7269 	 52.5044
| 16> C 	 -1.5825 	 21.4646 	 50.4734
| 17> H 	 -2.17533 	 21.3564 	 49.5525
| 18> H 	 -1.7679 	 22.4492 	 50.8737
| 19> C 	 -0.121738 	 21.2496 	 50.0133
| 20> H 	 0.443214 	 21.4467 	 50.9263
| 21> H 	 -0.0329742 	 20.2138 	 49.6254
| 22> H 	 0.193746 	 22.0196 	 49.2661
| 23> S 	 -7.22002 	 19.6746 	 54.7815
| 24> C 	 -7.95883 	 20.284 	 56.3064
| 25> C 	 -7.13926 	 21.2258 	 56.8287
| 26> C 	 -6.13708 	 21.7674 	 55.9287
| 27> C 	 -6.0353 	 20.9599 	 54.7815
| 28> H 	 -7.55148 	 21.595 	 57.7839
| 29> C 	 -5.34579 	 22.9283 	 56.4767
| 30> H 	 -6.03121 	 23.7552 	 56.7315
| 31> H 	 -4.74934 	 23.3275 	 55.7213
| 32> C 	 -4.4991 	 22.5862 	 57.7129
| 33> H 	 -5.28256 	 22.6643 	 58.5133
| 34> H 	 -3.83751 	 23.3813 	 58.0707
| 35> C 	 -3.66993 	 21.2404 	 57.6173
| 36> H 	 -3.87175 	 20.7196 	 58.4914
| 37> H 	 -2.54076 	 21.3356 	 57.5574
| 38> H 	 -3.99907 	 20.6163 	 56.7588
| 39> H 	 -4.32742 	 20.8139 	 50.0431
| 40> H 	 -8.80355 	 19.9248 	 56.8972
| 41> *
| 42>
| 43>                          ****END OF INPUT****

CARTESIAN COORDINATES (ANGSTROEM)
---------------------------------
  S     -5.964610   21.147900   52.006800
  C     -4.405740   20.863300   51.175800
  C     -3.379680   20.765700   52.131100
  C     -3.843630   20.917200   53.463100
  C     -5.199020   21.109200   53.534700
  H     -3.186480   20.880000   54.378300
  C     -1.947650   20.533600   51.651000
  H     -1.879070   19.483200   51.393400
  H     -1.384530   20.726900   52.504400
  C     -1.582500   21.464600   50.473400
  H     -2.175330   21.356400   49.552500
  H     -1.767900   22.449200   50.873700
  C     -0.121738   21.249600   50.013300
  H      0.443214   21.446700   50.926300
  H     -0.032974   20.213800   49.625400
  H      0.193746   22.019600   49.266100
  S     -7.220020   19.674600   54.781500
  C     -7.958830   20.284000   56.306400
  C     -7.139260   21.225800   56.828700
  C     -6.137080   21.767400   55.928700
  C     -6.035300   20.959900   54.781500
  H     -7.551480   21.595000   57.783900
  C     -5.345790   22.928300   56.476700
  H     -6.031210   23.755200   56.731500
  H     -4.749340   23.327500   55.721300
  C     -4.499100   22.586200   57.712900
  H     -5.282560   22.664300   58.513300
  H     -3.837510   23.381300   58.070700
  C     -3.669930   21.240400   57.617300
  H     -3.871750   20.719600   58.491400
  H     -2.540760   21.335600   57.557400
  H     -3.999070   20.616300   56.758800
  H     -4.327420   20.813900   50.043100
  H     -8.803550   19.924800   56.897200

 Total Charge           Charge          ....    0
 Multiplicity           Mult            ....    1
 Number of Electrons    NEL             ....  134
 Basis Dimension        Dim             ....  322

ORBITAL ENERGIES
----------------

  NO   OCC          E(Eh)            E(eV)
   0   2.0000     -88.966271     -2420.8953
   1   2.0000     -88.963727     -2420.8261
   2   2.0000     -10.334354      -281.2121
   3   2.0000     -10.328741      -281.0593
   4   2.0000     -10.320680      -280.8400
   5   2.0000     -10.315982      -280.7121
   6   2.0000     -10.307419      -280.4791
   7   2.0000     -10.302603      -280.3481
   8   2.0000     -10.298689      -280.2416
   9   2.0000     -10.293286      -280.0946
  10   2.0000     -10.290588      -280.0211
  11   2.0000     -10.288909      -279.9755
  12   2.0000     -10.287842      -279.9464
  13   2.0000     -10.287059      -279.9251
  14   2.0000     -10.284153      -279.8460
  15   2.0000     -10.279417      -279.7172
  16   2.0000      -8.081072      -219.8972
  17   2.0000      -8.077698      -219.8053
  18   2.0000      -6.039499      -164.3431
  19   2.0000      -6.036450      -164.2602
  20   2.0000      -6.035471      -164.2335
  21   2.0000      -6.032282      -164.1467
  22   2.0000      -6.031998      -164.1390
  23   2.0000      -6.028243      -164.0368
  24   2.0000      -1.003997       -27.3201
  25   2.0000      -0.980633       -26.6844
  26   2.0000      -0.913915       -24.8689
  27   2.0000      -0.904547       -24.6140
  28   2.0000      -0.863817       -23.5057
  29   2.0000      -0.847472       -23.0609
  30   2.0000      -0.835331       -22.7305
  31   2.0000      -0.816207       -22.2101
  32   2.0000      -0.782400       -21.2902
  33   2.0000      -0.771566       -20.9954
  34   2.0000      -0.706757       -19.2318
  35   2.0000      -0.700688       -19.0667
  36   2.0000      -0.687169       -18.6988
  37   2.0000      -0.649544       -17.6750
  38   2.0000      -0.635610       -17.2958
  39   2.0000      -0.615661       -16.7530
  40   2.0000      -0.589085       -16.0298
  41   2.0000      -0.576516       -15.6878
  42   2.0000      -0.563267       -15.3273
  43   2.0000      -0.550963       -14.9925
  44   2.0000      -0.537334       -14.6216
  45   2.0000      -0.522841       -14.2272
  46   2.0000      -0.515498       -14.0274
  47   2.0000      -0.513633       -13.9767
  48   2.0000      -0.504674       -13.7329
  49   2.0000      -0.494061       -13.4441
  50   2.0000      -0.490919       -13.3586
  51   2.0000      -0.475201       -12.9309
  52   2.0000      -0.466122       -12.6838
  53   2.0000      -0.460248       -12.5240
  54   2.0000      -0.456101       -12.4111
  55   2.0000      -0.443778       -12.0758
  56   2.0000      -0.442926       -12.0526
  57   2.0000      -0.435683       -11.8555
  58   2.0000      -0.432124       -11.7587
  59   2.0000      -0.429111       -11.6767
  60   2.0000      -0.421474       -11.4689
  61   2.0000      -0.415834       -11.3154
  62   2.0000      -0.400967       -10.9109
  63   2.0000      -0.343670        -9.3517
  64   2.0000      -0.330565        -8.9951
  65   2.0000      -0.325370        -8.8538
  66   2.0000      -0.297877        -8.1057
  67   0.0000       0.033415         0.9093
  68   0.0000       0.067856         1.8465
  69   0.0000       0.112008         3.0479
  70   0.0000       0.119640         3.2556
  71   0.0000       0.128820         3.5054

MULLIKEN ATOMIC CHARGES
-----------------------
   0 S :    0.118029
   1 C :   -0.168419
   2 C :   -0.128269
   3 C :    0.023114
   4 C :   -0.138595
   5 H :    0.033172
   6 C :    0.137227
   7 H :    0.040318
   8 H :   -0.001537
   9 C :   -0.122861
  10 H :    0.034278
  11 H :    0.033304
  12 C :   -0.049714
  13 H :    0.028626
  14 H :    0.044669
  15 H :    0.045584
  16 S :    0.098105
  17 C :   -0.107977
  18 C :   -0.041573
  19 C :   -0.064451
  20 C :   -0.160102
  21 H :    0.028966
  22 C :    0.117792
  23 H :    0.033503
  24 H :    0.003312
  25 C :   -0.107909
  26 H :    0.026963
  27 H :    0.032070
  28 C :   -0.050761
  29 H :    0.024429
  30 H :    0.043806
  31 H :    0.054871
  32 H :    0.079721
  33 H :    0.060313
Sum of atomic charges:    0.0000000

LOEWDIN ATOMIC CHARGES
----------------------
   0 S :    0.416522
   1 C :   -0.199876
   2 C :   -0.063377
   3 C :   -0.074202
   4 C :   -0.208299
   5 H :    0.042729
   6 C :   -0.021353
   7 H :    0.033681
   8 H :    0.019708
   9 C :   -0.040607
  10 H :    0.021603
  11 H :    0.024008
  12 C :   -0.068552
  13 H :    0.023924
  14 H :    0.029764
  15 H :    0.030965
  16 S :    0.381002
  17 C :   -0.175912
  18 C :   -0.076041
  19 C :   -0.057269
  20 C :   -0.196070
  21 H :    0.035882
  22 C :   -0.030792
  23 H :    0.038177
  24 H :    0.016436
  25 C :   -0.044987
  26 H :    0.025074
  27 H :    0.027004
  28 C :   -0.071427
  29 H :    0.020454
  30 H :    0.032900
  31 H :    0.031222
  32 H :    0.040719
  33 H :    0.036991

  Mayer bond orders larger than 0.100000
B(  0-S ,  1-C ) :   1.1408 B(  0-S ,  4-C ) :   1.1855 B(  1-C ,  2-C ) :   1.5759
B(  1-C , 32-H ) :   0.9640 B(  2-C ,  3-C ) :   1.2795 B(  2-C ,  6-C ) :   1.0071
B(  3-C ,  4-C ) :   1.5552 B(  3-C ,  5-H ) :   0.9815 B(  4-C , 20-C ) :   0.9864
B(  6-C ,  7-H ) :   0.9318 B(  6-C ,  8-H ) :   0.9364 B(  6-C ,  9-C ) :   1.0631
B(  9-C , 10-H ) :   0.9546 B(  9-C , 11-H ) :   0.9609 B(  9-C , 12-C ) :   1.0799
B( 12-C , 13-H ) :   0.9757 B( 12-C , 14-H ) :   0.9746 B( 12-C , 15-H ) :   0.9747
B( 16-S , 17-C ) :   1.1149 B( 16-S , 20-C ) :   1.1433 B( 17-C , 18-C ) :   1.6944
B( 17-C , 33-H ) :   0.9620 B( 18-C , 19-C ) :   1.1788 B( 18-C , 21-H ) :   0.9760
B( 19-C , 20-C ) :   1.6202 B( 19-C , 22-C ) :   1.0579 B( 22-C , 23-H ) :   0.9371
B( 22-C , 24-H ) :   0.9292 B( 22-C , 25-C ) :   1.0575 B( 25-C , 26-H ) :   0.9634
B( 25-C , 27-H ) :   0.9586 B( 25-C , 28-C ) :   1.0431 B( 28-C , 29-H ) :   0.9723
B( 28-C , 30-H ) :   0.9785 B( 28-C , 31-H ) :   0.9740

Dispersion correction           -0.014410378
FINAL SINGLE POINT ENERGY     -1339.856337767770

DIPOLE MOMENT
-------------
                                X             Y             Z
Electronic contribution:    -24.87929      -6.79575      -3.39334
Nuclear contribution   :     25.33371       7.00779       3.64354
                        -----------------------------------------
Total Dipole Moment    :      0.45442       0.21204       0.25021
                        -----------------------------------------
Magnitude (a.u.)       :      0.56042
Magnitude (Debye)      :      1.42446

Rotational constants in cm-1:     0.022531     0.007574     0.006171
Rotational constants in MHz :   675.450180   227.070626   184.998476

                             ****ORCA TERMINATED NORMALLY****
TOTAL RUN TIME: 0 days 0 hours 0 minutes 34 seconds 780 msec
