                         Program Version 4.2.1 -  RELEASE  -
|  1> ! wB97X-D3 SP def2-SVP
|  2> %pal
|  3> nprocs 16
|  4> end
|  5>
|  6> * xyz 0 1
|  7> S 	 -120.14 	 50.2226 	 135.571
|  8> C 	 -120.308 	 49.6085 	 133.849
|  9> C 	 -119.15 	 49.7398 	 133.101
| 10> C 	 -118.037 	 50.205 	 133.939
| 11> C 	 -118.355 	 50.3642 	 135.279
| 12> H 	 -117.053 	 50.3972 	 133.544
| 13> C 	 -119.069 	 49.7836 	 131.642
| 14> H 	 -119.681 	 48.987 	 131.304
| 15> H 	 -118.071 	 49.6424 	 131.267
| 16> C 	 -119.612 	 51.155 	 131.026
| 17> H 	 -119.749 	 51.0318 	 129.939
| 18> H 	 -120.626 	 51.3115 	 131.494
| 19> C 	 -118.729 	 52.3806 	 131.287
| 20> H 	 -117.843 	 52.2684 	 130.628
| 21> H 	 -119.283 	 53.3599 	 131.03
| 22> H 	 -118.492 	 52.2649 	 132.363
| 23> S 	 -118.196 	 51.1144 	 137.949
| 24> C 	 -116.622 	 50.852 	 138.721
| 25> C 	 -115.631 	 50.7745 	 137.814
| 26> C 	 -116.049 	 50.6528 	 136.457
| 27> C 	 -117.421 	 50.6318 	 136.394
| 28> H 	 -114.601 	 50.6672 	 138.152
| 29> C 	 -115.1 	 50.4104 	 135.294
| 30> H 	 -115.518 	 49.6465 	 134.569
| 31> H 	 -114.313 	 49.9943 	 135.84
| 32> C 	 -114.7 	 51.7024 	 134.517
| 33> H 	 -114.222 	 52.4439 	 135.248
| 34> H 	 -115.598 	 52.0281 	 134.051
| 35> C 	 -113.82 	 51.2811 	 133.343
| 36> H 	 -113.428 	 52.2037 	 132.866
| 37> H 	 -114.467 	 50.8555 	 132.539
| 38> H 	 -113.004 	 50.5582 	 133.543
| 39> H 	 -121.219 	 49.2685 	 133.291
| 40> H 	 -116.503 	 50.9996 	 139.78
| 41> *
| 42>
| 43>                          ****END OF INPUT****

CARTESIAN COORDINATES (ANGSTROEM)
---------------------------------
  S    -120.140000   50.222600  135.571000
  C    -120.308000   49.608500  133.849000
  C    -119.150000   49.739800  133.101000
  C    -118.037000   50.205000  133.939000
  C    -118.355000   50.364200  135.279000
  H    -117.053000   50.397200  133.544000
  C    -119.069000   49.783600  131.642000
  H    -119.681000   48.987000  131.304000
  H    -118.071000   49.642400  131.267000
  C    -119.612000   51.155000  131.026000
  H    -119.749000   51.031800  129.939000
  H    -120.626000   51.311500  131.494000
  C    -118.729000   52.380600  131.287000
  H    -117.843000   52.268400  130.628000
  H    -119.283000   53.359900  131.030000
  H    -118.492000   52.264900  132.363000
  S    -118.196000   51.114400  137.949000
  C    -116.622000   50.852000  138.721000
  C    -115.631000   50.774500  137.814000
  C    -116.049000   50.652800  136.457000
  C    -117.421000   50.631800  136.394000
  H    -114.601000   50.667200  138.152000
  C    -115.100000   50.410400  135.294000
  H    -115.518000   49.646500  134.569000
  H    -114.313000   49.994300  135.840000
  C    -114.700000   51.702400  134.517000
  H    -114.222000   52.443900  135.248000
  H    -115.598000   52.028100  134.051000
  C    -113.820000   51.281100  133.343000
  H    -113.428000   52.203700  132.866000
  H    -114.467000   50.855500  132.539000
  H    -113.004000   50.558200  133.543000
  H    -121.219000   49.268500  133.291000
  H    -116.503000   50.999600  139.780000

 Total Charge           Charge          ....    0
 Multiplicity           Mult            ....    1
 Number of Electrons    NEL             ....  134
 Basis Dimension        Dim             ....  322

ORBITAL ENERGIES
----------------

  NO   OCC          E(Eh)            E(eV)
   0   2.0000     -88.972045     -2421.0524
   1   2.0000     -88.962662     -2420.7971
   2   2.0000     -10.339824      -281.3609
   3   2.0000     -10.331388      -281.1314
   4   2.0000     -10.323357      -280.9128
   5   2.0000     -10.316018      -280.7131
   6   2.0000     -10.303362      -280.3687
   7   2.0000     -10.302671      -280.3499
   8   2.0000     -10.298041      -280.2240
   9   2.0000     -10.296504      -280.1821
  10   2.0000     -10.295388      -280.1517
  11   2.0000     -10.294047      -280.1153
  12   2.0000     -10.293932      -280.1121
  13   2.0000     -10.291162      -280.0367
  14   2.0000     -10.287802      -279.9453
  15   2.0000     -10.287297      -279.9316
  16   2.0000      -8.084099      -219.9795
  17   2.0000      -8.076881      -219.7831
  18   2.0000      -6.043071      -164.4403
  19   2.0000      -6.039368      -164.3396
  20   2.0000      -6.035482      -164.2338
  21   2.0000      -6.034126      -164.1969
  22   2.0000      -6.031884      -164.1359
  23   2.0000      -6.027186      -164.0081
  24   2.0000      -1.000847       -27.2344
  25   2.0000      -0.975088       -26.5335
  26   2.0000      -0.913248       -24.8507
  27   2.0000      -0.910815       -24.7845
  28   2.0000      -0.863644       -23.5010
  29   2.0000      -0.855480       -23.2788
  30   2.0000      -0.839523       -22.8446
  31   2.0000      -0.815806       -22.1992
  32   2.0000      -0.782416       -21.2906
  33   2.0000      -0.771287       -20.9878
  34   2.0000      -0.707300       -19.2466
  35   2.0000      -0.697244       -18.9730
  36   2.0000      -0.689895       -18.7730
  37   2.0000      -0.666318       -18.1314
  38   2.0000      -0.628757       -17.1093
  39   2.0000      -0.618879       -16.8405
  40   2.0000      -0.595258       -16.1978
  41   2.0000      -0.574565       -15.6347
  42   2.0000      -0.571905       -15.5623
  43   2.0000      -0.551325       -15.0023
  44   2.0000      -0.538175       -14.6445
  45   2.0000      -0.524585       -14.2747
  46   2.0000      -0.517129       -14.0718
  47   2.0000      -0.509634       -13.8679
  48   2.0000      -0.506701       -13.7880
  49   2.0000      -0.495060       -13.4713
  50   2.0000      -0.488741       -13.2993
  51   2.0000      -0.478312       -13.0155
  52   2.0000      -0.467201       -12.7132
  53   2.0000      -0.459570       -12.5055
  54   2.0000      -0.457527       -12.4499
  55   2.0000      -0.448942       -12.2163
  56   2.0000      -0.444451       -12.0941
  57   2.0000      -0.437155       -11.8956
  58   2.0000      -0.435272       -11.8443
  59   2.0000      -0.432290       -11.7632
  60   2.0000      -0.421696       -11.4749
  61   2.0000      -0.417578       -11.3629
  62   2.0000      -0.411615       -11.2006
  63   2.0000      -0.358954        -9.7676
  64   2.0000      -0.335993        -9.1428
  65   2.0000      -0.325718        -8.8633
  66   2.0000      -0.281916        -7.6713
  67   0.0000       0.011832         0.3220
  68   0.0000       0.065808         1.7907
  69   0.0000       0.085010         2.3132
  70   0.0000       0.118854         3.2342
  71   0.0000       0.123591         3.3631

MULLIKEN ATOMIC CHARGES
-----------------------
   0 S :    0.096529
   1 C :   -0.125410
   2 C :   -0.087656
   3 C :   -0.028564
   4 C :   -0.075592
   5 H :   -0.011999
   6 C :    0.079302
   7 H :    0.020393
   8 H :    0.015514
   9 C :   -0.101340
  10 H :    0.035424
  11 H :    0.032630
  12 C :   -0.083974
  13 H :    0.035463
  14 H :    0.059769
  15 H :    0.057706
  16 S :    0.068072
  17 C :   -0.074645
  18 C :   -0.026805
  19 C :   -0.061413
  20 C :   -0.112459
  21 H :    0.019497
  22 C :    0.025813
  23 H :    0.047365
  24 H :    0.004097
  25 C :   -0.055386
  26 H :    0.053852
  27 H :    0.028731
  28 C :   -0.059873
  29 H :    0.039533
  30 H :    0.029036
  31 H :    0.043764
  32 H :    0.059076
  33 H :    0.053550
Sum of atomic charges:    0.0000000

LOEWDIN ATOMIC CHARGES
----------------------
   0 S :    0.343736
   1 C :   -0.180824
   2 C :   -0.062462
   3 C :   -0.070591
   4 C :   -0.158368
   5 H :    0.022585
   6 C :   -0.031381
   7 H :    0.030465
   8 H :    0.025198
   9 C :   -0.039217
  10 H :    0.020608
  11 H :    0.025063
  12 C :   -0.078021
  13 H :    0.025250
  14 H :    0.040352
  15 H :    0.032237
  16 S :    0.352116
  17 C :   -0.163814
  18 C :   -0.071659
  19 C :   -0.056852
  20 C :   -0.164406
  21 H :    0.033796
  22 C :   -0.031331
  23 H :    0.038325
  24 H :    0.020180
  25 C :   -0.036349
  26 H :    0.036964
  27 H :    0.021437
  28 C :   -0.072820
  29 H :    0.030250
  30 H :    0.026977
  31 H :    0.026817
  32 H :    0.038943
  33 H :    0.026797

  Mayer bond orders larger than 0.100000
B(  0-S ,  1-C ) :   1.0938 B(  0-S ,  4-C ) :   1.1088 B(  1-C ,  2-C ) :   1.6661
B(  1-C , 32-H ) :   0.9526 B(  2-C ,  3-C ) :   1.1876 B(  2-C ,  6-C ) :   1.0569
B(  3-C ,  4-C ) :   1.5977 B(  3-C ,  5-H ) :   0.9830 B(  4-C , 20-C ) :   1.0928
B(  6-C ,  7-H ) :   0.9243 B(  6-C ,  8-H ) :   0.9399 B(  6-C ,  9-C ) :   1.0546
B(  9-C , 10-H ) :   0.9591 B(  9-C , 11-H ) :   0.9557 B(  9-C , 12-C ) :   1.0668
B( 12-C , 13-H ) :   0.9745 B( 12-C , 14-H ) :   0.9703 B( 12-C , 15-H ) :   0.9736
B( 16-S , 17-C ) :   1.1223 B( 16-S , 20-C ) :   1.1118 B( 17-C , 18-C ) :   1.6549
B( 17-C , 33-H ) :   0.9687 B( 18-C , 19-C ) :   1.2140 B( 18-C , 21-H ) :   0.9847
B( 19-C , 20-C ) :   1.6299 B( 19-C , 22-C ) :   1.0207 B( 22-C , 23-H ) :   0.9372
B( 22-C , 24-H ) :   0.9242 B( 22-C , 25-C ) :   1.0626 B( 25-C , 26-H ) :   0.9530
B( 25-C , 27-H ) :   0.9523 B( 25-C , 28-C ) :   1.0810 B( 28-C , 29-H ) :   0.9713
B( 28-C , 30-H ) :   0.9724 B( 28-C , 31-H ) :   0.9740

Dispersion correction           -0.015003544
FINAL SINGLE POINT ENERGY     -1339.859290758576

DIPOLE MOMENT
-------------
                                X             Y             Z
Electronic contribution:    -14.62279      -4.92396      26.07501
Nuclear contribution   :     15.21057       4.98426     -26.61627
                        -----------------------------------------
Total Dipole Moment    :      0.58777       0.06030      -0.54126
                        -----------------------------------------
Magnitude (a.u.)       :      0.80130
Magnitude (Debye)      :      2.03673

Rotational constants in cm-1:     0.017287     0.010417     0.007101
Rotational constants in MHz :   518.251531   312.303873   212.885452

                             ****ORCA TERMINATED NORMALLY****
TOTAL RUN TIME: 0 days 0 hours 0 minutes 33 seconds 701 msec
