                         Program Version 4.2.1 -  RELEASE  -
|  1> ! wB97X-D3 SP def2-SVP
|  2> %pal
|  3> nprocs 16
|  4> end
|  5>
|  6> * xyz 0 1
|  7> S 	 17.5073 	 9.55719 	 88.0957
|  8> C 	 18.6 	 8.24981 	 88.5452
|  9> C 	 17.989 	 7.03414 	 88.5309
| 10> C 	 16.5886 	 7.08402 	 88.0418
| 11> C 	 16.1955 	 8.40619 	 87.7238
| 12> H 	 15.9184 	 6.32944 	 87.7422
| 13> C 	 18.6852 	 5.78578 	 88.8655
| 14> H 	 18.9491 	 5.82773 	 89.9412
| 15> H 	 19.7279 	 5.87164 	 88.5071
| 16> C 	 18.2057 	 4.56877 	 88.0863
| 17> H 	 17.1025 	 4.52633 	 88.0982
| 18> H 	 18.4383 	 4.76281 	 87.0818
| 19> C 	 18.9106 	 3.29883 	 88.587
| 20> H 	 18.774 	 3.18525 	 89.6347
| 21> H 	 18.3813 	 2.41752 	 88.2743
| 22> H 	 19.9584 	 3.21311 	 88.2688
| 23> S 	 15.0684 	 9.55076 	 85.3298
| 24> C 	 13.3901 	 9.5768 	 85.0478
| 25> C 	 12.7695 	 9.19499 	 86.2758
| 26> C 	 13.6681 	 8.76856 	 87.2654
| 27> C 	 15.0246 	 8.91383 	 86.9764
| 28> H 	 11.6851 	 9.25357 	 86.217
| 29> C 	 13.1441 	 8.2072 	 88.5259
| 30> H 	 14.0381 	 7.74077 	 89.0382
| 31> H 	 12.4224 	 7.37993 	 88.4289
| 32> C 	 12.5486 	 9.32054 	 89.406
| 33> H 	 11.8364 	 9.86823 	 88.7618
| 34> H 	 13.2604 	 10.0389 	 89.7039
| 35> C 	 11.8621 	 8.8712 	 90.6542
| 36> H 	 12.578 	 8.44161 	 91.3849
| 37> H 	 10.9935 	 8.12838 	 90.4595
| 38> H 	 11.5041 	 9.84208 	 90.9911
| 39> H 	 19.6254 	 8.43132 	 88.9233
| 40> H 	 12.8704 	 9.84754 	 84.1548
| 41> *
| 42>
| 43>                          ****END OF INPUT****

CARTESIAN COORDINATES (ANGSTROEM)
---------------------------------
  S     17.507300    9.557190   88.095700
  C     18.600000    8.249810   88.545200
  C     17.989000    7.034140   88.530900
  C     16.588600    7.084020   88.041800
  C     16.195500    8.406190   87.723800
  H     15.918400    6.329440   87.742200
  C     18.685200    5.785780   88.865500
  H     18.949100    5.827730   89.941200
  H     19.727900    5.871640   88.507100
  C     18.205700    4.568770   88.086300
  H     17.102500    4.526330   88.098200
  H     18.438300    4.762810   87.081800
  C     18.910600    3.298830   88.587000
  H     18.774000    3.185250   89.634700
  H     18.381300    2.417520   88.274300
  H     19.958400    3.213110   88.268800
  S     15.068400    9.550760   85.329800
  C     13.390100    9.576800   85.047800
  C     12.769500    9.194990   86.275800
  C     13.668100    8.768560   87.265400
  C     15.024600    8.913830   86.976400
  H     11.685100    9.253570   86.217000
  C     13.144100    8.207200   88.525900
  H     14.038100    7.740770   89.038200
  H     12.422400    7.379930   88.428900
  C     12.548600    9.320540   89.406000
  H     11.836400    9.868230   88.761800
  H     13.260400   10.038900   89.703900
  C     11.862100    8.871200   90.654200
  H     12.578000    8.441610   91.384900
  H     10.993500    8.128380   90.459500
  H     11.504100    9.842080   90.991100
  H     19.625400    8.431320   88.923300
  H     12.870400    9.847540   84.154800

 Total Charge           Charge          ....    0
 Multiplicity           Mult            ....    1
 Number of Electrons    NEL             ....  134
 Basis Dimension        Dim             ....  322

ORBITAL ENERGIES
----------------

  NO   OCC          E(Eh)            E(eV)
   0   2.0000     -88.965267     -2420.8680
   1   2.0000     -88.963207     -2420.8119
   2   2.0000     -10.339801      -281.3603
   3   2.0000     -10.328804      -281.0611
   4   2.0000     -10.319645      -280.8118
   5   2.0000     -10.314368      -280.6682
   6   2.0000     -10.303918      -280.3839
   7   2.0000     -10.303799      -280.3806
   8   2.0000     -10.299363      -280.2599
   9   2.0000     -10.293476      -280.0997
  10   2.0000     -10.288759      -279.9714
  11   2.0000     -10.287587      -279.9395
  12   2.0000     -10.284468      -279.8546
  13   2.0000     -10.280192      -279.7383
  14   2.0000     -10.276560      -279.6394
  15   2.0000     -10.276034      -279.6251
  16   2.0000      -8.080124      -219.8713
  17   2.0000      -8.077402      -219.7973
  18   2.0000      -6.038534      -164.3169
  19   2.0000      -6.036002      -164.2480
  20   2.0000      -6.034256      -164.2004
  21   2.0000      -6.031935      -164.1373
  22   2.0000      -6.031281      -164.1195
  23   2.0000      -6.028143      -164.0341
  24   2.0000      -1.003800       -27.3148
  25   2.0000      -0.981811       -26.7164
  26   2.0000      -0.917721       -24.9725
  27   2.0000      -0.912345       -24.8262
  28   2.0000      -0.870378       -23.6842
  29   2.0000      -0.853459       -23.2238
  30   2.0000      -0.842440       -22.9240
  31   2.0000      -0.816361       -22.2143
  32   2.0000      -0.779577       -21.2134
  33   2.0000      -0.769057       -20.9271
  34   2.0000      -0.718979       -19.5644
  35   2.0000      -0.692397       -18.8411
  36   2.0000      -0.688789       -18.7429
  37   2.0000      -0.654705       -17.8154
  38   2.0000      -0.646301       -17.5867
  39   2.0000      -0.620483       -16.8842
  40   2.0000      -0.595419       -16.2022
  41   2.0000      -0.572447       -15.5771
  42   2.0000      -0.565522       -15.3886
  43   2.0000      -0.562041       -15.2939
  44   2.0000      -0.531077       -14.4514
  45   2.0000      -0.527532       -14.3549
  46   2.0000      -0.523424       -14.2431
  47   2.0000      -0.513692       -13.9783
  48   2.0000      -0.509098       -13.8533
  49   2.0000      -0.501757       -13.6535
  50   2.0000      -0.491649       -13.3785
  51   2.0000      -0.475261       -12.9325
  52   2.0000      -0.471633       -12.8338
  53   2.0000      -0.461022       -12.5450
  54   2.0000      -0.456710       -12.4277
  55   2.0000      -0.454950       -12.3798
  56   2.0000      -0.441118       -12.0034
  57   2.0000      -0.436818       -11.8864
  58   2.0000      -0.429250       -11.6805
  59   2.0000      -0.423207       -11.5160
  60   2.0000      -0.412525       -11.2254
  61   2.0000      -0.406917       -11.0728
  62   2.0000      -0.404931       -11.0187
  63   2.0000      -0.341870        -9.3028
  64   2.0000      -0.327247        -8.9048
  65   2.0000      -0.323072        -8.7912
  66   2.0000      -0.297372        -8.0919
  67   0.0000       0.031396         0.8543
  68   0.0000       0.058693         1.5971
  69   0.0000       0.117420         3.1952
  70   0.0000       0.122798         3.3415
  71   0.0000       0.126571         3.4442

MULLIKEN ATOMIC CHARGES
-----------------------
   0 S :    0.097007
   1 C :   -0.129825
   2 C :   -0.077991
   3 C :    0.064667
   4 C :   -0.206495
   5 H :    0.009533
   6 C :    0.032278
   7 H :    0.041466
   8 H :    0.017861
   9 C :   -0.077699
  10 H :    0.036488
  11 H :    0.027069
  12 C :   -0.006853
  13 H :    0.020148
  14 H :    0.017044
  15 H :    0.043973
  16 S :    0.117614
  17 C :   -0.103730
  18 C :   -0.054565
  19 C :   -0.030012
  20 C :   -0.116442
  21 H :    0.024128
  22 C :    0.064302
  23 H :    0.020959
  24 H :    0.026790
  25 C :   -0.090487
  26 H :    0.020796
  27 H :    0.019992
  28 C :   -0.042866
  29 H :    0.041445
  30 H :    0.041262
  31 H :    0.033714
  32 H :    0.059842
  33 H :    0.058586
Sum of atomic charges:    0.0000000

LOEWDIN ATOMIC CHARGES
----------------------
   0 S :    0.384004
   1 C :   -0.196819
   2 C :   -0.062754
   3 C :   -0.054609
   4 C :   -0.174528
   5 H :    0.025784
   6 C :   -0.051543
   7 H :    0.039553
   8 H :    0.037341
   9 C :   -0.033090
  10 H :    0.022834
  11 H :    0.023422
  12 C :   -0.061158
  13 H :    0.023402
  14 H :    0.025828
  15 H :    0.030703
  16 S :    0.433713
  17 C :   -0.196391
  18 C :   -0.080979
  19 C :   -0.058740
  20 C :   -0.218844
  21 H :    0.031892
  22 C :   -0.040702
  23 H :    0.032172
  24 H :    0.029247
  25 C :   -0.040589
  26 H :    0.022855
  27 H :    0.022213
  28 C :   -0.069440
  29 H :    0.027499
  30 H :    0.030794
  31 H :    0.029922
  32 H :    0.035942
  33 H :    0.031068

  Mayer bond orders larger than 0.100000
B(  0-S ,  1-C ) :   1.1199 B(  0-S ,  4-C ) :   1.1512 B(  1-C ,  2-C ) :   1.6481
B(  1-C , 32-H ) :   0.9651 B(  2-C ,  3-C ) :   1.1857 B(  2-C ,  6-C ) :   1.0300
B(  3-C ,  4-C ) :   1.5962 B(  3-C ,  5-H ) :   0.9912 B(  4-C , 20-C ) :   1.0237
B(  6-C ,  7-H ) :   0.9314 B(  6-C ,  8-H ) :   0.9416 B(  6-C ,  9-C ) :   1.0456
B(  9-C , 10-H ) :   0.9538 B(  9-C , 11-H ) :   0.9568 B(  9-C , 12-C ) :   1.0860
B( 12-C , 13-H ) :   0.9745 B( 12-C , 14-H ) :   0.9691 B( 12-C , 15-H ) :   0.9741
B( 16-S , 17-C ) :   1.2103 B( 16-S , 20-C ) :   1.1387 B( 17-C , 18-C ) :   1.5295
B( 17-C , 20-C ) :   0.1097 B( 17-C , 33-H ) :   0.9731 B( 18-C , 19-C ) :   1.2789
B( 18-C , 21-H ) :   0.9979 B( 19-C , 20-C ) :   1.5364 B( 19-C , 22-C ) :   1.0606
B( 22-C , 23-H ) :   0.9202 B( 22-C , 24-H ) :   0.9385 B( 22-C , 25-C ) :   1.0607
B( 25-C , 26-H ) :   0.9593 B( 25-C , 27-H ) :   0.9492 B( 25-C , 28-C ) :   1.0873
B( 28-C , 29-H ) :   0.9718 B( 28-C , 30-H ) :   0.9714 B( 28-C , 31-H ) :   0.9726

Dispersion correction           -0.013502442
FINAL SINGLE POINT ENERGY     -1339.856088552159

DIPOLE MOMENT
-------------
                                X             Y             Z
Electronic contribution:      4.61994      18.88431     -15.17262
Nuclear contribution   :     -4.72513     -19.42272      15.29930
                        -----------------------------------------
Total Dipole Moment    :     -0.10519      -0.53841       0.12668
                        -----------------------------------------
Magnitude (a.u.)       :      0.56303
Magnitude (Debye)      :      1.43111

Rotational constants in cm-1:     0.017727     0.007651     0.006768
Rotational constants in MHz :   531.443729   229.367946   202.897018

                             ****ORCA TERMINATED NORMALLY****
TOTAL RUN TIME: 0 days 0 hours 0 minutes 34 seconds 38 msec
