                         Program Version 4.2.1 -  RELEASE  -
|  1> ! wB97X-D3 SP def2-SVP
|  2> %pal
|  3> nprocs 16
|  4> end
|  5>
|  6> * xyz 0 1
|  7> S 	 -10.6154 	 48.2332 	 40.6773
|  8> C 	 -11.7479 	 48.6981 	 41.9092
|  9> C 	 -11.0829 	 49.2559 	 42.9701
| 10> C 	 -9.69214 	 49.1185 	 42.9003
| 11> C 	 -9.25888 	 48.7016 	 41.6751
| 12> H 	 -8.94934 	 49.4846 	 43.6589
| 13> C 	 -11.768 	 49.8151 	 44.2076
| 14> H 	 -11.4989 	 49.1083 	 45.0199
| 15> H 	 -12.8107 	 49.468 	 44.1464
| 16> C 	 -11.5961 	 51.3025 	 44.469
| 17> H 	 -11.8539 	 51.5688 	 45.4777
| 18> H 	 -10.5303 	 51.5306 	 44.2645
| 19> C 	 -12.5554 	 52.0944 	 43.619
| 20> H 	 -12.317 	 51.911 	 42.5696
| 21> H 	 -13.5895 	 51.9017 	 43.8521
| 22> H 	 -12.4273 	 53.1751 	 43.8143
| 23> S 	 -7.04185 	 47.3019 	 42.1271
| 24> C 	 -5.60393 	 47.5467 	 41.1656
| 25> C 	 -5.91639 	 48.4151 	 40.1612
| 26> C 	 -7.19464 	 49.0917 	 40.2878
| 27> C 	 -7.94742 	 48.4668 	 41.2635
| 28> H 	 -5.11995 	 48.4787 	 39.3843
| 29> C 	 -7.696 	 50.2594 	 39.3884
| 30> H 	 -6.90141 	 51.0419 	 39.2638
| 31> H 	 -8.56383 	 50.6963 	 39.988
| 32> C 	 -8.24535 	 49.8207 	 38.0258
| 33> H 	 -9.10491 	 49.2083 	 38.1445
| 34> H 	 -7.41023 	 49.333 	 37.5098
| 35> C 	 -8.67301 	 50.9931 	 37.1456
| 36> H 	 -9.4875 	 51.5351 	 37.61
| 37> H 	 -9.08499 	 50.7134 	 36.1111
| 38> H 	 -7.80203 	 51.6662 	 37.0714
| 39> H 	 -12.8428 	 48.6018 	 41.8885
| 40> H 	 -4.69457 	 47.0242 	 41.2297
| 41> *
| 42>
| 43>                          ****END OF INPUT****

CARTESIAN COORDINATES (ANGSTROEM)
---------------------------------
  S    -10.615400   48.233200   40.677300
  C    -11.747900   48.698100   41.909200
  C    -11.082900   49.255900   42.970100
  C     -9.692140   49.118500   42.900300
  C     -9.258880   48.701600   41.675100
  H     -8.949340   49.484600   43.658900
  C    -11.768000   49.815100   44.207600
  H    -11.498900   49.108300   45.019900
  H    -12.810700   49.468000   44.146400
  C    -11.596100   51.302500   44.469000
  H    -11.853900   51.568800   45.477700
  H    -10.530300   51.530600   44.264500
  C    -12.555400   52.094400   43.619000
  H    -12.317000   51.911000   42.569600
  H    -13.589500   51.901700   43.852100
  H    -12.427300   53.175100   43.814300
  S     -7.041850   47.301900   42.127100
  C     -5.603930   47.546700   41.165600
  C     -5.916390   48.415100   40.161200
  C     -7.194640   49.091700   40.287800
  C     -7.947420   48.466800   41.263500
  H     -5.119950   48.478700   39.384300
  C     -7.696000   50.259400   39.388400
  H     -6.901410   51.041900   39.263800
  H     -8.563830   50.696300   39.988000
  C     -8.245350   49.820700   38.025800
  H     -9.104910   49.208300   38.144500
  H     -7.410230   49.333000   37.509800
  C     -8.673010   50.993100   37.145600
  H     -9.487500   51.535100   37.610000
  H     -9.084990   50.713400   36.111100
  H     -7.802030   51.666200   37.071400
  H    -12.842800   48.601800   41.888500
  H     -4.694570   47.024200   41.229700

 Total Charge           Charge          ....    0
 Multiplicity           Mult            ....    1
 Number of Electrons    NEL             ....  134
 Basis Dimension        Dim             ....  322

ORBITAL ENERGIES
----------------

  NO   OCC          E(Eh)            E(eV)
   0   2.0000     -88.967873     -2420.9389
   1   2.0000     -88.961481     -2420.7650
   2   2.0000     -10.322273      -280.8833
   3   2.0000     -10.317484      -280.7530
   4   2.0000     -10.314950      -280.6840
   5   2.0000     -10.310322      -280.5581
   6   2.0000     -10.306175      -280.4453
   7   2.0000     -10.301166      -280.3090
   8   2.0000     -10.296505      -280.1821
   9   2.0000     -10.295590      -280.1572
  10   2.0000     -10.293961      -280.1129
  11   2.0000     -10.290711      -280.0245
  12   2.0000     -10.286784      -279.9176
  13   2.0000     -10.280281      -279.7407
  14   2.0000     -10.279918      -279.7308
  15   2.0000     -10.274555      -279.5849
  16   2.0000      -8.082639      -219.9398
  17   2.0000      -8.077116      -219.7895
  18   2.0000      -6.041133      -164.3876
  19   2.0000      -6.037101      -164.2779
  20   2.0000      -6.035632      -164.2379
  21   2.0000      -6.033437      -164.1782
  22   2.0000      -6.031387      -164.1224
  23   2.0000      -6.027893      -164.0273
  24   2.0000      -1.017766       -27.6948
  25   2.0000      -0.990434       -26.9511
  26   2.0000      -0.916840       -24.9485
  27   2.0000      -0.905065       -24.6281
  28   2.0000      -0.880367       -23.9560
  29   2.0000      -0.852795       -23.2057
  30   2.0000      -0.844371       -22.9765
  31   2.0000      -0.817522       -22.2459
  32   2.0000      -0.780789       -21.2464
  33   2.0000      -0.767612       -20.8878
  34   2.0000      -0.715167       -19.4607
  35   2.0000      -0.694218       -18.8906
  36   2.0000      -0.689290       -18.7565
  37   2.0000      -0.661642       -18.0042
  38   2.0000      -0.637270       -17.3410
  39   2.0000      -0.621561       -16.9135
  40   2.0000      -0.589836       -16.0502
  41   2.0000      -0.575994       -15.6736
  42   2.0000      -0.573316       -15.6007
  43   2.0000      -0.557444       -15.1688
  44   2.0000      -0.537836       -14.6353
  45   2.0000      -0.521744       -14.1974
  46   2.0000      -0.519084       -14.1250
  47   2.0000      -0.512821       -13.9546
  48   2.0000      -0.505520       -13.7559
  49   2.0000      -0.500944       -13.6314
  50   2.0000      -0.485201       -13.2030
  51   2.0000      -0.480558       -13.0767
  52   2.0000      -0.475360       -12.9352
  53   2.0000      -0.464047       -12.6274
  54   2.0000      -0.460117       -12.5204
  55   2.0000      -0.444805       -12.1038
  56   2.0000      -0.439574       -11.9614
  57   2.0000      -0.432278       -11.7629
  58   2.0000      -0.431135       -11.7318
  59   2.0000      -0.425839       -11.5877
  60   2.0000      -0.419098       -11.4042
  61   2.0000      -0.413551       -11.2533
  62   2.0000      -0.411344       -11.1932
  63   2.0000      -0.341248        -9.2858
  64   2.0000      -0.336082        -9.1453
  65   2.0000      -0.325349        -8.8532
  66   2.0000      -0.301854        -8.2139
  67   0.0000       0.037820         1.0291
  68   0.0000       0.065990         1.7957
  69   0.0000       0.110967         3.0196
  70   0.0000       0.119917         3.2631
  71   0.0000       0.132215         3.5977

MULLIKEN ATOMIC CHARGES
-----------------------
   0 S :    0.120755
   1 C :   -0.120443
   2 C :   -0.115813
   3 C :    0.013927
   4 C :   -0.179488
   5 H :    0.039882
   6 C :    0.049568
   7 H :    0.034893
   8 H :   -0.003429
   9 C :   -0.020782
  10 H :    0.023692
  11 H :    0.035304
  12 C :   -0.054417
  13 H :    0.037879
  14 H :    0.026601
  15 H :    0.032195
  16 S :    0.119436
  17 C :   -0.086577
  18 C :   -0.054857
  19 C :   -0.005592
  20 C :   -0.159732
  21 H :    0.030789
  22 C :    0.015626
  23 H :    0.037709
  24 H :    0.040739
  25 C :   -0.041846
  26 H :    0.022427
  27 H :    0.028872
  28 C :   -0.065049
  29 H :    0.025539
  30 H :    0.048500
  31 H :    0.027652
  32 H :    0.055164
  33 H :    0.040874
Sum of atomic charges:    0.0000000

LOEWDIN ATOMIC CHARGES
----------------------
   0 S :    0.420483
   1 C :   -0.203561
   2 C :   -0.071806
   3 C :   -0.063920
   4 C :   -0.200356
   5 H :    0.043860
   6 C :   -0.041017
   7 H :    0.037067
   8 H :    0.025863
   9 C :   -0.038402
  10 H :    0.023509
  11 H :    0.029289
  12 C :   -0.062661
  13 H :    0.026039
  14 H :    0.022292
  15 H :    0.027678
  16 S :    0.424670
  17 C :   -0.186479
  18 C :   -0.074803
  19 C :   -0.055953
  20 C :   -0.217623
  21 H :    0.036251
  22 C :   -0.034965
  23 H :    0.033681
  24 H :    0.036503
  25 C :   -0.040978
  26 H :    0.014385
  27 H :    0.024554
  28 C :   -0.070950
  29 H :    0.020612
  30 H :    0.035040
  31 H :    0.023091
  32 H :    0.035430
  33 H :    0.023176

  Mayer bond orders larger than 0.100000
B(  0-S ,  1-C ) :   1.1393 B(  0-S ,  4-C ) :   1.1510 B(  1-C ,  2-C ) :   1.6114
B(  1-C , 32-H ) :   0.9629 B(  2-C ,  3-C ) :   1.2477 B(  2-C ,  6-C ) :   1.0177
B(  3-C ,  4-C ) :   1.5782 B(  3-C ,  5-H ) :   0.9856 B(  4-C , 20-C ) :   1.0461
B(  6-C ,  7-H ) :   0.9379 B(  6-C ,  8-H ) :   0.9368 B(  6-C ,  9-C ) :   1.0499
B(  9-C , 10-H ) :   0.9525 B(  9-C , 11-H ) :   0.9583 B(  9-C , 12-C ) :   1.0829
B( 12-C , 13-H ) :   0.9777 B( 12-C , 14-H ) :   0.9737 B( 12-C , 15-H ) :   0.9727
B( 16-S , 17-C ) :   1.1366 B( 16-S , 20-C ) :   1.1565 B( 17-C , 18-C ) :   1.6466
B( 17-C , 33-H ) :   0.9737 B( 18-C , 19-C ) :   1.2038 B( 18-C , 21-H ) :   0.9814
B( 19-C , 20-C ) :   1.5928 B( 19-C , 22-C ) :   1.0432 B( 22-C , 23-H ) :   0.9389
B( 22-C , 24-H ) :   0.9267 B( 22-C , 25-C ) :   1.0734 B( 25-C , 26-H ) :   0.9488
B( 25-C , 27-H ) :   0.9565 B( 25-C , 28-C ) :   1.0825 B( 28-C , 29-H ) :   0.9746
B( 28-C , 30-H ) :   0.9733 B( 28-C , 31-H ) :   0.9739

Dispersion correction           -0.014501930
FINAL SINGLE POINT ENERGY     -1339.882493361782

DIPOLE MOMENT
-------------
                                X             Y             Z
Electronic contribution:      9.56030     -20.22191       3.45077
Nuclear contribution   :     -9.65073      20.54347      -3.32911
                        -----------------------------------------
Total Dipole Moment    :     -0.09044       0.32156       0.12166
                        -----------------------------------------
Magnitude (a.u.)       :      0.35550
Magnitude (Debye)      :      0.90361

Rotational constants in cm-1:     0.018350     0.008910     0.007159
Rotational constants in MHz :   550.106275   267.108051   214.625519

                             ****ORCA TERMINATED NORMALLY****
TOTAL RUN TIME: 0 days 0 hours 0 minutes 33 seconds 355 msec
