                         Program Version 4.2.1 -  RELEASE  -
|  1> ! wB97X-D3 SP def2-SVP
|  2> %pal
|  3> nprocs 16
|  4> end
|  5>
|  6> * xyz 0 1
|  7> S 	 -7.3851 	 36.0545 	 34.9005
|  8> C 	 -6.77645 	 35.6955 	 33.2721
|  9> C 	 -7.75263 	 35.9432 	 32.2895
| 10> C 	 -8.87 	 36.6861 	 32.8625
| 11> C 	 -8.78945 	 36.9342 	 34.2199
| 12> H 	 -9.67368 	 37.1091 	 32.3059
| 13> C 	 -7.51649 	 35.717 	 30.7878
| 14> H 	 -8.45481 	 35.6269 	 30.2186
| 15> H 	 -6.95517 	 34.8266 	 30.6166
| 16> C 	 -6.81023 	 36.9322 	 30.0491
| 17> H 	 -7.40642 	 37.7672 	 30.3093
| 18> H 	 -5.81644 	 37.1805 	 30.4542
| 19> C 	 -6.69614 	 36.5862 	 28.4897
| 20> H 	 -6.28187 	 37.4896 	 28.0254
| 21> H 	 -6.1072 	 35.6758 	 28.3371
| 22> H 	 -7.6548 	 36.3576 	 28.0055
| 23> S 	 -8.93975 	 39.1782 	 35.8985
| 24> C 	 -10.3546 	 39.4245 	 36.7707
| 25> C 	 -11.3127 	 38.5013 	 36.4797
| 26> C 	 -10.9074 	 37.4832 	 35.4812
| 27> C 	 -9.61646 	 37.7652 	 35.0507
| 28> H 	 -12.3026 	 38.7 	 36.9886
| 29> C 	 -11.7759 	 36.3252 	 35.0487
| 30> H 	 -12.481 	 36.0931 	 35.8686
| 31> H 	 -11.2372 	 35.4029 	 35.0105
| 32> C 	 -12.7062 	 36.6471 	 33.8316
| 33> H 	 -13.367 	 35.7313 	 33.716
| 34> H 	 -12.1762 	 36.7728 	 32.9152
| 35> C 	 -13.674 	 37.7842 	 33.9795
| 36> H 	 -14.3706 	 37.9076 	 34.7899
| 37> H 	 -14.2359 	 37.9893 	 33.0088
| 38> H 	 -12.9858 	 38.619 	 34.088
| 39> H 	 -5.82751 	 35.2948 	 33.0514
| 40> H 	 -10.4426 	 40.2197 	 37.517
| 41> *
| 42>
| 43>                          ****END OF INPUT****

CARTESIAN COORDINATES (ANGSTROEM)
---------------------------------
  S     -7.385100   36.054500   34.900500
  C     -6.776450   35.695500   33.272100
  C     -7.752630   35.943200   32.289500
  C     -8.870000   36.686100   32.862500
  C     -8.789450   36.934200   34.219900
  H     -9.673680   37.109100   32.305900
  C     -7.516490   35.717000   30.787800
  H     -8.454810   35.626900   30.218600
  H     -6.955170   34.826600   30.616600
  C     -6.810230   36.932200   30.049100
  H     -7.406420   37.767200   30.309300
  H     -5.816440   37.180500   30.454200
  C     -6.696140   36.586200   28.489700
  H     -6.281870   37.489600   28.025400
  H     -6.107200   35.675800   28.337100
  H     -7.654800   36.357600   28.005500
  S     -8.939750   39.178200   35.898500
  C    -10.354600   39.424500   36.770700
  C    -11.312700   38.501300   36.479700
  C    -10.907400   37.483200   35.481200
  C     -9.616460   37.765200   35.050700
  H    -12.302600   38.700000   36.988600
  C    -11.775900   36.325200   35.048700
  H    -12.481000   36.093100   35.868600
  H    -11.237200   35.402900   35.010500
  C    -12.706200   36.647100   33.831600
  H    -13.367000   35.731300   33.716000
  H    -12.176200   36.772800   32.915200
  C    -13.674000   37.784200   33.979500
  H    -14.370600   37.907600   34.789900
  H    -14.235900   37.989300   33.008800
  H    -12.985800   38.619000   34.088000
  H     -5.827510   35.294800   33.051400
  H    -10.442600   40.219700   37.517000

 Total Charge           Charge          ....    0
 Multiplicity           Mult            ....    1
 Number of Electrons    NEL             ....  134
 Basis Dimension        Dim             ....  322

ORBITAL ENERGIES
----------------

  NO   OCC          E(Eh)            E(eV)
   0   2.0000     -88.963631     -2420.8235
   1   2.0000     -88.963384     -2420.8168
   2   2.0000     -10.329023      -281.0670
   3   2.0000     -10.325920      -280.9826
   4   2.0000     -10.315288      -280.6933
   5   2.0000     -10.313600      -280.6473
   6   2.0000     -10.312399      -280.6146
   7   2.0000     -10.308107      -280.4978
   8   2.0000     -10.298716      -280.2423
   9   2.0000     -10.297136      -280.1993
  10   2.0000     -10.295209      -280.1469
  11   2.0000     -10.294824      -280.1364
  12   2.0000     -10.291281      -280.0400
  13   2.0000     -10.290662      -280.0231
  14   2.0000     -10.286858      -279.9196
  15   2.0000     -10.276776      -279.6453
  16   2.0000      -8.079290      -219.8486
  17   2.0000      -8.077346      -219.7958
  18   2.0000      -6.037739      -164.2952
  19   2.0000      -6.035957      -164.2467
  20   2.0000      -6.033555      -164.1814
  21   2.0000      -6.032076      -164.1411
  22   2.0000      -6.030090      -164.0871
  23   2.0000      -6.027978      -164.0296
  24   2.0000      -1.003957       -27.3191
  25   2.0000      -0.977064       -26.5873
  26   2.0000      -0.911101       -24.7923
  27   2.0000      -0.900728       -24.5101
  28   2.0000      -0.868923       -23.6446
  29   2.0000      -0.847389       -23.0586
  30   2.0000      -0.838172       -22.8078
  31   2.0000      -0.812502       -22.1093
  32   2.0000      -0.786604       -21.4046
  33   2.0000      -0.768663       -20.9164
  34   2.0000      -0.708422       -19.2771
  35   2.0000      -0.703150       -19.1337
  36   2.0000      -0.690966       -18.8022
  37   2.0000      -0.654334       -17.8053
  38   2.0000      -0.644167       -17.5287
  39   2.0000      -0.616499       -16.7758
  40   2.0000      -0.595653       -16.2085
  41   2.0000      -0.565779       -15.3956
  42   2.0000      -0.557553       -15.1718
  43   2.0000      -0.551640       -15.0109
  44   2.0000      -0.543488       -14.7891
  45   2.0000      -0.524000       -14.2588
  46   2.0000      -0.513075       -13.9615
  47   2.0000      -0.506111       -13.7720
  48   2.0000      -0.504682       -13.7331
  49   2.0000      -0.495521       -13.4838
  50   2.0000      -0.489237       -13.3128
  51   2.0000      -0.482434       -13.1277
  52   2.0000      -0.471748       -12.8369
  53   2.0000      -0.464017       -12.6265
  54   2.0000      -0.460564       -12.5326
  55   2.0000      -0.448098       -12.1934
  56   2.0000      -0.443701       -12.0737
  57   2.0000      -0.434147       -11.8137
  58   2.0000      -0.430836       -11.7236
  59   2.0000      -0.427798       -11.6410
  60   2.0000      -0.422568       -11.4987
  61   2.0000      -0.417859       -11.3705
  62   2.0000      -0.402352       -10.9486
  63   2.0000      -0.336930        -9.1683
  64   2.0000      -0.331441        -9.0190
  65   2.0000      -0.321176        -8.7396
  66   2.0000      -0.302173        -8.2225
  67   0.0000       0.031238         0.8500
  68   0.0000       0.064756         1.7621
  69   0.0000       0.105780         2.8784
  70   0.0000       0.122509         3.3336
  71   0.0000       0.130319         3.5462

MULLIKEN ATOMIC CHARGES
-----------------------
   0 S :    0.106381
   1 C :   -0.109030
   2 C :   -0.067832
   3 C :    0.049697
   4 C :   -0.169585
   5 H :    0.001787
   6 C :    0.042053
   7 H :    0.024852
   8 H :    0.021150
   9 C :   -0.071008
  10 H :    0.022242
  11 H :    0.031088
  12 C :   -0.062352
  13 H :    0.048098
  14 H :    0.038605
  15 H :    0.031434
  16 S :    0.121234
  17 C :   -0.099565
  18 C :   -0.057896
  19 C :   -0.032919
  20 C :   -0.187468
  21 H :    0.038404
  22 C :    0.106048
  23 H :    0.017835
  24 H :    0.034659
  25 C :   -0.062157
  26 H :    0.032076
  27 H :    0.025828
  28 C :   -0.077485
  29 H :    0.032027
  30 H :    0.043811
  31 H :    0.028640
  32 H :    0.034270
  33 H :    0.065080
Sum of atomic charges:   -0.0000000

LOEWDIN ATOMIC CHARGES
----------------------
   0 S :    0.374081
   1 C :   -0.177171
   2 C :   -0.059355
   3 C :   -0.053856
   4 C :   -0.181895
   5 H :    0.024882
   6 C :   -0.032143
   7 H :    0.032011
   8 H :    0.022667
   9 C :   -0.031141
  10 H :    0.017023
  11 H :    0.023312
  12 C :   -0.068152
  13 H :    0.030444
  14 H :    0.027441
  15 H :    0.024213
  16 S :    0.420056
  17 C :   -0.205035
  18 C :   -0.089986
  19 C :   -0.041193
  20 C :   -0.206131
  21 H :    0.040579
  22 C :   -0.032590
  23 H :    0.037098
  24 H :    0.033625
  25 C :   -0.035505
  26 H :    0.027820
  27 H :    0.019130
  28 C :   -0.077234
  29 H :    0.020603
  30 H :    0.037624
  31 H :    0.025507
  32 H :    0.018235
  33 H :    0.035038

  Mayer bond orders larger than 0.100000
B(  0-S ,  1-C ) :   1.1357 B(  0-S ,  4-C ) :   1.1225 B(  1-C ,  2-C ) :   1.6121
B(  1-C , 32-H ) :   0.9756 B(  2-C ,  3-C ) :   1.2082 B(  2-C ,  6-C ) :   1.0401
B(  3-C ,  4-C ) :   1.6118 B(  3-C ,  5-H ) :   0.9940 B(  4-C , 20-C ) :   1.0649
B(  6-C ,  7-H ) :   0.9461 B(  6-C ,  8-H ) :   0.9455 B(  6-C ,  9-C ) :   1.0463
B(  9-C , 10-H ) :   0.9615 B(  9-C , 11-H ) :   0.9599 B(  9-C , 12-C ) :   1.0608
B( 12-C , 13-H ) :   0.9764 B( 12-C , 14-H ) :   0.9773 B( 12-C , 15-H ) :   0.9775
B( 16-S , 17-C ) :   1.1666 B( 16-S , 20-C ) :   1.1327 B( 17-C , 18-C ) :   1.6385
B( 17-C , 33-H ) :   0.9618 B( 18-C , 19-C ) :   1.2023 B( 18-C , 21-H ) :   0.9799
B( 19-C , 20-C ) :   1.6011 B( 19-C , 22-C ) :   1.0475 B( 22-C , 23-H ) :   0.9315
B( 22-C , 24-H ) :   0.9290 B( 22-C , 25-C ) :   1.0619 B( 25-C , 26-H ) :   0.9558
B( 25-C , 27-H ) :   0.9564 B( 25-C , 28-C ) :   1.0746 B( 28-C , 29-H ) :   0.9771
B( 28-C , 30-H ) :   0.9702 B( 28-C , 31-H ) :   0.9695

Dispersion correction           -0.014447814
FINAL SINGLE POINT ENERGY     -1339.870705675486

DIPOLE MOMENT
-------------
                                X             Y             Z
Electronic contribution:     10.94241       4.10636      23.08247
Nuclear contribution   :    -11.28910      -4.11081     -23.45319
                        -----------------------------------------
Total Dipole Moment    :     -0.34669      -0.00445      -0.37072
                        -----------------------------------------
Magnitude (a.u.)       :      0.50759
Magnitude (Debye)      :      1.29018

Rotational constants in cm-1:     0.019488     0.007762     0.006573
Rotational constants in MHz :   584.244285   232.691427   197.066161

                             ****ORCA TERMINATED NORMALLY****
TOTAL RUN TIME: 0 days 0 hours 0 minutes 31 seconds 104 msec
