                         Program Version 4.2.1 -  RELEASE  -
|  1> ! wB97X-D3 SP def2-SVP
|  2> %pal
|  3> nprocs 16
|  4> end
|  5>
|  6> * xyz 0 1
|  7> S 	 0.617077 	 36.0582 	 38.1499
|  8> C 	 2.05351 	 35.4599 	 37.2972
|  9> C 	 1.76314 	 34.4112 	 36.3957
| 10> C 	 0.384061 	 34.0689 	 36.4765
| 11> C 	 -0.365211 	 34.7997 	 37.3687
| 12> H 	 -0.121113 	 33.3417 	 35.8845
| 13> C 	 2.70799 	 33.8681 	 35.3896
| 14> H 	 3.57341 	 34.511 	 35.5157
| 15> H 	 2.26901 	 34.0905 	 34.428
| 16> C 	 3.09813 	 32.3755 	 35.3743
| 17> H 	 3.52875 	 32.0163 	 36.2666
| 18> H 	 2.18364 	 31.823 	 35.1595
| 19> C 	 4.02523 	 31.8968 	 34.3158
| 20> H 	 4.53293 	 30.9784 	 34.4221
| 21> H 	 3.5756 	 32.0379 	 33.3165
| 22> H 	 4.8614 	 32.6386 	 34.2835
| 23> S 	 -2.72988 	 36.1214 	 37.4299
| 24> C 	 -4.2506 	 35.2532 	 37.5719
| 25> C 	 -3.94481 	 33.9615 	 38.0097
| 26> C 	 -2.59284 	 33.564 	 37.8795
| 27> C 	 -1.79272 	 34.644 	 37.5678
| 28> H 	 -4.82116 	 33.3784 	 38.3015
| 29> C 	 -2.15911 	 32.1235 	 38.2566
| 30> H 	 -1.7308 	 32.0329 	 39.1787
| 31> H 	 -1.33054 	 31.8689 	 37.6308
| 32> C 	 -3.33781 	 31.1601 	 38.1838
| 33> H 	 -3.86385 	 31.1273 	 37.1589
| 34> H 	 -4.15905 	 31.4214 	 38.9393
| 35> C 	 -2.9282 	 29.7382 	 38.5922
| 36> H 	 -2.09881 	 29.3328 	 38.186
| 37> H 	 -3.77801 	 29.1481 	 38.4312
| 38> H 	 -2.7116 	 29.5342 	 39.6595
| 39> H 	 3.00968 	 36.0043 	 37.2219
| 40> H 	 -5.18276 	 35.7578 	 37.6738
| 41> *
| 42>
| 43>                          ****END OF INPUT****

CARTESIAN COORDINATES (ANGSTROEM)
---------------------------------
  S      0.617077   36.058200   38.149900
  C      2.053510   35.459900   37.297200
  C      1.763140   34.411200   36.395700
  C      0.384061   34.068900   36.476500
  C     -0.365211   34.799700   37.368700
  H     -0.121113   33.341700   35.884500
  C      2.707990   33.868100   35.389600
  H      3.573410   34.511000   35.515700
  H      2.269010   34.090500   34.428000
  C      3.098130   32.375500   35.374300
  H      3.528750   32.016300   36.266600
  H      2.183640   31.823000   35.159500
  C      4.025230   31.896800   34.315800
  H      4.532930   30.978400   34.422100
  H      3.575600   32.037900   33.316500
  H      4.861400   32.638600   34.283500
  S     -2.729880   36.121400   37.429900
  C     -4.250600   35.253200   37.571900
  C     -3.944810   33.961500   38.009700
  C     -2.592840   33.564000   37.879500
  C     -1.792720   34.644000   37.567800
  H     -4.821160   33.378400   38.301500
  C     -2.159110   32.123500   38.256600
  H     -1.730800   32.032900   39.178700
  H     -1.330540   31.868900   37.630800
  C     -3.337810   31.160100   38.183800
  H     -3.863850   31.127300   37.158900
  H     -4.159050   31.421400   38.939300
  C     -2.928200   29.738200   38.592200
  H     -2.098810   29.332800   38.186000
  H     -3.778010   29.148100   38.431200
  H     -2.711600   29.534200   39.659500
  H      3.009680   36.004300   37.221900
  H     -5.182760   35.757800   37.673800

 Total Charge           Charge          ....    0
 Multiplicity           Mult            ....    1
 Number of Electrons    NEL             ....  134
 Basis Dimension        Dim             ....  322

ORBITAL ENERGIES
----------------

  NO   OCC          E(Eh)            E(eV)
   0   2.0000     -88.970319     -2421.0055
   1   2.0000     -88.961806     -2420.7738
   2   2.0000     -10.329595      -281.0826
   3   2.0000     -10.326311      -280.9932
   4   2.0000     -10.319098      -280.7969
   5   2.0000     -10.315318      -280.6941
   6   2.0000     -10.305341      -280.4226
   7   2.0000     -10.303955      -280.3849
   8   2.0000     -10.299698      -280.2690
   9   2.0000     -10.294156      -280.1182
  10   2.0000     -10.293217      -280.0927
  11   2.0000     -10.289584      -279.9938
  12   2.0000     -10.286423      -279.9078
  13   2.0000     -10.282404      -279.7984
  14   2.0000     -10.276609      -279.6408
  15   2.0000     -10.265803      -279.3467
  16   2.0000      -8.083876      -219.9735
  17   2.0000      -8.076677      -219.7776
  18   2.0000      -6.042510      -164.4251
  19   2.0000      -6.038604      -164.3188
  20   2.0000      -6.035156      -164.2249
  21   2.0000      -6.034523      -164.2077
  22   2.0000      -6.031169      -164.1165
  23   2.0000      -6.027449      -164.0152
  24   2.0000      -1.005027       -27.3482
  25   2.0000      -0.980673       -26.6855
  26   2.0000      -0.917697       -24.9718
  27   2.0000      -0.910662       -24.7804
  28   2.0000      -0.872567       -23.7438
  29   2.0000      -0.855708       -23.2850
  30   2.0000      -0.847617       -23.0648
  31   2.0000      -0.816384       -22.2149
  32   2.0000      -0.788331       -21.4516
  33   2.0000      -0.773888       -21.0586
  34   2.0000      -0.709978       -19.3195
  35   2.0000      -0.706172       -19.2159
  36   2.0000      -0.696324       -18.9480
  37   2.0000      -0.654505       -17.8100
  38   2.0000      -0.639923       -17.4132
  39   2.0000      -0.620977       -16.8976
  40   2.0000      -0.601841       -16.3769
  41   2.0000      -0.582491       -15.8504
  42   2.0000      -0.563551       -15.3350
  43   2.0000      -0.558184       -15.1890
  44   2.0000      -0.541230       -14.7276
  45   2.0000      -0.528597       -14.3839
  46   2.0000      -0.517041       -14.0694
  47   2.0000      -0.510944       -13.9035
  48   2.0000      -0.507803       -13.8180
  49   2.0000      -0.499446       -13.5906
  50   2.0000      -0.489048       -13.3077
  51   2.0000      -0.483124       -13.1465
  52   2.0000      -0.476491       -12.9660
  53   2.0000      -0.462385       -12.5821
  54   2.0000      -0.457546       -12.4505
  55   2.0000      -0.451888       -12.2965
  56   2.0000      -0.448112       -12.1938
  57   2.0000      -0.438624       -11.9356
  58   2.0000      -0.435497       -11.8505
  59   2.0000      -0.427762       -11.6400
  60   2.0000      -0.421289       -11.4638
  61   2.0000      -0.409985       -11.1563
  62   2.0000      -0.407864       -11.0986
  63   2.0000      -0.345733        -9.4079
  64   2.0000      -0.331282        -9.0147
  65   2.0000      -0.329787        -8.9740
  66   2.0000      -0.289924        -7.8892
  67   0.0000       0.026386         0.7180
  68   0.0000       0.064441         1.7535
  69   0.0000       0.110681         3.0118
  70   0.0000       0.121164         3.2970
  71   0.0000       0.127408         3.4670

MULLIKEN ATOMIC CHARGES
-----------------------
   0 S :    0.114089
   1 C :   -0.132661
   2 C :   -0.085324
   3 C :    0.027525
   4 C :   -0.146788
   5 H :    0.004716
   6 C :    0.084752
   7 H :    0.004573
   8 H :    0.030764
   9 C :   -0.039632
  10 H :    0.020364
  11 H :    0.022494
  12 C :   -0.046084
  13 H :    0.038096
  14 H :    0.024761
  15 H :    0.010454
  16 S :    0.091634
  17 C :   -0.088650
  18 C :   -0.068343
  19 C :   -0.024748
  20 C :   -0.167176
  21 H :    0.027852
  22 C :    0.181321
  23 H :    0.012033
  24 H :    0.004228
  25 C :   -0.178542
  26 H :    0.052707
  27 H :    0.050009
  28 C :    0.022257
  29 H :    0.001563
  30 H :    0.016056
  31 H :    0.019310
  32 H :    0.060202
  33 H :    0.056187
Sum of atomic charges:   -0.0000000

LOEWDIN ATOMIC CHARGES
----------------------
   0 S :    0.387149
   1 C :   -0.201144
   2 C :   -0.057209
   3 C :   -0.059498
   4 C :   -0.185487
   5 H :    0.026403
   6 C :   -0.029193
   7 H :    0.028315
   8 H :    0.036062
   9 C :   -0.040039
  10 H :    0.020566
  11 H :    0.024076
  12 C :   -0.065864
  13 H :    0.024131
  14 H :    0.025248
  15 H :    0.025091
  16 S :    0.400720
  17 C :   -0.184219
  18 C :   -0.070325
  19 C :   -0.056184
  20 C :   -0.192944
  21 H :    0.032485
  22 C :   -0.019772
  23 H :    0.024509
  24 H :    0.029384
  25 C :   -0.045130
  26 H :    0.034346
  27 H :    0.033915
  28 C :   -0.062510
  29 H :    0.007224
  30 H :    0.022924
  31 H :    0.030461
  32 H :    0.032186
  33 H :    0.024326

  Mayer bond orders larger than 0.100000
B(  0-S ,  1-C ) :   1.1307 B(  0-S ,  4-C ) :   1.1329 B(  1-C ,  2-C ) :   1.6117
B(  1-C , 32-H ) :   0.9549 B(  2-C ,  3-C ) :   1.2304 B(  2-C ,  6-C ) :   1.0390
B(  3-C ,  4-C ) :   1.5919 B(  3-C ,  5-H ) :   0.9957 B(  4-C , 20-C ) :   1.0491
B(  6-C ,  7-H ) :   0.9278 B(  6-C ,  8-H ) :   0.9331 B(  6-C ,  9-C ) :   1.0621
B(  9-C , 10-H ) :   0.9560 B(  9-C , 11-H ) :   0.9526 B(  9-C , 12-C ) :   1.0915
B( 12-C , 13-H ) :   0.9747 B( 12-C , 14-H ) :   0.9727 B( 12-C , 15-H ) :   0.9690
B( 16-S , 17-C ) :   1.1560 B( 16-S , 20-C ) :   1.1546 B( 17-C , 18-C ) :   1.5972
B( 17-C , 20-C ) :   0.1117 B( 17-C , 33-H ) :   0.9686 B( 18-C , 19-C ) :   1.2508
B( 18-C , 21-H ) :   0.9797 B( 19-C , 20-C ) :   1.5873 B( 19-C , 22-C ) :   1.0177
B( 22-C , 23-H ) :   0.9244 B( 22-C , 24-H ) :   0.9238 B( 22-C , 25-C ) :   1.0749
B( 25-C , 26-H ) :   0.9599 B( 25-C , 27-H ) :   0.9416 B( 25-C , 28-C ) :   1.0787
B( 28-C , 29-H ) :   0.9738 B( 28-C , 30-H ) :   0.9694 B( 28-C , 31-H ) :   0.9682

Dispersion correction           -0.013078899
FINAL SINGLE POINT ENERGY     -1339.852139323599

DIPOLE MOMENT
-------------
                                X             Y             Z
Electronic contribution:     -8.52224      28.42521       7.62542
Nuclear contribution   :      8.56755     -29.06914      -7.77730
                        -----------------------------------------
Total Dipole Moment    :      0.04532      -0.64392      -0.15187
                        -----------------------------------------
Magnitude (a.u.)       :      0.66314
Magnitude (Debye)      :      1.68557

Rotational constants in cm-1:     0.016175     0.008330     0.006019
Rotational constants in MHz :   484.928067   249.722340   180.430228

                             ****ORCA TERMINATED NORMALLY****
TOTAL RUN TIME: 0 days 0 hours 0 minutes 31 seconds 691 msec
