                         Program Version 4.2.1 -  RELEASE  -
|  1> ! wB97X-D3 SP def2-SVP
|  2> %pal
|  3> nprocs 16
|  4> end
|  5>
|  6> * xyz 0 1
|  7> S 	 -64.6655 	 39.3773 	 124.487
|  8> C 	 -65.8361 	 40.4865 	 125.069
|  9> C 	 -67.0182 	 40.2601 	 124.399
| 10> C 	 -66.9366 	 39.3018 	 123.362
| 11> C 	 -65.7536 	 38.6166 	 123.359
| 12> H 	 -67.7139 	 38.9754 	 122.645
| 13> C 	 -68.2767 	 40.9998 	 124.538
| 14> H 	 -68.2733 	 41.6243 	 125.431
| 15> H 	 -69.06 	 40.2694 	 124.695
| 16> C 	 -68.7207 	 41.8809 	 123.408
| 17> H 	 -68.9987 	 41.3039 	 122.61
| 18> H 	 -69.6868 	 42.2512 	 123.806
| 19> C 	 -67.7425 	 42.9833 	 123.141
| 20> H 	 -67.9209 	 43.4923 	 122.225
| 21> H 	 -67.5929 	 43.6653 	 123.977
| 22> H 	 -66.7903 	 42.605 	 122.903
| 23> S 	 -66.5833 	 36.1253 	 122.416
| 24> C 	 -65.6269 	 35.1431 	 121.347
| 25> C 	 -64.352 	 35.7807 	 121.137
| 26> C 	 -64.2509 	 37.0727 	 121.79
| 27> C 	 -65.3848 	 37.4095 	 122.552
| 28> H 	 -63.6081 	 35.3417 	 120.482
| 29> C 	 -63.0332 	 37.9632 	 121.544
| 30> H 	 -62.0834 	 37.3297 	 121.578
| 31> H 	 -63.0576 	 38.6285 	 122.475
| 32> C 	 -63.0379 	 38.8403 	 120.305
| 33> H 	 -63.0203 	 38.3675 	 119.283
| 34> H 	 -62.0998 	 39.3604 	 120.345
| 35> C 	 -64.3555 	 39.7732 	 120.223
| 36> H 	 -65.2486 	 39.2699 	 119.926
| 37> H 	 -64.226 	 40.545 	 119.511
| 38> H 	 -64.5605 	 40.2232 	 121.127
| 39> H 	 -65.7071 	 41.3044 	 125.758
| 40> H 	 -65.876 	 34.219 	 120.904
| 41> *
| 42>
| 43>                          ****END OF INPUT****

CARTESIAN COORDINATES (ANGSTROEM)
---------------------------------
  S    -64.665500   39.377300  124.487000
  C    -65.836100   40.486500  125.069000
  C    -67.018200   40.260100  124.399000
  C    -66.936600   39.301800  123.362000
  C    -65.753600   38.616600  123.359000
  H    -67.713900   38.975400  122.645000
  C    -68.276700   40.999800  124.538000
  H    -68.273300   41.624300  125.431000
  H    -69.060000   40.269400  124.695000
  C    -68.720700   41.880900  123.408000
  H    -68.998700   41.303900  122.610000
  H    -69.686800   42.251200  123.806000
  C    -67.742500   42.983300  123.141000
  H    -67.920900   43.492300  122.225000
  H    -67.592900   43.665300  123.977000
  H    -66.790300   42.605000  122.903000
  S    -66.583300   36.125300  122.416000
  C    -65.626900   35.143100  121.347000
  C    -64.352000   35.780700  121.137000
  C    -64.250900   37.072700  121.790000
  C    -65.384800   37.409500  122.552000
  H    -63.608100   35.341700  120.482000
  C    -63.033200   37.963200  121.544000
  H    -62.083400   37.329700  121.578000
  H    -63.057600   38.628500  122.475000
  C    -63.037900   38.840300  120.305000
  H    -63.020300   38.367500  119.283000
  H    -62.099800   39.360400  120.345000
  C    -64.355500   39.773200  120.223000
  H    -65.248600   39.269900  119.926000
  H    -64.226000   40.545000  119.511000
  H    -64.560500   40.223200  121.127000
  H    -65.707100   41.304400  125.758000
  H    -65.876000   34.219000  120.904000

 Total Charge           Charge          ....    0
 Multiplicity           Mult            ....    1
 Number of Electrons    NEL             ....  134
 Basis Dimension        Dim             ....  322

ORBITAL ENERGIES
----------------

  NO   OCC          E(Eh)            E(eV)
   0   2.0000     -88.970395     -2421.0075
   1   2.0000     -88.966619     -2420.9048
   2   2.0000     -10.335122      -281.2330
   3   2.0000     -10.333276      -281.1827
   4   2.0000     -10.323358      -280.9128
   5   2.0000     -10.312444      -280.6159
   6   2.0000     -10.308442      -280.5070
   7   2.0000     -10.301632      -280.3217
   8   2.0000     -10.300636      -280.2945
   9   2.0000     -10.294366      -280.1239
  10   2.0000     -10.292457      -280.0720
  11   2.0000     -10.291353      -280.0419
  12   2.0000     -10.279900      -279.7303
  13   2.0000     -10.276702      -279.6433
  14   2.0000     -10.266441      -279.3641
  15   2.0000     -10.263243      -279.2770
  16   2.0000      -8.084468      -219.9896
  17   2.0000      -8.081580      -219.9110
  18   2.0000      -6.043008      -164.4386
  19   2.0000      -6.040085      -164.3591
  20   2.0000      -6.038769      -164.3233
  21   2.0000      -6.035923      -164.2458
  22   2.0000      -6.035543      -164.2355
  23   2.0000      -6.032449      -164.1513
  24   2.0000      -1.010343       -27.4928
  25   2.0000      -0.984019       -26.7765
  26   2.0000      -0.924106       -25.1462
  27   2.0000      -0.900968       -24.5166
  28   2.0000      -0.867631       -23.6094
  29   2.0000      -0.852000       -23.1841
  30   2.0000      -0.839269       -22.8377
  31   2.0000      -0.813579       -22.1386
  32   2.0000      -0.786403       -21.3991
  33   2.0000      -0.777880       -21.1672
  34   2.0000      -0.711935       -19.3727
  35   2.0000      -0.704884       -19.1809
  36   2.0000      -0.691724       -18.8228
  37   2.0000      -0.665577       -18.1113
  38   2.0000      -0.637841       -17.3565
  39   2.0000      -0.622806       -16.9474
  40   2.0000      -0.586650       -15.9636
  41   2.0000      -0.574583       -15.6352
  42   2.0000      -0.562935       -15.3182
  43   2.0000      -0.546723       -14.8771
  44   2.0000      -0.539795       -14.6886
  45   2.0000      -0.533568       -14.5191
  46   2.0000      -0.521355       -14.1868
  47   2.0000      -0.513495       -13.9729
  48   2.0000      -0.506326       -13.7778
  49   2.0000      -0.499759       -13.5991
  50   2.0000      -0.489198       -13.3118
  51   2.0000      -0.481985       -13.1155
  52   2.0000      -0.474626       -12.9152
  53   2.0000      -0.465215       -12.6592
  54   2.0000      -0.457574       -12.4512
  55   2.0000      -0.448599       -12.2070
  56   2.0000      -0.446484       -12.1495
  57   2.0000      -0.439970       -11.9722
  58   2.0000      -0.432203       -11.7608
  59   2.0000      -0.427027       -11.6200
  60   2.0000      -0.417439       -11.3591
  61   2.0000      -0.410369       -11.1667
  62   2.0000      -0.400170       -10.8892
  63   2.0000      -0.350120        -9.5273
  64   2.0000      -0.329674        -8.9709
  65   2.0000      -0.328751        -8.9458
  66   2.0000      -0.293707        -7.9922
  67   0.0000       0.027112         0.7378
  68   0.0000       0.073859         2.0098
  69   0.0000       0.114089         3.1045
  70   0.0000       0.117013         3.1841
  71   0.0000       0.127918         3.4808

MULLIKEN ATOMIC CHARGES
-----------------------
   0 S :    0.105973
   1 C :   -0.097386
   2 C :   -0.090660
   3 C :   -0.010695
   4 C :   -0.132310
   5 H :    0.026523
   6 C :    0.046917
   7 H :    0.005091
   8 H :    0.025051
   9 C :   -0.020472
  10 H :    0.002230
  11 H :    0.022901
  12 C :   -0.001675
  13 H :    0.018079
  14 H :    0.026894
  15 H :    0.014607
  16 S :    0.114791
  17 C :   -0.085641
  18 C :   -0.041192
  19 C :   -0.045470
  20 C :   -0.150520
  21 H :    0.024365
  22 C :    0.019196
  23 H :    0.044096
  24 H :    0.033583
  25 C :   -0.057502
  26 H :    0.034433
  27 H :    0.030630
  28 C :   -0.021616
  29 H :    0.033945
  30 H :    0.017134
  31 H :    0.014620
  32 H :    0.044399
  33 H :    0.049680
Sum of atomic charges:   -0.0000000

LOEWDIN ATOMIC CHARGES
----------------------
   0 S :    0.429200
   1 C :   -0.207962
   2 C :   -0.068715
   3 C :   -0.072716
   4 C :   -0.190091
   5 H :    0.036452
   6 C :   -0.035339
   7 H :    0.024739
   8 H :    0.032839
   9 C :   -0.030908
  10 H :    0.009770
  11 H :    0.030598
  12 C :   -0.061037
  13 H :    0.025163
  14 H :    0.027699
  15 H :    0.022005
  16 S :    0.420778
  17 C :   -0.188365
  18 C :   -0.066948
  19 C :   -0.059721
  20 C :   -0.202244
  21 H :    0.030440
  22 C :   -0.045583
  23 H :    0.039143
  24 H :    0.027631
  25 C :   -0.037803
  26 H :    0.028373
  27 H :    0.023232
  28 C :   -0.054666
  29 H :    0.025846
  30 H :    0.020803
  31 H :    0.011374
  32 H :    0.032260
  33 H :    0.023752

  Mayer bond orders larger than 0.100000
B(  0-S ,  1-C ) :   1.1373 B(  0-S ,  4-C ) :   1.1573 B(  1-C ,  2-C ) :   1.5892
B(  1-C , 32-H ) :   0.9724 B(  2-C ,  3-C ) :   1.2283 B(  2-C ,  6-C ) :   1.0482
B(  3-C ,  4-C ) :   1.5773 B(  3-C ,  5-H ) :   0.9917 B(  4-C , 20-C ) :   1.0190
B(  6-C ,  7-H ) :   0.9407 B(  6-C ,  8-H ) :   0.9262 B(  6-C ,  9-C ) :   1.0874
B(  9-C , 10-H ) :   0.9488 B(  9-C , 11-H ) :   0.9498 B(  9-C , 12-C ) :   1.0789
B( 12-C , 13-H ) :   0.9672 B( 12-C , 14-H ) :   0.9729 B( 12-C , 15-H ) :   0.9685
B( 16-S , 17-C ) :   1.1746 B( 16-S , 20-C ) :   1.1481 B( 17-C , 18-C ) :   1.5615
B( 17-C , 20-C ) :   0.1046 B( 17-C , 33-H ) :   0.9756 B( 18-C , 19-C ) :   1.2717
B( 18-C , 21-H ) :   0.9885 B( 19-C , 20-C ) :   1.5551 B( 19-C , 22-C ) :   1.0339
B( 22-C , 23-H ) :   0.9366 B( 22-C , 24-H ) :   0.9306 B( 22-C , 25-C ) :   1.0730
B( 25-C , 26-H ) :   0.9583 B( 25-C , 27-H ) :   0.9575 B( 25-C , 28-C ) :   1.0590
B( 28-C , 29-H ) :   0.9748 B( 28-C , 30-H ) :   0.9746 B( 28-C , 31-H ) :   0.9794

Dispersion correction           -0.015934780
FINAL SINGLE POINT ENERGY     -1339.870244475565

DIPOLE MOMENT
-------------
                                X             Y             Z
Electronic contribution:      2.34869     -19.38101       9.37246
Nuclear contribution   :     -2.45121      19.64260      -9.73275
                        -----------------------------------------
Total Dipole Moment    :     -0.10252       0.26160      -0.36029
                        -----------------------------------------
Magnitude (a.u.)       :      0.45689
Magnitude (Debye)      :      1.16133

Rotational constants in cm-1:     0.021106     0.008850     0.007934
Rotational constants in MHz :   632.754721   265.320082   237.861809

                             ****ORCA TERMINATED NORMALLY****
TOTAL RUN TIME: 0 days 0 hours 0 minutes 35 seconds 558 msec
