                         Program Version 4.2.1 -  RELEASE  -
|  1> ! wB97X-D3 SP def2-SVP
|  2> %pal
|  3> nprocs 16
|  4> end
|  5>
|  6> * xyz 0 1
|  7> S 	 6.36265 	 -15.2811 	 85.651
|  8> C 	 7.22576 	 -14.9112 	 84.1245
|  9> C 	 8.49345 	 -14.4524 	 84.4673
| 10> C 	 8.67755 	 -14.2415 	 85.8747
| 11> C 	 7.61481 	 -14.6654 	 86.6488
| 12> H 	 9.5423 	 -13.8131 	 86.4014
| 13> C 	 9.62512 	 -14.2232 	 83.4491
| 14> H 	 10.073 	 -13.3164 	 83.9049
| 15> H 	 9.25465 	 -14.0775 	 82.4529
| 16> C 	 10.6644 	 -15.3761 	 83.4518
| 17> H 	 11.2029 	 -15.4393 	 84.3754
| 18> H 	 10.1693 	 -16.2965 	 83.2762
| 19> C 	 11.7467 	 -15.1934 	 82.3432
| 20> H 	 11.387 	 -15.4612 	 81.3868
| 21> H 	 12.2551 	 -14.2457 	 82.2907
| 22> H 	 12.5111 	 -15.8429 	 82.5376
| 23> S 	 6.57684 	 -15.9314 	 88.924
| 24> C 	 6.932 	 -15.2667 	 90.496
| 25> C 	 7.65257 	 -14.0968 	 90.4381
| 26> C 	 8.0336 	 -13.7812 	 89.0872
| 27> C 	 7.50617 	 -14.6565 	 88.1087
| 28> H 	 7.98139 	 -13.5021 	 91.2727
| 29> C 	 8.81085 	 -12.5322 	 88.9272
| 30> H 	 8.16463 	 -11.7511 	 89.2933
| 31> H 	 8.79806 	 -12.1469 	 87.9091
| 32> C 	 10.2151 	 -12.5185 	 89.6344
| 33> H 	 10.7722 	 -13.3286 	 89.2552
| 34> H 	 10.1923 	 -12.7456 	 90.6992
| 35> C 	 10.9079 	 -11.1202 	 89.3806
| 36> H 	 10.8645 	 -10.7857 	 88.2804
| 37> H 	 11.9391 	 -11.1249 	 89.6844
| 38> H 	 10.4965 	 -10.3083 	 90.0453
| 39> H 	 7.01608 	 -15.0983 	 83.0784
| 40> H 	 6.62239 	 -15.735 	 91.4214
| 41> *
| 42>
| 43>                          ****END OF INPUT****

CARTESIAN COORDINATES (ANGSTROEM)
---------------------------------
  S      6.362650  -15.281100   85.651000
  C      7.225760  -14.911200   84.124500
  C      8.493450  -14.452400   84.467300
  C      8.677550  -14.241500   85.874700
  C      7.614810  -14.665400   86.648800
  H      9.542300  -13.813100   86.401400
  C      9.625120  -14.223200   83.449100
  H     10.073000  -13.316400   83.904900
  H      9.254650  -14.077500   82.452900
  C     10.664400  -15.376100   83.451800
  H     11.202900  -15.439300   84.375400
  H     10.169300  -16.296500   83.276200
  C     11.746700  -15.193400   82.343200
  H     11.387000  -15.461200   81.386800
  H     12.255100  -14.245700   82.290700
  H     12.511100  -15.842900   82.537600
  S      6.576840  -15.931400   88.924000
  C      6.932000  -15.266700   90.496000
  C      7.652570  -14.096800   90.438100
  C      8.033600  -13.781200   89.087200
  C      7.506170  -14.656500   88.108700
  H      7.981390  -13.502100   91.272700
  C      8.810850  -12.532200   88.927200
  H      8.164630  -11.751100   89.293300
  H      8.798060  -12.146900   87.909100
  C     10.215100  -12.518500   89.634400
  H     10.772200  -13.328600   89.255200
  H     10.192300  -12.745600   90.699200
  C     10.907900  -11.120200   89.380600
  H     10.864500  -10.785700   88.280400
  H     11.939100  -11.124900   89.684400
  H     10.496500  -10.308300   90.045300
  H      7.016080  -15.098300   83.078400
  H      6.622390  -15.735000   91.421400

 Total Charge           Charge          ....    0
 Multiplicity           Mult            ....    1
 Number of Electrons    NEL             ....  134
 Basis Dimension        Dim             ....  322

ORBITAL ENERGIES
----------------

  NO   OCC          E(Eh)            E(eV)
   0   2.0000     -88.967733     -2420.9351
   1   2.0000     -88.965832     -2420.8834
   2   2.0000     -10.333972      -281.2017
   3   2.0000     -10.330260      -281.1007
   4   2.0000     -10.320045      -280.8227
   5   2.0000     -10.314251      -280.6650
   6   2.0000     -10.305083      -280.4156
   7   2.0000     -10.301937      -280.3300
   8   2.0000     -10.295206      -280.1468
   9   2.0000     -10.294029      -280.1148
  10   2.0000     -10.293608      -280.1033
  11   2.0000     -10.292691      -280.0784
  12   2.0000     -10.292496      -280.0731
  13   2.0000     -10.289765      -279.9987
  14   2.0000     -10.283732      -279.8346
  15   2.0000     -10.265703      -279.3440
  16   2.0000      -8.082107      -219.9253
  17   2.0000      -8.080190      -219.8731
  18   2.0000      -6.040737      -164.3768
  19   2.0000      -6.038929      -164.3276
  20   2.0000      -6.036636      -164.2652
  21   2.0000      -6.034678      -164.2119
  22   2.0000      -6.032806      -164.1610
  23   2.0000      -6.030781      -164.1059
  24   2.0000      -1.004787       -27.3417
  25   2.0000      -0.982055       -26.7231
  26   2.0000      -0.909607       -24.7517
  27   2.0000      -0.906780       -24.6747
  28   2.0000      -0.868669       -23.6377
  29   2.0000      -0.849548       -23.1174
  30   2.0000      -0.842379       -22.9223
  31   2.0000      -0.814367       -22.1601
  32   2.0000      -0.782959       -21.3054
  33   2.0000      -0.771023       -20.9806
  34   2.0000      -0.716358       -19.4931
  35   2.0000      -0.705546       -19.1989
  36   2.0000      -0.699523       -19.0350
  37   2.0000      -0.663113       -18.0442
  38   2.0000      -0.637056       -17.3352
  39   2.0000      -0.617662       -16.8074
  40   2.0000      -0.601511       -16.3679
  41   2.0000      -0.567213       -15.4346
  42   2.0000      -0.564420       -15.3586
  43   2.0000      -0.553154       -15.0521
  44   2.0000      -0.527753       -14.3609
  45   2.0000      -0.521969       -14.2035
  46   2.0000      -0.512881       -13.9562
  47   2.0000      -0.509275       -13.8581
  48   2.0000      -0.507009       -13.7964
  49   2.0000      -0.506003       -13.7691
  50   2.0000      -0.495091       -13.4721
  51   2.0000      -0.476547       -12.9675
  52   2.0000      -0.468811       -12.7570
  53   2.0000      -0.464743       -12.6463
  54   2.0000      -0.460179       -12.5221
  55   2.0000      -0.454378       -12.3643
  56   2.0000      -0.446743       -12.1565
  57   2.0000      -0.442159       -12.0318
  58   2.0000      -0.437341       -11.9006
  59   2.0000      -0.433723       -11.8022
  60   2.0000      -0.421134       -11.4596
  61   2.0000      -0.417294       -11.3552
  62   2.0000      -0.407008       -11.0753
  63   2.0000      -0.356441        -9.6992
  64   2.0000      -0.331333        -9.0160
  65   2.0000      -0.325805        -8.8656
  66   2.0000      -0.284696        -7.7470
  67   0.0000       0.024935         0.6785
  68   0.0000       0.077912         2.1201
  69   0.0000       0.107507         2.9254
  70   0.0000       0.120861         3.2888
  71   0.0000       0.129337         3.5194

MULLIKEN ATOMIC CHARGES
-----------------------
   0 S :    0.099458
   1 C :   -0.103069
   2 C :   -0.111689
   3 C :   -0.003050
   4 C :   -0.127806
   5 H :    0.018140
   6 C :    0.073730
   7 H :    0.030570
   8 H :    0.017315
   9 C :   -0.056420
  10 H :    0.024750
  11 H :    0.023275
  12 C :   -0.001193
  13 H :    0.018173
  14 H :    0.022723
  15 H :    0.004326
  16 S :    0.101098
  17 C :   -0.079166
  18 C :   -0.016352
  19 C :   -0.049208
  20 C :   -0.122655
  21 H :    0.019612
  22 C :    0.031194
  23 H :    0.024969
  24 H :    0.008900
  25 C :   -0.042406
  26 H :    0.023677
  27 H :    0.030421
  28 C :   -0.085094
  29 H :    0.049781
  30 H :    0.031552
  31 H :    0.042778
  32 H :    0.042563
  33 H :    0.059100
Sum of atomic charges:    0.0000000

LOEWDIN ATOMIC CHARGES
----------------------
   0 S :    0.402529
   1 C :   -0.202494
   2 C :   -0.057141
   3 C :   -0.081221
   4 C :   -0.195256
   5 H :    0.033586
   6 C :   -0.025993
   7 H :    0.035368
   8 H :    0.024370
   9 C :   -0.025759
  10 H :    0.021878
  11 H :    0.021225
  12 C :   -0.057038
  13 H :    0.018731
  14 H :    0.024672
  15 H :    0.015896
  16 S :    0.396699
  17 C :   -0.178093
  18 C :   -0.066647
  19 C :   -0.053137
  20 C :   -0.194042
  21 H :    0.031898
  22 C :   -0.045063
  23 H :    0.035753
  24 H :    0.029252
  25 C :   -0.029580
  26 H :    0.019140
  27 H :    0.025099
  28 C :   -0.075742
  29 H :    0.034861
  30 H :    0.021505
  31 H :    0.031882
  32 H :    0.033177
  33 H :    0.029687

  Mayer bond orders larger than 0.100000
B(  0-S ,  1-C ) :   1.1079 B(  0-S ,  4-C ) :   1.1579 B(  1-C ,  2-C ) :   1.6224
B(  1-C , 32-H ) :   0.9697 B(  2-C ,  3-C ) :   1.2310 B(  2-C ,  6-C ) :   1.0212
B(  3-C ,  4-C ) :   1.5720 B(  3-C ,  5-H ) :   0.9883 B(  4-C , 20-C ) :   1.0597
B(  6-C ,  7-H ) :   0.9373 B(  6-C ,  8-H ) :   0.9470 B(  6-C ,  9-C ) :   1.0678
B(  9-C , 10-H ) :   0.9587 B(  9-C , 11-H ) :   0.9561 B(  9-C , 12-C ) :   1.0865
B( 12-C , 13-H ) :   0.9756 B( 12-C , 14-H ) :   0.9743 B( 12-C , 15-H ) :   0.9711
B( 16-S , 17-C ) :   1.1590 B( 16-S , 20-C ) :   1.1216 B( 17-C , 18-C ) :   1.5929
B( 17-C , 33-H ) :   0.9673 B( 18-C , 19-C ) :   1.2488 B( 18-C , 21-H ) :   0.9917
B( 19-C , 20-C ) :   1.5758 B( 19-C , 22-C ) :   1.0556 B( 22-C , 23-H ) :   0.9294
B( 22-C , 24-H ) :   0.9354 B( 22-C , 25-C ) :   1.0338 B( 25-C , 26-H ) :   0.9592
B( 25-C , 27-H ) :   0.9563 B( 25-C , 28-C ) :   1.0730 B( 28-C , 29-H ) :   0.9756
B( 28-C , 30-H ) :   0.9756 B( 28-C , 31-H ) :   0.9762

Dispersion correction           -0.013517558
FINAL SINGLE POINT ENERGY     -1339.871655217094

DIPOLE MOMENT
-------------
                                X             Y             Z
Electronic contribution:    -26.86236     -13.57428       7.46260
Nuclear contribution   :     27.58710      13.92670      -7.33138
                        -----------------------------------------
Total Dipole Moment    :      0.72474       0.35243       0.13123
                        -----------------------------------------
Magnitude (a.u.)       :      0.81650
Magnitude (Debye)      :      2.07537

Rotational constants in cm-1:     0.016564     0.008518     0.006177
Rotational constants in MHz :   496.579551   255.355462   185.168403

                             ****ORCA TERMINATED NORMALLY****
TOTAL RUN TIME: 0 days 0 hours 0 minutes 32 seconds 405 msec
