                         Program Version 4.2.1 -  RELEASE  -
|  1> ! wB97X-D3 SP def2-SVP
|  2> %pal
|  3> nprocs 16
|  4> end
|  5>
|  6> * xyz 0 1
|  7> S 	 -36.367 	 73.3746 	 148.694
|  8> C 	 -34.6583 	 73.8187 	 149.001
|  9> C 	 -33.8297 	 72.6694 	 149.05
| 10> C 	 -34.5739 	 71.5187 	 148.801
| 11> C 	 -35.9832 	 71.7093 	 148.808
| 12> H 	 -34.1685 	 70.4736 	 148.701
| 13> C 	 -32.3184 	 72.7893 	 149.149
| 14> H 	 -31.9346 	 71.9309 	 149.775
| 15> H 	 -31.9699 	 73.7418 	 149.625
| 16> C 	 -31.6618 	 72.6441 	 147.789
| 17> H 	 -31.8126 	 71.6018 	 147.427
| 18> H 	 -32.0695 	 73.388 	 147.094
| 19> C 	 -30.1689 	 72.8526 	 147.981
| 20> H 	 -29.8747 	 73.8511 	 148.402
| 21> H 	 -29.696 	 72.0344 	 148.593
| 22> H 	 -29.7405 	 72.8754 	 147.023
| 23> S 	 -37.9362 	 70.5194 	 147.238
| 24> C 	 -38.8058 	 69.1426 	 147.902
| 25> C 	 -38.5323 	 69.0049 	 149.217
| 26> C 	 -37.5593 	 69.9372 	 149.683
| 27> C 	 -37.0422 	 70.7556 	 148.701
| 28> H 	 -39.0968 	 68.2995 	 149.826
| 29> C 	 -37.1352 	 69.9248 	 151.112
| 30> H 	 -37.885 	 69.4808 	 151.719
| 31> H 	 -36.9714 	 71.0077 	 151.382
| 32> C 	 -35.8463 	 69.1902 	 151.46
| 33> H 	 -35.0399 	 69.545 	 150.834
| 34> H 	 -35.7692 	 68.1652 	 151.218
| 35> C 	 -35.5354 	 69.3076 	 153.001
| 36> H 	 -34.5547 	 68.8164 	 153.126
| 37> H 	 -36.359 	 68.8287 	 153.598
| 38> H 	 -35.4297 	 70.2906 	 153.452
| 39> H 	 -34.2688 	 74.7838 	 148.96
| 40> H 	 -39.5498 	 68.5704 	 147.449
| 41> *
| 42>
| 43>                          ****END OF INPUT****

CARTESIAN COORDINATES (ANGSTROEM)
---------------------------------
  S    -36.367000   73.374600  148.694000
  C    -34.658300   73.818700  149.001000
  C    -33.829700   72.669400  149.050000
  C    -34.573900   71.518700  148.801000
  C    -35.983200   71.709300  148.808000
  H    -34.168500   70.473600  148.701000
  C    -32.318400   72.789300  149.149000
  H    -31.934600   71.930900  149.775000
  H    -31.969900   73.741800  149.625000
  C    -31.661800   72.644100  147.789000
  H    -31.812600   71.601800  147.427000
  H    -32.069500   73.388000  147.094000
  C    -30.168900   72.852600  147.981000
  H    -29.874700   73.851100  148.402000
  H    -29.696000   72.034400  148.593000
  H    -29.740500   72.875400  147.023000
  S    -37.936200   70.519400  147.238000
  C    -38.805800   69.142600  147.902000
  C    -38.532300   69.004900  149.217000
  C    -37.559300   69.937200  149.683000
  C    -37.042200   70.755600  148.701000
  H    -39.096800   68.299500  149.826000
  C    -37.135200   69.924800  151.112000
  H    -37.885000   69.480800  151.719000
  H    -36.971400   71.007700  151.382000
  C    -35.846300   69.190200  151.460000
  H    -35.039900   69.545000  150.834000
  H    -35.769200   68.165200  151.218000
  C    -35.535400   69.307600  153.001000
  H    -34.554700   68.816400  153.126000
  H    -36.359000   68.828700  153.598000
  H    -35.429700   70.290600  153.452000
  H    -34.268800   74.783800  148.960000
  H    -39.549800   68.570400  147.449000

 Total Charge           Charge          ....    0
 Multiplicity           Mult            ....    1
 Number of Electrons    NEL             ....  134
 Basis Dimension        Dim             ....  322

ORBITAL ENERGIES
----------------

  NO   OCC          E(Eh)            E(eV)
   0   2.0000     -88.969638     -2420.9869
   1   2.0000     -88.962760     -2420.7998
   2   2.0000     -10.328056      -281.0407
   3   2.0000     -10.318712      -280.7864
   4   2.0000     -10.314042      -280.6593
   5   2.0000     -10.310387      -280.5599
   6   2.0000     -10.303817      -280.3811
   7   2.0000     -10.301484      -280.3176
   8   2.0000     -10.299359      -280.2598
   9   2.0000     -10.295803      -280.1630
  10   2.0000     -10.289351      -279.9875
  11   2.0000     -10.288333      -279.9598
  12   2.0000     -10.284140      -279.8457
  13   2.0000     -10.281176      -279.7650
  14   2.0000     -10.280230      -279.7393
  15   2.0000     -10.279049      -279.7071
  16   2.0000      -8.084014      -219.9772
  17   2.0000      -8.077826      -219.8088
  18   2.0000      -6.042315      -164.4198
  19   2.0000      -6.038494      -164.3158
  20   2.0000      -6.036419      -164.2593
  21   2.0000      -6.035088      -164.2231
  22   2.0000      -6.032241      -164.1456
  23   2.0000      -6.028508      -164.0441
  24   2.0000      -1.010296       -27.4915
  25   2.0000      -0.984915       -26.8009
  26   2.0000      -0.919241       -25.0138
  27   2.0000      -0.905854       -24.6495
  28   2.0000      -0.874534       -23.7973
  29   2.0000      -0.847850       -23.0712
  30   2.0000      -0.844609       -22.9830
  31   2.0000      -0.813475       -22.1358
  32   2.0000      -0.780739       -21.2450
  33   2.0000      -0.766406       -20.8550
  34   2.0000      -0.712215       -19.3804
  35   2.0000      -0.698941       -19.0192
  36   2.0000      -0.692831       -18.8529
  37   2.0000      -0.662334       -18.0230
  38   2.0000      -0.643619       -17.5138
  39   2.0000      -0.618016       -16.8171
  40   2.0000      -0.596133       -16.2216
  41   2.0000      -0.577164       -15.7054
  42   2.0000      -0.567539       -15.4435
  43   2.0000      -0.558720       -15.2035
  44   2.0000      -0.526969       -14.3395
  45   2.0000      -0.520270       -14.1573
  46   2.0000      -0.513049       -13.9608
  47   2.0000      -0.510952       -13.9037
  48   2.0000      -0.505279       -13.7494
  49   2.0000      -0.502345       -13.6695
  50   2.0000      -0.492829       -13.4106
  51   2.0000      -0.474196       -12.9035
  52   2.0000      -0.471266       -12.8238
  53   2.0000      -0.463253       -12.6058
  54   2.0000      -0.459235       -12.4964
  55   2.0000      -0.448560       -12.2059
  56   2.0000      -0.445134       -12.1127
  57   2.0000      -0.438859       -11.9420
  58   2.0000      -0.434070       -11.8116
  59   2.0000      -0.431048       -11.7294
  60   2.0000      -0.418703       -11.3935
  61   2.0000      -0.413837       -11.2611
  62   2.0000      -0.410366       -11.1666
  63   2.0000      -0.337659        -9.1882
  64   2.0000      -0.333187        -9.0665
  65   2.0000      -0.318925        -8.6784
  66   2.0000      -0.300736        -8.1835
  67   0.0000       0.034096         0.9278
  68   0.0000       0.056959         1.5499
  69   0.0000       0.111890         3.0447
  70   0.0000       0.122737         3.3398
  71   0.0000       0.126085         3.4310

MULLIKEN ATOMIC CHARGES
-----------------------
   0 S :    0.125849
   1 C :   -0.096875
   2 C :   -0.064043
   3 C :    0.038495
   4 C :   -0.213099
   5 H :    0.037542
   6 C :    0.022189
   7 H :    0.033410
   8 H :    0.033102
   9 C :   -0.085888
  10 H :    0.039931
  11 H :    0.036096
  12 C :   -0.040472
  13 H :    0.030882
  14 H :    0.040317
  15 H :    0.021396
  16 S :    0.111527
  17 C :   -0.058416
  18 C :   -0.036466
  19 C :   -0.019080
  20 C :   -0.167139
  21 H :    0.020175
  22 C :    0.087520
  23 H :    0.003716
  24 H :    0.040057
  25 C :   -0.040989
  26 H :    0.001711
  27 H :    0.010066
  28 C :   -0.070645
  29 H :    0.036579
  30 H :    0.036750
  31 H :    0.032771
  32 H :    0.023211
  33 H :    0.029819
Sum of atomic charges:    0.0000000

LOEWDIN ATOMIC CHARGES
----------------------
   0 S :    0.423365
   1 C :   -0.183198
   2 C :   -0.060512
   3 C :   -0.063161
   4 C :   -0.210407
   5 H :    0.038351
   6 C :   -0.036445
   7 H :    0.035424
   8 H :    0.033270
   9 C :   -0.040294
  10 H :    0.030669
  11 H :    0.026410
  12 C :   -0.068880
  13 H :    0.027571
  14 H :    0.031273
  15 H :    0.018267
  16 S :    0.407016
  17 C :   -0.169802
  18 C :   -0.071667
  19 C :   -0.052782
  20 C :   -0.223430
  21 H :    0.034061
  22 C :   -0.032039
  23 H :    0.023029
  24 H :    0.042142
  25 C :   -0.036916
  26 H :    0.018121
  27 H :    0.017878
  28 C :   -0.069095
  29 H :    0.029126
  30 H :    0.028478
  31 H :    0.022117
  32 H :    0.012064
  33 H :    0.019995

  Mayer bond orders larger than 0.100000
B(  0-S ,  1-C ) :   1.1519 B(  0-S ,  4-C ) :   1.1870 B(  1-C ,  2-C ) :   1.5551
B(  1-C ,  4-C ) :   0.1255 B(  1-C , 32-H ) :   0.9765 B(  2-C ,  3-C ) :   1.2948
B(  2-C ,  6-C ) :   1.0252 B(  3-C ,  4-C ) :   1.5279 B(  3-C ,  5-H ) :   0.9737
B(  4-C , 20-C ) :   1.0420 B(  6-C ,  7-H ) :   0.9358 B(  6-C ,  8-H ) :   0.9481
B(  6-C ,  9-C ) :   1.0668 B(  9-C , 10-H ) :   0.9500 B(  9-C , 11-H ) :   0.9550
B(  9-C , 12-C ) :   1.0921 B( 12-C , 13-H ) :   0.9719 B( 12-C , 14-H ) :   0.9714
B( 12-C , 15-H ) :   0.9715 B( 16-S , 17-C ) :   1.1498 B( 16-S , 20-C ) :   1.1307
B( 17-C , 18-C ) :   1.6223 B( 17-C , 33-H ) :   0.9714 B( 18-C , 19-C ) :   1.2437
B( 18-C , 21-H ) :   0.9883 B( 19-C , 20-C ) :   1.5943 B( 19-C , 22-C ) :   1.0629
B( 22-C , 23-H ) :   0.9307 B( 22-C , 24-H ) :   0.9209 B( 22-C , 25-C ) :   1.0738
B( 25-C , 26-H ) :   0.9459 B( 25-C , 27-H ) :   0.9504 B( 25-C , 28-C ) :   1.0738
B( 28-C , 29-H ) :   0.9749 B( 28-C , 30-H ) :   0.9752 B( 28-C , 31-H ) :   0.9788

Dispersion correction           -0.014235206
FINAL SINGLE POINT ENERGY     -1339.874299112900

DIPOLE MOMENT
-------------
                                X             Y             Z
Electronic contribution:    -23.92138       5.20591     -13.86490
Nuclear contribution   :     24.36318      -5.43081      14.05537
                        -----------------------------------------
Total Dipole Moment    :      0.44181      -0.22491       0.19047
                        -----------------------------------------
Magnitude (a.u.)       :      0.53109
Magnitude (Debye)      :      1.34992

Rotational constants in cm-1:     0.018603     0.008307     0.006827
Rotational constants in MHz :   557.698093   249.043439   204.675347

                             ****ORCA TERMINATED NORMALLY****
TOTAL RUN TIME: 0 days 0 hours 0 minutes 34 seconds 767 msec
