                         Program Version 4.2.1 -  RELEASE  -
|  1> ! wB97X-D3 SP def2-SVP
|  2> %pal
|  3> nprocs 16
|  4> end
|  5>
|  6> * xyz 0 1
|  7> S 	 7.79805 	 -9.50516 	 64.6508
|  8> C 	 6.49513 	 -9.26161 	 65.7925
|  9> C 	 5.92728 	 -10.4387 	 66.1689
| 10> C 	 6.53993 	 -11.5926 	 65.5622
| 11> C 	 7.63245 	 -11.238 	 64.8011
| 12> H 	 6.25214 	 -12.6472 	 65.7434
| 13> C 	 4.77242 	 -10.3583 	 67.13
| 14> H 	 3.88986 	 -9.86909 	 66.6058
| 15> H 	 5.01614 	 -9.55362 	 67.8534
| 16> C 	 4.2493 	 -11.7867 	 67.7618
| 17> H 	 3.34976 	 -11.5338 	 68.2959
| 18> H 	 3.91806 	 -12.5653 	 67.1001
| 19> C 	 5.17881 	 -12.4897 	 68.8031
| 20> H 	 6.0934 	 -12.7515 	 68.3274
| 21> H 	 5.38192 	 -11.8587 	 69.5477
| 22> H 	 4.76595 	 -13.3821 	 69.1765
| 23> S 	 10.1497 	 -11.5479 	 63.8656
| 24> C 	 10.6855 	 -13.0138 	 63.0983
| 25> C 	 9.69441 	 -13.9471 	 63.0755
| 26> C 	 8.4882 	 -13.5148 	 63.7077
| 27> C 	 8.54866 	 -12.1846 	 64.1653
| 28> H 	 9.89309 	 -14.9027 	 62.5815
| 29> C 	 7.26096 	 -14.3898 	 63.8105
| 30> H 	 7.34281 	 -15.1269 	 62.8787
| 31> H 	 6.43483 	 -13.6774 	 63.7914
| 32> C 	 7.2453 	 -15.2876 	 65.0736
| 33> H 	 7.69823 	 -14.6844 	 65.8034
| 34> H 	 7.79545 	 -16.1762 	 64.8835
| 35> C 	 5.76791 	 -15.6402 	 65.5362
| 36> H 	 5.25771 	 -16.1512 	 64.7922
| 37> H 	 5.16732 	 -14.7951 	 65.6862
| 38> H 	 5.73423 	 -16.2281 	 66.4731
| 39> H 	 6.15905 	 -8.25609 	 66.0585
| 40> H 	 11.6111 	 -13.173 	 62.5483
| 41> *
| 42>
| 43>                          ****END OF INPUT****

CARTESIAN COORDINATES (ANGSTROEM)
---------------------------------
  S      7.798050   -9.505160   64.650800
  C      6.495130   -9.261610   65.792500
  C      5.927280  -10.438700   66.168900
  C      6.539930  -11.592600   65.562200
  C      7.632450  -11.238000   64.801100
  H      6.252140  -12.647200   65.743400
  C      4.772420  -10.358300   67.130000
  H      3.889860   -9.869090   66.605800
  H      5.016140   -9.553620   67.853400
  C      4.249300  -11.786700   67.761800
  H      3.349760  -11.533800   68.295900
  H      3.918060  -12.565300   67.100100
  C      5.178810  -12.489700   68.803100
  H      6.093400  -12.751500   68.327400
  H      5.381920  -11.858700   69.547700
  H      4.765950  -13.382100   69.176500
  S     10.149700  -11.547900   63.865600
  C     10.685500  -13.013800   63.098300
  C      9.694410  -13.947100   63.075500
  C      8.488200  -13.514800   63.707700
  C      8.548660  -12.184600   64.165300
  H      9.893090  -14.902700   62.581500
  C      7.260960  -14.389800   63.810500
  H      7.342810  -15.126900   62.878700
  H      6.434830  -13.677400   63.791400
  C      7.245300  -15.287600   65.073600
  H      7.698230  -14.684400   65.803400
  H      7.795450  -16.176200   64.883500
  C      5.767910  -15.640200   65.536200
  H      5.257710  -16.151200   64.792200
  H      5.167320  -14.795100   65.686200
  H      5.734230  -16.228100   66.473100
  H      6.159050   -8.256090   66.058500
  H     11.611100  -13.173000   62.548300

 Total Charge           Charge          ....    0
 Multiplicity           Mult            ....    1
 Number of Electrons    NEL             ....  134
 Basis Dimension        Dim             ....  322

ORBITAL ENERGIES
----------------

  NO   OCC          E(Eh)            E(eV)
   0   2.0000     -88.967841     -2420.9380
   1   2.0000     -88.963034     -2420.8072
   2   2.0000     -10.333767      -281.1961
   3   2.0000     -10.329192      -281.0716
   4   2.0000     -10.313248      -280.6377
   5   2.0000     -10.310377      -280.5596
   6   2.0000     -10.308132      -280.4985
   7   2.0000     -10.304311      -280.3946
   8   2.0000     -10.301210      -280.3102
   9   2.0000     -10.300119      -280.2805
  10   2.0000     -10.299860      -280.2734
  11   2.0000     -10.294125      -280.1174
  12   2.0000     -10.292268      -280.0669
  13   2.0000     -10.285545      -279.8839
  14   2.0000     -10.275542      -279.6117
  15   2.0000     -10.262115      -279.2463
  16   2.0000      -8.082616      -219.9392
  17   2.0000      -8.078088      -219.8159
  18   2.0000      -6.041181      -164.3889
  19   2.0000      -6.037178      -164.2800
  20   2.0000      -6.036604      -164.2644
  21   2.0000      -6.033251      -164.1731
  22   2.0000      -6.032486      -164.1523
  23   2.0000      -6.028892      -164.0545
  24   2.0000      -1.009923       -27.4814
  25   2.0000      -0.986715       -26.8499
  26   2.0000      -0.907745       -24.7010
  27   2.0000      -0.901936       -24.5429
  28   2.0000      -0.872008       -23.7285
  29   2.0000      -0.851500       -23.1705
  30   2.0000      -0.845396       -23.0044
  31   2.0000      -0.822949       -22.3936
  32   2.0000      -0.781930       -21.2774
  33   2.0000      -0.770881       -20.9768
  34   2.0000      -0.718428       -19.5494
  35   2.0000      -0.704218       -19.1627
  36   2.0000      -0.693515       -18.8715
  37   2.0000      -0.661575       -18.0024
  38   2.0000      -0.637866       -17.3572
  39   2.0000      -0.624966       -17.0062
  40   2.0000      -0.586909       -15.9706
  41   2.0000      -0.571526       -15.5520
  42   2.0000      -0.565643       -15.3919
  43   2.0000      -0.543888       -14.7999
  44   2.0000      -0.533080       -14.5059
  45   2.0000      -0.523619       -14.2484
  46   2.0000      -0.520762       -14.1707
  47   2.0000      -0.514412       -13.9979
  48   2.0000      -0.507773       -13.8172
  49   2.0000      -0.502482       -13.6732
  50   2.0000      -0.490078       -13.3357
  51   2.0000      -0.483959       -13.1692
  52   2.0000      -0.480638       -13.0788
  53   2.0000      -0.464113       -12.6292
  54   2.0000      -0.460872       -12.5410
  55   2.0000      -0.450290       -12.2530
  56   2.0000      -0.447273       -12.1709
  57   2.0000      -0.443142       -12.0585
  58   2.0000      -0.433485       -11.7957
  59   2.0000      -0.432079       -11.7575
  60   2.0000      -0.427344       -11.6286
  61   2.0000      -0.414024       -11.2662
  62   2.0000      -0.408750       -11.1227
  63   2.0000      -0.360316        -9.8047
  64   2.0000      -0.332782        -9.0555
  65   2.0000      -0.327164        -8.9026
  66   2.0000      -0.283975        -7.7274
  67   0.0000       0.022065         0.6004
  68   0.0000       0.081689         2.2229
  69   0.0000       0.107535         2.9262
  70   0.0000       0.120952         3.2913
  71   0.0000       0.124032         3.3751

MULLIKEN ATOMIC CHARGES
-----------------------
   0 S :    0.116703
   1 C :   -0.145160
   2 C :   -0.039412
   3 C :   -0.015564
   4 C :   -0.089373
   5 H :    0.001957
   6 C :    0.004851
   7 H :    0.051579
   8 H :    0.039883
   9 C :   -0.082872
  10 H :    0.021036
  11 H :    0.029785
  12 C :    0.023012
  13 H :    0.016732
  14 H :    0.003661
  15 H :    0.020966
  16 S :    0.089249
  17 C :   -0.082842
  18 C :   -0.042906
  19 C :   -0.060757
  20 C :   -0.142649
  21 H :    0.021921
  22 C :   -0.000677
  23 H :    0.043690
  24 H :    0.034127
  25 C :   -0.021231
  26 H :    0.027312
  27 H :    0.027679
  28 C :   -0.026431
  29 H :    0.015151
  30 H :    0.008378
  31 H :    0.041983
  32 H :    0.051865
  33 H :    0.058352
Sum of atomic charges:   -0.0000000

LOEWDIN ATOMIC CHARGES
----------------------
   0 S :    0.403782
   1 C :   -0.199126
   2 C :   -0.066067
   3 C :   -0.072961
   4 C :   -0.187224
   5 H :    0.035096
   6 C :   -0.037272
   7 H :    0.042981
   8 H :    0.037959
   9 C :   -0.037407
  10 H :    0.022556
  11 H :    0.021189
  12 C :   -0.046281
  13 H :    0.020705
  14 H :    0.007619
  15 H :    0.022715
  16 S :    0.406188
  17 C :   -0.191558
  18 C :   -0.076833
  19 C :   -0.063140
  20 C :   -0.192799
  21 H :    0.035561
  22 C :   -0.037989
  23 H :    0.043301
  24 H :    0.028119
  25 C :   -0.026475
  26 H :    0.016339
  27 H :    0.022543
  28 C :   -0.058560
  29 H :    0.017089
  30 H :    0.013202
  31 H :    0.032080
  32 H :    0.030186
  33 H :    0.034482

  Mayer bond orders larger than 0.100000
B(  0-S ,  1-C ) :   1.1183 B(  0-S ,  4-C ) :   1.1533 B(  1-C ,  2-C ) :   1.6216
B(  1-C , 32-H ) :   0.9729 B(  2-C ,  3-C ) :   1.2393 B(  2-C ,  6-C ) :   1.0067
B(  3-C ,  4-C ) :   1.5523 B(  3-C ,  5-H ) :   0.9873 B(  4-C , 20-C ) :   1.0734
B(  6-C ,  7-H ) :   0.9421 B(  6-C ,  8-H ) :   0.9484 B(  6-C ,  9-C ) :   1.0531
B(  9-C , 10-H ) :   0.9562 B(  9-C , 11-H ) :   0.9617 B(  9-C , 12-C ) :   1.0776
B( 12-C , 13-H ) :   0.9764 B( 12-C , 14-H ) :   0.9741 B( 12-C , 15-H ) :   0.9722
B( 16-S , 17-C ) :   1.1524 B( 16-S , 20-C ) :   1.1398 B( 17-C , 18-C ) :   1.6214
B( 17-C , 33-H ) :   0.9627 B( 18-C , 19-C ) :   1.2511 B( 18-C , 21-H ) :   0.9877
B( 19-C , 20-C ) :   1.5598 B( 19-C , 22-C ) :   1.0478 B( 22-C , 23-H ) :   0.9336
B( 22-C , 24-H ) :   0.9398 B( 22-C , 25-C ) :   1.0478 B( 25-C , 26-H ) :   0.9616
B( 25-C , 27-H ) :   0.9543 B( 25-C , 28-C ) :   1.0765 B( 28-C , 29-H ) :   0.9695
B( 28-C , 30-H ) :   0.9762 B( 28-C , 31-H ) :   0.9745

Dispersion correction           -0.015189597
FINAL SINGLE POINT ENERGY     -1339.862820753491

DIPOLE MOMENT
-------------
                                X             Y             Z
Electronic contribution:     20.92456      18.83144     -15.20259
Nuclear contribution   :    -21.40662     -19.23697      15.41361
                        -----------------------------------------
Total Dipole Moment    :     -0.48206      -0.40554       0.21102
                        -----------------------------------------
Magnitude (a.u.)       :      0.66435
Magnitude (Debye)      :      1.68866

Rotational constants in cm-1:     0.017126     0.010735     0.007084
Rotational constants in MHz :   513.414147   321.825069   212.363836

                             ****ORCA TERMINATED NORMALLY****
TOTAL RUN TIME: 0 days 0 hours 0 minutes 34 seconds 250 msec
