                         Program Version 4.2.1 -  RELEASE  -
|  1> ! wB97X-D3 SP def2-SVP
|  2> %pal
|  3> nprocs 16
|  4> end
|  5>
|  6> * xyz 0 1
|  7> S 	 7.78478 	 -4.31495 	 99.6925
|  8> C 	 7.00472 	 -4.252 	 98.1129
|  9> C 	 6.55906 	 -5.49569 	 97.7137
| 10> C 	 6.75946 	 -6.48258 	 98.7201
| 11> C 	 7.5079 	 -6.02844 	 99.793
| 12> H 	 6.47982 	 -7.52407 	 98.5398
| 13> C 	 6.00654 	 -5.8086 	 96.3449
| 14> H 	 5.57719 	 -6.75684 	 96.3707
| 15> H 	 6.8614 	 -5.78425 	 95.6232
| 16> C 	 4.89404 	 -4.7369 	 95.9846
| 17> H 	 4.31092 	 -4.53706 	 96.8906
| 18> H 	 5.41396 	 -3.82238 	 95.7993
| 19> C 	 3.97021 	 -5.19157 	 94.8644
| 20> H 	 4.60556 	 -5.25998 	 93.9996
| 21> H 	 3.46118 	 -6.17446 	 95.1077
| 22> H 	 3.19502 	 -4.49084 	 94.6704
| 23> S 	 7.63984 	 -6.7986 	 102.367
| 24> C 	 8.79621 	 -8.06043 	 102.821
| 25> C 	 9.47576 	 -8.62281 	 101.713
| 26> C 	 9.14466 	 -7.88027 	 100.568
| 27> C 	 8.21643 	 -6.87955 	 100.73
| 28> H 	 10.1529 	 -9.55052 	 101.779
| 29> C 	 9.89429 	 -8.01675 	 99.1991
| 30> H 	 9.1879 	 -8.05188 	 98.3708
| 31> H 	 10.3875 	 -8.95705 	 99.0257
| 32> C 	 10.8456 	 -6.79545 	 98.8114
| 33> H 	 11.4384 	 -6.71649 	 99.7118
| 34> H 	 10.2867 	 -5.85284 	 98.5832
| 35> C 	 11.6694 	 -6.9841 	 97.514
| 36> H 	 12.525 	 -7.59822 	 97.6843
| 37> H 	 11.961 	 -6.04535 	 97.0428
| 38> H 	 11.0235 	 -7.54964 	 96.8145
| 39> H 	 6.96547 	 -3.31577 	 97.5654
| 40> H 	 8.83013 	 -8.48683 	 103.844
| 41> *
| 42>
| 43>                          ****END OF INPUT****

CARTESIAN COORDINATES (ANGSTROEM)
---------------------------------
  S      7.784780   -4.314950   99.692500
  C      7.004720   -4.252000   98.112900
  C      6.559060   -5.495690   97.713700
  C      6.759460   -6.482580   98.720100
  C      7.507900   -6.028440   99.793000
  H      6.479820   -7.524070   98.539800
  C      6.006540   -5.808600   96.344900
  H      5.577190   -6.756840   96.370700
  H      6.861400   -5.784250   95.623200
  C      4.894040   -4.736900   95.984600
  H      4.310920   -4.537060   96.890600
  H      5.413960   -3.822380   95.799300
  C      3.970210   -5.191570   94.864400
  H      4.605560   -5.259980   93.999600
  H      3.461180   -6.174460   95.107700
  H      3.195020   -4.490840   94.670400
  S      7.639840   -6.798600  102.367000
  C      8.796210   -8.060430  102.821000
  C      9.475760   -8.622810  101.713000
  C      9.144660   -7.880270  100.568000
  C      8.216430   -6.879550  100.730000
  H     10.152900   -9.550520  101.779000
  C      9.894290   -8.016750   99.199100
  H      9.187900   -8.051880   98.370800
  H     10.387500   -8.957050   99.025700
  C     10.845600   -6.795450   98.811400
  H     11.438400   -6.716490   99.711800
  H     10.286700   -5.852840   98.583200
  C     11.669400   -6.984100   97.514000
  H     12.525000   -7.598220   97.684300
  H     11.961000   -6.045350   97.042800
  H     11.023500   -7.549640   96.814500
  H      6.965470   -3.315770   97.565400
  H      8.830130   -8.486830  103.844000

 Total Charge           Charge          ....    0
 Multiplicity           Mult            ....    1
 Number of Electrons    NEL             ....  134
 Basis Dimension        Dim             ....  322

ORBITAL ENERGIES
----------------

  NO   OCC          E(Eh)            E(eV)
   0   2.0000     -88.966819     -2420.9102
   1   2.0000     -88.966189     -2420.8931
   2   2.0000     -10.326129      -280.9882
   3   2.0000     -10.324404      -280.9413
   4   2.0000     -10.320313      -280.8300
   5   2.0000     -10.313409      -280.6421
   6   2.0000     -10.305526      -280.4276
   7   2.0000     -10.304348      -280.3956
   8   2.0000     -10.298763      -280.2436
   9   2.0000     -10.294178      -280.1188
  10   2.0000     -10.293125      -280.0902
  11   2.0000     -10.289969      -280.0043
  12   2.0000     -10.286471      -279.9091
  13   2.0000     -10.283879      -279.8386
  14   2.0000     -10.279324      -279.7146
  15   2.0000     -10.274734      -279.5897
  16   2.0000      -8.081512      -219.9091
  17   2.0000      -8.080737      -219.8880
  18   2.0000      -6.039855      -164.3528
  19   2.0000      -6.039154      -164.3337
  20   2.0000      -6.035997      -164.2478
  21   2.0000      -6.035238      -164.2272
  22   2.0000      -6.032479      -164.1521
  23   2.0000      -6.031624      -164.1288
  24   2.0000      -1.007470       -27.4147
  25   2.0000      -0.983382       -26.7592
  26   2.0000      -0.911296       -24.7976
  27   2.0000      -0.892748       -24.2929
  28   2.0000      -0.866803       -23.5869
  29   2.0000      -0.850516       -23.1437
  30   2.0000      -0.846673       -23.0391
  31   2.0000      -0.809859       -22.0374
  32   2.0000      -0.779920       -21.2227
  33   2.0000      -0.766315       -20.8525
  34   2.0000      -0.709654       -19.3107
  35   2.0000      -0.695061       -18.9136
  36   2.0000      -0.684459       -18.6251
  37   2.0000      -0.662342       -18.0232
  38   2.0000      -0.641791       -17.4640
  39   2.0000      -0.615074       -16.7370
  40   2.0000      -0.591361       -16.0918
  41   2.0000      -0.570990       -15.5374
  42   2.0000      -0.562792       -15.3144
  43   2.0000      -0.556990       -15.1565
  44   2.0000      -0.528226       -14.3737
  45   2.0000      -0.518337       -14.1047
  46   2.0000      -0.514408       -13.9978
  47   2.0000      -0.508462       -13.8360
  48   2.0000      -0.504192       -13.7198
  49   2.0000      -0.496884       -13.5209
  50   2.0000      -0.489894       -13.3307
  51   2.0000      -0.477024       -12.9805
  52   2.0000      -0.474208       -12.9039
  53   2.0000      -0.461583       -12.5603
  54   2.0000      -0.456563       -12.4237
  55   2.0000      -0.450541       -12.2598
  56   2.0000      -0.445606       -12.1256
  57   2.0000      -0.432826       -11.7778
  58   2.0000      -0.429270       -11.6810
  59   2.0000      -0.427828       -11.6418
  60   2.0000      -0.419178       -11.4064
  61   2.0000      -0.413547       -11.2532
  62   2.0000      -0.409503       -11.1431
  63   2.0000      -0.338165        -9.2020
  64   2.0000      -0.331429        -9.0186
  65   2.0000      -0.324566        -8.8319
  66   2.0000      -0.298413        -8.1202
  67   0.0000       0.034131         0.9288
  68   0.0000       0.056320         1.5325
  69   0.0000       0.111482         3.0336
  70   0.0000       0.119739         3.2583
  71   0.0000       0.132937         3.6174

MULLIKEN ATOMIC CHARGES
-----------------------
   0 S :    0.116979
   1 C :   -0.145014
   2 C :   -0.126496
   3 C :    0.064818
   4 C :   -0.164742
   5 H :    0.018306
   6 C :    0.113760
   7 H :   -0.004127
   8 H :    0.053745
   9 C :   -0.121400
  10 H :    0.037274
  11 H :    0.025413
  12 C :   -0.019904
  13 H :    0.026976
  14 H :    0.041724
  15 H :    0.030049
  16 S :    0.114861
  17 C :   -0.116582
  18 C :   -0.064506
  19 C :   -0.011545
  20 C :   -0.163796
  21 H :    0.058880
  22 C :    0.060961
  23 H :    0.008125
  24 H :    0.008262
  25 C :   -0.088806
  26 H :    0.033697
  27 H :    0.046121
  28 C :   -0.046512
  29 H :    0.026017
  30 H :    0.041151
  31 H :    0.022861
  32 H :    0.053407
  33 H :    0.070042
Sum of atomic charges:    0.0000000

LOEWDIN ATOMIC CHARGES
----------------------
   0 S :    0.412835
   1 C :   -0.196957
   2 C :   -0.063893
   3 C :   -0.055711
   4 C :   -0.207160
   5 H :    0.034178
   6 C :   -0.021221
   7 H :    0.016121
   8 H :    0.040638
   9 C :   -0.037911
  10 H :    0.025076
  11 H :    0.016962
  12 C :   -0.063496
  13 H :    0.023669
  14 H :    0.033401
  15 H :    0.021921
  16 S :    0.414848
  17 C :   -0.184561
  18 C :   -0.079681
  19 C :   -0.057776
  20 C :   -0.206572
  21 H :    0.052921
  22 C :   -0.034505
  23 H :    0.023406
  24 H :    0.021666
  25 C :   -0.039669
  26 H :    0.019370
  27 H :    0.028223
  28 C :   -0.065938
  29 H :    0.018663
  30 H :    0.028176
  31 H :    0.026072
  32 H :    0.025370
  33 H :    0.031535

  Mayer bond orders larger than 0.100000
B(  0-S ,  1-C ) :   1.1370 B(  0-S ,  4-C ) :   1.1690 B(  1-C ,  2-C ) :   1.5865
B(  1-C , 32-H ) :   0.9753 B(  2-C ,  3-C ) :   1.2673 B(  2-C ,  6-C ) :   1.0236
B(  3-C ,  4-C ) :   1.5555 B(  3-C ,  5-H ) :   0.9918 B(  4-C , 20-C ) :   1.0000
B(  6-C ,  7-H ) :   0.9384 B(  6-C ,  8-H ) :   0.9341 B(  6-C ,  9-C ) :   1.0510
B(  9-C , 10-H ) :   0.9656 B(  9-C , 11-H ) :   0.9530 B(  9-C , 12-C ) :   1.0887
B( 12-C , 13-H ) :   0.9724 B( 12-C , 14-H ) :   0.9742 B( 12-C , 15-H ) :   0.9732
B( 16-S , 17-C ) :   1.1761 B( 16-S , 20-C ) :   1.1553 B( 17-C , 18-C ) :   1.5758
B( 17-C , 20-C ) :   0.1110 B( 17-C , 33-H ) :   0.9631 B( 18-C , 19-C ) :   1.2660
B( 18-C , 21-H ) :   0.9791 B( 19-C , 20-C ) :   1.5981 B( 19-C , 22-C ) :   1.0418
B( 22-C , 23-H ) :   0.9260 B( 22-C , 24-H ) :   0.9457 B( 22-C , 25-C ) :   1.0476
B( 25-C , 26-H ) :   0.9643 B( 25-C , 27-H ) :   0.9568 B( 25-C , 28-C ) :   1.0722
B( 28-C , 29-H ) :   0.9765 B( 28-C , 30-H ) :   0.9780 B( 28-C , 31-H ) :   0.9741

Dispersion correction           -0.014765437
FINAL SINGLE POINT ENERGY     -1339.873116747206

DIPOLE MOMENT
-------------
                                X             Y             Z
Electronic contribution:     -1.10527       3.16574      27.12703
Nuclear contribution   :      1.10668      -3.47188     -27.74659
                        -----------------------------------------
Total Dipole Moment    :      0.00141      -0.30614      -0.61956
                        -----------------------------------------
Magnitude (a.u.)       :      0.69107
Magnitude (Debye)      :      1.75655

Rotational constants in cm-1:     0.020081     0.008052     0.006841
Rotational constants in MHz :   601.999033   241.392000   205.102513

                             ****ORCA TERMINATED NORMALLY****
TOTAL RUN TIME: 0 days 0 hours 0 minutes 34 seconds 195 msec
