                         Program Version 4.2.1 -  RELEASE  -
|  1> ! wB97X-D3 SP def2-SVP
|  2> %pal
|  3> nprocs 16
|  4> end
|  5>
|  6> * xyz 0 1
|  7> S 	 1.57885 	 -13.3334 	 73.6567
|  8> C 	 1.14438 	 -14.0672 	 72.1417
|  9> C 	 0.536566 	 -15.2907 	 72.4
| 10> C 	 0.225092 	 -15.4229 	 73.8111
| 11> C 	 0.553878 	 -14.3862 	 74.6312
| 12> H 	 -0.41566 	 -16.218 	 74.114
| 13> C 	 0.117552 	 -16.3542 	 71.4223
| 14> H 	 -0.0741242 	 -17.3309 	 71.9715
| 15> H 	 0.989598 	 -16.4698 	 70.8195
| 16> C 	 -1.13499 	 -16.0052 	 70.4999
| 17> H 	 -2.08336 	 -16.1251 	 71.0755
| 18> H 	 -1.03179 	 -14.9888 	 70.2047
| 19> C 	 -1.17869 	 -16.9836 	 69.3002
| 20> H 	 -1.6041 	 -17.944 	 69.5789
| 21> H 	 -1.81504 	 -16.4324 	 68.6162
| 22> H 	 -0.20245 	 -17.1141 	 68.8196
| 23> S 	 -1.41339 	 -14.3811 	 76.5351
| 24> C 	 -1.13976 	 -13.7148 	 78.1024
| 25> C 	 0.180189 	 -13.4762 	 78.2015
| 26> C 	 1.04351 	 -13.6691 	 77.0663
| 27> C 	 0.274493 	 -14.1627 	 76.0221
| 28> H 	 0.488218 	 -13.2132 	 79.1575
| 29> C 	 2.52969 	 -13.3922 	 76.8897
| 30> H 	 2.47218 	 -12.3659 	 76.4869
| 31> H 	 3.00155 	 -13.9972 	 76.0722
| 32> C 	 3.41673 	 -13.2468 	 78.0461
| 33> H 	 3.36859 	 -14.2048 	 78.5881
| 34> H 	 3.1088 	 -12.5053 	 78.6966
| 35> C 	 4.82152 	 -12.9497 	 77.6369
| 36> H 	 4.86393 	 -12.0853 	 76.9268
| 37> H 	 5.31181 	 -13.7317 	 77.0917
| 38> H 	 5.46292 	 -12.6499 	 78.4442
| 39> H 	 1.66897 	 -13.93 	 71.2266
| 40> H 	 -1.8288 	 -13.5443 	 78.9537
| 41> *
| 42>
| 43>                          ****END OF INPUT****

CARTESIAN COORDINATES (ANGSTROEM)
---------------------------------
  S      1.578850  -13.333400   73.656700
  C      1.144380  -14.067200   72.141700
  C      0.536566  -15.290700   72.400000
  C      0.225092  -15.422900   73.811100
  C      0.553878  -14.386200   74.631200
  H     -0.415660  -16.218000   74.114000
  C      0.117552  -16.354200   71.422300
  H     -0.074124  -17.330900   71.971500
  H      0.989598  -16.469800   70.819500
  C     -1.134990  -16.005200   70.499900
  H     -2.083360  -16.125100   71.075500
  H     -1.031790  -14.988800   70.204700
  C     -1.178690  -16.983600   69.300200
  H     -1.604100  -17.944000   69.578900
  H     -1.815040  -16.432400   68.616200
  H     -0.202450  -17.114100   68.819600
  S     -1.413390  -14.381100   76.535100
  C     -1.139760  -13.714800   78.102400
  C      0.180189  -13.476200   78.201500
  C      1.043510  -13.669100   77.066300
  C      0.274493  -14.162700   76.022100
  H      0.488218  -13.213200   79.157500
  C      2.529690  -13.392200   76.889700
  H      2.472180  -12.365900   76.486900
  H      3.001550  -13.997200   76.072200
  C      3.416730  -13.246800   78.046100
  H      3.368590  -14.204800   78.588100
  H      3.108800  -12.505300   78.696600
  C      4.821520  -12.949700   77.636900
  H      4.863930  -12.085300   76.926800
  H      5.311810  -13.731700   77.091700
  H      5.462920  -12.649900   78.444200
  H      1.668970  -13.930000   71.226600
  H     -1.828800  -13.544300   78.953700

 Total Charge           Charge          ....    0
 Multiplicity           Mult            ....    1
 Number of Electrons    NEL             ....  134
 Basis Dimension        Dim             ....  322

ORBITAL ENERGIES
----------------

  NO   OCC          E(Eh)            E(eV)
   0   2.0000     -88.962242     -2420.7857
   1   2.0000     -88.961364     -2420.7618
   2   2.0000     -10.328988      -281.0661
   3   2.0000     -10.326549      -280.9997
   4   2.0000     -10.315781      -280.7067
   5   2.0000     -10.309593      -280.5383
   6   2.0000     -10.308834      -280.5176
   7   2.0000     -10.300096      -280.2799
   8   2.0000     -10.294405      -280.1250
   9   2.0000     -10.293287      -280.0946
  10   2.0000     -10.291178      -280.0372
  11   2.0000     -10.287261      -279.9306
  12   2.0000     -10.286404      -279.9073
  13   2.0000     -10.279315      -279.7144
  14   2.0000     -10.276685      -279.6428
  15   2.0000     -10.274538      -279.5844
  16   2.0000      -8.077056      -219.7879
  17   2.0000      -8.075812      -219.7540
  18   2.0000      -6.035721      -164.2403
  19   2.0000      -6.034529      -164.2079
  20   2.0000      -6.031476      -164.1248
  21   2.0000      -6.030292      -164.0926
  22   2.0000      -6.027703      -164.0221
  23   2.0000      -6.026421      -163.9873
  24   2.0000      -1.009013       -27.4566
  25   2.0000      -0.986697       -26.8494
  26   2.0000      -0.925063       -25.1723
  27   2.0000      -0.906121       -24.6568
  28   2.0000      -0.875661       -23.8279
  29   2.0000      -0.853877       -23.2352
  30   2.0000      -0.844544       -22.9812
  31   2.0000      -0.817666       -22.2498
  32   2.0000      -0.783709       -21.3258
  33   2.0000      -0.769939       -20.9511
  34   2.0000      -0.711651       -19.3650
  35   2.0000      -0.704302       -19.1650
  36   2.0000      -0.699721       -19.0404
  37   2.0000      -0.655292       -17.8314
  38   2.0000      -0.633417       -17.2362
  39   2.0000      -0.620895       -16.8954
  40   2.0000      -0.602571       -16.3968
  41   2.0000      -0.581266       -15.8171
  42   2.0000      -0.572006       -15.5651
  43   2.0000      -0.559802       -15.2330
  44   2.0000      -0.534447       -14.5430
  45   2.0000      -0.526833       -14.3359
  46   2.0000      -0.520529       -14.1643
  47   2.0000      -0.510410       -13.8890
  48   2.0000      -0.506485       -13.7822
  49   2.0000      -0.501110       -13.6359
  50   2.0000      -0.491169       -13.3654
  51   2.0000      -0.479736       -13.0543
  52   2.0000      -0.476494       -12.9660
  53   2.0000      -0.466971       -12.7069
  54   2.0000      -0.457390       -12.4462
  55   2.0000      -0.449864       -12.2414
  56   2.0000      -0.447162       -12.1679
  57   2.0000      -0.439294       -11.9538
  58   2.0000      -0.436428       -11.8758
  59   2.0000      -0.421671       -11.4742
  60   2.0000      -0.414402       -11.2765
  61   2.0000      -0.413383       -11.2487
  62   2.0000      -0.408184       -11.1073
  63   2.0000      -0.355303        -9.6683
  64   2.0000      -0.326791        -8.8924
  65   2.0000      -0.320997        -8.7348
  66   2.0000      -0.291258        -7.9255
  67   0.0000       0.026076         0.7096
  68   0.0000       0.071730         1.9519
  69   0.0000       0.105445         2.8693
  70   0.0000       0.129195         3.5156
  71   0.0000       0.131118         3.5679

MULLIKEN ATOMIC CHARGES
-----------------------
   0 S :    0.083895
   1 C :   -0.084489
   2 C :   -0.126086
   3 C :    0.033748
   4 C :   -0.131412
   5 H :   -0.003666
   6 C :    0.032412
   7 H :    0.037553
   8 H :    0.019777
   9 C :   -0.076589
  10 H :    0.041969
  11 H :    0.027677
  12 C :   -0.041705
  13 H :    0.041115
  14 H :    0.034081
  15 H :    0.032133
  16 S :    0.100837
  17 C :   -0.084052
  18 C :   -0.041858
  19 C :    0.012546
  20 C :   -0.160029
  21 H :   -0.015897
  22 C :    0.002994
  23 H :    0.040467
  24 H :    0.047507
  25 C :   -0.018381
  26 H :    0.027779
  27 H :    0.013986
  28 C :   -0.037270
  29 H :    0.019660
  30 H :    0.026384
  31 H :    0.028816
  32 H :    0.045937
  33 H :    0.070163
Sum of atomic charges:    0.0000000

LOEWDIN ATOMIC CHARGES
----------------------
   0 S :    0.404815
   1 C :   -0.206726
   2 C :   -0.060470
   3 C :   -0.067466
   4 C :   -0.184577
   5 H :    0.021554
   6 C :   -0.038064
   7 H :    0.037352
   8 H :    0.024648
   9 C :   -0.029932
  10 H :    0.031414
  11 H :    0.017569
  12 C :   -0.063942
  13 H :    0.026005
  14 H :    0.028688
  15 H :    0.024169
  16 S :    0.404429
  17 C :   -0.196618
  18 C :   -0.075257
  19 C :   -0.047338
  20 C :   -0.187582
  21 H :    0.015919
  22 C :   -0.043898
  23 H :    0.039818
  24 H :    0.034775
  25 C :   -0.042247
  26 H :    0.027514
  27 H :    0.017198
  28 C :   -0.060041
  29 H :    0.028633
  30 H :    0.022874
  31 H :    0.025248
  32 H :    0.024522
  33 H :    0.047015

  Mayer bond orders larger than 0.100000
B(  0-S ,  1-C ) :   1.1364 B(  0-S ,  4-C ) :   1.1275 B(  1-C ,  2-C ) :   1.6023
B(  1-C , 32-H ) :   0.9643 B(  2-C ,  3-C ) :   1.2545 B(  2-C ,  6-C ) :   1.0276
B(  3-C ,  4-C ) :   1.5639 B(  3-C ,  5-H ) :   0.9958 B(  4-C , 20-C ) :   1.0623
B(  6-C ,  7-H ) :   0.9463 B(  6-C ,  8-H ) :   0.9377 B(  6-C ,  9-C ) :   1.0558
B(  9-C , 10-H ) :   0.9564 B(  9-C , 11-H ) :   0.9637 B(  9-C , 12-C ) :   1.0708
B( 12-C , 13-H ) :   0.9779 B( 12-C , 14-H ) :   0.9756 B( 12-C , 15-H ) :   0.9777
B( 16-S , 17-C ) :   1.1401 B( 16-S , 20-C ) :   1.1379 B( 17-C , 18-C ) :   1.6310
B( 17-C , 33-H ) :   0.9599 B( 18-C , 19-C ) :   1.2188 B( 18-C , 21-H ) :   0.9957
B( 19-C , 20-C ) :   1.5760 B( 19-C , 22-C ) :   1.0235 B( 22-C , 23-H ) :   0.9158
B( 22-C , 24-H ) :   0.9392 B( 22-C , 25-C ) :   1.0882 B( 25-C , 26-H ) :   0.9498
B( 25-C , 27-H ) :   0.9380 B( 25-C , 28-C ) :   1.0982 B( 28-C , 29-H ) :   0.9688
B( 28-C , 30-H ) :   0.9726 B( 28-C , 31-H ) :   0.9707

Dispersion correction           -0.013306212
FINAL SINGLE POINT ENERGY     -1339.862744000411

DIPOLE MOMENT
-------------
                                X             Y             Z
Electronic contribution:     -9.11419       5.88327       8.82154
Nuclear contribution   :      9.31671      -6.06064      -8.77963
                        -----------------------------------------
Total Dipole Moment    :      0.20252      -0.17737       0.04192
                        -----------------------------------------
Magnitude (a.u.)       :      0.27245
Magnitude (Debye)      :      0.69252

Rotational constants in cm-1:     0.022813     0.007093     0.005712
Rotational constants in MHz :   683.912986   212.630479   171.238168

                             ****ORCA TERMINATED NORMALLY****
TOTAL RUN TIME: 0 days 0 hours 0 minutes 31 seconds 576 msec
