                         Program Version 4.2.1 -  RELEASE  -
|  1> ! wB97X-D3 SP def2-SVP
|  2> %pal
|  3> nprocs 16
|  4> end
|  5>
|  6> * xyz 0 1
|  7> S 	 53.3791 	 -1.44556 	 88.2207
|  8> C 	 54.1085 	 -1.72816 	 89.7876
|  9> C 	 53.4209 	 -1.0292 	 90.7543
| 10> C 	 52.5795 	 -0.0271449 	 90.1774
| 11> C 	 52.5023 	 -0.103596 	 88.7953
| 12> H 	 52.0418 	 0.659981 	 90.7844
| 13> C 	 53.8214 	 -1.05777 	 92.2709
| 14> H 	 54.8363 	 -1.4222 	 92.2304
| 15> H 	 53.1335 	 -1.79759 	 92.7431
| 16> C 	 53.795 	 0.310031 	 93.0608
| 17> H 	 54.228 	 1.00998 	 92.3282
| 18> H 	 52.77 	 0.623809 	 93.3235
| 19> C 	 54.6233 	 0.373717 	 94.338
| 20> H 	 54.1302 	 -0.0742627 	 95.2502
| 21> H 	 55.6731 	 0.0739723 	 94.2679
| 22> H 	 54.7955 	 1.46716 	 94.6286
| 23> S 	 51.0598 	 0.0745614 	 86.3623
| 24> C 	 50.2029 	 1.49534 	 85.9219
| 25> C 	 50.4096 	 2.47825 	 86.9036
| 26> C 	 51.2926 	 2.09901 	 87.9697
| 27> C 	 51.6324 	 0.718745 	 87.9453
| 28> H 	 49.9836 	 3.4559 	 86.7363
| 29> C 	 51.6148 	 3.06082 	 89.0289
| 30> H 	 51.2908 	 2.6465 	 90.0094
| 31> H 	 51.0186 	 3.92882 	 88.9396
| 32> C 	 53.1001 	 3.52518 	 89.1274
| 33> H 	 53.1933 	 4.10308 	 88.2124
| 34> H 	 53.8308 	 2.75324 	 88.9771
| 35> C 	 53.3383 	 4.33868 	 90.3223
| 36> H 	 54.3404 	 4.79831 	 90.1511
| 37> H 	 53.2894 	 3.79676 	 91.2451
| 38> H 	 52.5484 	 5.06208 	 90.4945
| 39> H 	 54.7224 	 -2.55856 	 89.9987
| 40> H 	 49.7367 	 1.69954 	 84.971
| 41> *
| 42>
| 43>                          ****END OF INPUT****

CARTESIAN COORDINATES (ANGSTROEM)
---------------------------------
  S     53.379100   -1.445560   88.220700
  C     54.108500   -1.728160   89.787600
  C     53.420900   -1.029200   90.754300
  C     52.579500   -0.027145   90.177400
  C     52.502300   -0.103596   88.795300
  H     52.041800    0.659981   90.784400
  C     53.821400   -1.057770   92.270900
  H     54.836300   -1.422200   92.230400
  H     53.133500   -1.797590   92.743100
  C     53.795000    0.310031   93.060800
  H     54.228000    1.009980   92.328200
  H     52.770000    0.623809   93.323500
  C     54.623300    0.373717   94.338000
  H     54.130200   -0.074263   95.250200
  H     55.673100    0.073972   94.267900
  H     54.795500    1.467160   94.628600
  S     51.059800    0.074561   86.362300
  C     50.202900    1.495340   85.921900
  C     50.409600    2.478250   86.903600
  C     51.292600    2.099010   87.969700
  C     51.632400    0.718745   87.945300
  H     49.983600    3.455900   86.736300
  C     51.614800    3.060820   89.028900
  H     51.290800    2.646500   90.009400
  H     51.018600    3.928820   88.939600
  C     53.100100    3.525180   89.127400
  H     53.193300    4.103080   88.212400
  H     53.830800    2.753240   88.977100
  C     53.338300    4.338680   90.322300
  H     54.340400    4.798310   90.151100
  H     53.289400    3.796760   91.245100
  H     52.548400    5.062080   90.494500
  H     54.722400   -2.558560   89.998700
  H     49.736700    1.699540   84.971000

 Total Charge           Charge          ....    0
 Multiplicity           Mult            ....    1
 Number of Electrons    NEL             ....  134
 Basis Dimension        Dim             ....  322

ORBITAL ENERGIES
----------------

  NO   OCC          E(Eh)            E(eV)
   0   2.0000     -88.967003     -2420.9152
   1   2.0000     -88.965980     -2420.8874
   2   2.0000     -10.335035      -281.2306
   3   2.0000     -10.331344      -281.1302
   4   2.0000     -10.318239      -280.7736
   5   2.0000     -10.309725      -280.5419
   6   2.0000     -10.305392      -280.4240
   7   2.0000     -10.303118      -280.3621
   8   2.0000     -10.300765      -280.2981
   9   2.0000     -10.297793      -280.2172
  10   2.0000     -10.294553      -280.1290
  11   2.0000     -10.290996      -280.0322
  12   2.0000     -10.290675      -280.0235
  13   2.0000     -10.285909      -279.8938
  14   2.0000     -10.277815      -279.6736
  15   2.0000     -10.274168      -279.5743
  16   2.0000      -8.082582      -219.9382
  17   2.0000      -8.080228      -219.8742
  18   2.0000      -6.041074      -164.3860
  19   2.0000      -6.038765      -164.3232
  20   2.0000      -6.036998      -164.2751
  21   2.0000      -6.034630      -164.2106
  22   2.0000      -6.033280      -164.1739
  23   2.0000      -6.031176      -164.1166
  24   2.0000      -1.008787       -27.4505
  25   2.0000      -0.983738       -26.7689
  26   2.0000      -0.916631       -24.9428
  27   2.0000      -0.904916       -24.6240
  28   2.0000      -0.869451       -23.6590
  29   2.0000      -0.858920       -23.3724
  30   2.0000      -0.845194       -22.9989
  31   2.0000      -0.813629       -22.1400
  32   2.0000      -0.781494       -21.2655
  33   2.0000      -0.771656       -20.9978
  34   2.0000      -0.712276       -19.3820
  35   2.0000      -0.699956       -19.0468
  36   2.0000      -0.690953       -18.8018
  37   2.0000      -0.659899       -17.9568
  38   2.0000      -0.638641       -17.3783
  39   2.0000      -0.624827       -17.0024
  40   2.0000      -0.596922       -16.2431
  41   2.0000      -0.573263       -15.5993
  42   2.0000      -0.565516       -15.3885
  43   2.0000      -0.559534       -15.2257
  44   2.0000      -0.534158       -14.5352
  45   2.0000      -0.516297       -14.0492
  46   2.0000      -0.515165       -14.0183
  47   2.0000      -0.514423       -13.9982
  48   2.0000      -0.505639       -13.7591
  49   2.0000      -0.504675       -13.7329
  50   2.0000      -0.495254       -13.4766
  51   2.0000      -0.487555       -13.2670
  52   2.0000      -0.477150       -12.9839
  53   2.0000      -0.466418       -12.6919
  54   2.0000      -0.464842       -12.6490
  55   2.0000      -0.451353       -12.2819
  56   2.0000      -0.448300       -12.1989
  57   2.0000      -0.436325       -11.8730
  58   2.0000      -0.427307       -11.6276
  59   2.0000      -0.421847       -11.4790
  60   2.0000      -0.416755       -11.3405
  61   2.0000      -0.412551       -11.2261
  62   2.0000      -0.407724       -11.0947
  63   2.0000      -0.355585        -9.6759
  64   2.0000      -0.333134        -9.0650
  65   2.0000      -0.326258        -8.8779
  66   2.0000      -0.282923        -7.6987
  67   0.0000       0.018203         0.4953
  68   0.0000       0.078266         2.1297
  69   0.0000       0.106349         2.8939
  70   0.0000       0.118041         3.2121
  71   0.0000       0.130883         3.5615

MULLIKEN ATOMIC CHARGES
-----------------------
   0 S :    0.108501
   1 C :   -0.107392
   2 C :   -0.102740
   3 C :   -0.002693
   4 C :   -0.088473
   5 H :   -0.007646
   6 C :    0.064653
   7 H :    0.022237
   8 H :    0.049875
   9 C :   -0.100772
  10 H :    0.044513
  11 H :    0.042569
  12 C :   -0.080751
  13 H :    0.048282
  14 H :    0.034031
  15 H :    0.034562
  16 S :    0.089711
  17 C :   -0.086341
  18 C :   -0.042459
  19 C :   -0.028255
  20 C :   -0.125902
  21 H :    0.016956
  22 C :    0.027327
  23 H :    0.025498
  24 H :    0.000809
  25 C :   -0.062937
  26 H :    0.018415
  27 H :    0.035934
  28 C :   -0.011419
  29 H :    0.045376
  30 H :    0.020738
  31 H :    0.015753
  32 H :    0.039291
  33 H :    0.062750
Sum of atomic charges:   -0.0000000

LOEWDIN ATOMIC CHARGES
----------------------
   0 S :    0.425759
   1 C :   -0.196943
   2 C :   -0.058105
   3 C :   -0.067283
   4 C :   -0.201351
   5 H :    0.022381
   6 C :   -0.029615
   7 H :    0.028739
   8 H :    0.036157
   9 C :   -0.049185
  10 H :    0.029764
  11 H :    0.027621
  12 C :   -0.079771
  13 H :    0.031300
  14 H :    0.024734
  15 H :    0.035874
  16 S :    0.399736
  17 C :   -0.197312
  18 C :   -0.075413
  19 C :   -0.054731
  20 C :   -0.180241
  21 H :    0.028761
  22 C :   -0.035048
  23 H :    0.028669
  24 H :    0.023526
  25 C :   -0.038384
  26 H :    0.025039
  27 H :    0.023894
  28 C :   -0.063958
  29 H :    0.037149
  30 H :    0.021154
  31 H :    0.023711
  32 H :    0.019742
  33 H :    0.033633

  Mayer bond orders larger than 0.100000
B(  0-S ,  1-C ) :   1.1370 B(  0-S ,  4-C ) :   1.1648 B(  1-C ,  2-C ) :   1.6084
B(  1-C , 32-H ) :   0.9686 B(  2-C ,  3-C ) :   1.2710 B(  2-C ,  6-C ) :   1.0075
B(  3-C ,  4-C ) :   1.5149 B(  3-C ,  5-H ) :   1.0031 B(  4-C , 20-C ) :   1.0866
B(  6-C ,  7-H ) :   0.9521 B(  6-C ,  8-H ) :   0.9318 B(  6-C ,  9-C ) :   1.0671
B(  9-C , 10-H ) :   0.9570 B(  9-C , 11-H ) :   0.9494 B(  9-C , 12-C ) :   1.0916
B( 12-C , 13-H ) :   0.9751 B( 12-C , 14-H ) :   0.9724 B( 12-C , 15-H ) :   0.9711
B( 16-S , 17-C ) :   1.1779 B( 16-S , 20-C ) :   1.1304 B( 17-C , 18-C ) :   1.5681
B( 17-C , 20-C ) :   0.1049 B( 17-C , 33-H ) :   0.9682 B( 18-C , 19-C ) :   1.2790
B( 18-C , 21-H ) :   0.9888 B( 19-C , 20-C ) :   1.5319 B( 19-C , 22-C ) :   1.0602
B( 22-C , 23-H ) :   0.9396 B( 22-C , 24-H ) :   0.9267 B( 22-C , 25-C ) :   1.0416
B( 25-C , 26-H ) :   0.9487 B( 25-C , 27-H ) :   0.9593 B( 25-C , 28-C ) :   1.0919
B( 28-C , 29-H ) :   0.9695 B( 28-C , 30-H ) :   0.9706 B( 28-C , 31-H ) :   0.9649

Dispersion correction           -0.014395701
FINAL SINGLE POINT ENERGY     -1339.871860142636

DIPOLE MOMENT
-------------
                                X             Y             Z
Electronic contribution:     -9.15343     -17.15012     -27.50000
Nuclear contribution   :      9.25575      17.63668      28.04160
                        -----------------------------------------
Total Dipole Moment    :      0.10231       0.48656       0.54160
                        -----------------------------------------
Magnitude (a.u.)       :      0.73522
Magnitude (Debye)      :      1.86877

Rotational constants in cm-1:     0.018798     0.009205     0.006633
Rotational constants in MHz :   563.564674   275.969904   198.843401

                             ****ORCA TERMINATED NORMALLY****
TOTAL RUN TIME: 0 days 0 hours 0 minutes 31 seconds 33 msec
