                         Program Version 4.2.1 -  RELEASE  -
|  1> ! wB97X-D3 SP def2-SVP
|  2> %pal
|  3> nprocs 16
|  4> end
|  5>
|  6> * xyz 0 1
|  7> S 	 -4.92748 	 10.1183 	 84.9899
|  8> C 	 -4.80831 	 9.17921 	 86.4845
|  9> C 	 -5.78124 	 8.18093 	 86.59
| 10> C 	 -6.81619 	 8.47267 	 85.6283
| 11> C 	 -6.46742 	 9.35854 	 84.6161
| 12> H 	 -7.81035 	 7.97629 	 85.6734
| 13> C 	 -6.00639 	 7.02021 	 87.6038
| 14> H 	 -6.70602 	 7.37839 	 88.3534
| 15> H 	 -5.12001 	 6.89831 	 88.1882
| 16> C 	 -6.51266 	 5.63335 	 87.1863
| 17> H 	 -6.45681 	 5.10753 	 88.1702
| 18> H 	 -7.44851 	 5.41025 	 86.7345
| 19> C 	 -5.4444 	 5.02554 	 86.3076
| 20> H 	 -5.38582 	 5.50913 	 85.397
| 21> H 	 -4.40487 	 5.00034 	 86.5536
| 22> H 	 -5.65965 	 4.00781 	 86.0688
| 23> S 	 -7.52304 	 11.6053 	 83.4129
| 24> C 	 -8.87203 	 11.4506 	 82.2611
| 25> C 	 -9.29763 	 10.161 	 82.2071
| 26> C 	 -8.55787 	 9.24669 	 83.0881
| 27> C 	 -7.46757 	 9.8874 	 83.6796
| 28> H 	 -10.0233 	 9.90345 	 81.4328
| 29> C 	 -8.80281 	 7.74114 	 83.0758
| 30> H 	 -9.83315 	 7.52283 	 83.3645
| 31> H 	 -8.04883 	 7.22277 	 83.7685
| 32> C 	 -8.63147 	 7.06188 	 81.6497
| 33> H 	 -9.33886 	 7.45957 	 80.9204
| 34> H 	 -8.87543 	 5.96793 	 81.7265
| 35> C 	 -7.19157 	 7.08786 	 81.1545
| 36> H 	 -7.13496 	 6.37347 	 80.3706
| 37> H 	 -6.4841 	 6.83844 	 81.9741
| 38> H 	 -6.95016 	 8.01876 	 80.6369
| 39> H 	 -3.93026 	 9.27718 	 87.0721
| 40> H 	 -9.32562 	 12.2615 	 81.6785
| 41> *
| 42>
| 43>                          ****END OF INPUT****

CARTESIAN COORDINATES (ANGSTROEM)
---------------------------------
  S     -4.927480   10.118300   84.989900
  C     -4.808310    9.179210   86.484500
  C     -5.781240    8.180930   86.590000
  C     -6.816190    8.472670   85.628300
  C     -6.467420    9.358540   84.616100
  H     -7.810350    7.976290   85.673400
  C     -6.006390    7.020210   87.603800
  H     -6.706020    7.378390   88.353400
  H     -5.120010    6.898310   88.188200
  C     -6.512660    5.633350   87.186300
  H     -6.456810    5.107530   88.170200
  H     -7.448510    5.410250   86.734500
  C     -5.444400    5.025540   86.307600
  H     -5.385820    5.509130   85.397000
  H     -4.404870    5.000340   86.553600
  H     -5.659650    4.007810   86.068800
  S     -7.523040   11.605300   83.412900
  C     -8.872030   11.450600   82.261100
  C     -9.297630   10.161000   82.207100
  C     -8.557870    9.246690   83.088100
  C     -7.467570    9.887400   83.679600
  H    -10.023300    9.903450   81.432800
  C     -8.802810    7.741140   83.075800
  H     -9.833150    7.522830   83.364500
  H     -8.048830    7.222770   83.768500
  C     -8.631470    7.061880   81.649700
  H     -9.338860    7.459570   80.920400
  H     -8.875430    5.967930   81.726500
  C     -7.191570    7.087860   81.154500
  H     -7.134960    6.373470   80.370600
  H     -6.484100    6.838440   81.974100
  H     -6.950160    8.018760   80.636900
  H     -3.930260    9.277180   87.072100
  H     -9.325620   12.261500   81.678500

 Total Charge           Charge          ....    0
 Multiplicity           Mult            ....    1
 Number of Electrons    NEL             ....  134
 Basis Dimension        Dim             ....  322

ORBITAL ENERGIES
----------------

  NO   OCC          E(Eh)            E(eV)
   0   2.0000     -88.970194     -2421.0021
   1   2.0000     -88.961122     -2420.7552
   2   2.0000     -10.330806      -281.1155
   3   2.0000     -10.328580      -281.0549
   4   2.0000     -10.319891      -280.8185
   5   2.0000     -10.316564      -280.7280
   6   2.0000     -10.311275      -280.5841
   7   2.0000     -10.305621      -280.4302
   8   2.0000     -10.299430      -280.2618
   9   2.0000     -10.298776      -280.2440
  10   2.0000     -10.297002      -280.1957
  11   2.0000     -10.295513      -280.1552
  12   2.0000     -10.294291      -280.1219
  13   2.0000     -10.288979      -279.9774
  14   2.0000     -10.269691      -279.4525
  15   2.0000     -10.261648      -279.2336
  16   2.0000      -8.084334      -219.9859
  17   2.0000      -8.075765      -219.7527
  18   2.0000      -6.042971      -164.4376
  19   2.0000      -6.039014      -164.3299
  20   2.0000      -6.034908      -164.2182
  21   2.0000      -6.034436      -164.2054
  22   2.0000      -6.030310      -164.0931
  23   2.0000      -6.026320      -163.9845
  24   2.0000      -1.002798       -27.2875
  25   2.0000      -0.978713       -26.6321
  26   2.0000      -0.916923       -24.9507
  27   2.0000      -0.899167       -24.4676
  28   2.0000      -0.870429       -23.6856
  29   2.0000      -0.850469       -23.1424
  30   2.0000      -0.839681       -22.8489
  31   2.0000      -0.812289       -22.1035
  32   2.0000      -0.788672       -21.4608
  33   2.0000      -0.770023       -20.9534
  34   2.0000      -0.712331       -19.3835
  35   2.0000      -0.699144       -19.0247
  36   2.0000      -0.688485       -18.7346
  37   2.0000      -0.653106       -17.7719
  38   2.0000      -0.637359       -17.3434
  39   2.0000      -0.624439       -16.9918
  40   2.0000      -0.589939       -16.0531
  41   2.0000      -0.567881       -15.4528
  42   2.0000      -0.556962       -15.1557
  43   2.0000      -0.551645       -15.0110
  44   2.0000      -0.539164       -14.6714
  45   2.0000      -0.535677       -14.5765
  46   2.0000      -0.523122       -14.2349
  47   2.0000      -0.509282       -13.8583
  48   2.0000      -0.501376       -13.6431
  49   2.0000      -0.492830       -13.4106
  50   2.0000      -0.489240       -13.3129
  51   2.0000      -0.479178       -13.0391
  52   2.0000      -0.467392       -12.7184
  53   2.0000      -0.461247       -12.5512
  54   2.0000      -0.457912       -12.4604
  55   2.0000      -0.447538       -12.1781
  56   2.0000      -0.443327       -12.0635
  57   2.0000      -0.435982       -11.8637
  58   2.0000      -0.428771       -11.6674
  59   2.0000      -0.426113       -11.5951
  60   2.0000      -0.422314       -11.4917
  61   2.0000      -0.415743       -11.3129
  62   2.0000      -0.409376       -11.1397
  63   2.0000      -0.355169        -9.6646
  64   2.0000      -0.328890        -8.9496
  65   2.0000      -0.324878        -8.8404
  66   2.0000      -0.286784        -7.8038
  67   0.0000       0.024289         0.6609
  68   0.0000       0.082069         2.2332
  69   0.0000       0.101794         2.7699
  70   0.0000       0.110925         3.0184
  71   0.0000       0.128627         3.5001

MULLIKEN ATOMIC CHARGES
-----------------------
   0 S :    0.103257
   1 C :   -0.128719
   2 C :   -0.063616
   3 C :   -0.034226
   4 C :   -0.117656
   5 H :    0.044718
   6 C :    0.064134
   7 H :    0.039680
   8 H :    0.012519
   9 C :   -0.044101
  10 H :    0.037473
  11 H :    0.034630
  12 C :   -0.028205
  13 H :    0.011928
  14 H :    0.014100
  15 H :    0.015069
  16 S :    0.089164
  17 C :   -0.104720
  18 C :   -0.032440
  19 C :   -0.044908
  20 C :   -0.121000
  21 H :    0.028489
  22 C :    0.026540
  23 H :    0.033181
  24 H :    0.039491
  25 C :   -0.109014
  26 H :    0.028837
  27 H :    0.031984
  28 C :   -0.032434
  29 H :    0.017566
  30 H :    0.043790
  31 H :    0.037908
  32 H :    0.042573
  33 H :    0.064011
Sum of atomic charges:   -0.0000000

LOEWDIN ATOMIC CHARGES
----------------------
   0 S :    0.394779
   1 C :   -0.181240
   2 C :   -0.058353
   3 C :   -0.058584
   4 C :   -0.198959
   5 H :    0.037140
   6 C :   -0.030143
   7 H :    0.035685
   8 H :    0.029614
   9 C :   -0.033874
  10 H :    0.037776
  11 H :    0.024188
  12 C :   -0.067114
  13 H :    0.017243
  14 H :    0.024118
  15 H :    0.020826
  16 S :    0.385327
  17 C :   -0.181303
  18 C :   -0.071129
  19 C :   -0.064329
  20 C :   -0.191070
  21 H :    0.034400
  22 C :   -0.039551
  23 H :    0.030256
  24 H :    0.035661
  25 C :   -0.043472
  26 H :    0.018994
  27 H :    0.026984
  28 C :   -0.066539
  29 H :    0.020050
  30 H :    0.031592
  31 H :    0.027456
  32 H :    0.017454
  33 H :    0.036119

  Mayer bond orders larger than 0.100000
B(  0-S ,  1-C ) :   1.1413 B(  0-S ,  4-C ) :   1.1308 B(  1-C ,  2-C ) :   1.6119
B(  1-C , 32-H ) :   0.9691 B(  2-C ,  3-C ) :   1.2271 B(  2-C ,  6-C ) :   1.0116
B(  3-C ,  4-C ) :   1.5817 B(  3-C ,  5-H ) :   0.9723 B(  4-C , 20-C ) :   1.0518
B(  6-C ,  7-H ) :   0.9384 B(  6-C ,  8-H ) :   0.9395 B(  6-C ,  9-C ) :   1.0732
B(  9-C , 10-H ) :   0.9507 B(  9-C , 11-H ) :   0.9577 B(  9-C , 12-C ) :   1.0743
B( 12-C , 13-H ) :   0.9711 B( 12-C , 14-H ) :   0.9728 B( 12-C , 15-H ) :   0.9720
B( 16-S , 17-C ) :   1.1211 B( 16-S , 20-C ) :   1.1341 B( 17-C , 18-C ) :   1.6659
B( 17-C , 33-H ) :   0.9651 B( 18-C , 19-C ) :   1.1951 B( 18-C , 21-H ) :   0.9849
B( 19-C , 20-C ) :   1.6110 B( 19-C , 22-C ) :   1.0498 B( 22-C , 23-H ) :   0.9303
B( 22-C , 24-H ) :   0.9387 B( 22-C , 25-C ) :   1.0720 B( 25-C , 26-H ) :   0.9540
B( 25-C , 27-H ) :   0.9597 B( 25-C , 28-C ) :   1.0736 B( 28-C , 29-H ) :   0.9732
B( 28-C , 30-H ) :   0.9740 B( 28-C , 31-H ) :   0.9742

Dispersion correction           -0.014955498
FINAL SINGLE POINT ENERGY     -1339.861558123076

DIPOLE MOMENT
-------------
                                X             Y             Z
Electronic contribution:      3.51857      28.43557       0.18440
Nuclear contribution   :     -3.79438     -29.13887      -0.04962
                        -----------------------------------------
Total Dipole Moment    :     -0.27581      -0.70330       0.13478
                        -----------------------------------------
Magnitude (a.u.)       :      0.76738
Magnitude (Debye)      :      1.95052

Rotational constants in cm-1:     0.018378     0.009830     0.007363
Rotational constants in MHz :   550.967736   294.681615   220.749563

                             ****ORCA TERMINATED NORMALLY****
TOTAL RUN TIME: 0 days 0 hours 0 minutes 36 seconds 417 msec
