                         Program Version 4.2.1 -  RELEASE  -
|  1> ! wB97X-D3 SP def2-SVP
|  2> %pal
|  3> nprocs 16
|  4> end
|  5>
|  6> * xyz 0 1
|  7> S 	 -63.7422 	 48.3795 	 121.482
|  8> C 	 -64.8613 	 47.488 	 122.479
|  9> C 	 -66.1297 	 48.0125 	 122.432
| 10> C 	 -66.1935 	 49.1866 	 121.544
| 11> C 	 -65.0242 	 49.4376 	 120.841
| 12> H 	 -67.1264 	 49.7492 	 121.329
| 13> C 	 -67.2718 	 47.4033 	 123.21
| 14> H 	 -67.3092 	 47.8216 	 124.167
| 15> H 	 -67.0713 	 46.3206 	 123.281
| 16> C 	 -68.6401 	 47.6567 	 122.568
| 17> H 	 -68.7528 	 48.6726 	 122.425
| 18> H 	 -68.7039 	 47.2555 	 121.575
| 19> C 	 -69.8416 	 47.1764 	 123.347
| 20> H 	 -70.7169 	 47.1194 	 122.684
| 21> H 	 -69.6548 	 46.1521 	 123.495
| 22> H 	 -70.0512 	 47.5805 	 124.332
| 23> S 	 -64.178 	 49.4883 	 118.237
| 24> C 	 -64.2175 	 50.9655 	 117.34
| 25> C 	 -64.6923 	 52.0415 	 118.074
| 26> C 	 -65.053 	 51.6423 	 119.437
| 27> C 	 -64.7642 	 50.2826 	 119.712
| 28> H 	 -64.6637 	 52.9894 	 117.596
| 29> C 	 -65.5286 	 52.6212 	 120.428
| 30> H 	 -65.3606 	 53.6562 	 119.935
| 31> H 	 -64.8499 	 52.5751 	 121.302
| 32> C 	 -67.0049 	 52.5986 	 120.781
| 33> H 	 -67.3907 	 51.7243 	 121.248
| 34> H 	 -67.7668 	 52.5718 	 120.027
| 35> C 	 -67.2783 	 53.6199 	 121.844
| 36> H 	 -66.876 	 54.5454 	 121.62
| 37> H 	 -66.8288 	 53.4868 	 122.788
| 38> H 	 -68.2966 	 53.7567 	 122.164
| 39> H 	 -64.5861 	 46.5489 	 122.951
| 40> H 	 -63.9507 	 51.1222 	 116.301
| 41> *
| 42>
| 43>                          ****END OF INPUT****

CARTESIAN COORDINATES (ANGSTROEM)
---------------------------------
  S    -63.742200   48.379500  121.482000
  C    -64.861300   47.488000  122.479000
  C    -66.129700   48.012500  122.432000
  C    -66.193500   49.186600  121.544000
  C    -65.024200   49.437600  120.841000
  H    -67.126400   49.749200  121.329000
  C    -67.271800   47.403300  123.210000
  H    -67.309200   47.821600  124.167000
  H    -67.071300   46.320600  123.281000
  C    -68.640100   47.656700  122.568000
  H    -68.752800   48.672600  122.425000
  H    -68.703900   47.255500  121.575000
  C    -69.841600   47.176400  123.347000
  H    -70.716900   47.119400  122.684000
  H    -69.654800   46.152100  123.495000
  H    -70.051200   47.580500  124.332000
  S    -64.178000   49.488300  118.237000
  C    -64.217500   50.965500  117.340000
  C    -64.692300   52.041500  118.074000
  C    -65.053000   51.642300  119.437000
  C    -64.764200   50.282600  119.712000
  H    -64.663700   52.989400  117.596000
  C    -65.528600   52.621200  120.428000
  H    -65.360600   53.656200  119.935000
  H    -64.849900   52.575100  121.302000
  C    -67.004900   52.598600  120.781000
  H    -67.390700   51.724300  121.248000
  H    -67.766800   52.571800  120.027000
  C    -67.278300   53.619900  121.844000
  H    -66.876000   54.545400  121.620000
  H    -66.828800   53.486800  122.788000
  H    -68.296600   53.756700  122.164000
  H    -64.586100   46.548900  122.951000
  H    -63.950700   51.122200  116.301000

 Total Charge           Charge          ....    0
 Multiplicity           Mult            ....    1
 Number of Electrons    NEL             ....  134
 Basis Dimension        Dim             ....  322

ORBITAL ENERGIES
----------------

  NO   OCC          E(Eh)            E(eV)
   0   2.0000     -88.966237     -2420.8944
   1   2.0000     -88.961221     -2420.7579
   2   2.0000     -10.332248      -281.1548
   3   2.0000     -10.328585      -281.0551
   4   2.0000     -10.316429      -280.7243
   5   2.0000     -10.312172      -280.6085
   6   2.0000     -10.309061      -280.5238
   7   2.0000     -10.303510      -280.3728
   8   2.0000     -10.302554      -280.3468
   9   2.0000     -10.298653      -280.2406
  10   2.0000     -10.294827      -280.1365
  11   2.0000     -10.289654      -279.9957
  12   2.0000     -10.280093      -279.7356
  13   2.0000     -10.276418      -279.6355
  14   2.0000     -10.272872      -279.5391
  15   2.0000     -10.261067      -279.2178
  16   2.0000      -8.080800      -219.8898
  17   2.0000      -8.075909      -219.7566
  18   2.0000      -6.039333      -164.3386
  19   2.0000      -6.035250      -164.2275
  20   2.0000      -6.034436      -164.2054
  21   2.0000      -6.031596      -164.1281
  22   2.0000      -6.030427      -164.0963
  23   2.0000      -6.026640      -163.9932
  24   2.0000      -1.001631       -27.2558
  25   2.0000      -0.978787       -26.6341
  26   2.0000      -0.917490       -24.9662
  27   2.0000      -0.916479       -24.9387
  28   2.0000      -0.873947       -23.7813
  29   2.0000      -0.856989       -23.3199
  30   2.0000      -0.844007       -22.9666
  31   2.0000      -0.818231       -22.2652
  32   2.0000      -0.783741       -21.3267
  33   2.0000      -0.769635       -20.9428
  34   2.0000      -0.722792       -19.6682
  35   2.0000      -0.711809       -19.3693
  36   2.0000      -0.690279       -18.7835
  37   2.0000      -0.661350       -17.9962
  38   2.0000      -0.641101       -17.4452
  39   2.0000      -0.617114       -16.7925
  40   2.0000      -0.597828       -16.2677
  41   2.0000      -0.578494       -15.7416
  42   2.0000      -0.568025       -15.4567
  43   2.0000      -0.559005       -15.2113
  44   2.0000      -0.532337       -14.4856
  45   2.0000      -0.523056       -14.2331
  46   2.0000      -0.518234       -14.1019
  47   2.0000      -0.512314       -13.9408
  48   2.0000      -0.507105       -13.7990
  49   2.0000      -0.505565       -13.7571
  50   2.0000      -0.499622       -13.5954
  51   2.0000      -0.475187       -12.9305
  52   2.0000      -0.473221       -12.8770
  53   2.0000      -0.468624       -12.7519
  54   2.0000      -0.457533       -12.4501
  55   2.0000      -0.454503       -12.3677
  56   2.0000      -0.449926       -12.2431
  57   2.0000      -0.436826       -11.8867
  58   2.0000      -0.431988       -11.7550
  59   2.0000      -0.427803       -11.6411
  60   2.0000      -0.420007       -11.4290
  61   2.0000      -0.416084       -11.3222
  62   2.0000      -0.398105       -10.8330
  63   2.0000      -0.346733        -9.4351
  64   2.0000      -0.328844        -8.9483
  65   2.0000      -0.324729        -8.8363
  66   2.0000      -0.293038        -7.9740
  67   0.0000       0.026643         0.7250
  68   0.0000       0.068517         1.8645
  69   0.0000       0.116318         3.1652
  70   0.0000       0.123686         3.3657
  71   0.0000       0.126705         3.4478

MULLIKEN ATOMIC CHARGES
-----------------------
   0 S :    0.097767
   1 C :   -0.128372
   2 C :   -0.106449
   3 C :    0.032690
   4 C :   -0.166740
   5 H :    0.031117
   6 C :    0.107231
   7 H :    0.027350
   8 H :    0.028935
   9 C :   -0.094988
  10 H :    0.012485
  11 H :    0.024517
  12 C :   -0.009730
  13 H :    0.029601
  14 H :    0.001832
  15 H :    0.036326
  16 S :    0.117904
  17 C :   -0.088906
  18 C :   -0.033253
  19 C :   -0.014990
  20 C :   -0.145821
  21 H :    0.012063
  22 C :    0.021825
  23 H :    0.033235
  24 H :    0.052611
  25 C :   -0.015766
  26 H :   -0.003937
  27 H :    0.015071
  28 C :    0.005301
  29 H :   -0.010003
  30 H :    0.004134
  31 H :    0.017932
  32 H :    0.053008
  33 H :    0.056020
Sum of atomic charges:   -0.0000000

LOEWDIN ATOMIC CHARGES
----------------------
   0 S :    0.387237
   1 C :   -0.196190
   2 C :   -0.062290
   3 C :   -0.062555
   4 C :   -0.188939
   5 H :    0.031858
   6 C :   -0.022760
   7 H :    0.027230
   8 H :    0.034136
   9 C :   -0.038323
  10 H :    0.010005
  11 H :    0.026297
  12 C :   -0.063750
  13 H :    0.032783
  14 H :    0.018594
  15 H :    0.025044
  16 S :    0.413323
  17 C :   -0.190804
  18 C :   -0.072452
  19 C :   -0.048430
  20 C :   -0.202603
  21 H :    0.028841
  22 C :   -0.035492
  23 H :    0.042561
  24 H :    0.043525
  25 C :   -0.044018
  26 H :    0.020034
  27 H :    0.027596
  28 C :   -0.060476
  29 H :    0.010848
  30 H :    0.021920
  31 H :    0.025599
  32 H :    0.029374
  33 H :    0.032277

  Mayer bond orders larger than 0.100000
B(  0-S ,  1-C ) :   1.1290 B(  0-S ,  4-C ) :   1.1378 B(  1-C ,  2-C ) :   1.6363
B(  1-C , 32-H ) :   0.9680 B(  2-C ,  3-C ) :   1.2181 B(  2-C ,  6-C ) :   1.0220
B(  3-C ,  4-C ) :   1.5930 B(  3-C ,  5-H ) :   0.9740 B(  4-C , 20-C ) :   1.0640
B(  6-C ,  7-H ) :   0.9284 B(  6-C ,  8-H ) :   0.9430 B(  6-C ,  9-C ) :   1.0759
B(  9-C , 10-H ) :   0.9453 B(  9-C , 11-H ) :   0.9553 B(  9-C , 12-C ) :   1.0966
B( 12-C , 13-H ) :   0.9691 B( 12-C , 14-H ) :   0.9674 B( 12-C , 15-H ) :   0.9736
B( 16-S , 17-C ) :   1.1642 B( 16-S , 20-C ) :   1.1300 B( 17-C , 18-C ) :   1.6222
B( 17-C , 33-H ) :   0.9611 B( 18-C , 19-C ) :   1.2299 B( 18-C , 21-H ) :   0.9939
B( 19-C , 20-C ) :   1.5723 B( 19-C , 22-C ) :   1.0529 B( 22-C , 23-H ) :   0.9364
B( 22-C , 24-H ) :   0.9367 B( 22-C , 25-C ) :   1.0542 B( 25-C , 26-H ) :   0.9386
B( 25-C , 27-H ) :   0.9497 B( 25-C , 28-C ) :   1.0839 B( 28-C , 29-H ) :   0.9670
B( 28-C , 30-H ) :   0.9673 B( 28-C , 31-H ) :   0.9687

Dispersion correction           -0.013908115
FINAL SINGLE POINT ENERGY     -1339.857503496545

DIPOLE MOMENT
-------------
                                X             Y             Z
Electronic contribution:     25.42279      -7.54340     -14.57097
Nuclear contribution   :    -26.00118       7.72422      14.71704
                        -----------------------------------------
Total Dipole Moment    :     -0.57839       0.18082       0.14607
                        -----------------------------------------
Magnitude (a.u.)       :      0.62335
Magnitude (Debye)      :      1.58443

Rotational constants in cm-1:     0.016743     0.009062     0.006925
Rotational constants in MHz :   501.942728   271.669318   207.605009

                             ****ORCA TERMINATED NORMALLY****
TOTAL RUN TIME: 0 days 0 hours 0 minutes 33 seconds 202 msec
