                         Program Version 4.2.1 -  RELEASE  -
|  1> ! wB97X-D3 SP def2-SVP
|  2> %pal
|  3> nprocs 16
|  4> end
|  5>
|  6> * xyz 0 1
|  7> S 	 -108.246 	 42.8962 	 128.849
|  8> C 	 -107.377 	 43.0289 	 130.356
|  9> C 	 -106.039 	 43.2238 	 130.154
| 10> C 	 -105.765 	 43.3771 	 128.77
| 11> C 	 -106.892 	 43.4065 	 127.943
| 12> H 	 -104.798 	 43.6726 	 128.353
| 13> C 	 -104.955 	 43.236 	 131.199
| 14> H 	 -104.4 	 42.3135 	 131.166
| 15> H 	 -105.424 	 43.1495 	 132.119
| 16> C 	 -103.981 	 44.4483 	 131.201
| 17> H 	 -103.361 	 44.3725 	 130.358
| 18> H 	 -104.638 	 45.3049 	 131.048
| 19> C 	 -103.135 	 44.5524 	 132.495
| 20> H 	 -102.526 	 43.6331 	 132.645
| 21> H 	 -102.472 	 45.4188 	 132.643
| 22> H 	 -103.784 	 44.4747 	 133.362
| 23> S 	 -107.86 	 42.5186 	 125.631
| 24> C 	 -107.242 	 43.051 	 124.111
| 25> C 	 -106.586 	 44.2673 	 124.291
| 26> C 	 -106.355 	 44.5233 	 125.638
| 27> C 	 -106.97 	 43.5941 	 126.49
| 28> H 	 -106.258 	 44.9193 	 123.531
| 29> C 	 -105.609 	 45.7683 	 126.08
| 30> H 	 -105.843 	 45.8949 	 127.185
| 31> H 	 -105.938 	 46.6586 	 125.614
| 32> C 	 -104.111 	 45.799 	 125.899
| 33> H 	 -103.791 	 45.415 	 124.955
| 34> H 	 -103.649 	 44.9992 	 126.501
| 35> C 	 -103.377 	 47.1341 	 126.216
| 36> H 	 -103.61 	 47.5395 	 127.198
| 37> H 	 -103.582 	 47.8992 	 125.463
| 38> H 	 -102.331 	 46.983 	 126.296
| 39> H 	 -107.648 	 42.7285 	 131.398
| 40> H 	 -107.489 	 42.4923 	 123.168
| 41> *
| 42>
| 43>                          ****END OF INPUT****

CARTESIAN COORDINATES (ANGSTROEM)
---------------------------------
  S    -108.246000   42.896200  128.849000
  C    -107.377000   43.028900  130.356000
  C    -106.039000   43.223800  130.154000
  C    -105.765000   43.377100  128.770000
  C    -106.892000   43.406500  127.943000
  H    -104.798000   43.672600  128.353000
  C    -104.955000   43.236000  131.199000
  H    -104.400000   42.313500  131.166000
  H    -105.424000   43.149500  132.119000
  C    -103.981000   44.448300  131.201000
  H    -103.361000   44.372500  130.358000
  H    -104.638000   45.304900  131.048000
  C    -103.135000   44.552400  132.495000
  H    -102.526000   43.633100  132.645000
  H    -102.472000   45.418800  132.643000
  H    -103.784000   44.474700  133.362000
  S    -107.860000   42.518600  125.631000
  C    -107.242000   43.051000  124.111000
  C    -106.586000   44.267300  124.291000
  C    -106.355000   44.523300  125.638000
  C    -106.970000   43.594100  126.490000
  H    -106.258000   44.919300  123.531000
  C    -105.609000   45.768300  126.080000
  H    -105.843000   45.894900  127.185000
  H    -105.938000   46.658600  125.614000
  C    -104.111000   45.799000  125.899000
  H    -103.791000   45.415000  124.955000
  H    -103.649000   44.999200  126.501000
  C    -103.377000   47.134100  126.216000
  H    -103.610000   47.539500  127.198000
  H    -103.582000   47.899200  125.463000
  H    -102.331000   46.983000  126.296000
  H    -107.648000   42.728500  131.398000
  H    -107.489000   42.492300  123.168000

 Total Charge           Charge          ....    0
 Multiplicity           Mult            ....    1
 Number of Electrons    NEL             ....  134
 Basis Dimension        Dim             ....  322

ORBITAL ENERGIES
----------------

  NO   OCC          E(Eh)            E(eV)
   0   2.0000     -88.968099     -2420.9450
   1   2.0000     -88.966290     -2420.8958
   2   2.0000     -10.329656      -281.0842
   3   2.0000     -10.321843      -280.8716
   4   2.0000     -10.321415      -280.8600
   5   2.0000     -10.312693      -280.6226
   6   2.0000     -10.299036      -280.2510
   7   2.0000     -10.296841      -280.1913
   8   2.0000     -10.291819      -280.0546
   9   2.0000     -10.291267      -280.0396
  10   2.0000     -10.287976      -279.9500
  11   2.0000     -10.287818      -279.9458
  12   2.0000     -10.286405      -279.9073
  13   2.0000     -10.285090      -279.8715
  14   2.0000     -10.282940      -279.8130
  15   2.0000     -10.277627      -279.6684
  16   2.0000      -8.083934      -219.9750
  17   2.0000      -8.083502      -219.9633
  18   2.0000      -6.042093      -164.4137
  19   2.0000      -6.042037      -164.4122
  20   2.0000      -6.037955      -164.3011
  21   2.0000      -6.037918      -164.3001
  22   2.0000      -6.035037      -164.2217
  23   2.0000      -6.034107      -164.1964
  24   2.0000      -1.024294       -27.8725
  25   2.0000      -0.996555       -27.1177
  26   2.0000      -0.915286       -24.9062
  27   2.0000      -0.910001       -24.7624
  28   2.0000      -0.874636       -23.8001
  29   2.0000      -0.853908       -23.2360
  30   2.0000      -0.846551       -23.0358
  31   2.0000      -0.814993       -22.1771
  32   2.0000      -0.785667       -21.3791
  33   2.0000      -0.775875       -21.1126
  34   2.0000      -0.715708       -19.4754
  35   2.0000      -0.703237       -19.1361
  36   2.0000      -0.692795       -18.8519
  37   2.0000      -0.672793       -18.3076
  38   2.0000      -0.636142       -17.3103
  39   2.0000      -0.620298       -16.8792
  40   2.0000      -0.605425       -16.4745
  41   2.0000      -0.573723       -15.6118
  42   2.0000      -0.564751       -15.3677
  43   2.0000      -0.557014       -15.1571
  44   2.0000      -0.527567       -14.3558
  45   2.0000      -0.523793       -14.2531
  46   2.0000      -0.516971       -14.0675
  47   2.0000      -0.512291       -13.9401
  48   2.0000      -0.505769       -13.7627
  49   2.0000      -0.497194       -13.5293
  50   2.0000      -0.494384       -13.4529
  51   2.0000      -0.489540       -13.3211
  52   2.0000      -0.471817       -12.8388
  53   2.0000      -0.468807       -12.7569
  54   2.0000      -0.463063       -12.6006
  55   2.0000      -0.449904       -12.2425
  56   2.0000      -0.446820       -12.1586
  57   2.0000      -0.441685       -12.0189
  58   2.0000      -0.435251       -11.8438
  59   2.0000      -0.431240       -11.7346
  60   2.0000      -0.426472       -11.6049
  61   2.0000      -0.421213       -11.4618
  62   2.0000      -0.406665       -11.0659
  63   2.0000      -0.354413        -9.6441
  64   2.0000      -0.332816        -9.0564
  65   2.0000      -0.329584        -8.9684
  66   2.0000      -0.288701        -7.8560
  67   0.0000       0.029929         0.8144
  68   0.0000       0.072861         1.9827
  69   0.0000       0.104484         2.8431
  70   0.0000       0.121910         3.3173
  71   0.0000       0.132920         3.6169

MULLIKEN ATOMIC CHARGES
-----------------------
   0 S :    0.110444
   1 C :   -0.107739
   2 C :   -0.132604
   3 C :    0.030964
   4 C :   -0.150392
   5 H :    0.004747
   6 C :    0.120440
   7 H :    0.030238
   8 H :   -0.023002
   9 C :   -0.058895
  10 H :    0.025869
  11 H :    0.035908
  12 C :   -0.056710
  13 H :    0.025985
  14 H :    0.049810
  15 H :    0.020462
  16 S :    0.121694
  17 C :   -0.125864
  18 C :    0.005259
  19 C :   -0.046604
  20 C :   -0.132575
  21 H :    0.003304
  22 C :    0.069741
  23 H :    0.035494
  24 H :    0.010946
  25 C :   -0.069074
  26 H :    0.007491
  27 H :    0.007601
  28 C :   -0.033389
  29 H :    0.025025
  30 H :    0.037344
  31 H :    0.025481
  32 H :    0.052146
  33 H :    0.080454
Sum of atomic charges:    0.0000000

LOEWDIN ATOMIC CHARGES
----------------------
   0 S :    0.423540
   1 C :   -0.213494
   2 C :   -0.065238
   3 C :   -0.069396
   4 C :   -0.200395
   5 H :    0.027185
   6 C :   -0.024657
   7 H :    0.033132
   8 H :    0.016442
   9 C :   -0.031382
  10 H :    0.015222
  11 H :    0.027120
  12 C :   -0.071507
  13 H :    0.028948
  14 H :    0.030724
  15 H :    0.023095
  16 S :    0.472673
  17 C :   -0.202885
  18 C :   -0.060269
  19 C :   -0.061982
  20 C :   -0.235866
  21 H :    0.027087
  22 C :   -0.033866
  23 H :    0.038138
  24 H :    0.024069
  25 C :   -0.046141
  26 H :    0.017326
  27 H :    0.020529
  28 C :   -0.062400
  29 H :    0.025246
  30 H :    0.025592
  31 H :    0.024602
  32 H :    0.039674
  33 H :    0.039135

  Mayer bond orders larger than 0.100000
B(  0-S ,  1-C ) :   1.1303 B(  0-S ,  4-C ) :   1.1667 B(  1-C ,  2-C ) :   1.6294
B(  1-C , 32-H ) :   0.9516 B(  2-C ,  3-C ) :   1.2525 B(  2-C ,  6-C ) :   1.0312
B(  3-C ,  4-C ) :   1.5539 B(  3-C ,  5-H ) :   0.9912 B(  4-C , 20-C ) :   1.0177
B(  6-C ,  7-H ) :   0.9276 B(  6-C ,  8-H ) :   0.9276 B(  6-C ,  9-C ) :   1.0487
B(  9-C , 10-H ) :   0.9546 B(  9-C , 11-H ) :   0.9629 B(  9-C , 12-C ) :   1.0780
B( 12-C , 13-H ) :   0.9725 B( 12-C , 14-H ) :   0.9772 B( 12-C , 15-H ) :   0.9753
B( 16-S , 17-C ) :   1.1978 B( 16-S , 20-C ) :   1.1978 B( 17-C , 18-C ) :   1.5022
B( 17-C , 20-C ) :   0.1092 B( 17-C , 33-H ) :   0.9690 B( 18-C , 19-C ) :   1.3191
B( 18-C , 21-H ) :   1.0020 B( 19-C , 20-C ) :   1.5203 B( 19-C , 22-C ) :   1.0458
B( 22-C , 23-H ) :   0.9310 B( 22-C , 24-H ) :   0.9398 B( 22-C , 25-C ) :   1.0585
B( 25-C , 26-H ) :   0.9515 B( 25-C , 27-H ) :   0.9446 B( 25-C , 28-C ) :   1.0829
B( 28-C , 29-H ) :   0.9744 B( 28-C , 30-H ) :   0.9755 B( 28-C , 31-H ) :   0.9732

Dispersion correction           -0.013924391
FINAL SINGLE POINT ENERGY     -1339.870572599345

DIPOLE MOMENT
-------------
                                X             Y             Z
Electronic contribution:    -26.88067     -16.50660     -12.04062
Nuclear contribution   :     27.47039      16.70526      12.08941
                        -----------------------------------------
Total Dipole Moment    :      0.58972       0.19866       0.04879
                        -----------------------------------------
Magnitude (a.u.)       :      0.62419
Magnitude (Debye)      :      1.58657

Rotational constants in cm-1:     0.016725     0.009493     0.006375
Rotational constants in MHz :   501.394811   284.596104   191.125268

                             ****ORCA TERMINATED NORMALLY****
TOTAL RUN TIME: 0 days 0 hours 0 minutes 33 seconds 484 msec
