                         Program Version 4.2.1 -  RELEASE  -
|  1> ! wB97X-D3 SP def2-SVP
|  2> %pal
|  3> nprocs 16
|  4> end
|  5>
|  6> * xyz 0 1
|  7> S 	 -30.9033 	 62.4136 	 112.394
|  8> C 	 -30.3805 	 60.7817 	 112.011
|  9> C 	 -31.0661 	 59.86 	 112.813
| 10> C 	 -31.7926 	 60.5417 	 113.885
| 11> C 	 -31.7907 	 61.9031 	 113.866
| 12> H 	 -32.2883 	 60.0425 	 114.652
| 13> C 	 -30.9261 	 58.3165 	 112.922
| 14> H 	 -30.8603 	 58.1968 	 113.977
| 15> H 	 -29.9988 	 58.0648 	 112.426
| 16> C 	 -32.1418 	 57.5119 	 112.388
| 17> H 	 -33.0724 	 57.9394 	 112.809
| 18> H 	 -32.3029 	 57.6985 	 111.313
| 19> C 	 -32.0235 	 56.0103 	 112.652
| 20> H 	 -32.884 	 55.4483 	 112.304
| 21> H 	 -31.1404 	 55.549 	 112.229
| 22> H 	 -31.9793 	 55.7586 	 113.795
| 23> S 	 -34.0346 	 62.6261 	 115.287
| 24> C 	 -33.9417 	 63.964 	 116.457
| 25> C 	 -32.7058 	 64.5849 	 116.424
| 26> C 	 -31.835 	 63.956 	 115.514
| 27> C 	 -32.3663 	 62.8413 	 114.827
| 28> H 	 -32.4871 	 65.3825 	 117.098
| 29> C 	 -30.3926 	 64.5593 	 115.296
| 30> H 	 -30.2301 	 65.5405 	 115.698
| 31> H 	 -30.2266 	 64.5955 	 114.233
| 32> C 	 -29.2954 	 63.6135 	 115.808
| 33> H 	 -29.4728 	 62.6096 	 115.376
| 34> H 	 -29.3227 	 63.5447 	 116.86
| 35> C 	 -27.9772 	 64.0929 	 115.361
| 36> H 	 -27.878 	 64.4347 	 114.36
| 37> H 	 -27.1659 	 63.3929 	 115.611
| 38> H 	 -27.6194 	 64.9731 	 115.938
| 39> H 	 -29.6236 	 60.4216 	 111.268
| 40> H 	 -34.7861 	 64.0726 	 117.159
| 41> *
| 42>
| 43>                          ****END OF INPUT****

CARTESIAN COORDINATES (ANGSTROEM)
---------------------------------
  S    -30.903300   62.413600  112.394000
  C    -30.380500   60.781700  112.011000
  C    -31.066100   59.860000  112.813000
  C    -31.792600   60.541700  113.885000
  C    -31.790700   61.903100  113.866000
  H    -32.288300   60.042500  114.652000
  C    -30.926100   58.316500  112.922000
  H    -30.860300   58.196800  113.977000
  H    -29.998800   58.064800  112.426000
  C    -32.141800   57.511900  112.388000
  H    -33.072400   57.939400  112.809000
  H    -32.302900   57.698500  111.313000
  C    -32.023500   56.010300  112.652000
  H    -32.884000   55.448300  112.304000
  H    -31.140400   55.549000  112.229000
  H    -31.979300   55.758600  113.795000
  S    -34.034600   62.626100  115.287000
  C    -33.941700   63.964000  116.457000
  C    -32.705800   64.584900  116.424000
  C    -31.835000   63.956000  115.514000
  C    -32.366300   62.841300  114.827000
  H    -32.487100   65.382500  117.098000
  C    -30.392600   64.559300  115.296000
  H    -30.230100   65.540500  115.698000
  H    -30.226600   64.595500  114.233000
  C    -29.295400   63.613500  115.808000
  H    -29.472800   62.609600  115.376000
  H    -29.322700   63.544700  116.860000
  C    -27.977200   64.092900  115.361000
  H    -27.878000   64.434700  114.360000
  H    -27.165900   63.392900  115.611000
  H    -27.619400   64.973100  115.938000
  H    -29.623600   60.421600  111.268000
  H    -34.786100   64.072600  117.159000

 Total Charge           Charge          ....    0
 Multiplicity           Mult            ....    1
 Number of Electrons    NEL             ....  134
 Basis Dimension        Dim             ....  322

ORBITAL ENERGIES
----------------

  NO   OCC          E(Eh)            E(eV)
   0   2.0000     -88.967464     -2420.9278
   1   2.0000     -88.965377     -2420.8710
   2   2.0000     -10.333583      -281.1911
   3   2.0000     -10.331346      -281.1302
   4   2.0000     -10.324304      -280.9386
   5   2.0000     -10.323272      -280.9105
   6   2.0000     -10.309514      -280.5361
   7   2.0000     -10.307188      -280.4729
   8   2.0000     -10.296143      -280.1723
   9   2.0000     -10.295287      -280.1490
  10   2.0000     -10.293068      -280.0886
  11   2.0000     -10.291165      -280.0368
  12   2.0000     -10.286811      -279.9184
  13   2.0000     -10.286287      -279.9041
  14   2.0000     -10.272820      -279.5376
  15   2.0000     -10.266705      -279.3713
  16   2.0000      -8.081820      -219.9175
  17   2.0000      -8.078981      -219.8402
  18   2.0000      -6.040240      -164.3633
  19   2.0000      -6.037762      -164.2959
  20   2.0000      -6.036247      -164.2546
  21   2.0000      -6.033612      -164.1829
  22   2.0000      -6.032840      -164.1619
  23   2.0000      -6.029539      -164.0721
  24   2.0000      -1.002173       -27.2705
  25   2.0000      -0.979743       -26.6602
  26   2.0000      -0.909515       -24.7492
  27   2.0000      -0.906293       -24.6615
  28   2.0000      -0.871610       -23.7177
  29   2.0000      -0.849384       -23.1129
  30   2.0000      -0.842583       -22.9278
  31   2.0000      -0.815106       -22.1802
  32   2.0000      -0.778595       -21.1866
  33   2.0000      -0.767566       -20.8865
  34   2.0000      -0.705179       -19.1889
  35   2.0000      -0.700150       -19.0521
  36   2.0000      -0.689246       -18.7553
  37   2.0000      -0.667331       -18.1590
  38   2.0000      -0.638111       -17.3639
  39   2.0000      -0.621011       -16.8986
  40   2.0000      -0.597455       -16.2576
  41   2.0000      -0.570221       -15.5165
  42   2.0000      -0.565807       -15.3964
  43   2.0000      -0.558095       -15.1865
  44   2.0000      -0.525209       -14.2917
  45   2.0000      -0.517988       -14.0952
  46   2.0000      -0.514812       -14.0088
  47   2.0000      -0.510636       -13.8951
  48   2.0000      -0.507738       -13.8163
  49   2.0000      -0.502261       -13.6672
  50   2.0000      -0.489929       -13.3317
  51   2.0000      -0.484287       -13.1781
  52   2.0000      -0.471007       -12.8168
  53   2.0000      -0.463467       -12.6116
  54   2.0000      -0.460625       -12.5343
  55   2.0000      -0.447827       -12.1860
  56   2.0000      -0.441463       -12.0128
  57   2.0000      -0.439112       -11.9489
  58   2.0000      -0.431851       -11.7513
  59   2.0000      -0.418863       -11.3978
  60   2.0000      -0.417564       -11.3625
  61   2.0000      -0.413509       -11.2522
  62   2.0000      -0.408134       -11.1059
  63   2.0000      -0.347019        -9.4429
  64   2.0000      -0.334750        -9.1090
  65   2.0000      -0.324380        -8.8268
  66   2.0000      -0.295006        -8.0275
  67   0.0000       0.022304         0.6069
  68   0.0000       0.074280         2.0213
  69   0.0000       0.106757         2.9050
  70   0.0000       0.119109         3.2411
  71   0.0000       0.127441         3.4678

MULLIKEN ATOMIC CHARGES
-----------------------
   0 S :    0.098823
   1 C :   -0.134389
   2 C :   -0.102001
   3 C :    0.032251
   4 C :   -0.133480
   5 H :   -0.012051
   6 C :    0.080192
   7 H :    0.024476
   8 H :    0.019477
   9 C :   -0.070427
  10 H :    0.028539
  11 H :    0.032094
  12 C :   -0.062778
  13 H :    0.038136
  14 H :    0.033095
  15 H :    0.035807
  16 S :    0.103125
  17 C :   -0.121202
  18 C :   -0.011946
  19 C :   -0.021132
  20 C :   -0.153911
  21 H :    0.017861
  22 C :    0.072436
  23 H :    0.015212
  24 H :    0.016866
  25 C :   -0.053737
  26 H :    0.044313
  27 H :    0.016586
  28 C :   -0.035914
  29 H :    0.021939
  30 H :    0.028533
  31 H :    0.010844
  32 H :    0.067954
  33 H :    0.074412
Sum of atomic charges:    0.0000000

LOEWDIN ATOMIC CHARGES
----------------------
   0 S :    0.382692
   1 C :   -0.205110
   2 C :   -0.060660
   3 C :   -0.058073
   4 C :   -0.181141
   5 H :    0.017871
   6 C :   -0.022121
   7 H :    0.028602
   8 H :    0.026986
   9 C :   -0.045348
  10 H :    0.027517
  11 H :    0.027609
  12 C :   -0.073496
  13 H :    0.026474
  14 H :    0.022813
  15 H :    0.033766
  16 S :    0.406399
  17 C :   -0.174401
  18 C :   -0.069181
  19 C :   -0.045166
  20 C :   -0.209334
  21 H :    0.033298
  22 C :   -0.022230
  23 H :    0.024029
  24 H :    0.020666
  25 C :   -0.038979
  26 H :    0.029899
  27 H :    0.017932
  28 C :   -0.069999
  29 H :    0.019531
  30 H :    0.028602
  31 H :    0.024663
  32 H :    0.043578
  33 H :    0.032312

  Mayer bond orders larger than 0.100000
B(  0-S ,  1-C ) :   1.1306 B(  0-S ,  4-C ) :   1.1095 B(  1-C ,  2-C ) :   1.6323
B(  1-C , 32-H ) :   0.9602 B(  2-C ,  3-C ) :   1.2100 B(  2-C ,  6-C ) :   1.0174
B(  3-C ,  4-C ) :   1.6179 B(  3-C ,  5-H ) :   0.9994 B(  4-C , 20-C ) :   1.0452
B(  6-C ,  7-H ) :   0.9457 B(  6-C ,  8-H ) :   0.9449 B(  6-C ,  9-C ) :   1.0556
B(  9-C , 10-H ) :   0.9558 B(  9-C , 11-H ) :   0.9535 B(  9-C , 12-C ) :   1.0797
B( 12-C , 13-H ) :   0.9742 B( 12-C , 14-H ) :   0.9749 B( 12-C , 15-H ) :   0.9741
B( 16-S , 17-C ) :   1.1729 B( 16-S , 20-C ) :   1.1495 B( 17-C , 18-C ) :   1.5570
B( 17-C , 20-C ) :   0.1081 B( 17-C , 33-H ) :   0.9653 B( 18-C , 19-C ) :   1.2800
B( 18-C , 21-H ) :   1.0004 B( 19-C , 20-C ) :   1.5468 B( 19-C , 22-C ) :   1.0257
B( 22-C , 23-H ) :   0.9466 B( 22-C , 24-H ) :   0.9363 B( 22-C , 25-C ) :   1.0622
B( 25-C , 26-H ) :   0.9539 B( 25-C , 27-H ) :   0.9503 B( 25-C , 28-C ) :   1.0987
B( 28-C , 29-H ) :   0.9724 B( 28-C , 30-H ) :   0.9684 B( 28-C , 31-H ) :   0.9659

Dispersion correction           -0.014285225
FINAL SINGLE POINT ENERGY     -1339.878184538434

DIPOLE MOMENT
-------------
                                X             Y             Z
Electronic contribution:    -13.98305      13.52786      -1.41590
Nuclear contribution   :     14.21395     -13.81947       1.73139
                        -----------------------------------------
Total Dipole Moment    :      0.23090      -0.29161       0.31549
                        -----------------------------------------
Magnitude (a.u.)       :      0.48774
Magnitude (Debye)      :      1.23973

Rotational constants in cm-1:     0.019114     0.008140     0.006496
Rotational constants in MHz :   573.018487   244.037531   194.751060

                             ****ORCA TERMINATED NORMALLY****
TOTAL RUN TIME: 0 days 0 hours 0 minutes 27 seconds 371 msec
