                         Program Version 4.2.1 -  RELEASE  -
|  1> ! wB97X-D3 SP def2-SVP
|  2> %pal
|  3> nprocs 16
|  4> end
|  5>
|  6> * xyz 0 1
|  7> S 	 54.0175 	 18.1411 	 46.7692
|  8> C 	 52.2776 	 18.4303 	 46.8483
|  9> C 	 51.5305 	 17.3888 	 46.3162
| 10> C 	 52.4007 	 16.3136 	 46.0142
| 11> C 	 53.737 	 16.5631 	 46.105
| 12> H 	 52.1507 	 15.3538 	 45.5501
| 13> C 	 50.0145 	 17.3191 	 46.2045
| 14> H 	 49.5719 	 17.2565 	 47.2067
| 15> H 	 49.9035 	 16.4347 	 45.5743
| 16> C 	 49.4396 	 18.5066 	 45.4386
| 17> H 	 49.9949 	 18.746 	 44.5029
| 18> H 	 48.3993 	 18.1343 	 45.1119
| 19> C 	 49.2224 	 19.7709 	 46.1449
| 20> H 	 48.526 	 20.3604 	 45.5714
| 21> H 	 48.7544 	 19.6819 	 47.0894
| 22> H 	 50.172 	 20.3456 	 46.3709
| 23> S 	 56.3718 	 16.3633 	 45.3254
| 24> C 	 57.036 	 14.8133 	 44.8933
| 25> C 	 56.1527 	 13.791 	 45.1156
| 26> C 	 54.8659 	 14.2559 	 45.5679
| 27> C 	 54.8042 	 15.6914 	 45.6733
| 28> H 	 56.4487 	 12.7861 	 45.1115
| 29> C 	 53.738 	 13.1718 	 45.863
| 30> H 	 53.1918 	 13.5119 	 46.6678
| 31> H 	 54.2333 	 12.2721 	 46.1794
| 32> C 	 52.8482 	 12.8356 	 44.5986
| 33> H 	 53.3919 	 12.1082 	 43.9538
| 34> H 	 52.6532 	 13.7068 	 43.9639
| 35> C 	 51.4265 	 12.2948 	 44.9917
| 36> H 	 51.6124 	 11.4092 	 45.6145
| 37> H 	 50.9576 	 11.9281 	 44.104
| 38> H 	 50.9041 	 13.1288 	 45.5052
| 39> H 	 51.7604 	 19.2504 	 47.4046
| 40> H 	 58.0742 	 14.554 	 44.7467
| 41> *
| 42>
| 43>                          ****END OF INPUT****

CARTESIAN COORDINATES (ANGSTROEM)
---------------------------------
  S     54.017500   18.141100   46.769200
  C     52.277600   18.430300   46.848300
  C     51.530500   17.388800   46.316200
  C     52.400700   16.313600   46.014200
  C     53.737000   16.563100   46.105000
  H     52.150700   15.353800   45.550100
  C     50.014500   17.319100   46.204500
  H     49.571900   17.256500   47.206700
  H     49.903500   16.434700   45.574300
  C     49.439600   18.506600   45.438600
  H     49.994900   18.746000   44.502900
  H     48.399300   18.134300   45.111900
  C     49.222400   19.770900   46.144900
  H     48.526000   20.360400   45.571400
  H     48.754400   19.681900   47.089400
  H     50.172000   20.345600   46.370900
  S     56.371800   16.363300   45.325400
  C     57.036000   14.813300   44.893300
  C     56.152700   13.791000   45.115600
  C     54.865900   14.255900   45.567900
  C     54.804200   15.691400   45.673300
  H     56.448700   12.786100   45.111500
  C     53.738000   13.171800   45.863000
  H     53.191800   13.511900   46.667800
  H     54.233300   12.272100   46.179400
  C     52.848200   12.835600   44.598600
  H     53.391900   12.108200   43.953800
  H     52.653200   13.706800   43.963900
  C     51.426500   12.294800   44.991700
  H     51.612400   11.409200   45.614500
  H     50.957600   11.928100   44.104000
  H     50.904100   13.128800   45.505200
  H     51.760400   19.250400   47.404600
  H     58.074200   14.554000   44.746700

 Total Charge           Charge          ....    0
 Multiplicity           Mult            ....    1
 Number of Electrons    NEL             ....  134
 Basis Dimension        Dim             ....  322

ORBITAL ENERGIES
----------------

  NO   OCC          E(Eh)            E(eV)
   0   2.0000     -88.968905     -2420.9670
   1   2.0000     -88.968401     -2420.9533
   2   2.0000     -10.332844      -281.1710
   3   2.0000     -10.326364      -280.9947
   4   2.0000     -10.316145      -280.7166
   5   2.0000     -10.313340      -280.6403
   6   2.0000     -10.311220      -280.5826
   7   2.0000     -10.300415      -280.2885
   8   2.0000     -10.296685      -280.1870
   9   2.0000     -10.294317      -280.1226
  10   2.0000     -10.294278      -280.1216
  11   2.0000     -10.290803      -280.0270
  12   2.0000     -10.289399      -279.9888
  13   2.0000     -10.289350      -279.9874
  14   2.0000     -10.284035      -279.8428
  15   2.0000     -10.275085      -279.5993
  16   2.0000      -8.083618      -219.9664
  17   2.0000      -8.083009      -219.9498
  18   2.0000      -6.042193      -164.4164
  19   2.0000      -6.041579      -164.3997
  20   2.0000      -6.038097      -164.3050
  21   2.0000      -6.037610      -164.2917
  22   2.0000      -6.034366      -164.2035
  23   2.0000      -6.033647      -164.1839
  24   2.0000      -1.008799       -27.4508
  25   2.0000      -0.983788       -26.7702
  26   2.0000      -0.919928       -25.0325
  27   2.0000      -0.899374       -24.4732
  28   2.0000      -0.873043       -23.7567
  29   2.0000      -0.853615       -23.2280
  30   2.0000      -0.846335       -23.0299
  31   2.0000      -0.814697       -22.1690
  32   2.0000      -0.789301       -21.4780
  33   2.0000      -0.772689       -21.0259
  34   2.0000      -0.703781       -19.1508
  35   2.0000      -0.695321       -18.9207
  36   2.0000      -0.693406       -18.8685
  37   2.0000      -0.664265       -18.0756
  38   2.0000      -0.635348       -17.2887
  39   2.0000      -0.619080       -16.8460
  40   2.0000      -0.590664       -16.0728
  41   2.0000      -0.575354       -15.6562
  42   2.0000      -0.567439       -15.4408
  43   2.0000      -0.550368       -14.9763
  44   2.0000      -0.541478       -14.7344
  45   2.0000      -0.526909       -14.3379
  46   2.0000      -0.523866       -14.2551
  47   2.0000      -0.512423       -13.9437
  48   2.0000      -0.511034       -13.9060
  49   2.0000      -0.498135       -13.5549
  50   2.0000      -0.491966       -13.3871
  51   2.0000      -0.479227       -13.0404
  52   2.0000      -0.477333       -12.9889
  53   2.0000      -0.464449       -12.6383
  54   2.0000      -0.457624       -12.4526
  55   2.0000      -0.451635       -12.2896
  56   2.0000      -0.443618       -12.0715
  57   2.0000      -0.439504       -11.9595
  58   2.0000      -0.431660       -11.7461
  59   2.0000      -0.429560       -11.6889
  60   2.0000      -0.425057       -11.5664
  61   2.0000      -0.412573       -11.2267
  62   2.0000      -0.404732       -11.0133
  63   2.0000      -0.360816        -9.8183
  64   2.0000      -0.336866        -9.1666
  65   2.0000      -0.329459        -8.9650
  66   2.0000      -0.278996        -7.5919
  67   0.0000       0.019826         0.5395
  68   0.0000       0.080075         2.1790
  69   0.0000       0.101519         2.7625
  70   0.0000       0.121947         3.3183
  71   0.0000       0.126950         3.4545

MULLIKEN ATOMIC CHARGES
-----------------------
   0 S :    0.111932
   1 C :   -0.144833
   2 C :   -0.095288
   3 C :   -0.013328
   4 C :   -0.107448
   5 H :   -0.020917
   6 C :    0.110827
   7 H :    0.049702
   8 H :    0.024351
   9 C :   -0.116047
  10 H :    0.043338
  11 H :    0.032015
  12 C :   -0.034902
  13 H :    0.032308
  14 H :    0.010225
  15 H :    0.040107
  16 S :    0.106434
  17 C :   -0.074728
  18 C :   -0.014510
  19 C :   -0.088143
  20 C :   -0.136838
  21 H :    0.000782
  22 C :    0.104386
  23 H :    0.011084
  24 H :    0.019270
  25 C :   -0.120335
  26 H :    0.033614
  27 H :    0.045496
  28 C :   -0.047251
  29 H :    0.033878
  30 H :    0.035830
  31 H :    0.049105
  32 H :    0.064267
  33 H :    0.055620
Sum of atomic charges:   -0.0000000

LOEWDIN ATOMIC CHARGES
----------------------
   0 S :    0.402274
   1 C :   -0.204817
   2 C :   -0.062577
   3 C :   -0.075220
   4 C :   -0.193082
   5 H :    0.030408
   6 C :   -0.027347
   7 H :    0.038190
   8 H :    0.035190
   9 C :   -0.049860
  10 H :    0.033434
  11 H :    0.031404
  12 C :   -0.071408
  13 H :    0.030430
  14 H :    0.016313
  15 H :    0.029036
  16 S :    0.415695
  17 C :   -0.194455
  18 C :   -0.065820
  19 C :   -0.049165
  20 C :   -0.201262
  21 H :    0.023717
  22 C :   -0.020834
  23 H :    0.015066
  24 H :    0.029357
  25 C :   -0.044060
  26 H :    0.025757
  27 H :    0.021246
  28 C :   -0.063495
  29 H :    0.026013
  30 H :    0.023758
  31 H :    0.028202
  32 H :    0.035818
  33 H :    0.032095

  Mayer bond orders larger than 0.100000
B(  0-S ,  1-C ) :   1.1323 B(  0-S ,  4-C ) :   1.1329 B(  1-C ,  2-C ) :   1.6050
B(  1-C , 32-H ) :   0.9539 B(  2-C ,  3-C ) :   1.2585 B(  2-C ,  6-C ) :   1.0045
B(  3-C ,  4-C ) :   1.5851 B(  3-C ,  5-H ) :   0.9853 B(  4-C , 20-C ) :   1.0950
B(  6-C ,  7-H ) :   0.9358 B(  6-C ,  8-H ) :   0.9350 B(  6-C ,  9-C ) :   1.0744
B(  9-C , 10-H ) :   0.9519 B(  9-C , 11-H ) :   0.9544 B(  9-C , 12-C ) :   1.0946
B( 12-C , 13-H ) :   0.9657 B( 12-C , 14-H ) :   0.9688 B( 12-C , 15-H ) :   0.9641
B( 16-S , 17-C ) :   1.1522 B( 16-S , 20-C ) :   1.1457 B( 17-C , 18-C ) :   1.6043
B( 17-C , 33-H ) :   0.9629 B( 18-C , 19-C ) :   1.2784 B( 18-C , 21-H ) :   0.9927
B( 19-C , 20-C ) :   1.5377 B( 19-C , 22-C ) :   1.0357 B( 22-C , 23-H ) :   0.9443
B( 22-C , 24-H ) :   0.9351 B( 22-C , 25-C ) :   1.0367 B( 25-C , 26-H ) :   0.9559
B( 25-C , 27-H ) :   0.9631 B( 25-C , 28-C ) :   1.0737 B( 28-C , 29-H ) :   0.9754
B( 28-C , 30-H ) :   0.9738 B( 28-C , 31-H ) :   0.9773

Dispersion correction           -0.014294834
FINAL SINGLE POINT ENERGY     -1339.870237441557

DIPOLE MOMENT
-------------
                                X             Y             Z
Electronic contribution:     27.30571       8.77850       3.57184
Nuclear contribution   :    -27.84204      -9.28506      -3.56038
                        -----------------------------------------
Total Dipole Moment    :     -0.53633      -0.50656       0.01146
                        -----------------------------------------
Magnitude (a.u.)       :      0.73783
Magnitude (Debye)      :      1.87541

Rotational constants in cm-1:     0.019015     0.008843     0.006320
Rotational constants in MHz :   570.044684   265.093401   189.478638

                             ****ORCA TERMINATED NORMALLY****
TOTAL RUN TIME: 0 days 0 hours 0 minutes 30 seconds 424 msec
