                         Program Version 4.2.1 -  RELEASE  -
|  1> ! wB97X-D3 SP def2-SVP
|  2> %pal
|  3> nprocs 16
|  4> end
|  5>
|  6> * xyz 0 1
|  7> S 	 -52.7999 	 22.8644 	 91.243
|  8> C 	 -51.2794 	 22.9859 	 90.4115
|  9> C 	 -51.3605 	 23.7839 	 89.3069
| 10> C 	 -52.7122 	 24.1664 	 89.028
| 11> C 	 -53.622 	 23.919 	 90.0377
| 12> H 	 -53.1451 	 24.7134 	 88.1841
| 13> C 	 -50.1944 	 24.095 	 88.2887
| 14> H 	 -49.3625 	 24.7699 	 88.6358
| 15> H 	 -50.6996 	 24.7061 	 87.5522
| 16> C 	 -49.3797 	 22.8567 	 87.6457
| 17> H 	 -48.9236 	 22.2758 	 88.4517
| 18> H 	 -50.1451 	 22.2112 	 87.1874
| 19> C 	 -48.2799 	 23.2718 	 86.5801
| 20> H 	 -48.5676 	 24.2053 	 86.121
| 21> H 	 -47.3072 	 23.3859 	 87.0541
| 22> H 	 -48.3031 	 22.5102 	 85.7901
| 23> S 	 -55.4718 	 25.6674 	 89.2199
| 24> C 	 -57.1919 	 25.302 	 89.5133
| 25> C 	 -57.3604 	 24.2233 	 90.4379
| 26> C 	 -56.1096 	 23.686 	 90.8548
| 27> C 	 -55.0439 	 24.2286 	 90.1424
| 28> H 	 -58.3775 	 23.7928 	 90.6019
| 29> C 	 -55.9784 	 22.4707 	 91.6832
| 30> H 	 -56.8692 	 22.4874 	 92.3222
| 31> H 	 -55.2199 	 22.6058 	 92.4361
| 32> C 	 -55.916 	 21.1206 	 90.9955
| 33> H 	 -54.9915 	 21.0929 	 90.3865
| 34> H 	 -56.8376 	 21.0625 	 90.4142
| 35> C 	 -55.7705 	 19.9824 	 92.0171
| 36> H 	 -55.8736 	 19.0038 	 91.5207
| 37> H 	 -56.4787 	 20.1379 	 92.8056
| 38> H 	 -54.8034 	 20.0734 	 92.4854
| 39> H 	 -50.3648 	 22.5615 	 90.9042
| 40> H 	 -58.0209 	 25.7583 	 88.9976
| 41> *
| 42>
| 43>                          ****END OF INPUT****

CARTESIAN COORDINATES (ANGSTROEM)
---------------------------------
  S    -52.799900   22.864400   91.243000
  C    -51.279400   22.985900   90.411500
  C    -51.360500   23.783900   89.306900
  C    -52.712200   24.166400   89.028000
  C    -53.622000   23.919000   90.037700
  H    -53.145100   24.713400   88.184100
  C    -50.194400   24.095000   88.288700
  H    -49.362500   24.769900   88.635800
  H    -50.699600   24.706100   87.552200
  C    -49.379700   22.856700   87.645700
  H    -48.923600   22.275800   88.451700
  H    -50.145100   22.211200   87.187400
  C    -48.279900   23.271800   86.580100
  H    -48.567600   24.205300   86.121000
  H    -47.307200   23.385900   87.054100
  H    -48.303100   22.510200   85.790100
  S    -55.471800   25.667400   89.219900
  C    -57.191900   25.302000   89.513300
  C    -57.360400   24.223300   90.437900
  C    -56.109600   23.686000   90.854800
  C    -55.043900   24.228600   90.142400
  H    -58.377500   23.792800   90.601900
  C    -55.978400   22.470700   91.683200
  H    -56.869200   22.487400   92.322200
  H    -55.219900   22.605800   92.436100
  C    -55.916000   21.120600   90.995500
  H    -54.991500   21.092900   90.386500
  H    -56.837600   21.062500   90.414200
  C    -55.770500   19.982400   92.017100
  H    -55.873600   19.003800   91.520700
  H    -56.478700   20.137900   92.805600
  H    -54.803400   20.073400   92.485400
  H    -50.364800   22.561500   90.904200
  H    -58.020900   25.758300   88.997600

 Total Charge           Charge          ....    0
 Multiplicity           Mult            ....    1
 Number of Electrons    NEL             ....  134
 Basis Dimension        Dim             ....  322

ORBITAL ENERGIES
----------------

  NO   OCC          E(Eh)            E(eV)
   0   2.0000     -88.970897     -2421.0212
   1   2.0000     -88.964325     -2420.8423
   2   2.0000     -10.335497      -281.2432
   3   2.0000     -10.331283      -281.1285
   4   2.0000     -10.324440      -280.9423
   5   2.0000     -10.318457      -280.7795
   6   2.0000     -10.309159      -280.5265
   7   2.0000     -10.306258      -280.4475
   8   2.0000     -10.304284      -280.3938
   9   2.0000     -10.302824      -280.3541
  10   2.0000     -10.298782      -280.2441
  11   2.0000     -10.295647      -280.1588
  12   2.0000     -10.284119      -279.8451
  13   2.0000     -10.284083      -279.8441
  14   2.0000     -10.283095      -279.8172
  15   2.0000     -10.273327      -279.5514
  16   2.0000      -8.084709      -219.9961
  17   2.0000      -8.078273      -219.8210
  18   2.0000      -6.043224      -164.4445
  19   2.0000      -6.039436      -164.3414
  20   2.0000      -6.036849      -164.2710
  21   2.0000      -6.035442      -164.2327
  22   2.0000      -6.032855      -164.1623
  23   2.0000      -6.029052      -164.0588
  24   2.0000      -1.005411       -27.3586
  25   2.0000      -0.981171       -26.6990
  26   2.0000      -0.914628       -24.8883
  27   2.0000      -0.892268       -24.2799
  28   2.0000      -0.868461       -23.6320
  29   2.0000      -0.854259       -23.2456
  30   2.0000      -0.843763       -22.9600
  31   2.0000      -0.809772       -22.0350
  32   2.0000      -0.780644       -21.2424
  33   2.0000      -0.768244       -20.9050
  34   2.0000      -0.704399       -19.1677
  35   2.0000      -0.701519       -19.0893
  36   2.0000      -0.690261       -18.7830
  37   2.0000      -0.672237       -18.2925
  38   2.0000      -0.638804       -17.3827
  39   2.0000      -0.611930       -16.6515
  40   2.0000      -0.594648       -16.1812
  41   2.0000      -0.570658       -15.5284
  42   2.0000      -0.558972       -15.2104
  43   2.0000      -0.554594       -15.0913
  44   2.0000      -0.528574       -14.3832
  45   2.0000      -0.518184       -14.1005
  46   2.0000      -0.516170       -14.0457
  47   2.0000      -0.509228       -13.8568
  48   2.0000      -0.507635       -13.8135
  49   2.0000      -0.498285       -13.5590
  50   2.0000      -0.489209       -13.3121
  51   2.0000      -0.480466       -13.0741
  52   2.0000      -0.468992       -12.7619
  53   2.0000      -0.462863       -12.5951
  54   2.0000      -0.460217       -12.5231
  55   2.0000      -0.447282       -12.1712
  56   2.0000      -0.439276       -11.9533
  57   2.0000      -0.435135       -11.8406
  58   2.0000      -0.433359       -11.7923
  59   2.0000      -0.428971       -11.6729
  60   2.0000      -0.420929       -11.4540
  61   2.0000      -0.418728       -11.3942
  62   2.0000      -0.405134       -11.0243
  63   2.0000      -0.359478        -9.7819
  64   2.0000      -0.336129        -9.1465
  65   2.0000      -0.330775        -9.0008
  66   2.0000      -0.280879        -7.6431
  67   0.0000       0.013878         0.3776
  68   0.0000       0.077959         2.1214
  69   0.0000       0.103073         2.8047
  70   0.0000       0.113095         3.0775
  71   0.0000       0.119515         3.2522

MULLIKEN ATOMIC CHARGES
-----------------------
   0 S :    0.066629
   1 C :   -0.138799
   2 C :   -0.042475
   3 C :   -0.013464
   4 C :   -0.124591
   5 H :    0.026190
   6 C :    0.034085
   7 H :    0.042884
   8 H :    0.016537
   9 C :   -0.105313
  10 H :    0.035672
  11 H :    0.039151
  12 C :   -0.048285
  13 H :    0.029175
  14 H :    0.045674
  15 H :    0.042422
  16 S :    0.095632
  17 C :   -0.095205
  18 C :   -0.057714
  19 C :   -0.032003
  20 C :   -0.123047
  21 H :    0.044091
  22 C :    0.009856
  23 H :    0.007056
  24 H :    0.023587
  25 C :   -0.041904
  26 H :    0.037922
  27 H :    0.026652
  28 C :   -0.017621
  29 H :    0.044985
  30 H :    0.015620
  31 H :    0.022901
  32 H :    0.076650
  33 H :    0.057050
Sum of atomic charges:   -0.0000000

LOEWDIN ATOMIC CHARGES
----------------------
   0 S :    0.392745
   1 C :   -0.197318
   2 C :   -0.068482
   3 C :   -0.074850
   4 C :   -0.173033
   5 H :    0.028708
   6 C :   -0.036654
   7 H :    0.034551
   8 H :    0.023766
   9 C :   -0.040051
  10 H :    0.021374
  11 H :    0.023698
  12 C :   -0.064072
  13 H :    0.023367
  14 H :    0.027739
  15 H :    0.032269
  16 S :    0.399907
  17 C :   -0.179631
  18 C :   -0.065670
  19 C :   -0.062668
  20 C :   -0.179246
  21 H :    0.042499
  22 C :   -0.049695
  23 H :    0.030971
  24 H :    0.019066
  25 C :   -0.036106
  26 H :    0.022771
  27 H :    0.023780
  28 C :   -0.058729
  29 H :    0.031015
  30 H :    0.017912
  31 H :    0.024256
  32 H :    0.040016
  33 H :    0.025798

  Mayer bond orders larger than 0.100000
B(  0-S ,  1-C ) :   1.1439 B(  0-S ,  4-C ) :   1.1190 B(  1-C ,  2-C ) :   1.6211
B(  1-C , 32-H ) :   0.9625 B(  2-C ,  3-C ) :   1.2261 B(  2-C ,  6-C ) :   1.0099
B(  3-C ,  4-C ) :   1.5994 B(  3-C ,  5-H ) :   0.9708 B(  4-C , 20-C ) :   1.0756
B(  6-C ,  7-H ) :   0.9484 B(  6-C ,  8-H ) :   0.9457 B(  6-C ,  9-C ) :   1.0482
B(  9-C , 10-H ) :   0.9617 B(  9-C , 11-H ) :   0.9669 B(  9-C , 12-C ) :   1.0602
B( 12-C , 13-H ) :   0.9801 B( 12-C , 14-H ) :   0.9781 B( 12-C , 15-H ) :   0.9785
B( 16-S , 17-C ) :   1.1447 B( 16-S , 20-C ) :   1.1387 B( 17-C , 18-C ) :   1.6101
B( 17-C , 20-C ) :   0.1054 B( 17-C , 33-H ) :   0.9682 B( 18-C , 19-C ) :   1.2393
B( 18-C , 21-H ) :   0.9804 B( 19-C , 20-C ) :   1.5590 B( 19-C , 22-C ) :   1.0671
B( 22-C , 23-H ) :   0.9145 B( 22-C , 24-H ) :   0.9239 B( 22-C , 25-C ) :   1.0597
B( 25-C , 26-H ) :   0.9521 B( 25-C , 27-H ) :   0.9521 B( 25-C , 28-C ) :   1.0803
B( 28-C , 29-H ) :   0.9738 B( 28-C , 30-H ) :   0.9747 B( 28-C , 31-H ) :   0.9722

Dispersion correction           -0.013883234
FINAL SINGLE POINT ENERGY     -1339.872876996634

DIPOLE MOMENT
-------------
                                X             Y             Z
Electronic contribution:    -11.27052      14.36423       5.40219
Nuclear contribution   :     11.32516     -14.61638      -5.63634
                        -----------------------------------------
Total Dipole Moment    :      0.05464      -0.25214      -0.23415
                        -----------------------------------------
Magnitude (a.u.)       :      0.34840
Magnitude (Debye)      :      0.88557

Rotational constants in cm-1:     0.020578     0.007708     0.006075
Rotational constants in MHz :   616.912725   231.065813   182.135931

                             ****ORCA TERMINATED NORMALLY****
TOTAL RUN TIME: 0 days 0 hours 0 minutes 31 seconds 999 msec
