                         Program Version 4.2.1 -  RELEASE  -
|  1> ! wB97X-D3 SP def2-SVP
|  2> %pal
|  3> nprocs 16
|  4> end
|  5>
|  6> * xyz 0 1
|  7> S 	 -13.0226 	 69.8432 	 49.7031
|  8> C 	 -14.2754 	 68.8566 	 48.8502
|  9> C 	 -15.2345 	 69.6839 	 48.3218
| 10> C 	 -15.019 	 71.0675 	 48.6321
| 11> C 	 -13.9751 	 71.324 	 49.5278
| 12> H 	 -15.6502 	 71.8999 	 48.3014
| 13> C 	 -16.3638 	 69.1754 	 47.4048
| 14> H 	 -17.3019 	 69.7097 	 47.6336
| 15> H 	 -16.4221 	 68.0694 	 47.5499
| 16> C 	 -16.0527 	 69.5664 	 45.9984
| 17> H 	 -15.9338 	 70.6402 	 45.8913
| 18> H 	 -15.0747 	 69.1905 	 45.7792
| 19> C 	 -17.0855 	 69.0578 	 44.9764
| 20> H 	 -16.6424 	 69.4051 	 43.9987
| 21> H 	 -17.1163 	 67.9949 	 45.1333
| 22> H 	 -18.1036 	 69.4824 	 45.1558
| 23> S 	 -13.4427 	 72.6902 	 51.7732
| 24> C 	 -12.5106 	 74.1475 	 51.6332
| 25> C 	 -12.2505 	 74.5629 	 50.3461
| 26> C 	 -12.7725 	 73.7026 	 49.3559
| 27> C 	 -13.4177 	 72.5713 	 49.954
| 28> H 	 -11.7521 	 75.4964 	 50.1298
| 29> C 	 -12.6591 	 73.9624 	 47.885
| 30> H 	 -12.6512 	 72.9246 	 47.4357
| 31> H 	 -11.559 	 74.2379 	 47.6507
| 32> C 	 -13.9293 	 74.6303 	 47.4571
| 33> H 	 -14.0071 	 75.6613 	 47.6685
| 34> H 	 -14.7414 	 74.1775 	 48.0504
| 35> C 	 -14.3695 	 74.3593 	 46.0828
| 36> H 	 -14.4772 	 73.2929 	 45.8172
| 37> H 	 -13.7462 	 74.9134 	 45.4477
| 38> H 	 -15.3654 	 74.737 	 45.8436
| 39> H 	 -14.157 	 67.8018 	 48.5962
| 40> H 	 -12.4123 	 74.9214 	 52.3075
| 41> *
| 42>
| 43>                          ****END OF INPUT****

CARTESIAN COORDINATES (ANGSTROEM)
---------------------------------
  S    -13.022600   69.843200   49.703100
  C    -14.275400   68.856600   48.850200
  C    -15.234500   69.683900   48.321800
  C    -15.019000   71.067500   48.632100
  C    -13.975100   71.324000   49.527800
  H    -15.650200   71.899900   48.301400
  C    -16.363800   69.175400   47.404800
  H    -17.301900   69.709700   47.633600
  H    -16.422100   68.069400   47.549900
  C    -16.052700   69.566400   45.998400
  H    -15.933800   70.640200   45.891300
  H    -15.074700   69.190500   45.779200
  C    -17.085500   69.057800   44.976400
  H    -16.642400   69.405100   43.998700
  H    -17.116300   67.994900   45.133300
  H    -18.103600   69.482400   45.155800
  S    -13.442700   72.690200   51.773200
  C    -12.510600   74.147500   51.633200
  C    -12.250500   74.562900   50.346100
  C    -12.772500   73.702600   49.355900
  C    -13.417700   72.571300   49.954000
  H    -11.752100   75.496400   50.129800
  C    -12.659100   73.962400   47.885000
  H    -12.651200   72.924600   47.435700
  H    -11.559000   74.237900   47.650700
  C    -13.929300   74.630300   47.457100
  H    -14.007100   75.661300   47.668500
  H    -14.741400   74.177500   48.050400
  C    -14.369500   74.359300   46.082800
  H    -14.477200   73.292900   45.817200
  H    -13.746200   74.913400   45.447700
  H    -15.365400   74.737000   45.843600
  H    -14.157000   67.801800   48.596200
  H    -12.412300   74.921400   52.307500

 Total Charge           Charge          ....    0
 Multiplicity           Mult            ....    1
 Number of Electrons    NEL             ....  134
 Basis Dimension        Dim             ....  322

ORBITAL ENERGIES
----------------

  NO   OCC          E(Eh)            E(eV)
   0   2.0000     -88.967409     -2420.9263
   1   2.0000     -88.961823     -2420.7743
   2   2.0000     -10.330920      -281.1186
   3   2.0000     -10.330575      -281.1092
   4   2.0000     -10.317665      -280.7579
   5   2.0000     -10.309379      -280.5325
   6   2.0000     -10.308315      -280.5035
   7   2.0000     -10.302972      -280.3581
   8   2.0000     -10.300560      -280.2925
   9   2.0000     -10.299033      -280.2509
  10   2.0000     -10.296420      -280.1798
  11   2.0000     -10.289603      -279.9943
  12   2.0000     -10.285596      -279.8853
  13   2.0000     -10.282342      -279.7967
  14   2.0000     -10.280323      -279.7418
  15   2.0000     -10.271095      -279.4907
  16   2.0000      -8.081186      -219.9003
  17   2.0000      -8.075534      -219.7465
  18   2.0000      -6.039585      -164.3455
  19   2.0000      -6.035911      -164.2455
  20   2.0000      -6.034195      -164.1988
  21   2.0000      -6.032021      -164.1396
  22   2.0000      -6.030260      -164.0917
  23   2.0000      -6.026077      -163.9779
  24   2.0000      -0.999549       -27.1991
  25   2.0000      -0.977191       -26.5907
  26   2.0000      -0.924156       -25.1476
  27   2.0000      -0.918280       -24.9877
  28   2.0000      -0.871035       -23.7021
  29   2.0000      -0.858797       -23.3691
  30   2.0000      -0.838433       -22.8149
  31   2.0000      -0.813968       -22.1492
  32   2.0000      -0.784550       -21.3487
  33   2.0000      -0.768906       -20.9230
  34   2.0000      -0.711903       -19.3719
  35   2.0000      -0.699316       -19.0293
  36   2.0000      -0.692498       -18.8438
  37   2.0000      -0.660755       -17.9801
  38   2.0000      -0.641594       -17.4587
  39   2.0000      -0.616327       -16.7711
  40   2.0000      -0.593883       -16.1604
  41   2.0000      -0.576118       -15.6770
  42   2.0000      -0.575254       -15.6535
  43   2.0000      -0.559914       -15.2360
  44   2.0000      -0.536520       -14.5994
  45   2.0000      -0.527834       -14.3631
  46   2.0000      -0.525519       -14.3001
  47   2.0000      -0.507784       -13.8175
  48   2.0000      -0.504757       -13.7351
  49   2.0000      -0.498469       -13.5640
  50   2.0000      -0.494358       -13.4522
  51   2.0000      -0.481290       -13.0966
  52   2.0000      -0.471229       -12.8228
  53   2.0000      -0.462281       -12.5793
  54   2.0000      -0.460818       -12.5395
  55   2.0000      -0.446851       -12.1594
  56   2.0000      -0.443168       -12.0592
  57   2.0000      -0.434824       -11.8322
  58   2.0000      -0.431997       -11.7552
  59   2.0000      -0.422964       -11.5094
  60   2.0000      -0.421005       -11.4561
  61   2.0000      -0.411556       -11.1990
  62   2.0000      -0.407867       -11.0986
  63   2.0000      -0.337744        -9.1905
  64   2.0000      -0.332903        -9.0587
  65   2.0000      -0.325128        -8.8472
  66   2.0000      -0.294582        -8.0160
  67   0.0000       0.030060         0.8180
  68   0.0000       0.050929         1.3858
  69   0.0000       0.109141         2.9699
  70   0.0000       0.112816         3.0699
  71   0.0000       0.125412         3.4126

MULLIKEN ATOMIC CHARGES
-----------------------
   0 S :    0.095448
   1 C :   -0.132417
   2 C :   -0.084157
   3 C :    0.015867
   4 C :   -0.123836
   5 H :    0.016524
   6 C :    0.077379
   7 H :    0.027144
   8 H :    0.030826
   9 C :   -0.109878
  10 H :    0.024875
  11 H :    0.014492
  12 C :   -0.028076
  13 H :    0.049547
  14 H :    0.030172
  15 H :    0.038777
  16 S :    0.108893
  17 C :   -0.018453
  18 C :   -0.077343
  19 C :   -0.027459
  20 C :   -0.223068
  21 H :    0.015164
  22 C :    0.053675
  23 H :    0.029694
  24 H :    0.052935
  25 C :   -0.029505
  26 H :    0.020116
  27 H :    0.026255
  28 C :   -0.027843
  29 H :    0.036002
  30 H :    0.015652
  31 H :    0.018313
  32 H :    0.055721
  33 H :    0.028564
Sum of atomic charges:   -0.0000000

LOEWDIN ATOMIC CHARGES
----------------------
   0 S :    0.374867
   1 C :   -0.185170
   2 C :   -0.061723
   3 C :   -0.066471
   4 C :   -0.199530
   5 H :    0.030224
   6 C :   -0.028753
   7 H :    0.031819
   8 H :    0.033235
   9 C :   -0.047722
  10 H :    0.020111
  11 H :    0.018869
  12 C :   -0.063451
  13 H :    0.036805
  14 H :    0.021680
  15 H :    0.028062
  16 S :    0.397447
  17 C :   -0.181164
  18 C :   -0.072689
  19 C :   -0.038265
  20 C :   -0.189406
  21 H :    0.031165
  22 C :   -0.045688
  23 H :    0.041264
  24 H :    0.045748
  25 C :   -0.041015
  26 H :    0.022148
  27 H :    0.032402
  28 C :   -0.062795
  29 H :    0.026945
  30 H :    0.016871
  31 H :    0.026706
  32 H :    0.031561
  33 H :    0.015912

  Mayer bond orders larger than 0.100000
B(  0-S ,  1-C ) :   1.1203 B(  0-S ,  4-C ) :   1.1405 B(  1-C ,  2-C ) :   1.6305
B(  1-C , 32-H ) :   0.9651 B(  2-C ,  3-C ) :   1.2231 B(  2-C ,  6-C ) :   1.0264
B(  3-C ,  4-C ) :   1.5810 B(  3-C ,  5-H ) :   0.9920 B(  4-C , 20-C ) :   1.0490
B(  6-C ,  7-H ) :   0.9345 B(  6-C ,  8-H ) :   0.9419 B(  6-C ,  9-C ) :   1.0684
B(  9-C , 10-H ) :   0.9533 B(  9-C , 11-H ) :   0.9507 B(  9-C , 12-C ) :   1.0765
B( 12-C , 13-H ) :   0.9740 B( 12-C , 14-H ) :   0.9751 B( 12-C , 15-H ) :   0.9735
B( 16-S , 17-C ) :   1.1579 B( 16-S , 20-C ) :   1.1387 B( 17-C , 18-C ) :   1.6099
B( 17-C , 20-C ) :   0.1124 B( 17-C , 33-H ) :   0.9603 B( 18-C , 19-C ) :   1.2613
B( 18-C , 21-H ) :   0.9856 B( 19-C , 20-C ) :   1.5563 B( 19-C , 22-C ) :   1.0443
B( 22-C , 23-H ) :   0.9287 B( 22-C , 24-H ) :   0.9351 B( 22-C , 25-C ) :   1.0345
B( 25-C , 26-H ) :   0.9466 B( 25-C , 27-H ) :   0.9515 B( 25-C , 28-C ) :   1.1056
B( 28-C , 29-H ) :   0.9708 B( 28-C , 30-H ) :   0.9672 B( 28-C , 31-H ) :   0.9681

Dispersion correction           -0.014870843
FINAL SINGLE POINT ENERGY     -1339.848116967064

DIPOLE MOMENT
-------------
                                X             Y             Z
Electronic contribution:     13.08382      -2.65859      28.38292
Nuclear contribution   :    -13.34639       3.02099     -29.11705
                        -----------------------------------------
Total Dipole Moment    :     -0.26256       0.36240      -0.73413
                        -----------------------------------------
Magnitude (a.u.)       :      0.85978
Magnitude (Debye)      :      2.18538

Rotational constants in cm-1:     0.019520     0.009034     0.006752
Rotational constants in MHz :   585.205774   270.824260   202.406225

                             ****ORCA TERMINATED NORMALLY****
TOTAL RUN TIME: 0 days 0 hours 0 minutes 35 seconds 669 msec
