                         Program Version 4.2.1 -  RELEASE  -
|  1> ! wB97X-D3 SP def2-SVP
|  2> %pal
|  3> nprocs 16
|  4> end
|  5>
|  6> * xyz 0 1
|  7> S 	 44.063 	 13.4317 	 50.2529
|  8> C 	 44.2334 	 13.9718 	 51.9908
|  9> C 	 43.3137 	 13.3734 	 52.856
| 10> C 	 42.3194 	 12.7358 	 52.0562
| 11> C 	 42.5172 	 12.7284 	 50.6692
| 12> H 	 41.3777 	 12.372 	 52.3882
| 13> C 	 43.134 	 13.6223 	 54.3333
| 14> H 	 42.1098 	 13.8891 	 54.4836
| 15> H 	 43.6752 	 14.4552 	 54.6523
| 16> C 	 43.4536 	 12.4209 	 55.2522
| 17> H 	 43.2754 	 11.4035 	 54.6335
| 18> H 	 44.482 	 12.3744 	 55.5149
| 19> C 	 42.6041 	 12.3635 	 56.4403
| 20> H 	 42.8247 	 13.3737 	 56.8404
| 21> H 	 41.5662 	 12.1755 	 56.2547
| 22> H 	 42.9758 	 11.5541 	 57.0668
| 23> S 	 40.5006 	 13.2635 	 48.8962
| 24> C 	 39.8052 	 11.9643 	 48.0181
| 25> C 	 40.2387 	 10.7235 	 48.4102
| 26> C 	 41.2597 	 10.845 	 49.4523
| 27> C 	 41.6617 	 12.1928 	 49.6213
| 28> H 	 39.8527 	 9.87611 	 47.9083
| 29> C 	 41.9975 	 9.72532 	 49.9987
| 30> H 	 43.0587 	 9.9709 	 50.0193
| 31> H 	 42.0217 	 8.86775 	 49.3247
| 32> C 	 41.7167 	 9.41573 	 51.4323
| 33> H 	 42.2145 	 10.1513 	 52.1244
| 34> H 	 42.2017 	 8.50958 	 51.8186
| 35> C 	 40.2182 	 9.2405 	 51.7765
| 36> H 	 40.0098 	 9.11582 	 52.866
| 37> H 	 39.7706 	 8.54471 	 51.1147
| 38> H 	 39.7885 	 10.2294 	 51.6483
| 39> H 	 44.9576 	 14.5797 	 52.4706
| 40> H 	 39.0936 	 12.036 	 47.1935
| 41> *
| 42>
| 43>                          ****END OF INPUT****

CARTESIAN COORDINATES (ANGSTROEM)
---------------------------------
  S     44.063000   13.431700   50.252900
  C     44.233400   13.971800   51.990800
  C     43.313700   13.373400   52.856000
  C     42.319400   12.735800   52.056200
  C     42.517200   12.728400   50.669200
  H     41.377700   12.372000   52.388200
  C     43.134000   13.622300   54.333300
  H     42.109800   13.889100   54.483600
  H     43.675200   14.455200   54.652300
  C     43.453600   12.420900   55.252200
  H     43.275400   11.403500   54.633500
  H     44.482000   12.374400   55.514900
  C     42.604100   12.363500   56.440300
  H     42.824700   13.373700   56.840400
  H     41.566200   12.175500   56.254700
  H     42.975800   11.554100   57.066800
  S     40.500600   13.263500   48.896200
  C     39.805200   11.964300   48.018100
  C     40.238700   10.723500   48.410200
  C     41.259700   10.845000   49.452300
  C     41.661700   12.192800   49.621300
  H     39.852700    9.876110   47.908300
  C     41.997500    9.725320   49.998700
  H     43.058700    9.970900   50.019300
  H     42.021700    8.867750   49.324700
  C     41.716700    9.415730   51.432300
  H     42.214500   10.151300   52.124400
  H     42.201700    8.509580   51.818600
  C     40.218200    9.240500   51.776500
  H     40.009800    9.115820   52.866000
  H     39.770600    8.544710   51.114700
  H     39.788500   10.229400   51.648300
  H     44.957600   14.579700   52.470600
  H     39.093600   12.036000   47.193500

 Total Charge           Charge          ....    0
 Multiplicity           Mult            ....    1
 Number of Electrons    NEL             ....  134
 Basis Dimension        Dim             ....  322

ORBITAL ENERGIES
----------------

  NO   OCC          E(Eh)            E(eV)
   0   2.0000     -88.969205     -2420.9751
   1   2.0000     -88.965031     -2420.8616
   2   2.0000     -10.327314      -281.0205
   3   2.0000     -10.321907      -280.8734
   4   2.0000     -10.317705      -280.7590
   5   2.0000     -10.313862      -280.6544
   6   2.0000     -10.306300      -280.4487
   7   2.0000     -10.304225      -280.3922
   8   2.0000     -10.293459      -280.0992
   9   2.0000     -10.292333      -280.0686
  10   2.0000     -10.290968      -280.0315
  11   2.0000     -10.290597      -280.0214
  12   2.0000     -10.281384      -279.7707
  13   2.0000     -10.281051      -279.7616
  14   2.0000     -10.277267      -279.6587
  15   2.0000     -10.270970      -279.4873
  16   2.0000      -8.082412      -219.9336
  17   2.0000      -8.080565      -219.8833
  18   2.0000      -6.041035      -164.3849
  19   2.0000      -6.038956      -164.3283
  20   2.0000      -6.037219      -164.2811
  21   2.0000      -6.035000      -164.2207
  22   2.0000      -6.033059      -164.1679
  23   2.0000      -6.031353      -164.1215
  24   2.0000      -1.005220       -27.3534
  25   2.0000      -0.979395       -26.6507
  26   2.0000      -0.922280       -25.0965
  27   2.0000      -0.916494       -24.9391
  28   2.0000      -0.874711       -23.8021
  29   2.0000      -0.848794       -23.0969
  30   2.0000      -0.844473       -22.9793
  31   2.0000      -0.813941       -22.1485
  32   2.0000      -0.789738       -21.4899
  33   2.0000      -0.773743       -21.0546
  34   2.0000      -0.709608       -19.3094
  35   2.0000      -0.694507       -18.8985
  36   2.0000      -0.685639       -18.6572
  37   2.0000      -0.658399       -17.9159
  38   2.0000      -0.644615       -17.5409
  39   2.0000      -0.617778       -16.8106
  40   2.0000      -0.593177       -16.1412
  41   2.0000      -0.575687       -15.6652
  42   2.0000      -0.568621       -15.4730
  43   2.0000      -0.556280       -15.1371
  44   2.0000      -0.549569       -14.9545
  45   2.0000      -0.537817       -14.6347
  46   2.0000      -0.524658       -14.2767
  47   2.0000      -0.516645       -14.0586
  48   2.0000      -0.497526       -13.5384
  49   2.0000      -0.492305       -13.3963
  50   2.0000      -0.483327       -13.1520
  51   2.0000      -0.482382       -13.1263
  52   2.0000      -0.472564       -12.8591
  53   2.0000      -0.466939       -12.7061
  54   2.0000      -0.462032       -12.5725
  55   2.0000      -0.445960       -12.1352
  56   2.0000      -0.443507       -12.0684
  57   2.0000      -0.439674       -11.9641
  58   2.0000      -0.436448       -11.8764
  59   2.0000      -0.425953       -11.5908
  60   2.0000      -0.412442       -11.2231
  61   2.0000      -0.407086       -11.0774
  62   2.0000      -0.401182       -10.9167
  63   2.0000      -0.335552        -9.1308
  64   2.0000      -0.330792        -9.0013
  65   2.0000      -0.315186        -8.5766
  66   2.0000      -0.306337        -8.3359
  67   0.0000       0.032607         0.8873
  68   0.0000       0.057022         1.5516
  69   0.0000       0.104832         2.8526
  70   0.0000       0.112936         3.0731
  71   0.0000       0.124626         3.3913

MULLIKEN ATOMIC CHARGES
-----------------------
   0 S :    0.115977
   1 C :   -0.091192
   2 C :   -0.094059
   3 C :    0.063202
   4 C :   -0.200763
   5 H :   -0.003783
   6 C :    0.115826
   7 H :    0.021042
   8 H :    0.004305
   9 C :   -0.122715
  10 H :    0.039055
  11 H :    0.028625
  12 C :   -0.032498
  13 H :    0.033257
  14 H :    0.038219
  15 H :    0.036854
  16 S :    0.126725
  17 C :   -0.086899
  18 C :   -0.016484
  19 C :   -0.038997
  20 C :   -0.155815
  21 H :    0.005849
  22 C :    0.096117
  23 H :    0.030466
  24 H :    0.022863
  25 C :   -0.114874
  26 H :    0.034742
  27 H :    0.017630
  28 C :   -0.037355
  29 H :    0.032630
  30 H :    0.030280
  31 H :    0.025772
  32 H :    0.021571
  33 H :    0.054424
Sum of atomic charges:    0.0000000

LOEWDIN ATOMIC CHARGES
----------------------
   0 S :    0.383349
   1 C :   -0.170006
   2 C :   -0.056537
   3 C :   -0.050405
   4 C :   -0.203610
   5 H :    0.022290
   6 C :   -0.023808
   7 H :    0.032032
   8 H :    0.022810
   9 C :   -0.044175
  10 H :    0.027830
  11 H :    0.019157
  12 C :   -0.064246
  13 H :    0.031015
  14 H :    0.022658
  15 H :    0.030527
  16 S :    0.429894
  17 C :   -0.191586
  18 C :   -0.068321
  19 C :   -0.038602
  20 C :   -0.222060
  21 H :    0.027068
  22 C :   -0.045702
  23 H :    0.043375
  24 H :    0.032285
  25 C :   -0.048356
  26 H :    0.028034
  27 H :    0.021743
  28 C :   -0.068548
  29 H :    0.030951
  30 H :    0.019083
  31 H :    0.021384
  32 H :    0.018838
  33 H :    0.031638

  Mayer bond orders larger than 0.100000
B(  0-S ,  1-C ) :   1.1282 B(  0-S ,  4-C ) :   1.1297 B(  1-C ,  2-C ) :   1.6366
B(  1-C , 32-H ) :   0.9644 B(  2-C ,  3-C ) :   1.2105 B(  2-C ,  6-C ) :   1.0379
B(  3-C ,  4-C ) :   1.6140 B(  3-C ,  5-H ) :   0.9888 B(  4-C , 20-C ) :   1.0110
B(  6-C ,  7-H ) :   0.9468 B(  6-C ,  8-H ) :   0.9282 B(  6-C ,  9-C ) :   1.0320
B(  9-C , 10-H ) :   0.9607 B(  9-C , 11-H ) :   0.9557 B(  9-C , 12-C ) :   1.0796
B( 12-C , 13-H ) :   0.9718 B( 12-C , 14-H ) :   0.9753 B( 12-C , 15-H ) :   0.9685
B( 16-S , 17-C ) :   1.1704 B( 16-S , 20-C ) :   1.1467 B( 17-C , 18-C ) :   1.6212
B( 17-C , 33-H ) :   0.9622 B( 18-C , 19-C ) :   1.2108 B( 18-C , 21-H ) :   0.9997
B( 19-C , 20-C ) :   1.5719 B( 19-C , 22-C ) :   1.0563 B( 22-C , 23-H ) :   0.9247
B( 22-C , 24-H ) :   0.9428 B( 22-C , 25-C ) :   1.0608 B( 25-C , 26-H ) :   0.9493
B( 25-C , 27-H ) :   0.9493 B( 25-C , 28-C ) :   1.0790 B( 28-C , 29-H ) :   0.9724
B( 28-C , 30-H ) :   0.9764 B( 28-C , 31-H ) :   0.9667

Dispersion correction           -0.015714732
FINAL SINGLE POINT ENERGY     -1339.845285563184

DIPOLE MOMENT
-------------
                                X             Y             Z
Electronic contribution:      2.13304      14.32458     -25.40667
Nuclear contribution   :     -2.25995     -14.62330      25.91333
                        -----------------------------------------
Total Dipole Moment    :     -0.12691      -0.29872       0.50666
                        -----------------------------------------
Magnitude (a.u.)       :      0.60170
Magnitude (Debye)      :      1.52939

Rotational constants in cm-1:     0.019482     0.009220     0.007383
Rotational constants in MHz :   584.042991   276.422684   221.327973

                             ****ORCA TERMINATED NORMALLY****
TOTAL RUN TIME: 0 days 0 hours 0 minutes 37 seconds 706 msec
