                         Program Version 4.2.1 -  RELEASE  -
|  1> ! wB97X-D3 SP def2-SVP
|  2> %pal
|  3> nprocs 16
|  4> end
|  5>
|  6> * xyz 0 1
|  7> S 	 -39.1689 	 53.4687 	 108.506
|  8> C 	 -38.1173 	 54.8477 	 108.742
|  9> C 	 -38.7951 	 56.0085 	 109.141
| 10> C 	 -40.2144 	 55.7822 	 109.143
| 11> C 	 -40.5922 	 54.4667 	 108.903
| 12> H 	 -40.8933 	 56.564 	 109.389
| 13> C 	 -38.2144 	 57.402 	 109.371
| 14> H 	 -38.9637 	 58.1432 	 109.588
| 15> H 	 -37.823 	 57.7852 	 108.425
| 16> C 	 -37.2278 	 57.548 	 110.57
| 17> H 	 -36.4173 	 56.8812 	 110.368
| 18> H 	 -36.8316 	 58.6131 	 110.616
| 19> C 	 -37.874 	 57.0727 	 111.839
| 20> H 	 -38.8492 	 57.6146 	 112.042
| 21> H 	 -37.9656 	 55.9469 	 111.849
| 22> H 	 -37.256 	 57.3905 	 112.689
| 23> S 	 -42.0146 	 52.1352 	 109.211
| 24> C 	 -43.7776 	 52.1251 	 109.229
| 25> C 	 -44.2016 	 53.4308 	 109.309
| 26> C 	 -43.2189 	 54.4981 	 109.206
| 27> C 	 -41.9433 	 53.9159 	 108.952
| 28> H 	 -45.268 	 53.5769 	 109.395
| 29> C 	 -43.6812 	 55.9469 	 109.138
| 30> H 	 -43.0967 	 56.4662 	 109.798
| 31> H 	 -44.6109 	 56.2241 	 109.547
| 32> C 	 -43.7711 	 56.4947 	 107.725
| 33> H 	 -42.8337 	 56.4347 	 107.201
| 34> H 	 -44.2002 	 57.4943 	 107.745
| 35> C 	 -44.7068 	 55.6398 	 106.845
| 36> H 	 -44.5109 	 54.5263 	 106.961
| 37> H 	 -44.7211 	 56.0012 	 105.847
| 38> H 	 -45.7413 	 55.6817 	 107.206
| 39> H 	 -37.0308 	 54.7417 	 108.699
| 40> H 	 -44.357 	 51.2469 	 109.407
| 41> *
| 42>
| 43>                          ****END OF INPUT****

CARTESIAN COORDINATES (ANGSTROEM)
---------------------------------
  S    -39.168900   53.468700  108.506000
  C    -38.117300   54.847700  108.742000
  C    -38.795100   56.008500  109.141000
  C    -40.214400   55.782200  109.143000
  C    -40.592200   54.466700  108.903000
  H    -40.893300   56.564000  109.389000
  C    -38.214400   57.402000  109.371000
  H    -38.963700   58.143200  109.588000
  H    -37.823000   57.785200  108.425000
  C    -37.227800   57.548000  110.570000
  H    -36.417300   56.881200  110.368000
  H    -36.831600   58.613100  110.616000
  C    -37.874000   57.072700  111.839000
  H    -38.849200   57.614600  112.042000
  H    -37.965600   55.946900  111.849000
  H    -37.256000   57.390500  112.689000
  S    -42.014600   52.135200  109.211000
  C    -43.777600   52.125100  109.229000
  C    -44.201600   53.430800  109.309000
  C    -43.218900   54.498100  109.206000
  C    -41.943300   53.915900  108.952000
  H    -45.268000   53.576900  109.395000
  C    -43.681200   55.946900  109.138000
  H    -43.096700   56.466200  109.798000
  H    -44.610900   56.224100  109.547000
  C    -43.771100   56.494700  107.725000
  H    -42.833700   56.434700  107.201000
  H    -44.200200   57.494300  107.745000
  C    -44.706800   55.639800  106.845000
  H    -44.510900   54.526300  106.961000
  H    -44.721100   56.001200  105.847000
  H    -45.741300   55.681700  107.206000
  H    -37.030800   54.741700  108.699000
  H    -44.357000   51.246900  109.407000

 Total Charge           Charge          ....    0
 Multiplicity           Mult            ....    1
 Number of Electrons    NEL             ....  134
 Basis Dimension        Dim             ....  322

ORBITAL ENERGIES
----------------

  NO   OCC          E(Eh)            E(eV)
   0   2.0000     -88.971103     -2421.0268
   1   2.0000     -88.963507     -2420.8201
   2   2.0000     -10.340185      -281.3707
   3   2.0000     -10.335241      -281.2362
   4   2.0000     -10.319257      -280.8013
   5   2.0000     -10.317333      -280.7489
   6   2.0000     -10.314683      -280.6768
   7   2.0000     -10.307065      -280.4695
   8   2.0000     -10.295735      -280.1612
   9   2.0000     -10.294469      -280.1267
  10   2.0000     -10.292785      -280.0809
  11   2.0000     -10.289342      -279.9872
  12   2.0000     -10.285987      -279.8959
  13   2.0000     -10.283899      -279.8391
  14   2.0000     -10.282373      -279.7976
  15   2.0000     -10.272490      -279.5287
  16   2.0000      -8.085019      -220.0046
  17   2.0000      -8.077542      -219.8011
  18   2.0000      -6.043668      -164.4566
  19   2.0000      -6.039681      -164.3481
  20   2.0000      -6.036227      -164.2541
  21   2.0000      -6.035644      -164.2382
  22   2.0000      -6.032251      -164.1459
  23   2.0000      -6.028067      -164.0320
  24   2.0000      -1.000231       -27.2177
  25   2.0000      -0.977281       -26.5932
  26   2.0000      -0.915852       -24.9216
  27   2.0000      -0.911018       -24.7901
  28   2.0000      -0.867189       -23.5974
  29   2.0000      -0.851264       -23.1641
  30   2.0000      -0.839155       -22.8346
  31   2.0000      -0.810419       -22.0526
  32   2.0000      -0.787991       -21.4423
  33   2.0000      -0.774108       -21.0646
  34   2.0000      -0.707858       -19.2618
  35   2.0000      -0.696205       -18.9447
  36   2.0000      -0.688804       -18.7433
  37   2.0000      -0.664665       -18.0865
  38   2.0000      -0.636434       -17.3182
  39   2.0000      -0.618298       -16.8247
  40   2.0000      -0.604077       -16.4378
  41   2.0000      -0.575504       -15.6603
  42   2.0000      -0.563132       -15.3236
  43   2.0000      -0.554144       -15.0790
  44   2.0000      -0.550311       -14.9747
  45   2.0000      -0.538149       -14.6438
  46   2.0000      -0.510665       -13.8959
  47   2.0000      -0.501488       -13.6462
  48   2.0000      -0.497629       -13.5412
  49   2.0000      -0.496065       -13.4986
  50   2.0000      -0.488631       -13.2963
  51   2.0000      -0.479913       -13.0591
  52   2.0000      -0.468758       -12.7556
  53   2.0000      -0.464228       -12.6323
  54   2.0000      -0.458295       -12.4708
  55   2.0000      -0.449248       -12.2247
  56   2.0000      -0.443833       -12.0773
  57   2.0000      -0.435804       -11.8588
  58   2.0000      -0.429570       -11.6892
  59   2.0000      -0.424414       -11.5489
  60   2.0000      -0.416284       -11.3277
  61   2.0000      -0.411276       -11.1914
  62   2.0000      -0.410250       -11.1635
  63   2.0000      -0.363134        -9.8814
  64   2.0000      -0.335041        -9.1169
  65   2.0000      -0.327302        -8.9063
  66   2.0000      -0.280200        -7.6246
  67   0.0000       0.012054         0.3280
  68   0.0000       0.078555         2.1376
  69   0.0000       0.091301         2.4844
  70   0.0000       0.113761         3.0956
  71   0.0000       0.138604         3.7716

MULLIKEN ATOMIC CHARGES
-----------------------
   0 S :    0.111408
   1 C :   -0.130520
   2 C :   -0.084996
   3 C :    0.000764
   4 C :   -0.098394
   5 H :   -0.007437
   6 C :    0.058264
   7 H :    0.008979
   8 H :    0.040119
   9 C :   -0.077491
  10 H :    0.022029
  11 H :    0.043267
  12 C :   -0.078540
  13 H :    0.031306
  14 H :    0.064108
  15 H :    0.032853
  16 S :    0.063334
  17 C :   -0.069600
  18 C :   -0.042882
  19 C :   -0.070531
  20 C :   -0.108321
  21 H :    0.016640
  22 C :    0.125373
  23 H :   -0.000495
  24 H :   -0.003345
  25 C :   -0.045160
  26 H :    0.035099
  27 H :    0.031637
  28 C :   -0.084277
  29 H :    0.059467
  30 H :    0.034531
  31 H :    0.009757
  32 H :    0.056778
  33 H :    0.056277
Sum of atomic charges:    0.0000000

LOEWDIN ATOMIC CHARGES
----------------------
   0 S :    0.395876
   1 C :   -0.197464
   2 C :   -0.058486
   3 C :   -0.058190
   4 C :   -0.183308
   5 H :    0.024857
   6 C :   -0.034299
   7 H :    0.024091
   8 H :    0.033703
   9 C :   -0.044162
  10 H :    0.017044
  11 H :    0.032063
  12 C :   -0.074953
  13 H :    0.027670
  14 H :    0.038369
  15 H :    0.026495
  16 S :    0.371637
  17 C :   -0.180631
  18 C :   -0.069054
  19 C :   -0.049381
  20 C :   -0.167900
  21 H :    0.027494
  22 C :   -0.029853
  23 H :    0.017406
  24 H :    0.030655
  25 C :   -0.030497
  26 H :    0.022525
  27 H :    0.025960
  28 C :   -0.070712
  29 H :    0.037240
  30 H :    0.020978
  31 H :    0.017800
  32 H :    0.028303
  33 H :    0.028723

  Mayer bond orders larger than 0.100000
B(  0-S ,  1-C ) :   1.1419 B(  0-S ,  4-C ) :   1.1341 B(  1-C ,  2-C ) :   1.5952
B(  1-C , 32-H ) :   0.9654 B(  2-C ,  3-C ) :   1.2628 B(  2-C ,  6-C ) :   1.0096
B(  3-C ,  4-C ) :   1.5601 B(  3-C ,  5-H ) :   0.9923 B(  4-C , 20-C ) :   1.0917
B(  6-C ,  7-H ) :   0.9466 B(  6-C ,  8-H ) :   0.9430 B(  6-C ,  9-C ) :   1.0625
B(  9-C , 10-H ) :   0.9576 B(  9-C , 11-H ) :   0.9568 B(  9-C , 12-C ) :   1.0793
B( 12-C , 13-H ) :   0.9751 B( 12-C , 14-H ) :   0.9673 B( 12-C , 15-H ) :   0.9716
B( 16-S , 17-C ) :   1.1272 B( 16-S , 20-C ) :   1.1407 B( 17-C , 18-C ) :   1.6190
B( 17-C , 33-H ) :   0.9730 B( 18-C , 19-C ) :   1.2298 B( 18-C , 21-H ) :   0.9875
B( 19-C , 20-C ) :   1.5623 B( 19-C , 22-C ) :   1.0409 B( 22-C , 23-H ) :   0.9205
B( 22-C , 24-H ) :   0.9269 B( 22-C , 25-C ) :   1.0743 B( 25-C , 26-H ) :   0.9578
B( 25-C , 27-H ) :   0.9558 B( 25-C , 28-C ) :   1.0738 B( 28-C , 29-H ) :   0.9686
B( 28-C , 30-H ) :   0.9742 B( 28-C , 31-H ) :   0.9729

Dispersion correction           -0.014856739
FINAL SINGLE POINT ENERGY     -1339.867965009460

DIPOLE MOMENT
-------------
                                X             Y             Z
Electronic contribution:      2.64965     -23.29548      -2.83760
Nuclear contribution   :     -2.83111      23.98719       3.06605
                        -----------------------------------------
Total Dipole Moment    :     -0.18147       0.69171       0.22844
                        -----------------------------------------
Magnitude (a.u.)       :      0.75072
Magnitude (Debye)      :      1.90818

Rotational constants in cm-1:     0.020714     0.008440     0.006956
Rotational constants in MHz :   620.984706   253.039036   208.547339

                             ****ORCA TERMINATED NORMALLY****
TOTAL RUN TIME: 0 days 0 hours 0 minutes 32 seconds 496 msec
