                         Program Version 4.2.1 -  RELEASE  -
|  1> ! wB97X-D3 SP def2-SVP
|  2> %pal
|  3> nprocs 16
|  4> end
|  5>
|  6> * xyz 0 1
|  7> S 	 -14.6711 	 67.4305 	 54.2673
|  8> C 	 -14.6335 	 65.6906 	 54.6099
|  9> C 	 -13.3769 	 65.1757 	 54.2966
| 10> C 	 -12.4852 	 66.1912 	 53.8158
| 11> C 	 -13.0475 	 67.3897 	 53.6526
| 12> H 	 -11.4453 	 66.0291 	 53.4306
| 13> C 	 -12.9699 	 63.6684 	 54.3501
| 14> H 	 -12.3243 	 63.4557 	 53.4773
| 15> H 	 -13.8557 	 62.999 	 54.1442
| 16> C 	 -12.3227 	 63.1332 	 55.6627
| 17> H 	 -11.5124 	 63.734 	 56.0158
| 18> H 	 -13.1169 	 63.0589 	 56.339
| 19> C 	 -11.5578 	 61.8198 	 55.3296
| 20> H 	 -10.7905 	 62.053 	 54.5715
| 21> H 	 -11.013 	 61.6435 	 56.1822
| 22> H 	 -12.0829 	 60.946 	 55.0641
| 23> S 	 -13.3607 	 69.7583 	 52.2524
| 24> C 	 -12.0112 	 70.7942 	 51.8601
| 25> C 	 -10.8395 	 70.0944 	 52.13
| 26> C 	 -11.0414 	 68.8715 	 52.8851
| 27> C 	 -12.3816 	 68.5629 	 53.1107
| 28> H 	 -9.98408 	 70.6581 	 51.9539
| 29> C 	 -9.82418 	 68.2568 	 53.4405
| 30> H 	 -8.97676 	 68.9252 	 53.1259
| 31> H 	 -9.70226 	 67.3065 	 52.8836
| 32> C 	 -9.8598 	 68.0431 	 54.9885
| 33> H 	 -10.4124 	 67.1668 	 55.2229
| 34> H 	 -10.379 	 68.8037 	 55.5746
| 35> C 	 -8.48161 	 67.6654 	 55.6461
| 36> H 	 -7.83774 	 66.851 	 55.1255
| 37> H 	 -8.73686 	 67.2365 	 56.6018
| 38> H 	 -7.87098 	 68.5369 	 55.8266
| 39> H 	 -15.4568 	 65.1017 	 55.0835
| 40> H 	 -12.0479 	 71.6651 	 51.2354
| 41> *
| 42>
| 43>                          ****END OF INPUT****

CARTESIAN COORDINATES (ANGSTROEM)
---------------------------------
  S    -14.671100   67.430500   54.267300
  C    -14.633500   65.690600   54.609900
  C    -13.376900   65.175700   54.296600
  C    -12.485200   66.191200   53.815800
  C    -13.047500   67.389700   53.652600
  H    -11.445300   66.029100   53.430600
  C    -12.969900   63.668400   54.350100
  H    -12.324300   63.455700   53.477300
  H    -13.855700   62.999000   54.144200
  C    -12.322700   63.133200   55.662700
  H    -11.512400   63.734000   56.015800
  H    -13.116900   63.058900   56.339000
  C    -11.557800   61.819800   55.329600
  H    -10.790500   62.053000   54.571500
  H    -11.013000   61.643500   56.182200
  H    -12.082900   60.946000   55.064100
  S    -13.360700   69.758300   52.252400
  C    -12.011200   70.794200   51.860100
  C    -10.839500   70.094400   52.130000
  C    -11.041400   68.871500   52.885100
  C    -12.381600   68.562900   53.110700
  H     -9.984080   70.658100   51.953900
  C     -9.824180   68.256800   53.440500
  H     -8.976760   68.925200   53.125900
  H     -9.702260   67.306500   52.883600
  C     -9.859800   68.043100   54.988500
  H    -10.412400   67.166800   55.222900
  H    -10.379000   68.803700   55.574600
  C     -8.481610   67.665400   55.646100
  H     -7.837740   66.851000   55.125500
  H     -8.736860   67.236500   56.601800
  H     -7.870980   68.536900   55.826600
  H    -15.456800   65.101700   55.083500
  H    -12.047900   71.665100   51.235400

 Total Charge           Charge          ....    0
 Multiplicity           Mult            ....    1
 Number of Electrons    NEL             ....  134
 Basis Dimension        Dim             ....  322

ORBITAL ENERGIES
----------------

  NO   OCC          E(Eh)            E(eV)
   0   2.0000     -88.966866     -2420.9115
   1   2.0000     -88.961961     -2420.7780
   2   2.0000     -10.330099      -281.0963
   3   2.0000     -10.326771      -281.0057
   4   2.0000     -10.321164      -280.8532
   5   2.0000     -10.316467      -280.7253
   6   2.0000     -10.307308      -280.4761
   7   2.0000     -10.304144      -280.3900
   8   2.0000     -10.300010      -280.2775
   9   2.0000     -10.297321      -280.2043
  10   2.0000     -10.292734      -280.0795
  11   2.0000     -10.290535      -280.0197
  12   2.0000     -10.286718      -279.9158
  13   2.0000     -10.285661      -279.8871
  14   2.0000     -10.283583      -279.8305
  15   2.0000     -10.271960      -279.5142
  16   2.0000      -8.081452      -219.9075
  17   2.0000      -8.076599      -219.7754
  18   2.0000      -6.040094      -164.3593
  19   2.0000      -6.036044      -164.2491
  20   2.0000      -6.035191      -164.2259
  21   2.0000      -6.031997      -164.1390
  22   2.0000      -6.030972      -164.1111
  23   2.0000      -6.027424      -164.0146
  24   2.0000      -1.009140       -27.4601
  25   2.0000      -0.983394       -26.7595
  26   2.0000      -0.907676       -24.6991
  27   2.0000      -0.905648       -24.6439
  28   2.0000      -0.872504       -23.7420
  29   2.0000      -0.851275       -23.1644
  30   2.0000      -0.845065       -22.9954
  31   2.0000      -0.817646       -22.2493
  32   2.0000      -0.780186       -21.2299
  33   2.0000      -0.769845       -20.9485
  34   2.0000      -0.710412       -19.3313
  35   2.0000      -0.705958       -19.2101
  36   2.0000      -0.691527       -18.8174
  37   2.0000      -0.666853       -18.1460
  38   2.0000      -0.638397       -17.3717
  39   2.0000      -0.620376       -16.8813
  40   2.0000      -0.587857       -15.9964
  41   2.0000      -0.572635       -15.5822
  42   2.0000      -0.566992       -15.4286
  43   2.0000      -0.559203       -15.2167
  44   2.0000      -0.529611       -14.4115
  45   2.0000      -0.526249       -14.3200
  46   2.0000      -0.515336       -14.0230
  47   2.0000      -0.506887       -13.7931
  48   2.0000      -0.503767       -13.7082
  49   2.0000      -0.499469       -13.5913
  50   2.0000      -0.495062       -13.4713
  51   2.0000      -0.483710       -13.1624
  52   2.0000      -0.473880       -12.8949
  53   2.0000      -0.466519       -12.6946
  54   2.0000      -0.458950       -12.4887
  55   2.0000      -0.446712       -12.1557
  56   2.0000      -0.442907       -12.0521
  57   2.0000      -0.439906       -11.9704
  58   2.0000      -0.430098       -11.7036
  59   2.0000      -0.429239       -11.6802
  60   2.0000      -0.415978       -11.3193
  61   2.0000      -0.413708       -11.2576
  62   2.0000      -0.410121       -11.1600
  63   2.0000      -0.360871        -9.8198
  64   2.0000      -0.332219        -9.0401
  65   2.0000      -0.324894        -8.8408
  66   2.0000      -0.287078        -7.8118
  67   0.0000       0.021539         0.5861
  68   0.0000       0.081066         2.2059
  69   0.0000       0.105543         2.8720
  70   0.0000       0.119229         3.2444
  71   0.0000       0.127899         3.4803

MULLIKEN ATOMIC CHARGES
-----------------------
   0 S :    0.107533
   1 C :   -0.139802
   2 C :   -0.056103
   3 C :   -0.035549
   4 C :   -0.095561
   5 H :    0.022476
   6 C :    0.001116
   7 H :    0.024887
   8 H :    0.032966
   9 C :   -0.035070
  10 H :    0.026703
  11 H :    0.024360
  12 C :   -0.025354
  13 H :    0.027335
  14 H :    0.010242
  15 H :    0.031436
  16 S :    0.082896
  17 C :   -0.090488
  18 C :   -0.025455
  19 C :   -0.080607
  20 C :   -0.097779
  21 H :    0.003458
  22 C :    0.058736
  23 H :    0.028790
  24 H :    0.041943
  25 C :   -0.059462
  26 H :    0.021483
  27 H :    0.041878
  28 C :   -0.081063
  29 H :    0.042168
  30 H :    0.027202
  31 H :    0.037028
  32 H :    0.067150
  33 H :    0.060507
Sum of atomic charges:   -0.0000000

LOEWDIN ATOMIC CHARGES
----------------------
   0 S :    0.398032
   1 C :   -0.198868
   2 C :   -0.061832
   3 C :   -0.074975
   4 C :   -0.192719
   5 H :    0.039837
   6 C :   -0.037473
   7 H :    0.027734
   8 H :    0.035319
   9 C :   -0.025014
  10 H :    0.023861
  11 H :    0.016726
  12 C :   -0.054733
  13 H :    0.030090
  14 H :    0.015996
  15 H :    0.017635
  16 S :    0.395693
  17 C :   -0.182025
  18 C :   -0.067753
  19 C :   -0.061423
  20 C :   -0.188788
  21 H :    0.021143
  22 C :   -0.037180
  23 H :    0.036368
  24 H :    0.034552
  25 C :   -0.038670
  26 H :    0.020671
  27 H :    0.031839
  28 C :   -0.071418
  29 H :    0.034396
  30 H :    0.023626
  31 H :    0.018980
  32 H :    0.040339
  33 H :    0.030032

  Mayer bond orders larger than 0.100000
B(  0-S ,  1-C ) :   1.1202 B(  0-S ,  4-C ) :   1.1343 B(  1-C ,  2-C ) :   1.6282
B(  1-C , 32-H ) :   0.9649 B(  2-C ,  3-C ) :   1.2324 B(  2-C ,  6-C ) :   1.0074
B(  3-C ,  4-C ) :   1.6181 B(  3-C ,  5-H ) :   0.9752 B(  4-C , 20-C ) :   1.0577
B(  6-C ,  7-H ) :   0.9523 B(  6-C ,  8-H ) :   0.9490 B(  6-C ,  9-C ) :   1.0581
B(  9-C , 10-H ) :   0.9610 B(  9-C , 11-H ) :   0.9594 B(  9-C , 12-C ) :   1.0718
B( 12-C , 13-H ) :   0.9744 B( 12-C , 14-H ) :   0.9748 B( 12-C , 15-H ) :   0.9789
B( 16-S , 17-C ) :   1.1588 B( 16-S , 20-C ) :   1.1297 B( 17-C , 18-C ) :   1.6149
B( 17-C , 33-H ) :   0.9662 B( 18-C , 19-C ) :   1.2459 B( 18-C , 21-H ) :   0.9933
B( 19-C , 20-C ) :   1.5720 B( 19-C , 22-C ) :   1.0517 B( 22-C , 23-H ) :   0.9417
B( 22-C , 24-H ) :   0.9136 B( 22-C , 25-C ) :   1.0559 B( 25-C , 26-H ) :   0.9487
B( 25-C , 27-H ) :   0.9593 B( 25-C , 28-C ) :   1.0794 B( 28-C , 29-H ) :   0.9749
B( 28-C , 30-H ) :   0.9771 B( 28-C , 31-H ) :   0.9790

Dispersion correction           -0.014031272
FINAL SINGLE POINT ENERGY     -1339.858403587200

DIPOLE MOMENT
-------------
                                X             Y             Z
Electronic contribution:    -21.70347      21.63713     -11.84371
Nuclear contribution   :     22.31019     -22.08945      11.99233
                        -----------------------------------------
Total Dipole Moment    :      0.60672      -0.45232       0.14862
                        -----------------------------------------
Magnitude (a.u.)       :      0.77123
Magnitude (Debye)      :      1.96030

Rotational constants in cm-1:     0.018529     0.008888     0.006533
Rotational constants in MHz :   555.471131   266.460595   195.850431

                             ****ORCA TERMINATED NORMALLY****
TOTAL RUN TIME: 0 days 0 hours 0 minutes 32 seconds 262 msec
