                         Program Version 4.2.1 -  RELEASE  -
|  1> ! wB97X-D3 SP def2-SVP
|  2> %pal
|  3> nprocs 16
|  4> end
|  5>
|  6> * xyz 0 1
|  7> S 	 -6.08722 	 43.9114 	 40.5348
|  8> C 	 -4.65535 	 43.2668 	 39.786
|  9> C 	 -4.12396 	 42.2342 	 40.5736
| 10> C 	 -4.91289 	 41.9977 	 41.7856
| 11> C 	 -5.94671 	 42.919 	 42.0057
| 12> H 	 -4.76357 	 41.2194 	 42.5479
| 13> C 	 -2.84039 	 41.496 	 40.3391
| 14> H 	 -2.43367 	 41.8624 	 39.3498
| 15> H 	 -3.1761 	 40.5284 	 40.0378
| 16> C 	 -1.783 	 41.5657 	 41.448
| 17> H 	 -2.26888 	 41.0694 	 42.2337
| 18> H 	 -1.02309 	 40.9387 	 41.0627
| 19> C 	 -1.25401 	 42.9601 	 41.7548
| 20> H 	 -0.711814 	 42.787 	 42.7461
| 21> H 	 -0.547781 	 43.2153 	 40.907
| 22> H 	 -2.05618 	 43.6515 	 41.8254
| 23> S 	 -8.66401 	 42.7704 	 42.549
| 24> C 	 -9.10669 	 42.7668 	 44.2497
| 25> C 	 -7.99803 	 42.6308 	 45.11
| 26> C 	 -6.76579 	 42.8133 	 44.463
| 27> C 	 -6.9116 	 42.9117 	 43.086
| 28> H 	 -8.01177 	 42.6091 	 46.1943
| 29> C 	 -5.47676 	 42.9041 	 45.2812
| 30> H 	 -4.70781 	 43.021 	 44.5846
| 31> H 	 -5.24697 	 41.8621 	 45.6654
| 32> C 	 -5.45242 	 43.9493 	 46.4007
| 33> H 	 -5.73175 	 43.4591 	 47.3181
| 34> H 	 -6.21585 	 44.7523 	 46.3048
| 35> C 	 -4.09943 	 44.6431 	 46.4106
| 36> H 	 -3.92248 	 45.3938 	 47.205
| 37> H 	 -4.02969 	 45.0527 	 45.39
| 38> H 	 -3.35784 	 43.8816 	 46.69
| 39> H 	 -4.24895 	 43.6809 	 38.8523
| 40> H 	 -10.1273 	 42.8382 	 44.6862
| 41> *
| 42>
| 43>                          ****END OF INPUT****

CARTESIAN COORDINATES (ANGSTROEM)
---------------------------------
  S     -6.087220   43.911400   40.534800
  C     -4.655350   43.266800   39.786000
  C     -4.123960   42.234200   40.573600
  C     -4.912890   41.997700   41.785600
  C     -5.946710   42.919000   42.005700
  H     -4.763570   41.219400   42.547900
  C     -2.840390   41.496000   40.339100
  H     -2.433670   41.862400   39.349800
  H     -3.176100   40.528400   40.037800
  C     -1.783000   41.565700   41.448000
  H     -2.268880   41.069400   42.233700
  H     -1.023090   40.938700   41.062700
  C     -1.254010   42.960100   41.754800
  H     -0.711814   42.787000   42.746100
  H     -0.547781   43.215300   40.907000
  H     -2.056180   43.651500   41.825400
  S     -8.664010   42.770400   42.549000
  C     -9.106690   42.766800   44.249700
  C     -7.998030   42.630800   45.110000
  C     -6.765790   42.813300   44.463000
  C     -6.911600   42.911700   43.086000
  H     -8.011770   42.609100   46.194300
  C     -5.476760   42.904100   45.281200
  H     -4.707810   43.021000   44.584600
  H     -5.246970   41.862100   45.665400
  C     -5.452420   43.949300   46.400700
  H     -5.731750   43.459100   47.318100
  H     -6.215850   44.752300   46.304800
  C     -4.099430   44.643100   46.410600
  H     -3.922480   45.393800   47.205000
  H     -4.029690   45.052700   45.390000
  H     -3.357840   43.881600   46.690000
  H     -4.248950   43.680900   38.852300
  H    -10.127300   42.838200   44.686200

 Total Charge           Charge          ....    0
 Multiplicity           Mult            ....    1
 Number of Electrons    NEL             ....  134
 Basis Dimension        Dim             ....  322

ORBITAL ENERGIES
----------------

  NO   OCC          E(Eh)            E(eV)
   0   2.0000     -88.969319     -2420.9782
   1   2.0000     -88.962244     -2420.7857
   2   2.0000     -10.332117      -281.1512
   3   2.0000     -10.331269      -281.1281
   4   2.0000     -10.325238      -280.9640
   5   2.0000     -10.319593      -280.8104
   6   2.0000     -10.305605      -280.4298
   7   2.0000     -10.303870      -280.3826
   8   2.0000     -10.300349      -280.2867
   9   2.0000     -10.294004      -280.1141
  10   2.0000     -10.292798      -280.0813
  11   2.0000     -10.288628      -279.9678
  12   2.0000     -10.288206      -279.9563
  13   2.0000     -10.284942      -279.8675
  14   2.0000     -10.282689      -279.8062
  15   2.0000     -10.279328      -279.7147
  16   2.0000      -8.082536      -219.9370
  17   2.0000      -8.076803      -219.7810
  18   2.0000      -6.041115      -164.3871
  19   2.0000      -6.037487      -164.2884
  20   2.0000      -6.035411      -164.2319
  21   2.0000      -6.033062      -164.1680
  22   2.0000      -6.031180      -164.1167
  23   2.0000      -6.027606      -164.0195
  24   2.0000      -0.997722       -27.1494
  25   2.0000      -0.976304       -26.5666
  26   2.0000      -0.915042       -24.8996
  27   2.0000      -0.912034       -24.8177
  28   2.0000      -0.866856       -23.5883
  29   2.0000      -0.854628       -23.2556
  30   2.0000      -0.841742       -22.9050
  31   2.0000      -0.807151       -21.9637
  32   2.0000      -0.781761       -21.2728
  33   2.0000      -0.769712       -20.9449
  34   2.0000      -0.709019       -19.2934
  35   2.0000      -0.701666       -19.0933
  36   2.0000      -0.693263       -18.8647
  37   2.0000      -0.657664       -17.8960
  38   2.0000      -0.639416       -17.3994
  39   2.0000      -0.614983       -16.7345
  40   2.0000      -0.595452       -16.2031
  41   2.0000      -0.572777       -15.5861
  42   2.0000      -0.564697       -15.3662
  43   2.0000      -0.551592       -15.0096
  44   2.0000      -0.541570       -14.7369
  45   2.0000      -0.524400       -14.2697
  46   2.0000      -0.517990       -14.0952
  47   2.0000      -0.511109       -13.9080
  48   2.0000      -0.499001       -13.5785
  49   2.0000      -0.497851       -13.5472
  50   2.0000      -0.488471       -13.2920
  51   2.0000      -0.482107       -13.1188
  52   2.0000      -0.467935       -12.7332
  53   2.0000      -0.461166       -12.5490
  54   2.0000      -0.459694       -12.5089
  55   2.0000      -0.446390       -12.1469
  56   2.0000      -0.442235       -12.0338
  57   2.0000      -0.435227       -11.8431
  58   2.0000      -0.431822       -11.7505
  59   2.0000      -0.429819       -11.6960
  60   2.0000      -0.418372       -11.3845
  61   2.0000      -0.415591       -11.3088
  62   2.0000      -0.408792       -11.1238
  63   2.0000      -0.343909        -9.3582
  64   2.0000      -0.335613        -9.1325
  65   2.0000      -0.321862        -8.7583
  66   2.0000      -0.288871        -7.8606
  67   0.0000       0.023346         0.6353
  68   0.0000       0.066491         1.8093
  69   0.0000       0.101109         2.7513
  70   0.0000       0.121728         3.3124
  71   0.0000       0.126654         3.4464

MULLIKEN ATOMIC CHARGES
-----------------------
   0 S :    0.092848
   1 C :   -0.121176
   2 C :   -0.122390
   3 C :    0.021461
   4 C :   -0.171076
   5 H :    0.027231
   6 C :    0.050929
   7 H :    0.003034
   8 H :    0.028051
   9 C :   -0.032229
  10 H :    0.015067
  11 H :    0.023083
  12 C :   -0.052288
  13 H :    0.052446
  14 H :    0.043666
  15 H :    0.046739
  16 S :    0.106461
  17 C :   -0.095827
  18 C :   -0.029358
  19 C :   -0.065774
  20 C :   -0.154711
  21 H :    0.016659
  22 C :    0.096764
  23 H :   -0.005768
  24 H :    0.043295
  25 C :   -0.072451
  26 H :    0.024287
  27 H :    0.044939
  28 C :   -0.076001
  29 H :    0.037750
  30 H :    0.057824
  31 H :    0.032008
  32 H :    0.063219
  33 H :    0.071288
Sum of atomic charges:   -0.0000000

LOEWDIN ATOMIC CHARGES
----------------------
   0 S :    0.390797
   1 C :   -0.204075
   2 C :   -0.067555
   3 C :   -0.064963
   4 C :   -0.194563
   5 H :    0.032922
   6 C :   -0.039765
   7 H :    0.027322
   8 H :    0.030734
   9 C :   -0.036270
  10 H :    0.014067
  11 H :    0.023374
  12 C :   -0.060585
  13 H :    0.040498
  14 H :    0.035470
  15 H :    0.021608
  16 S :    0.373253
  17 C :   -0.182900
  18 C :   -0.072715
  19 C :   -0.050549
  20 C :   -0.176410
  21 H :    0.030066
  22 C :   -0.027160
  23 H :    0.017054
  24 H :    0.043264
  25 C :   -0.045772
  26 H :    0.018546
  27 H :    0.029659
  28 C :   -0.066162
  29 H :    0.027044
  30 H :    0.034841
  31 H :    0.025941
  32 H :    0.035293
  33 H :    0.037693

  Mayer bond orders larger than 0.100000
B(  0-S ,  1-C ) :   1.1404 B(  0-S ,  4-C ) :   1.1413 B(  1-C ,  2-C ) :   1.5930
B(  1-C , 32-H ) :   0.9675 B(  2-C ,  3-C ) :   1.2240 B(  2-C ,  6-C ) :   1.0244
B(  3-C ,  4-C ) :   1.5642 B(  3-C ,  5-H ) :   0.9855 B(  4-C , 20-C ) :   1.0603
B(  6-C ,  7-H ) :   0.9377 B(  6-C ,  8-H ) :   0.9315 B(  6-C ,  9-C ) :   1.0614
B(  9-C , 10-H ) :   0.9556 B(  9-C , 11-H ) :   0.9517 B(  9-C , 12-C ) :   1.0654
B( 12-C , 13-H ) :   0.9732 B( 12-C , 14-H ) :   0.9739 B( 12-C , 15-H ) :   0.9789
B( 16-S , 17-C ) :   1.1526 B( 16-S , 20-C ) :   1.1100 B( 17-C , 18-C ) :   1.6018
B( 17-C , 20-C ) :   0.1051 B( 17-C , 33-H ) :   0.9617 B( 18-C , 19-C ) :   1.2541
B( 18-C , 21-H ) :   0.9808 B( 19-C , 20-C ) :   1.6183 B( 19-C , 22-C ) :   1.0389
B( 22-C , 23-H ) :   0.9338 B( 22-C , 24-H ) :   0.9279 B( 22-C , 25-C ) :   1.0263
B( 25-C , 26-H ) :   0.9508 B( 25-C , 27-H ) :   0.9689 B( 25-C , 28-C ) :   1.0801
B( 28-C , 29-H ) :   0.9749 B( 28-C , 30-H ) :   0.9770 B( 28-C , 31-H ) :   0.9746

Dispersion correction           -0.014365726
FINAL SINGLE POINT ENERGY     -1339.862779903121

DIPOLE MOMENT
-------------
                                X             Y             Z
Electronic contribution:    -26.04194       0.74570     -13.70461
Nuclear contribution   :     26.60730      -1.00947      14.16455
                        -----------------------------------------
Total Dipole Moment    :      0.56536      -0.26377       0.45994
                        -----------------------------------------
Magnitude (a.u.)       :      0.77508
Magnitude (Debye)      :      1.97011

Rotational constants in cm-1:     0.016720     0.009792     0.006970
Rotational constants in MHz :   501.266963   293.567663   208.942441

                             ****ORCA TERMINATED NORMALLY****
TOTAL RUN TIME: 0 days 0 hours 0 minutes 34 seconds 375 msec
