                         Program Version 4.2.1 -  RELEASE  -
|  1> ! wB97X-D3 SP def2-SVP
|  2> %pal
|  3> nprocs 16
|  4> end
|  5>
|  6> * xyz 0 1
|  7> S 	 -23.7835 	 31.9627 	 45.7391
|  8> C 	 -22.3663 	 31.6618 	 46.6855
|  9> C 	 -21.7643 	 30.4845 	 46.2907
| 10> C 	 -22.5458 	 29.7844 	 45.3462
| 11> C 	 -23.5946 	 30.5041 	 44.8155
| 12> H 	 -22.373 	 28.7941 	 44.9215
| 13> C 	 -20.5785 	 29.9248 	 46.9678
| 14> H 	 -20.2001 	 29.0341 	 46.5256
| 15> H 	 -21.0391 	 29.5298 	 47.8742
| 16> C 	 -19.5377 	 30.9515 	 47.2827
| 17> H 	 -19.3404 	 31.5441 	 46.3967
| 18> H 	 -19.8581 	 31.6408 	 48.0642
| 19> C 	 -18.2214 	 30.199 	 47.6686
| 20> H 	 -17.9005 	 29.6029 	 46.7966
| 21> H 	 -17.4351 	 30.8652 	 47.9689
| 22> H 	 -18.354 	 29.407 	 48.4679
| 23> S 	 -26.3659 	 30.0022 	 44.1649
| 24> C 	 -26.6785 	 29.5206 	 42.5075
| 25> C 	 -25.5053 	 29.1848 	 41.8838
| 26> C 	 -24.3104 	 29.4999 	 42.6112
| 27> C 	 -24.5887 	 30.111 	 43.8198
| 28> H 	 -25.5791 	 28.756 	 40.8479
| 29> C 	 -22.9924 	 29.3947 	 41.8783
| 30> H 	 -23.09 	 28.9857 	 40.8949
| 31> H 	 -22.3058 	 28.6935 	 42.3925
| 32> C 	 -22.2842 	 30.7385 	 41.6427
| 33> H 	 -22.0726 	 31.0956 	 42.6859
| 34> H 	 -22.8612 	 31.4778 	 41.1379
| 35> C 	 -21.0058 	 30.4529 	 40.8658
| 36> H 	 -20.6695 	 29.4257 	 40.9581
| 37> H 	 -20.233 	 31.0794 	 41.3059
| 38> H 	 -21.1681 	 30.7591 	 39.8407
| 39> H 	 -21.9521 	 32.4172 	 47.3808
| 40> H 	 -27.6175 	 29.1517 	 42.194
| 41> *
| 42>
| 43>                          ****END OF INPUT****

CARTESIAN COORDINATES (ANGSTROEM)
---------------------------------
  S    -23.783500   31.962700   45.739100
  C    -22.366300   31.661800   46.685500
  C    -21.764300   30.484500   46.290700
  C    -22.545800   29.784400   45.346200
  C    -23.594600   30.504100   44.815500
  H    -22.373000   28.794100   44.921500
  C    -20.578500   29.924800   46.967800
  H    -20.200100   29.034100   46.525600
  H    -21.039100   29.529800   47.874200
  C    -19.537700   30.951500   47.282700
  H    -19.340400   31.544100   46.396700
  H    -19.858100   31.640800   48.064200
  C    -18.221400   30.199000   47.668600
  H    -17.900500   29.602900   46.796600
  H    -17.435100   30.865200   47.968900
  H    -18.354000   29.407000   48.467900
  S    -26.365900   30.002200   44.164900
  C    -26.678500   29.520600   42.507500
  C    -25.505300   29.184800   41.883800
  C    -24.310400   29.499900   42.611200
  C    -24.588700   30.111000   43.819800
  H    -25.579100   28.756000   40.847900
  C    -22.992400   29.394700   41.878300
  H    -23.090000   28.985700   40.894900
  H    -22.305800   28.693500   42.392500
  C    -22.284200   30.738500   41.642700
  H    -22.072600   31.095600   42.685900
  H    -22.861200   31.477800   41.137900
  C    -21.005800   30.452900   40.865800
  H    -20.669500   29.425700   40.958100
  H    -20.233000   31.079400   41.305900
  H    -21.168100   30.759100   39.840700
  H    -21.952100   32.417200   47.380800
  H    -27.617500   29.151700   42.194000

 Total Charge           Charge          ....    0
 Multiplicity           Mult            ....    1
 Number of Electrons    NEL             ....  134
 Basis Dimension        Dim             ....  322

ORBITAL ENERGIES
----------------

  NO   OCC          E(Eh)            E(eV)
   0   2.0000     -88.964744     -2420.8538
   1   2.0000     -88.962259     -2420.7861
   2   2.0000     -10.331075      -281.1228
   3   2.0000     -10.326609      -281.0013
   4   2.0000     -10.313312      -280.6395
   5   2.0000     -10.311937      -280.6021
   6   2.0000     -10.302463      -280.3443
   7   2.0000     -10.297299      -280.2037
   8   2.0000     -10.295117      -280.1444
   9   2.0000     -10.292356      -280.0692
  10   2.0000     -10.289044      -279.9791
  11   2.0000     -10.288777      -279.9719
  12   2.0000     -10.284975      -279.8684
  13   2.0000     -10.283561      -279.8299
  14   2.0000     -10.278561      -279.6939
  15   2.0000     -10.271742      -279.5083
  16   2.0000      -8.078513      -219.8275
  17   2.0000      -8.077624      -219.8033
  18   2.0000      -6.037129      -164.2786
  19   2.0000      -6.035946      -164.2464
  20   2.0000      -6.033332      -164.1753
  21   2.0000      -6.031945      -164.1376
  22   2.0000      -6.029020      -164.0580
  23   2.0000      -6.028645      -164.0478
  24   2.0000      -1.007830       -27.4245
  25   2.0000      -0.984437       -26.7879
  26   2.0000      -0.922209       -25.0946
  27   2.0000      -0.910795       -24.7840
  28   2.0000      -0.868084       -23.6218
  29   2.0000      -0.851956       -23.1829
  30   2.0000      -0.844968       -22.9927
  31   2.0000      -0.813195       -22.1282
  32   2.0000      -0.780329       -21.2338
  33   2.0000      -0.768778       -20.9195
  34   2.0000      -0.715161       -19.4605
  35   2.0000      -0.703678       -19.1481
  36   2.0000      -0.687470       -18.7070
  37   2.0000      -0.658289       -17.9129
  38   2.0000      -0.641153       -17.4467
  39   2.0000      -0.614281       -16.7154
  40   2.0000      -0.597937       -16.2707
  41   2.0000      -0.576511       -15.6877
  42   2.0000      -0.568167       -15.4606
  43   2.0000      -0.565281       -15.3821
  44   2.0000      -0.527139       -14.3442
  45   2.0000      -0.523293       -14.2395
  46   2.0000      -0.519589       -14.1387
  47   2.0000      -0.515033       -14.0148
  48   2.0000      -0.504814       -13.7367
  49   2.0000      -0.496522       -13.5110
  50   2.0000      -0.488041       -13.2803
  51   2.0000      -0.479724       -13.0540
  52   2.0000      -0.477647       -12.9974
  53   2.0000      -0.459007       -12.4902
  54   2.0000      -0.457233       -12.4419
  55   2.0000      -0.452315       -12.3081
  56   2.0000      -0.446883       -12.1603
  57   2.0000      -0.437478       -11.9044
  58   2.0000      -0.435515       -11.8510
  59   2.0000      -0.425607       -11.5814
  60   2.0000      -0.420634       -11.4460
  61   2.0000      -0.419455       -11.4140
  62   2.0000      -0.399932       -10.8827
  63   2.0000      -0.347152        -9.4465
  64   2.0000      -0.329874        -8.9763
  65   2.0000      -0.326613        -8.8876
  66   2.0000      -0.292484        -7.9589
  67   0.0000       0.026018         0.7080
  68   0.0000       0.067923         1.8483
  69   0.0000       0.110638         3.0106
  70   0.0000       0.127305         3.4641
  71   0.0000       0.129984         3.5370

MULLIKEN ATOMIC CHARGES
-----------------------
   0 S :    0.110812
   1 C :   -0.147169
   2 C :   -0.090979
   3 C :    0.027856
   4 C :   -0.200625
   5 H :    0.013530
   6 C :    0.095566
   7 H :   -0.000029
   8 H :    0.040594
   9 C :   -0.087361
  10 H :    0.036935
  11 H :    0.037059
  12 C :   -0.059118
  13 H :    0.032547
  14 H :    0.035503
  15 H :    0.033595
  16 S :    0.095796
  17 C :   -0.067062
  18 C :   -0.070401
  19 C :   -0.001533
  20 C :   -0.125252
  21 H :    0.039214
  22 C :    0.044264
  23 H :    0.009551
  24 H :    0.027718
  25 C :   -0.094718
  26 H :    0.048972
  27 H :    0.030547
  28 C :   -0.028060
  29 H :    0.028534
  30 H :    0.029624
  31 H :    0.037669
  32 H :    0.068515
  33 H :    0.047904
Sum of atomic charges:    0.0000000

LOEWDIN ATOMIC CHARGES
----------------------
   0 S :    0.422063
   1 C :   -0.211563
   2 C :   -0.065524
   3 C :   -0.065270
   4 C :   -0.199226
   5 H :    0.032654
   6 C :   -0.034816
   7 H :    0.023340
   8 H :    0.043676
   9 C :   -0.037028
  10 H :    0.026325
  11 H :    0.023699
  12 C :   -0.067221
  13 H :    0.026799
  14 H :    0.020916
  15 H :    0.029450
  16 S :    0.375335
  17 C :   -0.178387
  18 C :   -0.074142
  19 C :   -0.054795
  20 C :   -0.182850
  21 H :    0.039827
  22 C :   -0.032423
  23 H :    0.023028
  24 H :    0.029620
  25 C :   -0.035900
  26 H :    0.028442
  27 H :    0.020903
  28 C :   -0.063196
  29 H :    0.022701
  30 H :    0.029558
  31 H :    0.026821
  32 H :    0.034337
  33 H :    0.022847

  Mayer bond orders larger than 0.100000
B(  0-S ,  1-C ) :   1.1537 B(  0-S ,  4-C ) :   1.1655 B(  1-C ,  2-C ) :   1.5679
B(  1-C ,  4-C ) :   0.1008 B(  1-C , 32-H ) :   0.9663 B(  2-C ,  3-C ) :   1.2573
B(  2-C ,  6-C ) :   1.0230 B(  3-C ,  4-C ) :   1.5587 B(  3-C ,  5-H ) :   0.9922
B(  4-C , 20-C ) :   1.0497 B(  6-C ,  7-H ) :   0.9468 B(  6-C ,  8-H ) :   0.9185
B(  6-C ,  9-C ) :   1.0597 B(  9-C , 10-H ) :   0.9661 B(  9-C , 11-H ) :   0.9458
B(  9-C , 12-C ) :   1.0819 B( 12-C , 13-H ) :   0.9762 B( 12-C , 14-H ) :   0.9750
B( 12-C , 15-H ) :   0.9739 B( 16-S , 17-C ) :   1.1384 B( 16-S , 20-C ) :   1.1267
B( 17-C , 18-C ) :   1.6356 B( 17-C , 33-H ) :   0.9660 B( 18-C , 19-C ) :   1.2375
B( 18-C , 21-H ) :   0.9782 B( 19-C , 20-C ) :   1.5929 B( 19-C , 22-C ) :   1.0440
B( 22-C , 23-H ) :   0.9433 B( 22-C , 24-H ) :   0.9235 B( 22-C , 25-C ) :   1.0661
B( 25-C , 26-H ) :   0.9583 B( 25-C , 27-H ) :   0.9610 B( 25-C , 28-C ) :   1.0715
B( 28-C , 29-H ) :   0.9740 B( 28-C , 30-H ) :   0.9730 B( 28-C , 31-H ) :   0.9774

Dispersion correction           -0.014180319
FINAL SINGLE POINT ENERGY     -1339.878412423490

DIPOLE MOMENT
-------------
                                X             Y             Z
Electronic contribution:    -29.64424       3.90320       3.39172
Nuclear contribution   :     30.26630      -4.27087      -3.54985
                        -----------------------------------------
Total Dipole Moment    :      0.62206      -0.36767      -0.15814
                        -----------------------------------------
Magnitude (a.u.)       :      0.73970
Magnitude (Debye)      :      1.88016

Rotational constants in cm-1:     0.020440     0.008221     0.006539
Rotational constants in MHz :   612.770360   246.457061   196.022773

                             ****ORCA TERMINATED NORMALLY****
TOTAL RUN TIME: 0 days 0 hours 0 minutes 31 seconds 856 msec
