                         Program Version 4.2.1 -  RELEASE  -
|  1> ! wB97X-D3 SP def2-SVP
|  2> %pal
|  3> nprocs 16
|  4> end
|  5>
|  6> * xyz 0 1
|  7> S 	 -73.3796 	 45.9393 	 121.986
|  8> C 	 -74.8244 	 45.7673 	 121.135
|  9> C 	 -75.8975 	 46.3056 	 121.835
| 10> C 	 -75.4257 	 47.1263 	 122.888
| 11> C 	 -74.0486 	 47.158 	 123.039
| 12> H 	 -76.0309 	 47.6575 	 123.593
| 13> C 	 -77.3585 	 46.1431 	 121.514
| 14> H 	 -77.348 	 45.4357 	 120.696
| 15> H 	 -77.6785 	 47.1015 	 121.057
| 16> C 	 -78.2334 	 45.4675 	 122.66
| 17> H 	 -78.3095 	 46.0847 	 123.532
| 18> H 	 -79.2901 	 45.3484 	 122.371
| 19> C 	 -77.6255 	 44.1635 	 123.251
| 20> H 	 -76.8788 	 44.4029 	 124.058
| 21> H 	 -78.4144 	 43.6739 	 123.742
| 22> H 	 -77.1721 	 43.5175 	 122.486
| 23> S 	 -71.624 	 47.1703 	 124.14
| 24> C 	 -71.0789 	 48.4109 	 125.204
| 25> C 	 -72.0262 	 49.3875 	 125.356
| 26> C 	 -73.2571 	 49.0608 	 124.654
| 27> C 	 -73.1529 	 47.8986 	 123.979
| 28> H 	 -71.8684 	 50.246 	 126.019
| 29> C 	 -74.3482 	 50.1172 	 124.601
| 30> H 	 -74.7859 	 50.2854 	 125.559
| 31> H 	 -75.1891 	 49.6494 	 124.069
| 32> C 	 -73.9221 	 51.4262 	 123.948
| 33> H 	 -73.5818 	 51.0437 	 122.938
| 34> H 	 -73.0723 	 51.7967 	 124.502
| 35> C 	 -75.0969 	 52.4087 	 123.682
| 36> H 	 -74.7721 	 53.3424 	 123.283
| 37> H 	 -75.6485 	 52.708 	 124.656
| 38> H 	 -75.7666 	 52.011 	 122.885
| 39> H 	 -74.94 	 45.0691 	 120.292
| 40> H 	 -70.1387 	 48.4501 	 125.723
| 41> *
| 42>
| 43>                          ****END OF INPUT****

CARTESIAN COORDINATES (ANGSTROEM)
---------------------------------
  S    -73.379600   45.939300  121.986000
  C    -74.824400   45.767300  121.135000
  C    -75.897500   46.305600  121.835000
  C    -75.425700   47.126300  122.888000
  C    -74.048600   47.158000  123.039000
  H    -76.030900   47.657500  123.593000
  C    -77.358500   46.143100  121.514000
  H    -77.348000   45.435700  120.696000
  H    -77.678500   47.101500  121.057000
  C    -78.233400   45.467500  122.660000
  H    -78.309500   46.084700  123.532000
  H    -79.290100   45.348400  122.371000
  C    -77.625500   44.163500  123.251000
  H    -76.878800   44.402900  124.058000
  H    -78.414400   43.673900  123.742000
  H    -77.172100   43.517500  122.486000
  S    -71.624000   47.170300  124.140000
  C    -71.078900   48.410900  125.204000
  C    -72.026200   49.387500  125.356000
  C    -73.257100   49.060800  124.654000
  C    -73.152900   47.898600  123.979000
  H    -71.868400   50.246000  126.019000
  C    -74.348200   50.117200  124.601000
  H    -74.785900   50.285400  125.559000
  H    -75.189100   49.649400  124.069000
  C    -73.922100   51.426200  123.948000
  H    -73.581800   51.043700  122.938000
  H    -73.072300   51.796700  124.502000
  C    -75.096900   52.408700  123.682000
  H    -74.772100   53.342400  123.283000
  H    -75.648500   52.708000  124.656000
  H    -75.766600   52.011000  122.885000
  H    -74.940000   45.069100  120.292000
  H    -70.138700   48.450100  125.723000

 Total Charge           Charge          ....    0
 Multiplicity           Mult            ....    1
 Number of Electrons    NEL             ....  134
 Basis Dimension        Dim             ....  322

ORBITAL ENERGIES
----------------

  NO   OCC          E(Eh)            E(eV)
   0   2.0000     -88.963313     -2420.8148
   1   2.0000     -88.963255     -2420.8133
   2   2.0000     -10.330525      -281.1079
   3   2.0000     -10.325200      -280.9630
   4   2.0000     -10.312984      -280.6306
   5   2.0000     -10.310093      -280.5519
   6   2.0000     -10.299734      -280.2700
   7   2.0000     -10.298004      -280.2229
   8   2.0000     -10.296618      -280.1852
   9   2.0000     -10.293745      -280.1070
  10   2.0000     -10.293018      -280.0873
  11   2.0000     -10.290740      -280.0253
  12   2.0000     -10.289392      -279.9886
  13   2.0000     -10.288412      -279.9619
  14   2.0000     -10.286789      -279.9178
  15   2.0000     -10.277922      -279.6765
  16   2.0000      -8.079912      -219.8656
  17   2.0000      -8.079495      -219.8542
  18   2.0000      -6.038502      -164.3160
  19   2.0000      -6.037935      -164.3006
  20   2.0000      -6.034219      -164.1994
  21   2.0000      -6.033899      -164.1907
  22   2.0000      -6.030410      -164.0958
  23   2.0000      -6.030134      -164.0883
  24   2.0000      -1.017861       -27.6974
  25   2.0000      -0.994697       -27.0671
  26   2.0000      -0.910728       -24.7822
  27   2.0000      -0.905336       -24.6354
  28   2.0000      -0.869000       -23.6467
  29   2.0000      -0.852508       -23.1979
  30   2.0000      -0.843578       -22.9549
  31   2.0000      -0.819124       -22.2895
  32   2.0000      -0.780981       -21.2516
  33   2.0000      -0.773170       -21.0390
  34   2.0000      -0.708244       -19.2723
  35   2.0000      -0.698029       -18.9943
  36   2.0000      -0.691143       -18.8070
  37   2.0000      -0.664411       -18.0795
  38   2.0000      -0.639135       -17.3918
  39   2.0000      -0.624776       -17.0010
  40   2.0000      -0.598211       -16.2781
  41   2.0000      -0.565871       -15.3981
  42   2.0000      -0.559926       -15.2364
  43   2.0000      -0.555479       -15.1153
  44   2.0000      -0.536187       -14.5904
  45   2.0000      -0.521800       -14.1989
  46   2.0000      -0.515206       -14.0195
  47   2.0000      -0.512364       -13.9421
  48   2.0000      -0.501944       -13.6586
  49   2.0000      -0.498524       -13.5655
  50   2.0000      -0.488239       -13.2857
  51   2.0000      -0.484446       -13.1824
  52   2.0000      -0.469218       -12.7681
  53   2.0000      -0.468123       -12.7383
  54   2.0000      -0.459144       -12.4940
  55   2.0000      -0.454945       -12.3797
  56   2.0000      -0.443242       -12.0612
  57   2.0000      -0.440638       -11.9904
  58   2.0000      -0.430698       -11.7199
  59   2.0000      -0.423874       -11.5342
  60   2.0000      -0.416299       -11.3281
  61   2.0000      -0.414222       -11.2715
  62   2.0000      -0.412897       -11.2355
  63   2.0000      -0.363307        -9.8861
  64   2.0000      -0.335666        -9.1339
  65   2.0000      -0.323424        -8.8008
  66   2.0000      -0.285624        -7.7722
  67   0.0000       0.027914         0.7596
  68   0.0000       0.082642         2.2488
  69   0.0000       0.102060         2.7772
  70   0.0000       0.119823         3.2606
  71   0.0000       0.141628         3.8539

MULLIKEN ATOMIC CHARGES
-----------------------
   0 S :    0.101485
   1 C :   -0.110392
   2 C :   -0.125642
   3 C :    0.003045
   4 C :   -0.119422
   5 H :    0.007876
   6 C :    0.089202
   7 H :    0.006647
   8 H :    0.050012
   9 C :   -0.088410
  10 H :    0.023609
  11 H :    0.037624
  12 C :   -0.051590
  13 H :    0.049267
  14 H :    0.024774
  15 H :    0.037357
  16 S :    0.089000
  17 C :   -0.068901
  18 C :   -0.053670
  19 C :   -0.096681
  20 C :   -0.091712
  21 H :    0.029385
  22 C :    0.102421
  23 H :    0.013389
  24 H :   -0.007704
  25 C :   -0.093772
  26 H :    0.043634
  27 H :    0.032993
  28 C :   -0.053064
  29 H :    0.027235
  30 H :    0.042021
  31 H :    0.045860
  32 H :    0.053702
  33 H :    0.050422
Sum of atomic charges:    0.0000000

LOEWDIN ATOMIC CHARGES
----------------------
   0 S :    0.425586
   1 C :   -0.220002
   2 C :   -0.068930
   3 C :   -0.070188
   4 C :   -0.187311
   5 H :    0.024217
   6 C :   -0.033054
   7 H :    0.025486
   8 H :    0.038557
   9 C :   -0.039887
  10 H :    0.019420
  11 H :    0.026693
  12 C :   -0.062543
  13 H :    0.035744
  14 H :    0.020618
  15 H :    0.024889
  16 S :    0.424589
  17 C :   -0.188764
  18 C :   -0.070330
  19 C :   -0.064546
  20 C :   -0.201287
  21 H :    0.034129
  22 C :   -0.033808
  23 H :    0.022259
  24 H :    0.025638
  25 C :   -0.040675
  26 H :    0.036794
  27 H :    0.020041
  28 C :   -0.072262
  29 H :    0.020982
  30 H :    0.033522
  31 H :    0.033851
  32 H :    0.031306
  33 H :    0.029269

  Mayer bond orders larger than 0.100000
B(  0-S ,  1-C ) :   1.1643 B(  0-S ,  4-C ) :   1.1643 B(  1-C ,  2-C ) :   1.5805
B(  1-C ,  4-C ) :   0.1030 B(  1-C , 32-H ) :   0.9613 B(  2-C ,  3-C ) :   1.2580
B(  2-C ,  6-C ) :   1.0205 B(  3-C ,  4-C ) :   1.5646 B(  3-C ,  5-H ) :   0.9963
B(  4-C , 20-C ) :   1.0275 B(  6-C ,  7-H ) :   0.9385 B(  6-C ,  8-H ) :   0.9458
B(  6-C ,  9-C ) :   1.0478 B(  9-C , 10-H ) :   0.9600 B(  9-C , 11-H ) :   0.9658
B(  9-C , 12-C ) :   1.0662 B( 12-C , 13-H ) :   0.9741 B( 12-C , 14-H ) :   0.9727
B( 12-C , 15-H ) :   0.9808 B( 16-S , 17-C ) :   1.1493 B( 16-S , 20-C ) :   1.1341
B( 17-C , 18-C ) :   1.6366 B( 17-C , 33-H ) :   0.9701 B( 18-C , 19-C ) :   1.2087
B( 18-C , 21-H ) :   0.9858 B( 19-C , 20-C ) :   1.6525 B( 19-C , 22-C ) :   1.0473
B( 22-C , 23-H ) :   0.9200 B( 22-C , 24-H ) :   0.9312 B( 22-C , 25-C ) :   1.0540
B( 25-C , 26-H ) :   0.9554 B( 25-C , 27-H ) :   0.9578 B( 25-C , 28-C ) :   1.0808
B( 28-C , 29-H ) :   0.9745 B( 28-C , 30-H ) :   0.9730 B( 28-C , 31-H ) :   0.9727

Dispersion correction           -0.014124244
FINAL SINGLE POINT ENERGY     -1339.875644122435

DIPOLE MOMENT
-------------
                                X             Y             Z
Electronic contribution:     22.88804     -10.27587      -1.41029
Nuclear contribution   :    -23.37502      10.57512       1.58103
                        -----------------------------------------
Total Dipole Moment    :     -0.48698       0.29925       0.17074
                        -----------------------------------------
Magnitude (a.u.)       :      0.59653
Magnitude (Debye)      :      1.51626

Rotational constants in cm-1:     0.018191     0.008792     0.006781
Rotational constants in MHz :   545.340172   263.579276   203.291494

                             ****ORCA TERMINATED NORMALLY****
TOTAL RUN TIME: 0 days 0 hours 0 minutes 33 seconds 242 msec
