                         Program Version 4.2.1 -  RELEASE  -
|  1> ! wB97X-D3 SP def2-SVP
|  2> %pal
|  3> nprocs 16
|  4> end
|  5>
|  6> * xyz 0 1
|  7> S 	 13.3582 	 -13.7599 	 76.6177
|  8> C 	 12.5954 	 -15.259 	 77.1475
|  9> C 	 11.233 	 -15.203 	 77.0263
| 10> C 	 10.762 	 -13.9971 	 76.4804
| 11> C 	 11.7888 	 -13.0568 	 76.3174
| 12> H 	 9.73556 	 -13.7292 	 76.4024
| 13> C 	 10.2797 	 -16.248 	 77.5866
| 14> H 	 10.9288 	 -17.1179 	 77.7309
| 15> H 	 9.63461 	 -16.5125 	 76.7875
| 16> C 	 9.5683 	 -15.9229 	 78.87
| 17> H 	 10.4357 	 -15.8167 	 79.488
| 18> H 	 9.09666 	 -14.9322 	 78.6259
| 19> C 	 8.58545 	 -17.0922 	 79.3305
| 20> H 	 7.78816 	 -17.3543 	 78.6602
| 21> H 	 9.06215 	 -18.0352 	 79.5722
| 22> H 	 8.14163 	 -16.6103 	 80.2086
| 23> S 	 10.4485 	 -10.6573 	 76.7439
| 24> C 	 10.6434 	 -9.4255 	 75.5726
| 25> C 	 11.3248 	 -9.82497 	 74.408
| 26> C 	 11.8968 	 -11.1429 	 74.6125
| 27> C 	 11.5636 	 -11.6534 	 75.8284
| 28> H 	 11.4788 	 -9.23325 	 73.5804
| 29> C 	 12.8659 	 -11.707 	 73.6462
| 30> H 	 12.9973 	 -12.7844 	 73.9223
| 31> H 	 13.7784 	 -11.1664 	 73.769
| 32> C 	 12.4723 	 -11.5598 	 72.1619
| 33> H 	 12.2863 	 -10.5299 	 71.9433
| 34> H 	 11.6852 	 -12.1783 	 71.9542
| 35> C 	 13.6121 	 -11.7646 	 71.1954
| 36> H 	 14.0783 	 -12.7445 	 71.3139
| 37> H 	 14.34 	 -10.898 	 71.3422
| 38> H 	 13.2208 	 -11.6442 	 70.1046
| 39> H 	 13.0927 	 -16.113 	 77.4997
| 40> H 	 10.227 	 -8.43757 	 75.7332
| 41> *
| 42>
| 43>                          ****END OF INPUT****

CARTESIAN COORDINATES (ANGSTROEM)
---------------------------------
  S     13.358200  -13.759900   76.617700
  C     12.595400  -15.259000   77.147500
  C     11.233000  -15.203000   77.026300
  C     10.762000  -13.997100   76.480400
  C     11.788800  -13.056800   76.317400
  H      9.735560  -13.729200   76.402400
  C     10.279700  -16.248000   77.586600
  H     10.928800  -17.117900   77.730900
  H      9.634610  -16.512500   76.787500
  C      9.568300  -15.922900   78.870000
  H     10.435700  -15.816700   79.488000
  H      9.096660  -14.932200   78.625900
  C      8.585450  -17.092200   79.330500
  H      7.788160  -17.354300   78.660200
  H      9.062150  -18.035200   79.572200
  H      8.141630  -16.610300   80.208600
  S     10.448500  -10.657300   76.743900
  C     10.643400   -9.425500   75.572600
  C     11.324800   -9.824970   74.408000
  C     11.896800  -11.142900   74.612500
  C     11.563600  -11.653400   75.828400
  H     11.478800   -9.233250   73.580400
  C     12.865900  -11.707000   73.646200
  H     12.997300  -12.784400   73.922300
  H     13.778400  -11.166400   73.769000
  C     12.472300  -11.559800   72.161900
  H     12.286300  -10.529900   71.943300
  H     11.685200  -12.178300   71.954200
  C     13.612100  -11.764600   71.195400
  H     14.078300  -12.744500   71.313900
  H     14.340000  -10.898000   71.342200
  H     13.220800  -11.644200   70.104600
  H     13.092700  -16.113000   77.499700
  H     10.227000   -8.437570   75.733200

 Total Charge           Charge          ....    0
 Multiplicity           Mult            ....    1
 Number of Electrons    NEL             ....  134
 Basis Dimension        Dim             ....  322

ORBITAL ENERGIES
----------------

  NO   OCC          E(Eh)            E(eV)
   0   2.0000     -88.969107     -2420.9725
   1   2.0000     -88.966838     -2420.9107
   2   2.0000     -10.331093      -281.1233
   3   2.0000     -10.321255      -280.8556
   4   2.0000     -10.318301      -280.7752
   5   2.0000     -10.306869      -280.4642
   6   2.0000     -10.297947      -280.2214
   7   2.0000     -10.292373      -280.0697
   8   2.0000     -10.291688      -280.0511
   9   2.0000     -10.290909      -280.0299
  10   2.0000     -10.287939      -279.9491
  11   2.0000     -10.287494      -279.9369
  12   2.0000     -10.286644      -279.9138
  13   2.0000     -10.283734      -279.8346
  14   2.0000     -10.280064      -279.7348
  15   2.0000     -10.274725      -279.5895
  16   2.0000      -8.083049      -219.9510
  17   2.0000      -8.082299      -219.9305
  18   2.0000      -6.041504      -164.3977
  19   2.0000      -6.040678      -164.3752
  20   2.0000      -6.037648      -164.2928
  21   2.0000      -6.036810      -164.2699
  22   2.0000      -6.033954      -164.1922
  23   2.0000      -6.033068      -164.1681
  24   2.0000      -1.006098       -27.3773
  25   2.0000      -0.985847       -26.8263
  26   2.0000      -0.916701       -24.9447
  27   2.0000      -0.911672       -24.8079
  28   2.0000      -0.863499       -23.4970
  29   2.0000      -0.856283       -23.3006
  30   2.0000      -0.846147       -23.0248
  31   2.0000      -0.810694       -22.0601
  32   2.0000      -0.783115       -21.3097
  33   2.0000      -0.771775       -21.0011
  34   2.0000      -0.703024       -19.1302
  35   2.0000      -0.700369       -19.0580
  36   2.0000      -0.691182       -18.8080
  37   2.0000      -0.665864       -18.1191
  38   2.0000      -0.639665       -17.4062
  39   2.0000      -0.615248       -16.7418
  40   2.0000      -0.598933       -16.2978
  41   2.0000      -0.583421       -15.8757
  42   2.0000      -0.570416       -15.5218
  43   2.0000      -0.559393       -15.2219
  44   2.0000      -0.529299       -14.4030
  45   2.0000      -0.523782       -14.2528
  46   2.0000      -0.516186       -14.0461
  47   2.0000      -0.515094       -14.0164
  48   2.0000      -0.503957       -13.7134
  49   2.0000      -0.499674       -13.5968
  50   2.0000      -0.484868       -13.1939
  51   2.0000      -0.472730       -12.8636
  52   2.0000      -0.470788       -12.8108
  53   2.0000      -0.464445       -12.6382
  54   2.0000      -0.460610       -12.5338
  55   2.0000      -0.457501       -12.4492
  56   2.0000      -0.446718       -12.1558
  57   2.0000      -0.439233       -11.9521
  58   2.0000      -0.430976       -11.7275
  59   2.0000      -0.422731       -11.5031
  60   2.0000      -0.421580       -11.4718
  61   2.0000      -0.415022       -11.2933
  62   2.0000      -0.412940       -11.2367
  63   2.0000      -0.338205        -9.2030
  64   2.0000      -0.331876        -9.0308
  65   2.0000      -0.328666        -8.9435
  66   2.0000      -0.296148        -8.0586
  67   0.0000       0.041618         1.1325
  68   0.0000       0.062354         1.6967
  69   0.0000       0.111153         3.0246
  70   0.0000       0.118240         3.2175
  71   0.0000       0.128194         3.4883

MULLIKEN ATOMIC CHARGES
-----------------------
   0 S :    0.116764
   1 C :   -0.108205
   2 C :   -0.095512
   3 C :    0.040636
   4 C :   -0.185300
   5 H :    0.004765
   6 C :    0.068836
   7 H :   -0.000688
   8 H :    0.013450
   9 C :   -0.062508
  10 H :    0.029227
  11 H :    0.037836
  12 C :   -0.036577
  13 H :    0.032458
  14 H :    0.036690
  15 H :    0.043035
  16 S :    0.119471
  17 C :   -0.090941
  18 C :   -0.000786
  19 C :   -0.011296
  20 C :   -0.174636
  21 H :   -0.010669
  22 C :    0.076986
  23 H :    0.036520
  24 H :    0.027231
  25 C :   -0.052843
  26 H :    0.019088
  27 H :    0.020170
  28 C :   -0.096479
  29 H :    0.039881
  30 H :    0.038275
  31 H :    0.046555
  32 H :    0.021883
  33 H :    0.056683
Sum of atomic charges:   -0.0000000

LOEWDIN ATOMIC CHARGES
----------------------
   0 S :    0.409398
   1 C :   -0.193791
   2 C :   -0.062661
   3 C :   -0.066925
   4 C :   -0.187750
   5 H :    0.024502
   6 C :   -0.035362
   7 H :    0.022685
   8 H :    0.019729
   9 C :   -0.035904
  10 H :    0.026681
  11 H :    0.030897
  12 C :   -0.061930
  13 H :    0.023910
  14 H :    0.027019
  15 H :    0.033023
  16 S :    0.420835
  17 C :   -0.186092
  18 C :   -0.058702
  19 C :   -0.050441
  20 C :   -0.206481
  21 H :    0.014984
  22 C :   -0.031439
  23 H :    0.030936
  24 H :    0.031939
  25 C :   -0.034453
  26 H :    0.022284
  27 H :    0.013312
  28 C :   -0.069015
  29 H :    0.020543
  30 H :    0.029572
  31 H :    0.036290
  32 H :    0.017158
  33 H :    0.025251

  Mayer bond orders larger than 0.100000
B(  0-S ,  1-C ) :   1.1251 B(  0-S ,  4-C ) :   1.1678 B(  1-C ,  2-C ) :   1.6184
B(  1-C , 32-H ) :   0.9709 B(  2-C ,  3-C ) :   1.2518 B(  2-C ,  6-C ) :   1.0247
B(  3-C ,  4-C ) :   1.5636 B(  3-C ,  5-H ) :   0.9950 B(  4-C , 20-C ) :   0.9882
B(  6-C ,  7-H ) :   0.9386 B(  6-C ,  8-H ) :   0.9315 B(  6-C ,  9-C ) :   1.0498
B(  9-C , 10-H ) :   0.9550 B(  9-C , 11-H ) :   0.9584 B(  9-C , 12-C ) :   1.0630
B( 12-C , 13-H ) :   0.9783 B( 12-C , 14-H ) :   0.9763 B( 12-C , 15-H ) :   0.9777
B( 16-S , 17-C ) :   1.1749 B( 16-S , 20-C ) :   1.1330 B( 17-C , 18-C ) :   1.5959
B( 17-C , 33-H ) :   0.9672 B( 18-C , 19-C ) :   1.2196 B( 18-C , 21-H ) :   1.0036
B( 19-C , 20-C ) :   1.6254 B( 19-C , 22-C ) :   1.0508 B( 22-C , 23-H ) :   0.9223
B( 22-C , 24-H ) :   0.9316 B( 22-C , 25-C ) :   1.0686 B( 25-C , 26-H ) :   0.9541
B( 25-C , 27-H ) :   0.9592 B( 25-C , 28-C ) :   1.0816 B( 28-C , 29-H ) :   0.9732
B( 28-C , 30-H ) :   0.9762 B( 28-C , 31-H ) :   0.9735

Dispersion correction           -0.013674548
FINAL SINGLE POINT ENERGY     -1339.863013300252

DIPOLE MOMENT
-------------
                                X             Y             Z
Electronic contribution:      4.42189      12.15712       7.81856
Nuclear contribution   :     -4.64683     -12.26104      -8.04116
                        -----------------------------------------
Total Dipole Moment    :     -0.22494      -0.10392      -0.22260
                        -----------------------------------------
Magnitude (a.u.)       :      0.33309
Magnitude (Debye)      :      0.84664

Rotational constants in cm-1:     0.021104     0.007321     0.006169
Rotational constants in MHz :   632.691707   219.474585   184.942300

                             ****ORCA TERMINATED NORMALLY****
TOTAL RUN TIME: 0 days 0 hours 0 minutes 29 seconds 31 msec
