                         Program Version 4.2.1 -  RELEASE  -
|  1> ! wB97X-D3 SP def2-SVP
|  2> %pal
|  3> nprocs 16
|  4> end
|  5>
|  6> * xyz 0 1
|  7> S 	 -39.2696 	 68.6892 	 142.204
|  8> C 	 -39.265 	 68.5726 	 140.419
|  9> C 	 -38.05 	 68.0299 	 140.07
| 10> C 	 -37.2427 	 67.655 	 141.143
| 11> C 	 -37.7532 	 67.8585 	 142.418
| 12> H 	 -36.2179 	 67.3132 	 141.08
| 13> C 	 -37.6511 	 67.9111 	 138.603
| 14> H 	 -36.5921 	 67.9271 	 138.476
| 15> H 	 -38.0198 	 68.8547 	 138.166
| 16> C 	 -38.1025 	 66.6524 	 137.874
| 17> H 	 -39.1938 	 66.5393 	 137.825
| 18> H 	 -37.6868 	 66.7988 	 136.855
| 19> C 	 -37.565 	 65.2815 	 138.384
| 20> H 	 -36.4627 	 65.2811 	 138.409
| 21> H 	 -37.9436 	 65.1684 	 139.368
| 22> H 	 -38.0603 	 64.381 	 138.013
| 23> S 	 -37.4319 	 69.0301 	 144.962
| 24> C 	 -36.1792 	 68.391 	 145.958
| 25> C 	 -35.673 	 67.2176 	 145.524
| 26> C 	 -36.1332 	 66.8307 	 144.212
| 27> C 	 -37.0559 	 67.7981 	 143.709
| 28> H 	 -34.9903 	 66.5891 	 146.085
| 29> C 	 -35.6561 	 65.592 	 143.53
| 30> H 	 -35.4578 	 65.8543 	 142.508
| 31> H 	 -36.4759 	 64.8301 	 143.58
| 32> C 	 -34.3579 	 64.8489 	 143.976
| 33> H 	 -34.3713 	 63.8597 	 143.599
| 34> H 	 -34.3752 	 64.8163 	 145.036
| 35> C 	 -33.0468 	 65.6044 	 143.448
| 36> H 	 -33.0147 	 66.6239 	 143.8
| 37> H 	 -32.9383 	 65.6309 	 142.382
| 38> H 	 -32.0915 	 65.191 	 143.714
| 39> H 	 -40.1367 	 68.6632 	 139.767
| 40> H 	 -35.8829 	 68.7058 	 146.896
| 41> *
| 42>
| 43>                          ****END OF INPUT****

CARTESIAN COORDINATES (ANGSTROEM)
---------------------------------
  S    -39.269600   68.689200  142.204000
  C    -39.265000   68.572600  140.419000
  C    -38.050000   68.029900  140.070000
  C    -37.242700   67.655000  141.143000
  C    -37.753200   67.858500  142.418000
  H    -36.217900   67.313200  141.080000
  C    -37.651100   67.911100  138.603000
  H    -36.592100   67.927100  138.476000
  H    -38.019800   68.854700  138.166000
  C    -38.102500   66.652400  137.874000
  H    -39.193800   66.539300  137.825000
  H    -37.686800   66.798800  136.855000
  C    -37.565000   65.281500  138.384000
  H    -36.462700   65.281100  138.409000
  H    -37.943600   65.168400  139.368000
  H    -38.060300   64.381000  138.013000
  S    -37.431900   69.030100  144.962000
  C    -36.179200   68.391000  145.958000
  C    -35.673000   67.217600  145.524000
  C    -36.133200   66.830700  144.212000
  C    -37.055900   67.798100  143.709000
  H    -34.990300   66.589100  146.085000
  C    -35.656100   65.592000  143.530000
  H    -35.457800   65.854300  142.508000
  H    -36.475900   64.830100  143.580000
  C    -34.357900   64.848900  143.976000
  H    -34.371300   63.859700  143.599000
  H    -34.375200   64.816300  145.036000
  C    -33.046800   65.604400  143.448000
  H    -33.014700   66.623900  143.800000
  H    -32.938300   65.630900  142.382000
  H    -32.091500   65.191000  143.714000
  H    -40.136700   68.663200  139.767000
  H    -35.882900   68.705800  146.896000

 Total Charge           Charge          ....    0
 Multiplicity           Mult            ....    1
 Number of Electrons    NEL             ....  134
 Basis Dimension        Dim             ....  322

ORBITAL ENERGIES
----------------

  NO   OCC          E(Eh)            E(eV)
   0   2.0000     -88.970808     -2421.0188
   1   2.0000     -88.962421     -2420.7906
   2   2.0000     -10.336760      -281.2775
   3   2.0000     -10.332597      -281.1643
   4   2.0000     -10.315976      -280.7120
   5   2.0000     -10.310211      -280.5551
   6   2.0000     -10.309291      -280.5301
   7   2.0000     -10.297650      -280.2133
   8   2.0000     -10.295544      -280.1560
   9   2.0000     -10.293939      -280.1123
  10   2.0000     -10.291354      -280.0420
  11   2.0000     -10.290892      -280.0294
  12   2.0000     -10.290408      -280.0162
  13   2.0000     -10.289393      -279.9886
  14   2.0000     -10.278455      -279.6910
  15   2.0000     -10.276639      -279.6416
  16   2.0000      -8.085016      -220.0045
  17   2.0000      -8.076816      -219.7813
  18   2.0000      -6.043678      -164.4568
  19   2.0000      -6.039727      -164.3493
  20   2.0000      -6.035512      -164.2346
  21   2.0000      -6.035409      -164.2318
  22   2.0000      -6.031246      -164.1185
  23   2.0000      -6.027614      -164.0197
  24   2.0000      -1.005255       -27.3544
  25   2.0000      -0.985098       -26.8059
  26   2.0000      -0.911193       -24.7948
  27   2.0000      -0.909050       -24.7365
  28   2.0000      -0.869293       -23.6547
  29   2.0000      -0.848820       -23.0976
  30   2.0000      -0.838755       -22.8237
  31   2.0000      -0.818306       -22.2673
  32   2.0000      -0.788693       -21.4614
  33   2.0000      -0.777335       -21.1524
  34   2.0000      -0.718882       -19.5618
  35   2.0000      -0.704320       -19.1655
  36   2.0000      -0.697778       -18.9875
  37   2.0000      -0.654317       -17.8049
  38   2.0000      -0.639099       -17.3908
  39   2.0000      -0.616093       -16.7647
  40   2.0000      -0.601723       -16.3737
  41   2.0000      -0.581360       -15.8196
  42   2.0000      -0.557114       -15.1599
  43   2.0000      -0.551377       -15.0037
  44   2.0000      -0.541596       -14.7376
  45   2.0000      -0.532950       -14.5023
  46   2.0000      -0.519620       -14.1396
  47   2.0000      -0.509881       -13.8746
  48   2.0000      -0.505502       -13.7554
  49   2.0000      -0.498743       -13.5715
  50   2.0000      -0.489133       -13.3100
  51   2.0000      -0.478275       -13.0145
  52   2.0000      -0.473929       -12.8963
  53   2.0000      -0.465806       -12.6752
  54   2.0000      -0.461001       -12.5445
  55   2.0000      -0.457072       -12.4376
  56   2.0000      -0.449061       -12.2196
  57   2.0000      -0.441511       -12.0141
  58   2.0000      -0.435857       -11.8603
  59   2.0000      -0.427873       -11.6430
  60   2.0000      -0.416305       -11.3282
  61   2.0000      -0.410454       -11.1690
  62   2.0000      -0.403641       -10.9836
  63   2.0000      -0.357830        -9.7371
  64   2.0000      -0.334403        -9.0996
  65   2.0000      -0.328401        -8.9362
  66   2.0000      -0.281951        -7.6723
  67   0.0000       0.018003         0.4899
  68   0.0000       0.071828         1.9545
  69   0.0000       0.104297         2.8381
  70   0.0000       0.123098         3.3497
  71   0.0000       0.132942         3.6175

MULLIKEN ATOMIC CHARGES
-----------------------
   0 S :    0.075581
   1 C :   -0.130621
   2 C :   -0.088847
   3 C :    0.007036
   4 C :   -0.121487
   5 H :    0.007361
   6 C :    0.076465
   7 H :    0.011676
   8 H :    0.036885
   9 C :   -0.079766
  10 H :    0.026760
  11 H :    0.035059
  12 C :   -0.044388
  13 H :    0.035851
  14 H :    0.017647
  15 H :    0.033791
  16 S :    0.117251
  17 C :   -0.024191
  18 C :   -0.046653
  19 C :   -0.048651
  20 C :   -0.150907
  21 H :    0.014591
  22 C :    0.036677
  23 H :    0.019382
  24 H :    0.056411
  25 C :   -0.026049
  26 H :    0.028225
  27 H :    0.020985
  28 C :   -0.061873
  29 H :    0.034212
  30 H :    0.022552
  31 H :    0.024469
  32 H :    0.065359
  33 H :    0.019207
Sum of atomic charges:    0.0000000

LOEWDIN ATOMIC CHARGES
----------------------
   0 S :    0.389198
   1 C :   -0.191757
   2 C :   -0.067550
   3 C :   -0.075935
   4 C :   -0.187415
   5 H :    0.027054
   6 C :   -0.030312
   7 H :    0.025866
   8 H :    0.038079
   9 C :   -0.040138
  10 H :    0.021719
  11 H :    0.026171
  12 C :   -0.073539
  13 H :    0.025746
  14 H :    0.022246
  15 H :    0.033110
  16 S :    0.402384
  17 C :   -0.178870
  18 C :   -0.072365
  19 C :   -0.048018
  20 C :   -0.185310
  21 H :    0.030061
  22 C :   -0.036150
  23 H :    0.027628
  24 H :    0.045577
  25 C :   -0.022446
  26 H :    0.024125
  27 H :    0.015030
  28 C :   -0.069203
  29 H :    0.025577
  30 H :    0.021969
  31 H :    0.023276
  32 H :    0.036927
  33 H :    0.017264

  Mayer bond orders larger than 0.100000
B(  0-S ,  1-C ) :   1.1304 B(  0-S ,  4-C ) :   1.1620 B(  1-C ,  2-C ) :   1.5780
B(  1-C ,  4-C ) :   0.1095 B(  1-C , 32-H ) :   0.9691 B(  2-C ,  3-C ) :   1.2902
B(  2-C ,  6-C ) :   1.0085 B(  3-C ,  4-C ) :   1.5263 B(  3-C ,  5-H ) :   0.9887
B(  4-C , 20-C ) :   1.0812 B(  6-C ,  7-H ) :   0.9409 B(  6-C ,  8-H ) :   0.9434
B(  6-C ,  9-C ) :   1.0704 B(  9-C , 10-H ) :   0.9583 B(  9-C , 11-H ) :   0.9567
B(  9-C , 12-C ) :   1.0773 B( 12-C , 13-H ) :   0.9756 B( 12-C , 14-H ) :   0.9677
B( 12-C , 15-H ) :   0.9702 B( 16-S , 17-C ) :   1.1463 B( 16-S , 20-C ) :   1.1267
B( 17-C , 18-C ) :   1.6267 B( 17-C , 33-H ) :   0.9652 B( 18-C , 19-C ) :   1.2541
B( 18-C , 21-H ) :   0.9824 B( 19-C , 20-C ) :   1.5720 B( 19-C , 22-C ) :   1.0361
B( 22-C , 23-H ) :   0.9350 B( 22-C , 24-H ) :   0.9217 B( 22-C , 25-C ) :   1.0844
B( 25-C , 26-H ) :   0.9527 B( 25-C , 27-H ) :   0.9548 B( 25-C , 28-C ) :   1.0671
B( 28-C , 29-H ) :   0.9801 B( 28-C , 30-H ) :   0.9752 B( 28-C , 31-H ) :   0.9772

Dispersion correction           -0.014178747
FINAL SINGLE POINT ENERGY     -1339.861882292041

DIPOLE MOMENT
-------------
                                X             Y             Z
Electronic contribution:    -15.95523      19.07114      16.79581
Nuclear contribution   :     16.45727     -19.60929     -17.02479
                        -----------------------------------------
Total Dipole Moment    :      0.50204      -0.53815      -0.22898
                        -----------------------------------------
Magnitude (a.u.)       :      0.77076
Magnitude (Debye)      :      1.95913

Rotational constants in cm-1:     0.017619     0.009252     0.006433
Rotational constants in MHz :   528.197053   277.376829   192.865393

                             ****ORCA TERMINATED NORMALLY****
TOTAL RUN TIME: 0 days 0 hours 0 minutes 35 seconds 173 msec
