                         Program Version 4.2.1 -  RELEASE  -
|  1> ! wB97X-D3 SP def2-SVP
|  2> %pal
|  3> nprocs 16
|  4> end
|  5>
|  6> * xyz 0 1
|  7> S 	 59.5809 	 -6.16044 	 85.4801
|  8> C 	 57.9612 	 -6.66113 	 84.936
|  9> C 	 57.1724 	 -5.60365 	 84.5786
| 10> C 	 57.8461 	 -4.35484 	 84.7498
| 11> C 	 59.1635 	 -4.50465 	 85.2256
| 12> H 	 57.4967 	 -3.32478 	 84.5507
| 13> C 	 55.8329 	 -5.70326 	 83.9498
| 14> H 	 55.8175 	 -6.58474 	 83.3947
| 15> H 	 55.6423 	 -4.89985 	 83.177
| 16> C 	 54.6921 	 -5.89614 	 84.9144
| 17> H 	 53.8422 	 -6.21396 	 84.3697
| 18> H 	 54.9205 	 -6.71678 	 85.6148
| 19> C 	 54.2886 	 -4.67379 	 85.6836
| 20> H 	 55.0455 	 -4.43801 	 86.4292
| 21> H 	 54.0759 	 -3.76906 	 85.0331
| 22> H 	 53.3253 	 -4.94559 	 86.1688
| 23> S 	 61.5239 	 -3.31346 	 84.395
| 24> C 	 62.0416 	 -1.89944 	 85.1355
| 25> C 	 61.0438 	 -1.30613 	 85.9356
| 26> C 	 59.9887 	 -2.21877 	 86.1822
| 27> C 	 60.1068 	 -3.41078 	 85.4361
| 28> H 	 61.2222 	 -0.323354 	 86.3313
| 29> C 	 58.8987 	 -1.92926 	 87.2114
| 30> H 	 59.3785 	 -1.34364 	 87.9782
| 31> H 	 58.6583 	 -2.92851 	 87.6459
| 32> C 	 57.6512 	 -1.12592 	 86.8248
| 33> H 	 57.0378 	 -1.70705 	 86.18
| 34> H 	 57.8979 	 -0.262091 	 86.1841
| 35> C 	 56.9136 	 -0.701384 	 88.0746
| 36> H 	 56.0353 	 -0.0586008 	 87.9256
| 37> H 	 57.5555 	 -0.10478 	 88.7425
| 38> H 	 56.5107 	 -1.54801 	 88.6575
| 39> H 	 57.6173 	 -7.64515 	 84.8646
| 40> H 	 62.9386 	 -1.40416 	 84.7404
| 41> *
| 42>
| 43>                          ****END OF INPUT****

CARTESIAN COORDINATES (ANGSTROEM)
---------------------------------
  S     59.580900   -6.160440   85.480100
  C     57.961200   -6.661130   84.936000
  C     57.172400   -5.603650   84.578600
  C     57.846100   -4.354840   84.749800
  C     59.163500   -4.504650   85.225600
  H     57.496700   -3.324780   84.550700
  C     55.832900   -5.703260   83.949800
  H     55.817500   -6.584740   83.394700
  H     55.642300   -4.899850   83.177000
  C     54.692100   -5.896140   84.914400
  H     53.842200   -6.213960   84.369700
  H     54.920500   -6.716780   85.614800
  C     54.288600   -4.673790   85.683600
  H     55.045500   -4.438010   86.429200
  H     54.075900   -3.769060   85.033100
  H     53.325300   -4.945590   86.168800
  S     61.523900   -3.313460   84.395000
  C     62.041600   -1.899440   85.135500
  C     61.043800   -1.306130   85.935600
  C     59.988700   -2.218770   86.182200
  C     60.106800   -3.410780   85.436100
  H     61.222200   -0.323354   86.331300
  C     58.898700   -1.929260   87.211400
  H     59.378500   -1.343640   87.978200
  H     58.658300   -2.928510   87.645900
  C     57.651200   -1.125920   86.824800
  H     57.037800   -1.707050   86.180000
  H     57.897900   -0.262091   86.184100
  C     56.913600   -0.701384   88.074600
  H     56.035300   -0.058601   87.925600
  H     57.555500   -0.104780   88.742500
  H     56.510700   -1.548010   88.657500
  H     57.617300   -7.645150   84.864600
  H     62.938600   -1.404160   84.740400

 Total Charge           Charge          ....    0
 Multiplicity           Mult            ....    1
 Number of Electrons    NEL             ....  134
 Basis Dimension        Dim             ....  322

ORBITAL ENERGIES
----------------

  NO   OCC          E(Eh)            E(eV)
   0   2.0000     -88.968962     -2420.9685
   1   2.0000     -88.964036     -2420.8345
   2   2.0000     -10.328080      -281.0413
   3   2.0000     -10.323846      -280.9261
   4   2.0000     -10.314550      -280.6732
   5   2.0000     -10.310484      -280.5625
   6   2.0000     -10.304860      -280.4095
   7   2.0000     -10.298380      -280.2332
   8   2.0000     -10.296618      -280.1852
   9   2.0000     -10.293347      -280.0962
  10   2.0000     -10.289756      -279.9985
  11   2.0000     -10.285414      -279.8803
  12   2.0000     -10.284848      -279.8649
  13   2.0000     -10.279919      -279.7308
  14   2.0000     -10.279647      -279.7234
  15   2.0000     -10.279007      -279.7060
  16   2.0000      -8.083383      -219.9600
  17   2.0000      -8.080083      -219.8702
  18   2.0000      -6.041843      -164.4069
  19   2.0000      -6.038176      -164.3071
  20   2.0000      -6.037941      -164.3007
  21   2.0000      -6.034401      -164.2044
  22   2.0000      -6.034217      -164.1994
  23   2.0000      -6.031216      -164.1177
  24   2.0000      -1.006539       -27.3893
  25   2.0000      -0.985991       -26.8302
  26   2.0000      -0.921453       -25.0740
  27   2.0000      -0.910412       -24.7736
  28   2.0000      -0.868425       -23.6310
  29   2.0000      -0.855172       -23.2704
  30   2.0000      -0.845856       -23.0169
  31   2.0000      -0.809626       -22.0310
  32   2.0000      -0.785316       -21.3695
  33   2.0000      -0.771513       -20.9939
  34   2.0000      -0.707704       -19.2576
  35   2.0000      -0.699052       -19.0222
  36   2.0000      -0.692305       -18.8386
  37   2.0000      -0.660319       -17.9682
  38   2.0000      -0.640598       -17.4316
  39   2.0000      -0.612417       -16.6647
  40   2.0000      -0.595917       -16.2157
  41   2.0000      -0.578271       -15.7356
  42   2.0000      -0.565416       -15.3857
  43   2.0000      -0.552272       -15.0281
  44   2.0000      -0.544264       -14.8102
  45   2.0000      -0.521162       -14.1815
  46   2.0000      -0.513887       -13.9836
  47   2.0000      -0.510798       -13.8995
  48   2.0000      -0.508469       -13.8361
  49   2.0000      -0.494274       -13.4499
  50   2.0000      -0.488565       -13.2945
  51   2.0000      -0.480216       -13.0673
  52   2.0000      -0.470909       -12.8141
  53   2.0000      -0.465017       -12.6538
  54   2.0000      -0.462303       -12.5799
  55   2.0000      -0.449264       -12.2251
  56   2.0000      -0.441922       -12.0253
  57   2.0000      -0.437119       -11.8946
  58   2.0000      -0.432502       -11.7690
  59   2.0000      -0.423421       -11.5219
  60   2.0000      -0.422209       -11.4889
  61   2.0000      -0.420465       -11.4414
  62   2.0000      -0.417625       -11.3642
  63   2.0000      -0.335436        -9.1277
  64   2.0000      -0.334068        -9.0904
  65   2.0000      -0.328237        -8.9318
  66   2.0000      -0.294528        -8.0145
  67   0.0000       0.031180         0.8484
  68   0.0000       0.065822         1.7911
  69   0.0000       0.115859         3.1527
  70   0.0000       0.120424         3.2769
  71   0.0000       0.128110         3.4860

MULLIKEN ATOMIC CHARGES
-----------------------
   0 S :    0.123441
   1 C :   -0.095582
   2 C :   -0.073431
   3 C :    0.028850
   4 C :   -0.185361
   5 H :    0.023962
   6 C :    0.087048
   7 H :   -0.000271
   8 H :    0.037254
   9 C :   -0.061875
  10 H :    0.014744
  11 H :    0.025198
  12 C :   -0.068893
  13 H :    0.043602
  14 H :    0.034492
  15 H :    0.035838
  16 S :    0.122074
  17 C :   -0.106216
  18 C :   -0.043319
  19 C :   -0.022334
  20 C :   -0.166811
  21 H :    0.017513
  22 C :    0.047249
  23 H :    0.010377
  24 H :    0.041826
  25 C :   -0.021259
  26 H :    0.009793
  27 H :    0.025166
  28 C :   -0.062858
  29 H :    0.031329
  30 H :    0.028345
  31 H :    0.035126
  32 H :    0.017709
  33 H :    0.067275
Sum of atomic charges:   -0.0000000

LOEWDIN ATOMIC CHARGES
----------------------
   0 S :    0.410975
   1 C :   -0.179881
   2 C :   -0.061218
   3 C :   -0.060431
   4 C :   -0.208901
   5 H :    0.034961
   6 C :   -0.033114
   7 H :    0.024797
   8 H :    0.038822
   9 C :   -0.040757
  10 H :    0.017829
  11 H :    0.028198
  12 C :   -0.070652
  13 H :    0.024275
  14 H :    0.028411
  15 H :    0.030301
  16 S :    0.439365
  17 C :   -0.208388
  18 C :   -0.074552
  19 C :   -0.052264
  20 C :   -0.212449
  21 H :    0.030160
  22 C :   -0.030894
  23 H :    0.026708
  24 H :    0.039021
  25 C :   -0.039867
  26 H :    0.015074
  27 H :    0.027563
  28 C :   -0.069274
  29 H :    0.026948
  30 H :    0.024881
  31 H :    0.029121
  32 H :    0.015487
  33 H :    0.029746

  Mayer bond orders larger than 0.100000
B(  0-S ,  1-C ) :   1.1297 B(  0-S ,  4-C ) :   1.1650 B(  1-C ,  2-C ) :   1.6242
B(  1-C , 32-H ) :   0.9703 B(  2-C ,  3-C ) :   1.2287 B(  2-C ,  6-C ) :   1.0201
B(  3-C ,  4-C ) :   1.5638 B(  3-C ,  5-H ) :   0.9892 B(  4-C , 20-C ) :   1.0303
B(  6-C ,  7-H ) :   0.9238 B(  6-C ,  8-H ) :   0.9452 B(  6-C ,  9-C ) :   1.0867
B(  9-C , 10-H ) :   0.9526 B(  9-C , 11-H ) :   0.9483 B(  9-C , 12-C ) :   1.0876
B( 12-C , 13-H ) :   0.9748 B( 12-C , 14-H ) :   0.9730 B( 12-C , 15-H ) :   0.9725
B( 16-S , 17-C ) :   1.2052 B( 16-S , 20-C ) :   1.1646 B( 17-C , 18-C ) :   1.5481
B( 17-C , 20-C ) :   0.1060 B( 17-C , 33-H ) :   0.9641 B( 18-C , 19-C ) :   1.2763
B( 18-C , 21-H ) :   0.9976 B( 19-C , 20-C ) :   1.5521 B( 19-C , 22-C ) :   1.0373
B( 22-C , 23-H ) :   0.9399 B( 22-C , 24-H ) :   0.9324 B( 22-C , 25-C ) :   1.0614
B( 25-C , 26-H ) :   0.9450 B( 25-C , 27-H ) :   0.9528 B( 25-C , 28-C ) :   1.0858
B( 28-C , 29-H ) :   0.9725 B( 28-C , 30-H ) :   0.9746 B( 28-C , 31-H ) :   0.9731

Dispersion correction           -0.014764674
FINAL SINGLE POINT ENERGY     -1339.887890328680

DIPOLE MOMENT
-------------
                                X             Y             Z
Electronic contribution:     28.38594     -10.08759      -8.85172
Nuclear contribution   :    -28.96156      10.36259       8.79618
                        -----------------------------------------
Total Dipole Moment    :     -0.57563       0.27500      -0.05554
                        -----------------------------------------
Magnitude (a.u.)       :      0.64035
Magnitude (Debye)      :      1.62765

Rotational constants in cm-1:     0.016945     0.010051     0.006935
Rotational constants in MHz :   508.013101   301.327093   207.895249

                             ****ORCA TERMINATED NORMALLY****
TOTAL RUN TIME: 0 days 0 hours 0 minutes 31 seconds 91 msec
