                         Program Version 4.2.1 -  RELEASE  -
|  1> ! wB97X-D3 SP def2-SVP
|  2> %pal
|  3> nprocs 16
|  4> end
|  5>
|  6> * xyz 0 1
|  7> S 	 -7.45783 	 32.8843 	 48.9352
|  8> C 	 -6.92756 	 31.8239 	 50.2044
|  9> C 	 -5.52735 	 31.8881 	 50.322
| 10> C 	 -4.89587 	 32.7221 	 49.3631
| 11> C 	 -5.83171 	 33.4033 	 48.5461
| 12> H 	 -3.77437 	 32.9018 	 49.3593
| 13> C 	 -4.79315 	 31.2862 	 51.442
| 14> H 	 -5.29249 	 31.3473 	 52.4489
| 15> H 	 -3.86259 	 31.9358 	 51.4996
| 16> C 	 -4.27643 	 29.8649 	 51.2153
| 17> H 	 -3.68332 	 29.8037 	 50.2959
| 18> H 	 -3.49 	 29.5128 	 51.9102
| 19> C 	 -5.39511 	 28.7666 	 51.2769
| 20> H 	 -5.66737 	 28.7012 	 52.3052
| 21> H 	 -6.36503 	 28.8061 	 50.7565
| 22> H 	 -4.85834 	 27.8144 	 50.9959
| 23> S 	 -6.50326 	 34.3797 	 46.0417
| 24> C 	 -5.29844 	 35.405 	 45.2161
| 25> C 	 -4.29428 	 35.7833 	 46.0132
| 26> C 	 -4.36238 	 35.1691 	 47.2978
| 27> C 	 -5.46796 	 34.3561 	 47.4768
| 28> H 	 -3.53357 	 36.4061 	 45.5678
| 29> C 	 -3.07067 	 35.2985 	 48.18
| 30> H 	 -2.25847 	 35.9309 	 47.6479
| 31> H 	 -2.50124 	 34.3843 	 48.2628
| 32> C 	 -3.38092 	 35.9204 	 49.5851
| 33> H 	 -3.90179 	 35.1473 	 50.0981
| 34> H 	 -4.17396 	 36.6215 	 49.3942
| 35> C 	 -2.18185 	 36.4234 	 50.2971
| 36> H 	 -1.44095 	 35.5948 	 50.5614
| 37> H 	 -2.56353 	 37.0095 	 51.1669
| 38> H 	 -1.48822 	 37.048 	 49.6508
| 39> H 	 -7.60574 	 31.2201 	 50.808
| 40> H 	 -5.32176 	 35.6508 	 44.1284
| 41> *
| 42>
| 43>                          ****END OF INPUT****

CARTESIAN COORDINATES (ANGSTROEM)
---------------------------------
  S     -7.457830   32.884300   48.935200
  C     -6.927560   31.823900   50.204400
  C     -5.527350   31.888100   50.322000
  C     -4.895870   32.722100   49.363100
  C     -5.831710   33.403300   48.546100
  H     -3.774370   32.901800   49.359300
  C     -4.793150   31.286200   51.442000
  H     -5.292490   31.347300   52.448900
  H     -3.862590   31.935800   51.499600
  C     -4.276430   29.864900   51.215300
  H     -3.683320   29.803700   50.295900
  H     -3.490000   29.512800   51.910200
  C     -5.395110   28.766600   51.276900
  H     -5.667370   28.701200   52.305200
  H     -6.365030   28.806100   50.756500
  H     -4.858340   27.814400   50.995900
  S     -6.503260   34.379700   46.041700
  C     -5.298440   35.405000   45.216100
  C     -4.294280   35.783300   46.013200
  C     -4.362380   35.169100   47.297800
  C     -5.467960   34.356100   47.476800
  H     -3.533570   36.406100   45.567800
  C     -3.070670   35.298500   48.180000
  H     -2.258470   35.930900   47.647900
  H     -2.501240   34.384300   48.262800
  C     -3.380920   35.920400   49.585100
  H     -3.901790   35.147300   50.098100
  H     -4.173960   36.621500   49.394200
  C     -2.181850   36.423400   50.297100
  H     -1.440950   35.594800   50.561400
  H     -2.563530   37.009500   51.166900
  H     -1.488220   37.048000   49.650800
  H     -7.605740   31.220100   50.808000
  H     -5.321760   35.650800   44.128400

 Total Charge           Charge          ....    0
 Multiplicity           Mult            ....    1
 Number of Electrons    NEL             ....  134
 Basis Dimension        Dim             ....  322

ORBITAL ENERGIES
----------------

  NO   OCC          E(Eh)            E(eV)
   0   2.0000     -88.971832     -2421.0466
   1   2.0000     -88.965598     -2420.8770
   2   2.0000     -10.338298      -281.3194
   3   2.0000     -10.334286      -281.2102
   4   2.0000     -10.318350      -280.7766
   5   2.0000     -10.317032      -280.7407
   6   2.0000     -10.308773      -280.5160
   7   2.0000     -10.302470      -280.3445
   8   2.0000     -10.301134      -280.3081
   9   2.0000     -10.300841      -280.3001
  10   2.0000     -10.296128      -280.1719
  11   2.0000     -10.291716      -280.0518
  12   2.0000     -10.290838      -280.0279
  13   2.0000     -10.289024      -279.9786
  14   2.0000     -10.280184      -279.7380
  15   2.0000     -10.277228      -279.6576
  16   2.0000      -8.086276      -220.0388
  17   2.0000      -8.079855      -219.8640
  18   2.0000      -6.044756      -164.4862
  19   2.0000      -6.040687      -164.3755
  20   2.0000      -6.038489      -164.3156
  21   2.0000      -6.037239      -164.2816
  22   2.0000      -6.034598      -164.2098
  23   2.0000      -6.030348      -164.0941
  24   2.0000      -1.005547       -27.3623
  25   2.0000      -0.985169       -26.8078
  26   2.0000      -0.911924       -24.8147
  27   2.0000      -0.905008       -24.6265
  28   2.0000      -0.869011       -23.6470
  29   2.0000      -0.851585       -23.1728
  30   2.0000      -0.845472       -23.0065
  31   2.0000      -0.813280       -22.1305
  32   2.0000      -0.778893       -21.1948
  33   2.0000      -0.769242       -20.9321
  34   2.0000      -0.708697       -19.2846
  35   2.0000      -0.700642       -19.0654
  36   2.0000      -0.691934       -18.8285
  37   2.0000      -0.659503       -17.9460
  38   2.0000      -0.634316       -17.2606
  39   2.0000      -0.623136       -16.9564
  40   2.0000      -0.595300       -16.1989
  41   2.0000      -0.569022       -15.4839
  42   2.0000      -0.554535       -15.0897
  43   2.0000      -0.543419       -14.7872
  44   2.0000      -0.535674       -14.5764
  45   2.0000      -0.530428       -14.4337
  46   2.0000      -0.516907       -14.0658
  47   2.0000      -0.512032       -13.9331
  48   2.0000      -0.504788       -13.7360
  49   2.0000      -0.496283       -13.5046
  50   2.0000      -0.492205       -13.3936
  51   2.0000      -0.483555       -13.1582
  52   2.0000      -0.470552       -12.8044
  53   2.0000      -0.464770       -12.6470
  54   2.0000      -0.457434       -12.4474
  55   2.0000      -0.454742       -12.3742
  56   2.0000      -0.444919       -12.1069
  57   2.0000      -0.436388       -11.8747
  58   2.0000      -0.427544       -11.6341
  59   2.0000      -0.417970       -11.3735
  60   2.0000      -0.414421       -11.2770
  61   2.0000      -0.409272       -11.1369
  62   2.0000      -0.406470       -11.0606
  63   2.0000      -0.359057        -9.7705
  64   2.0000      -0.336155        -9.1472
  65   2.0000      -0.328413        -8.9366
  66   2.0000      -0.284736        -7.7481
  67   0.0000       0.020840         0.5671
  68   0.0000       0.076394         2.0788
  69   0.0000       0.095893         2.6094
  70   0.0000       0.111797         3.0421
  71   0.0000       0.133389         3.6297

MULLIKEN ATOMIC CHARGES
-----------------------
   0 S :    0.118317
   1 C :   -0.124000
   2 C :   -0.065533
   3 C :   -0.006821
   4 C :   -0.131307
   5 H :    0.039648
   6 C :    0.019865
   7 H :    0.044955
   8 H :    0.025788
   9 C :   -0.065095
  10 H :    0.020896
  11 H :    0.029559
  12 C :   -0.075865
  13 H :    0.018476
  14 H :    0.045147
  15 H :    0.040200
  16 S :    0.087727
  17 C :   -0.105859
  18 C :   -0.024632
  19 C :   -0.023820
  20 C :   -0.117785
  21 H :    0.021722
  22 C :   -0.026258
  23 H :    0.022259
  24 H :    0.035469
  25 C :   -0.037288
  26 H :    0.020916
  27 H :    0.028676
  28 C :   -0.060216
  29 H :    0.034390
  30 H :    0.054831
  31 H :    0.031139
  32 H :    0.055926
  33 H :    0.068576
Sum of atomic charges:    0.0000000

LOEWDIN ATOMIC CHARGES
----------------------
   0 S :    0.419420
   1 C :   -0.205621
   2 C :   -0.066961
   3 C :   -0.070884
   4 C :   -0.193309
   5 H :    0.043627
   6 C :   -0.043245
   7 H :    0.036858
   8 H :    0.037468
   9 C :   -0.043831
  10 H :    0.021654
  11 H :    0.028739
  12 C :   -0.075982
  13 H :    0.017804
  14 H :    0.025972
  15 H :    0.034522
  16 S :    0.373234
  17 C :   -0.171197
  18 C :   -0.072627
  19 C :   -0.055314
  20 C :   -0.184557
  21 H :    0.037051
  22 C :   -0.033633
  23 H :    0.032108
  24 H :    0.020631
  25 C :   -0.048510
  26 H :    0.020684
  27 H :    0.026121
  28 C :   -0.076388
  29 H :    0.032366
  30 H :    0.036530
  31 H :    0.027579
  32 H :    0.030825
  33 H :    0.038869

  Mayer bond orders larger than 0.100000
B(  0-S ,  1-C ) :   1.1439 B(  0-S ,  4-C ) :   1.1752 B(  1-C ,  2-C ) :   1.5540
B(  1-C ,  4-C ) :   0.1044 B(  1-C , 32-H ) :   0.9713 B(  2-C ,  3-C ) :   1.3043
B(  2-C ,  6-C ) :   1.0218 B(  3-C ,  4-C ) :   1.5143 B(  3-C ,  5-H ) :   0.9693
B(  4-C , 20-C ) :   1.0620 B(  6-C ,  7-H ) :   0.9508 B(  6-C ,  8-H ) :   0.9354
B(  6-C ,  9-C ) :   1.0754 B(  9-C , 10-H ) :   0.9559 B(  9-C , 11-H ) :   0.9540
B(  9-C , 12-C ) :   1.0616 B( 12-C , 13-H ) :   0.9768 B( 12-C , 14-H ) :   0.9789
B( 12-C , 15-H ) :   0.9747 B( 16-S , 17-C ) :   1.1288 B( 16-S , 20-C ) :   1.1203
B( 17-C , 18-C ) :   1.6692 B( 17-C , 33-H ) :   0.9566 B( 18-C , 19-C ) :   1.2080
B( 18-C , 21-H ) :   0.9920 B( 19-C , 20-C ) :   1.6257 B( 19-C , 22-C ) :   1.0210
B( 22-C , 23-H ) :   0.9474 B( 22-C , 24-H ) :   0.9407 B( 22-C , 25-C ) :   1.0398
B( 25-C , 26-H ) :   0.9450 B( 25-C , 27-H ) :   0.9565 B( 25-C , 28-C ) :   1.0856
B( 28-C , 29-H ) :   0.9682 B( 28-C , 30-H ) :   0.9710 B( 28-C , 31-H ) :   0.9733

Dispersion correction           -0.014429934
FINAL SINGLE POINT ENERGY     -1339.864838022952

DIPOLE MOMENT
-------------
                                X             Y             Z
Electronic contribution:    -20.38300       6.03350     -18.93269
Nuclear contribution   :     21.03812      -6.09422      19.18192
                        -----------------------------------------
Total Dipole Moment    :      0.65512      -0.06071       0.24923
                        -----------------------------------------
Magnitude (a.u.)       :      0.70355
Magnitude (Debye)      :      1.78828

Rotational constants in cm-1:     0.018288     0.008872     0.006683
Rotational constants in MHz :   548.250618   265.972213   200.348771

                             ****ORCA TERMINATED NORMALLY****
TOTAL RUN TIME: 0 days 0 hours 0 minutes 35 seconds 6 msec
