                         Program Version 4.2.1 -  RELEASE  -
|  1> ! wB97X-D3 SP def2-SVP
|  2> %pal
|  3> nprocs 16
|  4> end
|  5>
|  6> * xyz 0 1
|  7> S 	 -73.3994 	 42.6258 	 126.282
|  8> C 	 -73.2259 	 43.8929 	 127.506
|  9> C 	 -72.0734 	 44.6411 	 127.362
| 10> C 	 -71.2634 	 44.1754 	 126.252
| 11> C 	 -71.7853 	 43.122 	 125.586
| 12> H 	 -70.219 	 44.4634 	 126.008
| 13> C 	 -71.584 	 45.7727 	 128.19
| 14> H 	 -72.3689 	 46.4843 	 128.408
| 15> H 	 -70.939 	 46.4016 	 127.575
| 16> C 	 -70.7385 	 45.3856 	 129.414
| 17> H 	 -69.7969 	 45.0014 	 128.959
| 18> H 	 -70.473 	 46.2764 	 129.954
| 19> C 	 -71.4644 	 44.385 	 130.35
| 20> H 	 -72.1087 	 43.6939 	 129.883
| 21> H 	 -70.7472 	 43.8289 	 130.946
| 22> H 	 -72.0953 	 45.0119 	 131.055
| 23> S 	 -70.2305 	 43.0998 	 123.322
| 24> C 	 -70.1112 	 41.6702 	 122.367
| 25> C 	 -70.7535 	 40.6346 	 123.036
| 26> C 	 -71.3393 	 40.9424 	 124.3
| 27> C 	 -71.1276 	 42.2926 	 124.592
| 28> H 	 -70.849 	 39.745 	 122.529
| 29> C 	 -72.0373 	 39.8516 	 125.069
| 30> H 	 -72.3129 	 39.215 	 124.31
| 31> H 	 -72.9129 	 40.2316 	 125.619
| 32> C 	 -71.0885 	 39.075 	 126.037
| 33> H 	 -70.0379 	 39.5284 	 125.854
| 34> H 	 -71.0454 	 38.0178 	 125.667
| 35> C 	 -71.3752 	 39.115 	 127.482
| 36> H 	 -72.3668 	 38.6046 	 127.665
| 37> H 	 -71.5994 	 40.0561 	 127.874
| 38> H 	 -70.5895 	 38.4928 	 127.989
| 39> H 	 -73.9492 	 44.0508 	 128.3
| 40> H 	 -69.8422 	 41.5251 	 121.306
| 41> *
| 42>
| 43>                          ****END OF INPUT****

CARTESIAN COORDINATES (ANGSTROEM)
---------------------------------
  S    -73.399400   42.625800  126.282000
  C    -73.225900   43.892900  127.506000
  C    -72.073400   44.641100  127.362000
  C    -71.263400   44.175400  126.252000
  C    -71.785300   43.122000  125.586000
  H    -70.219000   44.463400  126.008000
  C    -71.584000   45.772700  128.190000
  H    -72.368900   46.484300  128.408000
  H    -70.939000   46.401600  127.575000
  C    -70.738500   45.385600  129.414000
  H    -69.796900   45.001400  128.959000
  H    -70.473000   46.276400  129.954000
  C    -71.464400   44.385000  130.350000
  H    -72.108700   43.693900  129.883000
  H    -70.747200   43.828900  130.946000
  H    -72.095300   45.011900  131.055000
  S    -70.230500   43.099800  123.322000
  C    -70.111200   41.670200  122.367000
  C    -70.753500   40.634600  123.036000
  C    -71.339300   40.942400  124.300000
  C    -71.127600   42.292600  124.592000
  H    -70.849000   39.745000  122.529000
  C    -72.037300   39.851600  125.069000
  H    -72.312900   39.215000  124.310000
  H    -72.912900   40.231600  125.619000
  C    -71.088500   39.075000  126.037000
  H    -70.037900   39.528400  125.854000
  H    -71.045400   38.017800  125.667000
  C    -71.375200   39.115000  127.482000
  H    -72.366800   38.604600  127.665000
  H    -71.599400   40.056100  127.874000
  H    -70.589500   38.492800  127.989000
  H    -73.949200   44.050800  128.300000
  H    -69.842200   41.525100  121.306000

 Total Charge           Charge          ....    0
 Multiplicity           Mult            ....    1
 Number of Electrons    NEL             ....  134
 Basis Dimension        Dim             ....  322

ORBITAL ENERGIES
----------------

  NO   OCC          E(Eh)            E(eV)
   0   2.0000     -88.968491     -2420.9557
   1   2.0000     -88.967987     -2420.9420
   2   2.0000     -10.331927      -281.1460
   3   2.0000     -10.326573      -281.0003
   4   2.0000     -10.318062      -280.7687
   5   2.0000     -10.317930      -280.7651
   6   2.0000     -10.303264      -280.3661
   7   2.0000     -10.302912      -280.3565
   8   2.0000     -10.295015      -280.1416
   9   2.0000     -10.289185      -279.9829
  10   2.0000     -10.288704      -279.9699
  11   2.0000     -10.287377      -279.9338
  12   2.0000     -10.286365      -279.9062
  13   2.0000     -10.284686      -279.8605
  14   2.0000     -10.276385      -279.6347
  15   2.0000     -10.273815      -279.5647
  16   2.0000      -8.083297      -219.9577
  17   2.0000      -8.080951      -219.8939
  18   2.0000      -6.041864      -164.4075
  19   2.0000      -6.039712      -164.3489
  20   2.0000      -6.037661      -164.2931
  21   2.0000      -6.035834      -164.2434
  22   2.0000      -6.034120      -164.1968
  23   2.0000      -6.031425      -164.1234
  24   2.0000      -1.006033       -27.3756
  25   2.0000      -0.981153       -26.6985
  26   2.0000      -0.912202       -24.8223
  27   2.0000      -0.910516       -24.7764
  28   2.0000      -0.869383       -23.6571
  29   2.0000      -0.856547       -23.3078
  30   2.0000      -0.843511       -22.9531
  31   2.0000      -0.812738       -22.1157
  32   2.0000      -0.787120       -21.4186
  33   2.0000      -0.776393       -21.1267
  34   2.0000      -0.705572       -19.1996
  35   2.0000      -0.699008       -19.0210
  36   2.0000      -0.684867       -18.6362
  37   2.0000      -0.668603       -18.1936
  38   2.0000      -0.634628       -17.2691
  39   2.0000      -0.618948       -16.8424
  40   2.0000      -0.593108       -16.1393
  41   2.0000      -0.570699       -15.5295
  42   2.0000      -0.563507       -15.3338
  43   2.0000      -0.547808       -14.9066
  44   2.0000      -0.541100       -14.7241
  45   2.0000      -0.531325       -14.4581
  46   2.0000      -0.520737       -14.1700
  47   2.0000      -0.513655       -13.9773
  48   2.0000      -0.506994       -13.7960
  49   2.0000      -0.497202       -13.5296
  50   2.0000      -0.485802       -13.2193
  51   2.0000      -0.480367       -13.0714
  52   2.0000      -0.477745       -13.0001
  53   2.0000      -0.460475       -12.5302
  54   2.0000      -0.458044       -12.4640
  55   2.0000      -0.451089       -12.2747
  56   2.0000      -0.439401       -11.9567
  57   2.0000      -0.436342       -11.8735
  58   2.0000      -0.432838       -11.7781
  59   2.0000      -0.427815       -11.6414
  60   2.0000      -0.415589       -11.3087
  61   2.0000      -0.412716       -11.2306
  62   2.0000      -0.398678       -10.8486
  63   2.0000      -0.359384        -9.7793
  64   2.0000      -0.331740        -9.0271
  65   2.0000      -0.329597        -8.9688
  66   2.0000      -0.284563        -7.7434
  67   0.0000       0.021140         0.5752
  68   0.0000       0.075077         2.0430
  69   0.0000       0.101050         2.7497
  70   0.0000       0.117266         3.1910
  71   0.0000       0.127878         3.4797

MULLIKEN ATOMIC CHARGES
-----------------------
   0 S :    0.073883
   1 C :   -0.120999
   2 C :   -0.073373
   3 C :   -0.018125
   4 C :   -0.093686
   5 H :    0.032727
   6 C :    0.054394
   7 H :    0.023458
   8 H :    0.015932
   9 C :   -0.055857
  10 H :    0.028141
  11 H :    0.031279
  12 C :   -0.046349
  13 H :    0.027820
  14 H :    0.034806
  15 H :    0.029718
  16 S :    0.109169
  17 C :   -0.092016
  18 C :   -0.035233
  19 C :   -0.102665
  20 C :   -0.137868
  21 H :   -0.013607
  22 C :    0.140941
  23 H :   -0.003762
  24 H :    0.033518
  25 C :   -0.114152
  26 H :    0.049141
  27 H :    0.032852
  28 C :   -0.030916
  29 H :    0.020751
  30 H :    0.027002
  31 H :    0.049026
  32 H :    0.052080
  33 H :    0.071967
Sum of atomic charges:   -0.0000000

LOEWDIN ATOMIC CHARGES
----------------------
   0 S :    0.371179
   1 C :   -0.186854
   2 C :   -0.058490
   3 C :   -0.068699
   4 C :   -0.158586
   5 H :    0.037929
   6 C :   -0.039031
   7 H :    0.027475
   8 H :    0.032193
   9 C :   -0.033985
  10 H :    0.025137
  11 H :    0.023542
  12 C :   -0.065196
  13 H :    0.015376
  14 H :    0.026891
  15 H :    0.031633
  16 S :    0.423512
  17 C :   -0.205413
  18 C :   -0.064633
  19 C :   -0.055239
  20 C :   -0.201207
  21 H :    0.014680
  22 C :   -0.030686
  23 H :    0.022216
  24 H :    0.017785
  25 C :   -0.047876
  26 H :    0.033106
  27 H :    0.027580
  28 C :   -0.068683
  29 H :    0.028160
  30 H :    0.016565
  31 H :    0.038031
  32 H :    0.027731
  33 H :    0.043861

  Mayer bond orders larger than 0.100000
B(  0-S ,  1-C ) :   1.1104 B(  0-S ,  4-C ) :   1.0993 B(  1-C ,  2-C ) :   1.6541
B(  1-C , 32-H ) :   0.9629 B(  2-C ,  3-C ) :   1.1935 B(  2-C ,  6-C ) :   1.0331
B(  3-C ,  4-C ) :   1.6291 B(  3-C ,  5-H ) :   0.9809 B(  4-C , 20-C ) :   1.0716
B(  6-C ,  7-H ) :   0.9390 B(  6-C ,  8-H ) :   0.9377 B(  6-C ,  9-C ) :   1.0678
B(  9-C , 10-H ) :   0.9580 B(  9-C , 11-H ) :   0.9576 B(  9-C , 12-C ) :   1.0665
B( 12-C , 13-H ) :   0.9777 B( 12-C , 14-H ) :   0.9752 B( 12-C , 15-H ) :   0.9762
B( 16-S , 17-C ) :   1.1557 B( 16-S , 20-C ) :   1.1464 B( 17-C , 18-C ) :   1.6060
B( 17-C , 33-H ) :   0.9610 B( 18-C , 19-C ) :   1.2617 B( 18-C , 21-H ) :   0.9948
B( 19-C , 20-C ) :   1.5406 B( 19-C , 22-C ) :   1.0517 B( 22-C , 23-H ) :   0.9141
B( 22-C , 24-H ) :   0.9358 B( 22-C , 25-C ) :   1.0275 B( 25-C , 26-H ) :   0.9627
B( 25-C , 27-H ) :   0.9554 B( 25-C , 28-C ) :   1.0957 B( 28-C , 29-H ) :   0.9674
B( 28-C , 30-H ) :   0.9732 B( 28-C , 31-H ) :   0.9680

Dispersion correction           -0.014834847
FINAL SINGLE POINT ENERGY     -1339.866744545228

DIPOLE MOMENT
-------------
                                X             Y             Z
Electronic contribution:     -2.85061       5.22643     -21.24649
Nuclear contribution   :      2.93289      -5.35360      21.43523
                        -----------------------------------------
Total Dipole Moment    :      0.08228      -0.12717       0.18874
                        -----------------------------------------
Magnitude (a.u.)       :      0.24200
Magnitude (Debye)      :      0.61511

Rotational constants in cm-1:     0.019748     0.009069     0.007383
Rotational constants in MHz :   592.025641   271.892581   221.347722

                             ****ORCA TERMINATED NORMALLY****
TOTAL RUN TIME: 0 days 0 hours 0 minutes 34 seconds 986 msec
