                         Program Version 4.2.1 -  RELEASE  -
|  1> ! wB97X-D3 SP def2-SVP
|  2> %pal
|  3> nprocs 16
|  4> end
|  5>
|  6> * xyz 0 1
|  7> S 	 4.04259 	 18.5428 	 54.1999
|  8> C 	 2.65596 	 17.8958 	 54.9363
|  9> C 	 1.91662 	 17.1677 	 54.0442
| 10> C 	 2.47125 	 17.1544 	 52.7397
| 11> C 	 3.65617 	 17.8992 	 52.6608
| 12> H 	 2.04999 	 16.5384 	 51.9802
| 13> C 	 0.794125 	 16.2374 	 54.5518
| 14> H 	 -0.0352283 	 16.4245 	 53.936
| 15> H 	 0.511781 	 16.579 	 55.5287
| 16> C 	 1.00406 	 14.7263 	 54.5197
| 17> H 	 1.15405 	 14.4742 	 53.5026
| 18> H 	 1.83697 	 14.4057 	 55.1321
| 19> C 	 -0.283301 	 13.9856 	 54.9148
| 20> H 	 -0.571342 	 14.3647 	 55.9134
| 21> H 	 -1.1073 	 14.2432 	 54.2945
| 22> H 	 -0.217944 	 12.8957 	 54.8958
| 23> S 	 5.96941 	 17.167 	 51.5228
| 24> C 	 6.4712 	 17.7542 	 49.8686
| 25> C 	 5.40632 	 18.4564 	 49.3134
| 26> C 	 4.32669 	 18.696 	 50.2407
| 27> C 	 4.46899 	 18.0433 	 51.4486
| 28> H 	 5.53522 	 18.7317 	 48.2985
| 29> C 	 2.99531 	 19.4527 	 49.8704
| 30> H 	 2.15924 	 19.1331 	 50.5619
| 31> H 	 2.83278 	 19.299 	 48.8254
| 32> C 	 3.06917 	 20.9356 	 50.0387
| 33> H 	 2.1964 	 21.2595 	 49.5656
| 34> H 	 3.95139 	 21.3388 	 49.538
| 35> C 	 3.05397 	 21.4354 	 51.4962
| 36> H 	 2.17373 	 21.1351 	 51.8886
| 37> H 	 3.1339 	 22.5324 	 51.5165
| 38> H 	 3.82455 	 21.0066 	 52.0381
| 39> H 	 2.54704 	 17.942 	 56.0076
| 40> H 	 7.29689 	 17.2928 	 49.3675
| 41> *
| 42>
| 43>                          ****END OF INPUT****

CARTESIAN COORDINATES (ANGSTROEM)
---------------------------------
  S      4.042590   18.542800   54.199900
  C      2.655960   17.895800   54.936300
  C      1.916620   17.167700   54.044200
  C      2.471250   17.154400   52.739700
  C      3.656170   17.899200   52.660800
  H      2.049990   16.538400   51.980200
  C      0.794125   16.237400   54.551800
  H     -0.035228   16.424500   53.936000
  H      0.511781   16.579000   55.528700
  C      1.004060   14.726300   54.519700
  H      1.154050   14.474200   53.502600
  H      1.836970   14.405700   55.132100
  C     -0.283301   13.985600   54.914800
  H     -0.571342   14.364700   55.913400
  H     -1.107300   14.243200   54.294500
  H     -0.217944   12.895700   54.895800
  S      5.969410   17.167000   51.522800
  C      6.471200   17.754200   49.868600
  C      5.406320   18.456400   49.313400
  C      4.326690   18.696000   50.240700
  C      4.468990   18.043300   51.448600
  H      5.535220   18.731700   48.298500
  C      2.995310   19.452700   49.870400
  H      2.159240   19.133100   50.561900
  H      2.832780   19.299000   48.825400
  C      3.069170   20.935600   50.038700
  H      2.196400   21.259500   49.565600
  H      3.951390   21.338800   49.538000
  C      3.053970   21.435400   51.496200
  H      2.173730   21.135100   51.888600
  H      3.133900   22.532400   51.516500
  H      3.824550   21.006600   52.038100
  H      2.547040   17.942000   56.007600
  H      7.296890   17.292800   49.367500

 Total Charge           Charge          ....    0
 Multiplicity           Mult            ....    1
 Number of Electrons    NEL             ....  134
 Basis Dimension        Dim             ....  322

ORBITAL ENERGIES
----------------

  NO   OCC          E(Eh)            E(eV)
   0   2.0000     -88.968227     -2420.9485
   1   2.0000     -88.959322     -2420.7062
   2   2.0000     -10.330776      -281.1147
   3   2.0000     -10.326639      -281.0021
   4   2.0000     -10.322261      -280.8830
   5   2.0000     -10.309248      -280.5289
   6   2.0000     -10.307565      -280.4831
   7   2.0000     -10.300012      -280.2776
   8   2.0000     -10.298029      -280.2236
   9   2.0000     -10.294470      -280.1268
  10   2.0000     -10.290416      -280.0165
  11   2.0000     -10.286370      -279.9064
  12   2.0000     -10.283055      -279.8161
  13   2.0000     -10.278128      -279.6821
  14   2.0000     -10.270136      -279.4646
  15   2.0000     -10.255009      -279.0530
  16   2.0000      -8.084294      -219.9848
  17   2.0000      -8.073624      -219.6945
  18   2.0000      -6.042621      -164.4281
  19   2.0000      -6.038358      -164.3121
  20   2.0000      -6.035417      -164.2321
  21   2.0000      -6.032173      -164.1438
  22   2.0000      -6.028132      -164.0338
  23   2.0000      -6.024405      -163.9324
  24   2.0000      -1.012630       -27.5551
  25   2.0000      -0.982635       -26.7389
  26   2.0000      -0.914851       -24.8944
  27   2.0000      -0.908720       -24.7275
  28   2.0000      -0.872951       -23.7542
  29   2.0000      -0.853393       -23.2220
  30   2.0000      -0.838903       -22.8277
  31   2.0000      -0.817280       -22.2393
  32   2.0000      -0.783625       -21.3235
  33   2.0000      -0.774753       -21.0821
  34   2.0000      -0.710171       -19.3247
  35   2.0000      -0.697372       -18.9764
  36   2.0000      -0.687674       -18.7126
  37   2.0000      -0.661970       -18.0131
  38   2.0000      -0.649589       -17.6762
  39   2.0000      -0.623237       -16.9591
  40   2.0000      -0.594829       -16.1861
  41   2.0000      -0.577070       -15.7029
  42   2.0000      -0.567323       -15.4377
  43   2.0000      -0.552829       -15.0432
  44   2.0000      -0.547571       -14.9002
  45   2.0000      -0.526484       -14.3264
  46   2.0000      -0.515559       -14.0291
  47   2.0000      -0.512330       -13.9412
  48   2.0000      -0.508004       -13.8235
  49   2.0000      -0.501450       -13.6451
  50   2.0000      -0.493487       -13.4285
  51   2.0000      -0.480199       -13.0669
  52   2.0000      -0.469550       -12.7771
  53   2.0000      -0.466571       -12.6961
  54   2.0000      -0.459420       -12.5015
  55   2.0000      -0.453375       -12.3370
  56   2.0000      -0.439784       -11.9671
  57   2.0000      -0.435574       -11.8526
  58   2.0000      -0.431051       -11.7295
  59   2.0000      -0.425602       -11.5812
  60   2.0000      -0.420004       -11.4289
  61   2.0000      -0.418437       -11.3863
  62   2.0000      -0.406014       -11.0482
  63   2.0000      -0.340651        -9.2696
  64   2.0000      -0.331904        -9.0316
  65   2.0000      -0.326541        -8.8856
  66   2.0000      -0.304375        -8.2825
  67   0.0000       0.038460         1.0465
  68   0.0000       0.059708         1.6247
  69   0.0000       0.110619         3.0101
  70   0.0000       0.127291         3.4638
  71   0.0000       0.132468         3.6046

MULLIKEN ATOMIC CHARGES
-----------------------
   0 S :    0.141269
   1 C :   -0.133915
   2 C :   -0.078405
   3 C :    0.055969
   4 C :   -0.165348
   5 H :    0.005337
   6 C :    0.080719
   7 H :    0.003990
   8 H :    0.002162
   9 C :   -0.028928
  10 H :    0.014554
  11 H :    0.035406
  12 C :   -0.051732
  13 H :    0.022988
  14 H :    0.017154
  15 H :    0.042411
  16 S :    0.076005
  17 C :   -0.100865
  18 C :   -0.032316
  19 C :   -0.015265
  20 C :   -0.175013
  21 H :    0.016614
  22 C :    0.074302
  23 H :    0.033745
  24 H :    0.015337
  25 C :   -0.066061
  26 H :    0.011292
  27 H :    0.020873
  28 C :    0.022367
  29 H :   -0.002749
  30 H :    0.033256
  31 H :    0.011150
  32 H :    0.051039
  33 H :    0.062659
Sum of atomic charges:   -0.0000000

LOEWDIN ATOMIC CHARGES
----------------------
   0 S :    0.456802
   1 C :   -0.211131
   2 C :   -0.066402
   3 C :   -0.055005
   4 C :   -0.217827
   5 H :    0.028221
   6 C :   -0.023234
   7 H :    0.022368
   8 H :    0.022388
   9 C :   -0.031378
  10 H :    0.018393
  11 H :    0.024698
  12 C :   -0.062241
  13 H :    0.024965
  14 H :    0.018739
  15 H :    0.028271
  16 S :    0.376459
  17 C :   -0.160681
  18 C :   -0.063134
  19 C :   -0.057421
  20 C :   -0.199661
  21 H :    0.029242
  22 C :   -0.023799
  23 H :    0.036916
  24 H :    0.026833
  25 C :   -0.035910
  26 H :    0.015120
  27 H :    0.020107
  28 C :   -0.045170
  29 H :    0.008534
  30 H :    0.030448
  31 H :    0.011747
  32 H :    0.027249
  33 H :    0.025495

  Mayer bond orders larger than 0.100000
B(  0-S ,  1-C ) :   1.1680 B(  0-S ,  4-C ) :   1.1918 B(  1-C ,  2-C ) :   1.5706
B(  1-C , 32-H ) :   0.9714 B(  2-C ,  3-C ) :   1.2889 B(  2-C ,  6-C ) :   1.0235
B(  3-C ,  4-C ) :   1.5183 B(  3-C ,  5-H ) :   1.0029 B(  4-C , 20-C ) :   0.9987
B(  6-C ,  7-H ) :   0.9295 B(  6-C ,  8-H ) :   0.9425 B(  6-C ,  9-C ) :   1.0703
B(  9-C , 10-H ) :   0.9494 B(  9-C , 11-H ) :   0.9582 B(  9-C , 12-C ) :   1.0816
B( 12-C , 13-H ) :   0.9758 B( 12-C , 14-H ) :   0.9740 B( 12-C , 15-H ) :   0.9745
B( 16-S , 17-C ) :   1.1369 B( 16-S , 20-C ) :   1.1539 B( 17-C , 18-C ) :   1.6272
B( 17-C , 20-C ) :   0.1035 B( 17-C , 33-H ) :   0.9694 B( 18-C , 19-C ) :   1.2079
B( 18-C , 21-H ) :   0.9947 B( 19-C , 20-C ) :   1.6251 B( 19-C , 22-C ) :   1.0264
B( 22-C , 23-H ) :   0.9384 B( 22-C , 24-H ) :   0.9317 B( 22-C , 25-C ) :   1.0884
B( 25-C , 26-H ) :   0.9534 B( 25-C , 27-H ) :   0.9540 B( 25-C , 28-C ) :   1.0789
B( 28-C , 29-H ) :   0.9709 B( 28-C , 30-H ) :   0.9736 B( 28-C , 31-H ) :   0.9746

Dispersion correction           -0.014690428
FINAL SINGLE POINT ENERGY     -1339.871875002668

DIPOLE MOMENT
-------------
                                X             Y             Z
Electronic contribution:     21.08670       1.21841      -0.23561
Nuclear contribution   :    -21.58526      -1.45584       0.01540
                        -----------------------------------------
Total Dipole Moment    :     -0.49856      -0.23743      -0.22021
                        -----------------------------------------
Magnitude (a.u.)       :      0.59450
Magnitude (Debye)      :      1.51109

Rotational constants in cm-1:     0.020612     0.007846     0.007129
Rotational constants in MHz :   617.920310   235.221716   213.710889

                             ****ORCA TERMINATED NORMALLY****
TOTAL RUN TIME: 0 days 0 hours 0 minutes 34 seconds 905 msec
