                         Program Version 4.2.1 -  RELEASE  -
|  1> ! wB97X-D3 SP def2-SVP
|  2> %pal
|  3> nprocs 16
|  4> end
|  5>
|  6> * xyz 0 1
|  7> S 	 -48.7764 	 6.27851 	 86.1404
|  8> C 	 -48.0881 	 6.45699 	 87.7456
|  9> C 	 -48.8439 	 7.16339 	 88.6526
| 10> C 	 -50.0813 	 7.45873 	 88.0884
| 11> C 	 -50.2604 	 6.9567 	 86.7821
| 12> H 	 -50.8316 	 8.12453 	 88.5107
| 13> C 	 -48.4373 	 7.47215 	 90.125
| 14> H 	 -47.5841 	 6.86707 	 90.2716
| 15> H 	 -49.1604 	 7.07721 	 90.8406
| 16> C 	 -48.0374 	 8.92708 	 90.3667
| 17> H 	 -47.3853 	 8.79111 	 91.2169
| 18> H 	 -47.3852 	 9.2707 	 89.6598
| 19> C 	 -49.1638 	 9.97989 	 90.826
| 20> H 	 -48.6979 	 10.9511 	 91.0564
| 21> H 	 -49.906 	 10.1932 	 90.0373
| 22> H 	 -49.7297 	 9.83951 	 91.7827
| 23> S 	 -51.286 	 7.48596 	 84.139
| 24> C 	 -53.0485 	 7.77713 	 83.9016
| 25> C 	 -53.6475 	 7.53759 	 85.094
| 26> C 	 -52.7614 	 7.27937 	 86.2384
| 27> C 	 -51.4362 	 7.19658 	 85.9177
| 28> H 	 -54.6886 	 7.70548 	 85.3197
| 29> C 	 -53.4319 	 7.00726 	 87.5747
| 30> H 	 -52.843 	 6.33176 	 88.2671
| 31> H 	 -54.3915 	 6.49259 	 87.3064
| 32> C 	 -53.6574 	 8.23861 	 88.4561
| 33> H 	 -54.4646 	 8.76483 	 87.9402
| 34> H 	 -52.7442 	 8.86413 	 88.5663
| 35> C 	 -54.0774 	 7.91697 	 89.9279
| 36> H 	 -54.8626 	 7.19474 	 89.8319
| 37> H 	 -54.3152 	 8.81794 	 90.5531
| 38> H 	 -53.2864 	 7.41178 	 90.3917
| 39> H 	 -47.0104 	 6.27445 	 87.9611
| 40> H 	 -53.6178 	 8.1289 	 83.0308
| 41> *
| 42>
| 43>                          ****END OF INPUT****

CARTESIAN COORDINATES (ANGSTROEM)
---------------------------------
  S    -48.776400    6.278510   86.140400
  C    -48.088100    6.456990   87.745600
  C    -48.843900    7.163390   88.652600
  C    -50.081300    7.458730   88.088400
  C    -50.260400    6.956700   86.782100
  H    -50.831600    8.124530   88.510700
  C    -48.437300    7.472150   90.125000
  H    -47.584100    6.867070   90.271600
  H    -49.160400    7.077210   90.840600
  C    -48.037400    8.927080   90.366700
  H    -47.385300    8.791110   91.216900
  H    -47.385200    9.270700   89.659800
  C    -49.163800    9.979890   90.826000
  H    -48.697900   10.951100   91.056400
  H    -49.906000   10.193200   90.037300
  H    -49.729700    9.839510   91.782700
  S    -51.286000    7.485960   84.139000
  C    -53.048500    7.777130   83.901600
  C    -53.647500    7.537590   85.094000
  C    -52.761400    7.279370   86.238400
  C    -51.436200    7.196580   85.917700
  H    -54.688600    7.705480   85.319700
  C    -53.431900    7.007260   87.574700
  H    -52.843000    6.331760   88.267100
  H    -54.391500    6.492590   87.306400
  C    -53.657400    8.238610   88.456100
  H    -54.464600    8.764830   87.940200
  H    -52.744200    8.864130   88.566300
  C    -54.077400    7.916970   89.927900
  H    -54.862600    7.194740   89.831900
  H    -54.315200    8.817940   90.553100
  H    -53.286400    7.411780   90.391700
  H    -47.010400    6.274450   87.961100
  H    -53.617800    8.128900   83.030800

 Total Charge           Charge          ....    0
 Multiplicity           Mult            ....    1
 Number of Electrons    NEL             ....  134
 Basis Dimension        Dim             ....  322

ORBITAL ENERGIES
----------------

  NO   OCC          E(Eh)            E(eV)
   0   2.0000     -88.973189     -2421.0836
   1   2.0000     -88.962338     -2420.7883
   2   2.0000     -10.335633      -281.2469
   3   2.0000     -10.333292      -281.1832
   4   2.0000     -10.324612      -280.9470
   5   2.0000     -10.316154      -280.7168
   6   2.0000     -10.301809      -280.3265
   7   2.0000     -10.300149      -280.2813
   8   2.0000     -10.298308      -280.2312
   9   2.0000     -10.296880      -280.1923
  10   2.0000     -10.295421      -280.1527
  11   2.0000     -10.293936      -280.1122
  12   2.0000     -10.292256      -280.0665
  13   2.0000     -10.290321      -280.0139
  14   2.0000     -10.290076      -280.0072
  15   2.0000     -10.278118      -279.6818
  16   2.0000      -8.087545      -220.0733
  17   2.0000      -8.075598      -219.7482
  18   2.0000      -6.045938      -164.5183
  19   2.0000      -6.042350      -164.4207
  20   2.0000      -6.038212      -164.3081
  21   2.0000      -6.034643      -164.2110
  22   2.0000      -6.030387      -164.0952
  23   2.0000      -6.025764      -163.9694
  24   2.0000      -1.003335       -27.3021
  25   2.0000      -0.979762       -26.6607
  26   2.0000      -0.910257       -24.7694
  27   2.0000      -0.906345       -24.6629
  28   2.0000      -0.866801       -23.5869
  29   2.0000      -0.851294       -23.1649
  30   2.0000      -0.840740       -22.8777
  31   2.0000      -0.813752       -22.1433
  32   2.0000      -0.786855       -21.4114
  33   2.0000      -0.771746       -21.0003
  34   2.0000      -0.713514       -19.4157
  35   2.0000      -0.703349       -19.1391
  36   2.0000      -0.688836       -18.7442
  37   2.0000      -0.664052       -18.0698
  38   2.0000      -0.637592       -17.3498
  39   2.0000      -0.619658       -16.8617
  40   2.0000      -0.593338       -16.1455
  41   2.0000      -0.572968       -15.5912
  42   2.0000      -0.568032       -15.4569
  43   2.0000      -0.543387       -14.7863
  44   2.0000      -0.535938       -14.5836
  45   2.0000      -0.520359       -14.1597
  46   2.0000      -0.518695       -14.1144
  47   2.0000      -0.507411       -13.8074
  48   2.0000      -0.505875       -13.7656
  49   2.0000      -0.490434       -13.3454
  50   2.0000      -0.488951       -13.3050
  51   2.0000      -0.483466       -13.1558
  52   2.0000      -0.475996       -12.9525
  53   2.0000      -0.466187       -12.6856
  54   2.0000      -0.462788       -12.5931
  55   2.0000      -0.453274       -12.3342
  56   2.0000      -0.448657       -12.2086
  57   2.0000      -0.441305       -12.0085
  58   2.0000      -0.432966       -11.7816
  59   2.0000      -0.427587       -11.6352
  60   2.0000      -0.416170       -11.3246
  61   2.0000      -0.414009       -11.2658
  62   2.0000      -0.404571       -11.0089
  63   2.0000      -0.357320        -9.7232
  64   2.0000      -0.339051        -9.2260
  65   2.0000      -0.325278        -8.8513
  66   2.0000      -0.287417        -7.8210
  67   0.0000       0.021341         0.5807
  68   0.0000       0.074609         2.0302
  69   0.0000       0.096890         2.6365
  70   0.0000       0.121487         3.3058
  71   0.0000       0.123167         3.3515

MULLIKEN ATOMIC CHARGES
-----------------------
   0 S :    0.121789
   1 C :   -0.132620
   2 C :   -0.087766
   3 C :    0.010665
   4 C :   -0.137066
   5 H :   -0.013082
   6 C :    0.097542
   7 H :   -0.000121
   8 H :    0.037200
   9 C :   -0.013529
  10 H :    0.020383
  11 H :    0.010657
  12 C :   -0.084251
  13 H :    0.032012
  14 H :    0.042683
  15 H :    0.039613
  16 S :    0.066030
  17 C :   -0.085045
  18 C :   -0.010431
  19 C :   -0.062718
  20 C :   -0.103190
  21 H :    0.016829
  22 C :   -0.003769
  23 H :    0.032088
  24 H :    0.040950
  25 C :   -0.098836
  26 H :    0.024156
  27 H :    0.045905
  28 C :   -0.020812
  29 H :    0.022323
  30 H :    0.052229
  31 H :    0.014002
  32 H :    0.054166
  33 H :    0.072015
Sum of atomic charges:   -0.0000000

LOEWDIN ATOMIC CHARGES
----------------------
   0 S :    0.410462
   1 C :   -0.201775
   2 C :   -0.065357
   3 C :   -0.060699
   4 C :   -0.183936
   5 H :    0.028722
   6 C :   -0.018438
   7 H :    0.025685
   8 H :    0.035296
   9 C :   -0.029394
  10 H :    0.029420
  11 H :    0.016602
  12 C :   -0.079135
  13 H :    0.029713
  14 H :    0.024136
  15 H :    0.031633
  16 S :    0.344421
  17 C :   -0.169918
  18 C :   -0.070608
  19 C :   -0.063880
  20 C :   -0.172689
  21 H :    0.026578
  22 C :   -0.041118
  23 H :    0.032012
  24 H :    0.035870
  25 C :   -0.042503
  26 H :    0.020340
  27 H :    0.022466
  28 C :   -0.061796
  29 H :    0.021403
  30 H :    0.035823
  31 H :    0.014660
  32 H :    0.031087
  33 H :    0.044916

  Mayer bond orders larger than 0.100000
B(  0-S ,  1-C ) :   1.1447 B(  0-S ,  4-C ) :   1.1525 B(  1-C ,  2-C ) :   1.6220
B(  1-C , 32-H ) :   0.9499 B(  2-C ,  3-C ) :   1.2756 B(  2-C ,  6-C ) :   1.0093
B(  3-C ,  4-C ) :   1.5387 B(  3-C ,  5-H ) :   0.9895 B(  4-C , 20-C ) :   1.0728
B(  6-C ,  7-H ) :   0.9337 B(  6-C ,  8-H ) :   0.9452 B(  6-C ,  9-C ) :   1.0717
B(  9-C , 10-H ) :   0.9546 B(  9-C , 11-H ) :   0.9560 B(  9-C , 12-C ) :   1.0593
B( 12-C , 13-H ) :   0.9736 B( 12-C , 14-H ) :   0.9796 B( 12-C , 15-H ) :   0.9777
B( 16-S , 17-C ) :   1.1125 B( 16-S , 20-C ) :   1.0885 B( 17-C , 18-C ) :   1.6530
B( 17-C , 33-H ) :   0.9648 B( 18-C , 19-C ) :   1.2195 B( 18-C , 21-H ) :   0.9773
B( 19-C , 20-C ) :   1.6520 B( 19-C , 22-C ) :   1.0419 B( 22-C , 23-H ) :   0.9402
B( 22-C , 24-H ) :   0.9376 B( 22-C , 25-C ) :   1.0499 B( 25-C , 26-H ) :   0.9521
B( 25-C , 27-H ) :   0.9547 B( 25-C , 28-C ) :   1.0776 B( 28-C , 29-H ) :   0.9734
B( 28-C , 30-H ) :   0.9746 B( 28-C , 31-H ) :   0.9721

Dispersion correction           -0.014447529
FINAL SINGLE POINT ENERGY     -1339.858107830236

DIPOLE MOMENT
-------------
                                X             Y             Z
Electronic contribution:      7.55914     -10.97107     -29.72347
Nuclear contribution   :     -7.71486      11.31917      30.49184
                        -----------------------------------------
Total Dipole Moment    :     -0.15572       0.34810       0.76838
                        -----------------------------------------
Magnitude (a.u.)       :      0.85781
Magnitude (Debye)      :      2.18037

Rotational constants in cm-1:     0.016535     0.009851     0.006882
Rotational constants in MHz :   495.697629   295.337601   206.317960

                             ****ORCA TERMINATED NORMALLY****
TOTAL RUN TIME: 0 days 0 hours 0 minutes 30 seconds 727 msec
