                         Program Version 4.2.1 -  RELEASE  -
|  1> ! wB97X-D3 SP def2-SVP
|  2> %pal
|  3> nprocs 16
|  4> end
|  5>
|  6> * xyz 0 1
|  7> S 	 -0.174326 	 -17.3724 	 87.262
|  8> C 	 -0.995249 	 -18.8098 	 86.6463
|  9> C 	 -0.216565 	 -19.7245 	 86.0181
| 10> C 	 1.10981 	 -19.236 	 85.8459
| 11> C 	 1.31755 	 -18.0249 	 86.4298
| 12> H 	 1.99066 	 -19.7531 	 85.425
| 13> C 	 -0.743877 	 -20.972 	 85.3248
| 14> H 	 -0.0261484 	 -21.3182 	 84.5551
| 15> H 	 -1.64598 	 -20.701 	 84.8563
| 16> C 	 -1.05297 	 -22.1825 	 86.1981
| 17> H 	 -0.0809171 	 -22.5118 	 86.6599
| 18> H 	 -1.66401 	 -21.8933 	 87.04
| 19> C 	 -1.79356 	 -23.3295 	 85.4132
| 20> H 	 -2.86597 	 -23.1574 	 85.2356
| 21> H 	 -1.42224 	 -23.5098 	 84.3412
| 22> H 	 -1.89736 	 -24.2196 	 85.9821
| 23> S 	 3.04783 	 -16.7665 	 88.0406
| 24> C 	 4.43388 	 -15.9625 	 87.3984
| 25> C 	 4.64661 	 -16.2733 	 86.0829
| 26> C 	 3.68373 	 -17.1795 	 85.5774
| 27> C 	 2.63363 	 -17.3493 	 86.4756
| 28> H 	 5.51298 	 -15.8764 	 85.557
| 29> C 	 3.81315 	 -17.6165 	 84.1696
| 30> H 	 3.71806 	 -16.7162 	 83.5286
| 31> H 	 2.97653 	 -18.1603 	 83.8718
| 32> C 	 5.05118 	 -18.5591 	 83.8931
| 33> H 	 5.05385 	 -19.4594 	 84.5309
| 34> H 	 6.01034 	 -18.1215 	 84.1784
| 35> C 	 5.17837 	 -19.0556 	 82.45
| 36> H 	 6.05656 	 -19.6761 	 82.4629
| 37> H 	 5.4303 	 -18.2922 	 81.7714
| 38> H 	 4.33527 	 -19.5387 	 82.037
| 39> H 	 -2.02883 	 -19.0114 	 86.7737
| 40> H 	 5.10223 	 -15.4099 	 88.0349
| 41> *
| 42>
| 43>                          ****END OF INPUT****

CARTESIAN COORDINATES (ANGSTROEM)
---------------------------------
  S     -0.174326  -17.372400   87.262000
  C     -0.995249  -18.809800   86.646300
  C     -0.216565  -19.724500   86.018100
  C      1.109810  -19.236000   85.845900
  C      1.317550  -18.024900   86.429800
  H      1.990660  -19.753100   85.425000
  C     -0.743877  -20.972000   85.324800
  H     -0.026148  -21.318200   84.555100
  H     -1.645980  -20.701000   84.856300
  C     -1.052970  -22.182500   86.198100
  H     -0.080917  -22.511800   86.659900
  H     -1.664010  -21.893300   87.040000
  C     -1.793560  -23.329500   85.413200
  H     -2.865970  -23.157400   85.235600
  H     -1.422240  -23.509800   84.341200
  H     -1.897360  -24.219600   85.982100
  S      3.047830  -16.766500   88.040600
  C      4.433880  -15.962500   87.398400
  C      4.646610  -16.273300   86.082900
  C      3.683730  -17.179500   85.577400
  C      2.633630  -17.349300   86.475600
  H      5.512980  -15.876400   85.557000
  C      3.813150  -17.616500   84.169600
  H      3.718060  -16.716200   83.528600
  H      2.976530  -18.160300   83.871800
  C      5.051180  -18.559100   83.893100
  H      5.053850  -19.459400   84.530900
  H      6.010340  -18.121500   84.178400
  C      5.178370  -19.055600   82.450000
  H      6.056560  -19.676100   82.462900
  H      5.430300  -18.292200   81.771400
  H      4.335270  -19.538700   82.037000
  H     -2.028830  -19.011400   86.773700
  H      5.102230  -15.409900   88.034900

 Total Charge           Charge          ....    0
 Multiplicity           Mult            ....    1
 Number of Electrons    NEL             ....  134
 Basis Dimension        Dim             ....  322

ORBITAL ENERGIES
----------------

  NO   OCC          E(Eh)            E(eV)
   0   2.0000     -88.970699     -2421.0158
   1   2.0000     -88.960232     -2420.7310
   2   2.0000     -10.331890      -281.1450
   3   2.0000     -10.323718      -280.9227
   4   2.0000     -10.310058      -280.5509
   5   2.0000     -10.309002      -280.5222
   6   2.0000     -10.298570      -280.2383
   7   2.0000     -10.298072      -280.2248
   8   2.0000     -10.293030      -280.0876
   9   2.0000     -10.292823      -280.0819
  10   2.0000     -10.292703      -280.0787
  11   2.0000     -10.289937      -280.0034
  12   2.0000     -10.288536      -279.9653
  13   2.0000     -10.288039      -279.9518
  14   2.0000     -10.286515      -279.9103
  15   2.0000     -10.269851      -279.4568
  16   2.0000      -8.083842      -219.9725
  17   2.0000      -8.076351      -219.7687
  18   2.0000      -6.042540      -164.4259
  19   2.0000      -6.038852      -164.3255
  20   2.0000      -6.034659      -164.2114
  21   2.0000      -6.034207      -164.1991
  22   2.0000      -6.030719      -164.1042
  23   2.0000      -6.027195      -164.0083
  24   2.0000      -1.008436       -27.4409
  25   2.0000      -0.984844       -26.7990
  26   2.0000      -0.909626       -24.7522
  27   2.0000      -0.907089       -24.6831
  28   2.0000      -0.867248       -23.5990
  29   2.0000      -0.857860       -23.3436
  30   2.0000      -0.846476       -23.0338
  31   2.0000      -0.815551       -22.1923
  32   2.0000      -0.783716       -21.3260
  33   2.0000      -0.772914       -21.0321
  34   2.0000      -0.708843       -19.2886
  35   2.0000      -0.703421       -19.1410
  36   2.0000      -0.696898       -18.9636
  37   2.0000      -0.662967       -18.0403
  38   2.0000      -0.638701       -17.3799
  39   2.0000      -0.619579       -16.8596
  40   2.0000      -0.601117       -16.3572
  41   2.0000      -0.571539       -15.5524
  42   2.0000      -0.558187       -15.1890
  43   2.0000      -0.551151       -14.9976
  44   2.0000      -0.534002       -14.5309
  45   2.0000      -0.520887       -14.1741
  46   2.0000      -0.516993       -14.0681
  47   2.0000      -0.509793       -13.8722
  48   2.0000      -0.506315       -13.7775
  49   2.0000      -0.495545       -13.4845
  50   2.0000      -0.489461       -13.3189
  51   2.0000      -0.476147       -12.9566
  52   2.0000      -0.474287       -12.9060
  53   2.0000      -0.465307       -12.6616
  54   2.0000      -0.458839       -12.4856
  55   2.0000      -0.451051       -12.2737
  56   2.0000      -0.444399       -12.0927
  57   2.0000      -0.441492       -12.0136
  58   2.0000      -0.438447       -11.9307
  59   2.0000      -0.429417       -11.6850
  60   2.0000      -0.423885       -11.5345
  61   2.0000      -0.416514       -11.3339
  62   2.0000      -0.414939       -11.2911
  63   2.0000      -0.352533        -9.5929
  64   2.0000      -0.333367        -9.0714
  65   2.0000      -0.328873        -8.9491
  66   2.0000      -0.286662        -7.8005
  67   0.0000       0.030193         0.8216
  68   0.0000       0.071273         1.9394
  69   0.0000       0.103728         2.8226
  70   0.0000       0.118843         3.2339
  71   0.0000       0.131156         3.5689

MULLIKEN ATOMIC CHARGES
-----------------------
   0 S :    0.111867
   1 C :   -0.102388
   2 C :   -0.049021
   3 C :   -0.007698
   4 C :   -0.126150
   5 H :    0.030071
   6 C :    0.066711
   7 H :    0.027281
   8 H :    0.016263
   9 C :   -0.072804
  10 H :    0.035378
  11 H :    0.025441
  12 C :   -0.065138
  13 H :    0.024063
  14 H :    0.042060
  15 H :    0.031014
  16 S :    0.098895
  17 C :   -0.084135
  18 C :   -0.035476
  19 C :   -0.035570
  20 C :   -0.162951
  21 H :    0.022415
  22 C :    0.097405
  23 H :    0.040068
  24 H :   -0.015585
  25 C :   -0.102910
  26 H :    0.028571
  27 H :    0.022280
  28 C :   -0.000768
  29 H :    0.024902
  30 H :    0.014357
  31 H :    0.025550
  32 H :    0.027336
  33 H :    0.048667
Sum of atomic charges:    0.0000000

LOEWDIN ATOMIC CHARGES
----------------------
   0 S :    0.363815
   1 C :   -0.178103
   2 C :   -0.063130
   3 C :   -0.063340
   4 C :   -0.167658
   5 H :    0.039843
   6 C :   -0.028806
   7 H :    0.033308
   8 H :    0.024525
   9 C :   -0.039623
  10 H :    0.028310
  11 H :    0.020897
  12 C :   -0.078558
  13 H :    0.027139
  14 H :    0.033870
  15 H :    0.023318
  16 S :    0.421031
  17 C :   -0.189372
  18 C :   -0.068054
  19 C :   -0.063155
  20 C :   -0.200082
  21 H :    0.034389
  22 C :   -0.033227
  23 H :    0.040537
  24 H :    0.016783
  25 C :   -0.035143
  26 H :    0.027396
  27 H :    0.021391
  28 C :   -0.058276
  29 H :    0.029183
  30 H :    0.018854
  31 H :    0.019022
  32 H :    0.019655
  33 H :    0.023262

  Mayer bond orders larger than 0.100000
B(  0-S ,  1-C ) :   1.1133 B(  0-S ,  4-C ) :   1.1109 B(  1-C ,  2-C ) :   1.6706
B(  1-C , 32-H ) :   0.9614 B(  2-C ,  3-C ) :   1.2009 B(  2-C ,  6-C ) :   1.0117
B(  3-C ,  4-C ) :   1.6350 B(  3-C ,  5-H ) :   0.9837 B(  4-C , 20-C ) :   1.0344
B(  6-C ,  7-H ) :   0.9447 B(  6-C ,  8-H ) :   0.9440 B(  6-C ,  9-C ) :   1.0616
B(  9-C , 10-H ) :   0.9571 B(  9-C , 11-H ) :   0.9579 B(  9-C , 12-C ) :   1.0680
B( 12-C , 13-H ) :   0.9718 B( 12-C , 14-H ) :   0.9758 B( 12-C , 15-H ) :   0.9746
B( 16-S , 17-C ) :   1.1547 B( 16-S , 20-C ) :   1.1628 B( 17-C , 18-C ) :   1.6017
B( 17-C , 33-H ) :   0.9713 B( 18-C , 19-C ) :   1.2340 B( 18-C , 21-H ) :   0.9934
B( 19-C , 20-C ) :   1.5752 B( 19-C , 22-C ) :   1.0666 B( 22-C , 23-H ) :   0.9356
B( 22-C , 24-H ) :   0.9247 B( 22-C , 25-C ) :   1.0397 B( 25-C , 26-H ) :   0.9562
B( 25-C , 27-H ) :   0.9587 B( 25-C , 28-C ) :   1.0904 B( 28-C , 29-H ) :   0.9719
B( 28-C , 30-H ) :   0.9719 B( 28-C , 31-H ) :   0.9750

Dispersion correction           -0.013396408
FINAL SINGLE POINT ENERGY     -1339.871238298280

DIPOLE MOMENT
-------------
                                X             Y             Z
Electronic contribution:     -1.79884      22.71631      20.23614
Nuclear contribution   :      1.95642     -23.16379     -20.72298
                        -----------------------------------------
Total Dipole Moment    :      0.15758      -0.44748      -0.48685
                        -----------------------------------------
Magnitude (a.u.)       :      0.67977
Magnitude (Debye)      :      1.72784

Rotational constants in cm-1:     0.017290     0.008082     0.005913
Rotational constants in MHz :   518.337471   242.290088   177.278264

                             ****ORCA TERMINATED NORMALLY****
TOTAL RUN TIME: 0 days 0 hours 0 minutes 32 seconds 855 msec
