                         Program Version 4.2.1 -  RELEASE  -
|  1> ! wB97X-D3 SP def2-SVP
|  2> %pal
|  3> nprocs 16
|  4> end
|  5>
|  6> * xyz 0 1
|  7> S 	 -40.9405 	 51.8442 	 106.576
|  8> C 	 -42.078 	 53.0866 	 106.312
|  9> C 	 -41.7514 	 54.1855 	 107.061
| 10> C 	 -40.5569 	 54.071 	 107.813
| 11> C 	 -40.112 	 52.7543 	 107.827
| 12> H 	 -40.111 	 54.8926 	 108.376
| 13> C 	 -42.3648 	 55.5204 	 106.858
| 14> H 	 -42.7925 	 55.5857 	 105.85
| 15> H 	 -41.5801 	 56.3026 	 106.749
| 16> C 	 -43.3299 	 55.9989 	 107.951
| 17> H 	 -44.0747 	 55.2485 	 107.967
| 18> H 	 -42.851 	 55.9971 	 108.964
| 19> C 	 -43.81 	 57.3864 	 107.827
| 20> H 	 -44.3684 	 57.7755 	 108.702
| 21> H 	 -43.0994 	 58.1659 	 107.76
| 22> H 	 -44.3856 	 57.4882 	 106.963
| 23> S 	 -39.0781 	 50.4423 	 108.959
| 24> C 	 -37.5653 	 50.6315 	 109.868
| 25> C 	 -36.9339 	 51.7892 	 109.589
| 26> C 	 -37.7532 	 52.7183 	 108.835
| 27> C 	 -39.003 	 52.1217 	 108.555
| 28> H 	 -35.8831 	 52.0131 	 109.944
| 29> C 	 -37.2842 	 54.1213 	 108.521
| 30> H 	 -36.776 	 54.4642 	 109.436
| 31> H 	 -38.1734 	 54.7874 	 108.496
| 32> C 	 -36.3252 	 54.2916 	 107.356
| 33> H 	 -36.2298 	 53.4318 	 106.725
| 34> H 	 -35.3039 	 54.3633 	 107.673
| 35> C 	 -36.7141 	 55.4723 	 106.424
| 36> H 	 -37.6733 	 55.3365 	 105.827
| 37> H 	 -35.9998 	 55.622 	 105.656
| 38> H 	 -36.8672 	 56.3966 	 106.982
| 39> H 	 -42.8939 	 53.158 	 105.569
| 40> H 	 -37.0076 	 49.8764 	 110.421
| 41> *
| 42>
| 43>                          ****END OF INPUT****

CARTESIAN COORDINATES (ANGSTROEM)
---------------------------------
  S    -40.940500   51.844200  106.576000
  C    -42.078000   53.086600  106.312000
  C    -41.751400   54.185500  107.061000
  C    -40.556900   54.071000  107.813000
  C    -40.112000   52.754300  107.827000
  H    -40.111000   54.892600  108.376000
  C    -42.364800   55.520400  106.858000
  H    -42.792500   55.585700  105.850000
  H    -41.580100   56.302600  106.749000
  C    -43.329900   55.998900  107.951000
  H    -44.074700   55.248500  107.967000
  H    -42.851000   55.997100  108.964000
  C    -43.810000   57.386400  107.827000
  H    -44.368400   57.775500  108.702000
  H    -43.099400   58.165900  107.760000
  H    -44.385600   57.488200  106.963000
  S    -39.078100   50.442300  108.959000
  C    -37.565300   50.631500  109.868000
  C    -36.933900   51.789200  109.589000
  C    -37.753200   52.718300  108.835000
  C    -39.003000   52.121700  108.555000
  H    -35.883100   52.013100  109.944000
  C    -37.284200   54.121300  108.521000
  H    -36.776000   54.464200  109.436000
  H    -38.173400   54.787400  108.496000
  C    -36.325200   54.291600  107.356000
  H    -36.229800   53.431800  106.725000
  H    -35.303900   54.363300  107.673000
  C    -36.714100   55.472300  106.424000
  H    -37.673300   55.336500  105.827000
  H    -35.999800   55.622000  105.656000
  H    -36.867200   56.396600  106.982000
  H    -42.893900   53.158000  105.569000
  H    -37.007600   49.876400  110.421000

 Total Charge           Charge          ....    0
 Multiplicity           Mult            ....    1
 Number of Electrons    NEL             ....  134
 Basis Dimension        Dim             ....  322

ORBITAL ENERGIES
----------------

  NO   OCC          E(Eh)            E(eV)
   0   2.0000     -88.969847     -2420.9926
   1   2.0000     -88.965603     -2420.8771
   2   2.0000     -10.331268      -281.1281
   3   2.0000     -10.328385      -281.0497
   4   2.0000     -10.315191      -280.6906
   5   2.0000     -10.309665      -280.5402
   6   2.0000     -10.305849      -280.4364
   7   2.0000     -10.296958      -280.1945
   8   2.0000     -10.294917      -280.1389
   9   2.0000     -10.293358      -280.0965
  10   2.0000     -10.291634      -280.0496
  11   2.0000     -10.287794      -279.9451
  12   2.0000     -10.284281      -279.8495
  13   2.0000     -10.280090      -279.7355
  14   2.0000     -10.279677      -279.7242
  15   2.0000     -10.267011      -279.3796
  16   2.0000      -8.084355      -219.9865
  17   2.0000      -8.080998      -219.8951
  18   2.0000      -6.042968      -164.4375
  19   2.0000      -6.039486      -164.3428
  20   2.0000      -6.039189      -164.3347
  21   2.0000      -6.035405      -164.2317
  22   2.0000      -6.034718      -164.2130
  23   2.0000      -6.031756      -164.1324
  24   2.0000      -1.010330       -27.4925
  25   2.0000      -0.987924       -26.8828
  26   2.0000      -0.915759       -24.9191
  27   2.0000      -0.908912       -24.7328
  28   2.0000      -0.872657       -23.7462
  29   2.0000      -0.855022       -23.2663
  30   2.0000      -0.848285       -23.0830
  31   2.0000      -0.818492       -22.2723
  32   2.0000      -0.782785       -21.3007
  33   2.0000      -0.769538       -20.9402
  34   2.0000      -0.712392       -19.3852
  35   2.0000      -0.702393       -19.1131
  36   2.0000      -0.696691       -18.9579
  37   2.0000      -0.657579       -17.8936
  38   2.0000      -0.634329       -17.2610
  39   2.0000      -0.625107       -17.0100
  40   2.0000      -0.596520       -16.2321
  41   2.0000      -0.569903       -15.5079
  42   2.0000      -0.561823       -15.2880
  43   2.0000      -0.553932       -15.0733
  44   2.0000      -0.530094       -14.4246
  45   2.0000      -0.526116       -14.3163
  46   2.0000      -0.524371       -14.2689
  47   2.0000      -0.510421       -13.8893
  48   2.0000      -0.501627       -13.6500
  49   2.0000      -0.498294       -13.5593
  50   2.0000      -0.496379       -13.5072
  51   2.0000      -0.480910       -13.0862
  52   2.0000      -0.472346       -12.8532
  53   2.0000      -0.466885       -12.7046
  54   2.0000      -0.457494       -12.4491
  55   2.0000      -0.454625       -12.3710
  56   2.0000      -0.449852       -12.2411
  57   2.0000      -0.442657       -12.0453
  58   2.0000      -0.428236       -11.6529
  59   2.0000      -0.424241       -11.5442
  60   2.0000      -0.420299       -11.4369
  61   2.0000      -0.409195       -11.1348
  62   2.0000      -0.406500       -11.0614
  63   2.0000      -0.356538        -9.7019
  64   2.0000      -0.333140        -9.0652
  65   2.0000      -0.327344        -8.9075
  66   2.0000      -0.284170        -7.7326
  67   0.0000       0.025420         0.6917
  68   0.0000       0.074802         2.0355
  69   0.0000       0.101611         2.7650
  70   0.0000       0.117319         3.1924
  71   0.0000       0.132417         3.6032

MULLIKEN ATOMIC CHARGES
-----------------------
   0 S :    0.106007
   1 C :   -0.106983
   2 C :   -0.076898
   3 C :    0.001818
   4 C :   -0.128333
   5 H :    0.028253
   6 C :    0.012224
   7 H :    0.013247
   8 H :    0.015346
   9 C :   -0.040944
  10 H :    0.016755
  11 H :    0.026700
  12 C :   -0.004802
  13 H :    0.032020
  14 H :    0.007740
  15 H :    0.009663
  16 S :    0.117577
  17 C :   -0.079642
  18 C :   -0.048425
  19 C :   -0.069440
  20 C :   -0.142259
  21 H :    0.038765
  22 C :    0.082253
  23 H :    0.027575
  24 H :    0.009667
  25 C :   -0.018229
  26 H :    0.027688
  27 H :    0.019136
  28 C :   -0.085180
  29 H :    0.045344
  30 H :    0.024045
  31 H :    0.032330
  32 H :    0.053222
  33 H :    0.053759
Sum of atomic charges:   -0.0000000

LOEWDIN ATOMIC CHARGES
----------------------
   0 S :    0.418736
   1 C :   -0.218551
   2 C :   -0.071586
   3 C :   -0.065327
   4 C :   -0.179130
   5 H :    0.031915
   6 C :   -0.037663
   7 H :    0.026749
   8 H :    0.029668
   9 C :   -0.040112
  10 H :    0.019042
  11 H :    0.029827
  12 C :   -0.065764
  13 H :    0.034187
  14 H :    0.020381
  15 H :    0.015578
  16 S :    0.402895
  17 C :   -0.183994
  18 C :   -0.073079
  19 C :   -0.051625
  20 C :   -0.208410
  21 H :    0.041818
  22 C :   -0.036009
  23 H :    0.037136
  24 H :    0.032447
  25 C :   -0.038561
  26 H :    0.025976
  27 H :    0.023254
  28 C :   -0.066232
  29 H :    0.034953
  30 H :    0.018808
  31 H :    0.021201
  32 H :    0.038248
  33 H :    0.033225

  Mayer bond orders larger than 0.100000
B(  0-S ,  1-C ) :   1.1309 B(  0-S ,  4-C ) :   1.1666 B(  1-C ,  2-C ) :   1.6041
B(  1-C , 32-H ) :   0.9634 B(  2-C ,  3-C ) :   1.2680 B(  2-C ,  6-C ) :   1.0337
B(  3-C ,  4-C ) :   1.5484 B(  3-C ,  5-H ) :   0.9845 B(  4-C , 20-C ) :   1.0556
B(  6-C ,  7-H ) :   0.9439 B(  6-C ,  8-H ) :   0.9418 B(  6-C ,  9-C ) :   1.0497
B(  9-C , 10-H ) :   0.9535 B(  9-C , 11-H ) :   0.9563 B(  9-C , 12-C ) :   1.0898
B( 12-C , 13-H ) :   0.9701 B( 12-C , 14-H ) :   0.9664 B( 12-C , 15-H ) :   0.9702
B( 16-S , 17-C ) :   1.1197 B( 16-S , 20-C ) :   1.1391 B( 17-C , 18-C ) :   1.6597
B( 17-C , 33-H ) :   0.9627 B( 18-C , 19-C ) :   1.2284 B( 18-C , 21-H ) :   0.9753
B( 19-C , 20-C ) :   1.5808 B( 19-C , 22-C ) :   1.0477 B( 22-C , 23-H ) :   0.9272
B( 22-C , 24-H ) :   0.9418 B( 22-C , 25-C ) :   1.0300 B( 25-C , 26-H ) :   0.9629
B( 25-C , 27-H ) :   0.9520 B( 25-C , 28-C ) :   1.0843 B( 28-C , 29-H ) :   0.9760
B( 28-C , 30-H ) :   0.9742 B( 28-C , 31-H ) :   0.9780

Dispersion correction           -0.013970600
FINAL SINGLE POINT ENERGY     -1339.865384869580

DIPOLE MOMENT
-------------
                                X             Y             Z
Electronic contribution:      0.49480     -29.77851       3.13218
Nuclear contribution   :     -0.10546      30.42564      -3.18398
                        -----------------------------------------
Total Dipole Moment    :      0.38933       0.64713      -0.05180
                        -----------------------------------------
Magnitude (a.u.)       :      0.75700
Magnitude (Debye)      :      1.92413

Rotational constants in cm-1:     0.018495     0.008401     0.006815
Rotational constants in MHz :   554.465804   251.849552   204.317327

                             ****ORCA TERMINATED NORMALLY****
TOTAL RUN TIME: 0 days 0 hours 0 minutes 30 seconds 192 msec
