                         Program Version 4.2.1 -  RELEASE  -
|  1> ! wB97X-D3 SP def2-SVP
|  2> %pal
|  3> nprocs 16
|  4> end
|  5>
|  6> * xyz 0 1
|  7> S 	 -15.5132 	 37.6873 	 55.965
|  8> C 	 -15.2527 	 37.6267 	 54.2185
|  9> C 	 -16.2462 	 38.3031 	 53.5109
| 10> C 	 -17.1068 	 39.034 	 54.3771
| 11> C 	 -16.8692 	 38.81 	 55.7202
| 12> H 	 -17.8845 	 39.7398 	 54.1122
| 13> C 	 -16.4302 	 38.3187 	 52.0039
| 14> H 	 -17.4463 	 38.7476 	 51.9336
| 15> H 	 -16.385 	 37.3011 	 51.6562
| 16> C 	 -15.4575 	 39.1348 	 51.2375
| 17> H 	 -15.5996 	 39.1982 	 50.1379
| 18> H 	 -15.6309 	 40.1696 	 51.5815
| 19> C 	 -13.9686 	 38.7199 	 51.4393
| 20> H 	 -13.6486 	 39.2149 	 52.3332
| 21> H 	 -13.9291 	 37.6755 	 51.5623
| 22> H 	 -13.2759 	 38.895 	 50.5749
| 23> S 	 -16.7235 	 39.9325 	 58.1434
| 24> C 	 -18.1417 	 40.2926 	 59.1164
| 25> C 	 -19.2617 	 39.696 	 58.6269
| 26> C 	 -19.0118 	 39.1254 	 57.3174
| 27> C 	 -17.6862 	 39.3003 	 56.8485
| 28> H 	 -20.1558 	 39.6322 	 59.312
| 29> C 	 -20.0589 	 38.3747 	 56.5331
| 30> H 	 -19.46 	 37.7119 	 55.885
| 31> H 	 -20.5797 	 39.0667 	 55.8938
| 32> C 	 -20.9604 	 37.4563 	 57.4237
| 33> H 	 -21.258 	 38.0477 	 58.3005
| 34> H 	 -20.4658 	 36.5203 	 57.7192
| 35> C 	 -22.2545 	 37.0372 	 56.7142
| 36> H 	 -22.1068 	 36.5004 	 55.8013
| 37> H 	 -22.8585 	 37.9284 	 56.5806
| 38> H 	 -22.8218 	 36.3295 	 57.4101
| 39> H 	 -14.4921 	 37.0105 	 53.7205
| 40> H 	 -18.1162 	 41.018 	 59.9942
| 41> *
| 42>
| 43>                          ****END OF INPUT****

CARTESIAN COORDINATES (ANGSTROEM)
---------------------------------
  S    -15.513200   37.687300   55.965000
  C    -15.252700   37.626700   54.218500
  C    -16.246200   38.303100   53.510900
  C    -17.106800   39.034000   54.377100
  C    -16.869200   38.810000   55.720200
  H    -17.884500   39.739800   54.112200
  C    -16.430200   38.318700   52.003900
  H    -17.446300   38.747600   51.933600
  H    -16.385000   37.301100   51.656200
  C    -15.457500   39.134800   51.237500
  H    -15.599600   39.198200   50.137900
  H    -15.630900   40.169600   51.581500
  C    -13.968600   38.719900   51.439300
  H    -13.648600   39.214900   52.333200
  H    -13.929100   37.675500   51.562300
  H    -13.275900   38.895000   50.574900
  S    -16.723500   39.932500   58.143400
  C    -18.141700   40.292600   59.116400
  C    -19.261700   39.696000   58.626900
  C    -19.011800   39.125400   57.317400
  C    -17.686200   39.300300   56.848500
  H    -20.155800   39.632200   59.312000
  C    -20.058900   38.374700   56.533100
  H    -19.460000   37.711900   55.885000
  H    -20.579700   39.066700   55.893800
  C    -20.960400   37.456300   57.423700
  H    -21.258000   38.047700   58.300500
  H    -20.465800   36.520300   57.719200
  C    -22.254500   37.037200   56.714200
  H    -22.106800   36.500400   55.801300
  H    -22.858500   37.928400   56.580600
  H    -22.821800   36.329500   57.410100
  H    -14.492100   37.010500   53.720500
  H    -18.116200   41.018000   59.994200

 Total Charge           Charge          ....    0
 Multiplicity           Mult            ....    1
 Number of Electrons    NEL             ....  134
 Basis Dimension        Dim             ....  322

ORBITAL ENERGIES
----------------

  NO   OCC          E(Eh)            E(eV)
   0   2.0000     -88.970203     -2421.0023
   1   2.0000     -88.960004     -2420.7248
   2   2.0000     -10.333339      -281.1844
   3   2.0000     -10.327583      -281.0278
   4   2.0000     -10.320978      -280.8481
   5   2.0000     -10.317563      -280.7552
   6   2.0000     -10.310519      -280.5635
   7   2.0000     -10.302482      -280.3448
   8   2.0000     -10.300046      -280.2785
   9   2.0000     -10.294767      -280.1348
  10   2.0000     -10.290884      -280.0292
  11   2.0000     -10.289651      -279.9956
  12   2.0000     -10.289308      -279.9863
  13   2.0000     -10.286419      -279.9077
  14   2.0000     -10.279335      -279.7149
  15   2.0000     -10.274874      -279.5935
  16   2.0000      -8.083971      -219.9760
  17   2.0000      -8.075403      -219.7429
  18   2.0000      -6.042513      -164.4251
  19   2.0000      -6.038674      -164.3207
  20   2.0000      -6.034675      -164.2118
  21   2.0000      -6.033896      -164.1906
  22   2.0000      -6.029838      -164.0802
  23   2.0000      -6.026111      -163.9788
  24   2.0000      -1.004479       -27.3333
  25   2.0000      -0.982239       -26.7281
  26   2.0000      -0.917198       -24.9582
  27   2.0000      -0.905020       -24.6268
  28   2.0000      -0.867091       -23.5948
  29   2.0000      -0.850178       -23.1345
  30   2.0000      -0.844271       -22.9738
  31   2.0000      -0.814425       -22.1616
  32   2.0000      -0.785017       -21.3614
  33   2.0000      -0.765964       -20.8429
  34   2.0000      -0.704182       -19.1618
  35   2.0000      -0.696035       -18.9401
  36   2.0000      -0.693623       -18.8744
  37   2.0000      -0.649937       -17.6857
  38   2.0000      -0.638940       -17.3864
  39   2.0000      -0.620175       -16.8758
  40   2.0000      -0.590467       -16.0674
  41   2.0000      -0.569608       -15.4998
  42   2.0000      -0.568229       -15.4623
  43   2.0000      -0.549692       -14.9579
  44   2.0000      -0.544829       -14.8256
  45   2.0000      -0.524100       -14.2615
  46   2.0000      -0.519760       -14.1434
  47   2.0000      -0.514549       -14.0016
  48   2.0000      -0.500769       -13.6266
  49   2.0000      -0.494867       -13.4660
  50   2.0000      -0.486285       -13.2325
  51   2.0000      -0.482850       -13.1390
  52   2.0000      -0.470037       -12.7904
  53   2.0000      -0.462811       -12.5937
  54   2.0000      -0.457731       -12.4555
  55   2.0000      -0.450184       -12.2501
  56   2.0000      -0.444647       -12.0995
  57   2.0000      -0.440858       -11.9964
  58   2.0000      -0.432350       -11.7648
  59   2.0000      -0.425506       -11.5786
  60   2.0000      -0.418477       -11.3873
  61   2.0000      -0.409827       -11.1520
  62   2.0000      -0.404954       -11.0193
  63   2.0000      -0.346987        -9.4420
  64   2.0000      -0.334356        -9.0983
  65   2.0000      -0.324454        -8.8288
  66   2.0000      -0.291075        -7.9205
  67   0.0000       0.030468         0.8291
  68   0.0000       0.059523         1.6197
  69   0.0000       0.103823         2.8252
  70   0.0000       0.117821         3.2061
  71   0.0000       0.128259         3.4901

MULLIKEN ATOMIC CHARGES
-----------------------
   0 S :    0.123746
   1 C :   -0.133891
   2 C :   -0.112153
   3 C :    0.020244
   4 C :   -0.144415
   5 H :    0.016719
   6 C :    0.094501
   7 H :    0.024676
   8 H :    0.030995
   9 C :   -0.076211
  10 H :    0.035083
  11 H :    0.022911
  12 C :   -0.051778
  13 H :    0.048057
  14 H :    0.008146
  15 H :    0.042055
  16 S :    0.085289
  17 C :   -0.119934
  18 C :   -0.052888
  19 C :   -0.051548
  20 C :   -0.165283
  21 H :    0.053481
  22 C :    0.082790
  23 H :    0.032549
  24 H :    0.035727
  25 C :   -0.103832
  26 H :    0.029625
  27 H :    0.043950
  28 C :   -0.060133
  29 H :    0.033922
  30 H :    0.031309
  31 H :    0.037678
  32 H :    0.055635
  33 H :    0.082979
Sum of atomic charges:   -0.0000000

LOEWDIN ATOMIC CHARGES
----------------------
   0 S :    0.392716
   1 C :   -0.197287
   2 C :   -0.061380
   3 C :   -0.066280
   4 C :   -0.189678
   5 H :    0.034433
   6 C :   -0.030889
   7 H :    0.036684
   8 H :    0.028733
   9 C :   -0.045398
  10 H :    0.026636
  11 H :    0.024999
  12 C :   -0.064400
  13 H :    0.026902
  14 H :    0.011779
  15 H :    0.033551
  16 S :    0.403798
  17 C :   -0.187955
  18 C :   -0.088905
  19 C :   -0.051039
  20 C :   -0.210037
  21 H :    0.046904
  22 C :   -0.034566
  23 H :    0.035647
  24 H :    0.028867
  25 C :   -0.038096
  26 H :    0.021294
  27 H :    0.029639
  28 C :   -0.065703
  29 H :    0.019546
  30 H :    0.022283
  31 H :    0.032837
  32 H :    0.030542
  33 H :    0.043822

  Mayer bond orders larger than 0.100000
B(  0-S ,  1-C ) :   1.1307 B(  0-S ,  4-C ) :   1.1432 B(  1-C ,  2-C ) :   1.6152
B(  1-C , 32-H ) :   0.9630 B(  2-C ,  3-C ) :   1.2375 B(  2-C ,  6-C ) :   1.0067
B(  3-C ,  4-C ) :   1.5935 B(  3-C ,  5-H ) :   0.9932 B(  4-C , 20-C ) :   1.0371
B(  6-C ,  7-H ) :   0.9379 B(  6-C ,  8-H ) :   0.9373 B(  6-C ,  9-C ) :   1.0841
B(  9-C , 10-H ) :   0.9593 B(  9-C , 11-H ) :   0.9556 B(  9-C , 12-C ) :   1.0667
B( 12-C , 13-H ) :   0.9733 B( 12-C , 14-H ) :   0.9746 B( 12-C , 15-H ) :   0.9735
B( 16-S , 17-C ) :   1.1655 B( 16-S , 20-C ) :   1.1371 B( 17-C , 18-C ) :   1.6226
B( 17-C , 33-H ) :   0.9549 B( 18-C , 19-C ) :   1.2259 B( 18-C , 21-H ) :   0.9787
B( 19-C , 20-C ) :   1.5796 B( 19-C , 22-C ) :   1.0294 B( 22-C , 23-H ) :   0.9312
B( 22-C , 24-H ) :   0.9434 B( 22-C , 25-C ) :   1.0562 B( 25-C , 26-H ) :   0.9580
B( 25-C , 27-H ) :   0.9581 B( 25-C , 28-C ) :   1.0873 B( 28-C , 29-H ) :   0.9754
B( 28-C , 30-H ) :   0.9778 B( 28-C , 31-H ) :   0.9744

Dispersion correction           -0.013828751
FINAL SINGLE POINT ENERGY     -1339.869435393737

DIPOLE MOMENT
-------------
                                X             Y             Z
Electronic contribution:     12.24510       5.05074      17.54482
Nuclear contribution   :    -12.71649      -5.14880     -17.85707
                        -----------------------------------------
Total Dipole Moment    :     -0.47140      -0.09806      -0.31225
                        -----------------------------------------
Magnitude (a.u.)       :      0.57388
Magnitude (Debye)      :      1.45867

Rotational constants in cm-1:     0.020869     0.007543     0.006189
Rotational constants in MHz :   625.643262   226.135291   185.539032

                             ****ORCA TERMINATED NORMALLY****
TOTAL RUN TIME: 0 days 0 hours 0 minutes 34 seconds 253 msec
