                         Program Version 4.2.1 -  RELEASE  -
|  1> ! wB97X-D3 SP def2-SVP
|  2> %pal
|  3> nprocs 16
|  4> end
|  5>
|  6> * xyz 0 1
|  7> S 	 -47.2288 	 63.6862 	 145.414
|  8> C 	 -45.6022 	 64.0792 	 144.907
|  9> C 	 -45.458 	 65.4413 	 144.664
| 10> C 	 -46.6099 	 66.1521 	 145.233
| 11> C 	 -47.6016 	 65.3765 	 145.736
| 12> H 	 -46.7253 	 67.2265 	 145.299
| 13> C 	 -44.2129 	 66.1332 	 144.177
| 14> H 	 -44.4421 	 66.9379 	 143.472
| 15> H 	 -43.6574 	 65.3727 	 143.591
| 16> C 	 -43.3555 	 66.7663 	 145.316
| 17> H 	 -43.2695 	 65.9581 	 146.07
| 18> H 	 -42.3955 	 67.0804 	 144.926
| 19> C 	 -44.005 	 67.8597 	 146.157
| 20> H 	 -44.9074 	 67.4394 	 146.645
| 21> H 	 -43.2724 	 67.9638 	 147.028
| 22> H 	 -44.1616 	 68.838 	 145.621
| 23> S 	 -50.2903 	 64.9236 	 146.06
| 24> C 	 -51.0872 	 65.5318 	 147.429
| 25> C 	 -50.2974 	 66.3911 	 148.113
| 26> C 	 -48.9803 	 66.4685 	 147.593
| 27> C 	 -48.8228 	 65.7473 	 146.451
| 28> H 	 -50.7003 	 66.7596 	 149.016
| 29> C 	 -47.8756 	 67.0691 	 148.445
| 30> H 	 -48.2806 	 67.6671 	 149.221
| 31> H 	 -47.3458 	 67.8392 	 147.813
| 32> C 	 -46.8477 	 66.004 	 148.991
| 33> H 	 -46.4216 	 65.3342 	 148.239
| 34> H 	 -47.3714 	 65.4685 	 149.736
| 35> C 	 -45.6846 	 66.7317 	 149.73
| 36> H 	 -45.0034 	 65.9238 	 149.928
| 37> H 	 -46.1257 	 67.1382 	 150.712
| 38> H 	 -45.0035 	 67.4635 	 149.199
| 39> H 	 -44.857 	 63.3863 	 144.593
| 40> H 	 -52.0759 	 65.2585 	 147.726
| 41> *
| 42>
| 43>                          ****END OF INPUT****

CARTESIAN COORDINATES (ANGSTROEM)
---------------------------------
  S    -47.228800   63.686200  145.414000
  C    -45.602200   64.079200  144.907000
  C    -45.458000   65.441300  144.664000
  C    -46.609900   66.152100  145.233000
  C    -47.601600   65.376500  145.736000
  H    -46.725300   67.226500  145.299000
  C    -44.212900   66.133200  144.177000
  H    -44.442100   66.937900  143.472000
  H    -43.657400   65.372700  143.591000
  C    -43.355500   66.766300  145.316000
  H    -43.269500   65.958100  146.070000
  H    -42.395500   67.080400  144.926000
  C    -44.005000   67.859700  146.157000
  H    -44.907400   67.439400  146.645000
  H    -43.272400   67.963800  147.028000
  H    -44.161600   68.838000  145.621000
  S    -50.290300   64.923600  146.060000
  C    -51.087200   65.531800  147.429000
  C    -50.297400   66.391100  148.113000
  C    -48.980300   66.468500  147.593000
  C    -48.822800   65.747300  146.451000
  H    -50.700300   66.759600  149.016000
  C    -47.875600   67.069100  148.445000
  H    -48.280600   67.667100  149.221000
  H    -47.345800   67.839200  147.813000
  C    -46.847700   66.004000  148.991000
  H    -46.421600   65.334200  148.239000
  H    -47.371400   65.468500  149.736000
  C    -45.684600   66.731700  149.730000
  H    -45.003400   65.923800  149.928000
  H    -46.125700   67.138200  150.712000
  H    -45.003500   67.463500  149.199000
  H    -44.857000   63.386300  144.593000
  H    -52.075900   65.258500  147.726000

 Total Charge           Charge          ....    0
 Multiplicity           Mult            ....    1
 Number of Electrons    NEL             ....  134
 Basis Dimension        Dim             ....  322

ORBITAL ENERGIES
----------------

  NO   OCC          E(Eh)            E(eV)
   0   2.0000     -88.963610     -2420.8229
   1   2.0000     -88.962213     -2420.7849
   2   2.0000     -10.327892      -281.0362
   3   2.0000     -10.320381      -280.8318
   4   2.0000     -10.315195      -280.6907
   5   2.0000     -10.308674      -280.5133
   6   2.0000     -10.306023      -280.4411
   7   2.0000     -10.298037      -280.2238
   8   2.0000     -10.296641      -280.1859
   9   2.0000     -10.293485      -280.1000
  10   2.0000     -10.291656      -280.0502
  11   2.0000     -10.290757      -280.0257
  12   2.0000     -10.289486      -279.9911
  13   2.0000     -10.286635      -279.9136
  14   2.0000     -10.284953      -279.8678
  15   2.0000     -10.284374      -279.8520
  16   2.0000      -8.078682      -219.8321
  17   2.0000      -8.078274      -219.8210
  18   2.0000      -6.037107      -164.2780
  19   2.0000      -6.036922      -164.2730
  20   2.0000      -6.032866      -164.1626
  21   2.0000      -6.032835      -164.1618
  22   2.0000      -6.029546      -164.0723
  23   2.0000      -6.028796      -164.0519
  24   2.0000      -1.015694       -27.6384
  25   2.0000      -0.988818       -26.9071
  26   2.0000      -0.911944       -24.8153
  27   2.0000      -0.903653       -24.5896
  28   2.0000      -0.872498       -23.7419
  29   2.0000      -0.851837       -23.1797
  30   2.0000      -0.841051       -22.8862
  31   2.0000      -0.822123       -22.3711
  32   2.0000      -0.781362       -21.2619
  33   2.0000      -0.771278       -20.9875
  34   2.0000      -0.705541       -19.1987
  35   2.0000      -0.692927       -18.8555
  36   2.0000      -0.691742       -18.8233
  37   2.0000      -0.665993       -18.1226
  38   2.0000      -0.642853       -17.4929
  39   2.0000      -0.617253       -16.7963
  40   2.0000      -0.595918       -16.2157
  41   2.0000      -0.580688       -15.8013
  42   2.0000      -0.566639       -15.4190
  43   2.0000      -0.546331       -14.8664
  44   2.0000      -0.540663       -14.7122
  45   2.0000      -0.521780       -14.1984
  46   2.0000      -0.515523       -14.0281
  47   2.0000      -0.511087       -13.9074
  48   2.0000      -0.508432       -13.8351
  49   2.0000      -0.498535       -13.5658
  50   2.0000      -0.491169       -13.3654
  51   2.0000      -0.485399       -13.2084
  52   2.0000      -0.474848       -12.9213
  53   2.0000      -0.466738       -12.7006
  54   2.0000      -0.461503       -12.5581
  55   2.0000      -0.441866       -12.0238
  56   2.0000      -0.438049       -11.9199
  57   2.0000      -0.433787       -11.8039
  58   2.0000      -0.429601       -11.6900
  59   2.0000      -0.427057       -11.6208
  60   2.0000      -0.421720       -11.4756
  61   2.0000      -0.414151       -11.2696
  62   2.0000      -0.409072       -11.1314
  63   2.0000      -0.351143        -9.5551
  64   2.0000      -0.331238        -9.0135
  65   2.0000      -0.327239        -8.9046
  66   2.0000      -0.294804        -8.0220
  67   0.0000       0.033762         0.9187
  68   0.0000       0.069612         1.8942
  69   0.0000       0.114319         3.1108
  70   0.0000       0.123134         3.3506
  71   0.0000       0.129681         3.5288

MULLIKEN ATOMIC CHARGES
-----------------------
   0 S :    0.106282
   1 C :   -0.109813
   2 C :   -0.105020
   3 C :    0.014888
   4 C :   -0.143659
   5 H :    0.014010
   6 C :    0.070208
   7 H :    0.030312
   8 H :    0.026504
   9 C :   -0.069669
  10 H :    0.024661
  11 H :    0.036017
  12 C :   -0.099878
  13 H :    0.046307
  14 H :    0.045482
  15 H :    0.051279
  16 S :    0.107163
  17 C :   -0.085294
  18 C :   -0.020746
  19 C :   -0.021980
  20 C :   -0.154456
  21 H :   -0.001107
  22 C :    0.076163
  23 H :    0.002865
  24 H :    0.023860
  25 C :   -0.056675
  26 H :    0.055869
  27 H :    0.024138
  28 C :   -0.091408
  29 H :    0.027436
  30 H :    0.044857
  31 H :    0.046236
  32 H :    0.039324
  33 H :    0.045848
Sum of atomic charges:    0.0000000

LOEWDIN ATOMIC CHARGES
----------------------
   0 S :    0.391316
   1 C :   -0.191526
   2 C :   -0.060125
   3 C :   -0.064603
   4 C :   -0.187173
   5 H :    0.030012
   6 C :   -0.038910
   7 H :    0.030932
   8 H :    0.033389
   9 C :   -0.040124
  10 H :    0.028370
  11 H :    0.022117
  12 C :   -0.076659
  13 H :    0.027612
  14 H :    0.036166
  15 H :    0.027877
  16 S :    0.430309
  17 C :   -0.189028
  18 C :   -0.072823
  19 C :   -0.057458
  20 C :   -0.209386
  21 H :    0.025640
  22 C :   -0.029440
  23 H :    0.022241
  24 H :    0.030933
  25 C :   -0.026513
  26 H :    0.028164
  27 H :    0.022094
  28 C :   -0.078947
  29 H :    0.023318
  30 H :    0.033160
  31 H :    0.029320
  32 H :    0.023542
  33 H :    0.026200

  Mayer bond orders larger than 0.100000
B(  0-S ,  1-C ) :   1.1365 B(  0-S ,  4-C ) :   1.1153 B(  1-C ,  2-C ) :   1.6274
B(  1-C , 32-H ) :   0.9675 B(  2-C ,  3-C ) :   1.1848 B(  2-C ,  6-C ) :   1.0451
B(  3-C ,  4-C ) :   1.6340 B(  3-C ,  5-H ) :   0.9933 B(  4-C , 20-C ) :   1.0311
B(  6-C ,  7-H ) :   0.9375 B(  6-C ,  8-H ) :   0.9384 B(  6-C ,  9-C ) :   1.0552
B(  9-C , 10-H ) :   0.9540 B(  9-C , 11-H ) :   0.9572 B(  9-C , 12-C ) :   1.0839
B( 12-C , 13-H ) :   0.9606 B( 12-C , 14-H ) :   0.9694 B( 12-C , 15-H ) :   0.9705
B( 16-S , 17-C ) :   1.1710 B( 16-S , 20-C ) :   1.1423 B( 17-C , 18-C ) :   1.6103
B( 17-C , 33-H ) :   0.9685 B( 18-C , 19-C ) :   1.2415 B( 18-C , 21-H ) :   1.0022
B( 19-C , 20-C ) :   1.5995 B( 19-C , 22-C ) :   1.0462 B( 22-C , 23-H ) :   0.9329
B( 22-C , 24-H ) :   0.9350 B( 22-C , 25-C ) :   1.0508 B( 25-C , 26-H ) :   0.9607
B( 25-C , 27-H ) :   0.9526 B( 25-C , 28-C ) :   1.0772 B( 28-C , 29-H ) :   0.9744
B( 28-C , 30-H ) :   0.9746 B( 28-C , 31-H ) :   0.9728

Dispersion correction           -0.016619648
FINAL SINGLE POINT ENERGY     -1339.877978939534

DIPOLE MOMENT
-------------
                                X             Y             Z
Electronic contribution:    -23.40221     -15.31547     -11.70950
Nuclear contribution   :     23.81982      15.61183      12.06608
                        -----------------------------------------
Total Dipole Moment    :      0.41761       0.29636       0.35658
                        -----------------------------------------
Magnitude (a.u.)       :      0.62400
Magnitude (Debye)      :      1.58607

Rotational constants in cm-1:     0.019709     0.010488     0.007883
Rotational constants in MHz :   590.849299   314.423771   236.316611

                             ****ORCA TERMINATED NORMALLY****
TOTAL RUN TIME: 0 days 0 hours 0 minutes 38 seconds 319 msec
