                         Program Version 4.2.1 -  RELEASE  -
|  1> ! wB97X-D3 SP def2-SVP
|  2> %pal
|  3> nprocs 16
|  4> end
|  5>
|  6> * xyz 0 1
|  7> S 	 -98.8169 	 56.9819 	 113.77
|  8> C 	 -98.8802 	 56.3566 	 112.209
|  9> C 	 -99.5423 	 55.1689 	 112.158
| 10> C 	 -99.9524 	 54.7886 	 113.487
| 11> C 	 -99.6338 	 55.6693 	 114.491
| 12> H 	 -100.498 	 53.8417 	 113.643
| 13> C 	 -99.8076 	 54.342 	 110.955
| 14> H 	 -99.5722 	 54.8212 	 110.008
| 15> H 	 -100.874 	 54.2163 	 110.919
| 16> C 	 -99.1442 	 52.9338 	 110.951
| 17> H 	 -98.1436 	 53.1457 	 110.568
| 18> H 	 -98.9398 	 52.5582 	 111.917
| 19> C 	 -99.9927 	 51.983 	 110.021
| 20> H 	 -101.003 	 51.6851 	 110.401
| 21> H 	 -99.929 	 52.3934 	 109.044
| 22> H 	 -99.4047 	 51.0566 	 110.012
| 23> S 	 -101.445 	 55.0383 	 116.41
| 24> C 	 -101.166 	 55.4666 	 118.016
| 25> C 	 -99.9825 	 56.2135 	 118.198
| 26> C 	 -99.1981 	 56.2931 	 116.97
| 27> C 	 -99.8577 	 55.6425 	 115.899
| 28> H 	 -99.6583 	 56.6333 	 119.175
| 29> C 	 -97.8031 	 56.9765 	 116.897
| 30> H 	 -97.8575 	 58.0596 	 116.678
| 31> H 	 -97.2949 	 56.5106 	 116.075
| 32> C 	 -96.796 	 56.7376 	 118.051
| 33> H 	 -97.2582 	 56.8294 	 119.039
| 34> H 	 -95.9994 	 57.5492 	 117.976
| 35> C 	 -96.1831 	 55.2438 	 117.89
| 36> H 	 -97.0398 	 54.5592 	 117.934
| 37> H 	 -95.455 	 54.8431 	 118.612
| 38> H 	 -95.6782 	 55.1054 	 116.912
| 39> H 	 -98.5837 	 56.9632 	 111.3
| 40> H 	 -101.854 	 55.337 	 118.791
| 41> *
| 42>
| 43>                          ****END OF INPUT****

CARTESIAN COORDINATES (ANGSTROEM)
---------------------------------
  S    -98.816900   56.981900  113.770000
  C    -98.880200   56.356600  112.209000
  C    -99.542300   55.168900  112.158000
  C    -99.952400   54.788600  113.487000
  C    -99.633800   55.669300  114.491000
  H    -100.498000   53.841700  113.643000
  C    -99.807600   54.342000  110.955000
  H    -99.572200   54.821200  110.008000
  H    -100.874000   54.216300  110.919000
  C    -99.144200   52.933800  110.951000
  H    -98.143600   53.145700  110.568000
  H    -98.939800   52.558200  111.917000
  C    -99.992700   51.983000  110.021000
  H    -101.003000   51.685100  110.401000
  H    -99.929000   52.393400  109.044000
  H    -99.404700   51.056600  110.012000
  S    -101.445000   55.038300  116.410000
  C    -101.166000   55.466600  118.016000
  C    -99.982500   56.213500  118.198000
  C    -99.198100   56.293100  116.970000
  C    -99.857700   55.642500  115.899000
  H    -99.658300   56.633300  119.175000
  C    -97.803100   56.976500  116.897000
  H    -97.857500   58.059600  116.678000
  H    -97.294900   56.510600  116.075000
  C    -96.796000   56.737600  118.051000
  H    -97.258200   56.829400  119.039000
  H    -95.999400   57.549200  117.976000
  C    -96.183100   55.243800  117.890000
  H    -97.039800   54.559200  117.934000
  H    -95.455000   54.843100  118.612000
  H    -95.678200   55.105400  116.912000
  H    -98.583700   56.963200  111.300000
  H    -101.854000   55.337000  118.791000

 Total Charge           Charge          ....    0
 Multiplicity           Mult            ....    1
 Number of Electrons    NEL             ....  134
 Basis Dimension        Dim             ....  322

ORBITAL ENERGIES
----------------

  NO   OCC          E(Eh)            E(eV)
   0   2.0000     -88.968812     -2420.9644
   1   2.0000     -88.959911     -2420.7222
   2   2.0000     -10.329768      -281.0873
   3   2.0000     -10.323434      -280.9149
   4   2.0000     -10.314783      -280.6795
   5   2.0000     -10.313680      -280.6495
   6   2.0000     -10.307617      -280.4845
   7   2.0000     -10.302353      -280.3413
   8   2.0000     -10.300285      -280.2850
   9   2.0000     -10.294617      -280.1308
  10   2.0000     -10.294156      -280.1182
  11   2.0000     -10.291518      -280.0465
  12   2.0000     -10.285757      -279.8897
  13   2.0000     -10.285589      -279.8851
  14   2.0000     -10.283840      -279.8375
  15   2.0000     -10.282354      -279.7971
  16   2.0000      -8.084190      -219.9820
  17   2.0000      -8.076628      -219.7762
  18   2.0000      -6.042577      -164.4269
  19   2.0000      -6.038559      -164.3176
  20   2.0000      -6.035101      -164.2235
  21   2.0000      -6.035061      -164.2224
  22   2.0000      -6.030685      -164.1033
  23   2.0000      -6.027504      -164.0167
  24   2.0000      -1.016106       -27.6497
  25   2.0000      -0.988496       -26.8984
  26   2.0000      -0.912686       -24.8354
  27   2.0000      -0.900504       -24.5040
  28   2.0000      -0.873231       -23.7618
  29   2.0000      -0.847373       -23.0582
  30   2.0000      -0.838508       -22.8170
  31   2.0000      -0.809856       -22.0373
  32   2.0000      -0.779516       -21.2117
  33   2.0000      -0.770846       -20.9758
  34   2.0000      -0.711057       -19.3488
  35   2.0000      -0.704290       -19.1647
  36   2.0000      -0.691712       -18.8225
  37   2.0000      -0.660290       -17.9674
  38   2.0000      -0.634987       -17.2789
  39   2.0000      -0.622252       -16.9323
  40   2.0000      -0.600646       -16.3444
  41   2.0000      -0.567910       -15.4536
  42   2.0000      -0.557156       -15.1610
  43   2.0000      -0.550610       -14.9828
  44   2.0000      -0.529614       -14.4115
  45   2.0000      -0.524022       -14.2594
  46   2.0000      -0.518486       -14.1087
  47   2.0000      -0.509951       -13.8765
  48   2.0000      -0.499141       -13.5823
  49   2.0000      -0.498912       -13.5761
  50   2.0000      -0.482856       -13.1392
  51   2.0000      -0.481535       -13.1032
  52   2.0000      -0.469595       -12.7783
  53   2.0000      -0.463188       -12.6040
  54   2.0000      -0.457385       -12.4461
  55   2.0000      -0.450969       -12.2715
  56   2.0000      -0.445221       -12.1151
  57   2.0000      -0.440753       -11.9935
  58   2.0000      -0.431084       -11.7304
  59   2.0000      -0.426613       -11.6087
  60   2.0000      -0.421127       -11.4594
  61   2.0000      -0.417558       -11.3623
  62   2.0000      -0.407665       -11.0931
  63   2.0000      -0.359783        -9.7902
  64   2.0000      -0.331817        -9.0292
  65   2.0000      -0.323813        -8.8114
  66   2.0000      -0.284430        -7.7397
  67   0.0000       0.026757         0.7281
  68   0.0000       0.085322         2.3217
  69   0.0000       0.114243         3.1087
  70   0.0000       0.117606         3.2002
  71   0.0000       0.135210         3.6792

MULLIKEN ATOMIC CHARGES
-----------------------
   0 S :    0.104030
   1 C :   -0.145912
   2 C :   -0.085100
   3 C :   -0.009152
   4 C :   -0.126251
   5 H :    0.014738
   6 C :    0.073686
   7 H :    0.013695
   8 H :    0.024009
   9 C :   -0.081510
  10 H :    0.026194
  11 H :    0.024244
  12 C :   -0.052945
  13 H :    0.054503
  14 H :    0.034803
  15 H :    0.030622
  16 S :    0.119335
  17 C :   -0.061416
  18 C :   -0.056169
  19 C :   -0.068402
  20 C :   -0.123722
  21 H :    0.034967
  22 C :    0.046710
  23 H :    0.053807
  24 H :    0.022478
  25 C :   -0.077721
  26 H :    0.034598
  27 H :    0.043921
  28 C :   -0.098461
  29 H :    0.044134
  30 H :    0.040014
  31 H :    0.039057
  32 H :    0.067384
  33 H :    0.039831
Sum of atomic charges:   -0.0000000

LOEWDIN ATOMIC CHARGES
----------------------
   0 S :    0.458679
   1 C :   -0.229453
   2 C :   -0.069920
   3 C :   -0.074997
   4 C :   -0.211308
   5 H :    0.029910
   6 C :   -0.033952
   7 H :    0.027810
   8 H :    0.028644
   9 C :   -0.032143
  10 H :    0.026902
  11 H :    0.014876
  12 C :   -0.063907
  13 H :    0.033544
  14 H :    0.022562
  15 H :    0.028328
  16 S :    0.437085
  17 C :   -0.197298
  18 C :   -0.074685
  19 C :   -0.053500
  20 C :   -0.195862
  21 H :    0.035987
  22 C :   -0.043354
  23 H :    0.036095
  24 H :    0.022437
  25 C :   -0.037153
  26 H :    0.018684
  27 H :    0.031963
  28 C :   -0.077607
  29 H :    0.028795
  30 H :    0.025408
  31 H :    0.027241
  32 H :    0.041895
  33 H :    0.018293

  Mayer bond orders larger than 0.100000
B(  0-S ,  1-C ) :   1.1602 B(  0-S ,  4-C ) :   1.1618 B(  1-C ,  2-C ) :   1.5973
B(  1-C , 32-H ) :   0.9575 B(  2-C ,  3-C ) :   1.2678 B(  2-C ,  6-C ) :   1.0356
B(  3-C ,  4-C ) :   1.5276 B(  3-C ,  5-H ) :   0.9917 B(  4-C , 20-C ) :   1.0785
B(  6-C ,  7-H ) :   0.9420 B(  6-C ,  8-H ) :   0.9396 B(  6-C ,  9-C ) :   1.0362
B(  9-C , 10-H ) :   0.9558 B(  9-C , 11-H ) :   0.9695 B(  9-C , 12-C ) :   1.0689
B( 12-C , 13-H ) :   0.9768 B( 12-C , 14-H ) :   0.9755 B( 12-C , 15-H ) :   0.9746
B( 16-S , 17-C ) :   1.1820 B( 16-S , 20-C ) :   1.1465 B( 17-C , 18-C ) :   1.5751
B( 17-C , 33-H ) :   0.9737 B( 18-C , 19-C ) :   1.2574 B( 18-C , 21-H ) :   0.9839
B( 19-C , 20-C ) :   1.5558 B( 19-C , 22-C ) :   1.0222 B( 22-C , 23-H ) :   0.9370
B( 22-C , 24-H ) :   0.9378 B( 22-C , 25-C ) :   1.0596 B( 25-C , 26-H ) :   0.9612
B( 25-C , 27-H ) :   0.9572 B( 25-C , 28-C ) :   1.0522 B( 28-C , 29-H ) :   0.9791
B( 28-C , 30-H ) :   0.9801 B( 28-C , 31-H ) :   0.9762

Dispersion correction           -0.013854163
FINAL SINGLE POINT ENERGY     -1339.877650642442

DIPOLE MOMENT
-------------
                                X             Y             Z
Electronic contribution:    -12.45576      10.76262       6.76997
Nuclear contribution   :     12.56000     -10.87883      -6.89133
                        -----------------------------------------
Total Dipole Moment    :      0.10424      -0.11621      -0.12136
                        -----------------------------------------
Magnitude (a.u.)       :      0.19773
Magnitude (Debye)      :      0.50260

Rotational constants in cm-1:     0.021302     0.007448     0.006597
Rotational constants in MHz :   638.623268   223.279172   197.762812

                             ****ORCA TERMINATED NORMALLY****
TOTAL RUN TIME: 0 days 0 hours 0 minutes 33 seconds 802 msec
