                         Program Version 4.2.1 -  RELEASE  -
|  1> ! wB97X-D3 SP def2-SVP
|  2> %pal
|  3> nprocs 16
|  4> end
|  5>
|  6> * xyz 0 1
|  7> S 	 -43.8553 	 37.3397 	 81.1132
|  8> C 	 -43.5865 	 38.74 	 80.1104
|  9> C 	 -42.8715 	 38.4776 	 78.9536
| 10> C 	 -42.8567 	 37.0297 	 78.781
| 11> C 	 -43.217 	 36.322 	 79.8991
| 12> H 	 -42.6147 	 36.337 	 77.9189
| 13> C 	 -42.5007 	 39.4242 	 77.883
| 14> H 	 -41.5043 	 39.4721 	 78.1654
| 15> H 	 -43.1234 	 40.2578 	 78.0435
| 16> C 	 -42.6456 	 39.0955 	 76.4706
| 17> H 	 -42.0459 	 38.3198 	 76.1021
| 18> H 	 -43.5774 	 38.5969 	 76.45
| 19> C 	 -42.6348 	 40.1972 	 75.4478
| 20> H 	 -42.7465 	 39.8561 	 74.3876
| 21> H 	 -43.4597 	 40.8705 	 75.553
| 22> H 	 -41.6976 	 40.7998 	 75.5065
| 23> S 	 -44.8017 	 34.0495 	 80.1537
| 24> C 	 -44.0705 	 32.4861 	 79.932
| 25> C 	 -42.7214 	 32.5808 	 79.5126
| 26> C 	 -42.2698 	 33.9343 	 79.6055
| 27> C 	 -43.2478 	 34.8676 	 79.9752
| 28> H 	 -42.1748 	 31.6304 	 79.3076
| 29> C 	 -40.8604 	 34.1724 	 79.141
| 30> H 	 -40.8441 	 35.1641 	 78.6925
| 31> H 	 -40.564 	 33.4811 	 78.2987
| 32> C 	 -39.8306 	 34.1428 	 80.2425
| 33> H 	 -40.0899 	 33.3335 	 80.9684
| 34> H 	 -40.0365 	 35.0066 	 80.8396
| 35> C 	 -38.2886 	 34.1233 	 79.9263
| 36> H 	 -37.7966 	 34.619 	 80.7539
| 37> H 	 -38.0779 	 34.6553 	 78.9783
| 38> H 	 -37.857 	 33.1428 	 79.735
| 39> H 	 -43.8545 	 39.7924 	 80.3539
| 40> H 	 -44.6608 	 31.5552 	 79.7736
| 41> *
| 42>
| 43>                          ****END OF INPUT****

CARTESIAN COORDINATES (ANGSTROEM)
---------------------------------
  S    -43.855300   37.339700   81.113200
  C    -43.586500   38.740000   80.110400
  C    -42.871500   38.477600   78.953600
  C    -42.856700   37.029700   78.781000
  C    -43.217000   36.322000   79.899100
  H    -42.614700   36.337000   77.918900
  C    -42.500700   39.424200   77.883000
  H    -41.504300   39.472100   78.165400
  H    -43.123400   40.257800   78.043500
  C    -42.645600   39.095500   76.470600
  H    -42.045900   38.319800   76.102100
  H    -43.577400   38.596900   76.450000
  C    -42.634800   40.197200   75.447800
  H    -42.746500   39.856100   74.387600
  H    -43.459700   40.870500   75.553000
  H    -41.697600   40.799800   75.506500
  S    -44.801700   34.049500   80.153700
  C    -44.070500   32.486100   79.932000
  C    -42.721400   32.580800   79.512600
  C    -42.269800   33.934300   79.605500
  C    -43.247800   34.867600   79.975200
  H    -42.174800   31.630400   79.307600
  C    -40.860400   34.172400   79.141000
  H    -40.844100   35.164100   78.692500
  H    -40.564000   33.481100   78.298700
  C    -39.830600   34.142800   80.242500
  H    -40.089900   33.333500   80.968400
  H    -40.036500   35.006600   80.839600
  C    -38.288600   34.123300   79.926300
  H    -37.796600   34.619000   80.753900
  H    -38.077900   34.655300   78.978300
  H    -37.857000   33.142800   79.735000
  H    -43.854500   39.792400   80.353900
  H    -44.660800   31.555200   79.773600

 Total Charge           Charge          ....    0
 Multiplicity           Mult            ....    1
 Number of Electrons    NEL             ....  134
 Basis Dimension        Dim             ....  322

ORBITAL ENERGIES
----------------

  NO   OCC          E(Eh)            E(eV)
   0   2.0000     -88.968067     -2420.9442
   1   2.0000     -88.967193     -2420.9204
   2   2.0000     -10.328922      -281.0643
   3   2.0000     -10.322079      -280.8780
   4   2.0000     -10.322006      -280.8761
   5   2.0000     -10.316067      -280.7145
   6   2.0000     -10.305952      -280.4392
   7   2.0000     -10.305535      -280.4279
   8   2.0000     -10.300146      -280.2812
   9   2.0000     -10.296778      -280.1896
  10   2.0000     -10.288825      -279.9732
  11   2.0000     -10.282759      -279.8081
  12   2.0000     -10.281854      -279.7835
  13   2.0000     -10.280658      -279.7509
  14   2.0000     -10.279675      -279.7242
  15   2.0000     -10.273196      -279.5479
  16   2.0000      -8.082656      -219.9402
  17   2.0000      -8.082568      -219.9379
  18   2.0000      -6.041155      -164.3882
  19   2.0000      -6.041016      -164.3844
  20   2.0000      -6.037101      -164.2779
  21   2.0000      -6.037081      -164.2773
  22   2.0000      -6.033435      -164.1781
  23   2.0000      -6.033342      -164.1756
  24   2.0000      -1.009921       -27.4814
  25   2.0000      -0.985052       -26.8046
  26   2.0000      -0.933232       -25.3945
  27   2.0000      -0.906366       -24.6635
  28   2.0000      -0.872735       -23.7483
  29   2.0000      -0.852581       -23.1999
  30   2.0000      -0.845758       -23.0142
  31   2.0000      -0.812237       -22.1021
  32   2.0000      -0.789008       -21.4700
  33   2.0000      -0.774242       -21.0682
  34   2.0000      -0.717043       -19.5117
  35   2.0000      -0.699147       -19.0248
  36   2.0000      -0.686617       -18.6838
  37   2.0000      -0.658806       -17.9270
  38   2.0000      -0.641551       -17.4575
  39   2.0000      -0.617093       -16.7920
  40   2.0000      -0.595474       -16.2037
  41   2.0000      -0.589396       -16.0383
  42   2.0000      -0.569033       -15.4842
  43   2.0000      -0.553452       -15.0602
  44   2.0000      -0.528433       -14.3794
  45   2.0000      -0.523244       -14.2382
  46   2.0000      -0.520371       -14.1600
  47   2.0000      -0.507902       -13.8207
  48   2.0000      -0.504101       -13.7173
  49   2.0000      -0.498000       -13.5513
  50   2.0000      -0.494924       -13.4676
  51   2.0000      -0.483961       -13.1693
  52   2.0000      -0.471781       -12.8378
  53   2.0000      -0.463008       -12.5991
  54   2.0000      -0.462510       -12.5855
  55   2.0000      -0.450912       -12.2699
  56   2.0000      -0.445392       -12.1197
  57   2.0000      -0.438578       -11.9343
  58   2.0000      -0.433620       -11.7994
  59   2.0000      -0.427199       -11.6247
  60   2.0000      -0.422600       -11.4995
  61   2.0000      -0.408513       -11.1162
  62   2.0000      -0.401786       -10.9331
  63   2.0000      -0.342039        -9.3074
  64   2.0000      -0.331367        -9.0170
  65   2.0000      -0.328415        -8.9366
  66   2.0000      -0.294847        -8.0232
  67   0.0000       0.030889         0.8405
  68   0.0000       0.069332         1.8866
  69   0.0000       0.107737         2.9317
  70   0.0000       0.122363         3.3297
  71   0.0000       0.129980         3.5369

MULLIKEN ATOMIC CHARGES
-----------------------
   0 S :    0.126907
   1 C :   -0.137430
   2 C :   -0.130434
   3 C :   -0.010732
   4 C :   -0.177335
   5 H :    0.046230
   6 C :    0.176828
   7 H :    0.025016
   8 H :    0.004231
   9 C :   -0.052470
  10 H :    0.008801
  11 H :    0.006763
  12 C :   -0.045829
  13 H :    0.037344
  14 H :    0.021187
  15 H :    0.035424
  16 S :    0.112297
  17 C :   -0.112635
  18 C :   -0.062700
  19 C :   -0.057785
  20 C :   -0.130834
  21 H :    0.047359
  22 C :    0.077515
  23 H :    0.002258
  24 H :    0.031688
  25 C :   -0.087709
  26 H :    0.027318
  27 H :    0.020366
  28 C :   -0.036246
  29 H :    0.042928
  30 H :    0.025837
  31 H :    0.034649
  32 H :    0.055478
  33 H :    0.075712
Sum of atomic charges:    0.0000000

LOEWDIN ATOMIC CHARGES
----------------------
   0 S :    0.423172
   1 C :   -0.208968
   2 C :   -0.052925
   3 C :   -0.072809
   4 C :   -0.219108
   5 H :    0.043372
   6 C :   -0.026336
   7 H :    0.034829
   8 H :    0.031390
   9 C :   -0.048168
  10 H :    0.018934
  11 H :    0.024684
  12 C :   -0.061621
  13 H :    0.035225
  14 H :    0.019032
  15 H :    0.028659
  16 S :    0.412452
  17 C :   -0.197824
  18 C :   -0.074626
  19 C :   -0.052213
  20 C :   -0.204584
  21 H :    0.043217
  22 C :   -0.039725
  23 H :    0.023444
  24 H :    0.033355
  25 C :   -0.047524
  26 H :    0.025974
  27 H :    0.023213
  28 C :   -0.066355
  29 H :    0.030381
  30 H :    0.026638
  31 H :    0.023899
  32 H :    0.033928
  33 H :    0.036987

  Mayer bond orders larger than 0.100000
B(  0-S ,  1-C ) :   1.1359 B(  0-S ,  4-C ) :   1.1480 B(  1-C ,  2-C ) :   1.6364
B(  1-C , 32-H ) :   0.9586 B(  2-C ,  3-C ) :   1.1937 B(  2-C ,  6-C ) :   1.0061
B(  3-C ,  4-C ) :   1.6164 B(  3-C ,  5-H ) :   0.9695 B(  4-C , 20-C ) :   1.0239
B(  6-C ,  7-H ) :   0.8963 B(  6-C ,  8-H ) :   0.9378 B(  6-C ,  9-C ) :   1.0977
B(  9-C , 10-H ) :   0.9336 B(  9-C , 11-H ) :   0.9447 B(  9-C , 12-C ) :   1.0973
B( 12-C , 13-H ) :   0.9711 B( 12-C , 14-H ) :   0.9725 B( 12-C , 15-H ) :   0.9747
B( 16-S , 17-C ) :   1.1789 B( 16-S , 20-C ) :   1.1415 B( 17-C , 18-C ) :   1.5876
B( 17-C , 20-C ) :   0.1005 B( 17-C , 33-H ) :   0.9584 B( 18-C , 19-C ) :   1.2571
B( 18-C , 21-H ) :   0.9849 B( 19-C , 20-C ) :   1.5789 B( 19-C , 22-C ) :   1.0443
B( 22-C , 23-H ) :   0.9165 B( 22-C , 24-H ) :   0.9441 B( 22-C , 25-C ) :   1.0644
B( 25-C , 26-H ) :   0.9587 B( 25-C , 27-H ) :   0.9550 B( 25-C , 28-C ) :   1.0664
B( 28-C , 29-H ) :   0.9773 B( 28-C , 30-H ) :   0.9756 B( 28-C , 31-H ) :   0.9776

Dispersion correction           -0.013714344
FINAL SINGLE POINT ENERGY     -1339.847803577161

DIPOLE MOMENT
-------------
                                X             Y             Z
Electronic contribution:    -20.82288      -7.71758      16.99272
Nuclear contribution   :     21.14891       7.78594     -17.63149
                        -----------------------------------------
Total Dipole Moment    :      0.32603       0.06836      -0.63878
                        -----------------------------------------
Magnitude (a.u.)       :      0.72042
Magnitude (Debye)      :      1.83116

Rotational constants in cm-1:     0.016194     0.008379     0.006899
Rotational constants in MHz :   485.475726   251.194037   206.835514

                             ****ORCA TERMINATED NORMALLY****
TOTAL RUN TIME: 0 days 0 hours 0 minutes 29 seconds 796 msec
