                         Program Version 4.2.1 -  RELEASE  -
|  1> ! wB97X-D3 SP def2-SVP
|  2> %pal
|  3> nprocs 16
|  4> end
|  5>
|  6> * xyz 0 1
|  7> S 	 -1.16942 	 76.3912 	 47.7436
|  8> C 	 -1.11296 	 74.6936 	 48.279
|  9> C 	 -1.42589 	 73.9091 	 47.2304
| 10> C 	 -1.64103 	 74.6245 	 46.0105
| 11> C 	 -1.43042 	 75.9801 	 46.042
| 12> H 	 -2.02097 	 74.2229 	 45.0477
| 13> C 	 -1.40245 	 72.4029 	 47.2961
| 14> H 	 -2.36715 	 72.2221 	 46.8508
| 15> H 	 -1.37323 	 72.1063 	 48.3637
| 16> C 	 -0.211614 	 71.7734 	 46.6375
| 17> H 	 -0.373604 	 70.7118 	 46.3573
| 18> H 	 0.0328712 	 72.3133 	 45.7178
| 19> C 	 1.03787 	 71.7077 	 47.6057
| 20> H 	 1.22632 	 72.7307 	 47.9427
| 21> H 	 0.839926 	 71.1323 	 48.4324
| 22> H 	 1.99064 	 71.4335 	 47.0847
| 23> S 	 -2.15332 	 78.5578 	 45.6165
| 24> C 	 -1.74885 	 79.3412 	 44.1061
| 25> C 	 -1.33238 	 78.3715 	 43.2178
| 26> C 	 -1.19418 	 77.0414 	 43.7609
| 27> C 	 -1.60587 	 76.9847 	 45.0716
| 28> H 	 -1.01565 	 78.7805 	 42.2497
| 29> C 	 -0.552644 	 76.0017 	 42.8869
| 30> H 	 -0.618495 	 76.2331 	 41.8851
| 31> H 	 -1.12376 	 75.0858 	 43.0389
| 32> C 	 0.867694 	 75.6946 	 43.1808
| 33> H 	 1.32623 	 75.0395 	 42.4648
| 34> H 	 0.879778 	 75.1352 	 44.1414
| 35> C 	 1.82106 	 76.8886 	 43.4448
| 36> H 	 1.75287 	 77.3422 	 44.4318
| 37> H 	 1.5816 	 77.6275 	 42.6844
| 38> H 	 2.85559 	 76.5921 	 43.463
| 39> H 	 -0.982867 	 74.431 	 49.2702
| 40> H 	 -1.7285 	 80.4713 	 44.012
| 41> *
| 42>
| 43>                          ****END OF INPUT****

CARTESIAN COORDINATES (ANGSTROEM)
---------------------------------
  S     -1.169420   76.391200   47.743600
  C     -1.112960   74.693600   48.279000
  C     -1.425890   73.909100   47.230400
  C     -1.641030   74.624500   46.010500
  C     -1.430420   75.980100   46.042000
  H     -2.020970   74.222900   45.047700
  C     -1.402450   72.402900   47.296100
  H     -2.367150   72.222100   46.850800
  H     -1.373230   72.106300   48.363700
  C     -0.211614   71.773400   46.637500
  H     -0.373604   70.711800   46.357300
  H      0.032871   72.313300   45.717800
  C      1.037870   71.707700   47.605700
  H      1.226320   72.730700   47.942700
  H      0.839926   71.132300   48.432400
  H      1.990640   71.433500   47.084700
  S     -2.153320   78.557800   45.616500
  C     -1.748850   79.341200   44.106100
  C     -1.332380   78.371500   43.217800
  C     -1.194180   77.041400   43.760900
  C     -1.605870   76.984700   45.071600
  H     -1.015650   78.780500   42.249700
  C     -0.552644   76.001700   42.886900
  H     -0.618495   76.233100   41.885100
  H     -1.123760   75.085800   43.038900
  C      0.867694   75.694600   43.180800
  H      1.326230   75.039500   42.464800
  H      0.879778   75.135200   44.141400
  C      1.821060   76.888600   43.444800
  H      1.752870   77.342200   44.431800
  H      1.581600   77.627500   42.684400
  H      2.855590   76.592100   43.463000
  H     -0.982867   74.431000   49.270200
  H     -1.728500   80.471300   44.012000

 Total Charge           Charge          ....    0
 Multiplicity           Mult            ....    1
 Number of Electrons    NEL             ....  134
 Basis Dimension        Dim             ....  322

ORBITAL ENERGIES
----------------

  NO   OCC          E(Eh)            E(eV)
   0   2.0000     -88.963974     -2420.8328
   1   2.0000     -88.958367     -2420.6802
   2   2.0000     -10.330402      -281.1045
   3   2.0000     -10.327159      -281.0163
   4   2.0000     -10.324615      -280.9471
   5   2.0000     -10.309518      -280.5363
   6   2.0000     -10.308052      -280.4964
   7   2.0000     -10.298751      -280.2433
   8   2.0000     -10.298000      -280.2228
   9   2.0000     -10.296378      -280.1787
  10   2.0000     -10.290567      -280.0206
  11   2.0000     -10.289297      -279.9860
  12   2.0000     -10.284367      -279.8518
  13   2.0000     -10.280007      -279.7332
  14   2.0000     -10.275944      -279.6227
  15   2.0000     -10.270302      -279.4691
  16   2.0000      -8.079079      -219.8429
  17   2.0000      -8.072890      -219.6745
  18   2.0000      -6.037715      -164.2946
  19   2.0000      -6.033403      -164.1772
  20   2.0000      -6.031573      -164.1274
  21   2.0000      -6.029796      -164.0791
  22   2.0000      -6.027463      -164.0156
  23   2.0000      -6.023404      -163.9052
  24   2.0000      -1.012921       -27.5630
  25   2.0000      -0.987087       -26.8600
  26   2.0000      -0.918659       -24.9980
  27   2.0000      -0.916237       -24.9321
  28   2.0000      -0.876678       -23.8556
  29   2.0000      -0.847737       -23.0681
  30   2.0000      -0.837263       -22.7831
  31   2.0000      -0.818888       -22.2831
  32   2.0000      -0.789479       -21.4828
  33   2.0000      -0.777987       -21.1701
  34   2.0000      -0.718345       -19.5472
  35   2.0000      -0.700786       -19.0693
  36   2.0000      -0.690360       -18.7857
  37   2.0000      -0.665373       -18.1057
  38   2.0000      -0.645173       -17.5561
  39   2.0000      -0.621121       -16.9016
  40   2.0000      -0.593787       -16.1578
  41   2.0000      -0.571731       -15.5576
  42   2.0000      -0.566277       -15.4092
  43   2.0000      -0.555411       -15.1135
  44   2.0000      -0.551796       -15.0151
  45   2.0000      -0.537209       -14.6182
  46   2.0000      -0.524840       -14.2816
  47   2.0000      -0.515201       -14.0193
  48   2.0000      -0.508981       -13.8501
  49   2.0000      -0.500618       -13.6225
  50   2.0000      -0.486438       -13.2366
  51   2.0000      -0.483565       -13.1585
  52   2.0000      -0.474884       -12.9222
  53   2.0000      -0.468123       -12.7383
  54   2.0000      -0.457068       -12.4375
  55   2.0000      -0.449840       -12.2408
  56   2.0000      -0.443516       -12.0687
  57   2.0000      -0.437341       -11.9007
  58   2.0000      -0.432900       -11.7798
  59   2.0000      -0.425363       -11.5747
  60   2.0000      -0.418137       -11.3781
  61   2.0000      -0.402916       -10.9639
  62   2.0000      -0.396436       -10.7876
  63   2.0000      -0.361130        -9.8268
  64   2.0000      -0.332028        -9.0349
  65   2.0000      -0.326432        -8.8827
  66   2.0000      -0.290590        -7.9073
  67   0.0000       0.017148         0.4666
  68   0.0000       0.081246         2.2108
  69   0.0000       0.106190         2.8896
  70   0.0000       0.120742         3.2856
  71   0.0000       0.131961         3.5908

MULLIKEN ATOMIC CHARGES
-----------------------
   0 S :    0.068854
   1 C :   -0.093871
   2 C :   -0.090667
   3 C :   -0.003927
   4 C :   -0.129397
   5 H :    0.022685
   6 C :    0.090263
   7 H :    0.032293
   8 H :    0.016269
   9 C :   -0.067140
  10 H :    0.035168
  11 H :    0.030846
  12 C :   -0.053267
  13 H :    0.025558
  14 H :    0.020410
  15 H :    0.043518
  16 S :    0.093525
  17 C :   -0.130709
  18 C :   -0.043549
  19 C :   -0.058043
  20 C :   -0.128452
  21 H :    0.028621
  22 C :    0.147694
  23 H :    0.000048
  24 H :    0.017898
  25 C :   -0.092003
  26 H :    0.028061
  27 H :    0.030104
  28 C :   -0.041430
  29 H :    0.037088
  30 H :    0.021915
  31 H :    0.028009
  32 H :    0.022655
  33 H :    0.090976
Sum of atomic charges:   -0.0000000

LOEWDIN ATOMIC CHARGES
----------------------
   0 S :    0.369697
   1 C :   -0.169257
   2 C :   -0.065598
   3 C :   -0.075118
   4 C :   -0.177078
   5 H :    0.034011
   6 C :   -0.030259
   7 H :    0.033697
   8 H :    0.031412
   9 C :   -0.039723
  10 H :    0.026334
  11 H :    0.023201
  12 C :   -0.060379
  13 H :    0.024423
  14 H :    0.010234
  15 H :    0.033830
  16 S :    0.401647
  17 C :   -0.191592
  18 C :   -0.076870
  19 C :   -0.045541
  20 C :   -0.198224
  21 H :    0.033729
  22 C :   -0.026500
  23 H :    0.020948
  24 H :    0.034526
  25 C :   -0.041796
  26 H :    0.022268
  27 H :    0.026608
  28 C :   -0.066847
  29 H :    0.029163
  30 H :    0.020083
  31 H :    0.025565
  32 H :    0.015667
  33 H :    0.047736

  Mayer bond orders larger than 0.100000
B(  0-S ,  1-C ) :   1.1134 B(  0-S ,  4-C ) :   1.1254 B(  1-C ,  2-C ) :   1.6240
B(  1-C , 32-H ) :   0.9854 B(  2-C ,  3-C ) :   1.2160 B(  2-C ,  6-C ) :   1.0166
B(  3-C ,  4-C ) :   1.5862 B(  3-C ,  5-H ) :   0.9848 B(  4-C , 20-C ) :   1.1098
B(  6-C ,  7-H ) :   0.9313 B(  6-C ,  8-H ) :   0.9435 B(  6-C ,  9-C ) :   1.0632
B(  9-C , 10-H ) :   0.9566 B(  9-C , 11-H ) :   0.9586 B(  9-C , 12-C ) :   1.0687
B( 12-C , 13-H ) :   0.9778 B( 12-C , 14-H ) :   0.9772 B( 12-C , 15-H ) :   0.9746
B( 16-S , 17-C ) :   1.1522 B( 16-S , 20-C ) :   1.1259 B( 17-C , 18-C ) :   1.6115
B( 17-C , 33-H ) :   0.9600 B( 18-C , 19-C ) :   1.2289 B( 18-C , 21-H ) :   0.9877
B( 19-C , 20-C ) :   1.5818 B( 19-C , 22-C ) :   1.0448 B( 22-C , 23-H ) :   0.9231
B( 22-C , 24-H ) :   0.9261 B( 22-C , 25-C ) :   1.0840 B( 25-C , 26-H ) :   0.9584
B( 25-C , 27-H ) :   0.9502 B( 25-C , 28-C ) :   1.0795 B( 28-C , 29-H ) :   0.9700
B( 28-C , 30-H ) :   0.9783 B( 28-C , 31-H ) :   0.9732

Dispersion correction           -0.015494033
FINAL SINGLE POINT ENERGY     -1339.868367766679

DIPOLE MOMENT
-------------
                                X             Y             Z
Electronic contribution:    -15.76907      20.35251       7.80307
Nuclear contribution   :     16.03949     -20.73839      -8.19440
                        -----------------------------------------
Total Dipole Moment    :      0.27042      -0.38588      -0.39132
                        -----------------------------------------
Magnitude (a.u.)       :      0.61250
Magnitude (Debye)      :      1.55686

Rotational constants in cm-1:     0.021553     0.009292     0.007354
Rotational constants in MHz :   646.134330   278.576630   220.458119

                             ****ORCA TERMINATED NORMALLY****
TOTAL RUN TIME: 0 days 0 hours 0 minutes 34 seconds 666 msec
