                         Program Version 4.2.1 -  RELEASE  -
|  1> ! wB97X-D3 SP def2-SVP
|  2> %pal
|  3> nprocs 16
|  4> end
|  5>
|  6> * xyz 0 1
|  7> S 	 69.2389 	 19.525 	 75.845
|  8> C 	 70.0072 	 19.0347 	 74.3062
|  9> C 	 69.8269 	 19.9917 	 73.3108
| 10> C 	 69.0539 	 21.0976 	 73.8178
| 11> C 	 68.5979 	 21.0235 	 75.0841
| 12> H 	 68.6951 	 21.846 	 73.1359
| 13> C 	 70.2985 	 19.842 	 71.8341
| 14> H 	 69.9065 	 20.7275 	 71.2667
| 15> H 	 69.8112 	 18.9457 	 71.4083
| 16> C 	 71.7936 	 19.7039 	 71.6239
| 17> H 	 72.1719 	 18.7691 	 72.0713
| 18> H 	 71.9466 	 19.7633 	 70.4833
| 19> C 	 72.561 	 20.9475 	 72.2179
| 20> H 	 73.597 	 20.8502 	 71.9201
| 21> H 	 72.1629 	 21.8427 	 71.845
| 22> H 	 72.675 	 20.9311 	 73.3045
| 23> S 	 66.2054 	 22.2013 	 75.2237
| 24> C 	 65.8151 	 23.3783 	 76.4274
| 25> C 	 66.9474 	 23.6179 	 77.173
| 26> C 	 68.1564 	 22.8917 	 76.8294
| 27> C 	 67.8613 	 22.0153 	 75.8183
| 28> H 	 66.8526 	 24.3032 	 77.9802
| 29> C 	 69.595 	 23.0284 	 77.2809
| 30> H 	 70.1134 	 23.8135 	 76.6702
| 31> H 	 70.0668 	 22.0899 	 76.9355
| 32> C 	 69.8425 	 23.1576 	 78.7723
| 33> H 	 69.2109 	 22.3395 	 79.2856
| 34> H 	 69.3396 	 24.0642 	 79.1571
| 35> C 	 71.3782 	 23.1599 	 79.0157
| 36> H 	 71.5397 	 23.1271 	 80.0878
| 37> H 	 71.7731 	 24.0879 	 78.5466
| 38> H 	 71.7448 	 22.2824 	 78.4696
| 39> H 	 70.555 	 18.1734 	 74.0783
| 40> H 	 64.9016 	 24.0303 	 76.4303
| 41> *
| 42>
| 43>                          ****END OF INPUT****

CARTESIAN COORDINATES (ANGSTROEM)
---------------------------------
  S     69.238900   19.525000   75.845000
  C     70.007200   19.034700   74.306200
  C     69.826900   19.991700   73.310800
  C     69.053900   21.097600   73.817800
  C     68.597900   21.023500   75.084100
  H     68.695100   21.846000   73.135900
  C     70.298500   19.842000   71.834100
  H     69.906500   20.727500   71.266700
  H     69.811200   18.945700   71.408300
  C     71.793600   19.703900   71.623900
  H     72.171900   18.769100   72.071300
  H     71.946600   19.763300   70.483300
  C     72.561000   20.947500   72.217900
  H     73.597000   20.850200   71.920100
  H     72.162900   21.842700   71.845000
  H     72.675000   20.931100   73.304500
  S     66.205400   22.201300   75.223700
  C     65.815100   23.378300   76.427400
  C     66.947400   23.617900   77.173000
  C     68.156400   22.891700   76.829400
  C     67.861300   22.015300   75.818300
  H     66.852600   24.303200   77.980200
  C     69.595000   23.028400   77.280900
  H     70.113400   23.813500   76.670200
  H     70.066800   22.089900   76.935500
  C     69.842500   23.157600   78.772300
  H     69.210900   22.339500   79.285600
  H     69.339600   24.064200   79.157100
  C     71.378200   23.159900   79.015700
  H     71.539700   23.127100   80.087800
  H     71.773100   24.087900   78.546600
  H     71.744800   22.282400   78.469600
  H     70.555000   18.173400   74.078300
  H     64.901600   24.030300   76.430300

 Total Charge           Charge          ....    0
 Multiplicity           Mult            ....    1
 Number of Electrons    NEL             ....  134
 Basis Dimension        Dim             ....  322

ORBITAL ENERGIES
----------------

  NO   OCC          E(Eh)            E(eV)
   0   2.0000     -88.968250     -2420.9492
   1   2.0000     -88.959540     -2420.7121
   2   2.0000     -10.328699      -281.0582
   3   2.0000     -10.322523      -280.8901
   4   2.0000     -10.318663      -280.7851
   5   2.0000     -10.315197      -280.6908
   6   2.0000     -10.305147      -280.4173
   7   2.0000     -10.303891      -280.3831
   8   2.0000     -10.300903      -280.3018
   9   2.0000     -10.299132      -280.2536
  10   2.0000     -10.293524      -280.1010
  11   2.0000     -10.292979      -280.0862
  12   2.0000     -10.291991      -280.0593
  13   2.0000     -10.290882      -280.0291
  14   2.0000     -10.283121      -279.8179
  15   2.0000     -10.273404      -279.5535
  16   2.0000      -8.081084      -219.8975
  17   2.0000      -8.074761      -219.7254
  18   2.0000      -6.039792      -164.3511
  19   2.0000      -6.035875      -164.2445
  20   2.0000      -6.033277      -164.1738
  21   2.0000      -6.031706      -164.1311
  22   2.0000      -6.029112      -164.0605
  23   2.0000      -6.025555      -163.9637
  24   2.0000      -1.005508       -27.3613
  25   2.0000      -0.979071       -26.6419
  26   2.0000      -0.910038       -24.7634
  27   2.0000      -0.907607       -24.6972
  28   2.0000      -0.870323       -23.6827
  29   2.0000      -0.848173       -23.0800
  30   2.0000      -0.839982       -22.8571
  31   2.0000      -0.812486       -22.1089
  32   2.0000      -0.782590       -21.2953
  33   2.0000      -0.770967       -20.9791
  34   2.0000      -0.706926       -19.2364
  35   2.0000      -0.697372       -18.9764
  36   2.0000      -0.696589       -18.9552
  37   2.0000      -0.652579       -17.7576
  38   2.0000      -0.635216       -17.2851
  39   2.0000      -0.614245       -16.7144
  40   2.0000      -0.595008       -16.1910
  41   2.0000      -0.576119       -15.6770
  42   2.0000      -0.562162       -15.2972
  43   2.0000      -0.552645       -15.0382
  44   2.0000      -0.538190       -14.6449
  45   2.0000      -0.531224       -14.4553
  46   2.0000      -0.514752       -14.0071
  47   2.0000      -0.508716       -13.8429
  48   2.0000      -0.503199       -13.6928
  49   2.0000      -0.499490       -13.5918
  50   2.0000      -0.487481       -13.2650
  51   2.0000      -0.475182       -12.9304
  52   2.0000      -0.468449       -12.7471
  53   2.0000      -0.466585       -12.6964
  54   2.0000      -0.458652       -12.4806
  55   2.0000      -0.442951       -12.0533
  56   2.0000      -0.440723       -11.9927
  57   2.0000      -0.436306       -11.8725
  58   2.0000      -0.433042       -11.7837
  59   2.0000      -0.424039       -11.5387
  60   2.0000      -0.416591       -11.3360
  61   2.0000      -0.413046       -11.2395
  62   2.0000      -0.411049       -11.1852
  63   2.0000      -0.339489        -9.2380
  64   2.0000      -0.328778        -8.9465
  65   2.0000      -0.327122        -8.9014
  66   2.0000      -0.303776        -8.2662
  67   0.0000       0.036733         0.9996
  68   0.0000       0.060177         1.6375
  69   0.0000       0.106002         2.8845
  70   0.0000       0.115081         3.1315
  71   0.0000       0.130863         3.5610

MULLIKEN ATOMIC CHARGES
-----------------------
   0 S :    0.105371
   1 C :   -0.095578
   2 C :   -0.102270
   3 C :    0.054251
   4 C :   -0.159087
   5 H :    0.007015
   6 C :    0.049343
   7 H :    0.029243
   8 H :    0.048350
   9 C :   -0.109208
  10 H :    0.038072
  11 H :    0.048339
  12 C :   -0.033945
  13 H :    0.023505
  14 H :    0.023046
  15 H :    0.041563
  16 S :    0.097286
  17 C :   -0.102240
  18 C :   -0.048123
  19 C :    0.014021
  20 C :   -0.193727
  21 H :    0.004066
  22 C :    0.046086
  23 H :    0.046430
  24 H :    0.022885
  25 C :   -0.137988
  26 H :    0.042082
  27 H :    0.029863
  28 C :   -0.013498
  29 H :    0.043520
  30 H :    0.039404
  31 H :    0.037877
  32 H :    0.021245
  33 H :    0.082801
Sum of atomic charges:    0.0000000

LOEWDIN ATOMIC CHARGES
----------------------
   0 S :    0.373204
   1 C :   -0.175434
   2 C :   -0.060507
   3 C :   -0.058562
   4 C :   -0.187542
   5 H :    0.028311
   6 C :   -0.038837
   7 H :    0.032739
   8 H :    0.036563
   9 C :   -0.042819
  10 H :    0.023409
  11 H :    0.036422
  12 C :   -0.063103
  13 H :    0.025081
  14 H :    0.016454
  15 H :    0.028749
  16 S :    0.405303
  17 C :   -0.203113
  18 C :   -0.072324
  19 C :   -0.053221
  20 C :   -0.189007
  21 H :    0.021485
  22 C :   -0.039125
  23 H :    0.038583
  24 H :    0.027261
  25 C :   -0.053854
  26 H :    0.032229
  27 H :    0.019198
  28 C :   -0.059088
  29 H :    0.026940
  30 H :    0.032012
  31 H :    0.029326
  32 H :    0.016942
  33 H :    0.046326

  Mayer bond orders larger than 0.100000
B(  0-S ,  1-C ) :   1.1291 B(  0-S ,  4-C ) :   1.1012 B(  1-C ,  2-C ) :   1.6351
B(  1-C , 32-H ) :   0.9719 B(  2-C ,  3-C ) :   1.2363 B(  2-C ,  6-C ) :   0.9968
B(  3-C ,  4-C ) :   1.6247 B(  3-C ,  5-H ) :   0.9861 B(  4-C , 20-C ) :   1.0146
B(  6-C ,  7-H ) :   0.9452 B(  6-C ,  8-H ) :   0.9431 B(  6-C ,  9-C ) :   1.0762
B(  9-C , 10-H ) :   0.9558 B(  9-C , 11-H ) :   0.9566 B(  9-C , 12-C ) :   1.0731
B( 12-C , 13-H ) :   0.9743 B( 12-C , 14-H ) :   0.9787 B( 12-C , 15-H ) :   0.9723
B( 16-S , 17-C ) :   1.1461 B( 16-S , 20-C ) :   1.1499 B( 17-C , 18-C ) :   1.6217
B( 17-C , 33-H ) :   0.9600 B( 18-C , 19-C ) :   1.2033 B( 18-C , 21-H ) :   0.9950
B( 19-C , 20-C ) :   1.6055 B( 19-C , 22-C ) :   1.0403 B( 22-C , 23-H ) :   0.9304
B( 22-C , 24-H ) :   0.9245 B( 22-C , 25-C ) :   1.0517 B( 25-C , 26-H ) :   0.9582
B( 25-C , 27-H ) :   0.9551 B( 25-C , 28-C ) :   1.0647 B( 28-C , 29-H ) :   0.9746
B( 28-C , 30-H ) :   0.9723 B( 28-C , 31-H ) :   0.9763

Dispersion correction           -0.014270713
FINAL SINGLE POINT ENERGY     -1339.877019719209

DIPOLE MOMENT
-------------
                                X             Y             Z
Electronic contribution:    -22.34427      -5.29470       2.21418
Nuclear contribution   :     22.76756       5.59642      -2.49054
                        -----------------------------------------
Total Dipole Moment    :      0.42330       0.30172      -0.27636
                        -----------------------------------------
Magnitude (a.u.)       :      0.58872
Magnitude (Debye)      :      1.49640

Rotational constants in cm-1:     0.018155     0.008493     0.006853
Rotational constants in MHz :   544.264413   254.602181   205.443377

                             ****ORCA TERMINATED NORMALLY****
TOTAL RUN TIME: 0 days 0 hours 0 minutes 28 seconds 34 msec
