                         Program Version 4.2.1 -  RELEASE  -
|  1> ! wB97X-D3 SP def2-SVP
|  2> %pal
|  3> nprocs 16
|  4> end
|  5>
|  6> * xyz 0 1
|  7> S 	 -24.5806 	 48.4773 	 66.104
|  8> C 	 -23.8374 	 47.7482 	 64.7378
|  9> C 	 -22.8455 	 46.8153 	 65.0933
| 10> C 	 -22.7562 	 46.6661 	 66.5204
| 11> C 	 -23.6312 	 47.5162 	 67.2242
| 12> H 	 -22.0513 	 46.0843 	 66.9957
| 13> C 	 -22.1306 	 45.9843 	 64.0447
| 14> H 	 -21.0838 	 46.3502 	 64.0976
| 15> H 	 -22.4837 	 46.4167 	 63.0736
| 16> C 	 -22.3322 	 44.4959 	 64.1446
| 17> H 	 -21.8904 	 44.0418 	 63.329
| 18> H 	 -21.773 	 44.0818 	 64.9473
| 19> C 	 -23.8435 	 44.0256 	 64.1336
| 20> H 	 -24.2461 	 44.2843 	 65.1276
| 21> H 	 -24.4192 	 44.5991 	 63.4432
| 22> H 	 -23.9869 	 42.9346 	 63.902
| 23> S 	 -25.3729 	 47.8884 	 69.3802
| 24> C 	 -24.7594 	 48.2872 	 70.9091
| 25> C 	 -23.3875 	 48.1395 	 70.9414
| 26> C 	 -22.7948 	 47.7912 	 69.6682
| 27> C 	 -23.7323 	 47.746 	 68.6476
| 28> H 	 -22.8978 	 48.2311 	 71.8926
| 29> C 	 -21.3358 	 47.5397 	 69.5
| 30> H 	 -21.0826 	 48.3382 	 68.7658
| 31> H 	 -21.2261 	 46.6174 	 68.9978
| 32> C 	 -20.4246 	 47.687 	 70.7412
| 33> H 	 -20.652 	 46.8158 	 71.446
| 34> H 	 -20.5026 	 48.7272 	 71.1849
| 35> C 	 -18.9247 	 47.631 	 70.301
| 36> H 	 -18.6693 	 48.6421 	 69.9034
| 37> H 	 -18.849 	 46.8216 	 69.5291
| 38> H 	 -18.1829 	 47.378 	 71.0091
| 39> H 	 -23.889 	 48.0033 	 63.7306
| 40> H 	 -25.4717 	 48.5397 	 71.7258
| 41> *
| 42>
| 43>                          ****END OF INPUT****

CARTESIAN COORDINATES (ANGSTROEM)
---------------------------------
  S    -24.580600   48.477300   66.104000
  C    -23.837400   47.748200   64.737800
  C    -22.845500   46.815300   65.093300
  C    -22.756200   46.666100   66.520400
  C    -23.631200   47.516200   67.224200
  H    -22.051300   46.084300   66.995700
  C    -22.130600   45.984300   64.044700
  H    -21.083800   46.350200   64.097600
  H    -22.483700   46.416700   63.073600
  C    -22.332200   44.495900   64.144600
  H    -21.890400   44.041800   63.329000
  H    -21.773000   44.081800   64.947300
  C    -23.843500   44.025600   64.133600
  H    -24.246100   44.284300   65.127600
  H    -24.419200   44.599100   63.443200
  H    -23.986900   42.934600   63.902000
  S    -25.372900   47.888400   69.380200
  C    -24.759400   48.287200   70.909100
  C    -23.387500   48.139500   70.941400
  C    -22.794800   47.791200   69.668200
  C    -23.732300   47.746000   68.647600
  H    -22.897800   48.231100   71.892600
  C    -21.335800   47.539700   69.500000
  H    -21.082600   48.338200   68.765800
  H    -21.226100   46.617400   68.997800
  C    -20.424600   47.687000   70.741200
  H    -20.652000   46.815800   71.446000
  H    -20.502600   48.727200   71.184900
  C    -18.924700   47.631000   70.301000
  H    -18.669300   48.642100   69.903400
  H    -18.849000   46.821600   69.529100
  H    -18.182900   47.378000   71.009100
  H    -23.889000   48.003300   63.730600
  H    -25.471700   48.539700   71.725800

 Total Charge           Charge          ....    0
 Multiplicity           Mult            ....    1
 Number of Electrons    NEL             ....  134
 Basis Dimension        Dim             ....  322

ORBITAL ENERGIES
----------------

  NO   OCC          E(Eh)            E(eV)
   0   2.0000     -88.968203     -2420.9479
   1   2.0000     -88.959355     -2420.7071
   2   2.0000     -10.332612      -281.1647
   3   2.0000     -10.325412      -280.9688
   4   2.0000     -10.316377      -280.7229
   5   2.0000     -10.306676      -280.4589
   6   2.0000     -10.305137      -280.4170
   7   2.0000     -10.303812      -280.3810
   8   2.0000     -10.300088      -280.2796
   9   2.0000     -10.297226      -280.2018
  10   2.0000     -10.293416      -280.0981
  11   2.0000     -10.292339      -280.0688
  12   2.0000     -10.291338      -280.0415
  13   2.0000     -10.284115      -279.8450
  14   2.0000     -10.280898      -279.7575
  15   2.0000     -10.279590      -279.7219
  16   2.0000      -8.083029      -219.9504
  17   2.0000      -8.074692      -219.7235
  18   2.0000      -6.041515      -164.3980
  19   2.0000      -6.037389      -164.2857
  20   2.0000      -6.033937      -164.1918
  21   2.0000      -6.033126      -164.1697
  22   2.0000      -6.029099      -164.0601
  23   2.0000      -6.025523      -163.9628
  24   2.0000      -1.004688       -27.3390
  25   2.0000      -0.983314       -26.7573
  26   2.0000      -0.912545       -24.8316
  27   2.0000      -0.911557       -24.8047
  28   2.0000      -0.869353       -23.6563
  29   2.0000      -0.850186       -23.1347
  30   2.0000      -0.842398       -22.9228
  31   2.0000      -0.812378       -22.1059
  32   2.0000      -0.783380       -21.3168
  33   2.0000      -0.771313       -20.9885
  34   2.0000      -0.715382       -19.4665
  35   2.0000      -0.701463       -19.0878
  36   2.0000      -0.695945       -18.9376
  37   2.0000      -0.649227       -17.6664
  38   2.0000      -0.639012       -17.3884
  39   2.0000      -0.622903       -16.9501
  40   2.0000      -0.598362       -16.2823
  41   2.0000      -0.577155       -15.7052
  42   2.0000      -0.562887       -15.3169
  43   2.0000      -0.554037       -15.0761
  44   2.0000      -0.545733       -14.8502
  45   2.0000      -0.525516       -14.3000
  46   2.0000      -0.515777       -14.0350
  47   2.0000      -0.512014       -13.9326
  48   2.0000      -0.502256       -13.6671
  49   2.0000      -0.498576       -13.5670
  50   2.0000      -0.487795       -13.2736
  51   2.0000      -0.474869       -12.9218
  52   2.0000      -0.466582       -12.6964
  53   2.0000      -0.462843       -12.5946
  54   2.0000      -0.459437       -12.5019
  55   2.0000      -0.452821       -12.3219
  56   2.0000      -0.450883       -12.2692
  57   2.0000      -0.441095       -12.0028
  58   2.0000      -0.435556       -11.8521
  59   2.0000      -0.425626       -11.5819
  60   2.0000      -0.419507       -11.4154
  61   2.0000      -0.413487       -11.2516
  62   2.0000      -0.411154       -11.1881
  63   2.0000      -0.349721        -9.5164
  64   2.0000      -0.330991        -9.0067
  65   2.0000      -0.325058        -8.8453
  66   2.0000      -0.284077        -7.7301
  67   0.0000       0.025386         0.6908
  68   0.0000       0.075005         2.0410
  69   0.0000       0.114814         3.1242
  70   0.0000       0.123073         3.3490
  71   0.0000       0.136246         3.7074

MULLIKEN ATOMIC CHARGES
-----------------------
   0 S :    0.129917
   1 C :   -0.076158
   2 C :   -0.155080
   3 C :    0.060246
   4 C :   -0.155583
   5 H :   -0.030348
   6 C :    0.060563
   7 H :    0.041053
   8 H :    0.012054
   9 C :   -0.012005
  10 H :    0.008799
  11 H :    0.019502
  12 C :   -0.066980
  13 H :    0.046617
  14 H :    0.022047
  15 H :    0.048789
  16 S :    0.092381
  17 C :   -0.098076
  18 C :   -0.045853
  19 C :   -0.029120
  20 C :   -0.153872
  21 H :    0.016241
  22 C :    0.041497
  23 H :    0.046572
  24 H :    0.031704
  25 C :   -0.112850
  26 H :    0.053326
  27 H :    0.053435
  28 C :   -0.045993
  29 H :    0.041404
  30 H :    0.028277
  31 H :    0.029588
  32 H :    0.020789
  33 H :    0.077118
Sum of atomic charges:    0.0000000

LOEWDIN ATOMIC CHARGES
----------------------
   0 S :    0.428477
   1 C :   -0.209323
   2 C :   -0.059838
   3 C :   -0.056096
   4 C :   -0.190541
   5 H :    0.013212
   6 C :   -0.034455
   7 H :    0.037900
   8 H :    0.030855
   9 C :   -0.036516
  10 H :    0.016831
  11 H :    0.020907
  12 C :   -0.062191
  13 H :    0.030524
  14 H :    0.019336
  15 H :    0.033148
  16 S :    0.400016
  17 C :   -0.200516
  18 C :   -0.082746
  19 C :   -0.049199
  20 C :   -0.195547
  21 H :    0.028953
  22 C :   -0.038611
  23 H :    0.046901
  24 H :    0.024641
  25 C :   -0.047064
  26 H :    0.032927
  27 H :    0.035116
  28 C :   -0.067617
  29 H :    0.030628
  30 H :    0.026593
  31 H :    0.018497
  32 H :    0.015737
  33 H :    0.039058

  Mayer bond orders larger than 0.100000
B(  0-S ,  1-C ) :   1.1475 B(  0-S ,  4-C ) :   1.1652 B(  1-C ,  2-C ) :   1.5947
B(  1-C , 32-H ) :   0.9644 B(  2-C ,  3-C ) :   1.2621 B(  2-C ,  6-C ) :   1.0208
B(  3-C ,  4-C ) :   1.5272 B(  3-C ,  5-H ) :   1.0080 B(  4-C , 20-C ) :   1.0769
B(  6-C ,  7-H ) :   0.9331 B(  6-C ,  8-H ) :   0.9386 B(  6-C ,  9-C ) :   1.0767
B(  9-C , 10-H ) :   0.9509 B(  9-C , 11-H ) :   0.9528 B(  9-C , 12-C ) :   1.0603
B( 12-C , 13-H ) :   0.9746 B( 12-C , 14-H ) :   0.9780 B( 12-C , 15-H ) :   0.9773
B( 16-S , 17-C ) :   1.1776 B( 16-S , 20-C ) :   1.1293 B( 17-C , 18-C ) :   1.5695
B( 17-C , 33-H ) :   0.9612 B( 18-C , 19-C ) :   1.2477 B( 18-C , 21-H ) :   0.9952
B( 19-C , 20-C ) :   1.5853 B( 19-C , 22-C ) :   1.0248 B( 22-C , 23-H ) :   0.9286
B( 22-C , 24-H ) :   0.9251 B( 22-C , 25-C ) :   1.0867 B( 25-C , 26-H ) :   0.9497
B( 25-C , 27-H ) :   0.9536 B( 25-C , 28-C ) :   1.0677 B( 28-C , 29-H ) :   0.9789
B( 28-C , 30-H ) :   0.9747 B( 28-C , 31-H ) :   0.9758

Dispersion correction           -0.014124270
FINAL SINGLE POINT ENERGY     -1339.872817171056

DIPOLE MOMENT
-------------
                                X             Y             Z
Electronic contribution:    -21.64068      12.88776       4.03300
Nuclear contribution   :     22.35130     -13.13935      -4.00738
                        -----------------------------------------
Total Dipole Moment    :      0.71061      -0.25159       0.02562
                        -----------------------------------------
Magnitude (a.u.)       :      0.75427
Magnitude (Debye)      :      1.91721

Rotational constants in cm-1:     0.017516     0.008610     0.006609
Rotational constants in MHz :   525.117593   258.110270   198.145787

                             ****ORCA TERMINATED NORMALLY****
TOTAL RUN TIME: 0 days 0 hours 0 minutes 33 seconds 10 msec
