                         Program Version 4.2.1 -  RELEASE  -
|  1> ! wB97X-D3 SP def2-SVP
|  2> %pal
|  3> nprocs 16
|  4> end
|  5>
|  6> * xyz 0 1
|  7> S 	 -101.939 	 57.543 	 117.905
|  8> C 	 -100.543 	 56.7511 	 117.304
|  9> C 	 -100.798 	 55.5601 	 116.721
| 10> C 	 -102.153 	 55.1558 	 116.917
| 11> C 	 -102.917 	 56.1301 	 117.586
| 12> H 	 -102.599 	 54.2528 	 116.546
| 13> C 	 -99.751 	 54.7268 	 116.119
| 14> H 	 -99.0198 	 55.3307 	 115.682
| 15> H 	 -100.249 	 54.178 	 115.297
| 16> C 	 -99.0889 	 53.6806 	 117.07
| 17> H 	 -98.407 	 53.154 	 116.401
| 18> H 	 -98.4935 	 54.1138 	 117.819
| 19> C 	 -99.9888 	 52.6123 	 117.737
| 20> H 	 -100.77 	 53.1496 	 118.321
| 21> H 	 -100.446 	 52.056 	 116.989
| 22> H 	 -99.4645 	 52.0437 	 118.476
| 23> S 	 -105.343 	 57.3523 	 117.76
| 24> C 	 -106.574 	 56.5881 	 118.658
| 25> C 	 -106.245 	 55.3561 	 119.093
| 26> C 	 -104.898 	 55.0067 	 118.81
| 27> C 	 -104.289 	 56.0047 	 118.054
| 28> H 	 -107.009 	 54.7984 	 119.659
| 29> C 	 -104.387 	 53.6021 	 119.045
| 30> H 	 -104.22 	 53.6209 	 120.147
| 31> H 	 -103.355 	 53.6278 	 118.621
| 32> C 	 -105.275 	 52.51 	 118.444
| 33> H 	 -106.229 	 52.6161 	 118.938
| 34> H 	 -104.846 	 51.5779 	 118.707
| 35> C 	 -105.456 	 52.5907 	 116.92
| 36> H 	 -106.023 	 53.4154 	 116.563
| 37> H 	 -106.109 	 51.7608 	 116.594
| 38> H 	 -104.563 	 52.502 	 116.286
| 39> H 	 -99.5987 	 57.2198 	 117.357
| 40> H 	 -107.558 	 57.0776 	 118.888
| 41> *
| 42>
| 43>                          ****END OF INPUT****

CARTESIAN COORDINATES (ANGSTROEM)
---------------------------------
  S    -101.939000   57.543000  117.905000
  C    -100.543000   56.751100  117.304000
  C    -100.798000   55.560100  116.721000
  C    -102.153000   55.155800  116.917000
  C    -102.917000   56.130100  117.586000
  H    -102.599000   54.252800  116.546000
  C    -99.751000   54.726800  116.119000
  H    -99.019800   55.330700  115.682000
  H    -100.249000   54.178000  115.297000
  C    -99.088900   53.680600  117.070000
  H    -98.407000   53.154000  116.401000
  H    -98.493500   54.113800  117.819000
  C    -99.988800   52.612300  117.737000
  H    -100.770000   53.149600  118.321000
  H    -100.446000   52.056000  116.989000
  H    -99.464500   52.043700  118.476000
  S    -105.343000   57.352300  117.760000
  C    -106.574000   56.588100  118.658000
  C    -106.245000   55.356100  119.093000
  C    -104.898000   55.006700  118.810000
  C    -104.289000   56.004700  118.054000
  H    -107.009000   54.798400  119.659000
  C    -104.387000   53.602100  119.045000
  H    -104.220000   53.620900  120.147000
  H    -103.355000   53.627800  118.621000
  C    -105.275000   52.510000  118.444000
  H    -106.229000   52.616100  118.938000
  H    -104.846000   51.577900  118.707000
  C    -105.456000   52.590700  116.920000
  H    -106.023000   53.415400  116.563000
  H    -106.109000   51.760800  116.594000
  H    -104.563000   52.502000  116.286000
  H    -99.598700   57.219800  117.357000
  H    -107.558000   57.077600  118.888000

 Total Charge           Charge          ....    0
 Multiplicity           Mult            ....    1
 Number of Electrons    NEL             ....  134
 Basis Dimension        Dim             ....  322

ORBITAL ENERGIES
----------------

  NO   OCC          E(Eh)            E(eV)
   0   2.0000     -88.963169     -2420.8109
   1   2.0000     -88.962550     -2420.7941
   2   2.0000     -10.326922      -281.0098
   3   2.0000     -10.320592      -280.8376
   4   2.0000     -10.310684      -280.5680
   5   2.0000     -10.301593      -280.3206
   6   2.0000     -10.297956      -280.2216
   7   2.0000     -10.292337      -280.0687
   8   2.0000     -10.291226      -280.0385
   9   2.0000     -10.290382      -280.0155
  10   2.0000     -10.288184      -279.9557
  11   2.0000     -10.287249      -279.9303
  12   2.0000     -10.286833      -279.9190
  13   2.0000     -10.283281      -279.8223
  14   2.0000     -10.277168      -279.6560
  15   2.0000     -10.272931      -279.5407
  16   2.0000      -8.078771      -219.8345
  17   2.0000      -8.078648      -219.8312
  18   2.0000      -6.037119      -164.2784
  19   2.0000      -6.036960      -164.2740
  20   2.0000      -6.033211      -164.1720
  21   2.0000      -6.033056      -164.1678
  22   2.0000      -6.029602      -164.0738
  23   2.0000      -6.029464      -164.0701
  24   2.0000      -1.011524       -27.5250
  25   2.0000      -0.991144       -26.9704
  26   2.0000      -0.913452       -24.8563
  27   2.0000      -0.910763       -24.7831
  28   2.0000      -0.869837       -23.6695
  29   2.0000      -0.851135       -23.1606
  30   2.0000      -0.846397       -23.0316
  31   2.0000      -0.816359       -22.2143
  32   2.0000      -0.787618       -21.4322
  33   2.0000      -0.773804       -21.0563
  34   2.0000      -0.712200       -19.3799
  35   2.0000      -0.703848       -19.1527
  36   2.0000      -0.694740       -18.9048
  37   2.0000      -0.656781       -17.8719
  38   2.0000      -0.641013       -17.4429
  39   2.0000      -0.617808       -16.8114
  40   2.0000      -0.592417       -16.1205
  41   2.0000      -0.575811       -15.6686
  42   2.0000      -0.554387       -15.0856
  43   2.0000      -0.548416       -14.9232
  44   2.0000      -0.545610       -14.8468
  45   2.0000      -0.537161       -14.6169
  46   2.0000      -0.521367       -14.1871
  47   2.0000      -0.510573       -13.8934
  48   2.0000      -0.500586       -13.6216
  49   2.0000      -0.494049       -13.4438
  50   2.0000      -0.491607       -13.3773
  51   2.0000      -0.478371       -13.0171
  52   2.0000      -0.470365       -12.7993
  53   2.0000      -0.464013       -12.6264
  54   2.0000      -0.463721       -12.6185
  55   2.0000      -0.450473       -12.2580
  56   2.0000      -0.447209       -12.1692
  57   2.0000      -0.440643       -11.9905
  58   2.0000      -0.439290       -11.9537
  59   2.0000      -0.426663       -11.6101
  60   2.0000      -0.420481       -11.4419
  61   2.0000      -0.416423       -11.3315
  62   2.0000      -0.412823       -11.2335
  63   2.0000      -0.346470        -9.4279
  64   2.0000      -0.330981        -9.0064
  65   2.0000      -0.329165        -8.9570
  66   2.0000      -0.287078        -7.8118
  67   0.0000       0.035286         0.9602
  68   0.0000       0.076503         2.0818
  69   0.0000       0.113450         3.0871
  70   0.0000       0.129938         3.5358
  71   0.0000       0.134047         3.6476

MULLIKEN ATOMIC CHARGES
-----------------------
   0 S :    0.119875
   1 C :   -0.123420
   2 C :   -0.066794
   3 C :    0.013382
   4 C :   -0.138895
   5 H :   -0.001458
   6 C :    0.097093
   7 H :    0.009122
   8 H :    0.020823
   9 C :   -0.060237
  10 H :    0.023393
  11 H :    0.015203
  12 C :   -0.038060
  13 H :    0.044296
  14 H :    0.018736
  15 H :    0.033058
  16 S :    0.113607
  17 C :   -0.104790
  18 C :   -0.060095
  19 C :   -0.050586
  20 C :   -0.181480
  21 H :    0.025987
  22 C :    0.060084
  23 H :    0.040372
  24 H :    0.013973
  25 C :   -0.009214
  26 H :    0.025365
  27 H :    0.026066
  28 C :   -0.059659
  29 H :    0.035411
  30 H :    0.026333
  31 H :    0.037545
  32 H :    0.027882
  33 H :    0.067081
Sum of atomic charges:    0.0000000

LOEWDIN ATOMIC CHARGES
----------------------
   0 S :    0.419606
   1 C :   -0.197569
   2 C :   -0.070899
   3 C :   -0.061493
   4 C :   -0.194783
   5 H :    0.025118
   6 C :   -0.026485
   7 H :    0.024764
   8 H :    0.034250
   9 C :   -0.028435
  10 H :    0.022741
  11 H :    0.014626
  12 C :   -0.058171
  13 H :    0.029975
  14 H :    0.013560
  15 H :    0.026476
  16 S :    0.422616
  17 C :   -0.203189
  18 C :   -0.083802
  19 C :   -0.056079
  20 C :   -0.209146
  21 H :    0.036099
  22 C :   -0.039452
  23 H :    0.039384
  24 H :    0.030223
  25 C :   -0.028385
  26 H :    0.024595
  27 H :    0.023083
  28 C :   -0.067798
  29 H :    0.024670
  30 H :    0.031886
  31 H :    0.025531
  32 H :    0.018324
  33 H :    0.038158

  Mayer bond orders larger than 0.100000
B(  0-S ,  1-C ) :   1.1458 B(  0-S ,  4-C ) :   1.1659 B(  1-C ,  2-C ) :   1.5983
B(  1-C , 32-H ) :   0.9747 B(  2-C ,  3-C ) :   1.2376 B(  2-C ,  6-C ) :   1.0407
B(  3-C ,  4-C ) :   1.5472 B(  3-C ,  5-H ) :   1.0002 B(  4-C , 20-C ) :   1.0390
B(  6-C ,  7-H ) :   0.9316 B(  6-C ,  8-H ) :   0.9340 B(  6-C ,  9-C ) :   1.0672
B(  9-C , 10-H ) :   0.9563 B(  9-C , 11-H ) :   0.9584 B(  9-C , 12-C ) :   1.0842
B( 12-C , 13-H ) :   0.9712 B( 12-C , 14-H ) :   0.9770 B( 12-C , 15-H ) :   0.9703
B( 16-S , 17-C ) :   1.1585 B( 16-S , 20-C ) :   1.1522 B( 17-C , 18-C ) :   1.6314
B( 17-C , 33-H ) :   0.9573 B( 18-C , 19-C ) :   1.2249 B( 18-C , 21-H ) :   0.9867
B( 19-C , 20-C ) :   1.5842 B( 19-C , 22-C ) :   1.0295 B( 22-C , 23-H ) :   0.9250
B( 22-C , 24-H ) :   0.9349 B( 22-C , 25-C ) :   1.0644 B( 25-C , 26-H ) :   0.9495
B( 25-C , 27-H ) :   0.9542 B( 25-C , 28-C ) :   1.0788 B( 28-C , 29-H ) :   0.9727
B( 28-C , 30-H ) :   0.9693 B( 28-C , 31-H ) :   0.9735

Dispersion correction           -0.015892153
FINAL SINGLE POINT ENERGY     -1339.888202494805

DIPOLE MOMENT
-------------
                                X             Y             Z
Electronic contribution:     -7.38948      27.50962       2.27658
Nuclear contribution   :      7.48029     -28.14170      -2.26531
                        -----------------------------------------
Total Dipole Moment    :      0.09081      -0.63207       0.01127
                        -----------------------------------------
Magnitude (a.u.)       :      0.63866
Magnitude (Debye)      :      1.62335

Rotational constants in cm-1:     0.019200     0.010328     0.007327
Rotational constants in MHz :   575.587283   309.638814   219.657486

                             ****ORCA TERMINATED NORMALLY****
TOTAL RUN TIME: 0 days 0 hours 0 minutes 37 seconds 529 msec
