                         Program Version 4.2.1 -  RELEASE  -
|  1> ! wB97X-D3 SP def2-SVP
|  2> %pal
|  3> nprocs 16
|  4> end
|  5>
|  6> * xyz 0 1
|  7> S 	 7.72385 	 -13.5794 	 55.9562
|  8> C 	 6.10385 	 -13.9327 	 56.5628
|  9> C 	 5.73975 	 -15.1855 	 56.2271
| 10> C 	 6.75604 	 -15.9334 	 55.5313
| 11> C 	 7.9608 	 -15.2383 	 55.48
| 12> H 	 6.78251 	 -16.9197 	 55.0714
| 13> C 	 4.34975 	 -15.7427 	 56.3988
| 14> H 	 3.72599 	 -15.4406 	 55.5295
| 15> H 	 3.88847 	 -15.3255 	 57.2724
| 16> C 	 4.32852 	 -17.2297 	 56.4929
| 17> H 	 3.30388 	 -17.5945 	 56.608
| 18> H 	 4.72408 	 -17.7905 	 55.6216
| 19> C 	 4.8303 	 -17.9208 	 57.7808
| 20> H 	 5.90376 	 -17.9293 	 57.7615
| 21> H 	 4.35873 	 -17.4206 	 58.6589
| 22> H 	 4.49686 	 -19.0127 	 57.8047
| 23> S 	 10.0377 	 -14.5627 	 53.9324
| 24> C 	 11.2314 	 -15.7526 	 53.5846
| 25> C 	 10.9192 	 -17.0309 	 54.0866
| 26> C 	 9.70102 	 -17.0551 	 54.7887
| 27> C 	 9.17922 	 -15.7707 	 54.8138
| 28> H 	 11.593 	 -17.9193 	 53.9007
| 29> C 	 9.09136 	 -18.3304 	 55.4607
| 30> H 	 8.39438 	 -18.1456 	 56.292
| 31> H 	 9.90655 	 -18.9313 	 55.9628
| 32> C 	 8.44863 	 -19.1438 	 54.3339
| 33> H 	 9.08262 	 -19.5012 	 53.4934
| 34> H 	 7.73451 	 -18.481 	 53.8365
| 35> C 	 7.66937 	 -20.4206 	 54.9352
| 36> H 	 6.83949 	 -19.9257 	 55.5079
| 37> H 	 8.38273 	 -20.9357 	 55.6059
| 38> H 	 7.36717 	 -21.2723 	 54.2481
| 39> H 	 5.36387 	 -13.2741 	 57.0675
| 40> H 	 11.9128 	 -15.675 	 52.7353
| 41> *
| 42>
| 43>                          ****END OF INPUT****

CARTESIAN COORDINATES (ANGSTROEM)
---------------------------------
  S      7.723850  -13.579400   55.956200
  C      6.103850  -13.932700   56.562800
  C      5.739750  -15.185500   56.227100
  C      6.756040  -15.933400   55.531300
  C      7.960800  -15.238300   55.480000
  H      6.782510  -16.919700   55.071400
  C      4.349750  -15.742700   56.398800
  H      3.725990  -15.440600   55.529500
  H      3.888470  -15.325500   57.272400
  C      4.328520  -17.229700   56.492900
  H      3.303880  -17.594500   56.608000
  H      4.724080  -17.790500   55.621600
  C      4.830300  -17.920800   57.780800
  H      5.903760  -17.929300   57.761500
  H      4.358730  -17.420600   58.658900
  H      4.496860  -19.012700   57.804700
  S     10.037700  -14.562700   53.932400
  C     11.231400  -15.752600   53.584600
  C     10.919200  -17.030900   54.086600
  C      9.701020  -17.055100   54.788700
  C      9.179220  -15.770700   54.813800
  H     11.593000  -17.919300   53.900700
  C      9.091360  -18.330400   55.460700
  H      8.394380  -18.145600   56.292000
  H      9.906550  -18.931300   55.962800
  C      8.448630  -19.143800   54.333900
  H      9.082620  -19.501200   53.493400
  H      7.734510  -18.481000   53.836500
  C      7.669370  -20.420600   54.935200
  H      6.839490  -19.925700   55.507900
  H      8.382730  -20.935700   55.605900
  H      7.367170  -21.272300   54.248100
  H      5.363870  -13.274100   57.067500
  H     11.912800  -15.675000   52.735300

 Total Charge           Charge          ....    0
 Multiplicity           Mult            ....    1
 Number of Electrons    NEL             ....  134
 Basis Dimension        Dim             ....  322

ORBITAL ENERGIES
----------------

  NO   OCC          E(Eh)            E(eV)
   0   2.0000     -88.971614     -2421.0407
   1   2.0000     -88.966841     -2420.9108
   2   2.0000     -10.329357      -281.0761
   3   2.0000     -10.328863      -281.0627
   4   2.0000     -10.315498      -280.6990
   5   2.0000     -10.311263      -280.5837
   6   2.0000     -10.308922      -280.5200
   7   2.0000     -10.308467      -280.5077
   8   2.0000     -10.302096      -280.3343
   9   2.0000     -10.298148      -280.2268
  10   2.0000     -10.296890      -280.1926
  11   2.0000     -10.294461      -280.1265
  12   2.0000     -10.291337      -280.0415
  13   2.0000     -10.291111      -280.0354
  14   2.0000     -10.283711      -279.8340
  15   2.0000     -10.283215      -279.8205
  16   2.0000      -8.087336      -220.0676
  17   2.0000      -8.081241      -219.9017
  18   2.0000      -6.045520      -164.5070
  19   2.0000      -6.041850      -164.4071
  20   2.0000      -6.039939      -164.3551
  21   2.0000      -6.038230      -164.3086
  22   2.0000      -6.035917      -164.2456
  23   2.0000      -6.031702      -164.1309
  24   2.0000      -1.012703       -27.5570
  25   2.0000      -0.988306       -26.8932
  26   2.0000      -0.916790       -24.9471
  27   2.0000      -0.908823       -24.7303
  28   2.0000      -0.868574       -23.6351
  29   2.0000      -0.852475       -23.1970
  30   2.0000      -0.841289       -22.8926
  31   2.0000      -0.810845       -22.0642
  32   2.0000      -0.782813       -21.3014
  33   2.0000      -0.773606       -21.0509
  34   2.0000      -0.702845       -19.1254
  35   2.0000      -0.697468       -18.9791
  36   2.0000      -0.686387       -18.6775
  37   2.0000      -0.662156       -18.0182
  38   2.0000      -0.634861       -17.2754
  39   2.0000      -0.622651       -16.9432
  40   2.0000      -0.599528       -16.3140
  41   2.0000      -0.563569       -15.3355
  42   2.0000      -0.562126       -15.2962
  43   2.0000      -0.554401       -15.0860
  44   2.0000      -0.540406       -14.7052
  45   2.0000      -0.523978       -14.2582
  46   2.0000      -0.516218       -14.0470
  47   2.0000      -0.512948       -13.9580
  48   2.0000      -0.500237       -13.6121
  49   2.0000      -0.496053       -13.4983
  50   2.0000      -0.491095       -13.3634
  51   2.0000      -0.485209       -13.2032
  52   2.0000      -0.472537       -12.8584
  53   2.0000      -0.462365       -12.5816
  54   2.0000      -0.458042       -12.4640
  55   2.0000      -0.451507       -12.2861
  56   2.0000      -0.444601       -12.0982
  57   2.0000      -0.440162       -11.9774
  58   2.0000      -0.432389       -11.7659
  59   2.0000      -0.427086       -11.6216
  60   2.0000      -0.425128       -11.5683
  61   2.0000      -0.418037       -11.3754
  62   2.0000      -0.398198       -10.8355
  63   2.0000      -0.354300        -9.6410
  64   2.0000      -0.340680        -9.2704
  65   2.0000      -0.328090        -8.9278
  66   2.0000      -0.285040        -7.7563
  67   0.0000       0.024959         0.6792
  68   0.0000       0.076372         2.0782
  69   0.0000       0.097754         2.6600
  70   0.0000       0.112971         3.0741
  71   0.0000       0.125822         3.4238

MULLIKEN ATOMIC CHARGES
-----------------------
   0 S :    0.099009
   1 C :   -0.127931
   2 C :   -0.073353
   3 C :   -0.004373
   4 C :   -0.106048
   5 H :   -0.011183
   6 C :    0.131779
   7 H :    0.053084
   8 H :    0.008741
   9 C :   -0.137212
  10 H :    0.022610
  11 H :    0.035985
  12 C :   -0.071263
  13 H :    0.033841
  14 H :    0.038497
  15 H :    0.041608
  16 S :    0.125800
  17 C :   -0.090101
  18 C :   -0.077938
  19 C :   -0.029106
  20 C :   -0.171332
  21 H :    0.041470
  22 C :    0.046564
  23 H :    0.043014
  24 H :    0.038809
  25 C :   -0.111984
  26 H :    0.041956
  27 H :    0.039152
  28 C :   -0.080573
  29 H :    0.045390
  30 H :    0.033022
  31 H :    0.054899
  32 H :    0.053202
  33 H :    0.063968
Sum of atomic charges:   -0.0000000

LOEWDIN ATOMIC CHARGES
----------------------
   0 S :    0.391684
   1 C :   -0.204765
   2 C :   -0.065128
   3 C :   -0.074893
   4 C :   -0.187289
   5 H :    0.029006
   6 C :   -0.030015
   7 H :    0.044661
   8 H :    0.027342
   9 C :   -0.058266
  10 H :    0.027520
  11 H :    0.023582
  12 C :   -0.066333
  13 H :    0.013385
  14 H :    0.028660
  15 H :    0.033514
  16 S :    0.435594
  17 C :   -0.209628
  18 C :   -0.068486
  19 C :   -0.058408
  20 C :   -0.194313
  21 H :    0.042378
  22 C :   -0.029935
  23 H :    0.032767
  24 H :    0.036763
  25 C :   -0.046332
  26 H :    0.028441
  27 H :    0.019401
  28 C :   -0.080878
  29 H :    0.029890
  30 H :    0.024487
  31 H :    0.034422
  32 H :    0.041298
  33 H :    0.029871

  Mayer bond orders larger than 0.100000
B(  0-S ,  1-C ) :   1.1037 B(  0-S ,  4-C ) :   1.1520 B(  1-C ,  2-C ) :   1.6590
B(  1-C , 32-H ) :   0.9623 B(  2-C ,  3-C ) :   1.2025 B(  2-C ,  6-C ) :   1.0181
B(  3-C ,  4-C ) :   1.5729 B(  3-C ,  5-H ) :   0.9893 B(  4-C , 20-C ) :   1.0368
B(  6-C ,  7-H ) :   0.9283 B(  6-C ,  8-H ) :   0.9338 B(  6-C ,  9-C ) :   1.0919
B(  9-C , 10-H ) :   0.9548 B(  9-C , 11-H ) :   0.9452 B(  9-C , 12-C ) :   1.0712
B( 12-C , 13-H ) :   0.9756 B( 12-C , 14-H ) :   0.9714 B( 12-C , 15-H ) :   0.9762
B( 16-S , 17-C ) :   1.1601 B( 16-S , 20-C ) :   1.1715 B( 17-C , 18-C ) :   1.5954
B( 17-C , 20-C ) :   0.1015 B( 17-C , 33-H ) :   0.9613 B( 18-C , 19-C ) :   1.2752
B( 18-C , 21-H ) :   0.9772 B( 19-C , 20-C ) :   1.5791 B( 19-C , 22-C ) :   1.0232
B( 22-C , 23-H ) :   0.9436 B( 22-C , 24-H ) :   0.9360 B( 22-C , 25-C ) :   1.0374
B( 25-C , 26-H ) :   0.9584 B( 25-C , 27-H ) :   0.9565 B( 25-C , 28-C ) :   1.0551
B( 28-C , 29-H ) :   0.9762 B( 28-C , 30-H ) :   0.9750 B( 28-C , 31-H ) :   0.9766

Dispersion correction           -0.015480581
FINAL SINGLE POINT ENERGY     -1339.864108064235

DIPOLE MOMENT
-------------
                                X             Y             Z
Electronic contribution:     16.50639      28.30078      -6.45289
Nuclear contribution   :    -16.86919     -28.95203       6.31145
                        -----------------------------------------
Total Dipole Moment    :     -0.36280      -0.65125      -0.14144
                        -----------------------------------------
Magnitude (a.u.)       :      0.75878
Magnitude (Debye)      :      1.92867

Rotational constants in cm-1:     0.016558     0.011481     0.007129
Rotational constants in MHz :   496.404468   344.186547   213.733506

                             ****ORCA TERMINATED NORMALLY****
TOTAL RUN TIME: 0 days 0 hours 0 minutes 30 seconds 861 msec
