                         Program Version 4.2.1 -  RELEASE  -
|  1> ! wB97X-D3 SP def2-SVP
|  2> %pal
|  3> nprocs 16
|  4> end
|  5>
|  6> * xyz 0 1
|  7> S 	 1.98253 	 -29.6144 	 61.8517
|  8> C 	 0.241214 	 -30.0142 	 61.8605
|  9> C 	 -0.459097 	 -29.2335 	 60.9883
| 10> C 	 0.37522 	 -28.3276 	 60.243
| 11> C 	 1.67675 	 -28.3849 	 60.6439
| 12> H 	 0.0669353 	 -27.6703 	 59.4308
| 13> C 	 -1.96384 	 -29.2857 	 60.6975
| 14> H 	 -2.38135 	 -30.1307 	 61.1962
| 15> H 	 -2.03008 	 -29.5566 	 59.6356
| 16> C 	 -2.69635 	 -27.9554 	 61.0531
| 17> H 	 -2.29053 	 -27.1348 	 60.4414
| 18> H 	 -3.7354 	 -28.0845 	 60.7138
| 19> C 	 -2.61566 	 -27.586 	 62.5275
| 20> H 	 -3.14588 	 -26.7678 	 62.894
| 21> H 	 -3.02123 	 -28.4448 	 63.0648
| 22> H 	 -1.58023 	 -27.599 	 62.8771
| 23> S 	 4.35783 	 -28.1982 	 59.5945
| 24> C 	 4.8331 	 -26.8032 	 58.6858
| 25> C 	 3.82139 	 -25.8201 	 58.7657
| 26> C 	 2.69083 	 -26.2021 	 59.5076
| 27> C 	 2.71163 	 -27.5194 	 59.9919
| 28> H 	 4.0448 	 -24.8294 	 58.4319
| 29> C 	 1.78724 	 -25.0714 	 60.0222
| 30> H 	 0.961882 	 -25.5982 	 60.4712
| 31> H 	 1.4561 	 -24.5 	 59.1784
| 32> C 	 2.45463 	 -24.1432 	 61.062
| 33> H 	 1.74319 	 -23.3754 	 61.2961
| 34> H 	 3.24964 	 -23.5231 	 60.6246
| 35> C 	 2.8894 	 -24.7503 	 62.4227
| 36> H 	 3.53575 	 -25.6164 	 62.3868
| 37> H 	 2.01727 	 -25.1144 	 62.9079
| 38> H 	 3.31063 	 -24.0229 	 63.0572
| 39> H 	 -0.251268 	 -30.6617 	 62.5161
| 40> H 	 5.80311 	 -26.5788 	 58.1898
| 41> *
| 42>
| 43>                          ****END OF INPUT****

CARTESIAN COORDINATES (ANGSTROEM)
---------------------------------
  S      1.982530  -29.614400   61.851700
  C      0.241214  -30.014200   61.860500
  C     -0.459097  -29.233500   60.988300
  C      0.375220  -28.327600   60.243000
  C      1.676750  -28.384900   60.643900
  H      0.066935  -27.670300   59.430800
  C     -1.963840  -29.285700   60.697500
  H     -2.381350  -30.130700   61.196200
  H     -2.030080  -29.556600   59.635600
  C     -2.696350  -27.955400   61.053100
  H     -2.290530  -27.134800   60.441400
  H     -3.735400  -28.084500   60.713800
  C     -2.615660  -27.586000   62.527500
  H     -3.145880  -26.767800   62.894000
  H     -3.021230  -28.444800   63.064800
  H     -1.580230  -27.599000   62.877100
  S      4.357830  -28.198200   59.594500
  C      4.833100  -26.803200   58.685800
  C      3.821390  -25.820100   58.765700
  C      2.690830  -26.202100   59.507600
  C      2.711630  -27.519400   59.991900
  H      4.044800  -24.829400   58.431900
  C      1.787240  -25.071400   60.022200
  H      0.961882  -25.598200   60.471200
  H      1.456100  -24.500000   59.178400
  C      2.454630  -24.143200   61.062000
  H      1.743190  -23.375400   61.296100
  H      3.249640  -23.523100   60.624600
  C      2.889400  -24.750300   62.422700
  H      3.535750  -25.616400   62.386800
  H      2.017270  -25.114400   62.907900
  H      3.310630  -24.022900   63.057200
  H     -0.251268  -30.661700   62.516100
  H      5.803110  -26.578800   58.189800

 Total Charge           Charge          ....    0
 Multiplicity           Mult            ....    1
 Number of Electrons    NEL             ....  134
 Basis Dimension        Dim             ....  322

ORBITAL ENERGIES
----------------

  NO   OCC          E(Eh)            E(eV)
   0   2.0000     -88.970498     -2421.0103
   1   2.0000     -88.966733     -2420.9079
   2   2.0000     -10.337444      -281.2961
   3   2.0000     -10.335449      -281.2419
   4   2.0000     -10.323538      -280.9177
   5   2.0000     -10.312557      -280.6190
   6   2.0000     -10.302211      -280.3374
   7   2.0000     -10.301614      -280.3212
   8   2.0000     -10.295662      -280.1592
   9   2.0000     -10.293329      -280.0957
  10   2.0000     -10.293133      -280.0904
  11   2.0000     -10.290006      -280.0053
  12   2.0000     -10.289897      -280.0023
  13   2.0000     -10.285993      -279.8961
  14   2.0000     -10.271788      -279.5095
  15   2.0000     -10.265920      -279.3499
  16   2.0000      -8.084564      -219.9922
  17   2.0000      -8.080401      -219.8789
  18   2.0000      -6.043269      -164.4457
  19   2.0000      -6.039352      -164.3391
  20   2.0000      -6.038939      -164.3279
  21   2.0000      -6.034963      -164.2197
  22   2.0000      -6.034941      -164.2191
  23   2.0000      -6.031311      -164.1203
  24   2.0000      -1.001914       -27.2635
  25   2.0000      -0.980672       -26.6855
  26   2.0000      -0.910758       -24.7830
  27   2.0000      -0.903368       -24.5819
  28   2.0000      -0.865536       -23.5524
  29   2.0000      -0.849980       -23.1291
  30   2.0000      -0.842884       -22.9360
  31   2.0000      -0.811394       -22.0792
  32   2.0000      -0.786084       -21.3904
  33   2.0000      -0.778727       -21.1902
  34   2.0000      -0.710000       -19.3201
  35   2.0000      -0.701576       -19.0909
  36   2.0000      -0.695787       -18.9333
  37   2.0000      -0.656502       -17.8643
  38   2.0000      -0.640344       -17.4246
  39   2.0000      -0.621207       -16.9039
  40   2.0000      -0.585922       -15.9438
  41   2.0000      -0.568224       -15.4622
  42   2.0000      -0.557374       -15.1669
  43   2.0000      -0.552116       -15.0239
  44   2.0000      -0.538995       -14.6668
  45   2.0000      -0.535226       -14.5642
  46   2.0000      -0.517723       -14.0880
  47   2.0000      -0.511124       -13.9084
  48   2.0000      -0.502533       -13.6746
  49   2.0000      -0.496072       -13.4988
  50   2.0000      -0.489539       -13.3210
  51   2.0000      -0.476813       -12.9747
  52   2.0000      -0.473570       -12.8865
  53   2.0000      -0.459802       -12.5118
  54   2.0000      -0.455005       -12.3813
  55   2.0000      -0.450630       -12.2623
  56   2.0000      -0.448367       -12.2007
  57   2.0000      -0.442195       -12.0327
  58   2.0000      -0.440795       -11.9946
  59   2.0000      -0.424191       -11.5428
  60   2.0000      -0.420419       -11.4402
  61   2.0000      -0.416123       -11.3233
  62   2.0000      -0.405858       -11.0440
  63   2.0000      -0.353367        -9.6156
  64   2.0000      -0.333523        -9.0756
  65   2.0000      -0.329400        -8.9634
  66   2.0000      -0.288030        -7.8377
  67   0.0000       0.023257         0.6329
  68   0.0000       0.074716         2.0331
  69   0.0000       0.103770         2.8237
  70   0.0000       0.121574         3.3082
  71   0.0000       0.133639         3.6365

MULLIKEN ATOMIC CHARGES
-----------------------
   0 S :    0.106815
   1 C :   -0.094962
   2 C :   -0.106782
   3 C :   -0.001126
   4 C :   -0.109983
   5 H :    0.029486
   6 C :    0.076071
   7 H :    0.005911
   8 H :    0.041836
   9 C :   -0.076385
  10 H :    0.031232
  11 H :    0.034340
  12 C :   -0.022988
  13 H :    0.031153
  14 H :    0.009726
  15 H :    0.041196
  16 S :    0.094954
  17 C :   -0.107940
  18 C :   -0.038521
  19 C :   -0.057638
  20 C :   -0.156024
  21 H :    0.012006
  22 C :    0.098378
  23 H :    0.008262
  24 H :    0.022723
  25 C :   -0.072184
  26 H :    0.020076
  27 H :    0.020028
  28 C :   -0.014885
  29 H :    0.038389
  30 H :    0.015484
  31 H :    0.024143
  32 H :    0.020438
  33 H :    0.076772
Sum of atomic charges:    0.0000000

LOEWDIN ATOMIC CHARGES
----------------------
   0 S :    0.384614
   1 C :   -0.181643
   2 C :   -0.058010
   3 C :   -0.064607
   4 C :   -0.183538
   5 H :    0.036256
   6 C :   -0.025415
   7 H :    0.021858
   8 H :    0.038624
   9 C :   -0.038916
  10 H :    0.021782
  11 H :    0.026196
  12 C :   -0.064973
  13 H :    0.019033
  14 H :    0.025728
  15 H :    0.030921
  16 S :    0.385902
  17 C :   -0.196320
  18 C :   -0.074373
  19 C :   -0.064774
  20 C :   -0.176554
  21 H :    0.026255
  22 C :   -0.021920
  23 H :    0.023700
  24 H :    0.028656
  25 C :   -0.037645
  26 H :    0.023994
  27 H :    0.020743
  28 C :   -0.057138
  29 H :    0.026332
  30 H :    0.022330
  31 H :    0.022227
  32 H :    0.017776
  33 H :    0.042901

  Mayer bond orders larger than 0.100000
B(  0-S ,  1-C ) :   1.1002 B(  0-S ,  4-C ) :   1.1374 B(  1-C ,  2-C ) :   1.6611
B(  1-C , 32-H ) :   0.9706 B(  2-C ,  3-C ) :   1.1934 B(  2-C ,  6-C ) :   1.0187
B(  3-C ,  4-C ) :   1.6025 B(  3-C ,  5-H ) :   0.9918 B(  4-C , 20-C ) :   1.0372
B(  6-C ,  7-H ) :   0.9412 B(  6-C ,  8-H ) :   0.9401 B(  6-C ,  9-C ) :   1.0642
B(  9-C , 10-H ) :   0.9572 B(  9-C , 11-H ) :   0.9572 B(  9-C , 12-C ) :   1.0664
B( 12-C , 13-H ) :   0.9762 B( 12-C , 14-H ) :   0.9701 B( 12-C , 15-H ) :   0.9723
B( 16-S , 17-C ) :   1.1745 B( 16-S , 20-C ) :   1.1208 B( 17-C , 18-C ) :   1.5748
B( 17-C , 20-C ) :   0.1096 B( 17-C , 33-H ) :   0.9617 B( 18-C , 19-C ) :   1.2716
B( 18-C , 21-H ) :   0.9912 B( 19-C , 20-C ) :   1.5676 B( 19-C , 22-C ) :   1.0411
B( 22-C , 23-H ) :   0.9353 B( 22-C , 24-H ) :   0.9292 B( 22-C , 25-C ) :   1.0802
B( 25-C , 26-H ) :   0.9511 B( 25-C , 27-H ) :   0.9538 B( 25-C , 28-C ) :   1.0726
B( 28-C , 29-H ) :   0.9775 B( 28-C , 30-H ) :   0.9728 B( 28-C , 31-H ) :   0.9728

Dispersion correction           -0.015429813
FINAL SINGLE POINT ENERGY     -1339.879539097256

DIPOLE MOMENT
-------------
                                X             Y             Z
Electronic contribution:     19.27625     -16.23766      -6.82832
Nuclear contribution   :    -19.80610      16.73612       6.81515
                        -----------------------------------------
Total Dipole Moment    :     -0.52984       0.49846      -0.01317
                        -----------------------------------------
Magnitude (a.u.)       :      0.72758
Magnitude (Debye)      :      1.84936

Rotational constants in cm-1:     0.019707     0.009152     0.007505
Rotational constants in MHz :   590.811513   274.382552   225.006805

                             ****ORCA TERMINATED NORMALLY****
TOTAL RUN TIME: 0 days 0 hours 0 minutes 36 seconds 531 msec
