                         Program Version 4.2.1 -  RELEASE  -
|  1> ! wB97X-D3 SP def2-SVP
|  2> %pal
|  3> nprocs 16
|  4> end
|  5>
|  6> * xyz 0 1
|  7> S 	 5.28477 	 24.2968 	 37.0116
|  8> C 	 3.72327 	 25.0249 	 36.7395
|  9> C 	 2.82238 	 24.7101 	 37.7538
| 10> C 	 3.40666 	 23.8764 	 38.7704
| 11> C 	 4.72335 	 23.5452 	 38.4703
| 12> H 	 2.90589 	 23.3935 	 39.6336
| 13> C 	 1.40203 	 25.1081 	 37.7144
| 14> H 	 1.10319 	 25.5341 	 36.8234
| 15> H 	 1.23652 	 25.8558 	 38.5015
| 16> C 	 0.471796 	 23.9048 	 37.8661
| 17> H 	 0.568667 	 23.2274 	 37.0257
| 18> H 	 0.80527 	 23.4202 	 38.7314
| 19> C 	 -1.04155 	 24.2327 	 38.2364
| 20> H 	 -1.40852 	 25.1293 	 37.6841
| 21> H 	 -1.66426 	 23.3797 	 37.9295
| 22> H 	 -1.26373 	 24.3372 	 39.2512
| 23> S 	 6.13132 	 22.9913 	 40.7234
| 24> C 	 7.15841 	 21.5386 	 40.7445
| 25> C 	 6.93314 	 20.7031 	 39.6665
| 26> C 	 6.03564 	 21.2933 	 38.6971
| 27> C 	 5.54846 	 22.5565 	 39.1109
| 28> H 	 7.49238 	 19.7939 	 39.4133
| 29> C 	 5.49807 	 20.4398 	 37.5358
| 30> H 	 6.26082 	 20.1499 	 36.7601
| 31> H 	 4.91895 	 21.111 	 36.9495
| 32> C 	 4.65032 	 19.2871 	 37.9245
| 33> H 	 3.83668 	 19.5224 	 38.637
| 34> H 	 5.17948 	 18.5718 	 38.5384
| 35> C 	 4.20508 	 18.4998 	 36.6453
| 36> H 	 3.65551 	 19.0854 	 35.953
| 37> H 	 3.47082 	 17.8046 	 36.9338
| 38> H 	 5.07688 	 18.1226 	 36.0813
| 39> H 	 3.46156 	 25.6236 	 35.9295
| 40> H 	 7.8502 	 21.0307 	 41.4987
| 41> *
| 42>
| 43>                          ****END OF INPUT****

CARTESIAN COORDINATES (ANGSTROEM)
---------------------------------
  S      5.284770   24.296800   37.011600
  C      3.723270   25.024900   36.739500
  C      2.822380   24.710100   37.753800
  C      3.406660   23.876400   38.770400
  C      4.723350   23.545200   38.470300
  H      2.905890   23.393500   39.633600
  C      1.402030   25.108100   37.714400
  H      1.103190   25.534100   36.823400
  H      1.236520   25.855800   38.501500
  C      0.471796   23.904800   37.866100
  H      0.568667   23.227400   37.025700
  H      0.805270   23.420200   38.731400
  C     -1.041550   24.232700   38.236400
  H     -1.408520   25.129300   37.684100
  H     -1.664260   23.379700   37.929500
  H     -1.263730   24.337200   39.251200
  S      6.131320   22.991300   40.723400
  C      7.158410   21.538600   40.744500
  C      6.933140   20.703100   39.666500
  C      6.035640   21.293300   38.697100
  C      5.548460   22.556500   39.110900
  H      7.492380   19.793900   39.413300
  C      5.498070   20.439800   37.535800
  H      6.260820   20.149900   36.760100
  H      4.918950   21.111000   36.949500
  C      4.650320   19.287100   37.924500
  H      3.836680   19.522400   38.637000
  H      5.179480   18.571800   38.538400
  C      4.205080   18.499800   36.645300
  H      3.655510   19.085400   35.953000
  H      3.470820   17.804600   36.933800
  H      5.076880   18.122600   36.081300
  H      3.461560   25.623600   35.929500
  H      7.850200   21.030700   41.498700

 Total Charge           Charge          ....    0
 Multiplicity           Mult            ....    1
 Number of Electrons    NEL             ....  134
 Basis Dimension        Dim             ....  322

ORBITAL ENERGIES
----------------

  NO   OCC          E(Eh)            E(eV)
   0   2.0000     -88.970573     -2421.0124
   1   2.0000     -88.967453     -2420.9275
   2   2.0000     -10.328629      -281.0563
   3   2.0000     -10.327451      -281.0242
   4   2.0000     -10.323547      -280.9180
   5   2.0000     -10.309029      -280.5229
   6   2.0000     -10.306593      -280.4567
   7   2.0000     -10.300876      -280.3011
   8   2.0000     -10.299831      -280.2727
   9   2.0000     -10.293703      -280.1059
  10   2.0000     -10.287754      -279.9440
  11   2.0000     -10.284603      -279.8583
  12   2.0000     -10.283417      -279.8260
  13   2.0000     -10.282790      -279.8089
  14   2.0000     -10.280127      -279.7365
  15   2.0000     -10.273958      -279.5686
  16   2.0000      -8.084061      -219.9785
  17   2.0000      -8.082243      -219.9290
  18   2.0000      -6.042810      -164.4332
  19   2.0000      -6.040660      -164.3747
  20   2.0000      -6.038709      -164.3216
  21   2.0000      -6.036634      -164.2652
  22   2.0000      -6.034655      -164.2113
  23   2.0000      -6.033193      -164.1715
  24   2.0000      -1.005078       -27.3496
  25   2.0000      -0.978502       -26.6264
  26   2.0000      -0.916098       -24.9283
  27   2.0000      -0.909649       -24.7528
  28   2.0000      -0.868608       -23.6360
  29   2.0000      -0.847490       -23.0614
  30   2.0000      -0.842376       -22.9222
  31   2.0000      -0.814730       -22.1699
  32   2.0000      -0.785653       -21.3787
  33   2.0000      -0.768808       -20.9203
  34   2.0000      -0.713558       -19.4169
  35   2.0000      -0.703496       -19.1431
  36   2.0000      -0.692787       -18.8517
  37   2.0000      -0.660089       -17.9619
  38   2.0000      -0.641691       -17.4613
  39   2.0000      -0.622121       -16.9288
  40   2.0000      -0.593296       -16.1444
  41   2.0000      -0.567128       -15.4323
  42   2.0000      -0.565731       -15.3943
  43   2.0000      -0.554670       -15.0933
  44   2.0000      -0.526200       -14.3186
  45   2.0000      -0.521278       -14.1847
  46   2.0000      -0.517385       -14.0787
  47   2.0000      -0.513024       -13.9601
  48   2.0000      -0.504893       -13.7388
  49   2.0000      -0.497870       -13.5477
  50   2.0000      -0.489126       -13.3098
  51   2.0000      -0.480068       -13.0633
  52   2.0000      -0.469653       -12.7799
  53   2.0000      -0.461823       -12.5668
  54   2.0000      -0.458458       -12.4753
  55   2.0000      -0.454884       -12.3780
  56   2.0000      -0.448246       -12.1974
  57   2.0000      -0.443023       -12.0553
  58   2.0000      -0.437989       -11.9183
  59   2.0000      -0.419663       -11.4196
  60   2.0000      -0.419053       -11.4030
  61   2.0000      -0.416596       -11.3362
  62   2.0000      -0.405741       -11.0408
  63   2.0000      -0.339008        -9.2249
  64   2.0000      -0.335399        -9.1267
  65   2.0000      -0.323316        -8.7979
  66   2.0000      -0.297818        -8.1040
  67   0.0000       0.035621         0.9693
  68   0.0000       0.061848         1.6830
  69   0.0000       0.104138         2.8337
  70   0.0000       0.118518         3.2250
  71   0.0000       0.128342         3.4924

MULLIKEN ATOMIC CHARGES
-----------------------
   0 S :    0.131381
   1 C :   -0.099026
   2 C :   -0.096139
   3 C :    0.028125
   4 C :   -0.169193
   5 H :    0.034783
   6 C :    0.127550
   7 H :   -0.007100
   8 H :    0.035620
   9 C :   -0.094816
  10 H :    0.037239
  11 H :    0.012938
  12 C :   -0.048263
  13 H :    0.033189
  14 H :    0.031534
  15 H :    0.025990
  16 S :    0.121178
  17 C :   -0.091969
  18 C :   -0.062680
  19 C :   -0.020335
  20 C :   -0.196717
  21 H :    0.034936
  22 C :    0.074501
  23 H :    0.028112
  24 H :    0.002108
  25 C :   -0.072648
  26 H :    0.031089
  27 H :    0.016430
  28 C :   -0.020273
  29 H :    0.013985
  30 H :    0.022738
  31 H :    0.038875
  32 H :    0.020168
  33 H :    0.076689
Sum of atomic charges:   -0.0000000

LOEWDIN ATOMIC CHARGES
----------------------
   0 S :    0.424943
   1 C :   -0.193022
   2 C :   -0.057863
   3 C :   -0.062961
   4 C :   -0.206749
   5 H :    0.039146
   6 C :   -0.027846
   7 H :    0.016925
   8 H :    0.036811
   9 C :   -0.030646
  10 H :    0.026222
  11 H :    0.013779
  12 C :   -0.064973
  13 H :    0.026008
  14 H :    0.030367
  15 H :    0.016443
  16 S :    0.398316
  17 C :   -0.199109
  18 C :   -0.076767
  19 C :   -0.050296
  20 C :   -0.202110
  21 H :    0.036191
  22 C :   -0.039594
  23 H :    0.036147
  24 H :    0.021921
  25 C :   -0.040670
  26 H :    0.029960
  27 H :    0.018990
  28 C :   -0.058152
  29 H :    0.018740
  30 H :    0.022356
  31 H :    0.030821
  32 H :    0.015074
  33 H :    0.051599

  Mayer bond orders larger than 0.100000
B(  0-S ,  1-C ) :   1.1366 B(  0-S ,  4-C ) :   1.1614 B(  1-C ,  2-C ) :   1.6098
B(  1-C , 32-H ) :   0.9766 B(  2-C ,  3-C ) :   1.2280 B(  2-C ,  6-C ) :   1.0427
B(  3-C ,  4-C ) :   1.5786 B(  3-C ,  5-H ) :   0.9817 B(  4-C , 20-C ) :   1.0256
B(  6-C ,  7-H ) :   0.9342 B(  6-C ,  8-H ) :   0.9310 B(  6-C ,  9-C ) :   1.0570
B(  9-C , 10-H ) :   0.9628 B(  9-C , 11-H ) :   0.9600 B(  9-C , 12-C ) :   1.0680
B( 12-C , 13-H ) :   0.9788 B( 12-C , 14-H ) :   0.9754 B( 12-C , 15-H ) :   0.9800
B( 16-S , 17-C ) :   1.1324 B( 16-S , 20-C ) :   1.1301 B( 17-C , 18-C ) :   1.6427
B( 17-C , 33-H ) :   0.9514 B( 18-C , 19-C ) :   1.2320 B( 18-C , 21-H ) :   0.9764
B( 19-C , 20-C ) :   1.6032 B( 19-C , 22-C ) :   1.0406 B( 22-C , 23-H ) :   0.9329
B( 22-C , 24-H ) :   0.9269 B( 22-C , 25-C ) :   1.0666 B( 25-C , 26-H ) :   0.9513
B( 25-C , 27-H ) :   0.9518 B( 25-C , 28-C ) :   1.0755 B( 28-C , 29-H ) :   0.9763
B( 28-C , 30-H ) :   0.9714 B( 28-C , 31-H ) :   0.9740

Dispersion correction           -0.013975985
FINAL SINGLE POINT ENERGY     -1339.859755845448

DIPOLE MOMENT
-------------
                                X             Y             Z
Electronic contribution:     22.70674      12.98775       8.22730
Nuclear contribution   :    -23.20041     -13.39375      -8.41822
                        -----------------------------------------
Total Dipole Moment    :     -0.49367      -0.40600      -0.19092
                        -----------------------------------------
Magnitude (a.u.)       :      0.66708
Magnitude (Debye)      :      1.69558

Rotational constants in cm-1:     0.016729     0.008412     0.007152
Rotational constants in MHz :   501.522034   252.192787   214.417086

                             ****ORCA TERMINATED NORMALLY****
TOTAL RUN TIME: 0 days 0 hours 0 minutes 35 seconds 452 msec
