                         Program Version 4.2.1 -  RELEASE  -
|  1> ! wB97X-D3 SP def2-SVP
|  2> %pal
|  3> nprocs 16
|  4> end
|  5>
|  6> * xyz 0 1
|  7> S 	 44.9545 	 8.27419 	 102.001
|  8> C 	 46.6309 	 8.30227 	 102.421
|  9> C 	 47.4099 	 8.24652 	 101.275
| 10> C 	 46.6782 	 8.2356 	 100.046
| 11> C 	 45.3129 	 8.16677 	 100.261
| 12> H 	 47.1125 	 8.18931 	 99.0127
| 13> C 	 48.9192 	 8.28908 	 101.296
| 14> H 	 49.2707 	 8.76956 	 102.178
| 15> H 	 49.1816 	 9.04417 	 100.47
| 16> C 	 49.6645 	 6.87634 	 101.237
| 17> H 	 49.1698 	 6.34023 	 102.029
| 18> H 	 49.4612 	 6.32679 	 100.26
| 19> C 	 51.1039 	 7.03493 	 101.746
| 20> H 	 51.3031 	 7.51941 	 102.693
| 21> H 	 51.7799 	 6.23101 	 101.705
| 22> H 	 51.6131 	 7.68219 	 100.939
| 23> S 	 43.5165 	 6.4632 	 99.371
| 24> C 	 42.5061 	 6.93165 	 97.9765
| 25> C 	 42.7243 	 8.2425 	 97.5993
| 26> C 	 43.7819 	 8.85656 	 98.2935
| 27> C 	 44.336 	 7.96866 	 99.2228
| 28> H 	 42.0936 	 8.64429 	 96.8004
| 29> C 	 44.222 	 10.2409 	 97.8361
| 30> H 	 44.435 	 10.2735 	 96.7101
| 31> H 	 45.1769 	 10.3962 	 98.2372
| 32> C 	 43.251 	 11.3824 	 98.325
| 33> H 	 42.3862 	 11.3057 	 97.6808
| 34> H 	 43.7242 	 12.3799 	 98.2211
| 35> C 	 43.0454 	 11.4707 	 99.8908
| 36> H 	 42.2859 	 10.817 	 100.348
| 37> H 	 42.7575 	 12.4882 	 100.152
| 38> H 	 43.9251 	 11.2463 	 100.361
| 39> H 	 47.0832 	 8.31406 	 103.438
| 40> H 	 41.752 	 6.2069 	 97.5832
| 41> *
| 42>
| 43>                          ****END OF INPUT****

CARTESIAN COORDINATES (ANGSTROEM)
---------------------------------
  S     44.954500    8.274190  102.001000
  C     46.630900    8.302270  102.421000
  C     47.409900    8.246520  101.275000
  C     46.678200    8.235600  100.046000
  C     45.312900    8.166770  100.261000
  H     47.112500    8.189310   99.012700
  C     48.919200    8.289080  101.296000
  H     49.270700    8.769560  102.178000
  H     49.181600    9.044170  100.470000
  C     49.664500    6.876340  101.237000
  H     49.169800    6.340230  102.029000
  H     49.461200    6.326790  100.260000
  C     51.103900    7.034930  101.746000
  H     51.303100    7.519410  102.693000
  H     51.779900    6.231010  101.705000
  H     51.613100    7.682190  100.939000
  S     43.516500    6.463200   99.371000
  C     42.506100    6.931650   97.976500
  C     42.724300    8.242500   97.599300
  C     43.781900    8.856560   98.293500
  C     44.336000    7.968660   99.222800
  H     42.093600    8.644290   96.800400
  C     44.222000   10.240900   97.836100
  H     44.435000   10.273500   96.710100
  H     45.176900   10.396200   98.237200
  C     43.251000   11.382400   98.325000
  H     42.386200   11.305700   97.680800
  H     43.724200   12.379900   98.221100
  C     43.045400   11.470700   99.890800
  H     42.285900   10.817000  100.348000
  H     42.757500   12.488200  100.152000
  H     43.925100   11.246300  100.361000
  H     47.083200    8.314060  103.438000
  H     41.752000    6.206900   97.583200

 Total Charge           Charge          ....    0
 Multiplicity           Mult            ....    1
 Number of Electrons    NEL             ....  134
 Basis Dimension        Dim             ....  322

ORBITAL ENERGIES
----------------

  NO   OCC          E(Eh)            E(eV)
   0   2.0000     -88.967889     -2420.9393
   1   2.0000     -88.965681     -2420.8793
   2   2.0000     -10.327208      -281.0176
   3   2.0000     -10.323179      -280.9080
   4   2.0000     -10.320326      -280.8303
   5   2.0000     -10.314500      -280.6718
   6   2.0000     -10.304117      -280.3893
   7   2.0000     -10.297640      -280.2130
   8   2.0000     -10.297096      -280.1982
   9   2.0000     -10.296170      -280.1730
  10   2.0000     -10.294827      -280.1365
  11   2.0000     -10.294266      -280.1212
  12   2.0000     -10.292933      -280.0850
  13   2.0000     -10.292006      -280.0597
  14   2.0000     -10.280737      -279.7531
  15   2.0000     -10.269794      -279.4553
  16   2.0000      -8.082059      -219.9240
  17   2.0000      -8.080693      -219.8868
  18   2.0000      -6.040638      -164.3741
  19   2.0000      -6.038979      -164.3290
  20   2.0000      -6.036580      -164.2637
  21   2.0000      -6.035299      -164.2288
  22   2.0000      -6.032825      -164.1615
  23   2.0000      -6.031524      -164.1261
  24   2.0000      -1.007531       -27.4163
  25   2.0000      -0.982623       -26.7385
  26   2.0000      -0.903946       -24.5976
  27   2.0000      -0.899604       -24.4795
  28   2.0000      -0.870443       -23.6860
  29   2.0000      -0.848278       -23.0828
  30   2.0000      -0.844628       -22.9835
  31   2.0000      -0.811204       -22.0740
  32   2.0000      -0.780873       -21.2486
  33   2.0000      -0.764810       -20.8115
  34   2.0000      -0.706967       -19.2375
  35   2.0000      -0.701372       -19.0853
  36   2.0000      -0.692277       -18.8378
  37   2.0000      -0.659908       -17.9570
  38   2.0000      -0.636636       -17.3238
  39   2.0000      -0.616882       -16.7862
  40   2.0000      -0.594565       -16.1789
  41   2.0000      -0.560297       -15.2465
  42   2.0000      -0.553954       -15.0738
  43   2.0000      -0.546392       -14.8681
  44   2.0000      -0.541175       -14.7261
  45   2.0000      -0.517588       -14.0843
  46   2.0000      -0.514113       -13.9897
  47   2.0000      -0.506074       -13.7710
  48   2.0000      -0.502544       -13.6749
  49   2.0000      -0.493798       -13.4369
  50   2.0000      -0.492112       -13.3910
  51   2.0000      -0.479672       -13.0525
  52   2.0000      -0.469445       -12.7743
  53   2.0000      -0.460777       -12.5384
  54   2.0000      -0.454771       -12.3749
  55   2.0000      -0.445618       -12.1259
  56   2.0000      -0.443692       -12.0735
  57   2.0000      -0.438317       -11.9272
  58   2.0000      -0.433154       -11.7867
  59   2.0000      -0.426091       -11.5945
  60   2.0000      -0.417519       -11.3613
  61   2.0000      -0.411610       -11.2005
  62   2.0000      -0.405324       -11.0294
  63   2.0000      -0.343821        -9.3558
  64   2.0000      -0.331355        -9.0166
  65   2.0000      -0.323627        -8.8063
  66   2.0000      -0.296755        -8.0751
  67   0.0000       0.038210         1.0397
  68   0.0000       0.057695         1.5700
  69   0.0000       0.112209         3.0534
  70   0.0000       0.118792         3.2325
  71   0.0000       0.123864         3.3705

MULLIKEN ATOMIC CHARGES
-----------------------
   0 S :    0.124371
   1 C :   -0.129099
   2 C :   -0.099186
   3 C :    0.034047
   4 C :   -0.166005
   5 H :    0.037612
   6 C :    0.028528
   7 H :    0.003537
   8 H :    0.038822
   9 C :   -0.046743
  10 H :    0.024731
  11 H :    0.055331
  12 C :   -0.060805
  13 H :    0.038474
  14 H :    0.021977
  15 H :    0.022949
  16 S :    0.110876
  17 C :   -0.121012
  18 C :   -0.034366
  19 C :   -0.002106
  20 C :   -0.202461
  21 H :    0.028103
  22 C :    0.079637
  23 H :    0.049912
  24 H :   -0.005699
  25 C :   -0.091072
  26 H :    0.035022
  27 H :    0.037161
  28 C :   -0.026140
  29 H :    0.037880
  30 H :    0.029416
  31 H :    0.012046
  32 H :    0.062711
  33 H :    0.071553
Sum of atomic charges:    0.0000000

LOEWDIN ATOMIC CHARGES
----------------------
   0 S :    0.404256
   1 C :   -0.216292
   2 C :   -0.072347
   3 C :   -0.064575
   4 C :   -0.197106
   5 H :    0.043443
   6 C :   -0.035824
   7 H :    0.020731
   8 H :    0.036826
   9 C :   -0.039427
  10 H :    0.021625
  11 H :    0.036920
  12 C :   -0.077266
  13 H :    0.026868
  14 H :    0.018641
  15 H :    0.033204
  16 S :    0.412404
  17 C :   -0.180085
  18 C :   -0.069807
  19 C :   -0.053673
  20 C :   -0.210226
  21 H :    0.036801
  22 C :   -0.032847
  23 H :    0.042894
  24 H :    0.017067
  25 C :   -0.036238
  26 H :    0.018948
  27 H :    0.031440
  28 C :   -0.057476
  29 H :    0.027161
  30 H :    0.026716
  31 H :    0.012690
  32 H :    0.040729
  33 H :    0.033822

  Mayer bond orders larger than 0.100000
B(  0-S ,  1-C ) :   1.1318 B(  0-S ,  4-C ) :   1.1437 B(  1-C ,  2-C ) :   1.6104
B(  1-C , 32-H ) :   0.9625 B(  2-C ,  3-C ) :   1.2420 B(  2-C ,  6-C ) :   1.0303
B(  3-C ,  4-C ) :   1.5787 B(  3-C ,  5-H ) :   0.9858 B(  4-C , 20-C ) :   1.0312
B(  6-C ,  7-H ) :   0.9458 B(  6-C ,  8-H ) :   0.9415 B(  6-C ,  9-C ) :   1.0357
B(  9-C , 10-H ) :   0.9572 B(  9-C , 11-H ) :   0.9590 B(  9-C , 12-C ) :   1.0682
B( 12-C , 13-H ) :   0.9754 B( 12-C , 14-H ) :   0.9757 B( 12-C , 15-H ) :   0.9726
B( 16-S , 17-C ) :   1.1474 B( 16-S , 20-C ) :   1.1686 B( 17-C , 18-C ) :   1.6098
B( 17-C , 20-C ) :   0.1049 B( 17-C , 33-H ) :   0.9644 B( 18-C , 19-C ) :   1.2321
B( 18-C , 21-H ) :   0.9896 B( 19-C , 20-C ) :   1.5787 B( 19-C , 22-C ) :   1.0360
B( 22-C , 23-H ) :   0.9478 B( 22-C , 24-H ) :   0.9242 B( 22-C , 25-C ) :   1.0614
B( 25-C , 26-H ) :   0.9644 B( 25-C , 27-H ) :   0.9633 B( 25-C , 28-C ) :   1.0524
B( 28-C , 29-H ) :   0.9748 B( 28-C , 30-H ) :   0.9814 B( 28-C , 31-H ) :   0.9741

Dispersion correction           -0.014665589
FINAL SINGLE POINT ENERGY     -1339.857383635047

DIPOLE MOMENT
-------------
                                X             Y             Z
Electronic contribution:    -16.62268     -11.70267       1.71435
Nuclear contribution   :     16.93632      11.92161      -1.94650
                        -----------------------------------------
Total Dipole Moment    :      0.31364       0.21894      -0.23215
                        -----------------------------------------
Magnitude (a.u.)       :      0.44744
Magnitude (Debye)      :      1.13730

Rotational constants in cm-1:     0.022071     0.007443     0.006838
Rotational constants in MHz :   661.669575   223.124822   205.005043

                             ****ORCA TERMINATED NORMALLY****
TOTAL RUN TIME: 0 days 0 hours 0 minutes 28 seconds 281 msec
