                         Program Version 4.2.1 -  RELEASE  -
|  1> ! wB97X-D3 SP def2-SVP
|  2> %pal
|  3> nprocs 16
|  4> end
|  5>
|  6> * xyz 0 1
|  7> S 	 -15.9212 	 31.5223 	 34.9382
|  8> C 	 -15.9922 	 30.9699 	 36.5888
|  9> C 	 -14.7704 	 31.164 	 37.2355
| 10> C 	 -13.727 	 31.6973 	 36.3244
| 11> C 	 -14.1998 	 31.9513 	 35.0765
| 12> H 	 -12.6527 	 31.8015 	 36.5107
| 13> C 	 -14.3975 	 30.7108 	 38.6337
| 14> H 	 -13.6293 	 31.4566 	 38.931
| 15> H 	 -13.8913 	 29.8051 	 38.5563
| 16> C 	 -15.5578 	 30.6136 	 39.7392
| 17> H 	 -16.337 	 29.9089 	 39.4157
| 18> H 	 -15.0992 	 30.1965 	 40.7332
| 19> C 	 -16.2626 	 31.889 	 40.0264
| 20> H 	 -15.5402 	 32.6699 	 40.1585
| 21> H 	 -16.9677 	 32.1946 	 39.2721
| 22> H 	 -16.8046 	 31.8626 	 40.9834
| 23> S 	 -13.1289 	 31.2841 	 32.6098
| 24> C 	 -11.8125 	 32.2744 	 31.9811
| 25> C 	 -11.6473 	 33.4613 	 32.6828
| 26> C 	 -12.5022 	 33.4536 	 33.8224
| 27> C 	 -13.3396 	 32.3564 	 34.0049
| 28> H 	 -10.8547 	 34.1986 	 32.3213
| 29> C 	 -12.5336 	 34.6577 	 34.7093
| 30> H 	 -11.5969 	 35.2882 	 34.5451
| 31> H 	 -12.4472 	 34.2889 	 35.7329
| 32> C 	 -13.7745 	 35.4987 	 34.5098
| 33> H 	 -14.6111 	 34.8524 	 34.9068
| 34> H 	 -13.9437 	 35.6315 	 33.491
| 35> C 	 -13.7574 	 36.8286 	 35.2377
| 36> H 	 -14.5544 	 37.468 	 34.9436
| 37> H 	 -12.7496 	 37.2673 	 34.9869
| 38> H 	 -13.9246 	 36.6746 	 36.3002
| 39> H 	 -16.7827 	 30.4335 	 37.0684
| 40> H 	 -11.404 	 32.0542 	 30.9933
| 41> *
| 42>
| 43>                          ****END OF INPUT****

CARTESIAN COORDINATES (ANGSTROEM)
---------------------------------
  S    -15.921200   31.522300   34.938200
  C    -15.992200   30.969900   36.588800
  C    -14.770400   31.164000   37.235500
  C    -13.727000   31.697300   36.324400
  C    -14.199800   31.951300   35.076500
  H    -12.652700   31.801500   36.510700
  C    -14.397500   30.710800   38.633700
  H    -13.629300   31.456600   38.931000
  H    -13.891300   29.805100   38.556300
  C    -15.557800   30.613600   39.739200
  H    -16.337000   29.908900   39.415700
  H    -15.099200   30.196500   40.733200
  C    -16.262600   31.889000   40.026400
  H    -15.540200   32.669900   40.158500
  H    -16.967700   32.194600   39.272100
  H    -16.804600   31.862600   40.983400
  S    -13.128900   31.284100   32.609800
  C    -11.812500   32.274400   31.981100
  C    -11.647300   33.461300   32.682800
  C    -12.502200   33.453600   33.822400
  C    -13.339600   32.356400   34.004900
  H    -10.854700   34.198600   32.321300
  C    -12.533600   34.657700   34.709300
  H    -11.596900   35.288200   34.545100
  H    -12.447200   34.288900   35.732900
  C    -13.774500   35.498700   34.509800
  H    -14.611100   34.852400   34.906800
  H    -13.943700   35.631500   33.491000
  C    -13.757400   36.828600   35.237700
  H    -14.554400   37.468000   34.943600
  H    -12.749600   37.267300   34.986900
  H    -13.924600   36.674600   36.300200
  H    -16.782700   30.433500   37.068400
  H    -11.404000   32.054200   30.993300

 Total Charge           Charge          ....    0
 Multiplicity           Mult            ....    1
 Number of Electrons    NEL             ....  134
 Basis Dimension        Dim             ....  322

ORBITAL ENERGIES
----------------

  NO   OCC          E(Eh)            E(eV)
   0   2.0000     -88.967981     -2420.9419
   1   2.0000     -88.963619     -2420.8232
   2   2.0000     -10.329959      -281.0925
   3   2.0000     -10.325917      -280.9825
   4   2.0000     -10.321334      -280.8578
   5   2.0000     -10.315761      -280.7061
   6   2.0000     -10.308776      -280.5161
   7   2.0000     -10.303650      -280.3766
   8   2.0000     -10.302850      -280.3548
   9   2.0000     -10.300597      -280.2935
  10   2.0000     -10.298950      -280.2487
  11   2.0000     -10.295405      -280.1522
  12   2.0000     -10.286716      -279.9158
  13   2.0000     -10.274914      -279.5946
  14   2.0000     -10.273833      -279.5652
  15   2.0000     -10.271480      -279.5012
  16   2.0000      -8.082150      -219.9265
  17   2.0000      -8.078071      -219.8155
  18   2.0000      -6.040895      -164.3811
  19   2.0000      -6.036752      -164.2684
  20   2.0000      -6.036531      -164.2624
  21   2.0000      -6.032669      -164.1573
  22   2.0000      -6.032588      -164.1551
  23   2.0000      -6.028927      -164.0554
  24   2.0000      -1.004842       -27.3431
  25   2.0000      -0.980628       -26.6842
  26   2.0000      -0.910471       -24.7752
  27   2.0000      -0.907728       -24.7005
  28   2.0000      -0.873659       -23.7735
  29   2.0000      -0.852323       -23.1929
  30   2.0000      -0.847641       -23.0655
  31   2.0000      -0.815586       -22.1932
  32   2.0000      -0.780232       -21.2312
  33   2.0000      -0.767893       -20.8954
  34   2.0000      -0.708275       -19.2731
  35   2.0000      -0.699415       -19.0320
  36   2.0000      -0.686608       -18.6836
  37   2.0000      -0.661566       -18.0021
  38   2.0000      -0.641605       -17.4590
  39   2.0000      -0.607406       -16.5283
  40   2.0000      -0.591395       -16.0927
  41   2.0000      -0.572674       -15.5833
  42   2.0000      -0.565664       -15.3925
  43   2.0000      -0.556350       -15.1391
  44   2.0000      -0.540714       -14.7136
  45   2.0000      -0.523278       -14.2391
  46   2.0000      -0.516105       -14.0439
  47   2.0000      -0.511098       -13.9077
  48   2.0000      -0.509177       -13.8554
  49   2.0000      -0.503767       -13.7082
  50   2.0000      -0.488786       -13.3005
  51   2.0000      -0.477568       -12.9953
  52   2.0000      -0.473585       -12.8869
  53   2.0000      -0.463716       -12.6184
  54   2.0000      -0.460147       -12.5212
  55   2.0000      -0.446395       -12.1470
  56   2.0000      -0.443551       -12.0696
  57   2.0000      -0.436865       -11.8877
  58   2.0000      -0.429434       -11.6855
  59   2.0000      -0.420279       -11.4364
  60   2.0000      -0.416434       -11.3317
  61   2.0000      -0.414853       -11.2887
  62   2.0000      -0.408666       -11.1204
  63   2.0000      -0.346878        -9.4390
  64   2.0000      -0.331006        -9.0071
  65   2.0000      -0.323444        -8.8013
  66   2.0000      -0.298297        -8.1171
  67   0.0000       0.029837         0.8119
  68   0.0000       0.064231         1.7478
  69   0.0000       0.115732         3.1492
  70   0.0000       0.118723         3.2306
  71   0.0000       0.126286         3.4364

MULLIKEN ATOMIC CHARGES
-----------------------
   0 S :    0.114290
   1 C :   -0.111551
   2 C :   -0.105369
   3 C :    0.019515
   4 C :   -0.153511
   5 H :    0.034168
   6 C :    0.074572
   7 H :    0.031318
   8 H :    0.035434
   9 C :   -0.116997
  10 H :    0.033521
  11 H :    0.047455
  12 C :   -0.030200
  13 H :    0.018252
  14 H :    0.034440
  15 H :    0.032686
  16 S :    0.097250
  17 C :   -0.105349
  18 C :   -0.052964
  19 C :   -0.049915
  20 C :   -0.154869
  21 H :    0.056862
  22 C :    0.058019
  23 H :    0.015151
  24 H :    0.014290
  25 C :   -0.066339
  26 H :    0.036279
  27 H :    0.014340
  28 C :   -0.021072
  29 H :    0.029141
  30 H :    0.031871
  31 H :    0.031238
  32 H :    0.043642
  33 H :    0.064401
Sum of atomic charges:   -0.0000000

LOEWDIN ATOMIC CHARGES
----------------------
   0 S :    0.391264
   1 C :   -0.202592
   2 C :   -0.058001
   3 C :   -0.056109
   4 C :   -0.190803
   5 H :    0.038351
   6 C :   -0.031474
   7 H :    0.035194
   8 H :    0.026981
   9 C :   -0.047153
  10 H :    0.022031
  11 H :    0.037852
  12 C :   -0.069555
  13 H :    0.021403
  14 H :    0.023756
  15 H :    0.030810
  16 S :    0.393118
  17 C :   -0.175195
  18 C :   -0.083324
  19 C :   -0.052806
  20 C :   -0.200022
  21 H :    0.051999
  22 C :   -0.037374
  23 H :    0.027680
  24 H :    0.026913
  25 C :   -0.040022
  26 H :    0.031454
  27 H :    0.014306
  28 C :   -0.062714
  29 H :    0.022556
  30 H :    0.029608
  31 H :    0.026569
  32 H :    0.027004
  33 H :    0.028295

  Mayer bond orders larger than 0.100000
B(  0-S ,  1-C ) :   1.1182 B(  0-S ,  4-C ) :   1.1134 B(  1-C ,  2-C ) :   1.6461
B(  1-C , 32-H ) :   0.9679 B(  2-C ,  3-C ) :   1.1965 B(  2-C ,  6-C ) :   1.0036
B(  3-C ,  4-C ) :   1.6324 B(  3-C ,  5-H ) :   0.9835 B(  4-C , 20-C ) :   1.0601
B(  6-C ,  7-H ) :   0.9429 B(  6-C ,  8-H ) :   0.9407 B(  6-C ,  9-C ) :   1.0687
B(  9-C , 10-H ) :   0.9542 B(  9-C , 11-H ) :   0.9568 B(  9-C , 12-C ) :   1.0828
B( 12-C , 13-H ) :   0.9738 B( 12-C , 14-H ) :   0.9722 B( 12-C , 15-H ) :   0.9712
B( 16-S , 17-C ) :   1.1770 B( 16-S , 20-C ) :   1.1198 B( 17-C , 18-C ) :   1.5920
B( 17-C , 20-C ) :   0.1033 B( 17-C , 33-H ) :   0.9617 B( 18-C , 19-C ) :   1.2493
B( 18-C , 21-H ) :   0.9821 B( 19-C , 20-C ) :   1.5822 B( 19-C , 22-C ) :   1.0536
B( 22-C , 23-H ) :   0.9333 B( 22-C , 24-H ) :   0.9215 B( 22-C , 25-C ) :   1.0686
B( 25-C , 26-H ) :   0.9475 B( 25-C , 27-H ) :   0.9552 B( 25-C , 28-C ) :   1.0898
B( 28-C , 29-H ) :   0.9729 B( 28-C , 30-H ) :   0.9729 B( 28-C , 31-H ) :   0.9734

Dispersion correction           -0.014479193
FINAL SINGLE POINT ENERGY     -1339.876261429554

DIPOLE MOMENT
-------------
                                X             Y             Z
Electronic contribution:      0.94357     -13.95905     -22.38422
Nuclear contribution   :     -0.65883      14.11203      22.80275
                        -----------------------------------------
Total Dipole Moment    :      0.28474       0.15297       0.41852
                        -----------------------------------------
Magnitude (a.u.)       :      0.52881
Magnitude (Debye)      :      1.34412

Rotational constants in cm-1:     0.019933     0.008210     0.006753
Rotational constants in MHz :   597.571373   246.143292   202.463683

                             ****ORCA TERMINATED NORMALLY****
TOTAL RUN TIME: 0 days 0 hours 0 minutes 33 seconds 522 msec
