                         Program Version 4.2.1 -  RELEASE  -
|  1> ! wB97X-D3 SP def2-SVP
|  2> %pal
|  3> nprocs 16
|  4> end
|  5>
|  6> * xyz 0 1
|  7> S 	 5.91082 	 -6.46865 	 78.0262
|  8> C 	 7.13972 	 -5.9144 	 79.1386
|  9> C 	 6.57218 	 -5.31666 	 80.2782
| 10> C 	 5.14902 	 -5.41097 	 80.3164
| 11> C 	 4.62261 	 -5.97328 	 79.1684
| 12> H 	 4.4325 	 -5.16714 	 81.107
| 13> C 	 7.39052 	 -4.54808 	 81.3283
| 14> H 	 8.48789 	 -4.86266 	 81.1235
| 15> H 	 7.14386 	 -4.95362 	 82.3207
| 16> C 	 7.26024 	 -3.09325 	 81.3596
| 17> H 	 8.13231 	 -2.71068 	 81.9254
| 18> H 	 7.29107 	 -2.73176 	 80.3585
| 19> C 	 6.03095 	 -2.45731 	 81.996
| 20> H 	 6.16468 	 -1.31372 	 82.0386
| 21> H 	 5.03945 	 -2.70208 	 81.5
| 22> H 	 5.89798 	 -2.69894 	 83.098
| 23> S 	 2.24079 	 -4.72612 	 79.1121
| 24> C 	 0.800412 	 -5.56767 	 78.7285
| 25> C 	 1.02383 	 -6.89418 	 78.3136
| 26> C 	 2.42004 	 -7.25344 	 78.3865
| 27> C 	 3.2242 	 -6.1678 	 78.8356
| 28> H 	 0.221129 	 -7.46874 	 77.9403
| 29> C 	 2.79808 	 -8.71174 	 78.0101
| 30> H 	 3.5539 	 -8.67734 	 77.2711
| 31> H 	 1.85779 	 -9.29493 	 77.7907
| 32> C 	 3.39909 	 -9.37201 	 79.2341
| 33> H 	 2.71836 	 -9.31293 	 80.0697
| 34> H 	 4.34781 	 -8.81528 	 79.4897
| 35> C 	 3.60597 	 -10.8222 	 78.9161
| 36> H 	 2.85978 	 -11.4141 	 78.4467
| 37> H 	 3.89116 	 -11.3236 	 79.8273
| 38> H 	 4.4507 	 -10.8826 	 78.2004
| 39> H 	 8.20893 	 -5.85889 	 78.9414
| 40> H 	 -0.221248 	 -5.23511 	 78.808
| 41> *
| 42>
| 43>                          ****END OF INPUT****

CARTESIAN COORDINATES (ANGSTROEM)
---------------------------------
  S      5.910820   -6.468650   78.026200
  C      7.139720   -5.914400   79.138600
  C      6.572180   -5.316660   80.278200
  C      5.149020   -5.410970   80.316400
  C      4.622610   -5.973280   79.168400
  H      4.432500   -5.167140   81.107000
  C      7.390520   -4.548080   81.328300
  H      8.487890   -4.862660   81.123500
  H      7.143860   -4.953620   82.320700
  C      7.260240   -3.093250   81.359600
  H      8.132310   -2.710680   81.925400
  H      7.291070   -2.731760   80.358500
  C      6.030950   -2.457310   81.996000
  H      6.164680   -1.313720   82.038600
  H      5.039450   -2.702080   81.500000
  H      5.897980   -2.698940   83.098000
  S      2.240790   -4.726120   79.112100
  C      0.800412   -5.567670   78.728500
  C      1.023830   -6.894180   78.313600
  C      2.420040   -7.253440   78.386500
  C      3.224200   -6.167800   78.835600
  H      0.221129   -7.468740   77.940300
  C      2.798080   -8.711740   78.010100
  H      3.553900   -8.677340   77.271100
  H      1.857790   -9.294930   77.790700
  C      3.399090   -9.372010   79.234100
  H      2.718360   -9.312930   80.069700
  H      4.347810   -8.815280   79.489700
  C      3.605970  -10.822200   78.916100
  H      2.859780  -11.414100   78.446700
  H      3.891160  -11.323600   79.827300
  H      4.450700  -10.882600   78.200400
  H      8.208930   -5.858890   78.941400
  H     -0.221248   -5.235110   78.808000

 Total Charge           Charge          ....    0
 Multiplicity           Mult            ....    1
 Number of Electrons    NEL             ....  134
 Basis Dimension        Dim             ....  322

ORBITAL ENERGIES
----------------

  NO   OCC          E(Eh)            E(eV)
   0   2.0000     -88.970703     -2421.0159
   1   2.0000     -88.969540     -2420.9843
   2   2.0000     -10.333736      -281.1953
   3   2.0000     -10.329702      -281.0855
   4   2.0000     -10.317860      -280.7633
   5   2.0000     -10.315130      -280.6890
   6   2.0000     -10.310688      -280.5681
   7   2.0000     -10.305472      -280.4262
   8   2.0000     -10.297645      -280.2132
   9   2.0000     -10.296411      -280.1796
  10   2.0000     -10.292219      -280.0655
  11   2.0000     -10.291936      -280.0578
  12   2.0000     -10.290919      -280.0301
  13   2.0000     -10.281841      -279.7831
  14   2.0000     -10.278623      -279.6955
  15   2.0000     -10.267835      -279.4020
  16   2.0000      -8.085199      -220.0094
  17   2.0000      -8.083276      -219.9571
  18   2.0000      -6.043650      -164.4561
  19   2.0000      -6.041838      -164.4068
  20   2.0000      -6.039639      -164.3469
  21   2.0000      -6.037912      -164.2999
  22   2.0000      -6.036151      -164.2520
  23   2.0000      -6.034058      -164.1951
  24   2.0000      -1.002600       -27.2821
  25   2.0000      -0.979655       -26.6578
  26   2.0000      -0.916065       -24.9274
  27   2.0000      -0.915191       -24.9036
  28   2.0000      -0.869165       -23.6512
  29   2.0000      -0.850952       -23.1556
  30   2.0000      -0.844192       -22.9716
  31   2.0000      -0.810779       -22.0624
  32   2.0000      -0.782237       -21.2857
  33   2.0000      -0.767291       -20.8791
  34   2.0000      -0.704233       -19.1631
  35   2.0000      -0.692554       -18.8453
  36   2.0000      -0.686310       -18.6754
  37   2.0000      -0.664418       -18.0797
  38   2.0000      -0.638898       -17.3853
  39   2.0000      -0.614444       -16.7199
  40   2.0000      -0.594088       -16.1660
  41   2.0000      -0.574987       -15.6462
  42   2.0000      -0.573717       -15.6116
  43   2.0000      -0.545244       -14.8368
  44   2.0000      -0.539371       -14.6770
  45   2.0000      -0.521740       -14.1973
  46   2.0000      -0.512317       -13.9408
  47   2.0000      -0.510257       -13.8848
  48   2.0000      -0.507714       -13.8156
  49   2.0000      -0.500663       -13.6237
  50   2.0000      -0.488469       -13.2919
  51   2.0000      -0.482022       -13.1165
  52   2.0000      -0.473472       -12.8838
  53   2.0000      -0.464023       -12.6267
  54   2.0000      -0.459700       -12.5091
  55   2.0000      -0.449808       -12.2399
  56   2.0000      -0.443175       -12.0594
  57   2.0000      -0.430440       -11.7129
  58   2.0000      -0.428060       -11.6481
  59   2.0000      -0.424348       -11.5471
  60   2.0000      -0.417713       -11.3666
  61   2.0000      -0.411716       -11.2034
  62   2.0000      -0.404465       -11.0060
  63   2.0000      -0.347127        -9.4458
  64   2.0000      -0.333259        -9.0684
  65   2.0000      -0.329776        -8.9737
  66   2.0000      -0.288072        -7.8388
  67   0.0000       0.024861         0.6765
  68   0.0000       0.070191         1.9100
  69   0.0000       0.107308         2.9200
  70   0.0000       0.110156         2.9975
  71   0.0000       0.127138         3.4596

MULLIKEN ATOMIC CHARGES
-----------------------
   0 S :    0.107629
   1 C :   -0.116795
   2 C :   -0.100672
   3 C :    0.021721
   4 C :   -0.168072
   5 H :    0.031099
   6 C :    0.050077
   7 H :    0.029436
   8 H :    0.025475
   9 C :   -0.020845
  10 H :    0.035115
  11 H :    0.023953
  12 C :   -0.122022
  13 H :    0.047064
  14 H :    0.051411
  15 H :    0.031541
  16 S :    0.125091
  17 C :   -0.081536
  18 C :   -0.054309
  19 C :   -0.019430
  20 C :   -0.177536
  21 H :    0.008581
  22 C :    0.092878
  23 H :    0.023260
  24 H :    0.030661
  25 C :   -0.110418
  26 H :    0.025013
  27 H :    0.053967
  28 C :   -0.013964
  29 H :    0.021442
  30 H :    0.027441
  31 H :    0.018554
  32 H :    0.052812
  33 H :    0.051381
Sum of atomic charges:    0.0000000

LOEWDIN ATOMIC CHARGES
----------------------
   0 S :    0.390226
   1 C :   -0.203799
   2 C :   -0.061046
   3 C :   -0.070696
   4 C :   -0.183948
   5 H :    0.036480
   6 C :   -0.037353
   7 H :    0.038942
   8 H :    0.029545
   9 C :   -0.050606
  10 H :    0.034561
  11 H :    0.024861
  12 C :   -0.083067
  13 H :    0.036865
  14 H :    0.029139
  15 H :    0.025397
  16 S :    0.433610
  17 C :   -0.199945
  18 C :   -0.072032
  19 C :   -0.043252
  20 C :   -0.209697
  21 H :    0.024599
  22 C :   -0.022668
  23 H :    0.023139
  24 H :    0.037341
  25 C :   -0.042219
  26 H :    0.019570
  27 H :    0.032461
  28 C :   -0.067449
  29 H :    0.018989
  30 H :    0.024759
  31 H :    0.027904
  32 H :    0.030454
  33 H :    0.028935

  Mayer bond orders larger than 0.100000
B(  0-S ,  1-C ) :   1.1318 B(  0-S ,  4-C ) :   1.1341 B(  1-C ,  2-C ) :   1.6235
B(  1-C , 32-H ) :   0.9632 B(  2-C ,  3-C ) :   1.2176 B(  2-C ,  6-C ) :   1.0261
B(  3-C ,  4-C ) :   1.5838 B(  3-C ,  5-H ) :   0.9853 B(  4-C , 20-C ) :   1.0534
B(  6-C ,  7-H ) :   0.9387 B(  6-C ,  8-H ) :   0.9356 B(  6-C ,  9-C ) :   1.0775
B(  9-C , 10-H ) :   0.9472 B(  9-C , 11-H ) :   0.9465 B(  9-C , 12-C ) :   1.0846
B( 12-C , 13-H ) :   0.9713 B( 12-C , 14-H ) :   0.9695 B( 12-C , 15-H ) :   0.9719
B( 16-S , 17-C ) :   1.1758 B( 16-S , 20-C ) :   1.1457 B( 17-C , 18-C ) :   1.5866
B( 17-C , 20-C ) :   0.1010 B( 17-C , 33-H ) :   0.9651 B( 18-C , 19-C ) :   1.2701
B( 18-C , 21-H ) :   0.9934 B( 19-C , 20-C ) :   1.5374 B( 19-C , 22-C ) :   1.0313
B( 22-C , 23-H ) :   0.9296 B( 22-C , 24-H ) :   0.9413 B( 22-C , 25-C ) :   1.0725
B( 25-C , 26-H ) :   0.9577 B( 25-C , 27-H ) :   0.9477 B( 25-C , 28-C ) :   1.0896
B( 28-C , 29-H ) :   0.9732 B( 28-C , 30-H ) :   0.9713 B( 28-C , 31-H ) :   0.9679

Dispersion correction           -0.014629432
FINAL SINGLE POINT ENERGY     -1339.874865545134

DIPOLE MOMENT
-------------
                                X             Y             Z
Electronic contribution:     -6.16982       5.30951     -11.04798
Nuclear contribution   :      6.14166      -5.39285      11.30742
                        -----------------------------------------
Total Dipole Moment    :     -0.02816      -0.08334       0.25944
                        -----------------------------------------
Magnitude (a.u.)       :      0.27395
Magnitude (Debye)      :      0.69633

Rotational constants in cm-1:     0.019426     0.008982     0.006940
Rotational constants in MHz :   582.385987   269.273801   208.069763

                             ****ORCA TERMINATED NORMALLY****
TOTAL RUN TIME: 0 days 0 hours 0 minutes 32 seconds 727 msec
