                         Program Version 4.2.1 -  RELEASE  -
|  1> ! wB97X-D3 SP def2-SVP
|  2> %pal
|  3> nprocs 16
|  4> end
|  5>
|  6> * xyz 0 1
|  7> S 	 5.87376 	 24.1846 	 68.0202
|  8> C 	 6.2241 	 23.0898 	 66.6853
|  9> C 	 7.5196 	 22.6131 	 66.7121
| 10> C 	 8.20572 	 23.1101 	 67.9047
| 11> C 	 7.48912 	 24.0752 	 68.5991
| 12> H 	 9.21719 	 22.8275 	 68.1937
| 13> C 	 8.11289 	 21.5777 	 65.8302
| 14> H 	 9.16115 	 21.7749 	 65.7739
| 15> H 	 7.67226 	 21.6577 	 64.8091
| 16> C 	 8.00292 	 20.1407 	 66.2722
| 17> H 	 8.68026 	 19.4585 	 65.8316
| 18> H 	 8.44382 	 20.1705 	 67.2794
| 19> C 	 6.65743 	 19.4721 	 66.4128
| 20> H 	 6.73302 	 18.6444 	 67.1031
| 21> H 	 5.85911 	 20.1367 	 66.6856
| 22> H 	 6.27696 	 19.1511 	 65.4755
| 23> S 	 7.32532 	 23.9674 	 71.2564
| 24> C 	 8.12635 	 25.1564 	 72.3009
| 25> C 	 8.64317 	 26.1136 	 71.5042
| 26> C 	 8.59205 	 25.868 	 70.0738
| 27> C 	 7.81119 	 24.7764 	 69.787
| 28> H 	 9.15694 	 26.8775 	 72.0239
| 29> C 	 9.11773 	 26.9235 	 69.1188
| 30> H 	 9.15511 	 27.8879 	 69.6464
| 31> H 	 8.3826 	 26.9381 	 68.3142
| 32> C 	 10.4832 	 26.5255 	 68.5281
| 33> H 	 10.723 	 27.2676 	 67.7546
| 34> H 	 10.4026 	 25.5881 	 68.0831
| 35> C 	 11.5118 	 26.6095 	 69.6158
| 36> H 	 11.1953 	 27.4048 	 70.1786
| 37> H 	 12.4237 	 26.8051 	 69.1
| 38> H 	 11.455 	 25.7341 	 70.3274
| 39> H 	 5.53698 	 22.74 	 65.9256
| 40> H 	 8.21354 	 25.09 	 73.3299
| 41> *
| 42>
| 43>                          ****END OF INPUT****

CARTESIAN COORDINATES (ANGSTROEM)
---------------------------------
  S      5.873760   24.184600   68.020200
  C      6.224100   23.089800   66.685300
  C      7.519600   22.613100   66.712100
  C      8.205720   23.110100   67.904700
  C      7.489120   24.075200   68.599100
  H      9.217190   22.827500   68.193700
  C      8.112890   21.577700   65.830200
  H      9.161150   21.774900   65.773900
  H      7.672260   21.657700   64.809100
  C      8.002920   20.140700   66.272200
  H      8.680260   19.458500   65.831600
  H      8.443820   20.170500   67.279400
  C      6.657430   19.472100   66.412800
  H      6.733020   18.644400   67.103100
  H      5.859110   20.136700   66.685600
  H      6.276960   19.151100   65.475500
  S      7.325320   23.967400   71.256400
  C      8.126350   25.156400   72.300900
  C      8.643170   26.113600   71.504200
  C      8.592050   25.868000   70.073800
  C      7.811190   24.776400   69.787000
  H      9.156940   26.877500   72.023900
  C      9.117730   26.923500   69.118800
  H      9.155110   27.887900   69.646400
  H      8.382600   26.938100   68.314200
  C     10.483200   26.525500   68.528100
  H     10.723000   27.267600   67.754600
  H     10.402600   25.588100   68.083100
  C     11.511800   26.609500   69.615800
  H     11.195300   27.404800   70.178600
  H     12.423700   26.805100   69.100000
  H     11.455000   25.734100   70.327400
  H      5.536980   22.740000   65.925600
  H      8.213540   25.090000   73.329900

 Total Charge           Charge          ....    0
 Multiplicity           Mult            ....    1
 Number of Electrons    NEL             ....  134
 Basis Dimension        Dim             ....  322

ORBITAL ENERGIES
----------------

  NO   OCC          E(Eh)            E(eV)
   0   2.0000     -88.967220     -2420.9211
   1   2.0000     -88.957837     -2420.6658
   2   2.0000     -10.325681      -280.9761
   3   2.0000     -10.321449      -280.8609
   4   2.0000     -10.315391      -280.6961
   5   2.0000     -10.311730      -280.5964
   6   2.0000     -10.303552      -280.3739
   7   2.0000     -10.302712      -280.3511
   8   2.0000     -10.299662      -280.2681
   9   2.0000     -10.291595      -280.0485
  10   2.0000     -10.288383      -279.9611
  11   2.0000     -10.287982      -279.9502
  12   2.0000     -10.279442      -279.7178
  13   2.0000     -10.274726      -279.5895
  14   2.0000     -10.267947      -279.4050
  15   2.0000     -10.265889      -279.3491
  16   2.0000      -8.082298      -219.9305
  17   2.0000      -8.072889      -219.6745
  18   2.0000      -6.040827      -164.3793
  19   2.0000      -6.036719      -164.2675
  20   2.0000      -6.033038      -164.1673
  21   2.0000      -6.031556      -164.1270
  22   2.0000      -6.027228      -164.0092
  23   2.0000      -6.023558      -163.9094
  24   2.0000      -1.011274       -27.5182
  25   2.0000      -0.984350       -26.7855
  26   2.0000      -0.921198       -25.0671
  27   2.0000      -0.916365       -24.9356
  28   2.0000      -0.877163       -23.8688
  29   2.0000      -0.849425       -23.1140
  30   2.0000      -0.845855       -23.0169
  31   2.0000      -0.816990       -22.2314
  32   2.0000      -0.790727       -21.5168
  33   2.0000      -0.773922       -21.0595
  34   2.0000      -0.717011       -19.5109
  35   2.0000      -0.702091       -19.1049
  36   2.0000      -0.692148       -18.8343
  37   2.0000      -0.666190       -18.1279
  38   2.0000      -0.641875       -17.4663
  39   2.0000      -0.619512       -16.8578
  40   2.0000      -0.592642       -16.1266
  41   2.0000      -0.571564       -15.5530
  42   2.0000      -0.559935       -15.2366
  43   2.0000      -0.557700       -15.1758
  44   2.0000      -0.556103       -15.1323
  45   2.0000      -0.545962       -14.8564
  46   2.0000      -0.525953       -14.3119
  47   2.0000      -0.518498       -14.1090
  48   2.0000      -0.507713       -13.8156
  49   2.0000      -0.493240       -13.4218
  50   2.0000      -0.487352       -13.2615
  51   2.0000      -0.485361       -13.2073
  52   2.0000      -0.474047       -12.8995
  53   2.0000      -0.467491       -12.7211
  54   2.0000      -0.458815       -12.4850
  55   2.0000      -0.447121       -12.1668
  56   2.0000      -0.441980       -12.0269
  57   2.0000      -0.436502       -11.8778
  58   2.0000      -0.430203       -11.7064
  59   2.0000      -0.427396       -11.6300
  60   2.0000      -0.422725       -11.5029
  61   2.0000      -0.411336       -11.1930
  62   2.0000      -0.403739       -10.9863
  63   2.0000      -0.338004        -9.1976
  64   2.0000      -0.328473        -8.9382
  65   2.0000      -0.319797        -8.7021
  66   2.0000      -0.312375        -8.5002
  67   0.0000       0.045608         1.2411
  68   0.0000       0.053502         1.4559
  69   0.0000       0.116946         3.1823
  70   0.0000       0.117085         3.1860
  71   0.0000       0.123421         3.3584

MULLIKEN ATOMIC CHARGES
-----------------------
   0 S :    0.121873
   1 C :   -0.106533
   2 C :   -0.107795
   3 C :    0.050891
   4 C :   -0.182151
   5 H :    0.016691
   6 C :    0.089805
   7 H :    0.017514
   8 H :    0.025997
   9 C :   -0.062817
  10 H :    0.018311
  11 H :    0.007235
  12 C :   -0.009336
  13 H :    0.036485
  14 H :    0.016440
  15 H :    0.008581
  16 S :    0.094951
  17 C :   -0.066947
  18 C :   -0.027219
  19 C :   -0.013273
  20 C :   -0.173537
  21 H :    0.003323
  22 C :    0.042643
  23 H :    0.033181
  24 H :    0.029893
  25 C :   -0.058419
  26 H :    0.027093
  27 H :    0.015326
  28 C :    0.003186
  29 H :   -0.009561
  30 H :    0.032701
  31 H :    0.050015
  32 H :    0.043191
  33 H :    0.032262
Sum of atomic charges:    0.0000000

LOEWDIN ATOMIC CHARGES
----------------------
   0 S :    0.421783
   1 C :   -0.192818
   2 C :   -0.062093
   3 C :   -0.052854
   4 C :   -0.214246
   5 H :    0.030457
   6 C :   -0.032529
   7 H :    0.032560
   8 H :    0.032142
   9 C :   -0.044643
  10 H :    0.021231
  11 H :    0.025433
  12 C :   -0.060710
  13 H :    0.030476
  14 H :    0.023211
  15 H :    0.017464
  16 S :    0.392769
  17 C :   -0.160295
  18 C :   -0.072207
  19 C :   -0.050371
  20 C :   -0.209787
  21 H :    0.023427
  22 C :   -0.026724
  23 H :    0.030639
  24 H :    0.031300
  25 C :   -0.030208
  26 H :    0.024886
  27 H :    0.013256
  28 C :   -0.057819
  29 H :    0.008939
  30 H :    0.025696
  31 H :    0.036338
  32 H :    0.027205
  33 H :    0.018095

  Mayer bond orders larger than 0.100000
B(  0-S ,  1-C ) :   1.1347 B(  0-S ,  4-C ) :   1.1591 B(  1-C ,  2-C ) :   1.6262
B(  1-C , 32-H ) :   0.9636 B(  2-C ,  3-C ) :   1.2152 B(  2-C ,  6-C ) :   1.0460
B(  3-C ,  4-C ) :   1.5966 B(  3-C ,  5-H ) :   0.9907 B(  4-C , 20-C ) :   1.0032
B(  6-C ,  7-H ) :   0.9246 B(  6-C ,  8-H ) :   0.9376 B(  6-C ,  9-C ) :   1.0806
B(  9-C , 10-H ) :   0.9518 B(  9-C , 11-H ) :   0.9479 B(  9-C , 12-C ) :   1.0832
B( 12-C , 13-H ) :   0.9726 B( 12-C , 14-H ) :   0.9716 B( 12-C , 15-H ) :   0.9704
B( 16-S , 17-C ) :   1.1353 B( 16-S , 20-C ) :   1.1444 B( 17-C , 18-C ) :   1.6459
B( 17-C , 33-H ) :   0.9783 B( 18-C , 19-C ) :   1.1933 B( 18-C , 21-H ) :   0.9918
B( 19-C , 20-C ) :   1.6364 B( 19-C , 22-C ) :   1.0267 B( 22-C , 23-H ) :   0.9473
B( 22-C , 24-H ) :   0.9340 B( 22-C , 25-C ) :   1.0819 B( 25-C , 26-H ) :   0.9559
B( 25-C , 27-H ) :   0.9537 B( 25-C , 28-C ) :   1.0725 B( 28-C , 29-H ) :   0.9736
B( 28-C , 30-H ) :   0.9724 B( 28-C , 31-H ) :   0.9685

Dispersion correction           -0.014901178
FINAL SINGLE POINT ENERGY     -1339.864341566515

DIPOLE MOMENT
-------------
                                X             Y             Z
Electronic contribution:    -14.78541       5.40225      11.29845
Nuclear contribution   :     15.27113      -5.46167     -11.48565
                        -----------------------------------------
Total Dipole Moment    :      0.48572      -0.05942      -0.18720
                        -----------------------------------------
Magnitude (a.u.)       :      0.52393
Magnitude (Debye)      :      1.33172

Rotational constants in cm-1:     0.022004     0.008046     0.007136
Rotational constants in MHz :   659.675556   241.212389   213.919573

                             ****ORCA TERMINATED NORMALLY****
TOTAL RUN TIME: 0 days 0 hours 0 minutes 36 seconds 588 msec
