                         Program Version 4.2.1 -  RELEASE  -
|  1> ! wB97X-D3 SP def2-SVP
|  2> %pal
|  3> nprocs 16
|  4> end
|  5>
|  6> * xyz 0 1
|  7> S 	 5.001 	 7.69593 	 81.5126
|  8> C 	 6.23968 	 6.66062 	 80.884
|  9> C 	 7.22169 	 6.44337 	 81.8359
| 10> C 	 6.9945 	 7.1345 	 83.0565
| 11> C 	 5.83313 	 7.84035 	 83.1258
| 12> H 	 7.72871 	 7.25855 	 83.886
| 13> C 	 8.52892 	 5.78475 	 81.5757
| 14> H 	 9.11736 	 5.50904 	 82.4509
| 15> H 	 9.23391 	 6.52695 	 81.1259
| 16> C 	 8.45657 	 4.68441 	 80.5114
| 17> H 	 7.66262 	 4.02762 	 80.8169
| 18> H 	 8.10503 	 5.19275 	 79.6175
| 19> C 	 9.8326 	 4.01321 	 80.3479
| 20> H 	 10.4243 	 4.54887 	 79.6073
| 21> H 	 10.4567 	 3.87414 	 81.2016
| 22> H 	 9.75688 	 3.06359 	 79.8877
| 23> S 	 4.93736 	 10.3717 	 83.8457
| 24> C 	 4.896 	 10.8536 	 85.4758
| 25> C 	 5.05816 	 9.69594 	 86.2947
| 26> C 	 5.19183 	 8.469 	 85.5334
| 27> C 	 5.41861 	 8.73248 	 84.1975
| 28> H 	 5.31728 	 9.7723 	 87.3525
| 29> C 	 5.1253 	 6.99661 	 86.1101
| 30> H 	 5.90012 	 6.4234 	 85.6062
| 31> H 	 4.14032 	 6.54072 	 86.0292
| 32> C 	 5.49259 	 6.95333 	 87.6002
| 33> H 	 5.3071 	 5.96884 	 88.0219
| 34> H 	 4.92862 	 7.62964 	 88.266
| 35> C 	 6.96379 	 7.19253 	 87.7605
| 36> H 	 7.44463 	 6.391 	 87.1409
| 37> H 	 7.33019 	 7.10372 	 88.7723
| 38> H 	 7.24679 	 8.16751 	 87.3937
| 39> H 	 6.21389 	 6.13155 	 79.897
| 40> H 	 4.85788 	 11.8613 	 85.7994
| 41> *
| 42>
| 43>                          ****END OF INPUT****

CARTESIAN COORDINATES (ANGSTROEM)
---------------------------------
  S      5.001000    7.695930   81.512600
  C      6.239680    6.660620   80.884000
  C      7.221690    6.443370   81.835900
  C      6.994500    7.134500   83.056500
  C      5.833130    7.840350   83.125800
  H      7.728710    7.258550   83.886000
  C      8.528920    5.784750   81.575700
  H      9.117360    5.509040   82.450900
  H      9.233910    6.526950   81.125900
  C      8.456570    4.684410   80.511400
  H      7.662620    4.027620   80.816900
  H      8.105030    5.192750   79.617500
  C      9.832600    4.013210   80.347900
  H     10.424300    4.548870   79.607300
  H     10.456700    3.874140   81.201600
  H      9.756880    3.063590   79.887700
  S      4.937360   10.371700   83.845700
  C      4.896000   10.853600   85.475800
  C      5.058160    9.695940   86.294700
  C      5.191830    8.469000   85.533400
  C      5.418610    8.732480   84.197500
  H      5.317280    9.772300   87.352500
  C      5.125300    6.996610   86.110100
  H      5.900120    6.423400   85.606200
  H      4.140320    6.540720   86.029200
  C      5.492590    6.953330   87.600200
  H      5.307100    5.968840   88.021900
  H      4.928620    7.629640   88.266000
  C      6.963790    7.192530   87.760500
  H      7.444630    6.391000   87.140900
  H      7.330190    7.103720   88.772300
  H      7.246790    8.167510   87.393700
  H      6.213890    6.131550   79.897000
  H      4.857880   11.861300   85.799400

 Total Charge           Charge          ....    0
 Multiplicity           Mult            ....    1
 Number of Electrons    NEL             ....  134
 Basis Dimension        Dim             ....  322

ORBITAL ENERGIES
----------------

  NO   OCC          E(Eh)            E(eV)
   0   2.0000     -88.965445     -2420.8728
   1   2.0000     -88.965205     -2420.8663
   2   2.0000     -10.332875      -281.1718
   3   2.0000     -10.326647      -281.0023
   4   2.0000     -10.319436      -280.8061
   5   2.0000     -10.317660      -280.7578
   6   2.0000     -10.310293      -280.5573
   7   2.0000     -10.301657      -280.3223
   8   2.0000     -10.298560      -280.2381
   9   2.0000     -10.296771      -280.1894
  10   2.0000     -10.295125      -280.1446
  11   2.0000     -10.288661      -279.9687
  12   2.0000     -10.286383      -279.9067
  13   2.0000     -10.282293      -279.7954
  14   2.0000     -10.274800      -279.5915
  15   2.0000     -10.273627      -279.5596
  16   2.0000      -8.080973      -219.8945
  17   2.0000      -8.079395      -219.8515
  18   2.0000      -6.039397      -164.3403
  19   2.0000      -6.038087      -164.3047
  20   2.0000      -6.035210      -164.2264
  21   2.0000      -6.033974      -164.1928
  22   2.0000      -6.031870      -164.1355
  23   2.0000      -6.030035      -164.0856
  24   2.0000      -1.007547       -27.4167
  25   2.0000      -0.986025       -26.8311
  26   2.0000      -0.914343       -24.8805
  27   2.0000      -0.913637       -24.8613
  28   2.0000      -0.871424       -23.7126
  29   2.0000      -0.850289       -23.1375
  30   2.0000      -0.843169       -22.9438
  31   2.0000      -0.814371       -22.1602
  32   2.0000      -0.782440       -21.2913
  33   2.0000      -0.770164       -20.9572
  34   2.0000      -0.717144       -19.5145
  35   2.0000      -0.698290       -19.0014
  36   2.0000      -0.694345       -18.8941
  37   2.0000      -0.655755       -17.8440
  38   2.0000      -0.639069       -17.3900
  39   2.0000      -0.614126       -16.7112
  40   2.0000      -0.601721       -16.3737
  41   2.0000      -0.573125       -15.5955
  42   2.0000      -0.566156       -15.4059
  43   2.0000      -0.562166       -15.2973
  44   2.0000      -0.538577       -14.6554
  45   2.0000      -0.523758       -14.2522
  46   2.0000      -0.519309       -14.1311
  47   2.0000      -0.514766       -14.0075
  48   2.0000      -0.511905       -13.9296
  49   2.0000      -0.495128       -13.4731
  50   2.0000      -0.486959       -13.2508
  51   2.0000      -0.481470       -13.1015
  52   2.0000      -0.481182       -13.0936
  53   2.0000      -0.462219       -12.5776
  54   2.0000      -0.455545       -12.3960
  55   2.0000      -0.454065       -12.3557
  56   2.0000      -0.440607       -11.9895
  57   2.0000      -0.435218       -11.8429
  58   2.0000      -0.430534       -11.7154
  59   2.0000      -0.425184       -11.5698
  60   2.0000      -0.420059       -11.4304
  61   2.0000      -0.419530       -11.4160
  62   2.0000      -0.411223       -11.1900
  63   2.0000      -0.352510        -9.5923
  64   2.0000      -0.327396        -8.9089
  65   2.0000      -0.324460        -8.8290
  66   2.0000      -0.291168        -7.9231
  67   0.0000       0.028352         0.7715
  68   0.0000       0.060748         1.6530
  69   0.0000       0.112653         3.0654
  70   0.0000       0.115644         3.1468
  71   0.0000       0.129362         3.5201

MULLIKEN ATOMIC CHARGES
-----------------------
   0 S :    0.101517
   1 C :   -0.151576
   2 C :   -0.055214
   3 C :    0.015346
   4 C :   -0.146754
   5 H :    0.034009
   6 C :    0.017674
   7 H :    0.018174
   8 H :    0.040699
   9 C :   -0.093814
  10 H :    0.031666
  11 H :    0.032389
  12 C :   -0.006076
  13 H :    0.024351
  14 H :    0.029163
  15 H :    0.018446
  16 S :    0.118417
  17 C :   -0.082482
  18 C :   -0.055780
  19 C :   -0.076570
  20 C :   -0.158744
  21 H :    0.037713
  22 C :    0.117013
  23 H :    0.020002
  24 H :    0.054250
  25 C :   -0.100304
  26 H :    0.022500
  27 H :    0.029340
  28 C :   -0.056115
  29 H :    0.025598
  30 H :    0.031374
  31 H :    0.030598
  32 H :    0.077306
  33 H :    0.055883
Sum of atomic charges:    0.0000000

LOEWDIN ATOMIC CHARGES
----------------------
   0 S :    0.380326
   1 C :   -0.210706
   2 C :   -0.071773
   3 C :   -0.062958
   4 C :   -0.170877
   5 H :    0.041181
   6 C :   -0.040028
   7 H :    0.025252
   8 H :    0.039811
   9 C :   -0.036701
  10 H :    0.019665
  11 H :    0.023577
  12 C :   -0.062905
  13 H :    0.029506
  14 H :    0.023398
  15 H :    0.023657
  16 S :    0.432050
  17 C :   -0.195159
  18 C :   -0.079293
  19 C :   -0.051776
  20 C :   -0.204084
  21 H :    0.031548
  22 C :   -0.016196
  23 H :    0.029657
  24 H :    0.037551
  25 C :   -0.050977
  26 H :    0.023957
  27 H :    0.020621
  28 C :   -0.064914
  29 H :    0.027889
  30 H :    0.022398
  31 H :    0.018901
  32 H :    0.041788
  33 H :    0.025615

  Mayer bond orders larger than 0.100000
B(  0-S ,  1-C ) :   1.1341 B(  0-S ,  4-C ) :   1.1209 B(  1-C ,  2-C ) :   1.6015
B(  1-C , 32-H ) :   0.9557 B(  2-C ,  3-C ) :   1.2416 B(  2-C ,  6-C ) :   1.0326
B(  3-C ,  4-C ) :   1.6088 B(  3-C ,  5-H ) :   0.9809 B(  4-C , 20-C ) :   1.0539
B(  6-C ,  7-H ) :   0.9500 B(  6-C ,  8-H ) :   0.9320 B(  6-C ,  9-C ) :   1.0529
B(  9-C , 10-H ) :   0.9713 B(  9-C , 11-H ) :   0.9463 B(  9-C , 12-C ) :   1.0753
B( 12-C , 13-H ) :   0.9709 B( 12-C , 14-H ) :   0.9785 B( 12-C , 15-H ) :   0.9704
B( 16-S , 17-C ) :   1.1833 B( 16-S , 20-C ) :   1.1445 B( 17-C , 18-C ) :   1.5666
B( 17-C , 20-C ) :   0.1030 B( 17-C , 33-H ) :   0.9756 B( 18-C , 19-C ) :   1.2494
B( 18-C , 21-H ) :   0.9800 B( 19-C , 20-C ) :   1.5861 B( 19-C , 22-C ) :   1.0110
B( 22-C , 23-H ) :   0.9370 B( 22-C , 24-H ) :   0.9389 B( 22-C , 25-C ) :   1.0785
B( 25-C , 26-H ) :   0.9527 B( 25-C , 27-H ) :   0.9486 B( 25-C , 28-C ) :   1.0786
B( 28-C , 29-H ) :   0.9716 B( 28-C , 30-H ) :   0.9738 B( 28-C , 31-H ) :   0.9752

Dispersion correction           -0.013867035
FINAL SINGLE POINT ENERGY     -1339.869205984365

DIPOLE MOMENT
-------------
                                X             Y             Z
Electronic contribution:    -18.26563      20.03605      -7.60372
Nuclear contribution   :     18.81675     -20.38217       7.89269
                        -----------------------------------------
Total Dipole Moment    :      0.55112      -0.34612       0.28897
                        -----------------------------------------
Magnitude (a.u.)       :      0.71207
Magnitude (Debye)      :      1.80993

Rotational constants in cm-1:     0.020566     0.007678     0.006105
Rotational constants in MHz :   616.549074   230.176585   183.009968

                             ****ORCA TERMINATED NORMALLY****
TOTAL RUN TIME: 0 days 0 hours 0 minutes 33 seconds 439 msec
