                         Program Version 4.2.1 -  RELEASE  -
|  1> ! wB97X-D3 SP def2-SVP
|  2> %pal
|  3> nprocs 16
|  4> end
|  5>
|  6> * xyz 0 1
|  7> S 	 -34.1182 	 35.2828 	 41.978
|  8> C 	 -34.0059 	 34.7808 	 43.6787
|  9> C 	 -32.7186 	 35.0795 	 44.1969
| 10> C 	 -31.8173 	 35.6137 	 43.273
| 11> C 	 -32.3724 	 35.5835 	 41.9711
| 12> H 	 -30.8255 	 36.0782 	 43.4855
| 13> C 	 -32.4369 	 35.1233 	 45.7116
| 14> H 	 -33.3084 	 35.5283 	 46.1388
| 15> H 	 -31.5983 	 35.8204 	 45.8203
| 16> C 	 -32.1634 	 33.8209 	 46.4749
| 17> H 	 -31.0892 	 33.6723 	 46.3609
| 18> H 	 -32.2916 	 34.0433 	 47.5373
| 19> C 	 -32.9723 	 32.5439 	 46.0099
| 20> H 	 -32.8839 	 32.4515 	 44.9424
| 21> H 	 -32.6799 	 31.5986 	 46.569
| 22> H 	 -34.0505 	 32.6936 	 46.04
| 23> S 	 -32.6793 	 36.1974 	 39.3117
| 24> C 	 -31.3248 	 36.399 	 38.3105
| 25> C 	 -30.1667 	 36.018 	 38.9256
| 26> C 	 -30.3041 	 35.8995 	 40.3244
| 27> C 	 -31.6391 	 35.8888 	 40.6906
| 28> H 	 -29.202 	 36.0086 	 38.3478
| 29> C 	 -29.1675 	 35.3628 	 41.202
| 30> H 	 -28.7164 	 34.5638 	 40.6702
| 31> H 	 -29.5148 	 34.78 	 42.1642
| 32> C 	 -28.1049 	 36.4003 	 41.616
| 33> H 	 -27.8817 	 37.0258 	 40.8186
| 34> H 	 -27.1455 	 35.908 	 41.6751
| 35> C 	 -28.3643 	 37.2529 	 42.9012
| 36> H 	 -29.425 	 37.6525 	 42.8353
| 37> H 	 -27.636 	 38.0708 	 43.0445
| 38> H 	 -28.463 	 36.6371 	 43.8205
| 39> H 	 -34.7298 	 34.2904 	 44.2394
| 40> H 	 -31.3434 	 36.8145 	 37.3267
| 41> *
| 42>
| 43>                          ****END OF INPUT****

CARTESIAN COORDINATES (ANGSTROEM)
---------------------------------
  S    -34.118200   35.282800   41.978000
  C    -34.005900   34.780800   43.678700
  C    -32.718600   35.079500   44.196900
  C    -31.817300   35.613700   43.273000
  C    -32.372400   35.583500   41.971100
  H    -30.825500   36.078200   43.485500
  C    -32.436900   35.123300   45.711600
  H    -33.308400   35.528300   46.138800
  H    -31.598300   35.820400   45.820300
  C    -32.163400   33.820900   46.474900
  H    -31.089200   33.672300   46.360900
  H    -32.291600   34.043300   47.537300
  C    -32.972300   32.543900   46.009900
  H    -32.883900   32.451500   44.942400
  H    -32.679900   31.598600   46.569000
  H    -34.050500   32.693600   46.040000
  S    -32.679300   36.197400   39.311700
  C    -31.324800   36.399000   38.310500
  C    -30.166700   36.018000   38.925600
  C    -30.304100   35.899500   40.324400
  C    -31.639100   35.888800   40.690600
  H    -29.202000   36.008600   38.347800
  C    -29.167500   35.362800   41.202000
  H    -28.716400   34.563800   40.670200
  H    -29.514800   34.780000   42.164200
  C    -28.104900   36.400300   41.616000
  H    -27.881700   37.025800   40.818600
  H    -27.145500   35.908000   41.675100
  C    -28.364300   37.252900   42.901200
  H    -29.425000   37.652500   42.835300
  H    -27.636000   38.070800   43.044500
  H    -28.463000   36.637100   43.820500
  H    -34.729800   34.290400   44.239400
  H    -31.343400   36.814500   37.326700

 Total Charge           Charge          ....    0
 Multiplicity           Mult            ....    1
 Number of Electrons    NEL             ....  134
 Basis Dimension        Dim             ....  322

ORBITAL ENERGIES
----------------

  NO   OCC          E(Eh)            E(eV)
   0   2.0000     -88.974094     -2421.1082
   1   2.0000     -88.965467     -2420.8734
   2   2.0000     -10.339921      -281.3636
   3   2.0000     -10.331516      -281.1349
   4   2.0000     -10.312809      -280.6258
   5   2.0000     -10.311912      -280.6014
   6   2.0000     -10.304660      -280.4041
   7   2.0000     -10.302419      -280.3431
   8   2.0000     -10.299380      -280.2604
   9   2.0000     -10.297699      -280.2146
  10   2.0000     -10.295426      -280.1528
  11   2.0000     -10.291270      -280.0397
  12   2.0000     -10.288731      -279.9706
  13   2.0000     -10.287716      -279.9430
  14   2.0000     -10.283560      -279.8299
  15   2.0000     -10.283423      -279.8262
  16   2.0000      -8.087481      -220.0715
  17   2.0000      -8.081566      -219.9106
  18   2.0000      -6.046087      -164.5224
  19   2.0000      -6.042345      -164.4206
  20   2.0000      -6.039941      -164.3552
  21   2.0000      -6.038087      -164.3047
  22   2.0000      -6.035992      -164.2477
  23   2.0000      -6.032292      -164.1470
  24   2.0000      -1.010711       -27.5028
  25   2.0000      -0.983723       -26.7685
  26   2.0000      -0.907196       -24.6861
  27   2.0000      -0.905370       -24.6364
  28   2.0000      -0.860370       -23.4119
  29   2.0000      -0.854005       -23.2386
  30   2.0000      -0.845142       -22.9975
  31   2.0000      -0.808728       -22.0066
  32   2.0000      -0.784469       -21.3465
  33   2.0000      -0.777427       -21.1549
  34   2.0000      -0.710504       -19.3338
  35   2.0000      -0.700266       -19.0552
  36   2.0000      -0.697474       -18.9792
  37   2.0000      -0.659079       -17.9344
  38   2.0000      -0.634214       -17.2578
  39   2.0000      -0.619930       -16.8691
  40   2.0000      -0.599838       -16.3224
  41   2.0000      -0.561200       -15.2710
  42   2.0000      -0.555615       -15.1190
  43   2.0000      -0.547862       -14.9081
  44   2.0000      -0.538078       -14.6418
  45   2.0000      -0.527419       -14.3518
  46   2.0000      -0.520241       -14.1565
  47   2.0000      -0.515313       -14.0224
  48   2.0000      -0.499860       -13.6019
  49   2.0000      -0.489101       -13.3091
  50   2.0000      -0.487947       -13.2777
  51   2.0000      -0.477901       -13.0043
  52   2.0000      -0.473349       -12.8805
  53   2.0000      -0.470495       -12.8028
  54   2.0000      -0.458254       -12.4697
  55   2.0000      -0.457312       -12.4441
  56   2.0000      -0.447791       -12.1850
  57   2.0000      -0.441690       -12.0190
  58   2.0000      -0.433171       -11.7872
  59   2.0000      -0.422652       -11.5009
  60   2.0000      -0.418908       -11.3991
  61   2.0000      -0.413616       -11.2551
  62   2.0000      -0.408288       -11.1101
  63   2.0000      -0.354561        -9.6481
  64   2.0000      -0.339929        -9.2499
  65   2.0000      -0.331525        -9.0213
  66   2.0000      -0.275857        -7.5065
  67   0.0000       0.013253         0.3606
  68   0.0000       0.072842         1.9821
  69   0.0000       0.092558         2.5186
  70   0.0000       0.110963         3.0194
  71   0.0000       0.138066         3.7570

MULLIKEN ATOMIC CHARGES
-----------------------
   0 S :    0.110475
   1 C :   -0.098005
   2 C :   -0.094309
   3 C :   -0.013841
   4 C :   -0.100063
   5 H :    0.008423
   6 C :    0.061709
   7 H :    0.022874
   8 H :    0.025925
   9 C :   -0.063714
  10 H :    0.024208
  11 H :    0.031879
  12 C :   -0.070460
  13 H :    0.039835
  14 H :    0.058053
  15 H :    0.020971
  16 S :    0.096590
  17 C :   -0.077297
  18 C :   -0.048259
  19 C :   -0.029977
  20 C :   -0.124510
  21 H :    0.038197
  22 C :   -0.018654
  23 H :    0.025249
  24 H :    0.049216
  25 C :   -0.018415
  26 H :    0.002915
  27 H :    0.013981
  28 C :   -0.086809
  29 H :    0.049491
  30 H :    0.051893
  31 H :    0.038840
  32 H :    0.022794
  33 H :    0.050796
Sum of atomic charges:    0.0000000

LOEWDIN ATOMIC CHARGES
----------------------
   0 S :    0.393173
   1 C :   -0.193009
   2 C :   -0.055904
   3 C :   -0.078751
   4 C :   -0.171775
   5 H :    0.038541
   6 C :   -0.026777
   7 H :    0.024202
   8 H :    0.032701
   9 C :   -0.040065
  10 H :    0.021793
  11 H :    0.024351
  12 C :   -0.074289
  13 H :    0.025006
  14 H :    0.038139
  15 H :    0.020535
  16 S :    0.416614
  17 C :   -0.194260
  18 C :   -0.076454
  19 C :   -0.066865
  20 C :   -0.184128
  21 H :    0.040577
  22 C :   -0.034106
  23 H :    0.029268
  24 H :    0.043257
  25 C :   -0.041790
  26 H :    0.014779
  27 H :    0.023410
  28 C :   -0.074496
  29 H :    0.031281
  30 H :    0.032541
  31 H :    0.023125
  32 H :    0.011826
  33 H :    0.027549

  Mayer bond orders larger than 0.100000
B(  0-S ,  1-C ) :   1.1256 B(  0-S ,  4-C ) :   1.1697 B(  1-C ,  2-C ) :   1.5654
B(  1-C ,  4-C ) :   0.1160 B(  1-C , 32-H ) :   0.9784 B(  2-C ,  3-C ) :   1.2869
B(  2-C ,  6-C ) :   1.0074 B(  3-C ,  4-C ) :   1.5222 B(  3-C ,  5-H ) :   0.9730
B(  4-C , 20-C ) :   1.0635 B(  6-C ,  7-H ) :   0.9433 B(  6-C ,  8-H ) :   0.9513
B(  6-C ,  9-C ) :   1.0650 B(  9-C , 10-H ) :   0.9587 B(  9-C , 11-H ) :   0.9580
B(  9-C , 12-C ) :   1.0758 B( 12-C , 13-H ) :   0.9664 B( 12-C , 14-H ) :   0.9742
B( 12-C , 15-H ) :   0.9737 B( 16-S , 17-C ) :   1.1667 B( 16-S , 20-C ) :   1.1413
B( 17-C , 18-C ) :   1.6053 B( 17-C , 33-H ) :   0.9704 B( 18-C , 19-C ) :   1.2597
B( 18-C , 21-H ) :   0.9759 B( 19-C , 20-C ) :   1.5784 B( 19-C , 22-C ) :   1.0183
B( 22-C , 23-H ) :   0.9432 B( 22-C , 24-H ) :   0.9486 B( 22-C , 25-C ) :   1.0600
B( 25-C , 26-H ) :   0.9545 B( 25-C , 27-H ) :   0.9498 B( 25-C , 28-C ) :   1.0751
B( 28-C , 29-H ) :   0.9658 B( 28-C , 30-H ) :   0.9699 B( 28-C , 31-H ) :   0.9701

Dispersion correction           -0.014801482
FINAL SINGLE POINT ENERGY     -1339.852059801449

DIPOLE MOMENT
-------------
                                X             Y             Z
Electronic contribution:    -17.30872       4.72109     -22.33839
Nuclear contribution   :     17.88707      -4.72071      22.52545
                        -----------------------------------------
Total Dipole Moment    :      0.57835       0.00038       0.18705
                        -----------------------------------------
Magnitude (a.u.)       :      0.60785
Magnitude (Debye)      :      1.54503

Rotational constants in cm-1:     0.019183     0.009163     0.006717
Rotational constants in MHz :   575.105637   274.685978   201.384347

                             ****ORCA TERMINATED NORMALLY****
TOTAL RUN TIME: 0 days 0 hours 0 minutes 35 seconds 98 msec
