                         Program Version 4.2.1 -  RELEASE  -
|  1> ! wB97X-D3 SP def2-SVP
|  2> %pal
|  3> nprocs 16
|  4> end
|  5>
|  6> * xyz 0 1
|  7> S 	 -10.8385 	 50.6972 	 29.8291
|  8> C 	 -9.82713 	 49.6261 	 28.9702
|  9> C 	 -8.56376 	 49.5658 	 29.4608
| 10> C 	 -8.4282 	 50.4468 	 30.6212
| 11> C 	 -9.63405 	 50.9596 	 31.0836
| 12> H 	 -7.55349 	 50.5961 	 31.1709
| 13> C 	 -7.38538 	 48.8468 	 28.8539
| 14> H 	 -7.7563 	 48.185 	 28.1647
| 15> H 	 -6.9488 	 48.1048 	 29.5284
| 16> C 	 -6.10535 	 49.6396 	 28.2898
| 17> H 	 -6.44903 	 50.4905 	 27.7123
| 18> H 	 -5.55628 	 50.1024 	 29.1598
| 19> C 	 -5.1482 	 48.9421 	 27.4488
| 20> H 	 -4.33926 	 49.5878 	 27.0426
| 21> H 	 -4.66053 	 48.1168 	 28.0076
| 22> H 	 -5.54898 	 48.5403 	 26.6422
| 23> S 	 -10.0282 	 53.5463 	 31.783
| 24> C 	 -9.68626 	 53.9365 	 33.4817
| 25> C 	 -9.52978 	 52.7971 	 34.2159
| 26> C 	 -9.51964 	 51.5654 	 33.494
| 27> C 	 -9.83029 	 51.8539 	 32.1761
| 28> H 	 -9.41498 	 53.0855 	 35.2897
| 29> C 	 -9.39022 	 50.2255 	 34.1806
| 30> H 	 -8.83785 	 50.3358 	 35.1344
| 31> H 	 -8.82337 	 49.6243 	 33.4507
| 32> C 	 -10.7116 	 49.4618 	 34.452
| 33> H 	 -10.6172 	 48.4516 	 34.8999
| 34> H 	 -11.1644 	 49.2821 	 33.4085
| 35> C 	 -11.6675 	 50.2777 	 35.3185
| 36> H 	 -12.5953 	 49.7526 	 35.5423
| 37> H 	 -12.1181 	 51.1252 	 34.9177
| 38> H 	 -11.2398 	 50.4408 	 36.2876
| 39> H 	 -9.99989 	 49.0828 	 28.094
| 40> H 	 -9.60449 	 54.9843 	 33.8944
| 41> *
| 42>
| 43>                          ****END OF INPUT****

CARTESIAN COORDINATES (ANGSTROEM)
---------------------------------
  S    -10.838500   50.697200   29.829100
  C     -9.827130   49.626100   28.970200
  C     -8.563760   49.565800   29.460800
  C     -8.428200   50.446800   30.621200
  C     -9.634050   50.959600   31.083600
  H     -7.553490   50.596100   31.170900
  C     -7.385380   48.846800   28.853900
  H     -7.756300   48.185000   28.164700
  H     -6.948800   48.104800   29.528400
  C     -6.105350   49.639600   28.289800
  H     -6.449030   50.490500   27.712300
  H     -5.556280   50.102400   29.159800
  C     -5.148200   48.942100   27.448800
  H     -4.339260   49.587800   27.042600
  H     -4.660530   48.116800   28.007600
  H     -5.548980   48.540300   26.642200
  S    -10.028200   53.546300   31.783000
  C     -9.686260   53.936500   33.481700
  C     -9.529780   52.797100   34.215900
  C     -9.519640   51.565400   33.494000
  C     -9.830290   51.853900   32.176100
  H     -9.414980   53.085500   35.289700
  C     -9.390220   50.225500   34.180600
  H     -8.837850   50.335800   35.134400
  H     -8.823370   49.624300   33.450700
  C    -10.711600   49.461800   34.452000
  H    -10.617200   48.451600   34.899900
  H    -11.164400   49.282100   33.408500
  C    -11.667500   50.277700   35.318500
  H    -12.595300   49.752600   35.542300
  H    -12.118100   51.125200   34.917700
  H    -11.239800   50.440800   36.287600
  H     -9.999890   49.082800   28.094000
  H     -9.604490   54.984300   33.894400

 Total Charge           Charge          ....    0
 Multiplicity           Mult            ....    1
 Number of Electrons    NEL             ....  134
 Basis Dimension        Dim             ....  322

ORBITAL ENERGIES
----------------

  NO   OCC          E(Eh)            E(eV)
   0   2.0000     -88.965636     -2420.8780
   1   2.0000     -88.962871     -2420.8028
   2   2.0000     -10.324198      -280.9357
   3   2.0000     -10.323289      -280.9110
   4   2.0000     -10.319629      -280.8114
   5   2.0000     -10.306616      -280.4573
   6   2.0000     -10.304857      -280.4094
   7   2.0000     -10.298743      -280.2430
   8   2.0000     -10.296003      -280.1685
   9   2.0000     -10.293913      -280.1116
  10   2.0000     -10.293260      -280.0938
  11   2.0000     -10.289981      -280.0046
  12   2.0000     -10.289663      -279.9960
  13   2.0000     -10.288920      -279.9757
  14   2.0000     -10.268542      -279.4212
  15   2.0000     -10.264288      -279.3055
  16   2.0000      -8.080305      -219.8763
  17   2.0000      -8.078382      -219.8240
  18   2.0000      -6.038815      -164.3245
  19   2.0000      -6.036875      -164.2717
  20   2.0000      -6.034948      -164.2193
  21   2.0000      -6.032822      -164.1614
  22   2.0000      -6.030922      -164.1097
  23   2.0000      -6.029077      -164.0595
  24   2.0000      -1.010008       -27.4837
  25   2.0000      -0.985363       -26.8131
  26   2.0000      -0.910362       -24.7722
  27   2.0000      -0.905840       -24.6491
  28   2.0000      -0.878475       -23.9045
  29   2.0000      -0.853980       -23.2380
  30   2.0000      -0.847291       -23.0560
  31   2.0000      -0.816482       -22.2176
  32   2.0000      -0.787255       -21.4223
  33   2.0000      -0.776207       -21.1217
  34   2.0000      -0.714567       -19.4444
  35   2.0000      -0.700645       -19.0655
  36   2.0000      -0.688717       -18.7409
  37   2.0000      -0.656060       -17.8523
  38   2.0000      -0.643297       -17.5050
  39   2.0000      -0.618606       -16.8331
  40   2.0000      -0.585336       -15.9278
  41   2.0000      -0.572860       -15.5883
  42   2.0000      -0.562845       -15.3158
  43   2.0000      -0.555695       -15.1212
  44   2.0000      -0.542111       -14.7516
  45   2.0000      -0.525159       -14.2903
  46   2.0000      -0.516538       -14.0557
  47   2.0000      -0.514577       -14.0024
  48   2.0000      -0.504573       -13.7301
  49   2.0000      -0.501458       -13.6454
  50   2.0000      -0.486108       -13.2277
  51   2.0000      -0.479799       -13.0560
  52   2.0000      -0.477315       -12.9884
  53   2.0000      -0.469362       -12.7720
  54   2.0000      -0.458242       -12.4694
  55   2.0000      -0.449511       -12.2318
  56   2.0000      -0.435179       -11.8418
  57   2.0000      -0.430223       -11.7070
  58   2.0000      -0.427336       -11.6284
  59   2.0000      -0.425235       -11.5712
  60   2.0000      -0.420890       -11.4530
  61   2.0000      -0.414847       -11.2886
  62   2.0000      -0.412337       -11.2203
  63   2.0000      -0.344630        -9.3779
  64   2.0000      -0.330210        -8.9855
  65   2.0000      -0.323610        -8.8059
  66   2.0000      -0.297461        -8.0943
  67   0.0000       0.036444         0.9917
  68   0.0000       0.062213         1.6929
  69   0.0000       0.112309         3.0561
  70   0.0000       0.122435         3.3316
  71   0.0000       0.129262         3.5174

MULLIKEN ATOMIC CHARGES
-----------------------
   0 S :    0.106808
   1 C :   -0.060201
   2 C :   -0.112395
   3 C :    0.069211
   4 C :   -0.190537
   5 H :   -0.006704
   6 C :    0.108771
   7 H :   -0.024854
   8 H :    0.021299
   9 C :   -0.082300
  10 H :    0.026302
  11 H :    0.033258
  12 C :   -0.001576
  13 H :    0.038051
  14 H :    0.022684
  15 H :   -0.006537
  16 S :    0.113156
  17 C :   -0.137497
  18 C :   -0.043837
  19 C :   -0.030982
  20 C :   -0.146508
  21 H :    0.032027
  22 C :    0.090455
  23 H :    0.031061
  24 H :    0.031608
  25 C :   -0.090585
  26 H :    0.041799
  27 H :    0.040533
  28 C :   -0.021023
  29 H :    0.014132
  30 H :    0.027445
  31 H :    0.017560
  32 H :    0.014056
  33 H :    0.075320
Sum of atomic charges:   -0.0000000

LOEWDIN ATOMIC CHARGES
----------------------
   0 S :    0.410774
   1 C :   -0.197815
   2 C :   -0.063762
   3 C :   -0.043193
   4 C :   -0.198146
   5 H :    0.019014
   6 C :   -0.032480
   7 H :    0.014560
   8 H :    0.033578
   9 C :   -0.040459
  10 H :    0.022876
  11 H :    0.028272
  12 C :   -0.058984
  13 H :    0.038602
  14 H :    0.027408
  15 H :    0.003361
  16 S :    0.394771
  17 C :   -0.189122
  18 C :   -0.078704
  19 C :   -0.049401
  20 C :   -0.201854
  21 H :    0.041422
  22 C :   -0.032984
  23 H :    0.032317
  24 H :    0.035502
  25 C :   -0.041063
  26 H :    0.029675
  27 H :    0.032821
  28 C :   -0.069734
  29 H :    0.028623
  30 H :    0.020146
  31 H :    0.020921
  32 H :    0.020813
  33 H :    0.042246

  Mayer bond orders larger than 0.100000
B(  0-S ,  1-C ) :   1.1373 B(  0-S ,  4-C ) :   1.1289 B(  1-C ,  2-C ) :   1.6412
B(  1-C , 32-H ) :   0.9627 B(  2-C ,  3-C ) :   1.2132 B(  2-C ,  6-C ) :   1.0463
B(  3-C ,  4-C ) :   1.5909 B(  3-C ,  5-H ) :   1.0018 B(  4-C , 20-C ) :   1.0294
B(  6-C ,  7-H ) :   0.9284 B(  6-C ,  8-H ) :   0.9287 B(  6-C ,  9-C ) :   1.0388
B(  9-C , 10-H ) :   0.9563 B(  9-C , 11-H ) :   0.9523 B(  9-C , 12-C ) :   1.1068
B( 12-C , 13-H ) :   0.9658 B( 12-C , 14-H ) :   0.9698 B( 12-C , 15-H ) :   0.9683
B( 16-S , 17-C ) :   1.1297 B( 16-S , 20-C ) :   1.1509 B( 17-C , 18-C ) :   1.6614
B( 17-C , 33-H ) :   0.9585 B( 18-C , 19-C ) :   1.1925 B( 18-C , 21-H ) :   0.9815
B( 19-C , 20-C ) :   1.6005 B( 19-C , 22-C ) :   1.0449 B( 22-C , 23-H ) :   0.9371
B( 22-C , 24-H ) :   0.9196 B( 22-C , 25-C ) :   1.0718 B( 25-C , 26-H ) :   0.9577
B( 25-C , 27-H ) :   0.9535 B( 25-C , 28-C ) :   1.0801 B( 28-C , 29-H ) :   0.9670
B( 28-C , 30-H ) :   0.9717 B( 28-C , 31-H ) :   0.9735

Dispersion correction           -0.014402355
FINAL SINGLE POINT ENERGY     -1339.847901774186

DIPOLE MOMENT
-------------
                                X             Y             Z
Electronic contribution:    -12.95825      15.69653      -3.17206
Nuclear contribution   :     13.43271     -15.93707       3.35839
                        -----------------------------------------
Total Dipole Moment    :      0.47445      -0.24054       0.18634
                        -----------------------------------------
Magnitude (a.u.)       :      0.56364
Magnitude (Debye)      :      1.43265

Rotational constants in cm-1:     0.021199     0.007346     0.006938
Rotational constants in MHz :   635.541471   220.237860   207.991239

                             ****ORCA TERMINATED NORMALLY****
TOTAL RUN TIME: 0 days 0 hours 0 minutes 33 seconds 794 msec
