                         Program Version 4.2.1 -  RELEASE  -
|  1> ! wB97X-D3 SP def2-SVP
|  2> %pal
|  3> nprocs 16
|  4> end
|  5>
|  6> * xyz 0 1
|  7> S 	 -5.53952 	 15.7645 	 82.5232
|  8> C 	 -6.15362 	 14.7441 	 81.2368
|  9> C 	 -6.90249 	 15.5416 	 80.3537
| 10> C 	 -7.29482 	 16.7942 	 80.9117
| 11> C 	 -6.80417 	 16.9871 	 82.2139
| 12> H 	 -7.99529 	 17.5612 	 80.5194
| 13> C 	 -7.50664 	 15.1489 	 79.0179
| 14> H 	 -6.70282 	 14.7656 	 78.407
| 15> H 	 -7.87253 	 16.0848 	 78.5614
| 16> C 	 -8.63735 	 14.0689 	 78.9308
| 17> H 	 -8.79772 	 13.7457 	 77.9247
| 18> H 	 -8.23033 	 13.2024 	 79.4078
| 19> C 	 -9.99461 	 14.4349 	 79.4575
| 20> H 	 -10.5852 	 15.3758 	 79.1203
| 21> H 	 -10.6148 	 13.5345 	 79.5952
| 22> H 	 -9.86831 	 14.5131 	 80.539
| 23> S 	 -8.6535 	 18.5433 	 83.5584
| 24> C 	 -8.09675 	 19.7553 	 84.6293
| 25> C 	 -6.81266 	 20.0366 	 84.4182
| 26> C 	 -6.22926 	 19.166 	 83.4979
| 27> C 	 -7.03989 	 18.137 	 83.1076
| 28> H 	 -6.26723 	 20.7346 	 84.9982
| 29> C 	 -4.67277 	 19.2604 	 83.3516
| 30> H 	 -4.4057 	 20.2941 	 83.2843
| 31> H 	 -4.33259 	 18.9057 	 82.4343
| 32> C 	 -3.85739 	 18.6021 	 84.4825
| 33> H 	 -4.1848 	 17.5482 	 84.6057
| 34> H 	 -4.11335 	 19.0594 	 85.4592
| 35> C 	 -2.39296 	 18.7812 	 84.336
| 36> H 	 -2.12554 	 19.793 	 84.1319
| 37> H 	 -1.8669 	 18.196 	 83.537
| 38> H 	 -1.81576 	 18.5202 	 85.2409
| 39> H 	 -5.78593 	 13.7126 	 81.0149
| 40> H 	 -8.65705 	 20.401 	 85.1866
| 41> *
| 42>
| 43>                          ****END OF INPUT****

CARTESIAN COORDINATES (ANGSTROEM)
---------------------------------
  S     -5.539520   15.764500   82.523200
  C     -6.153620   14.744100   81.236800
  C     -6.902490   15.541600   80.353700
  C     -7.294820   16.794200   80.911700
  C     -6.804170   16.987100   82.213900
  H     -7.995290   17.561200   80.519400
  C     -7.506640   15.148900   79.017900
  H     -6.702820   14.765600   78.407000
  H     -7.872530   16.084800   78.561400
  C     -8.637350   14.068900   78.930800
  H     -8.797720   13.745700   77.924700
  H     -8.230330   13.202400   79.407800
  C     -9.994610   14.434900   79.457500
  H    -10.585200   15.375800   79.120300
  H    -10.614800   13.534500   79.595200
  H     -9.868310   14.513100   80.539000
  S     -8.653500   18.543300   83.558400
  C     -8.096750   19.755300   84.629300
  C     -6.812660   20.036600   84.418200
  C     -6.229260   19.166000   83.497900
  C     -7.039890   18.137000   83.107600
  H     -6.267230   20.734600   84.998200
  C     -4.672770   19.260400   83.351600
  H     -4.405700   20.294100   83.284300
  H     -4.332590   18.905700   82.434300
  C     -3.857390   18.602100   84.482500
  H     -4.184800   17.548200   84.605700
  H     -4.113350   19.059400   85.459200
  C     -2.392960   18.781200   84.336000
  H     -2.125540   19.793000   84.131900
  H     -1.866900   18.196000   83.537000
  H     -1.815760   18.520200   85.240900
  H     -5.785930   13.712600   81.014900
  H     -8.657050   20.401000   85.186600

 Total Charge           Charge          ....    0
 Multiplicity           Mult            ....    1
 Number of Electrons    NEL             ....  134
 Basis Dimension        Dim             ....  322

ORBITAL ENERGIES
----------------

  NO   OCC          E(Eh)            E(eV)
   0   2.0000     -88.967936     -2420.9406
   1   2.0000     -88.963590     -2420.8223
   2   2.0000     -10.334885      -281.2265
   3   2.0000     -10.323931      -280.9284
   4   2.0000     -10.322374      -280.8861
   5   2.0000     -10.306223      -280.4466
   6   2.0000     -10.301509      -280.3183
   7   2.0000     -10.300411      -280.2884
   8   2.0000     -10.295967      -280.1675
   9   2.0000     -10.292310      -280.0680
  10   2.0000     -10.285090      -279.8715
  11   2.0000     -10.284663      -279.8599
  12   2.0000     -10.283059      -279.8163
  13   2.0000     -10.280188      -279.7381
  14   2.0000     -10.279757      -279.7264
  15   2.0000     -10.274555      -279.5849
  16   2.0000      -8.081560      -219.9104
  17   2.0000      -8.079726      -219.8605
  18   2.0000      -6.040151      -164.3609
  19   2.0000      -6.038112      -164.3054
  20   2.0000      -6.036370      -164.2580
  21   2.0000      -6.034151      -164.1976
  22   2.0000      -6.032155      -164.1433
  23   2.0000      -6.030407      -164.0957
  24   2.0000      -1.016027       -27.6475
  25   2.0000      -0.986955       -26.8564
  26   2.0000      -0.908838       -24.7307
  27   2.0000      -0.907210       -24.6864
  28   2.0000      -0.872672       -23.7466
  29   2.0000      -0.853409       -23.2224
  30   2.0000      -0.847849       -23.0711
  31   2.0000      -0.816264       -22.2117
  32   2.0000      -0.782775       -21.3004
  33   2.0000      -0.772640       -21.0246
  34   2.0000      -0.704495       -19.1703
  35   2.0000      -0.703290       -19.1375
  36   2.0000      -0.696169       -18.9437
  37   2.0000      -0.666474       -18.1357
  38   2.0000      -0.637105       -17.3365
  39   2.0000      -0.611191       -16.6314
  40   2.0000      -0.602196       -16.3866
  41   2.0000      -0.573243       -15.5987
  42   2.0000      -0.558437       -15.1958
  43   2.0000      -0.552208       -15.0263
  44   2.0000      -0.540407       -14.7052
  45   2.0000      -0.522511       -14.2182
  46   2.0000      -0.516438       -14.0530
  47   2.0000      -0.513409       -13.9706
  48   2.0000      -0.508634       -13.8406
  49   2.0000      -0.498123       -13.5546
  50   2.0000      -0.490312       -13.3421
  51   2.0000      -0.481115       -13.0918
  52   2.0000      -0.474035       -12.8991
  53   2.0000      -0.466552       -12.6955
  54   2.0000      -0.460859       -12.5406
  55   2.0000      -0.449383       -12.2283
  56   2.0000      -0.441401       -12.0111
  57   2.0000      -0.437526       -11.9057
  58   2.0000      -0.430376       -11.7111
  59   2.0000      -0.420323       -11.4376
  60   2.0000      -0.414048       -11.2668
  61   2.0000      -0.409977       -11.1560
  62   2.0000      -0.404918       -11.0184
  63   2.0000      -0.344991        -9.3877
  64   2.0000      -0.333305        -9.0697
  65   2.0000      -0.326656        -8.8888
  66   2.0000      -0.295545        -8.0422
  67   0.0000       0.029457         0.8016
  68   0.0000       0.057466         1.5637
  69   0.0000       0.094096         2.5605
  70   0.0000       0.124851         3.3974
  71   0.0000       0.138274         3.7626

MULLIKEN ATOMIC CHARGES
-----------------------
   0 S :    0.101776
   1 C :   -0.128267
   2 C :   -0.081508
   3 C :    0.020644
   4 C :   -0.160003
   5 H :    0.033914
   6 C :    0.054994
   7 H :    0.027472
   8 H :    0.023494
   9 C :   -0.027212
  10 H :    0.021322
  11 H :    0.010846
  12 C :   -0.077227
  13 H :    0.062516
  14 H :    0.025801
  15 H :    0.019023
  16 S :    0.108925
  17 C :   -0.019153
  18 C :   -0.035558
  19 C :   -0.013159
  20 C :   -0.176303
  21 H :    0.005952
  22 C :    0.081207
  23 H :    0.003971
  24 H :    0.000809
  25 C :   -0.053695
  26 H :    0.030959
  27 H :    0.019478
  28 C :   -0.044088
  29 H :    0.014274
  30 H :    0.032750
  31 H :    0.032506
  32 H :    0.069434
  33 H :    0.014103
Sum of atomic charges:    0.0000000

LOEWDIN ATOMIC CHARGES
----------------------
   0 S :    0.396956
   1 C :   -0.203387
   2 C :   -0.065602
   3 C :   -0.064158
   4 C :   -0.178269
   5 H :    0.039687
   6 C :   -0.031894
   7 H :    0.031172
   8 H :    0.030449
   9 C :   -0.037188
  10 H :    0.020954
  11 H :    0.022884
  12 C :   -0.093141
  13 H :    0.040381
  14 H :    0.033713
  15 H :    0.028580
  16 S :    0.431311
  17 C :   -0.176136
  18 C :   -0.066496
  19 C :   -0.056010
  20 C :   -0.208469
  21 H :    0.027379
  22 C :   -0.025145
  23 H :    0.025079
  24 H :    0.015948
  25 C :   -0.044227
  26 H :    0.022241
  27 H :    0.025683
  28 C :   -0.071746
  29 H :    0.019482
  30 H :    0.028455
  31 H :    0.030479
  32 H :    0.038211
  33 H :    0.012825

  Mayer bond orders larger than 0.100000
B(  0-S ,  1-C ) :   1.1391 B(  0-S ,  4-C ) :   1.1484 B(  1-C ,  2-C ) :   1.5838
B(  1-C ,  4-C ) :   0.1090 B(  1-C , 32-H ) :   0.9675 B(  2-C ,  3-C ) :   1.2322
B(  2-C ,  6-C ) :   1.0291 B(  3-C ,  4-C ) :   1.5796 B(  3-C ,  5-H ) :   0.9868
B(  4-C , 20-C ) :   1.0294 B(  6-C ,  7-H ) :   0.9317 B(  6-C ,  8-H ) :   0.9469
B(  6-C ,  9-C ) :   1.0720 B(  9-C , 10-H ) :   0.9541 B(  9-C , 11-H ) :   0.9488
B(  9-C , 12-C ) :   1.0871 B( 12-C , 13-H ) :   0.9727 B( 12-C , 14-H ) :   0.9615
B( 12-C , 15-H ) :   0.9647 B( 16-S , 17-C ) :   1.1580 B( 16-S , 20-C ) :   1.1448
B( 17-C , 18-C ) :   1.6080 B( 17-C , 33-H ) :   0.9717 B( 18-C , 19-C ) :   1.2500
B( 18-C , 21-H ) :   0.9999 B( 19-C , 20-C ) :   1.5889 B( 19-C , 22-C ) :   1.0518
B( 22-C , 23-H ) :   0.9301 B( 22-C , 24-H ) :   0.9348 B( 22-C , 25-C ) :   1.0631
B( 25-C , 26-H ) :   0.9495 B( 25-C , 27-H ) :   0.9510 B( 25-C , 28-C ) :   1.0866
B( 28-C , 29-H ) :   0.9702 B( 28-C , 30-H ) :   0.9725 B( 28-C , 31-H ) :   0.9714

Dispersion correction           -0.014483702
FINAL SINGLE POINT ENERGY     -1339.847564149112

DIPOLE MOMENT
-------------
                                X             Y             Z
Electronic contribution:     -5.99989       3.61897       7.68077
Nuclear contribution   :      6.14954      -3.50897      -7.88446
                        -----------------------------------------
Total Dipole Moment    :      0.14965       0.11000      -0.20369
                        -----------------------------------------
Magnitude (a.u.)       :      0.27565
Magnitude (Debye)      :      0.70066

Rotational constants in cm-1:     0.021431     0.008240     0.006361
Rotational constants in MHz :   642.476983   247.015302   190.704046

                             ****ORCA TERMINATED NORMALLY****
TOTAL RUN TIME: 0 days 0 hours 0 minutes 35 seconds 487 msec
