                         Program Version 4.2.1 -  RELEASE  -
|  1> ! wB97X-D3 SP def2-SVP
|  2> %pal
|  3> nprocs 16
|  4> end
|  5>
|  6> * xyz 0 1
|  7> S 	 -55.2985 	 43.5779 	 114.287
|  8> C 	 -55.5518 	 44.3736 	 112.787
|  9> C 	 -56.043 	 43.577 	 111.784
| 10> C 	 -56.3461 	 42.2966 	 112.311
| 11> C 	 -55.8505 	 42.1074 	 113.607
| 12> H 	 -56.7996 	 41.4663 	 111.798
| 13> C 	 -56.273 	 44.0116 	 110.331
| 14> H 	 -57.0676 	 43.3994 	 109.903
| 15> H 	 -55.3333 	 43.6824 	 109.857
| 16> C 	 -56.3636 	 45.4845 	 109.986
| 17> H 	 -57.2122 	 45.952 	 110.506
| 18> H 	 -55.4764 	 46.0588 	 110.257
| 19> C 	 -56.6358 	 45.7718 	 108.544
| 20> H 	 -55.6899 	 45.8405 	 108.026
| 21> H 	 -57.312 	 44.9933 	 108.071
| 22> H 	 -57.0449 	 46.7594 	 108.318
| 23> S 	 -53.8949 	 40.614 	 114.784
| 24> C 	 -54.2981 	 39.1434 	 115.623
| 25> C 	 -55.658 	 38.8789 	 115.492
| 26> C 	 -56.3758 	 39.8571 	 114.804
| 27> C 	 -55.559 	 40.869 	 114.302
| 28> H 	 -56.0673 	 37.9256 	 115.865
| 29> C 	 -57.8915 	 39.7616 	 114.57
| 30> H 	 -58.1259 	 38.779 	 114.193
| 31> H 	 -58.0147 	 40.4123 	 113.723
| 32> C 	 -58.8405 	 40.067 	 115.685
| 33> H 	 -58.7272 	 39.2352 	 116.486
| 34> H 	 -59.8514 	 39.9965 	 115.336
| 35> C 	 -58.7131 	 41.5461 	 116.123
| 36> H 	 -59.0574 	 41.572 	 117.161
| 37> H 	 -59.1455 	 42.3274 	 115.534
| 38> H 	 -57.6373 	 41.8228 	 116.079
| 39> H 	 -55.0159 	 45.2617 	 112.528
| 40> H 	 -53.6789 	 38.5544 	 116.301
| 41> *
| 42>
| 43>                          ****END OF INPUT****

CARTESIAN COORDINATES (ANGSTROEM)
---------------------------------
  S    -55.298500   43.577900  114.287000
  C    -55.551800   44.373600  112.787000
  C    -56.043000   43.577000  111.784000
  C    -56.346100   42.296600  112.311000
  C    -55.850500   42.107400  113.607000
  H    -56.799600   41.466300  111.798000
  C    -56.273000   44.011600  110.331000
  H    -57.067600   43.399400  109.903000
  H    -55.333300   43.682400  109.857000
  C    -56.363600   45.484500  109.986000
  H    -57.212200   45.952000  110.506000
  H    -55.476400   46.058800  110.257000
  C    -56.635800   45.771800  108.544000
  H    -55.689900   45.840500  108.026000
  H    -57.312000   44.993300  108.071000
  H    -57.044900   46.759400  108.318000
  S    -53.894900   40.614000  114.784000
  C    -54.298100   39.143400  115.623000
  C    -55.658000   38.878900  115.492000
  C    -56.375800   39.857100  114.804000
  C    -55.559000   40.869000  114.302000
  H    -56.067300   37.925600  115.865000
  C    -57.891500   39.761600  114.570000
  H    -58.125900   38.779000  114.193000
  H    -58.014700   40.412300  113.723000
  C    -58.840500   40.067000  115.685000
  H    -58.727200   39.235200  116.486000
  H    -59.851400   39.996500  115.336000
  C    -58.713100   41.546100  116.123000
  H    -59.057400   41.572000  117.161000
  H    -59.145500   42.327400  115.534000
  H    -57.637300   41.822800  116.079000
  H    -55.015900   45.261700  112.528000
  H    -53.678900   38.554400  116.301000

 Total Charge           Charge          ....    0
 Multiplicity           Mult            ....    1
 Number of Electrons    NEL             ....  134
 Basis Dimension        Dim             ....  322

ORBITAL ENERGIES
----------------

  NO   OCC          E(Eh)            E(eV)
   0   2.0000     -88.967456     -2420.9276
   1   2.0000     -88.966808     -2420.9099
   2   2.0000     -10.325938      -280.9831
   3   2.0000     -10.324527      -280.9447
   4   2.0000     -10.316633      -280.7298
   5   2.0000     -10.302345      -280.3411
   6   2.0000     -10.301786      -280.3258
   7   2.0000     -10.298780      -280.2441
   8   2.0000     -10.298688      -280.2416
   9   2.0000     -10.294348      -280.1235
  10   2.0000     -10.290590      -280.0212
  11   2.0000     -10.287459      -279.9360
  12   2.0000     -10.287226      -279.9296
  13   2.0000     -10.282643      -279.8050
  14   2.0000     -10.280708      -279.7523
  15   2.0000     -10.269229      -279.4399
  16   2.0000      -8.082703      -219.9415
  17   2.0000      -8.082051      -219.9238
  18   2.0000      -6.040949      -164.3826
  19   2.0000      -6.040458      -164.3692
  20   2.0000      -6.037034      -164.2760
  21   2.0000      -6.036462      -164.2605
  22   2.0000      -6.033678      -164.1847
  23   2.0000      -6.033026      -164.1670
  24   2.0000      -1.013371       -27.5752
  25   2.0000      -0.988344       -26.8942
  26   2.0000      -0.918500       -24.9937
  27   2.0000      -0.909060       -24.7368
  28   2.0000      -0.872796       -23.7500
  29   2.0000      -0.854189       -23.2437
  30   2.0000      -0.845489       -23.0069
  31   2.0000      -0.812113       -22.0987
  32   2.0000      -0.785088       -21.3633
  33   2.0000      -0.772861       -21.0306
  34   2.0000      -0.707432       -19.2502
  35   2.0000      -0.700100       -19.0507
  36   2.0000      -0.691450       -18.8153
  37   2.0000      -0.658231       -17.9114
  38   2.0000      -0.641430       -17.4542
  39   2.0000      -0.614529       -16.7222
  40   2.0000      -0.590185       -16.0597
  41   2.0000      -0.579668       -15.7736
  42   2.0000      -0.566163       -15.4061
  43   2.0000      -0.549832       -14.9617
  44   2.0000      -0.543055       -14.7773
  45   2.0000      -0.525556       -14.3011
  46   2.0000      -0.521349       -14.1866
  47   2.0000      -0.510525       -13.8921
  48   2.0000      -0.510243       -13.8844
  49   2.0000      -0.496833       -13.5195
  50   2.0000      -0.490480       -13.3466
  51   2.0000      -0.480622       -13.0784
  52   2.0000      -0.471376       -12.8268
  53   2.0000      -0.463041       -12.6000
  54   2.0000      -0.455755       -12.4017
  55   2.0000      -0.452542       -12.3143
  56   2.0000      -0.440620       -11.9899
  57   2.0000      -0.438624       -11.9356
  58   2.0000      -0.433122       -11.7858
  59   2.0000      -0.427988       -11.6461
  60   2.0000      -0.422723       -11.5029
  61   2.0000      -0.410241       -11.1632
  62   2.0000      -0.402285       -10.9467
  63   2.0000      -0.340478        -9.2649
  64   2.0000      -0.334074        -9.0906
  65   2.0000      -0.327105        -8.9010
  66   2.0000      -0.292961        -7.9719
  67   0.0000       0.028794         0.7835
  68   0.0000       0.066806         1.8179
  69   0.0000       0.118604         3.2274
  70   0.0000       0.123326         3.3559
  71   0.0000       0.130322         3.5463

MULLIKEN ATOMIC CHARGES
-----------------------
   0 S :    0.133076
   1 C :   -0.112602
   2 C :   -0.104626
   3 C :    0.047545
   4 C :   -0.191387
   5 H :    0.009553
   6 C :    0.077055
   7 H :    0.028179
   8 H :    0.039784
   9 C :   -0.077899
  10 H :    0.033999
  11 H :    0.031094
  12 C :   -0.058385
  13 H :    0.023867
  14 H :    0.040179
  15 H :    0.030741
  16 S :    0.120131
  17 C :   -0.097393
  18 C :   -0.052624
  19 C :   -0.033556
  20 C :   -0.175018
  21 H :    0.022663
  22 C :    0.097359
  23 H :    0.015885
  24 H :   -0.004638
  25 C :   -0.055205
  26 H :    0.040793
  27 H :    0.026328
  28 C :   -0.054336
  29 H :    0.035393
  30 H :    0.035194
  31 H :    0.027404
  32 H :    0.040481
  33 H :    0.060965
Sum of atomic charges:   -0.0000000

LOEWDIN ATOMIC CHARGES
----------------------
   0 S :    0.442426
   1 C :   -0.219085
   2 C :   -0.057463
   3 C :   -0.060083
   4 C :   -0.209463
   5 H :    0.027563
   6 C :   -0.030455
   7 H :    0.032293
   8 H :    0.041902
   9 C :   -0.050134
  10 H :    0.026655
  11 H :    0.026211
  12 C :   -0.068460
  13 H :    0.022377
  14 H :    0.031529
  15 H :    0.028084
  16 S :    0.419616
  17 C :   -0.195540
  18 C :   -0.075513
  19 C :   -0.058729
  20 C :   -0.208020
  21 H :    0.033989
  22 C :   -0.032212
  23 H :    0.028069
  24 H :    0.024336
  25 C :   -0.042571
  26 H :    0.033023
  27 H :    0.023772
  28 C :   -0.069224
  29 H :    0.028501
  30 H :    0.025256
  31 H :    0.026233
  32 H :    0.020914
  33 H :    0.034202

  Mayer bond orders larger than 0.100000
B(  0-S ,  1-C ) :   1.1430 B(  0-S ,  4-C ) :   1.1797 B(  1-C ,  2-C ) :   1.6310
B(  1-C , 32-H ) :   0.9546 B(  2-C ,  3-C ) :   1.2643 B(  2-C ,  6-C ) :   1.0050
B(  3-C ,  4-C ) :   1.5464 B(  3-C ,  5-H ) :   0.9918 B(  4-C , 20-C ) :   1.0345
B(  6-C ,  7-H ) :   0.9447 B(  6-C ,  8-H ) :   0.9253 B(  6-C ,  9-C ) :   1.0800
B(  9-C , 10-H ) :   0.9576 B(  9-C , 11-H ) :   0.9457 B(  9-C , 12-C ) :   1.0879
B( 12-C , 13-H ) :   0.9748 B( 12-C , 14-H ) :   0.9736 B( 12-C , 15-H ) :   0.9721
B( 16-S , 17-C ) :   1.1639 B( 16-S , 20-C ) :   1.1552 B( 17-C , 18-C ) :   1.5834
B( 17-C , 20-C ) :   0.1060 B( 17-C , 33-H ) :   0.9650 B( 18-C , 19-C ) :   1.2804
B( 18-C , 21-H ) :   0.9855 B( 19-C , 20-C ) :   1.5567 B( 19-C , 22-C ) :   1.0268
B( 22-C , 23-H ) :   0.9322 B( 22-C , 24-H ) :   0.9246 B( 22-C , 25-C ) :   1.0923
B( 25-C , 26-H ) :   0.9563 B( 25-C , 27-H ) :   0.9496 B( 25-C , 28-C ) :   1.0572
B( 28-C , 29-H ) :   0.9736 B( 28-C , 30-H ) :   0.9745 B( 28-C , 31-H ) :   0.9796

Dispersion correction           -0.014459359
FINAL SINGLE POINT ENERGY     -1339.871887601596

DIPOLE MOMENT
-------------
                                X             Y             Z
Electronic contribution:     17.49832      -6.86170      13.00157
Nuclear contribution   :    -17.72471       6.78375     -13.42547
                        -----------------------------------------
Total Dipole Moment    :     -0.22639      -0.07795      -0.42390
                        -----------------------------------------
Magnitude (a.u.)       :      0.48685
Magnitude (Debye)      :      1.23747

Rotational constants in cm-1:     0.023598     0.007289     0.006469
Rotational constants in MHz :   707.436215   218.515877   193.935625

                             ****ORCA TERMINATED NORMALLY****
TOTAL RUN TIME: 0 days 0 hours 0 minutes 30 seconds 137 msec
