                         Program Version 4.2.1 -  RELEASE  -
|  1> ! wB97X-D3 SP def2-SVP
|  2> %pal
|  3> nprocs 16
|  4> end
|  5>
|  6> * xyz 0 1
|  7> S 	 -51.7291 	 32.012 	 97.2831
|  8> C 	 -50.9815 	 33.3793 	 96.4576
|  9> C 	 -50.2275 	 34.1421 	 97.2887
| 10> C 	 -50.0515 	 33.5893 	 98.5813
| 11> C 	 -50.8814 	 32.4568 	 98.7792
| 12> H 	 -49.4458 	 33.854 	 99.4056
| 13> C 	 -49.5933 	 35.4535 	 96.9262
| 14> H 	 -48.7601 	 35.3472 	 96.2173
| 15> H 	 -49.1423 	 35.8008 	 97.8444
| 16> C 	 -50.6534 	 36.5227 	 96.5534
| 17> H 	 -50.1943 	 37.4731 	 96.2373
| 18> H 	 -51.1043 	 36.0862 	 95.692
| 19> C 	 -51.5838 	 36.8361 	 97.7474
| 20> H 	 -51.1122 	 37.1821 	 98.6824
| 21> H 	 -52.3015 	 37.5904 	 97.4281
| 22> H 	 -52.1178 	 35.9034 	 98.0924
| 23> S 	 -50.1906 	 29.9291 	 99.8046
| 24> C 	 -50.0461 	 29.8223 	 101.57
| 25> C 	 -50.7912 	 30.7321 	 102.179
| 26> C 	 -51.2742 	 31.7417 	 101.295
| 27> C 	 -50.8997 	 31.556 	 99.9412
| 28> H 	 -50.8296 	 30.7305 	 103.241
| 29> C 	 -52.1147 	 32.8913 	 101.804
| 30> H 	 -52.9724 	 32.4107 	 102.253
| 31> H 	 -52.513 	 33.5428 	 101.056
| 32> C 	 -51.4828 	 33.7227 	 102.926
| 33> H 	 -51.1256 	 33.058 	 103.777
| 34> H 	 -52.2541 	 34.2857 	 103.473
| 35> C 	 -50.5396 	 34.6912 	 102.388
| 36> H 	 -50.2966 	 35.498 	 103.136
| 37> H 	 -51.0479 	 35.2088 	 101.569
| 38> H 	 -49.6807 	 34.2658 	 101.812
| 39> H 	 -51.2244 	 33.6026 	 95.4808
| 40> H 	 -49.4133 	 28.9892 	 102.05
| 41> *
| 42>
| 43>                          ****END OF INPUT****

CARTESIAN COORDINATES (ANGSTROEM)
---------------------------------
  S    -51.729100   32.012000   97.283100
  C    -50.981500   33.379300   96.457600
  C    -50.227500   34.142100   97.288700
  C    -50.051500   33.589300   98.581300
  C    -50.881400   32.456800   98.779200
  H    -49.445800   33.854000   99.405600
  C    -49.593300   35.453500   96.926200
  H    -48.760100   35.347200   96.217300
  H    -49.142300   35.800800   97.844400
  C    -50.653400   36.522700   96.553400
  H    -50.194300   37.473100   96.237300
  H    -51.104300   36.086200   95.692000
  C    -51.583800   36.836100   97.747400
  H    -51.112200   37.182100   98.682400
  H    -52.301500   37.590400   97.428100
  H    -52.117800   35.903400   98.092400
  S    -50.190600   29.929100   99.804600
  C    -50.046100   29.822300  101.570000
  C    -50.791200   30.732100  102.179000
  C    -51.274200   31.741700  101.295000
  C    -50.899700   31.556000   99.941200
  H    -50.829600   30.730500  103.241000
  C    -52.114700   32.891300  101.804000
  H    -52.972400   32.410700  102.253000
  H    -52.513000   33.542800  101.056000
  C    -51.482800   33.722700  102.926000
  H    -51.125600   33.058000  103.777000
  H    -52.254100   34.285700  103.473000
  C    -50.539600   34.691200  102.388000
  H    -50.296600   35.498000  103.136000
  H    -51.047900   35.208800  101.569000
  H    -49.680700   34.265800  101.812000
  H    -51.224400   33.602600   95.480800
  H    -49.413300   28.989200  102.050000

 Total Charge           Charge          ....    0
 Multiplicity           Mult            ....    1
 Number of Electrons    NEL             ....  134
 Basis Dimension        Dim             ....  322

ORBITAL ENERGIES
----------------

  NO   OCC          E(Eh)            E(eV)
   0   2.0000     -88.966378     -2420.8982
   1   2.0000     -88.958186     -2420.6753
   2   2.0000     -10.335137      -281.2334
   3   2.0000     -10.329745      -281.0867
   4   2.0000     -10.322017      -280.8764
   5   2.0000     -10.309047      -280.5234
   6   2.0000     -10.307860      -280.4911
   7   2.0000     -10.298258      -280.2299
   8   2.0000     -10.296386      -280.1789
   9   2.0000     -10.289132      -279.9815
  10   2.0000     -10.288442      -279.9627
  11   2.0000     -10.288212      -279.9565
  12   2.0000     -10.286830      -279.9189
  13   2.0000     -10.286457      -279.9087
  14   2.0000     -10.282065      -279.7892
  15   2.0000     -10.278745      -279.6989
  16   2.0000      -8.080583      -219.8838
  17   2.0000      -8.072839      -219.6731
  18   2.0000      -6.039043      -164.3307
  19   2.0000      -6.035143      -164.2246
  20   2.0000      -6.031461      -164.1244
  21   2.0000      -6.031432      -164.1236
  22   2.0000      -6.027587      -164.0190
  23   2.0000      -6.023265      -163.9014
  24   2.0000      -1.001971       -27.2650
  25   2.0000      -0.984360       -26.7858
  26   2.0000      -0.917303       -24.9611
  27   2.0000      -0.911773       -24.8106
  28   2.0000      -0.868127       -23.6229
  29   2.0000      -0.848489       -23.0886
  30   2.0000      -0.845607       -23.0101
  31   2.0000      -0.816918       -22.2295
  32   2.0000      -0.781199       -21.2575
  33   2.0000      -0.770128       -20.9562
  34   2.0000      -0.710149       -19.3241
  35   2.0000      -0.702621       -19.1193
  36   2.0000      -0.691658       -18.8210
  37   2.0000      -0.654588       -17.8122
  38   2.0000      -0.648277       -17.6405
  39   2.0000      -0.610664       -16.6170
  40   2.0000      -0.597649       -16.2629
  41   2.0000      -0.576852       -15.6969
  42   2.0000      -0.561001       -15.2656
  43   2.0000      -0.554368       -15.0851
  44   2.0000      -0.546254       -14.8643
  45   2.0000      -0.533530       -14.5181
  46   2.0000      -0.518361       -14.1053
  47   2.0000      -0.513857       -13.9828
  48   2.0000      -0.500387       -13.6162
  49   2.0000      -0.496380       -13.5072
  50   2.0000      -0.486506       -13.2385
  51   2.0000      -0.483355       -13.1528
  52   2.0000      -0.468580       -12.7507
  53   2.0000      -0.465162       -12.6577
  54   2.0000      -0.463242       -12.6054
  55   2.0000      -0.447612       -12.1801
  56   2.0000      -0.442331       -12.0364
  57   2.0000      -0.432874       -11.7791
  58   2.0000      -0.430944       -11.7266
  59   2.0000      -0.425350       -11.5744
  60   2.0000      -0.423200       -11.5159
  61   2.0000      -0.414036       -11.2665
  62   2.0000      -0.403402       -10.9771
  63   2.0000      -0.343176        -9.3383
  64   2.0000      -0.332345        -9.0436
  65   2.0000      -0.321855        -8.7581
  66   2.0000      -0.296165        -8.0591
  67   0.0000       0.032854         0.8940
  68   0.0000       0.053814         1.4644
  69   0.0000       0.107832         2.9343
  70   0.0000       0.119449         3.2504
  71   0.0000       0.128572         3.4986

MULLIKEN ATOMIC CHARGES
-----------------------
   0 S :    0.100647
   1 C :   -0.100160
   2 C :   -0.082757
   3 C :    0.063011
   4 C :   -0.183038
   5 H :   -0.004632
   6 C :    0.081454
   7 H :    0.046104
   8 H :    0.002486
   9 C :   -0.054097
  10 H :    0.031512
  11 H :    0.021825
  12 C :   -0.084479
  13 H :    0.034934
  14 H :    0.040916
  15 H :    0.051268
  16 S :    0.085068
  17 C :   -0.129235
  18 C :    0.004311
  19 C :   -0.029894
  20 C :   -0.156918
  21 H :    0.012959
  22 C :    0.077650
  23 H :    0.027150
  24 H :    0.020470
  25 C :   -0.092309
  26 H :    0.028123
  27 H :    0.020748
  28 C :   -0.039032
  29 H :    0.044995
  30 H :    0.011055
  31 H :    0.042131
  32 H :    0.020075
  33 H :    0.087661
Sum of atomic charges:   -0.0000000

LOEWDIN ATOMIC CHARGES
----------------------
   0 S :    0.390783
   1 C :   -0.175485
   2 C :   -0.065328
   3 C :   -0.049852
   4 C :   -0.183463
   5 H :    0.026941
   6 C :   -0.030640
   7 H :    0.033836
   8 H :    0.022992
   9 C :   -0.034340
  10 H :    0.025275
  11 H :    0.017341
  12 C :   -0.071991
  13 H :    0.026743
  14 H :    0.027098
  15 H :    0.033461
  16 S :    0.367462
  17 C :   -0.169332
  18 C :   -0.077609
  19 C :   -0.045363
  20 C :   -0.201498
  21 H :    0.030420
  22 C :   -0.027559
  23 H :    0.036367
  24 H :    0.027186
  25 C :   -0.052943
  26 H :    0.024906
  27 H :    0.026031
  28 C :   -0.075223
  29 H :    0.033976
  30 H :    0.024561
  31 H :    0.027481
  32 H :    0.010137
  33 H :    0.047628

  Mayer bond orders larger than 0.100000
B(  0-S ,  1-C ) :   1.1335 B(  0-S ,  4-C ) :   1.1562 B(  1-C ,  2-C ) :   1.6114
B(  1-C , 32-H ) :   0.9801 B(  2-C ,  3-C ) :   1.2237 B(  2-C ,  6-C ) :   1.0116
B(  3-C ,  4-C ) :   1.5804 B(  3-C ,  5-H ) :   0.9977 B(  4-C , 20-C ) :   1.0309
B(  6-C ,  7-H ) :   0.9412 B(  6-C ,  8-H ) :   0.9416 B(  6-C ,  9-C ) :   1.0612
B(  9-C , 10-H ) :   0.9574 B(  9-C , 11-H ) :   0.9618 B(  9-C , 12-C ) :   1.0677
B( 12-C , 13-H ) :   0.9748 B( 12-C , 14-H ) :   0.9747 B( 12-C , 15-H ) :   0.9733
B( 16-S , 17-C ) :   1.1450 B( 16-S , 20-C ) :   1.1128 B( 17-C , 18-C ) :   1.6426
B( 17-C , 33-H ) :   0.9543 B( 18-C , 19-C ) :   1.2011 B( 18-C , 21-H ) :   0.9965
B( 19-C , 20-C ) :   1.6023 B( 19-C , 22-C ) :   1.0496 B( 22-C , 23-H ) :   0.9251
B( 22-C , 24-H ) :   0.9420 B( 22-C , 25-C ) :   1.0825 B( 25-C , 26-H ) :   0.9483
B( 25-C , 27-H ) :   0.9469 B( 25-C , 28-C ) :   1.0820 B( 28-C , 29-H ) :   0.9674
B( 28-C , 30-H ) :   0.9635 B( 28-C , 31-H ) :   0.9691

Dispersion correction           -0.015590197
FINAL SINGLE POINT ENERGY     -1339.866692582792

DIPOLE MOMENT
-------------
                                X             Y             Z
Electronic contribution:      0.40828     -27.17995      -8.22655
Nuclear contribution   :     -0.35466      27.74635       8.62758
                        -----------------------------------------
Total Dipole Moment    :      0.05362       0.56640       0.40103
                        -----------------------------------------
Magnitude (a.u.)       :      0.69607
Magnitude (Debye)      :      1.76926

Rotational constants in cm-1:     0.019595     0.009590     0.007181
Rotational constants in MHz :   587.430373   287.503856   215.274463

                             ****ORCA TERMINATED NORMALLY****
TOTAL RUN TIME: 0 days 0 hours 0 minutes 31 seconds 976 msec
