                         Program Version 4.2.1 -  RELEASE  -
|  1> ! wB97X-D3 SP def2-SVP
|  2> %pal
|  3> nprocs 16
|  4> end
|  5>
|  6> * xyz 0 1
|  7> S 	 8.0602 	 -5.97716 	 86.5084
|  8> C 	 8.86882 	 -4.42773 	 86.1452
|  9> C 	 7.8691 	 -3.50749 	 85.8246
| 10> C 	 6.518 	 -4.04315 	 85.9587
| 11> C 	 6.42112 	 -5.36198 	 86.3182
| 12> H 	 5.59714 	 -3.58848 	 85.689
| 13> C 	 8.09771 	 -2.05018 	 85.3919
| 14> H 	 7.44979 	 -1.69976 	 84.5413
| 15> H 	 9.1325 	 -1.88841 	 84.9281
| 16> C 	 8.01701 	 -0.919912 	 86.4026
| 17> H 	 8.56982 	 -0.044182 	 86.13
| 18> H 	 6.94768 	 -0.605243 	 86.4975
| 19> C 	 8.5333 	 -1.22079 	 87.8285
| 20> H 	 8.43943 	 -0.347461 	 88.4343
| 21> H 	 7.88503 	 -2.00609 	 88.3019
| 22> H 	 9.61021 	 -1.39308 	 87.7769
| 23> S 	 5.31438 	 -7.81873 	 86.1869
| 24> C 	 3.60463 	 -8.06373 	 86.4814
| 25> C 	 3.023 	 -6.87637 	 86.8919
| 26> C 	 3.9646 	 -5.81366 	 86.9814
| 27> C 	 5.22486 	 -6.16495 	 86.5131
| 28> H 	 1.94732 	 -6.78333 	 87.2102
| 29> C 	 3.52656 	 -4.4463 	 87.4915
| 30> H 	 2.43325 	 -4.53236 	 87.7246
| 31> H 	 3.60818 	 -3.70843 	 86.6608
| 32> C 	 4.11945 	 -4.09103 	 88.8678
| 33> H 	 5.11583 	 -3.69339 	 88.7521
| 34> H 	 4.28012 	 -4.99532 	 89.538
| 35> C 	 3.24051 	 -3.04329 	 89.6376
| 36> H 	 3.12593 	 -2.21303 	 88.9321
| 37> H 	 3.83035 	 -2.69778 	 90.5092
| 38> H 	 2.27498 	 -3.28522 	 89.9681
| 39> H 	 9.95104 	 -4.18549 	 86.0898
| 40> H 	 3.0564 	 -8.9504 	 86.2109
| 41> *
| 42>
| 43>                          ****END OF INPUT****

CARTESIAN COORDINATES (ANGSTROEM)
---------------------------------
  S      8.060200   -5.977160   86.508400
  C      8.868820   -4.427730   86.145200
  C      7.869100   -3.507490   85.824600
  C      6.518000   -4.043150   85.958700
  C      6.421120   -5.361980   86.318200
  H      5.597140   -3.588480   85.689000
  C      8.097710   -2.050180   85.391900
  H      7.449790   -1.699760   84.541300
  H      9.132500   -1.888410   84.928100
  C      8.017010   -0.919912   86.402600
  H      8.569820   -0.044182   86.130000
  H      6.947680   -0.605243   86.497500
  C      8.533300   -1.220790   87.828500
  H      8.439430   -0.347461   88.434300
  H      7.885030   -2.006090   88.301900
  H      9.610210   -1.393080   87.776900
  S      5.314380   -7.818730   86.186900
  C      3.604630   -8.063730   86.481400
  C      3.023000   -6.876370   86.891900
  C      3.964600   -5.813660   86.981400
  C      5.224860   -6.164950   86.513100
  H      1.947320   -6.783330   87.210200
  C      3.526560   -4.446300   87.491500
  H      2.433250   -4.532360   87.724600
  H      3.608180   -3.708430   86.660800
  C      4.119450   -4.091030   88.867800
  H      5.115830   -3.693390   88.752100
  H      4.280120   -4.995320   89.538000
  C      3.240510   -3.043290   89.637600
  H      3.125930   -2.213030   88.932100
  H      3.830350   -2.697780   90.509200
  H      2.274980   -3.285220   89.968100
  H      9.951040   -4.185490   86.089800
  H      3.056400   -8.950400   86.210900

 Total Charge           Charge          ....    0
 Multiplicity           Mult            ....    1
 Number of Electrons    NEL             ....  134
 Basis Dimension        Dim             ....  322

ORBITAL ENERGIES
----------------

  NO   OCC          E(Eh)            E(eV)
   0   2.0000     -88.968916     -2420.9673
   1   2.0000     -88.966179     -2420.8928
   2   2.0000     -10.333601      -281.1916
   3   2.0000     -10.326795      -281.0064
   4   2.0000     -10.325212      -280.9633
   5   2.0000     -10.319408      -280.8054
   6   2.0000     -10.312166      -280.6083
   7   2.0000     -10.303931      -280.3842
   8   2.0000     -10.300843      -280.3002
   9   2.0000     -10.300479      -280.2903
  10   2.0000     -10.299750      -280.2704
  11   2.0000     -10.293070      -280.0887
  12   2.0000     -10.291304      -280.0406
  13   2.0000     -10.284204      -279.8474
  14   2.0000     -10.277492      -279.6648
  15   2.0000     -10.274440      -279.5817
  16   2.0000      -8.084781      -219.9981
  17   2.0000      -8.080069      -219.8699
  18   2.0000      -6.043197      -164.4438
  19   2.0000      -6.039043      -164.3307
  20   2.0000      -6.038903      -164.3269
  21   2.0000      -6.035644      -164.2382
  22   2.0000      -6.034583      -164.2093
  23   2.0000      -6.030623      -164.1016
  24   2.0000      -1.014253       -27.5992
  25   2.0000      -0.983739       -26.7689
  26   2.0000      -0.907760       -24.7014
  27   2.0000      -0.906173       -24.6582
  28   2.0000      -0.872805       -23.7502
  29   2.0000      -0.851709       -23.1762
  30   2.0000      -0.838294       -22.8111
  31   2.0000      -0.817206       -22.2373
  32   2.0000      -0.781556       -21.2672
  33   2.0000      -0.773684       -21.0530
  34   2.0000      -0.708653       -19.2834
  35   2.0000      -0.693522       -18.8717
  36   2.0000      -0.690826       -18.7983
  37   2.0000      -0.665653       -18.1133
  38   2.0000      -0.638232       -17.3672
  39   2.0000      -0.616872       -16.7859
  40   2.0000      -0.594498       -16.1771
  41   2.0000      -0.566210       -15.4074
  42   2.0000      -0.559688       -15.2299
  43   2.0000      -0.554641       -15.0925
  44   2.0000      -0.541076       -14.7234
  45   2.0000      -0.524424       -14.2703
  46   2.0000      -0.523224       -14.2377
  47   2.0000      -0.514918       -14.0116
  48   2.0000      -0.507656       -13.8140
  49   2.0000      -0.496786       -13.5182
  50   2.0000      -0.493078       -13.4173
  51   2.0000      -0.481877       -13.1125
  52   2.0000      -0.471064       -12.8183
  53   2.0000      -0.465088       -12.6557
  54   2.0000      -0.460789       -12.5387
  55   2.0000      -0.449234       -12.2243
  56   2.0000      -0.438622       -11.9355
  57   2.0000      -0.437157       -11.8957
  58   2.0000      -0.432313       -11.7638
  59   2.0000      -0.419461       -11.4141
  60   2.0000      -0.411271       -11.1912
  61   2.0000      -0.409079       -11.1316
  62   2.0000      -0.403209       -10.9719
  63   2.0000      -0.361260        -9.8304
  64   2.0000      -0.335984        -9.1426
  65   2.0000      -0.327339        -8.9073
  66   2.0000      -0.289318        -7.8727
  67   0.0000       0.021686         0.5901
  68   0.0000       0.077052         2.0967
  69   0.0000       0.103276         2.8103
  70   0.0000       0.118078         3.2131
  71   0.0000       0.124711         3.3936

MULLIKEN ATOMIC CHARGES
-----------------------
   0 S :    0.089561
   1 C :   -0.117807
   2 C :   -0.065123
   3 C :    0.015217
   4 C :   -0.107384
   5 H :   -0.010742
   6 C :    0.027754
   7 H :    0.041515
   8 H :    0.026280
   9 C :   -0.098047
  10 H :    0.024738
  11 H :    0.024852
  12 C :   -0.053934
  13 H :    0.022229
  14 H :    0.055497
  15 H :    0.026750
  16 S :    0.115114
  17 C :   -0.090619
  18 C :   -0.042672
  19 C :   -0.081686
  20 C :   -0.128188
  21 H :    0.042974
  22 C :    0.043060
  23 H :    0.016158
  24 H :    0.050988
  25 C :   -0.082962
  26 H :    0.037067
  27 H :    0.047479
  28 C :   -0.048463
  29 H :    0.024426
  30 H :    0.037797
  31 H :    0.028749
  32 H :    0.068969
  33 H :    0.060452
Sum of atomic charges:   -0.0000000

LOEWDIN ATOMIC CHARGES
----------------------
   0 S :    0.381117
   1 C :   -0.190746
   2 C :   -0.060058
   3 C :   -0.070230
   4 C :   -0.180495
   5 H :    0.023793
   6 C :   -0.048087
   7 H :    0.039222
   8 H :    0.035475
   9 C :   -0.048457
  10 H :    0.021878
  11 H :    0.021426
  12 C :   -0.068102
  13 H :    0.020776
  14 H :    0.032644
  15 H :    0.022925
  16 S :    0.440238
  17 C :   -0.187697
  18 C :   -0.073372
  19 C :   -0.061385
  20 C :   -0.218553
  21 H :    0.042980
  22 C :   -0.038745
  23 H :    0.033463
  24 H :    0.033109
  25 C :   -0.040842
  26 H :    0.022464
  27 H :    0.034319
  28 C :   -0.064882
  29 H :    0.024978
  30 H :    0.031725
  31 H :    0.014405
  32 H :    0.044441
  33 H :    0.030273

  Mayer bond orders larger than 0.100000
B(  0-S ,  1-C ) :   1.1211 B(  0-S ,  4-C ) :   1.1308 B(  1-C ,  2-C ) :   1.6182
B(  1-C , 32-H ) :   0.9648 B(  2-C ,  3-C ) :   1.2088 B(  2-C ,  6-C ) :   1.0284
B(  3-C ,  4-C ) :   1.5951 B(  3-C ,  5-H ) :   1.0014 B(  4-C , 20-C ) :   1.0619
B(  6-C ,  7-H ) :   0.9480 B(  6-C ,  8-H ) :   0.9449 B(  6-C ,  9-C ) :   1.0653
B(  9-C , 10-H ) :   0.9586 B(  9-C , 11-H ) :   0.9559 B(  9-C , 12-C ) :   1.0943
B( 12-C , 13-H ) :   0.9724 B( 12-C , 14-H ) :   0.9684 B( 12-C , 15-H ) :   0.9754
B( 16-S , 17-C ) :   1.1662 B( 16-S , 20-C ) :   1.1605 B( 17-C , 18-C ) :   1.5737
B( 17-C , 20-C ) :   0.1012 B( 17-C , 33-H ) :   0.9700 B( 18-C , 19-C ) :   1.2980
B( 18-C , 21-H ) :   0.9763 B( 19-C , 20-C ) :   1.5439 B( 19-C , 22-C ) :   1.0428
B( 22-C , 23-H ) :   0.9382 B( 22-C , 24-H ) :   0.9312 B( 22-C , 25-C ) :   1.0432
B( 25-C , 26-H ) :   0.9526 B( 25-C , 27-H ) :   0.9583 B( 25-C , 28-C ) :   1.0808
B( 28-C , 29-H ) :   0.9742 B( 28-C , 30-H ) :   0.9751 B( 28-C , 31-H ) :   0.9788

Dispersion correction           -0.014708909
FINAL SINGLE POINT ENERGY     -1339.875145641187

DIPOLE MOMENT
-------------
                                X             Y             Z
Electronic contribution:      4.35781     -28.70622     -10.70509
Nuclear contribution   :     -4.73320      29.29846      10.74235
                        -----------------------------------------
Total Dipole Moment    :     -0.37540       0.59224       0.03726
                        -----------------------------------------
Magnitude (a.u.)       :      0.70218
Magnitude (Debye)      :      1.78480

Rotational constants in cm-1:     0.018300     0.009709     0.006992
Rotational constants in MHz :   548.613432   291.060631   209.603464

                             ****ORCA TERMINATED NORMALLY****
TOTAL RUN TIME: 0 days 0 hours 0 minutes 32 seconds 825 msec
