                         Program Version 4.2.1 -  RELEASE  -
|  1> ! wB97X-D3 SP def2-SVP
|  2> %pal
|  3> nprocs 16
|  4> end
|  5>
|  6> * xyz 0 1
|  7> S 	 -17.7053 	 -5.36498 	 82.1261
|  8> C 	 -17.6294 	 -6.37325 	 80.6382
|  9> C 	 -18.0767 	 -7.6332 	 80.8773
| 10> C 	 -18.7381 	 -7.71554 	 82.1814
| 11> C 	 -18.6146 	 -6.62471 	 82.9619
| 12> H 	 -19.0958 	 -8.62434 	 82.6394
| 13> C 	 -18.0416 	 -8.72176 	 79.9036
| 14> H 	 -18.3572 	 -8.29611 	 78.9801
| 15> H 	 -18.9246 	 -9.24528 	 80.1156
| 16> C 	 -16.6254 	 -9.37066 	 79.7276
| 17> H 	 -15.8259 	 -8.66764 	 79.7619
| 18> H 	 -16.594 	 -9.96754 	 80.5704
| 19> C 	 -16.5197 	 -10.1958 	 78.4413
| 20> H 	 -15.6499 	 -9.94694 	 77.8812
| 21> H 	 -16.2307 	 -11.1397 	 78.7448
| 22> H 	 -17.4164 	 -10.2114 	 77.8011
| 23> S 	 -20.6497 	 -6.31301 	 84.7729
| 24> C 	 -20.3175 	 -6.43301 	 86.4945
| 25> C 	 -18.9366 	 -6.40587 	 86.742
| 26> C 	 -18.1608 	 -6.44569 	 85.4991
| 27> C 	 -18.9628 	 -6.48071 	 84.3711
| 28> H 	 -18.5589 	 -6.39623 	 87.7714
| 29> C 	 -16.7033 	 -6.18063 	 85.4841
| 30> H 	 -16.5869 	 -5.05927 	 85.3933
| 31> H 	 -16.2936 	 -6.51223 	 84.5634
| 32> C 	 -15.9311 	 -6.83333 	 86.619
| 33> H 	 -16.2075 	 -7.85677 	 86.6718
| 34> H 	 -16.1416 	 -6.31802 	 87.5408
| 35> C 	 -14.4537 	 -6.53376 	 86.3508
| 36> H 	 -13.7363 	 -6.8708 	 87.1537
| 37> H 	 -14.2565 	 -5.5166 	 86.136
| 38> H 	 -14.0863 	 -7.07194 	 85.5213
| 39> H 	 -17.0834 	 -6.01313 	 79.7641
| 40> H 	 -21.0074 	 -6.32005 	 87.3365
| 41> *
| 42>
| 43>                          ****END OF INPUT****

CARTESIAN COORDINATES (ANGSTROEM)
---------------------------------
  S    -17.705300   -5.364980   82.126100
  C    -17.629400   -6.373250   80.638200
  C    -18.076700   -7.633200   80.877300
  C    -18.738100   -7.715540   82.181400
  C    -18.614600   -6.624710   82.961900
  H    -19.095800   -8.624340   82.639400
  C    -18.041600   -8.721760   79.903600
  H    -18.357200   -8.296110   78.980100
  H    -18.924600   -9.245280   80.115600
  C    -16.625400   -9.370660   79.727600
  H    -15.825900   -8.667640   79.761900
  H    -16.594000   -9.967540   80.570400
  C    -16.519700  -10.195800   78.441300
  H    -15.649900   -9.946940   77.881200
  H    -16.230700  -11.139700   78.744800
  H    -17.416400  -10.211400   77.801100
  S    -20.649700   -6.313010   84.772900
  C    -20.317500   -6.433010   86.494500
  C    -18.936600   -6.405870   86.742000
  C    -18.160800   -6.445690   85.499100
  C    -18.962800   -6.480710   84.371100
  H    -18.558900   -6.396230   87.771400
  C    -16.703300   -6.180630   85.484100
  H    -16.586900   -5.059270   85.393300
  H    -16.293600   -6.512230   84.563400
  C    -15.931100   -6.833330   86.619000
  H    -16.207500   -7.856770   86.671800
  H    -16.141600   -6.318020   87.540800
  C    -14.453700   -6.533760   86.350800
  H    -13.736300   -6.870800   87.153700
  H    -14.256500   -5.516600   86.136000
  H    -14.086300   -7.071940   85.521300
  H    -17.083400   -6.013130   79.764100
  H    -21.007400   -6.320050   87.336500

 Total Charge           Charge          ....    0
 Multiplicity           Mult            ....    1
 Number of Electrons    NEL             ....  134
 Basis Dimension        Dim             ....  322

ORBITAL ENERGIES
----------------

  NO   OCC          E(Eh)            E(eV)
   0   2.0000     -88.964799     -2420.8553
   1   2.0000     -88.959600     -2420.7138
   2   2.0000     -10.325765      -280.9784
   3   2.0000     -10.321536      -280.8633
   4   2.0000     -10.319180      -280.7992
   5   2.0000     -10.313772      -280.6520
   6   2.0000     -10.300822      -280.2996
   7   2.0000     -10.297769      -280.2166
   8   2.0000     -10.297565      -280.2110
   9   2.0000     -10.291408      -280.0435
  10   2.0000     -10.284019      -279.8424
  11   2.0000     -10.283276      -279.8222
  12   2.0000     -10.281135      -279.7639
  13   2.0000     -10.281086      -279.7626
  14   2.0000     -10.271474      -279.5010
  15   2.0000     -10.270447      -279.4731
  16   2.0000      -8.079298      -219.8489
  17   2.0000      -8.073593      -219.6936
  18   2.0000      -6.037904      -164.2997
  19   2.0000      -6.033809      -164.1883
  20   2.0000      -6.032230      -164.1453
  21   2.0000      -6.029991      -164.0844
  22   2.0000      -6.028292      -164.0382
  23   2.0000      -6.024185      -163.9264
  24   2.0000      -1.002839       -27.2886
  25   2.0000      -0.979532       -26.6544
  26   2.0000      -0.916780       -24.9468
  27   2.0000      -0.915043       -24.8996
  28   2.0000      -0.870101       -23.6766
  29   2.0000      -0.848415       -23.0866
  30   2.0000      -0.846920       -23.0459
  31   2.0000      -0.817026       -22.2324
  32   2.0000      -0.782683       -21.2979
  33   2.0000      -0.767799       -20.8929
  34   2.0000      -0.717878       -19.5345
  35   2.0000      -0.711003       -19.3474
  36   2.0000      -0.695542       -18.9267
  37   2.0000      -0.653944       -17.7947
  38   2.0000      -0.641190       -17.4477
  39   2.0000      -0.616356       -16.7719
  40   2.0000      -0.593968       -16.1627
  41   2.0000      -0.574717       -15.6388
  42   2.0000      -0.571589       -15.5537
  43   2.0000      -0.558541       -15.1987
  44   2.0000      -0.538136       -14.6434
  45   2.0000      -0.524069       -14.2607
  46   2.0000      -0.520585       -14.1658
  47   2.0000      -0.511312       -13.9135
  48   2.0000      -0.510141       -13.8816
  49   2.0000      -0.501890       -13.6571
  50   2.0000      -0.485710       -13.2168
  51   2.0000      -0.474403       -12.9092
  52   2.0000      -0.466454       -12.6929
  53   2.0000      -0.462335       -12.5808
  54   2.0000      -0.456100       -12.4111
  55   2.0000      -0.447712       -12.1829
  56   2.0000      -0.446673       -12.1546
  57   2.0000      -0.443084       -12.0569
  58   2.0000      -0.437774       -11.9124
  59   2.0000      -0.427171       -11.6239
  60   2.0000      -0.421508       -11.4698
  61   2.0000      -0.416771       -11.3409
  62   2.0000      -0.407431       -11.0868
  63   2.0000      -0.335212        -9.1216
  64   2.0000      -0.329404        -8.9635
  65   2.0000      -0.320358        -8.7174
  66   2.0000      -0.302428        -8.2295
  67   0.0000       0.040542         1.1032
  68   0.0000       0.062072         1.6891
  69   0.0000       0.108639         2.9562
  70   0.0000       0.114769         3.1230
  71   0.0000       0.126295         3.4367

MULLIKEN ATOMIC CHARGES
-----------------------
   0 S :    0.077609
   1 C :   -0.125212
   2 C :   -0.125098
   3 C :    0.051708
   4 C :   -0.159270
   5 H :    0.011539
   6 C :    0.095957
   7 H :    0.005405
   8 H :    0.006006
   9 C :   -0.022058
  10 H :    0.026728
  11 H :    0.017181
  12 C :   -0.002110
  13 H :    0.016058
  14 H :    0.006614
  15 H :    0.045920
  16 S :    0.120010
  17 C :   -0.095705
  18 C :   -0.056479
  19 C :   -0.015825
  20 C :   -0.174546
  21 H :    0.032529
  22 C :    0.032422
  23 H :    0.052333
  24 H :    0.008698
  25 C :   -0.048573
  26 H :    0.032621
  27 H :    0.030043
  28 C :   -0.024917
  29 H :    0.031328
  30 H :    0.019991
  31 H :    0.012525
  32 H :    0.054712
  33 H :    0.061856
Sum of atomic charges:    0.0000000

LOEWDIN ATOMIC CHARGES
----------------------
   0 S :    0.366514
   1 C :   -0.174781
   2 C :   -0.060729
   3 C :   -0.060443
   4 C :   -0.188068
   5 H :    0.031828
   6 C :   -0.034533
   7 H :    0.028038
   8 H :    0.028231
   9 C :   -0.017978
  10 H :    0.023466
  11 H :    0.017219
  12 C :   -0.062927
  13 H :    0.025672
  14 H :    0.020285
  15 H :    0.030898
  16 S :    0.412434
  17 C :   -0.191868
  18 C :   -0.072830
  19 C :   -0.055267
  20 C :   -0.210363
  21 H :    0.034237
  22 C :   -0.038327
  23 H :    0.043964
  24 H :    0.020332
  25 C :   -0.031341
  26 H :    0.024574
  27 H :    0.022597
  28 C :   -0.062043
  29 H :    0.029373
  30 H :    0.021140
  31 H :    0.017573
  32 H :    0.028835
  33 H :    0.034288

  Mayer bond orders larger than 0.100000
B(  0-S ,  1-C ) :   1.1145 B(  0-S ,  4-C ) :   1.1226 B(  1-C ,  2-C ) :   1.6510
B(  1-C , 32-H ) :   0.9686 B(  2-C ,  3-C ) :   1.1944 B(  2-C ,  6-C ) :   1.0214
B(  3-C ,  4-C ) :   1.6545 B(  3-C ,  5-H ) :   0.9878 B(  4-C , 20-C ) :   0.9949
B(  6-C ,  7-H ) :   0.9337 B(  6-C ,  8-H ) :   0.9353 B(  6-C ,  9-C ) :   1.0265
B(  9-C , 10-H ) :   0.9659 B(  9-C , 11-H ) :   0.9654 B(  9-C , 12-C ) :   1.0676
B( 12-C , 13-H ) :   0.9732 B( 12-C , 14-H ) :   0.9707 B( 12-C , 15-H ) :   0.9796
B( 16-S , 17-C ) :   1.1538 B( 16-S , 20-C ) :   1.1419 B( 17-C , 18-C ) :   1.6202
B( 17-C , 33-H ) :   0.9625 B( 18-C , 19-C ) :   1.2163 B( 18-C , 21-H ) :   0.9843
B( 19-C , 20-C ) :   1.6051 B( 19-C , 22-C ) :   1.0558 B( 22-C , 23-H ) :   0.9280
B( 22-C , 24-H ) :   0.9278 B( 22-C , 25-C ) :   1.0630 B( 25-C , 26-H ) :   0.9632
B( 25-C , 27-H ) :   0.9455 B( 25-C , 28-C ) :   1.0859 B( 28-C , 29-H ) :   0.9728
B( 28-C , 30-H ) :   0.9695 B( 28-C , 31-H ) :   0.9730

Dispersion correction           -0.013740581
FINAL SINGLE POINT ENERGY     -1339.853262003046

DIPOLE MOMENT
-------------
                                X             Y             Z
Electronic contribution:    -20.27675      13.67182       5.07329
Nuclear contribution   :     20.78390     -14.09910      -5.12554
                        -----------------------------------------
Total Dipole Moment    :      0.50715      -0.42728      -0.05225
                        -----------------------------------------
Magnitude (a.u.)       :      0.66521
Magnitude (Debye)      :      1.69082

Rotational constants in cm-1:     0.018823     0.007663     0.006396
Rotational constants in MHz :   564.299692   229.739643   191.753785

                             ****ORCA TERMINATED NORMALLY****
TOTAL RUN TIME: 0 days 0 hours 0 minutes 32 seconds 465 msec
