                         Program Version 4.2.1 -  RELEASE  -
|  1> ! wB97X-D3 SP def2-SVP
|  2> %pal
|  3> nprocs 16
|  4> end
|  5>
|  6> * xyz 0 1
|  7> S 	 -14.3022 	 41.2781 	 31.6267
|  8> C 	 -16.0499 	 41.267 	 31.7727
|  9> C 	 -16.662 	 41.3501 	 30.5133
| 10> C 	 -15.6804 	 41.3479 	 29.4482
| 11> C 	 -14.3698 	 41.2124 	 29.8722
| 12> H 	 -15.873 	 41.2662 	 28.3783
| 13> C 	 -18.131 	 41.2282 	 30.2455
| 14> H 	 -18.2725 	 41.872 	 29.4078
| 15> H 	 -18.7413 	 41.5438 	 31.1342
| 16> C 	 -18.6785 	 39.8805 	 29.8196
| 17> H 	 -19.6519 	 40.0697 	 29.4298
| 18> H 	 -18.0201 	 39.6302 	 29.0806
| 19> C 	 -18.7278 	 38.8209 	 30.9778
| 20> H 	 -18.8361 	 37.9164 	 30.405
| 21> H 	 -17.9362 	 38.7889 	 31.7167
| 22> H 	 -19.6211 	 38.8972 	 31.5847
| 23> S 	 -12.731 	 40.0286 	 28.0176
| 24> C 	 -11.1979 	 40.715 	 27.5789
| 25> C 	 -10.9795 	 41.8647 	 28.3542
| 26> C 	 -12.109 	 42.2148 	 29.1908
| 27> C 	 -13.1265 	 41.2426 	 29.1735
| 28> H 	 -10.1753 	 42.5006 	 28.2238
| 29> C 	 -12.0868 	 43.3574 	 30.1798
| 30> H 	 -11.1037 	 43.6339 	 30.5734
| 31> H 	 -12.6257 	 43.1364 	 31.1197
| 32> C 	 -12.7726 	 44.7486 	 29.7305
| 33> H 	 -12.3961 	 45.4377 	 30.4143
| 34> H 	 -13.8164 	 44.5808 	 29.9814
| 35> C 	 -12.5635 	 45.1607 	 28.2361
| 36> H 	 -13.1121 	 44.5159 	 27.5728
| 37> H 	 -11.5438 	 45.3252 	 27.902
| 38> H 	 -13.0508 	 46.1257 	 28.113
| 39> H 	 -16.6851 	 41.3841 	 32.6753
| 40> H 	 -10.4145 	 40.2543 	 26.9974
| 41> *
| 42>
| 43>                          ****END OF INPUT****

CARTESIAN COORDINATES (ANGSTROEM)
---------------------------------
  S    -14.302200   41.278100   31.626700
  C    -16.049900   41.267000   31.772700
  C    -16.662000   41.350100   30.513300
  C    -15.680400   41.347900   29.448200
  C    -14.369800   41.212400   29.872200
  H    -15.873000   41.266200   28.378300
  C    -18.131000   41.228200   30.245500
  H    -18.272500   41.872000   29.407800
  H    -18.741300   41.543800   31.134200
  C    -18.678500   39.880500   29.819600
  H    -19.651900   40.069700   29.429800
  H    -18.020100   39.630200   29.080600
  C    -18.727800   38.820900   30.977800
  H    -18.836100   37.916400   30.405000
  H    -17.936200   38.788900   31.716700
  H    -19.621100   38.897200   31.584700
  S    -12.731000   40.028600   28.017600
  C    -11.197900   40.715000   27.578900
  C    -10.979500   41.864700   28.354200
  C    -12.109000   42.214800   29.190800
  C    -13.126500   41.242600   29.173500
  H    -10.175300   42.500600   28.223800
  C    -12.086800   43.357400   30.179800
  H    -11.103700   43.633900   30.573400
  H    -12.625700   43.136400   31.119700
  C    -12.772600   44.748600   29.730500
  H    -12.396100   45.437700   30.414300
  H    -13.816400   44.580800   29.981400
  C    -12.563500   45.160700   28.236100
  H    -13.112100   44.515900   27.572800
  H    -11.543800   45.325200   27.902000
  H    -13.050800   46.125700   28.113000
  H    -16.685100   41.384100   32.675300
  H    -10.414500   40.254300   26.997400

 Total Charge           Charge          ....    0
 Multiplicity           Mult            ....    1
 Number of Electrons    NEL             ....  134
 Basis Dimension        Dim             ....  322

ORBITAL ENERGIES
----------------

  NO   OCC          E(Eh)            E(eV)
   0   2.0000     -88.968164     -2420.9468
   1   2.0000     -88.967928     -2420.9404
   2   2.0000     -10.330793      -281.1152
   3   2.0000     -10.325066      -280.9593
   4   2.0000     -10.320035      -280.8224
   5   2.0000     -10.318962      -280.7932
   6   2.0000     -10.306196      -280.4459
   7   2.0000     -10.303928      -280.3841
   8   2.0000     -10.299934      -280.2755
   9   2.0000     -10.293415      -280.0981
  10   2.0000     -10.287783      -279.9448
  11   2.0000     -10.287540      -279.9382
  12   2.0000     -10.281404      -279.7712
  13   2.0000     -10.278859      -279.7020
  14   2.0000     -10.274365      -279.5797
  15   2.0000     -10.272736      -279.5354
  16   2.0000      -8.083004      -219.9497
  17   2.0000      -8.082171      -219.9271
  18   2.0000      -6.041450      -164.3962
  19   2.0000      -6.040771      -164.3777
  20   2.0000      -6.037181      -164.2800
  21   2.0000      -6.036658      -164.2658
  22   2.0000      -6.034091      -164.1960
  23   2.0000      -6.032983      -164.1658
  24   2.0000      -1.008443       -27.4411
  25   2.0000      -0.982731       -26.7415
  26   2.0000      -0.917167       -24.9574
  27   2.0000      -0.894620       -24.3438
  28   2.0000      -0.871451       -23.7134
  29   2.0000      -0.846937       -23.0463
  30   2.0000      -0.840622       -22.8745
  31   2.0000      -0.814207       -22.1557
  32   2.0000      -0.785135       -21.3646
  33   2.0000      -0.775341       -21.0981
  34   2.0000      -0.714694       -19.4478
  35   2.0000      -0.700607       -19.0645
  36   2.0000      -0.687625       -18.7112
  37   2.0000      -0.666899       -18.1473
  38   2.0000      -0.637647       -17.3513
  39   2.0000      -0.619979       -16.8705
  40   2.0000      -0.590197       -16.0601
  41   2.0000      -0.573073       -15.5941
  42   2.0000      -0.554377       -15.0854
  43   2.0000      -0.550884       -14.9903
  44   2.0000      -0.546886       -14.8815
  45   2.0000      -0.529254       -14.4017
  46   2.0000      -0.521736       -14.1971
  47   2.0000      -0.517069       -14.0702
  48   2.0000      -0.501330       -13.6419
  49   2.0000      -0.488995       -13.3062
  50   2.0000      -0.483743       -13.1633
  51   2.0000      -0.481667       -13.1068
  52   2.0000      -0.476332       -12.9617
  53   2.0000      -0.471381       -12.8269
  54   2.0000      -0.460892       -12.5415
  55   2.0000      -0.446093       -12.1388
  56   2.0000      -0.442849       -12.0505
  57   2.0000      -0.434756       -11.8303
  58   2.0000      -0.430888       -11.7251
  59   2.0000      -0.422673       -11.5015
  60   2.0000      -0.416290       -11.3278
  61   2.0000      -0.412876       -11.2349
  62   2.0000      -0.407613       -11.0917
  63   2.0000      -0.342555        -9.3214
  64   2.0000      -0.329656        -8.9704
  65   2.0000      -0.325844        -8.8667
  66   2.0000      -0.296299        -8.0627
  67   0.0000       0.030076         0.8184
  68   0.0000       0.062413         1.6984
  69   0.0000       0.110778         3.0144
  70   0.0000       0.118632         3.2281
  71   0.0000       0.126010         3.4289

MULLIKEN ATOMIC CHARGES
-----------------------
   0 S :    0.107771
   1 C :   -0.112727
   2 C :   -0.109621
   3 C :    0.044759
   4 C :   -0.170848
   5 H :    0.017778
   6 C :    0.039538
   7 H :    0.017207
   8 H :    0.022216
   9 C :   -0.006614
  10 H :    0.028994
  11 H :    0.001299
  12 C :   -0.051424
  13 H :    0.033053
  14 H :    0.040165
  15 H :    0.021436
  16 S :    0.119981
  17 C :   -0.091896
  18 C :   -0.004210
  19 C :   -0.007015
  20 C :   -0.158736
  21 H :   -0.003116
  22 C :   -0.002534
  23 H :    0.021209
  24 H :    0.029830
  25 C :   -0.061201
  26 H :    0.015487
  27 H :    0.034570
  28 C :   -0.034669
  29 H :    0.037501
  30 H :    0.031716
  31 H :    0.024192
  32 H :    0.060364
  33 H :    0.065546
Sum of atomic charges:   -0.0000000

LOEWDIN ATOMIC CHARGES
----------------------
   0 S :    0.424038
   1 C :   -0.207358
   2 C :   -0.064878
   3 C :   -0.061347
   4 C :   -0.189197
   5 H :    0.032741
   6 C :   -0.035512
   7 H :    0.027840
   8 H :    0.030326
   9 C :   -0.022100
  10 H :    0.025939
  11 H :    0.010115
  12 C :   -0.064578
  13 H :    0.028814
  14 H :    0.025449
  15 H :    0.023171
  16 S :    0.434904
  17 C :   -0.195179
  18 C :   -0.056484
  19 C :   -0.052566
  20 C :   -0.222402
  21 H :    0.017966
  22 C :   -0.047407
  23 H :    0.026534
  24 H :    0.018399
  25 C :   -0.027280
  26 H :    0.013524
  27 H :    0.025248
  28 C :   -0.068029
  29 H :    0.026225
  30 H :    0.023463
  31 H :    0.027783
  32 H :    0.038216
  33 H :    0.033620

  Mayer bond orders larger than 0.100000
B(  0-S ,  1-C ) :   1.1383 B(  0-S ,  4-C ) :   1.1480 B(  1-C ,  2-C ) :   1.6104
B(  1-C , 32-H ) :   0.9590 B(  2-C ,  3-C ) :   1.2218 B(  2-C ,  6-C ) :   1.0465
B(  3-C ,  4-C ) :   1.6016 B(  3-C ,  5-H ) :   0.9861 B(  4-C , 20-C ) :   1.0240
B(  6-C ,  7-H ) :   0.9289 B(  6-C ,  8-H ) :   0.9398 B(  6-C ,  9-C ) :   1.0800
B(  9-C , 10-H ) :   0.9515 B(  9-C , 11-H ) :   0.9558 B(  9-C , 12-C ) :   1.0663
B( 12-C , 13-H ) :   0.9766 B( 12-C , 14-H ) :   0.9799 B( 12-C , 15-H ) :   0.9750
B( 16-S , 17-C ) :   1.1727 B( 16-S , 20-C ) :   1.1581 B( 17-C , 18-C ) :   1.5640
B( 17-C , 20-C ) :   0.1032 B( 17-C , 33-H ) :   0.9693 B( 18-C , 19-C ) :   1.2806
B( 18-C , 21-H ) :   0.9940 B( 19-C , 20-C ) :   1.5370 B( 19-C , 22-C ) :   1.0488
B( 22-C , 23-H ) :   0.9453 B( 22-C , 24-H ) :   0.9406 B( 22-C , 25-C ) :   1.0494
B( 25-C , 26-H ) :   0.9600 B( 25-C , 27-H ) :   0.9615 B( 25-C , 28-C ) :   1.0851
B( 28-C , 29-H ) :   0.9705 B( 28-C , 30-H ) :   0.9776 B( 28-C , 31-H ) :   0.9723

Dispersion correction           -0.015058522
FINAL SINGLE POINT ENERGY     -1339.864694102324

DIPOLE MOMENT
-------------
                                X             Y             Z
Electronic contribution:     13.41223      -9.27068      -0.21800
Nuclear contribution   :    -13.65202       9.54321       0.13309
                        -----------------------------------------
Total Dipole Moment    :     -0.23979       0.27253      -0.08491
                        -----------------------------------------
Magnitude (a.u.)       :      0.37280
Magnitude (Debye)      :      0.94758

Rotational constants in cm-1:     0.022248     0.008132     0.007102
Rotational constants in MHz :   666.967260   243.802700   212.916248

                             ****ORCA TERMINATED NORMALLY****
TOTAL RUN TIME: 0 days 0 hours 0 minutes 32 seconds 664 msec
