                         Program Version 4.2.1 -  RELEASE  -
|  1> ! wB97X-D3 SP def2-SVP
|  2> %pal
|  3> nprocs 16
|  4> end
|  5>
|  6> * xyz 0 1
|  7> S 	 -37.3916 	 57.3819 	 111.303
|  8> C 	 -36.6876 	 58.8956 	 110.711
|  9> C 	 -35.7146 	 59.408 	 111.548
| 10> C 	 -35.843 	 58.7699 	 112.807
| 11> C 	 -36.6577 	 57.7146 	 112.859
| 12> H 	 -35.2852 	 59.0325 	 113.694
| 13> C 	 -34.8909 	 60.6181 	 111.314
| 14> H 	 -33.8348 	 60.3811 	 111.313
| 15> H 	 -35.0045 	 61.2932 	 112.183
| 16> C 	 -35.1933 	 61.4794 	 110.036
| 17> H 	 -35.0512 	 60.7231 	 109.273
| 18> H 	 -36.321 	 61.6278 	 110.072
| 19> C 	 -34.3465 	 62.6785 	 109.762
| 20> H 	 -33.2846 	 62.5694 	 109.843
| 21> H 	 -34.6476 	 63.0668 	 108.74
| 22> H 	 -34.5616 	 63.5474 	 110.356
| 23> S 	 -36.4299 	 55.0655 	 113.511
| 24> C 	 -36.3707 	 54.6947 	 115.213
| 25> C 	 -36.8389 	 55.707 	 116.035
| 26> C 	 -37.0225 	 56.8877 	 115.238
| 27> C 	 -36.7109 	 56.7305 	 113.935
| 28> H 	 -36.8569 	 55.5938 	 117.066
| 29> C 	 -37.2898 	 58.2564 	 115.833
| 30> H 	 -37.898 	 58.7464 	 115.07
| 31> H 	 -36.3609 	 58.7973 	 115.97
| 32> C 	 -38.0174 	 58.3135 	 117.137
| 33> H 	 -37.5372 	 57.6739 	 117.841
| 34> H 	 -39.0166 	 57.8671 	 117.097
| 35> C 	 -38.0864 	 59.7023 	 117.683
| 36> H 	 -38.9323 	 60.1529 	 117.247
| 37> H 	 -37.1313 	 60.3024 	 117.519
| 38> H 	 -38.3366 	 59.7409 	 118.74
| 39> H 	 -36.7522 	 59.3083 	 109.668
| 40> H 	 -36.0627 	 53.7477 	 115.566
| 41> *
| 42>
| 43>                          ****END OF INPUT****

CARTESIAN COORDINATES (ANGSTROEM)
---------------------------------
  S    -37.391600   57.381900  111.303000
  C    -36.687600   58.895600  110.711000
  C    -35.714600   59.408000  111.548000
  C    -35.843000   58.769900  112.807000
  C    -36.657700   57.714600  112.859000
  H    -35.285200   59.032500  113.694000
  C    -34.890900   60.618100  111.314000
  H    -33.834800   60.381100  111.313000
  H    -35.004500   61.293200  112.183000
  C    -35.193300   61.479400  110.036000
  H    -35.051200   60.723100  109.273000
  H    -36.321000   61.627800  110.072000
  C    -34.346500   62.678500  109.762000
  H    -33.284600   62.569400  109.843000
  H    -34.647600   63.066800  108.740000
  H    -34.561600   63.547400  110.356000
  S    -36.429900   55.065500  113.511000
  C    -36.370700   54.694700  115.213000
  C    -36.838900   55.707000  116.035000
  C    -37.022500   56.887700  115.238000
  C    -36.710900   56.730500  113.935000
  H    -36.856900   55.593800  117.066000
  C    -37.289800   58.256400  115.833000
  H    -37.898000   58.746400  115.070000
  H    -36.360900   58.797300  115.970000
  C    -38.017400   58.313500  117.137000
  H    -37.537200   57.673900  117.841000
  H    -39.016600   57.867100  117.097000
  C    -38.086400   59.702300  117.683000
  H    -38.932300   60.152900  117.247000
  H    -37.131300   60.302400  117.519000
  H    -38.336600   59.740900  118.740000
  H    -36.752200   59.308300  109.668000
  H    -36.062700   53.747700  115.566000

 Total Charge           Charge          ....    0
 Multiplicity           Mult            ....    1
 Number of Electrons    NEL             ....  134
 Basis Dimension        Dim             ....  322

ORBITAL ENERGIES
----------------

  NO   OCC          E(Eh)            E(eV)
   0   2.0000     -88.965619     -2420.8776
   1   2.0000     -88.963104     -2420.8091
   2   2.0000     -10.321199      -280.8541
   3   2.0000     -10.316309      -280.7210
   4   2.0000     -10.316192      -280.7178
   5   2.0000     -10.313041      -280.6321
   6   2.0000     -10.299363      -280.2599
   7   2.0000     -10.295372      -280.1513
   8   2.0000     -10.294300      -280.1221
   9   2.0000     -10.293227      -280.0929
  10   2.0000     -10.290532      -280.0196
  11   2.0000     -10.285654      -279.8869
  12   2.0000     -10.284000      -279.8419
  13   2.0000     -10.283726      -279.8344
  14   2.0000     -10.276356      -279.6339
  15   2.0000     -10.274840      -279.5926
  16   2.0000      -8.080099      -219.8707
  17   2.0000      -8.078551      -219.8285
  18   2.0000      -6.038696      -164.3213
  19   2.0000      -6.036962      -164.2741
  20   2.0000      -6.034925      -164.2186
  21   2.0000      -6.033230      -164.1725
  22   2.0000      -6.030507      -164.0984
  23   2.0000      -6.029105      -164.0603
  24   2.0000      -1.012417       -27.5493
  25   2.0000      -0.987834       -26.8803
  26   2.0000      -0.917956       -24.9789
  27   2.0000      -0.914112       -24.8743
  28   2.0000      -0.870651       -23.6916
  29   2.0000      -0.858267       -23.3546
  30   2.0000      -0.849463       -23.1151
  31   2.0000      -0.818483       -22.2721
  32   2.0000      -0.785447       -21.3731
  33   2.0000      -0.772168       -21.0118
  34   2.0000      -0.714922       -19.4540
  35   2.0000      -0.704183       -19.1618
  36   2.0000      -0.690811       -18.7979
  37   2.0000      -0.660390       -17.9701
  38   2.0000      -0.635150       -17.2833
  39   2.0000      -0.615401       -16.7459
  40   2.0000      -0.601815       -16.3762
  41   2.0000      -0.576876       -15.6976
  42   2.0000      -0.572273       -15.5723
  43   2.0000      -0.568495       -15.4695
  44   2.0000      -0.529526       -14.4091
  45   2.0000      -0.522919       -14.2293
  46   2.0000      -0.520012       -14.1503
  47   2.0000      -0.517983       -14.0950
  48   2.0000      -0.503145       -13.6913
  49   2.0000      -0.496964       -13.5231
  50   2.0000      -0.489991       -13.3333
  51   2.0000      -0.475655       -12.9432
  52   2.0000      -0.474818       -12.9205
  53   2.0000      -0.468489       -12.7482
  54   2.0000      -0.461509       -12.5583
  55   2.0000      -0.456884       -12.4324
  56   2.0000      -0.454681       -12.3725
  57   2.0000      -0.437722       -11.9110
  58   2.0000      -0.432477       -11.7683
  59   2.0000      -0.427065       -11.6210
  60   2.0000      -0.422009       -11.4834
  61   2.0000      -0.411425       -11.1954
  62   2.0000      -0.405011       -11.0209
  63   2.0000      -0.348159        -9.4739
  64   2.0000      -0.331623        -9.0239
  65   2.0000      -0.329148        -8.9566
  66   2.0000      -0.290690        -7.9101
  67   0.0000       0.038478         1.0470
  68   0.0000       0.062590         1.7032
  69   0.0000       0.107027         2.9124
  70   0.0000       0.124535         3.3888
  71   0.0000       0.136599         3.7171

MULLIKEN ATOMIC CHARGES
-----------------------
   0 S :    0.104094
   1 C :   -0.139512
   2 C :   -0.061999
   3 C :    0.006761
   4 C :   -0.133026
   5 H :    0.004183
   6 C :    0.045642
   7 H :    0.031087
   8 H :    0.031218
   9 C :   -0.133211
  10 H :    0.031814
  11 H :    0.046457
  12 C :   -0.008235
  13 H :    0.033424
  14 H :    0.038057
  15 H :    0.023784
  16 S :    0.106584
  17 C :   -0.076196
  18 C :   -0.008809
  19 C :   -0.038230
  20 C :   -0.146345
  21 H :   -0.001785
  22 C :    0.057701
  23 H :    0.037085
  24 H :    0.034444
  25 C :   -0.076090
  26 H :    0.009335
  27 H :    0.024873
  28 C :   -0.024478
  29 H :    0.020916
  30 H :    0.039750
  31 H :    0.024286
  32 H :    0.061976
  33 H :    0.034444
Sum of atomic charges:   -0.0000000

LOEWDIN ATOMIC CHARGES
----------------------
   0 S :    0.384636
   1 C :   -0.199110
   2 C :   -0.062217
   3 C :   -0.057644
   4 C :   -0.187523
   5 H :    0.030552
   6 C :   -0.037222
   7 H :    0.031528
   8 H :    0.032592
   9 C :   -0.050455
  10 H :    0.020516
  11 H :    0.033374
  12 C :   -0.066916
  13 H :    0.025796
  14 H :    0.040383
  15 H :    0.024277
  16 S :    0.402127
  17 C :   -0.167175
  18 C :   -0.059980
  19 C :   -0.057787
  20 C :   -0.198647
  21 H :    0.021326
  22 C :   -0.030517
  23 H :    0.035450
  24 H :    0.029471
  25 C :   -0.047273
  26 H :    0.013550
  27 H :    0.027684
  28 C :   -0.062757
  29 H :    0.021464
  30 H :    0.032877
  31 H :    0.026531
  32 H :    0.035380
  33 H :    0.015710

  Mayer bond orders larger than 0.100000
B(  0-S ,  1-C ) :   1.1184 B(  0-S ,  4-C ) :   1.1159 B(  1-C ,  2-C ) :   1.6545
B(  1-C , 32-H ) :   0.9458 B(  2-C ,  3-C ) :   1.2105 B(  2-C ,  6-C ) :   1.0280
B(  3-C ,  4-C ) :   1.6262 B(  3-C ,  5-H ) :   0.9943 B(  4-C , 20-C ) :   1.0315
B(  6-C ,  7-H ) :   0.9217 B(  6-C ,  8-H ) :   0.9445 B(  6-C ,  9-C ) :   1.0723
B(  9-C , 10-H ) :   0.9511 B(  9-C , 11-H ) :   0.9523 B(  9-C , 12-C ) :   1.0846
B( 12-C , 13-H ) :   0.9721 B( 12-C , 14-H ) :   0.9679 B( 12-C , 15-H ) :   0.9711
B( 16-S , 17-C ) :   1.1599 B( 16-S , 20-C ) :   1.1173 B( 17-C , 18-C ) :   1.6241
B( 17-C , 33-H ) :   0.9705 B( 18-C , 19-C ) :   1.1955 B( 18-C , 21-H ) :   1.0065
B( 19-C , 20-C ) :   1.6600 B( 19-C , 22-C ) :   1.0405 B( 22-C , 23-H ) :   0.9251
B( 22-C , 24-H ) :   0.9309 B( 22-C , 25-C ) :   1.0861 B( 25-C , 26-H ) :   0.9442
B( 25-C , 27-H ) :   0.9503 B( 25-C , 28-C ) :   1.0923 B( 28-C , 29-H ) :   0.9731
B( 28-C , 30-H ) :   0.9709 B( 28-C , 31-H ) :   0.9689

Dispersion correction           -0.013295500
FINAL SINGLE POINT ENERGY     -1339.867555442500

DIPOLE MOMENT
-------------
                                X             Y             Z
Electronic contribution:     -3.96953     -27.10897      -7.23111
Nuclear contribution   :      4.31073      27.67846       7.58272
                        -----------------------------------------
Total Dipole Moment    :      0.34120       0.56949       0.35160
                        -----------------------------------------
Magnitude (a.u.)       :      0.75124
Magnitude (Debye)      :      1.90951

Rotational constants in cm-1:     0.019103     0.007598     0.005934
Rotational constants in MHz :   572.683552   227.782195   177.891008

                             ****ORCA TERMINATED NORMALLY****
TOTAL RUN TIME: 0 days 0 hours 0 minutes 29 seconds 197 msec
