                         Program Version 4.2.1 -  RELEASE  -
|  1> ! wB97X-D3 SP def2-SVP
|  2> %pal
|  3> nprocs 16
|  4> end
|  5>
|  6> * xyz 0 1
|  7> S 	 -3.39292 	 8.15205 	 82.0034
|  8> C 	 -4.57674 	 6.92577 	 82.2779
|  9> C 	 -5.78707 	 7.3133 	 81.7953
| 10> C 	 -5.79923 	 8.63758 	 81.1531
| 11> C 	 -4.57117 	 9.21998 	 81.2956
| 12> H 	 -6.65551 	 9.20647 	 80.6624
| 13> C 	 -7.04899 	 6.36197 	 81.7849
| 14> H 	 -7.00306 	 5.77745 	 82.7284
| 15> H 	 -7.02521 	 5.67582 	 80.9395
| 16> C 	 -8.3867 	 7.17265 	 81.7323
| 17> H 	 -9.2055 	 6.66731 	 82.1994
| 18> H 	 -8.19801 	 8.07058 	 82.3875
| 19> C 	 -8.77558 	 7.65706 	 80.3014
| 20> H 	 -9.42716 	 8.51791 	 80.3038
| 21> H 	 -7.84464 	 7.91481 	 79.8341
| 22> H 	 -9.38191 	 6.92405 	 79.707
| 23> S 	 -3.09205 	 10.7104 	 79.5546
| 24> C 	 -3.25151 	 12.4258 	 79.664
| 25> C 	 -4.03758 	 12.8153 	 80.7609
| 26> C 	 -4.64996 	 11.787 	 81.4426
| 27> C 	 -4.192 	 10.5522 	 80.9097
| 28> H 	 -4.08221 	 13.8763 	 80.8364
| 29> C 	 -5.67432 	 11.8948 	 82.5494
| 30> H 	 -5.18441 	 11.3825 	 83.4508
| 31> H 	 -6.58053 	 11.3672 	 82.2274
| 32> C 	 -6.03816 	 13.2946 	 83.0439
| 33> H 	 -6.32392 	 14.0552 	 82.2517
| 34> H 	 -5.10565 	 13.7347 	 83.4832
| 35> C 	 -7.11508 	 13.1494 	 84.1219
| 36> H 	 -7.90693 	 12.4559 	 83.8776
| 37> H 	 -7.54307 	 14.1114 	 84.4351
| 38> H 	 -6.70873 	 12.7317 	 85.0602
| 39> H 	 -4.3744 	 5.98103 	 82.7923
| 40> H 	 -2.82144 	 13.111 	 78.9488
| 41> *
| 42>
| 43>                          ****END OF INPUT****

CARTESIAN COORDINATES (ANGSTROEM)
---------------------------------
  S     -3.392920    8.152050   82.003400
  C     -4.576740    6.925770   82.277900
  C     -5.787070    7.313300   81.795300
  C     -5.799230    8.637580   81.153100
  C     -4.571170    9.219980   81.295600
  H     -6.655510    9.206470   80.662400
  C     -7.048990    6.361970   81.784900
  H     -7.003060    5.777450   82.728400
  H     -7.025210    5.675820   80.939500
  C     -8.386700    7.172650   81.732300
  H     -9.205500    6.667310   82.199400
  H     -8.198010    8.070580   82.387500
  C     -8.775580    7.657060   80.301400
  H     -9.427160    8.517910   80.303800
  H     -7.844640    7.914810   79.834100
  H     -9.381910    6.924050   79.707000
  S     -3.092050   10.710400   79.554600
  C     -3.251510   12.425800   79.664000
  C     -4.037580   12.815300   80.760900
  C     -4.649960   11.787000   81.442600
  C     -4.192000   10.552200   80.909700
  H     -4.082210   13.876300   80.836400
  C     -5.674320   11.894800   82.549400
  H     -5.184410   11.382500   83.450800
  H     -6.580530   11.367200   82.227400
  C     -6.038160   13.294600   83.043900
  H     -6.323920   14.055200   82.251700
  H     -5.105650   13.734700   83.483200
  C     -7.115080   13.149400   84.121900
  H     -7.906930   12.455900   83.877600
  H     -7.543070   14.111400   84.435100
  H     -6.708730   12.731700   85.060200
  H     -4.374400    5.981030   82.792300
  H     -2.821440   13.111000   78.948800

 Total Charge           Charge          ....    0
 Multiplicity           Mult            ....    1
 Number of Electrons    NEL             ....  134
 Basis Dimension        Dim             ....  322

ORBITAL ENERGIES
----------------

  NO   OCC          E(Eh)            E(eV)
   0   2.0000     -88.969051     -2420.9710
   1   2.0000     -88.961336     -2420.7610
   2   2.0000     -10.322058      -280.8775
   3   2.0000     -10.320385      -280.8320
   4   2.0000     -10.313032      -280.6319
   5   2.0000     -10.309830      -280.5447
   6   2.0000     -10.304204      -280.3916
   7   2.0000     -10.303793      -280.3805
   8   2.0000     -10.299826      -280.2725
   9   2.0000     -10.299195      -280.2553
  10   2.0000     -10.297855      -280.2189
  11   2.0000     -10.295644      -280.1587
  12   2.0000     -10.289269      -279.9852
  13   2.0000     -10.288648      -279.9683
  14   2.0000     -10.279881      -279.7298
  15   2.0000     -10.279671      -279.7241
  16   2.0000      -8.083834      -219.9723
  17   2.0000      -8.077012      -219.7867
  18   2.0000      -6.041957      -164.4100
  19   2.0000      -6.038296      -164.3104
  20   2.0000      -6.035515      -164.2347
  21   2.0000      -6.035064      -164.2224
  22   2.0000      -6.031381      -164.1222
  23   2.0000      -6.027727      -164.0228
  24   2.0000      -1.008879       -27.4530
  25   2.0000      -0.985072       -26.8052
  26   2.0000      -0.911682       -24.8081
  27   2.0000      -0.901410       -24.5286
  28   2.0000      -0.870269       -23.6812
  29   2.0000      -0.855802       -23.2876
  30   2.0000      -0.836572       -22.7643
  31   2.0000      -0.812825       -22.1181
  32   2.0000      -0.782574       -21.2949
  33   2.0000      -0.768399       -20.9092
  34   2.0000      -0.705960       -19.2101
  35   2.0000      -0.700008       -19.0482
  36   2.0000      -0.689365       -18.7586
  37   2.0000      -0.648980       -17.6596
  38   2.0000      -0.641115       -17.4456
  39   2.0000      -0.619074       -16.8459
  40   2.0000      -0.598733       -16.2924
  41   2.0000      -0.568890       -15.4803
  42   2.0000      -0.564009       -15.3475
  43   2.0000      -0.548045       -14.9131
  44   2.0000      -0.531565       -14.4646
  45   2.0000      -0.524074       -14.2608
  46   2.0000      -0.514308       -13.9950
  47   2.0000      -0.507631       -13.8133
  48   2.0000      -0.500703       -13.6248
  49   2.0000      -0.497797       -13.5458
  50   2.0000      -0.492562       -13.4033
  51   2.0000      -0.479083       -13.0365
  52   2.0000      -0.475522       -12.9396
  53   2.0000      -0.463879       -12.6228
  54   2.0000      -0.456960       -12.4345
  55   2.0000      -0.446325       -12.1451
  56   2.0000      -0.443462       -12.0672
  57   2.0000      -0.436805       -11.8861
  58   2.0000      -0.431506       -11.7419
  59   2.0000      -0.424991       -11.5646
  60   2.0000      -0.421301       -11.4642
  61   2.0000      -0.418265       -11.3816
  62   2.0000      -0.410418       -11.1680
  63   2.0000      -0.341457        -9.2915
  64   2.0000      -0.332764        -9.0550
  65   2.0000      -0.325889        -8.8679
  66   2.0000      -0.293170        -7.9776
  67   0.0000       0.037995         1.0339
  68   0.0000       0.062140         1.6909
  69   0.0000       0.122553         3.3348
  70   0.0000       0.127488         3.4691
  71   0.0000       0.130750         3.5579

MULLIKEN ATOMIC CHARGES
-----------------------
   0 S :    0.114341
   1 C :   -0.128557
   2 C :   -0.099662
   3 C :    0.011605
   4 C :   -0.179818
   5 H :    0.056206
   6 C :    0.056574
   7 H :    0.032854
   8 H :    0.048370
   9 C :   -0.100764
  10 H :    0.027622
  11 H :    0.034904
  12 C :   -0.064824
  13 H :    0.029943
  14 H :    0.037209
  15 H :    0.041089
  16 S :    0.137130
  17 C :   -0.105266
  18 C :   -0.066317
  19 C :    0.036049
  20 C :   -0.206240
  21 H :    0.004679
  22 C :    0.047321
  23 H :    0.058543
  24 H :    0.039169
  25 C :   -0.109066
  26 H :    0.043993
  27 H :    0.035523
  28 C :   -0.023355
  29 H :    0.026239
  30 H :    0.032732
  31 H :    0.024973
  32 H :    0.054213
  33 H :    0.052588
Sum of atomic charges:    0.0000000

LOEWDIN ATOMIC CHARGES
----------------------
   0 S :    0.411250
   1 C :   -0.209867
   2 C :   -0.062607
   3 C :   -0.077926
   4 C :   -0.200130
   5 H :    0.050472
   6 C :   -0.029392
   7 H :    0.033625
   8 H :    0.029650
   9 C :   -0.046809
  10 H :    0.018843
  11 H :    0.028595
  12 C :   -0.071496
  13 H :    0.024407
  14 H :    0.019845
  15 H :    0.031445
  16 S :    0.431190
  17 C :   -0.197498
  18 C :   -0.074687
  19 C :   -0.051358
  20 C :   -0.212020
  21 H :    0.027846
  22 C :   -0.035379
  23 H :    0.051692
  24 H :    0.032950
  25 C :   -0.051660
  26 H :    0.027821
  27 H :    0.029459
  28 C :   -0.067004
  29 H :    0.022906
  30 H :    0.027193
  31 H :    0.028509
  32 H :    0.034415
  33 H :    0.025723

  Mayer bond orders larger than 0.100000
B(  0-S ,  1-C ) :   1.1217 B(  0-S ,  4-C ) :   1.1602 B(  1-C ,  2-C ) :   1.6629
B(  1-C , 32-H ) :   0.9687 B(  2-C ,  3-C ) :   1.1983 B(  2-C ,  6-C ) :   1.0036
B(  3-C ,  4-C ) :   1.6176 B(  3-C ,  5-H ) :   0.9651 B(  4-C , 20-C ) :   1.0268
B(  6-C ,  7-H ) :   0.9455 B(  6-C ,  8-H ) :   0.9486 B(  6-C ,  9-C ) :   1.0619
B(  9-C , 10-H ) :   0.9620 B(  9-C , 11-H ) :   0.9610 B(  9-C , 12-C ) :   1.0584
B( 12-C , 13-H ) :   0.9752 B( 12-C , 14-H ) :   0.9745 B( 12-C , 15-H ) :   0.9713
B( 16-S , 17-C ) :   1.1773 B( 16-S , 20-C ) :   1.1847 B( 17-C , 18-C ) :   1.5654
B( 17-C , 20-C ) :   0.1240 B( 17-C , 33-H ) :   0.9659 B( 18-C , 19-C ) :   1.2731
B( 18-C , 21-H ) :   0.9989 B( 19-C , 20-C ) :   1.5330 B( 19-C , 22-C ) :   1.0235
B( 22-C , 23-H ) :   0.9267 B( 22-C , 24-H ) :   0.9325 B( 22-C , 25-C ) :   1.0826
B( 25-C , 26-H ) :   0.9538 B( 25-C , 27-H ) :   0.9488 B( 25-C , 28-C ) :   1.0795
B( 28-C , 29-H ) :   0.9749 B( 28-C , 30-H ) :   0.9727 B( 28-C , 31-H ) :   0.9713

Dispersion correction           -0.014238505
FINAL SINGLE POINT ENERGY     -1339.879679078995

DIPOLE MOMENT
-------------
                                X             Y             Z
Electronic contribution:     26.42233      -4.30998      -9.43858
Nuclear contribution   :    -26.98815       4.48269       9.61238
                        -----------------------------------------
Total Dipole Moment    :     -0.56582       0.17271       0.17379
                        -----------------------------------------
Magnitude (a.u.)       :      0.61659
Magnitude (Debye)      :      1.56725

Rotational constants in cm-1:     0.015504     0.009686     0.007419
Rotational constants in MHz :   464.795480   290.388819   222.416653

                             ****ORCA TERMINATED NORMALLY****
TOTAL RUN TIME: 0 days 0 hours 0 minutes 33 seconds 517 msec
