                         Program Version 4.2.1 -  RELEASE  -
|  1> ! wB97X-D3 SP def2-SVP
|  2> %pal
|  3> nprocs 16
|  4> end
|  5>
|  6> * xyz 0 1
|  7> S 	 -32.9339 	 56.9819 	 106.381
|  8> C 	 -31.9888 	 57.5439 	 105.003
|  9> C 	 -31.5724 	 58.8411 	 105.189
| 10> C 	 -32.3687 	 59.5239 	 106.202
| 11> C 	 -33.1869 	 58.6039 	 106.875
| 12> H 	 -32.2596 	 60.5158 	 106.492
| 13> C 	 -30.5731 	 59.535 	 104.35
| 14> H 	 -30.6754 	 60.618 	 104.578
| 15> H 	 -30.7025 	 59.469 	 103.203
| 16> C 	 -29.0898 	 59.0874 	 104.562
| 17> H 	 -28.7541 	 59.3583 	 105.562
| 18> H 	 -29.1019 	 57.9889 	 104.515
| 19> C 	 -28.0671 	 59.7643 	 103.618
| 20> H 	 -28.1169 	 60.8365 	 103.873
| 21> H 	 -27.0465 	 59.3802 	 103.783
| 22> H 	 -28.3436 	 59.5784 	 102.565
| 23> S 	 -33.388 	 58.0595 	 109.499
| 24> C 	 -34.5044 	 58.8281 	 110.493
| 25> C 	 -35.4639 	 59.5046 	 109.691
| 26> C 	 -35.1844 	 59.4723 	 108.261
| 27> C 	 -33.9883 	 58.7842 	 108.043
| 28> H 	 -36.3536 	 59.9651 	 110.015
| 29> C 	 -36.1495 	 60.0762 	 107.221
| 30> H 	 -37.126 	 59.7103 	 107.489
| 31> H 	 -35.868 	 59.7135 	 106.256
| 32> C 	 -36.168 	 61.5621 	 107.094
| 33> H 	 -35.1231 	 61.9161 	 106.989
| 34> H 	 -36.4338 	 61.9942 	 108.037
| 35> C 	 -36.9734 	 62.1696 	 105.856
| 36> H 	 -36.325 	 62.2778 	 104.987
| 37> H 	 -37.4219 	 63.2252 	 106.086
| 38> H 	 -37.8904 	 61.548 	 105.696
| 39> H 	 -31.5373 	 56.8412 	 104.33
| 40> H 	 -34.5481 	 58.7533 	 111.554
| 41> *
| 42>
| 43>                          ****END OF INPUT****

CARTESIAN COORDINATES (ANGSTROEM)
---------------------------------
  S    -32.933900   56.981900  106.381000
  C    -31.988800   57.543900  105.003000
  C    -31.572400   58.841100  105.189000
  C    -32.368700   59.523900  106.202000
  C    -33.186900   58.603900  106.875000
  H    -32.259600   60.515800  106.492000
  C    -30.573100   59.535000  104.350000
  H    -30.675400   60.618000  104.578000
  H    -30.702500   59.469000  103.203000
  C    -29.089800   59.087400  104.562000
  H    -28.754100   59.358300  105.562000
  H    -29.101900   57.988900  104.515000
  C    -28.067100   59.764300  103.618000
  H    -28.116900   60.836500  103.873000
  H    -27.046500   59.380200  103.783000
  H    -28.343600   59.578400  102.565000
  S    -33.388000   58.059500  109.499000
  C    -34.504400   58.828100  110.493000
  C    -35.463900   59.504600  109.691000
  C    -35.184400   59.472300  108.261000
  C    -33.988300   58.784200  108.043000
  H    -36.353600   59.965100  110.015000
  C    -36.149500   60.076200  107.221000
  H    -37.126000   59.710300  107.489000
  H    -35.868000   59.713500  106.256000
  C    -36.168000   61.562100  107.094000
  H    -35.123100   61.916100  106.989000
  H    -36.433800   61.994200  108.037000
  C    -36.973400   62.169600  105.856000
  H    -36.325000   62.277800  104.987000
  H    -37.421900   63.225200  106.086000
  H    -37.890400   61.548000  105.696000
  H    -31.537300   56.841200  104.330000
  H    -34.548100   58.753300  111.554000

 Total Charge           Charge          ....    0
 Multiplicity           Mult            ....    1
 Number of Electrons    NEL             ....  134
 Basis Dimension        Dim             ....  322

ORBITAL ENERGIES
----------------

  NO   OCC          E(Eh)            E(eV)
   0   2.0000     -88.965358     -2420.8705
   1   2.0000     -88.964907     -2420.8582
   2   2.0000     -10.326472      -280.9976
   3   2.0000     -10.320892      -280.8458
   4   2.0000     -10.316362      -280.7225
   5   2.0000     -10.310789      -280.5708
   6   2.0000     -10.305731      -280.4332
   7   2.0000     -10.303234      -280.3653
   8   2.0000     -10.299142      -280.2539
   9   2.0000     -10.296422      -280.1799
  10   2.0000     -10.294228      -280.1202
  11   2.0000     -10.293637      -280.1041
  12   2.0000     -10.288817      -279.9730
  13   2.0000     -10.288368      -279.9607
  14   2.0000     -10.285393      -279.8798
  15   2.0000     -10.284911      -279.8667
  16   2.0000      -8.081672      -219.9135
  17   2.0000      -8.080408      -219.8791
  18   2.0000      -6.040061      -164.3584
  19   2.0000      -6.038778      -164.3235
  20   2.0000      -6.035757      -164.2413
  21   2.0000      -6.034955      -164.2195
  22   2.0000      -6.032651      -164.1568
  23   2.0000      -6.031115      -164.1150
  24   2.0000      -1.012597       -27.5542
  25   2.0000      -0.985700       -26.8223
  26   2.0000      -0.911060       -24.7912
  27   2.0000      -0.909674       -24.7535
  28   2.0000      -0.869435       -23.6585
  29   2.0000      -0.849691       -23.1213
  30   2.0000      -0.843423       -22.9507
  31   2.0000      -0.809735       -22.0340
  32   2.0000      -0.781631       -21.2692
  33   2.0000      -0.770196       -20.9581
  34   2.0000      -0.702929       -19.1277
  35   2.0000      -0.698396       -19.0043
  36   2.0000      -0.694227       -18.8909
  37   2.0000      -0.666096       -18.1254
  38   2.0000      -0.645939       -17.5769
  39   2.0000      -0.618326       -16.8255
  40   2.0000      -0.599741       -16.3198
  41   2.0000      -0.569305       -15.4916
  42   2.0000      -0.566357       -15.4113
  43   2.0000      -0.556989       -15.1564
  44   2.0000      -0.524218       -14.2647
  45   2.0000      -0.521980       -14.2038
  46   2.0000      -0.516503       -14.0548
  47   2.0000      -0.510044       -13.8790
  48   2.0000      -0.505687       -13.7604
  49   2.0000      -0.503086       -13.6897
  50   2.0000      -0.496740       -13.5170
  51   2.0000      -0.479372       -13.0444
  52   2.0000      -0.471829       -12.8391
  53   2.0000      -0.461728       -12.5643
  54   2.0000      -0.456766       -12.4292
  55   2.0000      -0.453770       -12.3477
  56   2.0000      -0.444222       -12.0879
  57   2.0000      -0.435698       -11.8559
  58   2.0000      -0.429309       -11.6821
  59   2.0000      -0.428363       -11.6564
  60   2.0000      -0.420649       -11.4464
  61   2.0000      -0.416664       -11.3380
  62   2.0000      -0.411820       -11.2062
  63   2.0000      -0.337031        -9.1711
  64   2.0000      -0.331464        -9.0196
  65   2.0000      -0.326206        -8.8765
  66   2.0000      -0.294982        -8.0269
  67   0.0000       0.036812         1.0017
  68   0.0000       0.055555         1.5117
  69   0.0000       0.103531         2.8172
  70   0.0000       0.117150         3.1878
  71   0.0000       0.128574         3.4987

MULLIKEN ATOMIC CHARGES
-----------------------
   0 S :    0.106580
   1 C :   -0.106111
   2 C :   -0.064371
   3 C :    0.074496
   4 C :   -0.159339
   5 H :   -0.008760
   6 C :    0.001072
   7 H :    0.020120
   8 H :    0.046782
   9 C :   -0.088372
  10 H :    0.025307
  11 H :    0.028439
  12 C :   -0.053251
  13 H :    0.039307
  14 H :    0.045953
  15 H :    0.034641
  16 S :    0.133333
  17 C :   -0.077436
  18 C :   -0.026625
  19 C :   -0.042049
  20 C :   -0.200623
  21 H :   -0.003414
  22 C :    0.127919
  23 H :    0.023006
  24 H :    0.015965
  25 C :   -0.078996
  26 H :    0.023307
  27 H :    0.013197
  28 C :   -0.089939
  29 H :    0.052139
  30 H :    0.046764
  31 H :    0.041917
  32 H :    0.044646
  33 H :    0.054397
Sum of atomic charges:    0.0000000

LOEWDIN ATOMIC CHARGES
----------------------
   0 S :    0.417458
   1 C :   -0.188784
   2 C :   -0.059442
   3 C :   -0.048033
   4 C :   -0.201444
   5 H :    0.021336
   6 C :   -0.045963
   7 H :    0.028794
   8 H :    0.040642
   9 C :   -0.041322
  10 H :    0.021820
  11 H :    0.019644
  12 C :   -0.067448
  13 H :    0.029596
  14 H :    0.030949
  15 H :    0.023659
  16 S :    0.448423
  17 C :   -0.207750
  18 C :   -0.066873
  19 C :   -0.047827
  20 C :   -0.219931
  21 H :    0.017824
  22 C :   -0.024613
  23 H :    0.029879
  24 H :    0.028585
  25 C :   -0.046396
  26 H :    0.025780
  27 H :    0.015305
  28 C :   -0.075166
  29 H :    0.027106
  30 H :    0.038660
  31 H :    0.028218
  32 H :    0.020910
  33 H :    0.026404

  Mayer bond orders larger than 0.100000
B(  0-S ,  1-C ) :   1.1309 B(  0-S ,  4-C ) :   1.1740 B(  1-C ,  2-C ) :   1.6119
B(  1-C , 32-H ) :   0.9724 B(  2-C ,  3-C ) :   1.2218 B(  2-C ,  6-C ) :   1.0356
B(  3-C ,  4-C ) :   1.5637 B(  3-C ,  5-H ) :   1.0057 B(  4-C , 20-C ) :   1.0190
B(  6-C ,  7-H ) :   0.9397 B(  6-C ,  8-H ) :   0.9462 B(  6-C ,  9-C ) :   1.0444
B(  9-C , 10-H ) :   0.9557 B(  9-C , 11-H ) :   0.9617 B(  9-C , 12-C ) :   1.0760
B( 12-C , 13-H ) :   0.9751 B( 12-C , 14-H ) :   0.9746 B( 12-C , 15-H ) :   0.9752
B( 16-S , 17-C ) :   1.1824 B( 16-S , 20-C ) :   1.1670 B( 17-C , 18-C ) :   1.5470
B( 17-C , 20-C ) :   0.1045 B( 17-C , 33-H ) :   0.9772 B( 18-C , 19-C ) :   1.2695
B( 18-C , 21-H ) :   0.9923 B( 19-C , 20-C ) :   1.5755 B( 19-C , 22-C ) :   1.0425
B( 22-C , 23-H ) :   0.9273 B( 22-C , 24-H ) :   0.9298 B( 22-C , 25-C ) :   1.0724
B( 25-C , 26-H ) :   0.9554 B( 25-C , 27-H ) :   0.9579 B( 25-C , 28-C ) :   1.0590
B( 28-C , 29-H ) :   0.9785 B( 28-C , 30-H ) :   0.9769 B( 28-C , 31-H ) :   0.9774

Dispersion correction           -0.013468549
FINAL SINGLE POINT ENERGY     -1339.870315658240

DIPOLE MOMENT
-------------
                                X             Y             Z
Electronic contribution:     -3.58324     -19.04786      16.89466
Nuclear contribution   :      3.67350      19.44995     -17.03154
                        -----------------------------------------
Total Dipole Moment    :      0.09025       0.40209      -0.13688
                        -----------------------------------------
Magnitude (a.u.)       :      0.43423
Magnitude (Debye)      :      1.10373

Rotational constants in cm-1:     0.018463     0.007679     0.006235
Rotational constants in MHz :   553.504839   230.203677   186.924331

                             ****ORCA TERMINATED NORMALLY****
TOTAL RUN TIME: 0 days 0 hours 0 minutes 28 seconds 768 msec
