                         Program Version 4.2.1 -  RELEASE  -
|  1> ! wB97X-D3 SP def2-SVP
|  2> %pal
|  3> nprocs 16
|  4> end
|  5>
|  6> * xyz 0 1
|  7> S 	 -93.9149 	 57.1435 	 131.881
|  8> C 	 -92.5968 	 58.346 	 131.962
|  9> C 	 -93.0781 	 59.6404 	 132.153
| 10> C 	 -94.4912 	 59.7292 	 132.031
| 11> C 	 -95.0958 	 58.4915 	 132.105
| 12> H 	 -95.0089 	 60.645 	 132.111
| 13> C 	 -92.2164 	 60.8584 	 132.477
| 14> H 	 -91.6909 	 61.0349 	 131.563
| 15> H 	 -91.3983 	 60.6919 	 133.163
| 16> C 	 -93.0122 	 62.1102 	 132.916
| 17> H 	 -93.726 	 62.5275 	 132.161
| 18> H 	 -93.759 	 61.8068 	 133.712
| 19> C 	 -91.9743 	 63.1563 	 133.396
| 20> H 	 -92.3621 	 64.2387 	 133.344
| 21> H 	 -91.8778 	 62.8069 	 134.405
| 22> H 	 -91.0031 	 63.1865 	 132.953
| 23> S 	 -97.0928 	 57.2906 	 133.567
| 24> C 	 -98.7636 	 57.4596 	 133.011
| 25> C 	 -98.846 	 57.9678 	 131.748
| 26> C 	 -97.566 	 58.3451 	 131.299
| 27> C 	 -96.51 	 58.1879 	 132.191
| 28> H 	 -99.8862 	 58.131 	 131.331
| 29> C 	 -97.4764 	 58.9745 	 129.916
| 30> H 	 -96.6744 	 59.7571 	 129.744
| 31> H 	 -98.4276 	 59.3921 	 129.544
| 32> C 	 -97.0709 	 57.8212 	 128.915
| 33> H 	 -97.741 	 56.8847 	 129.058
| 34> H 	 -96.0521 	 57.4399 	 129.287
| 35> C 	 -97.0022 	 58.1567 	 127.46
| 36> H 	 -96.0991 	 58.6331 	 127.279
| 37> H 	 -97.6809 	 58.8831 	 126.979
| 38> H 	 -96.892 	 57.2252 	 126.909
| 39> H 	 -91.5457 	 58.1012 	 131.904
| 40> H 	 -99.6544 	 56.9624 	 133.452
| 41> *
| 42>
| 43>                          ****END OF INPUT****

CARTESIAN COORDINATES (ANGSTROEM)
---------------------------------
  S    -93.914900   57.143500  131.881000
  C    -92.596800   58.346000  131.962000
  C    -93.078100   59.640400  132.153000
  C    -94.491200   59.729200  132.031000
  C    -95.095800   58.491500  132.105000
  H    -95.008900   60.645000  132.111000
  C    -92.216400   60.858400  132.477000
  H    -91.690900   61.034900  131.563000
  H    -91.398300   60.691900  133.163000
  C    -93.012200   62.110200  132.916000
  H    -93.726000   62.527500  132.161000
  H    -93.759000   61.806800  133.712000
  C    -91.974300   63.156300  133.396000
  H    -92.362100   64.238700  133.344000
  H    -91.877800   62.806900  134.405000
  H    -91.003100   63.186500  132.953000
  S    -97.092800   57.290600  133.567000
  C    -98.763600   57.459600  133.011000
  C    -98.846000   57.967800  131.748000
  C    -97.566000   58.345100  131.299000
  C    -96.510000   58.187900  132.191000
  H    -99.886200   58.131000  131.331000
  C    -97.476400   58.974500  129.916000
  H    -96.674400   59.757100  129.744000
  H    -98.427600   59.392100  129.544000
  C    -97.070900   57.821200  128.915000
  H    -97.741000   56.884700  129.058000
  H    -96.052100   57.439900  129.287000
  C    -97.002200   58.156700  127.460000
  H    -96.099100   58.633100  127.279000
  H    -97.680900   58.883100  126.979000
  H    -96.892000   57.225200  126.909000
  H    -91.545700   58.101200  131.904000
  H    -99.654400   56.962400  133.452000

 Total Charge           Charge          ....    0
 Multiplicity           Mult            ....    1
 Number of Electrons    NEL             ....  134
 Basis Dimension        Dim             ....  322

ORBITAL ENERGIES
----------------

  NO   OCC          E(Eh)            E(eV)
   0   2.0000     -88.968521     -2420.9565
   1   2.0000     -88.964084     -2420.8358
   2   2.0000     -10.334135      -281.2061
   3   2.0000     -10.323652      -280.9209
   4   2.0000     -10.317022      -280.7404
   5   2.0000     -10.315397      -280.6962
   6   2.0000     -10.303827      -280.3814
   7   2.0000     -10.302918      -280.3567
   8   2.0000     -10.299978      -280.2767
   9   2.0000     -10.294965      -280.1402
  10   2.0000     -10.294658      -280.1319
  11   2.0000     -10.294165      -280.1185
  12   2.0000     -10.293485      -280.1000
  13   2.0000     -10.290307      -280.0135
  14   2.0000     -10.284288      -279.8497
  15   2.0000     -10.266481      -279.3652
  16   2.0000      -8.081543      -219.9100
  17   2.0000      -8.078727      -219.8333
  18   2.0000      -6.040162      -164.3612
  19   2.0000      -6.037253      -164.2820
  20   2.0000      -6.036396      -164.2587
  21   2.0000      -6.033266      -164.1735
  22   2.0000      -6.032181      -164.1440
  23   2.0000      -6.029447      -164.0696
  24   2.0000      -1.004604       -27.3367
  25   2.0000      -0.980452       -26.6795
  26   2.0000      -0.911558       -24.8048
  27   2.0000      -0.899338       -24.4722
  28   2.0000      -0.870364       -23.6838
  29   2.0000      -0.848595       -23.0915
  30   2.0000      -0.845979       -23.0203
  31   2.0000      -0.817332       -22.2407
  32   2.0000      -0.779376       -21.2079
  33   2.0000      -0.765447       -20.8289
  34   2.0000      -0.715970       -19.4825
  35   2.0000      -0.692921       -18.8553
  36   2.0000      -0.680076       -18.5058
  37   2.0000      -0.655625       -17.8405
  38   2.0000      -0.641524       -17.4568
  39   2.0000      -0.626352       -17.0439
  40   2.0000      -0.593555       -16.1514
  41   2.0000      -0.568874       -15.4798
  42   2.0000      -0.563578       -15.3357
  43   2.0000      -0.547444       -14.8967
  44   2.0000      -0.526009       -14.3134
  45   2.0000      -0.520574       -14.1655
  46   2.0000      -0.511469       -13.9178
  47   2.0000      -0.508721       -13.8430
  48   2.0000      -0.502923       -13.6852
  49   2.0000      -0.500005       -13.6058
  50   2.0000      -0.495519       -13.4837
  51   2.0000      -0.476698       -12.9716
  52   2.0000      -0.474278       -12.9058
  53   2.0000      -0.464482       -12.6392
  54   2.0000      -0.460846       -12.5403
  55   2.0000      -0.451344       -12.2817
  56   2.0000      -0.445826       -12.1315
  57   2.0000      -0.441353       -12.0098
  58   2.0000      -0.427494       -11.6327
  59   2.0000      -0.418715       -11.3938
  60   2.0000      -0.413504       -11.2520
  61   2.0000      -0.409396       -11.1402
  62   2.0000      -0.397386       -10.8134
  63   2.0000      -0.341918        -9.3041
  64   2.0000      -0.331496        -9.0205
  65   2.0000      -0.324778        -8.8376
  66   2.0000      -0.294026        -8.0009
  67   0.0000       0.033248         0.9047
  68   0.0000       0.054800         1.4912
  69   0.0000       0.111481         3.0336
  70   0.0000       0.118893         3.2352
  71   0.0000       0.127882         3.4799

MULLIKEN ATOMIC CHARGES
-----------------------
   0 S :    0.107747
   1 C :   -0.124651
   2 C :   -0.095984
   3 C :    0.063562
   4 C :   -0.150124
   5 H :    0.003145
   6 C :    0.082495
   7 H :    0.031504
   8 H :    0.028697
   9 C :   -0.145518
  10 H :    0.040631
  11 H :    0.049556
  12 C :   -0.046327
  13 H :    0.047807
  14 H :    0.036872
  15 H :    0.035726
  16 S :    0.104560
  17 C :   -0.103204
  18 C :   -0.061202
  19 C :    0.003049
  20 C :   -0.172188
  21 H :    0.051906
  22 C :    0.054506
  23 H :    0.035579
  24 H :    0.022455
  25 C :   -0.164807
  26 H :    0.035249
  27 H :    0.037297
  28 C :    0.018356
  29 H :    0.001817
  30 H :    0.030811
  31 H :    0.031778
  32 H :    0.042391
  33 H :    0.066507
Sum of atomic charges:    0.0000000

LOEWDIN ATOMIC CHARGES
----------------------
   0 S :    0.371698
   1 C :   -0.190406
   2 C :   -0.057012
   3 C :   -0.048747
   4 C :   -0.171337
   5 H :    0.027848
   6 C :   -0.031934
   7 H :    0.034239
   8 H :    0.031772
   9 C :   -0.050103
  10 H :    0.022217
  11 H :    0.030290
  12 C :   -0.069070
  13 H :    0.036328
  14 H :    0.029421
  15 H :    0.021632
  16 S :    0.402661
  17 C :   -0.183857
  18 C :   -0.081380
  19 C :   -0.051487
  20 C :   -0.214263
  21 H :    0.050393
  22 C :   -0.035791
  23 H :    0.033400
  24 H :    0.025773
  25 C :   -0.052011
  26 H :    0.024913
  27 H :    0.028966
  28 C :   -0.076806
  29 H :    0.017717
  30 H :    0.028941
  31 H :    0.033414
  32 H :    0.025303
  33 H :    0.037280

  Mayer bond orders larger than 0.100000
B(  0-S ,  1-C ) :   1.1195 B(  0-S ,  4-C ) :   1.1329 B(  1-C ,  2-C ) :   1.6339
B(  1-C ,  4-C ) :   0.1071 B(  1-C , 32-H ) :   0.9726 B(  2-C ,  3-C ) :   1.2416
B(  2-C ,  6-C ) :   0.9900 B(  3-C ,  4-C ) :   1.5921 B(  3-C ,  5-H ) :   0.9881
B(  4-C , 20-C ) :   1.0432 B(  6-C ,  7-H ) :   0.9216 B(  6-C ,  8-H ) :   0.9521
B(  6-C ,  9-C ) :   1.0686 B(  9-C , 10-H ) :   0.9492 B(  9-C , 11-H ) :   0.9645
B(  9-C , 12-C ) :   1.0480 B( 12-C , 13-H ) :   0.9755 B( 12-C , 14-H ) :   0.9788
B( 12-C , 15-H ) :   0.9780 B( 16-S , 17-C ) :   1.1592 B( 16-S , 20-C ) :   1.1286
B( 17-C , 18-C ) :   1.6283 B( 17-C , 20-C ) :   0.1015 B( 17-C , 33-H ) :   0.9556
B( 18-C , 19-C ) :   1.2430 B( 18-C , 21-H ) :   0.9808 B( 19-C , 20-C ) :   1.5860
B( 19-C , 22-C ) :   1.0490 B( 22-C , 23-H ) :   0.9426 B( 22-C , 24-H ) :   0.9421
B( 22-C , 25-C ) :   1.0380 B( 25-C , 26-H ) :   0.9627 B( 25-C , 27-H ) :   0.9534
B( 25-C , 28-C ) :   1.0786 B( 28-C , 29-H ) :   0.9633 B( 28-C , 30-H ) :   0.9720
B( 28-C , 31-H ) :   0.9673

Dispersion correction           -0.014047549
FINAL SINGLE POINT ENERGY     -1339.850570837781

DIPOLE MOMENT
-------------
                                X             Y             Z
Electronic contribution:     -5.39772     -18.83969      12.61338
Nuclear contribution   :      5.51348      19.39693     -12.86485
                        -----------------------------------------
Total Dipole Moment    :      0.11576       0.55723      -0.25147
                        -----------------------------------------
Magnitude (a.u.)       :      0.62221
Magnitude (Debye)      :      1.58153

Rotational constants in cm-1:     0.017865     0.007926     0.007213
Rotational constants in MHz :   535.573266   237.628645   216.225669

                             ****ORCA TERMINATED NORMALLY****
TOTAL RUN TIME: 0 days 0 hours 0 minutes 34 seconds 85 msec
