                         Program Version 4.2.1 -  RELEASE  -
|  1> ! wB97X-D3 SP def2-SVP
|  2> %pal
|  3> nprocs 16
|  4> end
|  5>
|  6> * xyz 0 1
|  7> S 	 -31.3077 	 71.9977 	 154.495
|  8> C 	 -29.731 	 71.9503 	 153.694
|  9> C 	 -29.8727 	 71.4666 	 152.379
| 10> C 	 -31.171 	 70.7949 	 152.215
| 11> C 	 -32.0492 	 71.0446 	 153.204
| 12> H 	 -31.4401 	 70.2194 	 151.361
| 13> C 	 -28.7105 	 71.3905 	 151.295
| 14> H 	 -28.2537 	 70.3815 	 151.296
| 15> H 	 -27.9473 	 72.0505 	 151.618
| 16> C 	 -29.1314 	 71.7747 	 149.865
| 17> H 	 -29.9093 	 71.0889 	 149.416
| 18> H 	 -29.5452 	 72.7778 	 149.788
| 19> C 	 -27.89 	 71.7694 	 149.02
| 20> H 	 -28.1027 	 71.9706 	 148.009
| 21> H 	 -27.0537 	 72.3237 	 149.413
| 22> H 	 -27.5649 	 70.7195 	 148.95
| 23> S 	 -34.6142 	 71.8911 	 152.502
| 24> C 	 -36.0689 	 71.061 	 153.088
| 25> C 	 -35.6244 	 69.9192 	 153.8
| 26> C 	 -34.1852 	 69.7194 	 153.898
| 27> C 	 -33.4574 	 70.7077 	 153.265
| 28> H 	 -36.3014 	 69.2207 	 154.166
| 29> C 	 -33.5282 	 68.6252 	 154.705
| 30> H 	 -32.4674 	 68.6428 	 154.623
| 31> H 	 -33.8411 	 67.7047 	 154.201
| 32> C 	 -33.927 	 68.5968 	 156.177
| 33> H 	 -33.6009 	 67.6837 	 156.616
| 34> H 	 -34.949 	 68.4992 	 156.211
| 35> C 	 -33.4688 	 69.8101 	 156.99
| 36> H 	 -34.0651 	 69.8535 	 157.876
| 37> H 	 -33.7661 	 70.6981 	 156.457
| 38> H 	 -32.3654 	 69.6238 	 157.054
| 39> H 	 -28.8068 	 72.4357 	 154.125
| 40> H 	 -37.0373 	 71.5222 	 153.28
| 41> *
| 42>
| 43>                          ****END OF INPUT****

CARTESIAN COORDINATES (ANGSTROEM)
---------------------------------
  S    -31.307700   71.997700  154.495000
  C    -29.731000   71.950300  153.694000
  C    -29.872700   71.466600  152.379000
  C    -31.171000   70.794900  152.215000
  C    -32.049200   71.044600  153.204000
  H    -31.440100   70.219400  151.361000
  C    -28.710500   71.390500  151.295000
  H    -28.253700   70.381500  151.296000
  H    -27.947300   72.050500  151.618000
  C    -29.131400   71.774700  149.865000
  H    -29.909300   71.088900  149.416000
  H    -29.545200   72.777800  149.788000
  C    -27.890000   71.769400  149.020000
  H    -28.102700   71.970600  148.009000
  H    -27.053700   72.323700  149.413000
  H    -27.564900   70.719500  148.950000
  S    -34.614200   71.891100  152.502000
  C    -36.068900   71.061000  153.088000
  C    -35.624400   69.919200  153.800000
  C    -34.185200   69.719400  153.898000
  C    -33.457400   70.707700  153.265000
  H    -36.301400   69.220700  154.166000
  C    -33.528200   68.625200  154.705000
  H    -32.467400   68.642800  154.623000
  H    -33.841100   67.704700  154.201000
  C    -33.927000   68.596800  156.177000
  H    -33.600900   67.683700  156.616000
  H    -34.949000   68.499200  156.211000
  C    -33.468800   69.810100  156.990000
  H    -34.065100   69.853500  157.876000
  H    -33.766100   70.698100  156.457000
  H    -32.365400   69.623800  157.054000
  H    -28.806800   72.435700  154.125000
  H    -37.037300   71.522200  153.280000

 Total Charge           Charge          ....    0
 Multiplicity           Mult            ....    1
 Number of Electrons    NEL             ....  134
 Basis Dimension        Dim             ....  322

ORBITAL ENERGIES
----------------

  NO   OCC          E(Eh)            E(eV)
   0   2.0000     -88.963928     -2420.8315
   1   2.0000     -88.959709     -2420.7168
   2   2.0000     -10.328955      -281.0651
   3   2.0000     -10.327024      -281.0126
   4   2.0000     -10.325825      -280.9800
   5   2.0000     -10.325104      -280.9604
   6   2.0000     -10.312243      -280.6104
   7   2.0000     -10.306283      -280.4482
   8   2.0000     -10.299201      -280.2555
   9   2.0000     -10.297244      -280.2022
  10   2.0000     -10.294942      -280.1396
  11   2.0000     -10.289895      -280.0023
  12   2.0000     -10.285637      -279.8864
  13   2.0000     -10.271987      -279.5150
  14   2.0000     -10.270767      -279.4818
  15   2.0000     -10.270677      -279.4793
  16   2.0000      -8.078116      -219.8167
  17   2.0000      -8.073215      -219.6833
  18   2.0000      -6.036787      -164.2693
  19   2.0000      -6.032732      -164.1590
  20   2.0000      -6.031927      -164.1371
  21   2.0000      -6.028672      -164.0485
  22   2.0000      -6.027710      -164.0223
  23   2.0000      -6.023983      -163.9209
  24   2.0000      -0.998193       -27.1622
  25   2.0000      -0.972583       -26.4653
  26   2.0000      -0.911830       -24.8122
  27   2.0000      -0.910315       -24.7709
  28   2.0000      -0.868791       -23.6410
  29   2.0000      -0.843822       -22.9616
  30   2.0000      -0.842601       -22.9284
  31   2.0000      -0.812166       -22.1001
  32   2.0000      -0.781977       -21.2787
  33   2.0000      -0.769604       -20.9420
  34   2.0000      -0.707045       -19.2397
  35   2.0000      -0.699541       -19.0355
  36   2.0000      -0.689623       -18.7656
  37   2.0000      -0.658476       -17.9180
  38   2.0000      -0.643423       -17.5084
  39   2.0000      -0.618090       -16.8191
  40   2.0000      -0.597806       -16.2671
  41   2.0000      -0.569816       -15.5055
  42   2.0000      -0.561613       -15.2823
  43   2.0000      -0.554684       -15.0937
  44   2.0000      -0.545596       -14.8464
  45   2.0000      -0.528244       -14.3743
  46   2.0000      -0.524172       -14.2635
  47   2.0000      -0.508792       -13.8449
  48   2.0000      -0.502451       -13.6724
  49   2.0000      -0.497521       -13.5382
  50   2.0000      -0.484523       -13.1845
  51   2.0000      -0.478176       -13.0118
  52   2.0000      -0.471300       -12.8247
  53   2.0000      -0.462288       -12.5795
  54   2.0000      -0.455136       -12.3849
  55   2.0000      -0.447412       -12.1747
  56   2.0000      -0.440357       -11.9827
  57   2.0000      -0.435902       -11.8615
  58   2.0000      -0.433478       -11.7955
  59   2.0000      -0.420552       -11.4438
  60   2.0000      -0.417888       -11.3713
  61   2.0000      -0.413639       -11.2557
  62   2.0000      -0.406969       -11.0742
  63   2.0000      -0.333365        -9.0713
  64   2.0000      -0.325405        -8.8547
  65   2.0000      -0.318921        -8.6783
  66   2.0000      -0.313157        -8.5214
  67   0.0000       0.038528         1.0484
  68   0.0000       0.046400         1.2626
  69   0.0000       0.110002         2.9933
  70   0.0000       0.114633         3.1193
  71   0.0000       0.128791         3.5046

MULLIKEN ATOMIC CHARGES
-----------------------
   0 S :    0.111236
   1 C :   -0.147252
   2 C :   -0.083902
   3 C :    0.057568
   4 C :   -0.157095
   5 H :    0.006087
   6 C :    0.055614
   7 H :    0.045952
   8 H :    0.007803
   9 C :   -0.100029
  10 H :    0.041664
  11 H :    0.035509
  12 C :   -0.015843
  13 H :    0.020961
  14 H :    0.032025
  15 H :    0.012544
  16 S :    0.082259
  17 C :   -0.091042
  18 C :   -0.038062
  19 C :   -0.032633
  20 C :   -0.185540
  21 H :    0.003761
  22 C :    0.091244
  23 H :    0.017138
  24 H :    0.027991
  25 C :   -0.049081
  26 H :    0.012876
  27 H :   -0.008447
  28 C :   -0.021982
  29 H :    0.027535
  30 H :    0.031727
  31 H :    0.049187
  32 H :    0.076623
  33 H :    0.083602
Sum of atomic charges:    0.0000000

LOEWDIN ATOMIC CHARGES
----------------------
   0 S :    0.391520
   1 C :   -0.200098
   2 C :   -0.058282
   3 C :   -0.050470
   4 C :   -0.195997
   5 H :    0.029101
   6 C :   -0.026215
   7 H :    0.036274
   8 H :    0.022816
   9 C :   -0.044670
  10 H :    0.030161
  11 H :    0.025316
  12 C :   -0.062112
  13 H :    0.020169
  14 H :    0.023912
  15 H :    0.025896
  16 S :    0.364376
  17 C :   -0.184178
  18 C :   -0.063530
  19 C :   -0.049785
  20 C :   -0.182754
  21 H :    0.016423
  22 C :   -0.025297
  23 H :    0.024627
  24 H :    0.036357
  25 C :   -0.035663
  26 H :    0.019480
  27 H :    0.006335
  28 C :   -0.059083
  29 H :    0.024897
  30 H :    0.022741
  31 H :    0.036005
  32 H :    0.041059
  33 H :    0.040672

  Mayer bond orders larger than 0.100000
B(  0-S ,  1-C ) :   1.1337 B(  0-S ,  4-C ) :   1.1221 B(  1-C ,  2-C ) :   1.6356
B(  1-C , 32-H ) :   0.9605 B(  2-C ,  3-C ) :   1.1921 B(  2-C ,  6-C ) :   1.0139
B(  3-C ,  4-C ) :   1.6406 B(  3-C ,  5-H ) :   0.9953 B(  4-C , 20-C ) :   1.0272
B(  6-C ,  7-H ) :   0.9467 B(  6-C ,  8-H ) :   0.9447 B(  6-C ,  9-C ) :   1.0601
B(  9-C , 10-H ) :   0.9520 B(  9-C , 11-H ) :   0.9564 B(  9-C , 12-C ) :   1.0948
B( 12-C , 13-H ) :   0.9693 B( 12-C , 14-H ) :   0.9737 B( 12-C , 15-H ) :   0.9689
B( 16-S , 17-C ) :   1.1530 B( 16-S , 20-C ) :   1.1206 B( 17-C , 18-C ) :   1.6062
B( 17-C , 20-C ) :   0.1008 B( 17-C , 33-H ) :   0.9613 B( 18-C , 19-C ) :   1.2280
B( 18-C , 21-H ) :   0.9909 B( 19-C , 20-C ) :   1.6078 B( 19-C , 22-C ) :   1.0468
B( 22-C , 23-H ) :   0.9364 B( 22-C , 24-H ) :   0.9234 B( 22-C , 25-C ) :   1.0781
B( 25-C , 26-H ) :   0.9515 B( 25-C , 27-H ) :   0.9509 B( 25-C , 28-C ) :   1.0700
B( 28-C , 29-H ) :   0.9705 B( 28-C , 30-H ) :   0.9751 B( 28-C , 31-H ) :   0.9770

Dispersion correction           -0.014682637
FINAL SINGLE POINT ENERGY     -1339.861739496642

DIPOLE MOMENT
-------------
                                X             Y             Z
Electronic contribution:    -12.41302       8.62973       3.01793
Nuclear contribution   :     12.67372      -9.00235      -3.06406
                        -----------------------------------------
Total Dipole Moment    :      0.26071      -0.37262      -0.04613
                        -----------------------------------------
Magnitude (a.u.)       :      0.45710
Magnitude (Debye)      :      1.16187

Rotational constants in cm-1:     0.022754     0.007521     0.006526
Rotational constants in MHz :   682.141767   225.466911   195.650190

                             ****ORCA TERMINATED NORMALLY****
TOTAL RUN TIME: 0 days 0 hours 0 minutes 33 seconds 707 msec
