                         Program Version 4.2.1 -  RELEASE  -
|  1> ! wB97X-D3 SP def2-SVP
|  2> %pal
|  3> nprocs 16
|  4> end
|  5>
|  6> * xyz 0 1
|  7> S 	 55.2576 	 5.32482 	 79.2816
|  8> C 	 53.6276 	 4.8513 	 78.6777
|  9> C 	 53.3283 	 3.60252 	 79.2772
| 10> C 	 54.4097 	 3.02213 	 79.9759
| 11> C 	 55.5764 	 3.75 	 79.9752
| 12> H 	 54.4043 	 2.05168 	 80.5016
| 13> C 	 52.0355 	 2.85503 	 78.9904
| 14> H 	 51.2973 	 3.59184 	 78.6359
| 15> H 	 51.6028 	 2.50364 	 79.9387
| 16> C 	 52.0875 	 1.70872 	 77.994
| 17> H 	 51.0977 	 1.629 	 77.449
| 18> H 	 52.8262 	 1.94159 	 77.2657
| 19> C 	 52.5222 	 0.380436 	 78.5346
| 20> H 	 52.5469 	 -0.402942 	 77.739
| 21> H 	 53.5158 	 0.370705 	 78.8711
| 22> H 	 51.8732 	 0.0448375 	 79.3313
| 23> S 	 57.6781 	 4.65006 	 81.5489
| 24> C 	 58.9767 	 3.55101 	 81.9891
| 25> C 	 58.7516 	 2.24301 	 81.5249
| 26> C 	 57.5552 	 2.12125 	 80.778
| 27> C 	 56.8611 	 3.34336 	 80.6076
| 28> H 	 59.5228 	 1.45904 	 81.6654
| 29> C 	 57.196 	 0.85522 	 80.0153
| 30> H 	 57.993 	 0.552777 	 79.378
| 31> H 	 56.3722 	 0.901968 	 79.3094
| 32> C 	 56.7225 	 -0.271699 	 80.9973
| 33> H 	 56.0253 	 0.0485791 	 81.7908
| 34> H 	 57.5807 	 -0.666519 	 81.5586
| 35> C 	 56.1433 	 -1.43583 	 80.2341
| 36> H 	 55.7408 	 -2.20538 	 80.9971
| 37> H 	 56.8771 	 -1.92737 	 79.5981
| 38> H 	 55.3231 	 -1.16265 	 79.5544
| 39> H 	 52.9748 	 5.46511 	 78.0308
| 40> H 	 59.8688 	 3.83136 	 82.5467
| 41> *
| 42>
| 43>                          ****END OF INPUT****

CARTESIAN COORDINATES (ANGSTROEM)
---------------------------------
  S     55.257600    5.324820   79.281600
  C     53.627600    4.851300   78.677700
  C     53.328300    3.602520   79.277200
  C     54.409700    3.022130   79.975900
  C     55.576400    3.750000   79.975200
  H     54.404300    2.051680   80.501600
  C     52.035500    2.855030   78.990400
  H     51.297300    3.591840   78.635900
  H     51.602800    2.503640   79.938700
  C     52.087500    1.708720   77.994000
  H     51.097700    1.629000   77.449000
  H     52.826200    1.941590   77.265700
  C     52.522200    0.380436   78.534600
  H     52.546900   -0.402942   77.739000
  H     53.515800    0.370705   78.871100
  H     51.873200    0.044838   79.331300
  S     57.678100    4.650060   81.548900
  C     58.976700    3.551010   81.989100
  C     58.751600    2.243010   81.524900
  C     57.555200    2.121250   80.778000
  C     56.861100    3.343360   80.607600
  H     59.522800    1.459040   81.665400
  C     57.196000    0.855220   80.015300
  H     57.993000    0.552777   79.378000
  H     56.372200    0.901968   79.309400
  C     56.722500   -0.271699   80.997300
  H     56.025300    0.048579   81.790800
  H     57.580700   -0.666519   81.558600
  C     56.143300   -1.435830   80.234100
  H     55.740800   -2.205380   80.997100
  H     56.877100   -1.927370   79.598100
  H     55.323100   -1.162650   79.554400
  H     52.974800    5.465110   78.030800
  H     59.868800    3.831360   82.546700

 Total Charge           Charge          ....    0
 Multiplicity           Mult            ....    1
 Number of Electrons    NEL             ....  134
 Basis Dimension        Dim             ....  322

ORBITAL ENERGIES
----------------

  NO   OCC          E(Eh)            E(eV)
   0   2.0000     -88.968291     -2420.9503
   1   2.0000     -88.967481     -2420.9282
   2   2.0000     -10.338615      -281.3280
   3   2.0000     -10.334805      -281.2243
   4   2.0000     -10.326503      -280.9984
   5   2.0000     -10.324337      -280.9395
   6   2.0000     -10.312003      -280.6039
   7   2.0000     -10.306506      -280.4543
   8   2.0000     -10.302034      -280.3326
   9   2.0000     -10.293761      -280.1075
  10   2.0000     -10.293173      -280.0915
  11   2.0000     -10.292191      -280.0648
  12   2.0000     -10.290047      -280.0064
  13   2.0000     -10.284915      -279.8668
  14   2.0000     -10.284336      -279.8510
  15   2.0000     -10.274040      -279.5709
  16   2.0000      -8.082091      -219.9249
  17   2.0000      -8.081212      -219.9010
  18   2.0000      -6.040597      -164.3730
  19   2.0000      -6.039843      -164.3525
  20   2.0000      -6.036699      -164.2669
  21   2.0000      -6.035819      -164.2430
  22   2.0000      -6.032938      -164.1646
  23   2.0000      -6.031921      -164.1369
  24   2.0000      -1.000364       -27.2213
  25   2.0000      -0.978659       -26.6307
  26   2.0000      -0.914613       -24.8879
  27   2.0000      -0.909482       -24.7483
  28   2.0000      -0.865779       -23.5590
  29   2.0000      -0.853302       -23.2195
  30   2.0000      -0.843066       -22.9410
  31   2.0000      -0.814460       -22.1626
  32   2.0000      -0.783084       -21.3088
  33   2.0000      -0.770246       -20.9595
  34   2.0000      -0.701369       -19.0852
  35   2.0000      -0.699177       -19.0256
  36   2.0000      -0.697902       -18.9909
  37   2.0000      -0.659052       -17.9337
  38   2.0000      -0.640689       -17.4340
  39   2.0000      -0.618601       -16.8330
  40   2.0000      -0.599899       -16.3241
  41   2.0000      -0.574044       -15.6205
  42   2.0000      -0.564478       -15.3602
  43   2.0000      -0.545124       -14.8336
  44   2.0000      -0.539978       -14.6936
  45   2.0000      -0.527589       -14.3564
  46   2.0000      -0.515131       -14.0174
  47   2.0000      -0.510542       -13.8925
  48   2.0000      -0.508494       -13.8368
  49   2.0000      -0.500481       -13.6188
  50   2.0000      -0.495355       -13.4793
  51   2.0000      -0.482043       -13.1171
  52   2.0000      -0.472333       -12.8528
  53   2.0000      -0.464353       -12.6357
  54   2.0000      -0.458274       -12.4703
  55   2.0000      -0.449026       -12.2186
  56   2.0000      -0.443655       -12.0725
  57   2.0000      -0.436456       -11.8766
  58   2.0000      -0.431571       -11.7437
  59   2.0000      -0.429015       -11.6741
  60   2.0000      -0.420193       -11.4340
  61   2.0000      -0.413105       -11.2411
  62   2.0000      -0.407142       -11.0789
  63   2.0000      -0.350023        -9.5246
  64   2.0000      -0.335143        -9.1197
  65   2.0000      -0.330913        -9.0046
  66   2.0000      -0.286405        -7.7935
  67   0.0000       0.018631         0.5070
  68   0.0000       0.068107         1.8533
  69   0.0000       0.100865         2.7447
  70   0.0000       0.118804         3.2328
  71   0.0000       0.127007         3.4560

MULLIKEN ATOMIC CHARGES
-----------------------
   0 S :    0.096958
   1 C :   -0.136617
   2 C :   -0.084219
   3 C :    0.007652
   4 C :   -0.116513
   5 H :    0.023485
   6 C :    0.055378
   7 H :    0.018143
   8 H :    0.025727
   9 C :   -0.051748
  10 H :    0.038714
  11 H :    0.020034
  12 C :   -0.036591
  13 H :    0.031126
  14 H :    0.009550
  15 H :    0.025924
  16 S :    0.093245
  17 C :   -0.096284
  18 C :   -0.045586
  19 C :   -0.008515
  20 C :   -0.144463
  21 H :    0.036800
  22 C :    0.056914
  23 H :    0.028955
  24 H :    0.012202
  25 C :   -0.101105
  26 H :    0.042746
  27 H :    0.028191
  28 C :   -0.068934
  29 H :    0.046869
  30 H :    0.029071
  31 H :    0.030312
  32 H :    0.068084
  33 H :    0.064496
Sum of atomic charges:   -0.0000000

LOEWDIN ATOMIC CHARGES
----------------------
   0 S :    0.385517
   1 C :   -0.188504
   2 C :   -0.060895
   3 C :   -0.075287
   4 C :   -0.190832
   5 H :    0.036603
   6 C :   -0.036259
   7 H :    0.032185
   8 H :    0.030533
   9 C :   -0.043657
  10 H :    0.032940
  11 H :    0.022823
  12 C :   -0.063433
  13 H :    0.032537
  14 H :    0.012264
  15 H :    0.021337
  16 S :    0.384034
  17 C :   -0.180652
  18 C :   -0.075201
  19 C :   -0.053865
  20 C :   -0.173976
  21 H :    0.039982
  22 C :   -0.027401
  23 H :    0.029659
  24 H :    0.026020
  25 C :   -0.045668
  26 H :    0.027813
  27 H :    0.023585
  28 C :   -0.073925
  29 H :    0.037461
  30 H :    0.023286
  31 H :    0.020804
  32 H :    0.038337
  33 H :    0.031835

  Mayer bond orders larger than 0.100000
B(  0-S ,  1-C ) :   1.1293 B(  0-S ,  4-C ) :   1.1538 B(  1-C ,  2-C ) :   1.5722
B(  1-C ,  4-C ) :   0.1076 B(  1-C , 32-H ) :   0.9709 B(  2-C ,  3-C ) :   1.2515
B(  2-C ,  6-C ) :   1.0432 B(  3-C ,  4-C ) :   1.5505 B(  3-C ,  5-H ) :   0.9901
B(  4-C , 20-C ) :   1.0432 B(  6-C ,  7-H ) :   0.9382 B(  6-C ,  8-H ) :   0.9394
B(  6-C ,  9-C ) :   1.0577 B(  9-C , 10-H ) :   0.9548 B(  9-C , 11-H ) :   0.9509
B(  9-C , 12-C ) :   1.0934 B( 12-C , 13-H ) :   0.9681 B( 12-C , 14-H ) :   0.9687
B( 12-C , 15-H ) :   0.9727 B( 16-S , 17-C ) :   1.1625 B( 16-S , 20-C ) :   1.1307
B( 17-C , 18-C ) :   1.5961 B( 17-C , 20-C ) :   0.1081 B( 17-C , 33-H ) :   0.9663
B( 18-C , 19-C ) :   1.2499 B( 18-C , 21-H ) :   0.9840 B( 19-C , 20-C ) :   1.5847
B( 19-C , 22-C ) :   1.0364 B( 22-C , 23-H ) :   0.9397 B( 22-C , 24-H ) :   0.9508
B( 22-C , 25-C ) :   1.0371 B( 25-C , 26-H ) :   0.9601 B( 25-C , 27-H ) :   0.9513
B( 25-C , 28-C ) :   1.0924 B( 28-C , 29-H ) :   0.9711 B( 28-C , 30-H ) :   0.9690
B( 28-C , 31-H ) :   0.9726

Dispersion correction           -0.015073534
FINAL SINGLE POINT ENERGY     -1339.881081447017

DIPOLE MOMENT
-------------
                                X             Y             Z
Electronic contribution:     13.19177      30.06883       6.43012
Nuclear contribution   :    -13.31264     -30.77014      -6.54932
                        -----------------------------------------
Total Dipole Moment    :     -0.12087      -0.70131      -0.11921
                        -----------------------------------------
Magnitude (a.u.)       :      0.72157
Magnitude (Debye)      :      1.83407

Rotational constants in cm-1:     0.016266     0.010847     0.006773
Rotational constants in MHz :   487.635749   325.175413   203.051702

                             ****ORCA TERMINATED NORMALLY****
TOTAL RUN TIME: 0 days 0 hours 0 minutes 31 seconds 278 msec
