                         Program Version 4.2.1 -  RELEASE  -
|  1> ! wB97X-D3 SP def2-SVP
|  2> %pal
|  3> nprocs 16
|  4> end
|  5>
|  6> * xyz 0 1
|  7> S 	 -2.53502 	 -11.0761 	 82.6278
|  8> C 	 -1.63308 	 -11.5822 	 84.0457
|  9> C 	 -2.41872 	 -11.7256 	 85.1818
| 10> C 	 -3.77349 	 -11.5673 	 84.7718
| 11> C 	 -4.01535 	 -11.1757 	 83.4844
| 12> H 	 -4.56889 	 -11.6036 	 85.5072
| 13> C 	 -1.9357 	 -12.1425 	 86.5973
| 14> H 	 -1.86102 	 -11.2805 	 87.201
| 15> H 	 -0.889778 	 -12.2605 	 86.4803
| 16> C 	 -2.44935 	 -13.379 	 87.3356
| 17> H 	 -3.46989 	 -13.5711 	 87.0166
| 18> H 	 -1.87497 	 -14.296 	 87.1184
| 19> C 	 -2.44573 	 -13.0453 	 88.7785
| 20> H 	 -2.67 	 -14.0344 	 89.3235
| 21> H 	 -1.49513 	 -12.7682 	 89.1245
| 22> H 	 -3.17151 	 -12.2523 	 89.1106
| 23> S 	 -5.695 	 -9.30704 	 82.3166
| 24> C 	 -7.28544 	 -9.83296 	 81.9205
| 25> C 	 -7.47441 	 -11.1976 	 82.1341
| 26> C 	 -6.42518 	 -11.8242 	 82.8784
| 27> C 	 -5.34045 	 -10.9255 	 82.9206
| 28> H 	 -8.37382 	 -11.6497 	 81.7828
| 29> C 	 -6.46223 	 -13.176 	 83.5366
| 30> H 	 -7.48372 	 -13.5317 	 83.6261
| 31> H 	 -6.02019 	 -13.1059 	 84.5714
| 32> C 	 -5.71887 	 -14.2605 	 82.8434
| 33> H 	 -4.762 	 -13.957 	 82.671
| 34> H 	 -6.15584 	 -14.4114 	 81.8021
| 35> C 	 -5.83063 	 -15.6755 	 83.4581
| 36> H 	 -6.8554 	 -15.7817 	 83.6824
| 37> H 	 -5.29938 	 -15.8425 	 84.4369
| 38> H 	 -5.48177 	 -16.436 	 82.7121
| 39> H 	 -0.498953 	 -11.8611 	 84.0247
| 40> H 	 -8.21523 	 -9.23725 	 81.6283
| 41> *
| 42>
| 43>                          ****END OF INPUT****

CARTESIAN COORDINATES (ANGSTROEM)
---------------------------------
  S     -2.535020  -11.076100   82.627800
  C     -1.633080  -11.582200   84.045700
  C     -2.418720  -11.725600   85.181800
  C     -3.773490  -11.567300   84.771800
  C     -4.015350  -11.175700   83.484400
  H     -4.568890  -11.603600   85.507200
  C     -1.935700  -12.142500   86.597300
  H     -1.861020  -11.280500   87.201000
  H     -0.889778  -12.260500   86.480300
  C     -2.449350  -13.379000   87.335600
  H     -3.469890  -13.571100   87.016600
  H     -1.874970  -14.296000   87.118400
  C     -2.445730  -13.045300   88.778500
  H     -2.670000  -14.034400   89.323500
  H     -1.495130  -12.768200   89.124500
  H     -3.171510  -12.252300   89.110600
  S     -5.695000   -9.307040   82.316600
  C     -7.285440   -9.832960   81.920500
  C     -7.474410  -11.197600   82.134100
  C     -6.425180  -11.824200   82.878400
  C     -5.340450  -10.925500   82.920600
  H     -8.373820  -11.649700   81.782800
  C     -6.462230  -13.176000   83.536600
  H     -7.483720  -13.531700   83.626100
  H     -6.020190  -13.105900   84.571400
  C     -5.718870  -14.260500   82.843400
  H     -4.762000  -13.957000   82.671000
  H     -6.155840  -14.411400   81.802100
  C     -5.830630  -15.675500   83.458100
  H     -6.855400  -15.781700   83.682400
  H     -5.299380  -15.842500   84.436900
  H     -5.481770  -16.436000   82.712100
  H     -0.498953  -11.861100   84.024700
  H     -8.215230   -9.237250   81.628300

 Total Charge           Charge          ....    0
 Multiplicity           Mult            ....    1
 Number of Electrons    NEL             ....  134
 Basis Dimension        Dim             ....  322

ORBITAL ENERGIES
----------------

  NO   OCC          E(Eh)            E(eV)
   0   2.0000     -88.971399     -2421.0349
   1   2.0000     -88.967420     -2420.9266
   2   2.0000     -10.327166      -281.0165
   3   2.0000     -10.322404      -280.8869
   4   2.0000     -10.320307      -280.8298
   5   2.0000     -10.318834      -280.7898
   6   2.0000     -10.307145      -280.4717
   7   2.0000     -10.302785      -280.3530
   8   2.0000     -10.292504      -280.0733
   9   2.0000     -10.291812      -280.0544
  10   2.0000     -10.288666      -279.9688
  11   2.0000     -10.288145      -279.9547
  12   2.0000     -10.286937      -279.9218
  13   2.0000     -10.282388      -279.7980
  14   2.0000     -10.280014      -279.7334
  15   2.0000     -10.275517      -279.6110
  16   2.0000      -8.085929      -220.0293
  17   2.0000      -8.082542      -219.9371
  18   2.0000      -6.044302      -164.4738
  19   2.0000      -6.041026      -164.3847
  20   2.0000      -6.040538      -164.3714
  21   2.0000      -6.036991      -164.2749
  22   2.0000      -6.036781      -164.2692
  23   2.0000      -6.033310      -164.1747
  24   2.0000      -1.008549       -27.4440
  25   2.0000      -0.985185       -26.8082
  26   2.0000      -0.919485       -25.0205
  27   2.0000      -0.915211       -24.9041
  28   2.0000      -0.869185       -23.6517
  29   2.0000      -0.853341       -23.2206
  30   2.0000      -0.847427       -23.0597
  31   2.0000      -0.809556       -22.0291
  32   2.0000      -0.786443       -21.4002
  33   2.0000      -0.770048       -20.9541
  34   2.0000      -0.709161       -19.2972
  35   2.0000      -0.699640       -19.0382
  36   2.0000      -0.684368       -18.6226
  37   2.0000      -0.657989       -17.9048
  38   2.0000      -0.636615       -17.3232
  39   2.0000      -0.623792       -16.9743
  40   2.0000      -0.597232       -16.2515
  41   2.0000      -0.569920       -15.5083
  42   2.0000      -0.566949       -15.4275
  43   2.0000      -0.560454       -15.2507
  44   2.0000      -0.529697       -14.4138
  45   2.0000      -0.525825       -14.3084
  46   2.0000      -0.517144       -14.0722
  47   2.0000      -0.505167       -13.7463
  48   2.0000      -0.500833       -13.6284
  49   2.0000      -0.490061       -13.3352
  50   2.0000      -0.487849       -13.2751
  51   2.0000      -0.484702       -13.1894
  52   2.0000      -0.472829       -12.8663
  53   2.0000      -0.464835       -12.6488
  54   2.0000      -0.454216       -12.3598
  55   2.0000      -0.453091       -12.3292
  56   2.0000      -0.447611       -12.1801
  57   2.0000      -0.443274       -12.0621
  58   2.0000      -0.438364       -11.9285
  59   2.0000      -0.427900       -11.6438
  60   2.0000      -0.422310       -11.4916
  61   2.0000      -0.409856       -11.1527
  62   2.0000      -0.407260       -11.0821
  63   2.0000      -0.340499        -9.2654
  64   2.0000      -0.334223        -9.0947
  65   2.0000      -0.331773        -9.0280
  66   2.0000      -0.288552        -7.8519
  67   0.0000       0.038100         1.0368
  68   0.0000       0.063649         1.7320
  69   0.0000       0.113645         3.0924
  70   0.0000       0.119067         3.2400
  71   0.0000       0.130365         3.5474

MULLIKEN ATOMIC CHARGES
-----------------------
   0 S :    0.125655
   1 C :   -0.177821
   2 C :   -0.087122
   3 C :    0.000602
   4 C :   -0.148183
   5 H :    0.010680
   6 C :    0.103054
   7 H :    0.023049
   8 H :   -0.010298
   9 C :   -0.028542
  10 H :    0.025679
  11 H :    0.041415
  12 C :   -0.084577
  13 H :    0.034709
  14 H :    0.020632
  15 H :    0.051064
  16 S :    0.139198
  17 C :   -0.118838
  18 C :   -0.043223
  19 C :   -0.005538
  20 C :   -0.187331
  21 H :    0.006226
  22 C :    0.087447
  23 H :    0.009219
  24 H :    0.030509
  25 C :   -0.070124
  26 H :    0.013422
  27 H :    0.022580
  28 C :   -0.041446
  29 H :    0.012277
  30 H :    0.035871
  31 H :    0.049357
  32 H :    0.079618
  33 H :    0.080780
Sum of atomic charges:    0.0000000

LOEWDIN ATOMIC CHARGES
----------------------
   0 S :    0.419887
   1 C :   -0.214690
   2 C :   -0.064348
   3 C :   -0.070243
   4 C :   -0.215852
   5 H :    0.025303
   6 C :   -0.033411
   7 H :    0.031186
   8 H :    0.029652
   9 C :   -0.039264
  10 H :    0.022773
  11 H :    0.031428
  12 C :   -0.065927
  13 H :    0.033259
  14 H :    0.013532
  15 H :    0.033277
  16 S :    0.421586
  17 C :   -0.217440
  18 C :   -0.068033
  19 C :   -0.042903
  20 C :   -0.196148
  21 H :    0.025163
  22 C :   -0.034715
  23 H :    0.028032
  24 H :    0.038496
  25 C :   -0.037565
  26 H :    0.007893
  27 H :    0.030296
  28 C :   -0.064922
  29 H :    0.015514
  30 H :    0.027045
  31 H :    0.035297
  32 H :    0.046384
  33 H :    0.049459

  Mayer bond orders larger than 0.100000
B(  0-S ,  1-C ) :   1.1506 B(  0-S ,  4-C ) :   1.1468 B(  1-C ,  2-C ) :   1.6118
B(  1-C , 32-H ) :   0.9460 B(  2-C ,  3-C ) :   1.2643 B(  2-C ,  6-C ) :   1.0133
B(  3-C ,  4-C ) :   1.5762 B(  3-C ,  5-H ) :   0.9890 B(  4-C , 20-C ) :   1.0266
B(  6-C ,  7-H ) :   0.9377 B(  6-C ,  8-H ) :   0.9153 B(  6-C ,  9-C ) :   1.0357
B(  9-C , 10-H ) :   0.9624 B(  9-C , 11-H ) :   0.9574 B(  9-C , 12-C ) :   1.0788
B( 12-C , 13-H ) :   0.9698 B( 12-C , 14-H ) :   0.9747 B( 12-C , 15-H ) :   0.9760
B( 16-S , 17-C ) :   1.1525 B( 16-S , 20-C ) :   1.1567 B( 17-C , 18-C ) :   1.6179
B( 17-C , 20-C ) :   0.1045 B( 17-C , 33-H ) :   0.9546 B( 18-C , 19-C ) :   1.2456
B( 18-C , 21-H ) :   0.9889 B( 19-C , 20-C ) :   1.5715 B( 19-C , 22-C ) :   1.0527
B( 22-C , 23-H ) :   0.9215 B( 22-C , 24-H ) :   0.9238 B( 22-C , 25-C ) :   1.0781
B( 25-C , 26-H ) :   0.9559 B( 25-C , 27-H ) :   0.9485 B( 25-C , 28-C ) :   1.0745
B( 28-C , 29-H ) :   0.9722 B( 28-C , 30-H ) :   0.9738 B( 28-C , 31-H ) :   0.9760

Dispersion correction           -0.014288309
FINAL SINGLE POINT ENERGY     -1339.856782182206

DIPOLE MOMENT
-------------
                                X             Y             Z
Electronic contribution:     -0.21622      23.65674     -20.27961
Nuclear contribution   :      0.09962     -24.11023      20.78651
                        -----------------------------------------
Total Dipole Moment    :     -0.11660      -0.45349       0.50690
                        -----------------------------------------
Magnitude (a.u.)       :      0.69007
Magnitude (Debye)      :      1.75402

Rotational constants in cm-1:     0.017475     0.008863     0.007209
Rotational constants in MHz :   523.887042   265.705431   216.134689

                             ****ORCA TERMINATED NORMALLY****
TOTAL RUN TIME: 0 days 0 hours 0 minutes 32 seconds 791 msec
