                         Program Version 4.2.1 -  RELEASE  -
|  1> ! wB97X-D3 SP def2-SVP
|  2> %pal
|  3> nprocs 16
|  4> end
|  5>
|  6> * xyz 0 1
|  7> S 	 -7.07705 	 -9.54355 	 86.7446
|  8> C 	 -6.33628 	 -10.311 	 85.4039
|  9> C 	 -5.02625 	 -10.6818 	 85.6366
| 10> C 	 -4.63992 	 -10.2331 	 86.9082
| 11> C 	 -5.56493 	 -9.53518 	 87.6717
| 12> H 	 -3.63906 	 -10.3746 	 87.3353
| 13> C 	 -4.01114 	 -11.4778 	 84.7794
| 14> H 	 -3.47761 	 -10.7223 	 84.1488
| 15> H 	 -4.58417 	 -12.0332 	 84.0453
| 16> C 	 -3.07012 	 -12.3097 	 85.6717
| 17> H 	 -2.34365 	 -11.5343 	 86.0952
| 18> H 	 -3.55414 	 -12.7677 	 86.5777
| 19> C 	 -2.17331 	 -13.3681 	 84.9337
| 20> H 	 -1.3535 	 -13.7271 	 85.4858
| 21> H 	 -2.81718 	 -14.2279 	 84.757
| 22> H 	 -1.74174 	 -12.9826 	 83.9384
| 23> S 	 -6.55743 	 -9.16534 	 90.22
| 24> C 	 -5.79511 	 -8.01454 	 91.3697
| 25> C 	 -4.60819 	 -7.59952 	 90.8222
| 26> C 	 -4.31731 	 -8.03 	 89.4732
| 27> C 	 -5.31902 	 -8.90173 	 88.9775
| 28> H 	 -4.01742 	 -7.11082 	 91.5459
| 29> C 	 -3.01575 	 -7.7594 	 88.811
| 30> H 	 -2.59545 	 -6.86597 	 89.2422
| 31> H 	 -3.10959 	 -7.67117 	 87.7222
| 32> C 	 -1.95666 	 -8.8508 	 89.1644
| 33> H 	 -2.42748 	 -9.82075 	 88.8512
| 34> H 	 -1.78566 	 -8.8807 	 90.222
| 35> C 	 -0.725708 	 -8.64361 	 88.3038
| 36> H 	 -0.482342 	 -7.54498 	 88.2138
| 37> H 	 -0.901461 	 -8.98832 	 87.2731
| 38> H 	 0.0931193 	 -9.21481 	 88.693
| 39> H 	 -6.89209 	 -10.6508 	 84.5299
| 40> H 	 -6.08541 	 -7.79617 	 92.3505
| 41> *
| 42>
| 43>                          ****END OF INPUT****

CARTESIAN COORDINATES (ANGSTROEM)
---------------------------------
  S     -7.077050   -9.543550   86.744600
  C     -6.336280  -10.311000   85.403900
  C     -5.026250  -10.681800   85.636600
  C     -4.639920  -10.233100   86.908200
  C     -5.564930   -9.535180   87.671700
  H     -3.639060  -10.374600   87.335300
  C     -4.011140  -11.477800   84.779400
  H     -3.477610  -10.722300   84.148800
  H     -4.584170  -12.033200   84.045300
  C     -3.070120  -12.309700   85.671700
  H     -2.343650  -11.534300   86.095200
  H     -3.554140  -12.767700   86.577700
  C     -2.173310  -13.368100   84.933700
  H     -1.353500  -13.727100   85.485800
  H     -2.817180  -14.227900   84.757000
  H     -1.741740  -12.982600   83.938400
  S     -6.557430   -9.165340   90.220000
  C     -5.795110   -8.014540   91.369700
  C     -4.608190   -7.599520   90.822200
  C     -4.317310   -8.030000   89.473200
  C     -5.319020   -8.901730   88.977500
  H     -4.017420   -7.110820   91.545900
  C     -3.015750   -7.759400   88.811000
  H     -2.595450   -6.865970   89.242200
  H     -3.109590   -7.671170   87.722200
  C     -1.956660   -8.850800   89.164400
  H     -2.427480   -9.820750   88.851200
  H     -1.785660   -8.880700   90.222000
  C     -0.725708   -8.643610   88.303800
  H     -0.482342   -7.544980   88.213800
  H     -0.901461   -8.988320   87.273100
  H      0.093119   -9.214810   88.693000
  H     -6.892090  -10.650800   84.529900
  H     -6.085410   -7.796170   92.350500

 Total Charge           Charge          ....    0
 Multiplicity           Mult            ....    1
 Number of Electrons    NEL             ....  134
 Basis Dimension        Dim             ....  322

ORBITAL ENERGIES
----------------

  NO   OCC          E(Eh)            E(eV)
   0   2.0000     -88.967964     -2420.9414
   1   2.0000     -88.961585     -2420.7678
   2   2.0000     -10.334669      -281.2206
   3   2.0000     -10.331563      -281.1361
   4   2.0000     -10.316482      -280.7257
   5   2.0000     -10.314442      -280.6702
   6   2.0000     -10.308666      -280.5131
   7   2.0000     -10.303885      -280.3830
   8   2.0000     -10.303786      -280.3803
   9   2.0000     -10.300253      -280.2841
  10   2.0000     -10.292365      -280.0695
  11   2.0000     -10.289963      -280.0041
  12   2.0000     -10.289651      -279.9956
  13   2.0000     -10.288552      -279.9657
  14   2.0000     -10.286264      -279.9035
  15   2.0000     -10.282018      -279.7879
  16   2.0000      -8.082695      -219.9413
  17   2.0000      -8.075357      -219.7416
  18   2.0000      -6.041211      -164.3897
  19   2.0000      -6.037135      -164.2788
  20   2.0000      -6.034045      -164.1947
  21   2.0000      -6.033484      -164.1794
  22   2.0000      -6.029895      -164.0818
  23   2.0000      -6.026083      -163.9781
  24   2.0000      -1.004075       -27.3223
  25   2.0000      -0.981044       -26.6956
  26   2.0000      -0.912494       -24.8302
  27   2.0000      -0.907190       -24.6859
  28   2.0000      -0.870176       -23.6787
  29   2.0000      -0.848791       -23.0968
  30   2.0000      -0.844473       -22.9793
  31   2.0000      -0.817281       -22.2394
  32   2.0000      -0.782034       -21.2802
  33   2.0000      -0.769094       -20.9281
  34   2.0000      -0.712770       -19.3955
  35   2.0000      -0.697910       -18.9911
  36   2.0000      -0.691127       -18.8065
  37   2.0000      -0.660973       -17.9860
  38   2.0000      -0.640084       -17.4176
  39   2.0000      -0.623490       -16.9660
  40   2.0000      -0.595340       -16.2000
  41   2.0000      -0.572900       -15.5894
  42   2.0000      -0.567792       -15.4504
  43   2.0000      -0.559593       -15.2273
  44   2.0000      -0.528055       -14.3691
  45   2.0000      -0.525545       -14.3008
  46   2.0000      -0.511733       -13.9250
  47   2.0000      -0.510763       -13.8986
  48   2.0000      -0.507880       -13.8201
  49   2.0000      -0.500862       -13.6291
  50   2.0000      -0.496154       -13.5010
  51   2.0000      -0.477695       -12.9987
  52   2.0000      -0.473039       -12.8720
  53   2.0000      -0.465873       -12.6770
  54   2.0000      -0.459503       -12.5037
  55   2.0000      -0.448129       -12.1942
  56   2.0000      -0.446970       -12.1627
  57   2.0000      -0.441337       -12.0094
  58   2.0000      -0.434000       -11.8098
  59   2.0000      -0.424911       -11.5624
  60   2.0000      -0.419417       -11.4129
  61   2.0000      -0.413554       -11.2534
  62   2.0000      -0.410795       -11.1783
  63   2.0000      -0.348748        -9.4899
  64   2.0000      -0.332268        -9.0415
  65   2.0000      -0.325301        -8.8519
  66   2.0000      -0.290377        -7.9016
  67   0.0000       0.025362         0.6901
  68   0.0000       0.071133         1.9356
  69   0.0000       0.109753         2.9865
  70   0.0000       0.113283         3.0826
  71   0.0000       0.133482         3.6322

MULLIKEN ATOMIC CHARGES
-----------------------
   0 S :    0.129919
   1 C :   -0.139607
   2 C :   -0.086392
   3 C :   -0.007966
   4 C :   -0.111723
   5 H :   -0.013923
   6 C :    0.115133
   7 H :    0.049780
   8 H :    0.014330
   9 C :   -0.169540
  10 H :    0.048069
  11 H :    0.061305
  12 C :   -0.028384
  13 H :    0.028882
  14 H :    0.035149
  15 H :    0.040417
  16 S :    0.079119
  17 C :   -0.074442
  18 C :   -0.033356
  19 C :   -0.002665
  20 C :   -0.176270
  21 H :    0.006106
  22 C :    0.052884
  23 H :    0.014720
  24 H :    0.037098
  25 C :   -0.085523
  26 H :    0.031029
  27 H :    0.026106
  28 C :   -0.029312
  29 H :    0.034923
  30 H :    0.031032
  31 H :    0.034652
  32 H :    0.050324
  33 H :    0.038128
Sum of atomic charges:    0.0000000

LOEWDIN ATOMIC CHARGES
----------------------
   0 S :    0.420377
   1 C :   -0.206976
   2 C :   -0.071056
   3 C :   -0.066435
   4 C :   -0.198748
   5 H :    0.025965
   6 C :   -0.028123
   7 H :    0.041865
   8 H :    0.024130
   9 C :   -0.051720
  10 H :    0.029272
  11 H :    0.034956
  12 C :   -0.067259
  13 H :    0.019239
  14 H :    0.025855
  15 H :    0.034708
  16 S :    0.372186
  17 C :   -0.161367
  18 C :   -0.068495
  19 C :   -0.052281
  20 C :   -0.184185
  21 H :    0.026110
  22 C :   -0.031712
  23 H :    0.027427
  24 H :    0.033359
  25 C :   -0.035171
  26 H :    0.022465
  27 H :    0.020375
  28 C :   -0.066358
  29 H :    0.029741
  30 H :    0.026084
  31 H :    0.023706
  32 H :    0.030593
  33 H :    0.021473

  Mayer bond orders larger than 0.100000
B(  0-S ,  1-C ) :   1.1680 B(  0-S ,  4-C ) :   1.1406 B(  1-C ,  2-C ) :   1.5912
B(  1-C , 32-H ) :   0.9608 B(  2-C ,  3-C ) :   1.2828 B(  2-C ,  6-C ) :   0.9999
B(  3-C ,  4-C ) :   1.5454 B(  3-C ,  5-H ) :   0.9853 B(  4-C , 20-C ) :   1.0599
B(  6-C ,  7-H ) :   0.9317 B(  6-C ,  8-H ) :   0.9450 B(  6-C ,  9-C ) :   1.0544
B(  9-C , 10-H ) :   0.9411 B(  9-C , 11-H ) :   0.9644 B(  9-C , 12-C ) :   1.0734
B( 12-C , 13-H ) :   0.9765 B( 12-C , 14-H ) :   0.9753 B( 12-C , 15-H ) :   0.9737
B( 16-S , 17-C ) :   1.1308 B( 16-S , 20-C ) :   1.1369 B( 17-C , 18-C ) :   1.6413
B( 17-C , 33-H ) :   0.9730 B( 18-C , 19-C ) :   1.2103 B( 18-C , 21-H ) :   0.9913
B( 19-C , 20-C ) :   1.5652 B( 19-C , 22-C ) :   1.0761 B( 22-C , 23-H ) :   0.9219
B( 22-C , 24-H ) :   0.9339 B( 22-C , 25-C ) :   1.0576 B( 25-C , 26-H ) :   0.9538
B( 25-C , 27-H ) :   0.9536 B( 25-C , 28-C ) :   1.0778 B( 28-C , 29-H ) :   0.9706
B( 28-C , 30-H ) :   0.9721 B( 28-C , 31-H ) :   0.9723

Dispersion correction           -0.014637603
FINAL SINGLE POINT ENERGY     -1339.875881159334

DIPOLE MOMENT
-------------
                                X             Y             Z
Electronic contribution:    -29.59661       8.62514       9.99425
Nuclear contribution   :     30.41176      -8.81359     -10.11041
                        -----------------------------------------
Total Dipole Moment    :      0.81515      -0.18845      -0.11616
                        -----------------------------------------
Magnitude (a.u.)       :      0.84467
Magnitude (Debye)      :      2.14699

Rotational constants in cm-1:     0.016957     0.009704     0.006873
Rotational constants in MHz :   508.365134   290.904199   206.051987

                             ****ORCA TERMINATED NORMALLY****
TOTAL RUN TIME: 0 days 0 hours 0 minutes 34 seconds 448 msec
