                         Program Version 4.2.1 -  RELEASE  -
|  1> ! wB97X-D3 SP def2-SVP
|  2> %pal
|  3> nprocs 16
|  4> end
|  5>
|  6> * xyz 0 1
|  7> S 	 -30.2371 	 56.0157 	 110.752
|  8> C 	 -31.1603 	 55.0211 	 111.915
|  9> C 	 -31.101 	 55.5224 	 113.219
| 10> C 	 -30.5833 	 56.8717 	 113.244
| 11> C 	 -30.0859 	 57.2662 	 111.978
| 12> H 	 -30.5413 	 57.6024 	 114.098
| 13> C 	 -31.5652 	 54.7092 	 114.411
| 14> H 	 -31.1782 	 55.0154 	 115.425
| 15> H 	 -31.2562 	 53.6857 	 114.353
| 16> C 	 -33.1145 	 54.5343 	 114.539
| 17> H 	 -33.4123 	 54.1051 	 113.533
| 18> H 	 -33.2143 	 53.81 	 115.259
| 19> C 	 -33.9678 	 55.8574 	 114.679
| 20> H 	 -33.5085 	 56.4519 	 115.351
| 21> H 	 -34.1056 	 56.3893 	 113.761
| 22> H 	 -34.9467 	 55.5827 	 115.031
| 23> S 	 -27.8662 	 58.581 	 111.042
| 24> C 	 -27.905 	 60.2503 	 110.599
| 25> C 	 -29.1821 	 60.736 	 110.655
| 26> C 	 -30.0983 	 59.8516 	 111.335
| 27> C 	 -29.5618 	 58.5683 	 111.578
| 28> H 	 -29.4276 	 61.7303 	 110.273
| 29> C 	 -31.5466 	 60.0865 	 111.254
| 30> H 	 -31.9879 	 59.1437 	 111.605
| 31> H 	 -31.9367 	 60.0465 	 110.178
| 32> C 	 -32.1638 	 61.2215 	 112.005
| 33> H 	 -33.14 	 61.3304 	 111.542
| 34> H 	 -31.5356 	 62.0966 	 111.691
| 35> C 	 -32.2517 	 61.2714 	 113.535
| 36> H 	 -32.8384 	 61.9847 	 114.057
| 37> H 	 -31.2771 	 61.4109 	 113.941
| 38> H 	 -32.5717 	 60.3207 	 113.844
| 39> H 	 -31.5116 	 54.071 	 111.663
| 40> H 	 -27.1135 	 60.7889 	 110.138
| 41> *
| 42>
| 43>                          ****END OF INPUT****

CARTESIAN COORDINATES (ANGSTROEM)
---------------------------------
  S    -30.237100   56.015700  110.752000
  C    -31.160300   55.021100  111.915000
  C    -31.101000   55.522400  113.219000
  C    -30.583300   56.871700  113.244000
  C    -30.085900   57.266200  111.978000
  H    -30.541300   57.602400  114.098000
  C    -31.565200   54.709200  114.411000
  H    -31.178200   55.015400  115.425000
  H    -31.256200   53.685700  114.353000
  C    -33.114500   54.534300  114.539000
  H    -33.412300   54.105100  113.533000
  H    -33.214300   53.810000  115.259000
  C    -33.967800   55.857400  114.679000
  H    -33.508500   56.451900  115.351000
  H    -34.105600   56.389300  113.761000
  H    -34.946700   55.582700  115.031000
  S    -27.866200   58.581000  111.042000
  C    -27.905000   60.250300  110.599000
  C    -29.182100   60.736000  110.655000
  C    -30.098300   59.851600  111.335000
  C    -29.561800   58.568300  111.578000
  H    -29.427600   61.730300  110.273000
  C    -31.546600   60.086500  111.254000
  H    -31.987900   59.143700  111.605000
  H    -31.936700   60.046500  110.178000
  C    -32.163800   61.221500  112.005000
  H    -33.140000   61.330400  111.542000
  H    -31.535600   62.096600  111.691000
  C    -32.251700   61.271400  113.535000
  H    -32.838400   61.984700  114.057000
  H    -31.277100   61.410900  113.941000
  H    -32.571700   60.320700  113.844000
  H    -31.511600   54.071000  111.663000
  H    -27.113500   60.788900  110.138000

 Total Charge           Charge          ....    0
 Multiplicity           Mult            ....    1
 Number of Electrons    NEL             ....  134
 Basis Dimension        Dim             ....  322

ORBITAL ENERGIES
----------------

  NO   OCC          E(Eh)            E(eV)
   0   2.0000     -88.971406     -2421.0351
   1   2.0000     -88.961910     -2420.7766
   2   2.0000     -10.335915      -281.2546
   3   2.0000     -10.330933      -281.1190
   4   2.0000     -10.316789      -280.7341
   5   2.0000     -10.312776      -280.6249
   6   2.0000     -10.311459      -280.5891
   7   2.0000     -10.308710      -280.5142
   8   2.0000     -10.302552      -280.3467
   9   2.0000     -10.296437      -280.1803
  10   2.0000     -10.292907      -280.0842
  11   2.0000     -10.288509      -279.9646
  12   2.0000     -10.286447      -279.9084
  13   2.0000     -10.283068      -279.8165
  14   2.0000     -10.268320      -279.4152
  15   2.0000     -10.266052      -279.3535
  16   2.0000      -8.085251      -220.0109
  17   2.0000      -8.076870      -219.7828
  18   2.0000      -6.043711      -164.4577
  19   2.0000      -6.039970      -164.3559
  20   2.0000      -6.036022      -164.2485
  21   2.0000      -6.035388      -164.2313
  22   2.0000      -6.031267      -164.1191
  23   2.0000      -6.027680      -164.0215
  24   2.0000      -1.002474       -27.2787
  25   2.0000      -0.979672       -26.6582
  26   2.0000      -0.911829       -24.8121
  27   2.0000      -0.908559       -24.7232
  28   2.0000      -0.866727       -23.5848
  29   2.0000      -0.848905       -23.0999
  30   2.0000      -0.843301       -22.9474
  31   2.0000      -0.815108       -22.1802
  32   2.0000      -0.789831       -21.4924
  33   2.0000      -0.777948       -21.1690
  34   2.0000      -0.708095       -19.2682
  35   2.0000      -0.704086       -19.1592
  36   2.0000      -0.694548       -18.8996
  37   2.0000      -0.651963       -17.7408
  38   2.0000      -0.643223       -17.5030
  39   2.0000      -0.611812       -16.6482
  40   2.0000      -0.599116       -16.3028
  41   2.0000      -0.576718       -15.6933
  42   2.0000      -0.550365       -14.9762
  43   2.0000      -0.545939       -14.8558
  44   2.0000      -0.541872       -14.7451
  45   2.0000      -0.534836       -14.5536
  46   2.0000      -0.518519       -14.1096
  47   2.0000      -0.515023       -14.0145
  48   2.0000      -0.504168       -13.7191
  49   2.0000      -0.499734       -13.5985
  50   2.0000      -0.489205       -13.3119
  51   2.0000      -0.481492       -13.1021
  52   2.0000      -0.472509       -12.8576
  53   2.0000      -0.467133       -12.7113
  54   2.0000      -0.463985       -12.6257
  55   2.0000      -0.451915       -12.2972
  56   2.0000      -0.444785       -12.1032
  57   2.0000      -0.438644       -11.9361
  58   2.0000      -0.436086       -11.8665
  59   2.0000      -0.428952       -11.6724
  60   2.0000      -0.411496       -11.1974
  61   2.0000      -0.410292       -11.1646
  62   2.0000      -0.395545       -10.7633
  63   2.0000      -0.335899        -9.1403
  64   2.0000      -0.333914        -9.0863
  65   2.0000      -0.326284        -8.8786
  66   2.0000      -0.296850        -8.0777
  67   0.0000       0.031838         0.8664
  68   0.0000       0.051866         1.4114
  69   0.0000       0.100648         2.7388
  70   0.0000       0.112293         3.0556
  71   0.0000       0.123580         3.3628

MULLIKEN ATOMIC CHARGES
-----------------------
   0 S :    0.123323
   1 C :   -0.108127
   2 C :   -0.055097
   3 C :    0.034824
   4 C :   -0.176814
   5 H :    0.040684
   6 C :    0.035100
   7 H :    0.032763
   8 H :    0.023437
   9 C :   -0.090703
  10 H :    0.026009
  11 H :    0.016291
  12 C :    0.009468
  13 H :    0.003444
  14 H :    0.037538
  15 H :    0.028235
  16 S :    0.093421
  17 C :   -0.067894
  18 C :   -0.048848
  19 C :    0.007508
  20 C :   -0.174297
  21 H :    0.030926
  22 C :   -0.007650
  23 H :    0.013154
  24 H :    0.053742
  25 C :   -0.068173
  26 H :    0.024348
  27 H :    0.016308
  28 C :    0.017162
  29 H :    0.028730
  30 H :    0.017391
  31 H :    0.004251
  32 H :    0.030490
  33 H :    0.049057
Sum of atomic charges:   -0.0000000

LOEWDIN ATOMIC CHARGES
----------------------
   0 S :    0.398725
   1 C :   -0.174689
   2 C :   -0.056028
   3 C :   -0.058453
   4 C :   -0.200078
   5 H :    0.044816
   6 C :   -0.037343
   7 H :    0.032851
   8 H :    0.030464
   9 C :   -0.027093
  10 H :    0.025763
  11 H :    0.009422
  12 C :   -0.050873
  13 H :    0.006452
  14 H :    0.028254
  15 H :    0.027572
  16 S :    0.401766
  17 C :   -0.185730
  18 C :   -0.070974
  19 C :   -0.063082
  20 C :   -0.193092
  21 H :    0.033246
  22 C :   -0.047726
  23 H :    0.027594
  24 H :    0.049198
  25 C :   -0.045011
  26 H :    0.024811
  27 H :    0.022577
  28 C :   -0.058329
  29 H :    0.026036
  30 H :    0.024407
  31 H :    0.016591
  32 H :    0.011940
  33 H :    0.026015

  Mayer bond orders larger than 0.100000
B(  0-S ,  1-C ) :   1.1359 B(  0-S ,  4-C ) :   1.1532 B(  1-C ,  2-C ) :   1.6079
B(  1-C ,  4-C ) :   0.1050 B(  1-C , 32-H ) :   0.9741 B(  2-C ,  3-C ) :   1.2149
B(  2-C ,  6-C ) :   1.0251 B(  3-C ,  4-C ) :   1.5810 B(  3-C ,  5-H ) :   0.9876
B(  4-C , 20-C ) :   1.0231 B(  6-C ,  7-H ) :   0.9474 B(  6-C ,  8-H ) :   0.9399
B(  6-C ,  9-C ) :   1.0767 B(  9-C , 10-H ) :   0.9606 B(  9-C , 11-H ) :   0.9627
B(  9-C , 12-C ) :   1.0585 B( 12-C , 13-H ) :   0.9801 B( 12-C , 14-H ) :   0.9753
B( 12-C , 15-H ) :   0.9751 B( 16-S , 17-C ) :   1.1561 B( 16-S , 20-C ) :   1.1453
B( 17-C , 18-C ) :   1.6170 B( 17-C , 33-H ) :   0.9689 B( 18-C , 19-C ) :   1.2312
B( 18-C , 21-H ) :   0.9842 B( 19-C , 20-C ) :   1.5662 B( 19-C , 22-C ) :   1.0630
B( 22-C , 23-H ) :   0.9292 B( 22-C , 24-H ) :   0.9377 B( 22-C , 25-C ) :   1.0689
B( 25-C , 26-H ) :   0.9512 B( 25-C , 27-H ) :   0.9587 B( 25-C , 28-C ) :   1.0708
B( 28-C , 29-H ) :   0.9755 B( 28-C , 30-H ) :   0.9706 B( 28-C , 31-H ) :   0.9717

Dispersion correction           -0.014528045
FINAL SINGLE POINT ENERGY     -1339.849035315307

DIPOLE MOMENT
-------------
                                X             Y             Z
Electronic contribution:     23.05418      -4.62237     -16.16552
Nuclear contribution   :    -23.51205       4.61478      16.39507
                        -----------------------------------------
Total Dipole Moment    :     -0.45787      -0.00759       0.22955
                        -----------------------------------------
Magnitude (a.u.)       :      0.51224
Magnitude (Debye)      :      1.30202

Rotational constants in cm-1:     0.018726     0.009089     0.006791
Rotational constants in MHz :   561.394929   272.469771   203.580166

                             ****ORCA TERMINATED NORMALLY****
TOTAL RUN TIME: 0 days 0 hours 0 minutes 30 seconds 803 msec
