                         Program Version 4.2.1 -  RELEASE  -
|  1> ! wB97X-D3 SP def2-SVP
|  2> %pal
|  3> nprocs 16
|  4> end
|  5>
|  6> * xyz 0 1
|  7> S 	 -114.236 	 45.4923 	 133.577
|  8> C 	 -114.743 	 44.412 	 134.867
|  9> C 	 -115.679 	 44.9595 	 135.718
| 10> C 	 -116.01 	 46.2712 	 135.205
| 11> C 	 -115.429 	 46.7082 	 134.023
| 12> H 	 -116.68 	 46.911 	 135.707
| 13> C 	 -116.203 	 44.3928 	 137.005
| 14> H 	 -116.926 	 43.5996 	 136.827
| 15> H 	 -116.843 	 45.2015 	 137.509
| 16> C 	 -115.064 	 44.0779 	 138.07
| 17> H 	 -115.546 	 43.8573 	 139.043
| 18> H 	 -114.513 	 43.2463 	 137.69
| 19> C 	 -114.056 	 45.2302 	 138.292
| 20> H 	 -114.459 	 46.0268 	 138.964
| 21> H 	 -113.183 	 44.8442 	 138.796
| 22> H 	 -113.765 	 45.7402 	 137.392
| 23> S 	 -114.076 	 48.5067 	 132.413
| 24> C 	 -114.775 	 49.9174 	 131.736
| 25> C 	 -116.083 	 50.0484 	 132.165
| 26> C 	 -116.488 	 48.9571 	 133.094
| 27> C 	 -115.524 	 47.995 	 133.264
| 28> H 	 -116.633 	 50.8473 	 131.737
| 29> C 	 -117.855 	 48.8131 	 133.647
| 30> H 	 -118.02 	 49.6792 	 134.267
| 31> H 	 -117.892 	 47.867 	 134.19
| 32> C 	 -118.993 	 48.7334 	 132.719
| 33> H 	 -118.898 	 49.7043 	 132.22
| 34> H 	 -120.017 	 48.6175 	 133.152
| 35> C 	 -118.831 	 47.6119 	 131.583
| 36> H 	 -117.988 	 47.7516 	 130.95
| 37> H 	 -119.705 	 47.6305 	 130.981
| 38> H 	 -118.762 	 46.5666 	 131.935
| 39> H 	 -114.413 	 43.3525 	 135.085
| 40> H 	 -114.282 	 50.5619 	 130.985
| 41> *
| 42>
| 43>                          ****END OF INPUT****

CARTESIAN COORDINATES (ANGSTROEM)
---------------------------------
  S    -114.236000   45.492300  133.577000
  C    -114.743000   44.412000  134.867000
  C    -115.679000   44.959500  135.718000
  C    -116.010000   46.271200  135.205000
  C    -115.429000   46.708200  134.023000
  H    -116.680000   46.911000  135.707000
  C    -116.203000   44.392800  137.005000
  H    -116.926000   43.599600  136.827000
  H    -116.843000   45.201500  137.509000
  C    -115.064000   44.077900  138.070000
  H    -115.546000   43.857300  139.043000
  H    -114.513000   43.246300  137.690000
  C    -114.056000   45.230200  138.292000
  H    -114.459000   46.026800  138.964000
  H    -113.183000   44.844200  138.796000
  H    -113.765000   45.740200  137.392000
  S    -114.076000   48.506700  132.413000
  C    -114.775000   49.917400  131.736000
  C    -116.083000   50.048400  132.165000
  C    -116.488000   48.957100  133.094000
  C    -115.524000   47.995000  133.264000
  H    -116.633000   50.847300  131.737000
  C    -117.855000   48.813100  133.647000
  H    -118.020000   49.679200  134.267000
  H    -117.892000   47.867000  134.190000
  C    -118.993000   48.733400  132.719000
  H    -118.898000   49.704300  132.220000
  H    -120.017000   48.617500  133.152000
  C    -118.831000   47.611900  131.583000
  H    -117.988000   47.751600  130.950000
  H    -119.705000   47.630500  130.981000
  H    -118.762000   46.566600  131.935000
  H    -114.413000   43.352500  135.085000
  H    -114.282000   50.561900  130.985000

 Total Charge           Charge          ....    0
 Multiplicity           Mult            ....    1
 Number of Electrons    NEL             ....  134
 Basis Dimension        Dim             ....  322

ORBITAL ENERGIES
----------------

  NO   OCC          E(Eh)            E(eV)
   0   2.0000     -88.969360     -2420.9794
   1   2.0000     -88.961228     -2420.7581
   2   2.0000     -10.338752      -281.3317
   3   2.0000     -10.334190      -281.2076
   4   2.0000     -10.321565      -280.8641
   5   2.0000     -10.319954      -280.8202
   6   2.0000     -10.308568      -280.5104
   7   2.0000     -10.303570      -280.3744
   8   2.0000     -10.303103      -280.3617
   9   2.0000     -10.299411      -280.2612
  10   2.0000     -10.294268      -280.1213
  11   2.0000     -10.293930      -280.1121
  12   2.0000     -10.288282      -279.9584
  13   2.0000     -10.281300      -279.7684
  14   2.0000     -10.275122      -279.6003
  15   2.0000     -10.269063      -279.4354
  16   2.0000      -8.083518      -219.9637
  17   2.0000      -8.077019      -219.7869
  18   2.0000      -6.042222      -164.4172
  19   2.0000      -6.038105      -164.3052
  20   2.0000      -6.035598      -164.2370
  21   2.0000      -6.034079      -164.1956
  22   2.0000      -6.031266      -164.1191
  23   2.0000      -6.027738      -164.0231
  24   2.0000      -1.007433       -27.4136
  25   2.0000      -0.985962       -26.8294
  26   2.0000      -0.917222       -24.9589
  27   2.0000      -0.908229       -24.7142
  28   2.0000      -0.866914       -23.5899
  29   2.0000      -0.846642       -23.0383
  30   2.0000      -0.835829       -22.7441
  31   2.0000      -0.816652       -22.2222
  32   2.0000      -0.784896       -21.3581
  33   2.0000      -0.778481       -21.1835
  34   2.0000      -0.706839       -19.2341
  35   2.0000      -0.703602       -19.1460
  36   2.0000      -0.691482       -18.8162
  37   2.0000      -0.658501       -17.9187
  38   2.0000      -0.631964       -17.1966
  39   2.0000      -0.619812       -16.8659
  40   2.0000      -0.594139       -16.1673
  41   2.0000      -0.577690       -15.7198
  42   2.0000      -0.561164       -15.2701
  43   2.0000      -0.551749       -15.0139
  44   2.0000      -0.550585       -14.9822
  45   2.0000      -0.540115       -14.6973
  46   2.0000      -0.511893       -13.9293
  47   2.0000      -0.505440       -13.7537
  48   2.0000      -0.501482       -13.6460
  49   2.0000      -0.496245       -13.5035
  50   2.0000      -0.493143       -13.4191
  51   2.0000      -0.471746       -12.8369
  52   2.0000      -0.470299       -12.7975
  53   2.0000      -0.464797       -12.6478
  54   2.0000      -0.459549       -12.5050
  55   2.0000      -0.451477       -12.2853
  56   2.0000      -0.445113       -12.1122
  57   2.0000      -0.440438       -11.9849
  58   2.0000      -0.431429       -11.7398
  59   2.0000      -0.423718       -11.5299
  60   2.0000      -0.414406       -11.2766
  61   2.0000      -0.407053       -11.0765
  62   2.0000      -0.405164       -11.0251
  63   2.0000      -0.362102        -9.8533
  64   2.0000      -0.332407        -9.0453
  65   2.0000      -0.324981        -8.8432
  66   2.0000      -0.291575        -7.9342
  67   0.0000       0.025134         0.6839
  68   0.0000       0.078945         2.1482
  69   0.0000       0.104353         2.8396
  70   0.0000       0.114093         3.1046
  71   0.0000       0.136514         3.7147

MULLIKEN ATOMIC CHARGES
-----------------------
   0 S :    0.106752
   1 C :   -0.132790
   2 C :   -0.109386
   3 C :    0.019606
   4 C :   -0.114991
   5 H :   -0.007098
   6 C :    0.046876
   7 H :    0.048926
   8 H :    0.028650
   9 C :   -0.075426
  10 H :    0.042191
  11 H :    0.028871
  12 C :   -0.063732
  13 H :    0.030899
  14 H :    0.033924
  15 H :    0.049325
  16 S :    0.080517
  17 C :   -0.096224
  18 C :   -0.033224
  19 C :   -0.079768
  20 C :   -0.112476
  21 H :    0.014003
  22 C :    0.106372
  23 H :    0.031230
  24 H :    0.015190
  25 C :   -0.100000
  26 H :    0.017694
  27 H :    0.046754
  28 C :   -0.053479
  29 H :    0.036113
  30 H :    0.021177
  31 H :    0.032478
  32 H :    0.065302
  33 H :    0.075744
Sum of atomic charges:   -0.0000000

LOEWDIN ATOMIC CHARGES
----------------------
   0 S :    0.400070
   1 C :   -0.201555
   2 C :   -0.070792
   3 C :   -0.062141
   4 C :   -0.186684
   5 H :    0.017116
   6 C :   -0.038495
   7 H :    0.034319
   8 H :    0.037395
   9 C :   -0.033028
  10 H :    0.030134
  11 H :    0.016267
  12 C :   -0.067097
  13 H :    0.027880
  14 H :    0.026601
  15 H :    0.025579
  16 S :    0.403595
  17 C :   -0.192535
  18 C :   -0.073872
  19 C :   -0.054075
  20 C :   -0.188809
  21 H :    0.026474
  22 C :   -0.041249
  23 H :    0.034668
  24 H :    0.029856
  25 C :   -0.038657
  26 H :    0.020439
  27 H :    0.032189
  28 C :   -0.065940
  29 H :    0.021933
  30 H :    0.019606
  31 H :    0.027553
  32 H :    0.042411
  33 H :    0.040845

  Mayer bond orders larger than 0.100000
B(  0-S ,  1-C ) :   1.1426 B(  0-S ,  4-C ) :   1.1358 B(  1-C ,  2-C ) :   1.6181
B(  1-C , 32-H ) :   0.9553 B(  2-C ,  3-C ) :   1.2527 B(  2-C ,  6-C ) :   1.0154
B(  3-C ,  4-C ) :   1.5765 B(  3-C ,  5-H ) :   0.9907 B(  4-C , 20-C ) :   1.0356
B(  6-C ,  7-H ) :   0.9406 B(  6-C ,  8-H ) :   0.9464 B(  6-C ,  9-C ) :   1.0535
B(  9-C , 10-H ) :   0.9606 B(  9-C , 11-H ) :   0.9623 B(  9-C , 12-C ) :   1.0729
B( 12-C , 13-H ) :   0.9769 B( 12-C , 14-H ) :   0.9749 B( 12-C , 15-H ) :   0.9738
B( 16-S , 17-C ) :   1.1599 B( 16-S , 20-C ) :   1.1272 B( 17-C , 18-C ) :   1.6265
B( 17-C , 33-H ) :   0.9634 B( 18-C , 19-C ) :   1.1810 B( 18-C , 21-H ) :   0.9995
B( 19-C , 20-C ) :   1.6321 B( 19-C , 22-C ) :   1.0530 B( 22-C , 23-H ) :   0.9219
B( 22-C , 24-H ) :   0.9300 B( 22-C , 25-C ) :   1.0763 B( 25-C , 26-H ) :   0.9532
B( 25-C , 27-H ) :   0.9589 B( 25-C , 28-C ) :   1.0695 B( 28-C , 29-H ) :   0.9744
B( 28-C , 30-H ) :   0.9771 B( 28-C , 31-H ) :   0.9778

Dispersion correction           -0.014775371
FINAL SINGLE POINT ENERGY     -1339.871393233122

DIPOLE MOMENT
-------------
                                X             Y             Z
Electronic contribution:     15.35014       3.63644     -13.14417
Nuclear contribution   :    -15.81532      -3.57834      13.47053
                        -----------------------------------------
Total Dipole Moment    :     -0.46518       0.05810       0.32635
                        -----------------------------------------
Magnitude (a.u.)       :      0.57120
Magnitude (Debye)      :      1.45188

Rotational constants in cm-1:     0.022105     0.008087     0.006953
Rotational constants in MHz :   662.684433   242.431916   208.442112

                             ****ORCA TERMINATED NORMALLY****
TOTAL RUN TIME: 0 days 0 hours 0 minutes 34 seconds 379 msec
