                         Program Version 4.2.1 -  RELEASE  -
|  1> ! wB97X-D3 SP def2-SVP
|  2> %pal
|  3> nprocs 16
|  4> end
|  5>
|  6> * xyz 0 1
|  7> S 	 -31.3034 	 63.0329 	 114.232
|  8> C 	 -29.9876 	 61.8234 	 114.177
|  9> C 	 -30.5131 	 60.5905 	 114.581
| 10> C 	 -31.9415 	 60.5436 	 114.705
| 11> C 	 -32.5061 	 61.8009 	 114.597
| 12> H 	 -32.6267 	 59.6631 	 114.878
| 13> C 	 -29.718 	 59.2476 	 114.733
| 14> H 	 -28.6306 	 59.4321 	 114.697
| 15> H 	 -30.0166 	 58.6866 	 113.885
| 16> C 	 -30.0286 	 58.7483 	 116.177
| 17> H 	 -29.7751 	 59.4912 	 116.913
| 18> H 	 -31.121 	 58.5874 	 116.339
| 19> C 	 -29.3102 	 57.4154 	 116.617
| 20> H 	 -28.199 	 57.3936 	 116.407
| 21> H 	 -29.4743 	 57.4194 	 117.702
| 22> H 	 -29.7406 	 56.4428 	 116.17
| 23> S 	 -34.811 	 62.0166 	 116.11
| 24> C 	 -36.2272 	 62.8229 	 115.415
| 25> C 	 -36.0504 	 62.9121 	 114.041
| 26> C 	 -34.7607 	 62.5942 	 113.541
| 27> C 	 -33.9338 	 62.1484 	 114.614
| 28> H 	 -36.8967 	 63.1228 	 113.371
| 29> C 	 -34.4699 	 62.8475 	 112.088
| 30> H 	 -33.686 	 63.6158 	 111.977
| 31> H 	 -35.3879 	 63.202 	 111.589
| 32> C 	 -34.0197 	 61.506 	 111.395
| 33> H 	 -34.6127 	 60.7106 	 111.746
| 34> H 	 -33.0248 	 61.3559 	 111.863
| 35> C 	 -34.035 	 61.5769 	 109.921
| 36> H 	 -34.9454 	 62.0883 	 109.469
| 37> H 	 -34.1431 	 60.5516 	 109.54
| 38> H 	 -33.1591 	 62.068 	 109.406
| 39> H 	 -28.9107 	 61.9243 	 113.976
| 40> H 	 -37.1799 	 62.8759 	 115.839
| 41> *
| 42>
| 43>                          ****END OF INPUT****

CARTESIAN COORDINATES (ANGSTROEM)
---------------------------------
  S    -31.303400   63.032900  114.232000
  C    -29.987600   61.823400  114.177000
  C    -30.513100   60.590500  114.581000
  C    -31.941500   60.543600  114.705000
  C    -32.506100   61.800900  114.597000
  H    -32.626700   59.663100  114.878000
  C    -29.718000   59.247600  114.733000
  H    -28.630600   59.432100  114.697000
  H    -30.016600   58.686600  113.885000
  C    -30.028600   58.748300  116.177000
  H    -29.775100   59.491200  116.913000
  H    -31.121000   58.587400  116.339000
  C    -29.310200   57.415400  116.617000
  H    -28.199000   57.393600  116.407000
  H    -29.474300   57.419400  117.702000
  H    -29.740600   56.442800  116.170000
  S    -34.811000   62.016600  116.110000
  C    -36.227200   62.822900  115.415000
  C    -36.050400   62.912100  114.041000
  C    -34.760700   62.594200  113.541000
  C    -33.933800   62.148400  114.614000
  H    -36.896700   63.122800  113.371000
  C    -34.469900   62.847500  112.088000
  H    -33.686000   63.615800  111.977000
  H    -35.387900   63.202000  111.589000
  C    -34.019700   61.506000  111.395000
  H    -34.612700   60.710600  111.746000
  H    -33.024800   61.355900  111.863000
  C    -34.035000   61.576900  109.921000
  H    -34.945400   62.088300  109.469000
  H    -34.143100   60.551600  109.540000
  H    -33.159100   62.068000  109.406000
  H    -28.910700   61.924300  113.976000
  H    -37.179900   62.875900  115.839000

 Total Charge           Charge          ....    0
 Multiplicity           Mult            ....    1
 Number of Electrons    NEL             ....  134
 Basis Dimension        Dim             ....  322

ORBITAL ENERGIES
----------------

  NO   OCC          E(Eh)            E(eV)
   0   2.0000     -88.969490     -2420.9829
   1   2.0000     -88.968375     -2420.9526
   2   2.0000     -10.331576      -281.1365
   3   2.0000     -10.330235      -281.1000
   4   2.0000     -10.320055      -280.8230
   5   2.0000     -10.314133      -280.6618
   6   2.0000     -10.306211      -280.4463
   7   2.0000     -10.304748      -280.4064
   8   2.0000     -10.300250      -280.2840
   9   2.0000     -10.296602      -280.1848
  10   2.0000     -10.293529      -280.1012
  11   2.0000     -10.293492      -280.1002
  12   2.0000     -10.292681      -280.0781
  13   2.0000     -10.290411      -280.0163
  14   2.0000     -10.280940      -279.7586
  15   2.0000     -10.278271      -279.6860
  16   2.0000      -8.083620      -219.9665
  17   2.0000      -8.081804      -219.9171
  18   2.0000      -6.042129      -164.4147
  19   2.0000      -6.040523      -164.3710
  20   2.0000      -6.038197      -164.3077
  21   2.0000      -6.036415      -164.2592
  22   2.0000      -6.034432      -164.2052
  23   2.0000      -6.032481      -164.1522
  24   2.0000      -1.001808       -27.2606
  25   2.0000      -0.978928       -26.6380
  26   2.0000      -0.908393       -24.7186
  27   2.0000      -0.902519       -24.5588
  28   2.0000      -0.864248       -23.5174
  29   2.0000      -0.851355       -23.1665
  30   2.0000      -0.839457       -22.8428
  31   2.0000      -0.811263       -22.0756
  32   2.0000      -0.778489       -21.1838
  33   2.0000      -0.766039       -20.8450
  34   2.0000      -0.708315       -19.2742
  35   2.0000      -0.694749       -18.9051
  36   2.0000      -0.687031       -18.6951
  37   2.0000      -0.661429       -17.9984
  38   2.0000      -0.633768       -17.2457
  39   2.0000      -0.613991       -16.7076
  40   2.0000      -0.594707       -16.1828
  41   2.0000      -0.561925       -15.2908
  42   2.0000      -0.560248       -15.2451
  43   2.0000      -0.556524       -15.1438
  44   2.0000      -0.527781       -14.3617
  45   2.0000      -0.521490       -14.1905
  46   2.0000      -0.515426       -14.0254
  47   2.0000      -0.506934       -13.7944
  48   2.0000      -0.503711       -13.7067
  49   2.0000      -0.496619       -13.5137
  50   2.0000      -0.488953       -13.3051
  51   2.0000      -0.478882       -13.0310
  52   2.0000      -0.470288       -12.7972
  53   2.0000      -0.460164       -12.5217
  54   2.0000      -0.458109       -12.4658
  55   2.0000      -0.452751       -12.3200
  56   2.0000      -0.443512       -12.0686
  57   2.0000      -0.441000       -12.0002
  58   2.0000      -0.431697       -11.7471
  59   2.0000      -0.422430       -11.4949
  60   2.0000      -0.421091       -11.4585
  61   2.0000      -0.405251       -11.0274
  62   2.0000      -0.403625       -10.9832
  63   2.0000      -0.337133        -9.1738
  64   2.0000      -0.332678        -9.0526
  65   2.0000      -0.322934        -8.7875
  66   2.0000      -0.300734        -8.1834
  67   0.0000       0.030646         0.8339
  68   0.0000       0.060465         1.6453
  69   0.0000       0.109321         2.9748
  70   0.0000       0.117072         3.1857
  71   0.0000       0.131253         3.5716

MULLIKEN ATOMIC CHARGES
-----------------------
   0 S :    0.112688
   1 C :   -0.128016
   2 C :   -0.120478
   3 C :    0.013651
   4 C :   -0.170954
   5 H :    0.046004
   6 C :    0.106918
   7 H :    0.020204
   8 H :    0.042079
   9 C :   -0.124842
  10 H :    0.037704
  11 H :    0.039610
  12 C :   -0.078748
  13 H :    0.040901
  14 H :    0.039436
  15 H :    0.046937
  16 S :    0.118844
  17 C :   -0.065960
  18 C :   -0.064907
  19 C :   -0.016591
  20 C :   -0.189391
  21 H :    0.029117
  22 C :    0.066118
  23 H :    0.045838
  24 H :    0.013219
  25 C :   -0.075541
  26 H :    0.019830
  27 H :    0.050310
  28 C :   -0.057080
  29 H :    0.028339
  30 H :    0.031233
  31 H :    0.045890
  32 H :    0.056048
  33 H :    0.041587
Sum of atomic charges:    0.0000000

LOEWDIN ATOMIC CHARGES
----------------------
   0 S :    0.391381
   1 C :   -0.205640
   2 C :   -0.058426
   3 C :   -0.074112
   4 C :   -0.192810
   5 H :    0.045318
   6 C :   -0.024146
   7 H :    0.029039
   8 H :    0.028416
   9 C :   -0.044006
  10 H :    0.027852
  11 H :    0.027562
  12 C :   -0.080419
  13 H :    0.026969
  14 H :    0.028034
  15 H :    0.031503
  16 S :    0.415458
  17 C :   -0.182285
  18 C :   -0.068311
  19 C :   -0.052379
  20 C :   -0.213463
  21 H :    0.033143
  22 C :   -0.028297
  23 H :    0.034459
  24 H :    0.026160
  25 C :   -0.042940
  26 H :    0.018587
  27 H :    0.034647
  28 C :   -0.079168
  29 H :    0.028904
  30 H :    0.029114
  31 H :    0.032512
  32 H :    0.037942
  33 H :    0.019403

  Mayer bond orders larger than 0.100000
B(  0-S ,  1-C ) :   1.1150 B(  0-S ,  4-C ) :   1.1468 B(  1-C ,  2-C ) :   1.6388
B(  1-C , 32-H ) :   0.9661 B(  2-C ,  3-C ) :   1.2078 B(  2-C ,  6-C ) :   1.0143
B(  3-C ,  4-C ) :   1.6106 B(  3-C ,  5-H ) :   0.9780 B(  4-C , 20-C ) :   1.0149
B(  6-C ,  7-H ) :   0.9436 B(  6-C ,  8-H ) :   0.9477 B(  6-C ,  9-C ) :   1.0483
B(  9-C , 10-H ) :   0.9595 B(  9-C , 11-H ) :   0.9569 B(  9-C , 12-C ) :   1.0728
B( 12-C , 13-H ) :   0.9750 B( 12-C , 14-H ) :   0.9768 B( 12-C , 15-H ) :   0.9764
B( 16-S , 17-C ) :   1.1494 B( 16-S , 20-C ) :   1.1679 B( 17-C , 18-C ) :   1.5934
B( 17-C , 20-C ) :   0.1095 B( 17-C , 33-H ) :   0.9709 B( 18-C , 19-C ) :   1.2889
B( 18-C , 21-H ) :   0.9747 B( 19-C , 20-C ) :   1.5245 B( 19-C , 22-C ) :   1.0499
B( 22-C , 23-H ) :   0.9313 B( 22-C , 24-H ) :   0.9360 B( 22-C , 25-C ) :   1.0482
B( 25-C , 26-H ) :   0.9622 B( 25-C , 27-H ) :   0.9494 B( 25-C , 28-C ) :   1.0920
B( 28-C , 29-H ) :   0.9698 B( 28-C , 30-H ) :   0.9731 B( 28-C , 31-H ) :   0.9710

Dispersion correction           -0.014578223
FINAL SINGLE POINT ENERGY     -1339.868893019025

DIPOLE MOMENT
-------------
                                X             Y             Z
Electronic contribution:     -7.50650      16.42899      10.71415
Nuclear contribution   :      7.47300     -16.89414     -11.02518
                        -----------------------------------------
Total Dipole Moment    :     -0.03349      -0.46515      -0.31103
                        -----------------------------------------
Magnitude (a.u.)       :      0.56056
Magnitude (Debye)      :      1.42484

Rotational constants in cm-1:     0.018245     0.008313     0.007000
Rotational constants in MHz :   546.985650   249.225213   209.859807

                             ****ORCA TERMINATED NORMALLY****
TOTAL RUN TIME: 0 days 0 hours 0 minutes 28 seconds 990 msec
