                         Program Version 4.2.1 -  RELEASE  -
|  1> ! wB97X-D3 SP def2-SVP
|  2> %pal
|  3> nprocs 16
|  4> end
|  5>
|  6> * xyz 0 1
|  7> S 	 27.9379 	 4.20868 	 74.8476
|  8> C 	 28.9618 	 5.36439 	 75.6904
|  9> C 	 28.6754 	 5.5197 	 77.0645
| 10> C 	 27.5271 	 4.69002 	 77.3412
| 11> C 	 27.036 	 3.91387 	 76.3184
| 12> H 	 27.0411 	 4.66976 	 78.3066
| 13> C 	 29.3894 	 6.32189 	 78.1205
| 14> H 	 28.5963 	 6.91381 	 78.5714
| 15> H 	 30.0681 	 7.09066 	 77.5638
| 16> C 	 30.2267 	 5.63723 	 79.2312
| 17> H 	 29.5559 	 4.93766 	 79.8238
| 18> H 	 31.1485 	 5.14835 	 78.8038
| 19> C 	 30.5853 	 6.81915 	 80.1856
| 20> H 	 31.145 	 7.53273 	 79.5646
| 21> H 	 29.6975 	 7.27958 	 80.648
| 22> H 	 31.1349 	 6.38516 	 80.9848
| 23> S 	 26.3114 	 1.22869 	 76.4449
| 24> C 	 24.649 	 0.828672 	 76.5117
| 25> C 	 23.8297 	 1.91839 	 76.6482
| 26> C 	 24.568 	 3.14585 	 76.7064
| 27> C 	 25.8859 	 2.97253 	 76.3573
| 28> H 	 22.826 	 1.85887 	 76.7882
| 29> C 	 23.7691 	 4.38777 	 76.7562
| 30> H 	 24.0411 	 5.03586 	 77.6016
| 31> H 	 22.7901 	 4.10187 	 76.9998
| 32> C 	 23.7715 	 5.16615 	 75.4962
| 33> H 	 23.5656 	 4.58267 	 74.5891
| 34> H 	 24.7732 	 5.50553 	 75.3857
| 35> C 	 22.8431 	 6.4073 	 75.5195
| 36> H 	 22.8488 	 6.92454 	 74.5854
| 37> H 	 23.1971 	 7.09684 	 76.3478
| 38> H 	 21.8674 	 6.18446 	 75.8496
| 39> H 	 29.8472 	 5.84738 	 75.2815
| 40> H 	 24.2337 	 -0.189552 	 76.3337
| 41> *
| 42>
| 43>                          ****END OF INPUT****

CARTESIAN COORDINATES (ANGSTROEM)
---------------------------------
  S     27.937900    4.208680   74.847600
  C     28.961800    5.364390   75.690400
  C     28.675400    5.519700   77.064500
  C     27.527100    4.690020   77.341200
  C     27.036000    3.913870   76.318400
  H     27.041100    4.669760   78.306600
  C     29.389400    6.321890   78.120500
  H     28.596300    6.913810   78.571400
  H     30.068100    7.090660   77.563800
  C     30.226700    5.637230   79.231200
  H     29.555900    4.937660   79.823800
  H     31.148500    5.148350   78.803800
  C     30.585300    6.819150   80.185600
  H     31.145000    7.532730   79.564600
  H     29.697500    7.279580   80.648000
  H     31.134900    6.385160   80.984800
  S     26.311400    1.228690   76.444900
  C     24.649000    0.828672   76.511700
  C     23.829700    1.918390   76.648200
  C     24.568000    3.145850   76.706400
  C     25.885900    2.972530   76.357300
  H     22.826000    1.858870   76.788200
  C     23.769100    4.387770   76.756200
  H     24.041100    5.035860   77.601600
  H     22.790100    4.101870   76.999800
  C     23.771500    5.166150   75.496200
  H     23.565600    4.582670   74.589100
  H     24.773200    5.505530   75.385700
  C     22.843100    6.407300   75.519500
  H     22.848800    6.924540   74.585400
  H     23.197100    7.096840   76.347800
  H     21.867400    6.184460   75.849600
  H     29.847200    5.847380   75.281500
  H     24.233700   -0.189552   76.333700

 Total Charge           Charge          ....    0
 Multiplicity           Mult            ....    1
 Number of Electrons    NEL             ....  134
 Basis Dimension        Dim             ....  322

ORBITAL ENERGIES
----------------

  NO   OCC          E(Eh)            E(eV)
   0   2.0000     -88.967912     -2420.9400
   1   2.0000     -88.962353     -2420.7887
   2   2.0000     -10.327406      -281.0230
   3   2.0000     -10.326210      -280.9905
   4   2.0000     -10.317147      -280.7438
   5   2.0000     -10.314949      -280.6840
   6   2.0000     -10.303628      -280.3760
   7   2.0000     -10.303272      -280.3663
   8   2.0000     -10.302331      -280.3407
   9   2.0000     -10.298569      -280.2383
  10   2.0000     -10.292151      -280.0637
  11   2.0000     -10.282354      -279.7971
  12   2.0000     -10.281998      -279.7874
  13   2.0000     -10.280064      -279.7348
  14   2.0000     -10.275491      -279.6103
  15   2.0000     -10.273504      -279.5563
  16   2.0000      -8.082138      -219.9262
  17   2.0000      -8.077364      -219.7963
  18   2.0000      -6.040670      -164.3750
  19   2.0000      -6.036673      -164.2662
  20   2.0000      -6.035869      -164.2444
  21   2.0000      -6.032951      -164.1649
  22   2.0000      -6.031944      -164.1375
  23   2.0000      -6.027997      -164.0301
  24   2.0000      -1.003294       -27.3010
  25   2.0000      -0.982428       -26.7332
  26   2.0000      -0.917686       -24.9715
  27   2.0000      -0.911055       -24.7911
  28   2.0000      -0.864624       -23.5276
  29   2.0000      -0.851257       -23.1639
  30   2.0000      -0.847115       -23.0512
  31   2.0000      -0.809424       -22.0256
  32   2.0000      -0.782094       -21.2818
  33   2.0000      -0.769190       -20.9307
  34   2.0000      -0.708586       -19.2816
  35   2.0000      -0.697814       -18.9885
  36   2.0000      -0.686947       -18.6928
  37   2.0000      -0.664074       -18.0704
  38   2.0000      -0.637555       -17.3487
  39   2.0000      -0.618609       -16.8332
  40   2.0000      -0.600838       -16.3496
  41   2.0000      -0.571007       -15.5379
  42   2.0000      -0.568608       -15.4726
  43   2.0000      -0.560720       -15.2580
  44   2.0000      -0.531715       -14.4687
  45   2.0000      -0.526757       -14.3338
  46   2.0000      -0.511854       -13.9283
  47   2.0000      -0.507347       -13.8056
  48   2.0000      -0.501113       -13.6360
  49   2.0000      -0.493137       -13.4189
  50   2.0000      -0.490935       -13.3590
  51   2.0000      -0.481882       -13.1127
  52   2.0000      -0.463094       -12.6014
  53   2.0000      -0.461676       -12.5628
  54   2.0000      -0.455525       -12.3955
  55   2.0000      -0.446188       -12.1414
  56   2.0000      -0.445836       -12.1318
  57   2.0000      -0.442179       -12.0323
  58   2.0000      -0.440013       -11.9734
  59   2.0000      -0.426543       -11.6068
  60   2.0000      -0.420433       -11.4406
  61   2.0000      -0.419512       -11.4155
  62   2.0000      -0.408753       -11.1227
  63   2.0000      -0.335168        -9.1204
  64   2.0000      -0.328248        -8.9321
  65   2.0000      -0.325566        -8.8591
  66   2.0000      -0.303616        -8.2618
  67   0.0000       0.037540         1.0215
  68   0.0000       0.062799         1.7089
  69   0.0000       0.111705         3.0396
  70   0.0000       0.118212         3.2167
  71   0.0000       0.126440         3.4406

MULLIKEN ATOMIC CHARGES
-----------------------
   0 S :    0.121830
   1 C :   -0.116944
   2 C :   -0.073686
   3 C :    0.039660
   4 C :   -0.180524
   5 H :    0.002811
   6 C :   -0.001751
   7 H :    0.031470
   8 H :    0.031409
   9 C :   -0.087979
  10 H :    0.044172
  11 H :    0.055229
  12 C :   -0.036761
  13 H :    0.035736
  14 H :    0.036478
  15 H :    0.030211
  16 S :    0.106260
  17 C :   -0.079939
  18 C :   -0.010867
  19 C :   -0.013566
  20 C :   -0.170186
  21 H :   -0.020112
  22 C :    0.108569
  23 H :    0.018235
  24 H :   -0.017353
  25 C :   -0.064277
  26 H :    0.029584
  27 H :    0.024728
  28 C :   -0.026673
  29 H :    0.039062
  30 H :    0.022118
  31 H :    0.012933
  32 H :    0.042468
  33 H :    0.067657
Sum of atomic charges:    0.0000000

LOEWDIN ATOMIC CHARGES
----------------------
   0 S :    0.406552
   1 C :   -0.196269
   2 C :   -0.067520
   3 C :   -0.057973
   4 C :   -0.208683
   5 H :    0.027100
   6 C :   -0.044859
   7 H :    0.032876
   8 H :    0.037535
   9 C :   -0.038966
  10 H :    0.030633
  11 H :    0.034146
  12 C :   -0.060653
  13 H :    0.026353
  14 H :    0.027802
  15 H :    0.020423
  16 S :    0.402124
  17 C :   -0.192336
  18 C :   -0.063949
  19 C :   -0.043962
  20 C :   -0.190602
  21 H :    0.013727
  22 C :   -0.030745
  23 H :    0.033858
  24 H :    0.017881
  25 C :   -0.035191
  26 H :    0.026314
  27 H :    0.021984
  28 C :   -0.060360
  29 H :    0.024837
  30 H :    0.030260
  31 H :    0.013949
  32 H :    0.025844
  33 H :    0.037867

  Mayer bond orders larger than 0.100000
B(  0-S ,  1-C ) :   1.1474 B(  0-S ,  4-C ) :   1.1369 B(  1-C ,  2-C ) :   1.6177
B(  1-C , 32-H ) :   0.9608 B(  2-C ,  3-C ) :   1.2304 B(  2-C ,  6-C ) :   1.0172
B(  3-C ,  4-C ) :   1.6087 B(  3-C ,  5-H ) :   0.9949 B(  4-C , 20-C ) :   0.9993
B(  6-C ,  7-H ) :   0.9397 B(  6-C ,  8-H ) :   0.9406 B(  6-C ,  9-C ) :   1.0622
B(  9-C , 10-H ) :   0.9532 B(  9-C , 11-H ) :   0.9547 B(  9-C , 12-C ) :   1.0676
B( 12-C , 13-H ) :   0.9752 B( 12-C , 14-H ) :   0.9760 B( 12-C , 15-H ) :   0.9737
B( 16-S , 17-C ) :   1.1663 B( 16-S , 20-C ) :   1.1324 B( 17-C , 18-C ) :   1.6133
B( 17-C , 33-H ) :   0.9569 B( 18-C , 19-C ) :   1.2281 B( 18-C , 21-H ) :   1.0025
B( 19-C , 20-C ) :   1.6032 B( 19-C , 22-C ) :   1.0677 B( 22-C , 23-H ) :   0.9114
B( 22-C , 24-H ) :   0.9252 B( 22-C , 25-C ) :   1.0765 B( 25-C , 26-H ) :   0.9546
B( 25-C , 27-H ) :   0.9484 B( 25-C , 28-C ) :   1.0863 B( 28-C , 29-H ) :   0.9747
B( 28-C , 30-H ) :   0.9713 B( 28-C , 31-H ) :   0.9765

Dispersion correction           -0.013953120
FINAL SINGLE POINT ENERGY     -1339.871102001700

DIPOLE MOMENT
-------------
                                X             Y             Z
Electronic contribution:      1.96327     -21.16905     -12.46690
Nuclear contribution   :     -2.10843      21.54940      12.94334
                        -----------------------------------------
Total Dipole Moment    :     -0.14516       0.38035       0.47644
                        -----------------------------------------
Magnitude (a.u.)       :      0.62669
Magnitude (Debye)      :      1.59291

Rotational constants in cm-1:     0.017955     0.007822     0.006902
Rotational constants in MHz :   538.286625   234.485476   206.930052

                             ****ORCA TERMINATED NORMALLY****
TOTAL RUN TIME: 0 days 0 hours 0 minutes 34 seconds 340 msec
