                         Program Version 4.2.1 -  RELEASE  -
|  1> ! wB97X-D3 SP def2-SVP
|  2> %pal
|  3> nprocs 16
|  4> end
|  5>
|  6> * xyz 0 1
|  7> S 	 5.99654 	 -19.1937 	 78.2677
|  8> C 	 5.6771 	 -19.445 	 79.9259
|  9> C 	 4.60722 	 -18.7251 	 80.423
| 10> C 	 4.09454 	 -17.8764 	 79.4023
| 11> C 	 4.86165 	 -17.9171 	 78.2528
| 12> H 	 3.28128 	 -17.1572 	 79.5459
| 13> C 	 4.0645 	 -18.8537 	 81.8285
| 14> H 	 4.41676 	 -17.9597 	 82.4027
| 15> H 	 4.58603 	 -19.6897 	 82.327
| 16> C 	 2.5425 	 -18.8661 	 81.9488
| 17> H 	 2.10548 	 -17.8967 	 81.6096
| 18> H 	 2.16128 	 -19.5952 	 81.1948
| 19> C 	 1.88143 	 -19.476 	 83.1656
| 20> H 	 2.44597 	 -20.4194 	 83.5062
| 21> H 	 1.94674 	 -18.8314 	 84.0692
| 22> H 	 0.885871 	 -19.7799 	 83.0113
| 23> S 	 3.59105 	 -17.7373 	 75.8419
| 24> C 	 3.8274 	 -16.3648 	 74.8394
| 25> C 	 4.5 	 -15.3552 	 75.4943
| 26> C 	 4.97502 	 -15.8342 	 76.7121
| 27> C 	 4.62327 	 -17.1104 	 77.0712
| 28> H 	 4.67882 	 -14.3823 	 75.0764
| 29> C 	 5.72204 	 -14.9435 	 77.6785
| 30> H 	 6.75822 	 -15.2882 	 77.9164
| 31> H 	 5.26573 	 -15.0945 	 78.6386
| 32> C 	 5.82226 	 -13.4299 	 77.4398
| 33> H 	 4.93195 	 -12.8889 	 77.2176
| 34> H 	 6.54443 	 -13.4404 	 76.5928
| 35> C 	 6.50477 	 -12.6685 	 78.5316
| 36> H 	 6.6899 	 -11.6748 	 78.1527
| 37> H 	 7.51264 	 -13.0301 	 78.7135
| 38> H 	 5.92197 	 -12.6988 	 79.4372
| 39> H 	 6.25932 	 -20.1185 	 80.5597
| 40> H 	 3.44884 	 -16.3232 	 73.7995
| 41> *
| 42>
| 43>                          ****END OF INPUT****

CARTESIAN COORDINATES (ANGSTROEM)
---------------------------------
  S      5.996540  -19.193700   78.267700
  C      5.677100  -19.445000   79.925900
  C      4.607220  -18.725100   80.423000
  C      4.094540  -17.876400   79.402300
  C      4.861650  -17.917100   78.252800
  H      3.281280  -17.157200   79.545900
  C      4.064500  -18.853700   81.828500
  H      4.416760  -17.959700   82.402700
  H      4.586030  -19.689700   82.327000
  C      2.542500  -18.866100   81.948800
  H      2.105480  -17.896700   81.609600
  H      2.161280  -19.595200   81.194800
  C      1.881430  -19.476000   83.165600
  H      2.445970  -20.419400   83.506200
  H      1.946740  -18.831400   84.069200
  H      0.885871  -19.779900   83.011300
  S      3.591050  -17.737300   75.841900
  C      3.827400  -16.364800   74.839400
  C      4.500000  -15.355200   75.494300
  C      4.975020  -15.834200   76.712100
  C      4.623270  -17.110400   77.071200
  H      4.678820  -14.382300   75.076400
  C      5.722040  -14.943500   77.678500
  H      6.758220  -15.288200   77.916400
  H      5.265730  -15.094500   78.638600
  C      5.822260  -13.429900   77.439800
  H      4.931950  -12.888900   77.217600
  H      6.544430  -13.440400   76.592800
  C      6.504770  -12.668500   78.531600
  H      6.689900  -11.674800   78.152700
  H      7.512640  -13.030100   78.713500
  H      5.921970  -12.698800   79.437200
  H      6.259320  -20.118500   80.559700
  H      3.448840  -16.323200   73.799500

 Total Charge           Charge          ....    0
 Multiplicity           Mult            ....    1
 Number of Electrons    NEL             ....  134
 Basis Dimension        Dim             ....  322

ORBITAL ENERGIES
----------------

  NO   OCC          E(Eh)            E(eV)
   0   2.0000     -88.967609     -2420.9317
   1   2.0000     -88.960607     -2420.7412
   2   2.0000     -10.322368      -280.8859
   3   2.0000     -10.314288      -280.6661
   4   2.0000     -10.312968      -280.6301
   5   2.0000     -10.309356      -280.5318
   6   2.0000     -10.299097      -280.2527
   7   2.0000     -10.298562      -280.2381
   8   2.0000     -10.294206      -280.1196
   9   2.0000     -10.293989      -280.1137
  10   2.0000     -10.292494      -280.0730
  11   2.0000     -10.286979      -279.9229
  12   2.0000     -10.284315      -279.8504
  13   2.0000     -10.282396      -279.7982
  14   2.0000     -10.280599      -279.7493
  15   2.0000     -10.271465      -279.5008
  16   2.0000      -8.083821      -219.9719
  17   2.0000      -8.076595      -219.7753
  18   2.0000      -6.042002      -164.4112
  19   2.0000      -6.038214      -164.3082
  20   2.0000      -6.034827      -164.2160
  21   2.0000      -6.034757      -164.2141
  22   2.0000      -6.030848      -164.1077
  23   2.0000      -6.027664      -164.0211
  24   2.0000      -1.016156       -27.6510
  25   2.0000      -0.994555       -27.0632
  26   2.0000      -0.913517       -24.8581
  27   2.0000      -0.911003       -24.7897
  28   2.0000      -0.871805       -23.7230
  29   2.0000      -0.855591       -23.2818
  30   2.0000      -0.853800       -23.2331
  31   2.0000      -0.815371       -22.1874
  32   2.0000      -0.784442       -21.3457
  33   2.0000      -0.769809       -20.9476
  34   2.0000      -0.706914       -19.2361
  35   2.0000      -0.697693       -18.9852
  36   2.0000      -0.685579       -18.6555
  37   2.0000      -0.652384       -17.7523
  38   2.0000      -0.643036       -17.4979
  39   2.0000      -0.621635       -16.9156
  40   2.0000      -0.601901       -16.3786
  41   2.0000      -0.576413       -15.6850
  42   2.0000      -0.571261       -15.5448
  43   2.0000      -0.559838       -15.2340
  44   2.0000      -0.531635       -14.4665
  45   2.0000      -0.523997       -14.2587
  46   2.0000      -0.517047       -14.0696
  47   2.0000      -0.510382       -13.8882
  48   2.0000      -0.505866       -13.7653
  49   2.0000      -0.500044       -13.6069
  50   2.0000      -0.488862       -13.3026
  51   2.0000      -0.475981       -12.9521
  52   2.0000      -0.472157       -12.8480
  53   2.0000      -0.466590       -12.6966
  54   2.0000      -0.462787       -12.5931
  55   2.0000      -0.454145       -12.3579
  56   2.0000      -0.452486       -12.3128
  57   2.0000      -0.439114       -11.9489
  58   2.0000      -0.432427       -11.7669
  59   2.0000      -0.430460       -11.7134
  60   2.0000      -0.417897       -11.3716
  61   2.0000      -0.406461       -11.0604
  62   2.0000      -0.403017       -10.9666
  63   2.0000      -0.337001        -9.1703
  64   2.0000      -0.330179        -8.9846
  65   2.0000      -0.316270        -8.6062
  66   2.0000      -0.306893        -8.3510
  67   0.0000       0.048246         1.3128
  68   0.0000       0.056800         1.5456
  69   0.0000       0.122388         3.3303
  70   0.0000       0.129169         3.5149
  71   0.0000       0.132500         3.6055

MULLIKEN ATOMIC CHARGES
-----------------------
   0 S :    0.148764
   1 C :   -0.131550
   2 C :   -0.085279
   3 C :    0.037105
   4 C :   -0.188580
   5 H :    0.019725
   6 C :    0.097584
   7 H :    0.041946
   8 H :    0.014134
   9 C :   -0.121595
  10 H :    0.040863
  11 H :    0.034935
  12 C :   -0.044263
  13 H :    0.031199
  14 H :    0.030458
  15 H :    0.034677
  16 S :    0.120801
  17 C :   -0.101287
  18 C :   -0.040989
  19 C :   -0.001407
  20 C :   -0.179650
  21 H :    0.016911
  22 C :    0.061801
  23 H :    0.026175
  24 H :    0.003169
  25 C :   -0.100896
  26 H :    0.031303
  27 H :    0.028118
  28 C :   -0.010593
  29 H :    0.026575
  30 H :    0.017485
  31 H :    0.033559
  32 H :    0.042605
  33 H :    0.066198
Sum of atomic charges:   -0.0000000

LOEWDIN ATOMIC CHARGES
----------------------
   0 S :    0.449664
   1 C :   -0.211990
   2 C :   -0.064552
   3 C :   -0.055464
   4 C :   -0.215815
   5 H :    0.033953
   6 C :   -0.035050
   7 H :    0.037798
   8 H :    0.030525
   9 C :   -0.055974
  10 H :    0.027725
  11 H :    0.032285
  12 C :   -0.066193
  13 H :    0.034653
  14 H :    0.022415
  15 H :    0.021387
  16 S :    0.436084
  17 C :   -0.193676
  18 C :   -0.077309
  19 C :   -0.056434
  20 C :   -0.223992
  21 H :    0.032911
  22 C :   -0.039206
  23 H :    0.036903
  24 H :    0.022165
  25 C :   -0.046423
  26 H :    0.019051
  27 H :    0.027984
  28 C :   -0.056850
  29 H :    0.028039
  30 H :    0.022957
  31 H :    0.022494
  32 H :    0.026078
  33 H :    0.033856

  Mayer bond orders larger than 0.100000
B(  0-S ,  1-C ) :   1.1580 B(  0-S ,  4-C ) :   1.1778 B(  1-C ,  2-C ) :   1.6061
B(  1-C , 32-H ) :   0.9620 B(  2-C ,  3-C ) :   1.2536 B(  2-C ,  6-C ) :   1.0294
B(  3-C ,  4-C ) :   1.5686 B(  3-C ,  5-H ) :   0.9922 B(  4-C , 20-C ) :   1.0034
B(  6-C ,  7-H ) :   0.9273 B(  6-C ,  8-H ) :   0.9389 B(  6-C ,  9-C ) :   1.0561
B(  9-C , 10-H ) :   0.9455 B(  9-C , 11-H ) :   0.9629 B(  9-C , 12-C ) :   1.0858
B( 12-C , 13-H ) :   0.9704 B( 12-C , 14-H ) :   0.9732 B( 12-C , 15-H ) :   0.9770
B( 16-S , 17-C ) :   1.2009 B( 16-S , 20-C ) :   1.1586 B( 17-C , 18-C ) :   1.5375
B( 17-C , 20-C ) :   0.1062 B( 17-C , 33-H ) :   0.9612 B( 18-C , 19-C ) :   1.2937
B( 18-C , 21-H ) :   0.9968 B( 19-C , 20-C ) :   1.5903 B( 19-C , 22-C ) :   1.0264
B( 22-C , 23-H ) :   0.9247 B( 22-C , 24-H ) :   0.9303 B( 22-C , 25-C ) :   1.0728
B( 25-C , 26-H ) :   0.9545 B( 25-C , 27-H ) :   0.9481 B( 25-C , 28-C ) :   1.1008
B( 28-C , 29-H ) :   0.9686 B( 28-C , 30-H ) :   0.9693 B( 28-C , 31-H ) :   0.9741

Dispersion correction           -0.013502536
FINAL SINGLE POINT ENERGY     -1339.877571918222

DIPOLE MOMENT
-------------
                                X             Y             Z
Electronic contribution:      2.77945     -13.63494     -20.97984
Nuclear contribution   :     -2.85968      13.95478      21.39339
                        -----------------------------------------
Total Dipole Moment    :     -0.08023       0.31983       0.41355
                        -----------------------------------------
Magnitude (a.u.)       :      0.52892
Magnitude (Debye)      :      1.34440

Rotational constants in cm-1:     0.017652     0.007657     0.006629
Rotational constants in MHz :   529.193251   229.549445   198.738714

                             ****ORCA TERMINATED NORMALLY****
TOTAL RUN TIME: 0 days 0 hours 0 minutes 33 seconds 212 msec
