                         Program Version 4.2.1 -  RELEASE  -
|  1> ! wB97X-D3 SP def2-SVP
|  2> %pal
|  3> nprocs 16
|  4> end
|  5>
|  6> * xyz 0 1
|  7> S 	 -70.7745 	 48.6524 	 124.946
|  8> C 	 -69.3404 	 49.5787 	 124.576
|  9> C 	 -69.4656 	 50.3221 	 123.421
| 10> C 	 -70.7592 	 50.15 	 122.825
| 11> C 	 -71.6609 	 49.4455 	 123.597
| 12> H 	 -71.202 	 50.6737 	 121.97
| 13> C 	 -68.4323 	 51.3024 	 122.943
| 14> H 	 -67.6879 	 50.877 	 122.238
| 15> H 	 -67.9227 	 51.6914 	 123.784
| 16> C 	 -68.9555 	 52.5185 	 122.118
| 17> H 	 -69.346 	 52.1694 	 121.101
| 18> H 	 -69.7669 	 52.9263 	 122.65
| 19> C 	 -68.0493 	 53.7154 	 121.939
| 20> H 	 -67.8087 	 54.3324 	 122.789
| 21> H 	 -67.0874 	 53.4474 	 121.36
| 22> H 	 -68.5314 	 54.3639 	 121.237
| 23> S 	 -73.0907 	 47.4096 	 122.537
| 24> C 	 -74.8207 	 47.5501 	 122.496
| 25> C 	 -75.2825 	 48.719 	 123.067
| 26> C 	 -74.1973 	 49.5999 	 123.467
| 27> C 	 -72.9871 	 49.0207 	 123.205
| 28> H 	 -76.3294 	 48.9998 	 123.229
| 29> C 	 -74.475 	 50.9681 	 123.949
| 30> H 	 -73.5222 	 51.4822 	 124.276
| 31> H 	 -75.1639 	 50.9157 	 124.793
| 32> C 	 -75.0505 	 51.9711 	 122.9
| 33> H 	 -75.8992 	 51.5973 	 122.393
| 34> H 	 -74.234 	 52.0983 	 122.277
| 35> C 	 -75.3988 	 53.2851 	 123.572
| 36> H 	 -76.0595 	 53.0522 	 124.462
| 37> H 	 -75.9097 	 53.9494 	 122.886
| 38> H 	 -74.4717 	 53.81 	 123.861
| 39> H 	 -68.5366 	 49.6919 	 125.259
| 40> H 	 -75.5034 	 46.7892 	 122.09
| 41> *
| 42>
| 43>                          ****END OF INPUT****

CARTESIAN COORDINATES (ANGSTROEM)
---------------------------------
  S    -70.774500   48.652400  124.946000
  C    -69.340400   49.578700  124.576000
  C    -69.465600   50.322100  123.421000
  C    -70.759200   50.150000  122.825000
  C    -71.660900   49.445500  123.597000
  H    -71.202000   50.673700  121.970000
  C    -68.432300   51.302400  122.943000
  H    -67.687900   50.877000  122.238000
  H    -67.922700   51.691400  123.784000
  C    -68.955500   52.518500  122.118000
  H    -69.346000   52.169400  121.101000
  H    -69.766900   52.926300  122.650000
  C    -68.049300   53.715400  121.939000
  H    -67.808700   54.332400  122.789000
  H    -67.087400   53.447400  121.360000
  H    -68.531400   54.363900  121.237000
  S    -73.090700   47.409600  122.537000
  C    -74.820700   47.550100  122.496000
  C    -75.282500   48.719000  123.067000
  C    -74.197300   49.599900  123.467000
  C    -72.987100   49.020700  123.205000
  H    -76.329400   48.999800  123.229000
  C    -74.475000   50.968100  123.949000
  H    -73.522200   51.482200  124.276000
  H    -75.163900   50.915700  124.793000
  C    -75.050500   51.971100  122.900000
  H    -75.899200   51.597300  122.393000
  H    -74.234000   52.098300  122.277000
  C    -75.398800   53.285100  123.572000
  H    -76.059500   53.052200  124.462000
  H    -75.909700   53.949400  122.886000
  H    -74.471700   53.810000  123.861000
  H    -68.536600   49.691900  125.259000
  H    -75.503400   46.789200  122.090000

 Total Charge           Charge          ....    0
 Multiplicity           Mult            ....    1
 Number of Electrons    NEL             ....  134
 Basis Dimension        Dim             ....  322

ORBITAL ENERGIES
----------------

  NO   OCC          E(Eh)            E(eV)
   0   2.0000     -88.965199     -2420.8661
   1   2.0000     -88.962814     -2420.8012
   2   2.0000     -10.326579      -281.0005
   3   2.0000     -10.319316      -280.8029
   4   2.0000     -10.318465      -280.7797
   5   2.0000     -10.310947      -280.5751
   6   2.0000     -10.301813      -280.3266
   7   2.0000     -10.299845      -280.2730
   8   2.0000     -10.295522      -280.1554
   9   2.0000     -10.295056      -280.1427
  10   2.0000     -10.292007      -280.0597
  11   2.0000     -10.290796      -280.0268
  12   2.0000     -10.288978      -279.9773
  13   2.0000     -10.282186      -279.7925
  14   2.0000     -10.282142      -279.7913
  15   2.0000     -10.277131      -279.6550
  16   2.0000      -8.080414      -219.8792
  17   2.0000      -8.077016      -219.7868
  18   2.0000      -6.038928      -164.3276
  19   2.0000      -6.035578      -164.2364
  20   2.0000      -6.034966      -164.2198
  21   2.0000      -6.031607      -164.1284
  22   2.0000      -6.031012      -164.1122
  23   2.0000      -6.027736      -164.0230
  24   2.0000      -1.006106       -27.3775
  25   2.0000      -0.981727       -26.7142
  26   2.0000      -0.914352       -24.8808
  27   2.0000      -0.909731       -24.7550
  28   2.0000      -0.871254       -23.7080
  29   2.0000      -0.855092       -23.2682
  30   2.0000      -0.846475       -23.0337
  31   2.0000      -0.815118       -22.1805
  32   2.0000      -0.781450       -21.2643
  33   2.0000      -0.768711       -20.9177
  34   2.0000      -0.708004       -19.2658
  35   2.0000      -0.697614       -18.9830
  36   2.0000      -0.686666       -18.6851
  37   2.0000      -0.662937       -18.0394
  38   2.0000      -0.644457       -17.5366
  39   2.0000      -0.614423       -16.7193
  40   2.0000      -0.599238       -16.3061
  41   2.0000      -0.577808       -15.7230
  42   2.0000      -0.576165       -15.6782
  43   2.0000      -0.558328       -15.1929
  44   2.0000      -0.523634       -14.2488
  45   2.0000      -0.522196       -14.2097
  46   2.0000      -0.516547       -14.0560
  47   2.0000      -0.509970       -13.8770
  48   2.0000      -0.503165       -13.6918
  49   2.0000      -0.499321       -13.5872
  50   2.0000      -0.491020       -13.3613
  51   2.0000      -0.479245       -13.0409
  52   2.0000      -0.470854       -12.8126
  53   2.0000      -0.464926       -12.6513
  54   2.0000      -0.456936       -12.4339
  55   2.0000      -0.453668       -12.3449
  56   2.0000      -0.445619       -12.1259
  57   2.0000      -0.432304       -11.7636
  58   2.0000      -0.429808       -11.6957
  59   2.0000      -0.429130       -11.6772
  60   2.0000      -0.424126       -11.5411
  61   2.0000      -0.421321       -11.4647
  62   2.0000      -0.411636       -11.2012
  63   2.0000      -0.338405        -9.2085
  64   2.0000      -0.326991        -8.8979
  65   2.0000      -0.321455        -8.7472
  66   2.0000      -0.306479        -8.3397
  67   0.0000       0.045452         1.2368
  68   0.0000       0.051190         1.3929
  69   0.0000       0.116452         3.1688
  70   0.0000       0.123126         3.3504
  71   0.0000       0.125650         3.4191

MULLIKEN ATOMIC CHARGES
-----------------------
   0 S :    0.102686
   1 C :   -0.110259
   2 C :   -0.067327
   3 C :    0.027205
   4 C :   -0.173120
   5 H :    0.023757
   6 C :    0.103928
   7 H :    0.043421
   8 H :    0.010814
   9 C :   -0.127289
  10 H :    0.043222
  11 H :    0.019045
  12 C :   -0.045728
  13 H :    0.039629
  14 H :    0.030685
  15 H :    0.023716
  16 S :    0.126695
  17 C :   -0.093510
  18 C :   -0.031643
  19 C :    0.004489
  20 C :   -0.202575
  21 H :    0.022514
  22 C :    0.015411
  23 H :    0.034020
  24 H :    0.023113
  25 C :   -0.031059
  26 H :    0.021767
  27 H :    0.012481
  28 C :   -0.056395
  29 H :    0.038681
  30 H :    0.035136
  31 H :    0.033892
  32 H :    0.037537
  33 H :    0.065061
Sum of atomic charges:    0.0000000

LOEWDIN ATOMIC CHARGES
----------------------
   0 S :    0.382538
   1 C :   -0.185025
   2 C :   -0.065194
   3 C :   -0.058396
   4 C :   -0.185523
   5 H :    0.035526
   6 C :   -0.031318
   7 H :    0.037872
   8 H :    0.024933
   9 C :   -0.046500
  10 H :    0.030789
  11 H :    0.016103
  12 C :   -0.069590
  13 H :    0.023971
  14 H :    0.030220
  15 H :    0.026758
  16 S :    0.415221
  17 C :   -0.189201
  18 C :   -0.070335
  19 C :   -0.052142
  20 C :   -0.211002
  21 H :    0.032783
  22 C :   -0.033480
  23 H :    0.037365
  24 H :    0.027156
  25 C :   -0.028220
  26 H :    0.015695
  27 H :    0.015634
  28 C :   -0.064902
  29 H :    0.031205
  30 H :    0.024442
  31 H :    0.027454
  32 H :    0.021160
  33 H :    0.033999

  Mayer bond orders larger than 0.100000
B(  0-S ,  1-C ) :   1.1431 B(  0-S ,  4-C ) :   1.1319 B(  1-C ,  2-C ) :   1.6252
B(  1-C , 32-H ) :   0.9694 B(  2-C ,  3-C ) :   1.2189 B(  2-C ,  6-C ) :   1.0275
B(  3-C ,  4-C ) :   1.6077 B(  3-C ,  5-H ) :   0.9834 B(  4-C , 20-C ) :   1.0255
B(  6-C ,  7-H ) :   0.9282 B(  6-C ,  8-H ) :   0.9431 B(  6-C ,  9-C ) :   1.0720
B(  9-C , 10-H ) :   0.9477 B(  9-C , 11-H ) :   0.9556 B(  9-C , 12-C ) :   1.0962
B( 12-C , 13-H ) :   0.9738 B( 12-C , 14-H ) :   0.9710 B( 12-C , 15-H ) :   0.9683
B( 16-S , 17-C ) :   1.1483 B( 16-S , 20-C ) :   1.1383 B( 17-C , 18-C ) :   1.6253
B( 17-C , 33-H ) :   0.9637 B( 18-C , 19-C ) :   1.2165 B( 18-C , 21-H ) :   0.9865
B( 19-C , 20-C ) :   1.6286 B( 19-C , 22-C ) :   1.0670 B( 22-C , 23-H ) :   0.9357
B( 22-C , 24-H ) :   0.9268 B( 22-C , 25-C ) :   1.0581 B( 25-C , 26-H ) :   0.9575
B( 25-C , 27-H ) :   0.9527 B( 25-C , 28-C ) :   1.0910 B( 28-C , 29-H ) :   0.9736
B( 28-C , 30-H ) :   0.9730 B( 28-C , 31-H ) :   0.9735

Dispersion correction           -0.013642827
FINAL SINGLE POINT ENERGY     -1339.878129567361

DIPOLE MOMENT
-------------
                                X             Y             Z
Electronic contribution:     -1.44879     -29.95327       5.90171
Nuclear contribution   :      1.29762      30.63184      -6.08385
                        -----------------------------------------
Total Dipole Moment    :     -0.15118       0.67857      -0.18214
                        -----------------------------------------
Magnitude (a.u.)       :      0.71867
Magnitude (Debye)      :      1.82672

Rotational constants in cm-1:     0.016160     0.008907     0.006650
Rotational constants in MHz :   484.468780   267.023619   199.369138

                             ****ORCA TERMINATED NORMALLY****
TOTAL RUN TIME: 0 days 0 hours 0 minutes 31 seconds 140 msec
