                         Program Version 4.2.1 -  RELEASE  -
|  1> ! wB97X-D3 SP def2-SVP
|  2> %pal
|  3> nprocs 16
|  4> end
|  5>
|  6> * xyz 0 1
|  7> S 	 -45.445 	 -2.83822 	 94.9479
|  8> C 	 -46.8399 	 -3.89835 	 94.7608
|  9> C 	 -48.0201 	 -3.21718 	 94.9305
| 10> C 	 -47.7614 	 -1.84757 	 95.2953
| 11> C 	 -46.426 	 -1.46645 	 95.3284
| 12> H 	 -48.5429 	 -1.10385 	 95.4976
| 13> C 	 -49.4095 	 -3.87643 	 94.9194
| 14> H 	 -49.9628 	 -3.26073 	 95.5658
| 15> H 	 -49.3855 	 -4.88015 	 95.4013
| 16> C 	 -50.1426 	 -4.11984 	 93.5714
| 17> H 	 -51.1792 	 -4.33766 	 93.7494
| 18> H 	 -50.1331 	 -3.28021 	 92.8447
| 19> C 	 -49.5331 	 -5.33216 	 92.9101
| 20> H 	 -48.4803 	 -5.18401 	 92.7112
| 21> H 	 -49.6016 	 -6.24329 	 93.5024
| 22> H 	 -50.106 	 -5.50409 	 92.0111
| 23> S 	 -44.2108 	 0.0290274 	 96.091
| 24> C 	 -44.2181 	 1.78002 	 96.007
| 25> C 	 -45.3733 	 2.23839 	 95.3619
| 26> C 	 -46.2872 	 1.1732 	 95.0477
| 27> C 	 -45.8399 	 -0.108592 	 95.4431
| 28> H 	 -45.4831 	 3.27535 	 95.0986
| 29> C 	 -47.6873 	 1.48367 	 94.5048
| 30> H 	 -47.8322 	 2.54578 	 94.4975
| 31> H 	 -48.4407 	 1.0962 	 95.2122
| 32> C 	 -48.0635 	 0.796516 	 93.154
| 33> H 	 -47.7899 	 -0.216982 	 93.0427
| 34> H 	 -47.4559 	 1.22811 	 92.3519
| 35> C 	 -49.5561 	 0.977742 	 92.8123
| 36> H 	 -49.8175 	 0.316689 	 91.9839
| 37> H 	 -49.8712 	 2.00487 	 92.6761
| 38> H 	 -50.1278 	 0.57014 	 93.6494
| 39> H 	 -46.7407 	 -4.9608 	 94.5579
| 40> H 	 -43.4038 	 2.39121 	 96.2643
| 41> *
| 42>
| 43>                          ****END OF INPUT****

CARTESIAN COORDINATES (ANGSTROEM)
---------------------------------
  S    -45.445000   -2.838220   94.947900
  C    -46.839900   -3.898350   94.760800
  C    -48.020100   -3.217180   94.930500
  C    -47.761400   -1.847570   95.295300
  C    -46.426000   -1.466450   95.328400
  H    -48.542900   -1.103850   95.497600
  C    -49.409500   -3.876430   94.919400
  H    -49.962800   -3.260730   95.565800
  H    -49.385500   -4.880150   95.401300
  C    -50.142600   -4.119840   93.571400
  H    -51.179200   -4.337660   93.749400
  H    -50.133100   -3.280210   92.844700
  C    -49.533100   -5.332160   92.910100
  H    -48.480300   -5.184010   92.711200
  H    -49.601600   -6.243290   93.502400
  H    -50.106000   -5.504090   92.011100
  S    -44.210800    0.029027   96.091000
  C    -44.218100    1.780020   96.007000
  C    -45.373300    2.238390   95.361900
  C    -46.287200    1.173200   95.047700
  C    -45.839900   -0.108592   95.443100
  H    -45.483100    3.275350   95.098600
  C    -47.687300    1.483670   94.504800
  H    -47.832200    2.545780   94.497500
  H    -48.440700    1.096200   95.212200
  C    -48.063500    0.796516   93.154000
  H    -47.789900   -0.216982   93.042700
  H    -47.455900    1.228110   92.351900
  C    -49.556100    0.977742   92.812300
  H    -49.817500    0.316689   91.983900
  H    -49.871200    2.004870   92.676100
  H    -50.127800    0.570140   93.649400
  H    -46.740700   -4.960800   94.557900
  H    -43.403800    2.391210   96.264300

 Total Charge           Charge          ....    0
 Multiplicity           Mult            ....    1
 Number of Electrons    NEL             ....  134
 Basis Dimension        Dim             ....  322

ORBITAL ENERGIES
----------------

  NO   OCC          E(Eh)            E(eV)
   0   2.0000     -88.968043     -2420.9435
   1   2.0000     -88.966175     -2420.8927
   2   2.0000     -10.334918      -281.2274
   3   2.0000     -10.334236      -281.2089
   4   2.0000     -10.319693      -280.8131
   5   2.0000     -10.316067      -280.7145
   6   2.0000     -10.310397      -280.5602
   7   2.0000     -10.305920      -280.4383
   8   2.0000     -10.299092      -280.2525
   9   2.0000     -10.298166      -280.2273
  10   2.0000     -10.295216      -280.1471
  11   2.0000     -10.294684      -280.1326
  12   2.0000     -10.288803      -279.9726
  13   2.0000     -10.280785      -279.7544
  14   2.0000     -10.277390      -279.6620
  15   2.0000     -10.273223      -279.5486
  16   2.0000      -8.082447      -219.9346
  17   2.0000      -8.081221      -219.9012
  18   2.0000      -6.040963      -164.3830
  19   2.0000      -6.039794      -164.3512
  20   2.0000      -6.036917      -164.2729
  21   2.0000      -6.035624      -164.2377
  22   2.0000      -6.033320      -164.1750
  23   2.0000      -6.031950      -164.1377
  24   2.0000      -1.005501       -27.3611
  25   2.0000      -0.982774       -26.7427
  26   2.0000      -0.913596       -24.8602
  27   2.0000      -0.904038       -24.6001
  28   2.0000      -0.869913       -23.6715
  29   2.0000      -0.850266       -23.1369
  30   2.0000      -0.845619       -23.0105
  31   2.0000      -0.814411       -22.1612
  32   2.0000      -0.783389       -21.3171
  33   2.0000      -0.772423       -21.0187
  34   2.0000      -0.709358       -19.3026
  35   2.0000      -0.701635       -19.0925
  36   2.0000      -0.693432       -18.8692
  37   2.0000      -0.666379       -18.1331
  38   2.0000      -0.641827       -17.4650
  39   2.0000      -0.621159       -16.9026
  40   2.0000      -0.595769       -16.2117
  41   2.0000      -0.573652       -15.6099
  42   2.0000      -0.562486       -15.3060
  43   2.0000      -0.552857       -15.0440
  44   2.0000      -0.541640       -14.7388
  45   2.0000      -0.525862       -14.3094
  46   2.0000      -0.516870       -14.0648
  47   2.0000      -0.512042       -13.9334
  48   2.0000      -0.502026       -13.6608
  49   2.0000      -0.496707       -13.5161
  50   2.0000      -0.492959       -13.4141
  51   2.0000      -0.482418       -13.1273
  52   2.0000      -0.474135       -12.9019
  53   2.0000      -0.472436       -12.8556
  54   2.0000      -0.457626       -12.4526
  55   2.0000      -0.450168       -12.2497
  56   2.0000      -0.447164       -12.1679
  57   2.0000      -0.436757       -11.8848
  58   2.0000      -0.432605       -11.7718
  59   2.0000      -0.429893       -11.6980
  60   2.0000      -0.421417       -11.4674
  61   2.0000      -0.415659       -11.3107
  62   2.0000      -0.411573       -11.1995
  63   2.0000      -0.355184        -9.6651
  64   2.0000      -0.332960        -9.0603
  65   2.0000      -0.329838        -8.9754
  66   2.0000      -0.288050        -7.8382
  67   0.0000       0.020383         0.5547
  68   0.0000       0.076400         2.0789
  69   0.0000       0.104482         2.8431
  70   0.0000       0.118750         3.2313
  71   0.0000       0.124834         3.3969

MULLIKEN ATOMIC CHARGES
-----------------------
   0 S :    0.100876
   1 C :   -0.131219
   2 C :   -0.071413
   3 C :   -0.012230
   4 C :   -0.101120
   5 H :    0.008332
   6 C :    0.062412
   7 H :    0.006918
   8 H :    0.031936
   9 C :   -0.046471
  10 H :    0.026227
  11 H :    0.033609
  12 C :   -0.056388
  13 H :    0.032678
  14 H :    0.021548
  15 H :    0.029964
  16 S :    0.098055
  17 C :   -0.073887
  18 C :   -0.031202
  19 C :   -0.030418
  20 C :   -0.142483
  21 H :    0.020362
  22 C :    0.049816
  23 H :    0.012574
  24 H :    0.030009
  25 C :   -0.074516
  26 H :    0.035630
  27 H :    0.020236
  28 C :   -0.035094
  29 H :    0.034328
  30 H :    0.036301
  31 H :    0.013267
  32 H :    0.055017
  33 H :    0.046348
Sum of atomic charges:    0.0000000

LOEWDIN ATOMIC CHARGES
----------------------
   0 S :    0.406877
   1 C :   -0.190595
   2 C :   -0.063612
   3 C :   -0.070627
   4 C :   -0.197807
   5 H :    0.029970
   6 C :   -0.026936
   7 H :    0.020855
   8 H :    0.037727
   9 C :   -0.036597
  10 H :    0.023068
  11 H :    0.027120
  12 C :   -0.064727
  13 H :    0.022575
  14 H :    0.021206
  15 H :    0.025257
  16 S :    0.405763
  17 C :   -0.175229
  18 C :   -0.068394
  19 C :   -0.052802
  20 C :   -0.196171
  21 H :    0.031813
  22 C :   -0.029231
  23 H :    0.026243
  24 H :    0.029692
  25 C :   -0.040195
  26 H :    0.021609
  27 H :    0.023754
  28 C :   -0.063077
  29 H :    0.029076
  30 H :    0.023524
  31 H :    0.020259
  32 H :    0.028517
  33 H :    0.021095

  Mayer bond orders larger than 0.100000
B(  0-S ,  1-C ) :   1.1387 B(  0-S ,  4-C ) :   1.1572 B(  1-C ,  2-C ) :   1.6045
B(  1-C , 32-H ) :   0.9667 B(  2-C ,  3-C ) :   1.2554 B(  2-C ,  6-C ) :   1.0104
B(  3-C ,  4-C ) :   1.5642 B(  3-C ,  5-H ) :   0.9925 B(  4-C , 20-C ) :   1.0477
B(  6-C ,  7-H ) :   0.9391 B(  6-C ,  8-H ) :   0.9473 B(  6-C ,  9-C ) :   1.0656
B(  9-C , 10-H ) :   0.9529 B(  9-C , 11-H ) :   0.9566 B(  9-C , 12-C ) :   1.0828
B( 12-C , 13-H ) :   0.9747 B( 12-C , 14-H ) :   0.9745 B( 12-C , 15-H ) :   0.9714
B( 16-S , 17-C ) :   1.1672 B( 16-S , 20-C ) :   1.1435 B( 17-C , 18-C ) :   1.5784
B( 17-C , 20-C ) :   0.1051 B( 17-C , 33-H ) :   0.9742 B( 18-C , 19-C ) :   1.2702
B( 18-C , 21-H ) :   0.9911 B( 19-C , 20-C ) :   1.5549 B( 19-C , 22-C ) :   1.0367
B( 22-C , 23-H ) :   0.9371 B( 22-C , 24-H ) :   0.9446 B( 22-C , 25-C ) :   1.0443
B( 25-C , 26-H ) :   0.9595 B( 25-C , 27-H ) :   0.9488 B( 25-C , 28-C ) :   1.0846
B( 28-C , 29-H ) :   0.9727 B( 28-C , 30-H ) :   0.9766 B( 28-C , 31-H ) :   0.9722

Dispersion correction           -0.014830479
FINAL SINGLE POINT ENERGY     -1339.891192891526

DIPOLE MOMENT
-------------
                                X             Y             Z
Electronic contribution:     27.77268       3.79578      14.07897
Nuclear contribution   :    -28.38826      -3.65533     -14.33374
                        -----------------------------------------
Total Dipole Moment    :     -0.61557       0.14045      -0.25477
                        -----------------------------------------
Magnitude (a.u.)       :      0.68086
Magnitude (Debye)      :      1.73060

Rotational constants in cm-1:     0.020997     0.008915     0.006637
Rotational constants in MHz :   629.469650   267.269251   198.978177

                             ****ORCA TERMINATED NORMALLY****
TOTAL RUN TIME: 0 days 0 hours 0 minutes 31 seconds 19 msec
