                         Program Version 4.2.1 -  RELEASE  -
|  1> ! wB97X-D3 SP def2-SVP
|  2> %pal
|  3> nprocs 16
|  4> end
|  5>
|  6> * xyz 0 1
|  7> S 	 -65.6016 	 55.3399 	 131.643
|  8> C 	 -65.4625 	 55.7444 	 133.34
|  9> C 	 -66.6665 	 55.7935 	 133.994
| 10> C 	 -67.7733 	 55.5208 	 133.146
| 11> C 	 -67.3331 	 55.2085 	 131.865
| 12> H 	 -68.8324 	 55.3664 	 133.366
| 13> C 	 -66.836 	 56.3361 	 135.393
| 14> H 	 -65.9639 	 56.3369 	 136.017
| 15> H 	 -67.6167 	 55.7284 	 135.814
| 16> C 	 -67.3412 	 57.722 	 135.508
| 17> H 	 -66.4475 	 58.2658 	 135.228
| 18> H 	 -68.1966 	 57.9359 	 134.872
| 19> C 	 -67.7875 	 57.9966 	 136.965
| 20> H 	 -68.1005 	 59.0564 	 136.948
| 21> H 	 -68.6436 	 57.3698 	 137.191
| 22> H 	 -67.0515 	 57.8275 	 137.732
| 23> S 	 -67.6355 	 53.3437 	 129.864
| 24> C 	 -68.8816 	 53.4936 	 128.642
| 25> C 	 -69.6593 	 54.6002 	 128.869
| 26> C 	 -69.2915 	 55.321 	 130.131
| 27> C 	 -68.1579 	 54.7594 	 130.746
| 28> H 	 -70.5275 	 54.799 	 128.102
| 29> C 	 -70.1636 	 56.4192 	 130.688
| 30> H 	 -70.4008 	 57.2037 	 129.933
| 31> H 	 -69.5813 	 57.037 	 131.386
| 32> C 	 -71.3654 	 55.9893 	 131.551
| 33> H 	 -71.8138 	 56.8347 	 132.159
| 34> H 	 -70.9645 	 55.305 	 132.307
| 35> C 	 -72.4099 	 55.1875 	 130.869
| 36> H 	 -72.802 	 55.6238 	 129.943
| 37> H 	 -73.1703 	 54.7121 	 131.407
| 38> H 	 -71.7773 	 54.3421 	 130.377
| 39> H 	 -64.5562 	 56.1332 	 133.801
| 40> H 	 -69.0238 	 52.7935 	 127.809
| 41> *
| 42>
| 43>                          ****END OF INPUT****

CARTESIAN COORDINATES (ANGSTROEM)
---------------------------------
  S    -65.601600   55.339900  131.643000
  C    -65.462500   55.744400  133.340000
  C    -66.666500   55.793500  133.994000
  C    -67.773300   55.520800  133.146000
  C    -67.333100   55.208500  131.865000
  H    -68.832400   55.366400  133.366000
  C    -66.836000   56.336100  135.393000
  H    -65.963900   56.336900  136.017000
  H    -67.616700   55.728400  135.814000
  C    -67.341200   57.722000  135.508000
  H    -66.447500   58.265800  135.228000
  H    -68.196600   57.935900  134.872000
  C    -67.787500   57.996600  136.965000
  H    -68.100500   59.056400  136.948000
  H    -68.643600   57.369800  137.191000
  H    -67.051500   57.827500  137.732000
  S    -67.635500   53.343700  129.864000
  C    -68.881600   53.493600  128.642000
  C    -69.659300   54.600200  128.869000
  C    -69.291500   55.321000  130.131000
  C    -68.157900   54.759400  130.746000
  H    -70.527500   54.799000  128.102000
  C    -70.163600   56.419200  130.688000
  H    -70.400800   57.203700  129.933000
  H    -69.581300   57.037000  131.386000
  C    -71.365400   55.989300  131.551000
  H    -71.813800   56.834700  132.159000
  H    -70.964500   55.305000  132.307000
  C    -72.409900   55.187500  130.869000
  H    -72.802000   55.623800  129.943000
  H    -73.170300   54.712100  131.407000
  H    -71.777300   54.342100  130.377000
  H    -64.556200   56.133200  133.801000
  H    -69.023800   52.793500  127.809000

 Total Charge           Charge          ....    0
 Multiplicity           Mult            ....    1
 Number of Electrons    NEL             ....  134
 Basis Dimension        Dim             ....  322

ORBITAL ENERGIES
----------------

  NO   OCC          E(Eh)            E(eV)
   0   2.0000     -88.971062     -2421.0257
   1   2.0000     -88.964330     -2420.8425
   2   2.0000     -10.333158      -281.1795
   3   2.0000     -10.331977      -281.1474
   4   2.0000     -10.320262      -280.8286
   5   2.0000     -10.315066      -280.6872
   6   2.0000     -10.312399      -280.6146
   7   2.0000     -10.309354      -280.5318
   8   2.0000     -10.300769      -280.2982
   9   2.0000     -10.298796      -280.2445
  10   2.0000     -10.295455      -280.1536
  11   2.0000     -10.291182      -280.0373
  12   2.0000     -10.282296      -279.7955
  13   2.0000     -10.281957      -279.7863
  14   2.0000     -10.280246      -279.7397
  15   2.0000     -10.272477      -279.5283
  16   2.0000      -8.085675      -220.0224
  17   2.0000      -8.079268      -219.8481
  18   2.0000      -6.044081      -164.4678
  19   2.0000      -6.040351      -164.3663
  20   2.0000      -6.037913      -164.3000
  21   2.0000      -6.036389      -164.2585
  22   2.0000      -6.033604      -164.1827
  23   2.0000      -6.030000      -164.0846
  24   2.0000      -1.008017       -27.4295
  25   2.0000      -0.983070       -26.7507
  26   2.0000      -0.924170       -25.1479
  27   2.0000      -0.911351       -24.7991
  28   2.0000      -0.871453       -23.7135
  29   2.0000      -0.854245       -23.2452
  30   2.0000      -0.842250       -22.9188
  31   2.0000      -0.816829       -22.2270
  32   2.0000      -0.784496       -21.3472
  33   2.0000      -0.773093       -21.0369
  34   2.0000      -0.706884       -19.2353
  35   2.0000      -0.697590       -18.9824
  36   2.0000      -0.687799       -18.7160
  37   2.0000      -0.657403       -17.8889
  38   2.0000      -0.641622       -17.4594
  39   2.0000      -0.624180       -16.9848
  40   2.0000      -0.594440       -16.1755
  41   2.0000      -0.578883       -15.7522
  42   2.0000      -0.566259       -15.4087
  43   2.0000      -0.551590       -15.0095
  44   2.0000      -0.545024       -14.8309
  45   2.0000      -0.524832       -14.2814
  46   2.0000      -0.519629       -14.1398
  47   2.0000      -0.508801       -13.8452
  48   2.0000      -0.499527       -13.5928
  49   2.0000      -0.499212       -13.5842
  50   2.0000      -0.495992       -13.4966
  51   2.0000      -0.478129       -13.0105
  52   2.0000      -0.473722       -12.8906
  53   2.0000      -0.466152       -12.6847
  54   2.0000      -0.464081       -12.6283
  55   2.0000      -0.450997       -12.2722
  56   2.0000      -0.441953       -12.0261
  57   2.0000      -0.439321       -11.9545
  58   2.0000      -0.427296       -11.6273
  59   2.0000      -0.426698       -11.6110
  60   2.0000      -0.418543       -11.3891
  61   2.0000      -0.415974       -11.3192
  62   2.0000      -0.402222       -10.9450
  63   2.0000      -0.351565        -9.5666
  64   2.0000      -0.334905        -9.1132
  65   2.0000      -0.326407        -8.8820
  66   2.0000      -0.294749        -8.0205
  67   0.0000       0.030336         0.8255
  68   0.0000       0.069014         1.8780
  69   0.0000       0.112664         3.0657
  70   0.0000       0.117724         3.2034
  71   0.0000       0.124504         3.3879

MULLIKEN ATOMIC CHARGES
-----------------------
   0 S :    0.125521
   1 C :   -0.119837
   2 C :   -0.047475
   3 C :    0.013155
   4 C :   -0.149405
   5 H :    0.020206
   6 C :    0.070158
   7 H :    0.013709
   8 H :    0.005040
   9 C :   -0.070501
  10 H :    0.020968
  11 H :    0.031046
  12 C :   -0.045120
  13 H :    0.041190
  14 H :    0.028769
  15 H :    0.030756
  16 S :    0.099868
  17 C :   -0.109653
  18 C :   -0.058724
  19 C :   -0.048665
  20 C :   -0.154966
  21 H :    0.064362
  22 C :    0.045140
  23 H :    0.036694
  24 H :    0.019545
  25 C :   -0.065703
  26 H :    0.037470
  27 H :    0.021841
  28 C :   -0.050162
  29 H :    0.018505
  30 H :    0.031792
  31 H :    0.029644
  32 H :    0.046117
  33 H :    0.068712
Sum of atomic charges:   -0.0000000

LOEWDIN ATOMIC CHARGES
----------------------
   0 S :    0.410643
   1 C :   -0.200163
   2 C :   -0.058724
   3 C :   -0.061406
   4 C :   -0.184401
   5 H :    0.035948
   6 C :   -0.032751
   7 H :    0.027045
   8 H :    0.023895
   9 C :   -0.036414
  10 H :    0.022627
  11 H :    0.023230
  12 C :   -0.060381
  13 H :    0.031929
  14 H :    0.024046
  15 H :    0.021199
  16 S :    0.399755
  17 C :   -0.193834
  18 C :   -0.086007
  19 C :   -0.056599
  20 C :   -0.199990
  21 H :    0.052960
  22 C :   -0.042377
  23 H :    0.035417
  24 H :    0.034004
  25 C :   -0.046217
  26 H :    0.027574
  27 H :    0.023375
  28 C :   -0.076643
  29 H :    0.020345
  30 H :    0.017738
  31 H :    0.039409
  32 H :    0.028310
  33 H :    0.036457

  Mayer bond orders larger than 0.100000
B(  0-S ,  1-C ) :   1.1219 B(  0-S ,  4-C ) :   1.1624 B(  1-C ,  2-C ) :   1.6355
B(  1-C , 32-H ) :   0.9632 B(  2-C ,  3-C ) :   1.2122 B(  2-C ,  6-C ) :   1.0341
B(  3-C ,  4-C ) :   1.5771 B(  3-C ,  5-H ) :   0.9913 B(  4-C , 20-C ) :   1.0401
B(  6-C ,  7-H ) :   0.9478 B(  6-C ,  8-H ) :   0.9285 B(  6-C ,  9-C ) :   1.0671
B(  9-C , 10-H ) :   0.9550 B(  9-C , 11-H ) :   0.9533 B(  9-C , 12-C ) :   1.0807
B( 12-C , 13-H ) :   0.9742 B( 12-C , 14-H ) :   0.9743 B( 12-C , 15-H ) :   0.9752
B( 16-S , 17-C ) :   1.1388 B( 16-S , 20-C ) :   1.1399 B( 17-C , 18-C ) :   1.6459
B( 17-C , 33-H ) :   0.9640 B( 18-C , 19-C ) :   1.1976 B( 18-C , 21-H ) :   0.9686
B( 19-C , 20-C ) :   1.6010 B( 19-C , 22-C ) :   1.0620 B( 22-C , 23-H ) :   0.9369
B( 22-C , 24-H ) :   0.9228 B( 22-C , 25-C ) :   1.0665 B( 25-C , 26-H ) :   0.9522
B( 25-C , 27-H ) :   0.9461 B( 25-C , 28-C ) :   1.0846 B( 28-C , 29-H ) :   0.9724
B( 28-C , 30-H ) :   0.9735 B( 28-C , 31-H ) :   0.9624

Dispersion correction           -0.014536481
FINAL SINGLE POINT ENERGY     -1339.870627713225

DIPOLE MOMENT
-------------
                                X             Y             Z
Electronic contribution:     18.58369     -14.13380     -18.16039
Nuclear contribution   :    -18.96653      14.46188      18.46030
                        -----------------------------------------
Total Dipole Moment    :     -0.38284       0.32808       0.29990
                        -----------------------------------------
Magnitude (a.u.)       :      0.58664
Magnitude (Debye)      :      1.49112

Rotational constants in cm-1:     0.019273     0.008824     0.006411
Rotational constants in MHz :   577.781218   264.538008   192.193302

                             ****ORCA TERMINATED NORMALLY****
TOTAL RUN TIME: 0 days 0 hours 0 minutes 35 seconds 320 msec
