                         Program Version 4.2.1 -  RELEASE  -
|  1> ! wB97X-D3 SP def2-SVP
|  2> %pal
|  3> nprocs 16
|  4> end
|  5>
|  6> * xyz 0 1
|  7> S 	 -105.196 	 54.0159 	 118.013
|  8> C 	 -103.96 	 52.7729 	 117.546
|  9> C 	 -102.785 	 53.4578 	 117.062
| 10> C 	 -102.929 	 54.8624 	 117.015
| 11> C 	 -104.105 	 55.359 	 117.598
| 12> H 	 -102.146 	 55.4938 	 116.69
| 13> C 	 -101.724 	 52.6788 	 116.344
| 14> H 	 -102.18 	 51.7415 	 115.975
| 15> H 	 -100.921 	 52.5276 	 117.15
| 16> C 	 -100.996 	 53.3991 	 115.192
| 17> H 	 -100.628 	 54.3095 	 115.627
| 18> H 	 -100.061 	 52.8434 	 114.842
| 19> C 	 -101.867 	 53.6478 	 113.93
| 20> H 	 -102.929 	 53.8294 	 114.113
| 21> H 	 -101.42 	 54.4732 	 113.397
| 22> H 	 -101.822 	 52.7794 	 113.211
| 23> S 	 -106.138 	 57.2328 	 116.987
| 24> C 	 -105.701 	 58.8965 	 117.288
| 25> C 	 -104.521 	 59.0214 	 117.929
| 26> C 	 -103.829 	 57.8384 	 118.087
| 27> C 	 -104.589 	 56.7279 	 117.718
| 28> H 	 -104.187 	 60.0709 	 118.07
| 29> C 	 -102.441 	 57.8423 	 118.697
| 30> H 	 -101.931 	 57.0307 	 118.222
| 31> H 	 -102.689 	 57.5422 	 119.69
| 32> C 	 -101.605 	 59.1801 	 118.564
| 33> H 	 -102.206 	 59.9275 	 119.101
| 34> H 	 -101.499 	 59.4704 	 117.55
| 35> C 	 -100.278 	 58.9683 	 119.228
| 36> H 	 -100.236 	 58.5198 	 120.244
| 37> H 	 -99.8758 	 59.9342 	 119.408
| 38> H 	 -99.6531 	 58.5182 	 118.546
| 39> H 	 -104.146 	 51.7381 	 117.471
| 40> H 	 -106.473 	 59.5696 	 117.023
| 41> *
| 42>
| 43>                          ****END OF INPUT****

CARTESIAN COORDINATES (ANGSTROEM)
---------------------------------
  S    -105.196000   54.015900  118.013000
  C    -103.960000   52.772900  117.546000
  C    -102.785000   53.457800  117.062000
  C    -102.929000   54.862400  117.015000
  C    -104.105000   55.359000  117.598000
  H    -102.146000   55.493800  116.690000
  C    -101.724000   52.678800  116.344000
  H    -102.180000   51.741500  115.975000
  H    -100.921000   52.527600  117.150000
  C    -100.996000   53.399100  115.192000
  H    -100.628000   54.309500  115.627000
  H    -100.061000   52.843400  114.842000
  C    -101.867000   53.647800  113.930000
  H    -102.929000   53.829400  114.113000
  H    -101.420000   54.473200  113.397000
  H    -101.822000   52.779400  113.211000
  S    -106.138000   57.232800  116.987000
  C    -105.701000   58.896500  117.288000
  C    -104.521000   59.021400  117.929000
  C    -103.829000   57.838400  118.087000
  C    -104.589000   56.727900  117.718000
  H    -104.187000   60.070900  118.070000
  C    -102.441000   57.842300  118.697000
  H    -101.931000   57.030700  118.222000
  H    -102.689000   57.542200  119.690000
  C    -101.605000   59.180100  118.564000
  H    -102.206000   59.927500  119.101000
  H    -101.499000   59.470400  117.550000
  C    -100.278000   58.968300  119.228000
  H    -100.236000   58.519800  120.244000
  H    -99.875800   59.934200  119.408000
  H    -99.653100   58.518200  118.546000
  H    -104.146000   51.738100  117.471000
  H    -106.473000   59.569600  117.023000

 Total Charge           Charge          ....    0
 Multiplicity           Mult            ....    1
 Number of Electrons    NEL             ....  134
 Basis Dimension        Dim             ....  322

ORBITAL ENERGIES
----------------

  NO   OCC          E(Eh)            E(eV)
   0   2.0000     -88.964762     -2420.8542
   1   2.0000     -88.963280     -2420.8139
   2   2.0000     -10.333715      -281.1947
   3   2.0000     -10.324521      -280.9445
   4   2.0000     -10.317477      -280.7528
   5   2.0000     -10.313058      -280.6326
   6   2.0000     -10.304060      -280.3877
   7   2.0000     -10.299727      -280.2698
   8   2.0000     -10.297397      -280.2064
   9   2.0000     -10.293404      -280.0978
  10   2.0000     -10.292898      -280.0840
  11   2.0000     -10.290961      -280.0313
  12   2.0000     -10.289068      -279.9798
  13   2.0000     -10.287176      -279.9283
  14   2.0000     -10.279074      -279.7078
  15   2.0000     -10.271314      -279.4967
  16   2.0000      -8.078013      -219.8139
  17   2.0000      -8.077803      -219.8082
  18   2.0000      -6.036415      -164.2592
  19   2.0000      -6.036373      -164.2580
  20   2.0000      -6.032611      -164.1557
  21   2.0000      -6.032421      -164.1505
  22   2.0000      -6.028845      -164.0532
  23   2.0000      -6.028700      -164.0493
  24   2.0000      -1.003501       -27.3066
  25   2.0000      -0.975339       -26.5403
  26   2.0000      -0.913251       -24.8508
  27   2.0000      -0.907958       -24.7068
  28   2.0000      -0.865351       -23.5474
  29   2.0000      -0.859359       -23.3843
  30   2.0000      -0.838008       -22.8033
  31   2.0000      -0.813891       -22.1471
  32   2.0000      -0.785810       -21.3830
  33   2.0000      -0.768141       -20.9022
  34   2.0000      -0.713872       -19.4254
  35   2.0000      -0.707461       -19.2510
  36   2.0000      -0.689979       -18.7753
  37   2.0000      -0.649778       -17.6813
  38   2.0000      -0.635064       -17.2810
  39   2.0000      -0.624949       -17.0057
  40   2.0000      -0.602939       -16.4068
  41   2.0000      -0.580120       -15.7859
  42   2.0000      -0.560229       -15.2446
  43   2.0000      -0.550074       -14.9683
  44   2.0000      -0.534785       -14.5522
  45   2.0000      -0.529782       -14.4161
  46   2.0000      -0.525861       -14.3094
  47   2.0000      -0.512385       -13.9427
  48   2.0000      -0.498234       -13.5576
  49   2.0000      -0.496471       -13.5097
  50   2.0000      -0.487947       -13.2777
  51   2.0000      -0.484326       -13.1792
  52   2.0000      -0.473100       -12.8737
  53   2.0000      -0.462469       -12.5844
  54   2.0000      -0.459219       -12.4960
  55   2.0000      -0.449567       -12.2334
  56   2.0000      -0.446311       -12.1447
  57   2.0000      -0.441096       -12.0028
  58   2.0000      -0.431994       -11.7552
  59   2.0000      -0.425908       -11.5895
  60   2.0000      -0.416844       -11.3429
  61   2.0000      -0.411236       -11.1903
  62   2.0000      -0.407605       -11.0915
  63   2.0000      -0.344722        -9.3804
  64   2.0000      -0.333858        -9.0847
  65   2.0000      -0.327210        -8.9038
  66   2.0000      -0.282380        -7.6839
  67   0.0000       0.021796         0.5931
  68   0.0000       0.066344         1.8053
  69   0.0000       0.110211         2.9990
  70   0.0000       0.122340         3.3291
  71   0.0000       0.130457         3.5499

MULLIKEN ATOMIC CHARGES
-----------------------
   0 S :    0.089548
   1 C :   -0.121503
   2 C :   -0.100740
   3 C :    0.046331
   4 C :   -0.170337
   5 H :    0.003648
   6 C :    0.041509
   7 H :    0.035023
   8 H :    0.052789
   9 C :   -0.096468
  10 H :    0.018646
  11 H :    0.042454
  12 C :   -0.066855
  13 H :    0.052346
  14 H :    0.032320
  15 H :    0.036060
  16 S :    0.093709
  17 C :   -0.098459
  18 C :   -0.030497
  19 C :   -0.064682
  20 C :   -0.121811
  21 H :    0.035137
  22 C :    0.097389
  23 H :   -0.000495
  24 H :    0.042353
  25 C :   -0.092406
  26 H :    0.037601
  27 H :    0.031852
  28 C :    0.015870
  29 H :    0.039433
  30 H :    0.012682
  31 H :    0.016459
  32 H :    0.042297
  33 H :    0.048798
Sum of atomic charges:    0.0000000

LOEWDIN ATOMIC CHARGES
----------------------
   0 S :    0.374835
   1 C :   -0.185001
   2 C :   -0.059476
   3 C :   -0.068484
   4 C :   -0.173836
   5 H :    0.022144
   6 C :   -0.039197
   7 H :    0.031696
   8 H :    0.045830
   9 C :   -0.047266
  10 H :    0.014879
  11 H :    0.035511
  12 C :   -0.072942
  13 H :    0.028667
  14 H :    0.025864
  15 H :    0.030607
  16 S :    0.390768
  17 C :   -0.164214
  18 C :   -0.085060
  19 C :   -0.048562
  20 C :   -0.206609
  21 H :    0.041477
  22 C :   -0.024184
  23 H :    0.022598
  24 H :    0.038223
  25 C :   -0.029046
  26 H :    0.023398
  27 H :    0.023788
  28 C :   -0.057922
  29 H :    0.034926
  30 H :    0.023855
  31 H :    0.016492
  32 H :    0.017990
  33 H :    0.018251

  Mayer bond orders larger than 0.100000
B(  0-S ,  1-C ) :   1.1350 B(  0-S ,  4-C ) :   1.1611 B(  1-C ,  2-C ) :   1.5577
B(  1-C ,  4-C ) :   0.1159 B(  1-C , 32-H ) :   0.9790 B(  2-C ,  3-C ) :   1.2916
B(  2-C ,  6-C ) :   1.0155 B(  3-C ,  4-C ) :   1.5336 B(  3-C ,  5-H ) :   0.9803
B(  4-C , 20-C ) :   1.0523 B(  6-C ,  7-H ) :   0.9540 B(  6-C ,  8-H ) :   0.9216
B(  6-C ,  9-C ) :   1.0909 B(  9-C , 10-H ) :   0.9517 B(  9-C , 11-H ) :   0.9545
B(  9-C , 12-C ) :   1.0630 B( 12-C , 13-H ) :   0.9797 B( 12-C , 14-H ) :   0.9759
B( 12-C , 15-H ) :   0.9762 B( 16-S , 17-C ) :   1.1738 B( 16-S , 20-C ) :   1.1307
B( 17-C , 18-C ) :   1.5827 B( 17-C , 20-C ) :   0.1053 B( 17-C , 33-H ) :   0.9725
B( 18-C , 19-C ) :   1.2579 B( 18-C , 21-H ) :   0.9838 B( 19-C , 20-C ) :   1.5821
B( 19-C , 22-C ) :   1.0093 B( 22-C , 23-H ) :   0.9268 B( 22-C , 24-H ) :   0.9274
B( 22-C , 25-C ) :   1.0736 B( 25-C , 26-H ) :   0.9474 B( 25-C , 27-H ) :   0.9581
B( 25-C , 28-C ) :   1.0940 B( 28-C , 29-H ) :   0.9712 B( 28-C , 30-H ) :   0.9672
B( 28-C , 31-H ) :   0.9715

Dispersion correction           -0.013988092
FINAL SINGLE POINT ENERGY     -1339.858341289033

DIPOLE MOMENT
-------------
                                X             Y             Z
Electronic contribution:    -26.92651      -2.72311       5.08076
Nuclear contribution   :     27.64187       3.13252      -5.28490
                        -----------------------------------------
Total Dipole Moment    :      0.71536       0.40940      -0.20414
                        -----------------------------------------
Magnitude (a.u.)       :      0.84913
Magnitude (Debye)      :      2.15832

Rotational constants in cm-1:     0.015816     0.009354     0.007138
Rotational constants in MHz :   474.152521   280.413220   214.003297

                             ****ORCA TERMINATED NORMALLY****
TOTAL RUN TIME: 0 days 0 hours 0 minutes 35 seconds 422 msec
