                         Program Version 4.2.1 -  RELEASE  -
|  1> ! wB97X-D3 SP def2-SVP
|  2> %pal
|  3> nprocs 16
|  4> end
|  5>
|  6> * xyz 0 1
|  7> S 	 -31.9677 	 32.1882 	 40.5877
|  8> C 	 -30.298 	 32.4842 	 40.2641
|  9> C 	 -29.4429 	 31.5193 	 40.9011
| 10> C 	 -30.2499 	 30.6482 	 41.6978
| 11> C 	 -31.593 	 30.8818 	 41.6847
| 12> H 	 -29.9926 	 29.8994 	 42.4198
| 13> C 	 -27.9079 	 31.5083 	 40.9564
| 14> H 	 -27.6426 	 31.7275 	 42.0317
| 15> H 	 -27.6188 	 32.45 	 40.4439
| 16> C 	 -27.1332 	 30.2952 	 40.4814
| 17> H 	 -27.1947 	 30.071 	 39.3934
| 18> H 	 -26.0348 	 30.4371 	 40.589
| 19> C 	 -27.4558 	 29.0122 	 41.2614
| 20> H 	 -28.5382 	 28.8934 	 41.1656
| 21> H 	 -27.1647 	 28.074 	 40.7615
| 22> H 	 -27.212 	 29.1282 	 42.2933
| 23> S 	 -32.7052 	 28.4036 	 42.2733
| 24> C 	 -34.2449 	 28.3742 	 43.195
| 25> C 	 -34.6676 	 29.6615 	 43.5332
| 26> C 	 -33.6848 	 30.6176 	 43.2151
| 27> C 	 -32.6418 	 30.1688 	 42.4342
| 28> H 	 -35.628 	 29.8686 	 43.9623
| 29> C 	 -33.7307 	 32.0478 	 43.7703
| 30> H 	 -34.477 	 32.6492 	 43.2501
| 31> H 	 -32.7044 	 32.4851 	 43.6555
| 32> C 	 -34.1469 	 32.1439 	 45.293
| 33> H 	 -35.2271 	 31.8709 	 45.3736
| 34> H 	 -34.0921 	 33.2129 	 45.485
| 35> C 	 -33.2808 	 31.4152 	 46.3126
| 36> H 	 -33.3982 	 30.3209 	 46.1977
| 37> H 	 -33.5052 	 31.6682 	 47.2889
| 38> H 	 -32.2456 	 31.5351 	 46.0728
| 39> H 	 -29.8487 	 33.3764 	 39.6924
| 40> H 	 -34.8538 	 27.4631 	 43.3764
| 41> *
| 42>
| 43>                          ****END OF INPUT****

CARTESIAN COORDINATES (ANGSTROEM)
---------------------------------
  S    -31.967700   32.188200   40.587700
  C    -30.298000   32.484200   40.264100
  C    -29.442900   31.519300   40.901100
  C    -30.249900   30.648200   41.697800
  C    -31.593000   30.881800   41.684700
  H    -29.992600   29.899400   42.419800
  C    -27.907900   31.508300   40.956400
  H    -27.642600   31.727500   42.031700
  H    -27.618800   32.450000   40.443900
  C    -27.133200   30.295200   40.481400
  H    -27.194700   30.071000   39.393400
  H    -26.034800   30.437100   40.589000
  C    -27.455800   29.012200   41.261400
  H    -28.538200   28.893400   41.165600
  H    -27.164700   28.074000   40.761500
  H    -27.212000   29.128200   42.293300
  S    -32.705200   28.403600   42.273300
  C    -34.244900   28.374200   43.195000
  C    -34.667600   29.661500   43.533200
  C    -33.684800   30.617600   43.215100
  C    -32.641800   30.168800   42.434200
  H    -35.628000   29.868600   43.962300
  C    -33.730700   32.047800   43.770300
  H    -34.477000   32.649200   43.250100
  H    -32.704400   32.485100   43.655500
  C    -34.146900   32.143900   45.293000
  H    -35.227100   31.870900   45.373600
  H    -34.092100   33.212900   45.485000
  C    -33.280800   31.415200   46.312600
  H    -33.398200   30.320900   46.197700
  H    -33.505200   31.668200   47.288900
  H    -32.245600   31.535100   46.072800
  H    -29.848700   33.376400   39.692400
  H    -34.853800   27.463100   43.376400

 Total Charge           Charge          ....    0
 Multiplicity           Mult            ....    1
 Number of Electrons    NEL             ....  134
 Basis Dimension        Dim             ....  322

ORBITAL ENERGIES
----------------

  NO   OCC          E(Eh)            E(eV)
   0   2.0000     -88.969386     -2420.9801
   1   2.0000     -88.967321     -2420.9239
   2   2.0000     -10.327414      -281.0232
   3   2.0000     -10.327119      -281.0152
   4   2.0000     -10.326258      -280.9918
   5   2.0000     -10.325907      -280.9822
   6   2.0000     -10.310438      -280.5613
   7   2.0000     -10.302726      -280.3514
   8   2.0000     -10.301029      -280.3052
   9   2.0000     -10.296395      -280.1792
  10   2.0000     -10.294776      -280.1351
  11   2.0000     -10.290845      -280.0281
  12   2.0000     -10.289421      -279.9894
  13   2.0000     -10.288823      -279.9731
  14   2.0000     -10.273374      -279.5527
  15   2.0000     -10.267172      -279.3840
  16   2.0000      -8.084064      -219.9786
  17   2.0000      -8.080914      -219.8929
  18   2.0000      -6.042432      -164.4229
  19   2.0000      -6.039469      -164.3423
  20   2.0000      -6.038513      -164.3163
  21   2.0000      -6.035642      -164.2382
  22   2.0000      -6.035027      -164.2214
  23   2.0000      -6.031624      -164.1288
  24   2.0000      -1.004763       -27.3410
  25   2.0000      -0.981573       -26.7100
  26   2.0000      -0.909803       -24.7570
  27   2.0000      -0.900178       -24.4951
  28   2.0000      -0.867538       -23.6069
  29   2.0000      -0.849515       -23.1165
  30   2.0000      -0.843290       -22.9471
  31   2.0000      -0.815649       -22.1949
  32   2.0000      -0.784199       -21.3392
  33   2.0000      -0.769992       -20.9525
  34   2.0000      -0.700887       -19.0721
  35   2.0000      -0.697090       -18.9688
  36   2.0000      -0.688122       -18.7248
  37   2.0000      -0.662844       -18.0369
  38   2.0000      -0.640448       -17.4275
  39   2.0000      -0.611220       -16.6321
  40   2.0000      -0.589408       -16.0386
  41   2.0000      -0.572189       -15.5701
  42   2.0000      -0.554597       -15.0914
  43   2.0000      -0.547179       -14.8895
  44   2.0000      -0.540817       -14.7164
  45   2.0000      -0.537207       -14.6181
  46   2.0000      -0.518841       -14.1184
  47   2.0000      -0.510779       -13.8990
  48   2.0000      -0.503663       -13.7054
  49   2.0000      -0.491456       -13.3732
  50   2.0000      -0.489515       -13.3204
  51   2.0000      -0.475739       -12.9455
  52   2.0000      -0.470618       -12.8062
  53   2.0000      -0.463166       -12.6034
  54   2.0000      -0.459372       -12.5001
  55   2.0000      -0.444643       -12.0993
  56   2.0000      -0.444210       -12.0876
  57   2.0000      -0.436526       -11.8785
  58   2.0000      -0.433031       -11.7834
  59   2.0000      -0.422430       -11.4949
  60   2.0000      -0.418293       -11.3823
  61   2.0000      -0.409584       -11.1453
  62   2.0000      -0.409154       -11.1336
  63   2.0000      -0.344622        -9.3776
  64   2.0000      -0.334649        -9.1063
  65   2.0000      -0.326626        -8.8879
  66   2.0000      -0.292924        -7.9709
  67   0.0000       0.027681         0.7532
  68   0.0000       0.067646         1.8407
  69   0.0000       0.102633         2.7928
  70   0.0000       0.117859         3.2071
  71   0.0000       0.127450         3.4681

MULLIKEN ATOMIC CHARGES
-----------------------
   0 S :    0.135949
   1 C :   -0.152762
   2 C :   -0.091482
   3 C :    0.021455
   4 C :   -0.171672
   5 H :    0.009885
   6 C :    0.053398
   7 H :    0.045489
   8 H :    0.018421
   9 C :   -0.069878
  10 H :    0.034046
  11 H :    0.033250
  12 C :   -0.056995
  13 H :    0.027028
  14 H :    0.036567
  15 H :    0.033297
  16 S :    0.100693
  17 C :   -0.112896
  18 C :   -0.019430
  19 C :   -0.040197
  20 C :   -0.157588
  21 H :    0.021180
  22 C :    0.045686
  23 H :    0.039156
  24 H :    0.044996
  25 C :   -0.119544
  26 H :    0.028732
  27 H :    0.029870
  28 C :    0.004448
  29 H :    0.029832
  30 H :    0.025301
  31 H :    0.020333
  32 H :    0.079958
  33 H :    0.073474
Sum of atomic charges:   -0.0000000

LOEWDIN ATOMIC CHARGES
----------------------
   0 S :    0.427836
   1 C :   -0.222644
   2 C :   -0.063755
   3 C :   -0.071908
   4 C :   -0.201134
   5 H :    0.029058
   6 C :   -0.037652
   7 H :    0.041197
   8 H :    0.032917
   9 C :   -0.048899
  10 H :    0.028980
  11 H :    0.027877
  12 C :   -0.070979
  13 H :    0.026903
  14 H :    0.032850
  15 H :    0.020667
  16 S :    0.380886
  17 C :   -0.172460
  18 C :   -0.065631
  19 C :   -0.063618
  20 C :   -0.195539
  21 H :    0.032203
  22 C :   -0.032049
  23 H :    0.032394
  24 H :    0.033572
  25 C :   -0.042723
  26 H :    0.021461
  27 H :    0.024307
  28 C :   -0.060810
  29 H :    0.030917
  30 H :    0.016923
  31 H :    0.024931
  32 H :    0.047116
  33 H :    0.036802

  Mayer bond orders larger than 0.100000
B(  0-S ,  1-C ) :   1.1664 B(  0-S ,  4-C ) :   1.1418 B(  1-C ,  2-C ) :   1.5874
B(  1-C , 32-H ) :   0.9526 B(  2-C ,  3-C ) :   1.2330 B(  2-C ,  6-C ) :   1.0167
B(  3-C ,  4-C ) :   1.5904 B(  3-C ,  5-H ) :   0.9878 B(  4-C , 20-C ) :   1.0293
B(  6-C ,  7-H ) :   0.9448 B(  6-C ,  8-H ) :   0.9358 B(  6-C ,  9-C ) :   1.0670
B(  9-C , 10-H ) :   0.9545 B(  9-C , 11-H ) :   0.9545 B(  9-C , 12-C ) :   1.0800
B( 12-C , 13-H ) :   0.9671 B( 12-C , 14-H ) :   0.9676 B( 12-C , 15-H ) :   0.9758
B( 16-S , 17-C ) :   1.1516 B( 16-S , 20-C ) :   1.1194 B( 17-C , 18-C ) :   1.6025
B( 17-C , 20-C ) :   0.1011 B( 17-C , 33-H ) :   0.9627 B( 18-C , 19-C ) :   1.2371
B( 18-C , 21-H ) :   0.9908 B( 19-C , 20-C ) :   1.6082 B( 19-C , 22-C ) :   1.0322
B( 22-C , 23-H ) :   0.9329 B( 22-C , 24-H ) :   0.9403 B( 22-C , 25-C ) :   1.0789
B( 25-C , 26-H ) :   0.9512 B( 25-C , 27-H ) :   0.9571 B( 25-C , 28-C ) :   1.0763
B( 28-C , 29-H ) :   0.9691 B( 28-C , 30-H ) :   0.9746 B( 28-C , 31-H ) :   0.9722

Dispersion correction           -0.014822750
FINAL SINGLE POINT ENERGY     -1339.875703104893

DIPOLE MOMENT
-------------
                                X             Y             Z
Electronic contribution:    -11.52669      -2.98255     -11.70119
Nuclear contribution   :     11.60652       3.17820      12.02803
                        -----------------------------------------
Total Dipole Moment    :      0.07983       0.19565       0.32683
                        -----------------------------------------
Magnitude (a.u.)       :      0.38920
Magnitude (Debye)      :      0.98926

Rotational constants in cm-1:     0.020655     0.008010     0.007272
Rotational constants in MHz :   619.232112   240.130364   217.995546

                             ****ORCA TERMINATED NORMALLY****
TOTAL RUN TIME: 0 days 0 hours 0 minutes 32 seconds 55 msec
