                         Program Version 4.2.1 -  RELEASE  -
|  1> ! wB97X-D3 SP def2-SVP
|  2> %pal
|  3> nprocs 16
|  4> end
|  5>
|  6> * xyz 0 1
|  7> S 	 -28.7693 	 68.1971 	 104.08
|  8> C 	 -28.4031 	 66.8514 	 103.002
|  9> C 	 -27.1336 	 66.2846 	 103.279
| 10> C 	 -26.5801 	 66.9936 	 104.431
| 11> C 	 -27.232 	 68.1567 	 104.801
| 12> H 	 -25.7176 	 66.7214 	 104.99
| 13> C 	 -26.5067 	 65.0004 	 102.648
| 14> H 	 -25.5415 	 64.6319 	 103.064
| 15> H 	 -26.2025 	 65.189 	 101.663
| 16> C 	 -27.4298 	 63.7306 	 102.596
| 17> H 	 -27.688 	 63.4801 	 103.619
| 18> H 	 -28.2654 	 64.025 	 101.991
| 19> C 	 -26.6898 	 62.51 	 101.951
| 20> H 	 -27.1151 	 61.5609 	 102.301
| 21> H 	 -26.8635 	 62.6259 	 100.919
| 22> H 	 -25.5924 	 62.4595 	 102.08
| 23> S 	 -25.0977 	 69.651 	 105.88
| 24> C 	 -25.2907 	 70.4988 	 107.389
| 25> C 	 -26.5912 	 70.3455 	 107.864
| 26> C 	 -27.46 	 69.6452 	 107.017
| 27> C 	 -26.8156 	 69.1003 	 105.864
| 28> H 	 -26.8227 	 70.6753 	 108.883
| 29> C 	 -28.9782 	 69.3066 	 107.409
| 30> H 	 -29.5907 	 69.4622 	 106.516
| 31> H 	 -29.4368 	 70.0502 	 108.041
| 32> C 	 -29.2599 	 67.9758 	 108.113
| 33> H 	 -29.062 	 67.1468 	 107.42
| 34> H 	 -30.3094 	 68.0398 	 108.43
| 35> C 	 -28.332 	 67.6993 	 109.274
| 36> H 	 -28.7018 	 66.9548 	 109.953
| 37> H 	 -28.1547 	 68.5896 	 109.834
| 38> H 	 -27.3636 	 67.2947 	 109.054
| 39> H 	 -29.0875 	 66.4471 	 102.26
| 40> H 	 -24.7163 	 70.9939 	 108.105
| 41> *
| 42>
| 43>                          ****END OF INPUT****

CARTESIAN COORDINATES (ANGSTROEM)
---------------------------------
  S    -28.769300   68.197100  104.080000
  C    -28.403100   66.851400  103.002000
  C    -27.133600   66.284600  103.279000
  C    -26.580100   66.993600  104.431000
  C    -27.232000   68.156700  104.801000
  H    -25.717600   66.721400  104.990000
  C    -26.506700   65.000400  102.648000
  H    -25.541500   64.631900  103.064000
  H    -26.202500   65.189000  101.663000
  C    -27.429800   63.730600  102.596000
  H    -27.688000   63.480100  103.619000
  H    -28.265400   64.025000  101.991000
  C    -26.689800   62.510000  101.951000
  H    -27.115100   61.560900  102.301000
  H    -26.863500   62.625900  100.919000
  H    -25.592400   62.459500  102.080000
  S    -25.097700   69.651000  105.880000
  C    -25.290700   70.498800  107.389000
  C    -26.591200   70.345500  107.864000
  C    -27.460000   69.645200  107.017000
  C    -26.815600   69.100300  105.864000
  H    -26.822700   70.675300  108.883000
  C    -28.978200   69.306600  107.409000
  H    -29.590700   69.462200  106.516000
  H    -29.436800   70.050200  108.041000
  C    -29.259900   67.975800  108.113000
  H    -29.062000   67.146800  107.420000
  H    -30.309400   68.039800  108.430000
  C    -28.332000   67.699300  109.274000
  H    -28.701800   66.954800  109.953000
  H    -28.154700   68.589600  109.834000
  H    -27.363600   67.294700  109.054000
  H    -29.087500   66.447100  102.260000
  H    -24.716300   70.993900  108.105000

 Total Charge           Charge          ....    0
 Multiplicity           Mult            ....    1
 Number of Electrons    NEL             ....  134
 Basis Dimension        Dim             ....  322

ORBITAL ENERGIES
----------------

  NO   OCC          E(Eh)            E(eV)
   0   2.0000     -88.973708     -2421.0977
   1   2.0000     -88.969584     -2420.9855
   2   2.0000     -10.339136      -281.3422
   3   2.0000     -10.330340      -281.1028
   4   2.0000     -10.321918      -280.8737
   5   2.0000     -10.315932      -280.7108
   6   2.0000     -10.313512      -280.6449
   7   2.0000     -10.311509      -280.5904
   8   2.0000     -10.297457      -280.2081
   9   2.0000     -10.294727      -280.1338
  10   2.0000     -10.293694      -280.1056
  11   2.0000     -10.292100      -280.0623
  12   2.0000     -10.289984      -280.0047
  13   2.0000     -10.284336      -279.8510
  14   2.0000     -10.281040      -279.7613
  15   2.0000     -10.265182      -279.3298
  16   2.0000      -8.086678      -220.0497
  17   2.0000      -8.084470      -219.9896
  18   2.0000      -6.045286      -164.5006
  19   2.0000      -6.042941      -164.4368
  20   2.0000      -6.041300      -164.3921
  21   2.0000      -6.038980      -164.3290
  22   2.0000      -6.037547      -164.2900
  23   2.0000      -6.035228      -164.2269
  24   2.0000      -1.003813       -27.3151
  25   2.0000      -0.980687       -26.6859
  26   2.0000      -0.906677       -24.6719
  27   2.0000      -0.904178       -24.6039
  28   2.0000      -0.866076       -23.5671
  29   2.0000      -0.848755       -23.0958
  30   2.0000      -0.840891       -22.8818
  31   2.0000      -0.812290       -22.1035
  32   2.0000      -0.786602       -21.4045
  33   2.0000      -0.777375       -21.1534
  34   2.0000      -0.707142       -19.2423
  35   2.0000      -0.703634       -19.1469
  36   2.0000      -0.686489       -18.6803
  37   2.0000      -0.660493       -17.9729
  38   2.0000      -0.639872       -17.4118
  39   2.0000      -0.613722       -16.7002
  40   2.0000      -0.590519       -16.0688
  41   2.0000      -0.576595       -15.6900
  42   2.0000      -0.569280       -15.4909
  43   2.0000      -0.554759       -15.0958
  44   2.0000      -0.539216       -14.6728
  45   2.0000      -0.521100       -14.1799
  46   2.0000      -0.514600       -14.0030
  47   2.0000      -0.510229       -13.8840
  48   2.0000      -0.501583       -13.6488
  49   2.0000      -0.495245       -13.4763
  50   2.0000      -0.482985       -13.1427
  51   2.0000      -0.477650       -12.9975
  52   2.0000      -0.472382       -12.8542
  53   2.0000      -0.469002       -12.7622
  54   2.0000      -0.461238       -12.5509
  55   2.0000      -0.452498       -12.3131
  56   2.0000      -0.443281       -12.0623
  57   2.0000      -0.434284       -11.8175
  58   2.0000      -0.431147       -11.7321
  59   2.0000      -0.427399       -11.6301
  60   2.0000      -0.420256       -11.4358
  61   2.0000      -0.415037       -11.2937
  62   2.0000      -0.406396       -11.0586
  63   2.0000      -0.347111        -9.4454
  64   2.0000      -0.336450        -9.1553
  65   2.0000      -0.328967        -8.9517
  66   2.0000      -0.288705        -7.8561
  67   0.0000       0.022287         0.6065
  68   0.0000       0.071184         1.9370
  69   0.0000       0.104092         2.8325
  70   0.0000       0.121722         3.3122
  71   0.0000       0.126657         3.4465

MULLIKEN ATOMIC CHARGES
-----------------------
   0 S :    0.115439
   1 C :   -0.133316
   2 C :   -0.048346
   3 C :    0.009973
   4 C :   -0.136066
   5 H :    0.003185
   6 C :    0.054052
   7 H :    0.021890
   8 H :    0.016805
   9 C :   -0.085915
  10 H :    0.040203
  11 H :    0.030564
  12 C :   -0.053179
  13 H :    0.041293
  14 H :    0.024335
  15 H :    0.036387
  16 S :    0.123067
  17 C :   -0.040844
  18 C :   -0.091829
  19 C :   -0.013971
  20 C :   -0.163701
  21 H :    0.026852
  22 C :    0.040651
  23 H :    0.025938
  24 H :    0.012103
  25 C :   -0.038526
  26 H :    0.035913
  27 H :    0.037931
  28 C :   -0.033730
  29 H :    0.022634
  30 H :    0.006964
  31 H :    0.028610
  32 H :    0.056176
  33 H :    0.028458
Sum of atomic charges:    0.0000000

LOEWDIN ATOMIC CHARGES
----------------------
   0 S :    0.435589
   1 C :   -0.197079
   2 C :   -0.052377
   3 C :   -0.063103
   4 C :   -0.216259
   5 H :    0.022335
   6 C :   -0.032821
   7 H :    0.032622
   8 H :    0.022875
   9 C :   -0.030000
  10 H :    0.022734
  11 H :    0.019022
  12 C :   -0.065628
  13 H :    0.030040
  14 H :    0.020411
  15 H :    0.027467
  16 S :    0.410811
  17 C :   -0.195471
  18 C :   -0.075824
  19 C :   -0.054354
  20 C :   -0.182685
  21 H :    0.032692
  22 C :   -0.036732
  23 H :    0.023542
  24 H :    0.026250
  25 C :   -0.037218
  26 H :    0.027310
  27 H :    0.029738
  28 C :   -0.066178
  29 H :    0.025470
  30 H :    0.015656
  31 H :    0.026299
  32 H :    0.027894
  33 H :    0.026971

  Mayer bond orders larger than 0.100000
B(  0-S ,  1-C ) :   1.1538 B(  0-S ,  4-C ) :   1.1570 B(  1-C ,  2-C ) :   1.5862
B(  1-C , 32-H ) :   0.9701 B(  2-C ,  3-C ) :   1.2515 B(  2-C ,  6-C ) :   1.0072
B(  3-C ,  4-C ) :   1.5649 B(  3-C ,  5-H ) :   0.9939 B(  4-C , 20-C ) :   1.0382
B(  6-C ,  7-H ) :   0.9525 B(  6-C ,  8-H ) :   0.9395 B(  6-C ,  9-C ) :   1.0563
B(  9-C , 10-H ) :   0.9670 B(  9-C , 11-H ) :   0.9609 B(  9-C , 12-C ) :   1.0665
B( 12-C , 13-H ) :   0.9775 B( 12-C , 14-H ) :   0.9779 B( 12-C , 15-H ) :   0.9779
B( 16-S , 17-C ) :   1.1516 B( 16-S , 20-C ) :   1.1466 B( 17-C , 18-C ) :   1.6004
B( 17-C , 20-C ) :   0.1108 B( 17-C , 33-H ) :   0.9652 B( 18-C , 19-C ) :   1.2946
B( 18-C , 21-H ) :   0.9786 B( 19-C , 20-C ) :   1.5389 B( 19-C , 22-C ) :   1.0194
B( 22-C , 23-H ) :   0.9398 B( 22-C , 24-H ) :   0.9383 B( 22-C , 25-C ) :   1.0746
B( 25-C , 26-H ) :   0.9543 B( 25-C , 27-H ) :   0.9556 B( 25-C , 28-C ) :   1.0813
B( 28-C , 29-H ) :   0.9702 B( 28-C , 30-H ) :   0.9755 B( 28-C , 31-H ) :   0.9689

Dispersion correction           -0.014445478
FINAL SINGLE POINT ENERGY     -1339.854261888019

DIPOLE MOMENT
-------------
                                X             Y             Z
Electronic contribution:      5.28573      21.18569      -3.24989
Nuclear contribution   :     -5.40025     -21.72672       3.47734
                        -----------------------------------------
Total Dipole Moment    :     -0.11453      -0.54103       0.22745
                        -----------------------------------------
Magnitude (a.u.)       :      0.59797
Magnitude (Debye)      :      1.51992

Rotational constants in cm-1:     0.021762     0.007182     0.006505
Rotational constants in MHz :   652.406166   215.311935   195.019253

                             ****ORCA TERMINATED NORMALLY****
TOTAL RUN TIME: 0 days 0 hours 0 minutes 30 seconds 969 msec
