                         Program Version 4.2.1 -  RELEASE  -
|  1> ! wB97X-D3 SP def2-SVP
|  2> %pal
|  3> nprocs 16
|  4> end
|  5>
|  6> * xyz 0 1
|  7> S 	 17.9315 	 19.619 	 40.4603
|  8> C 	 17.7545 	 18.5068 	 39.1416
|  9> C 	 16.3852 	 18.2345 	 38.8561
| 10> C 	 15.4839 	 18.8717 	 39.8052
| 11> C 	 16.1915 	 19.6465 	 40.6871
| 12> H 	 14.3723 	 18.769 	 39.8046
| 13> C 	 15.8841 	 17.193 	 37.7835
| 14> H 	 16.2152 	 17.4863 	 36.7605
| 15> H 	 14.8234 	 17.1964 	 37.6897
| 16> C 	 16.3677 	 15.7875 	 38.1213
| 17> H 	 17.5227 	 15.7908 	 38.2201
| 18> H 	 16.0252 	 15.5154 	 39.1153
| 19> C 	 15.9308 	 14.6886 	 37.1212
| 20> H 	 15.8573 	 13.6713 	 37.5893
| 21> H 	 14.9028 	 14.9049 	 36.7972
| 22> H 	 16.6251 	 14.6768 	 36.2486
| 23> S 	 14.8321 	 21.9805 	 41.4198
| 24> C 	 13.8785 	 21.9179 	 42.9363
| 25> C 	 14.1432 	 20.7695 	 43.5703
| 26> C 	 15.0117 	 19.8443 	 42.9195
| 27> C 	 15.5075 	 20.3121 	 41.7203
| 28> H 	 13.545 	 20.6743 	 44.4707
| 29> C 	 15.3911 	 18.5286 	 43.6547
| 30> H 	 15.8009 	 18.7232 	 44.6684
| 31> H 	 16.2774 	 18.2902 	 43.096
| 32> C 	 14.3483 	 17.3837 	 43.6754
| 33> H 	 13.5169 	 17.8236 	 44.1977
| 34> H 	 14.7104 	 16.5492 	 44.26
| 35> C 	 13.8723 	 16.8923 	 42.2109
| 36> H 	 13.2506 	 16.0356 	 42.2993
| 37> H 	 14.7325 	 16.5227 	 41.6734
| 38> H 	 13.3377 	 17.6589 	 41.6715
| 39> H 	 18.6576 	 18.1168 	 38.5902
| 40> H 	 13.2167 	 22.6788 	 43.195
| 41> *
| 42>
| 43>                          ****END OF INPUT****

CARTESIAN COORDINATES (ANGSTROEM)
---------------------------------
  S     17.931500   19.619000   40.460300
  C     17.754500   18.506800   39.141600
  C     16.385200   18.234500   38.856100
  C     15.483900   18.871700   39.805200
  C     16.191500   19.646500   40.687100
  H     14.372300   18.769000   39.804600
  C     15.884100   17.193000   37.783500
  H     16.215200   17.486300   36.760500
  H     14.823400   17.196400   37.689700
  C     16.367700   15.787500   38.121300
  H     17.522700   15.790800   38.220100
  H     16.025200   15.515400   39.115300
  C     15.930800   14.688600   37.121200
  H     15.857300   13.671300   37.589300
  H     14.902800   14.904900   36.797200
  H     16.625100   14.676800   36.248600
  S     14.832100   21.980500   41.419800
  C     13.878500   21.917900   42.936300
  C     14.143200   20.769500   43.570300
  C     15.011700   19.844300   42.919500
  C     15.507500   20.312100   41.720300
  H     13.545000   20.674300   44.470700
  C     15.391100   18.528600   43.654700
  H     15.800900   18.723200   44.668400
  H     16.277400   18.290200   43.096000
  C     14.348300   17.383700   43.675400
  H     13.516900   17.823600   44.197700
  H     14.710400   16.549200   44.260000
  C     13.872300   16.892300   42.210900
  H     13.250600   16.035600   42.299300
  H     14.732500   16.522700   41.673400
  H     13.337700   17.658900   41.671500
  H     18.657600   18.116800   38.590200
  H     13.216700   22.678800   43.195000

 Total Charge           Charge          ....    0
 Multiplicity           Mult            ....    1
 Number of Electrons    NEL             ....  134
 Basis Dimension        Dim             ....  322

ORBITAL ENERGIES
----------------

  NO   OCC          E(Eh)            E(eV)
   0   2.0000     -88.972600     -2421.0675
   1   2.0000     -88.954795     -2420.5830
   2   2.0000     -10.325497      -280.9711
   3   2.0000     -10.324644      -280.9479
   4   2.0000     -10.323120      -280.9064
   5   2.0000     -10.312752      -280.6242
   6   2.0000     -10.311591      -280.5927
   7   2.0000     -10.304445      -280.3982
   8   2.0000     -10.302070      -280.3336
   9   2.0000     -10.297354      -280.2052
  10   2.0000     -10.292751      -280.0800
  11   2.0000     -10.291150      -280.0364
  12   2.0000     -10.290873      -280.0289
  13   2.0000     -10.286830      -279.9189
  14   2.0000     -10.286157      -279.9006
  15   2.0000     -10.276493      -279.6376
  16   2.0000      -8.087113      -220.0615
  17   2.0000      -8.068604      -219.5579
  18   2.0000      -6.045509      -164.5067
  19   2.0000      -6.041623      -164.4009
  20   2.0000      -6.038032      -164.3032
  21   2.0000      -6.027226      -164.0092
  22   2.0000      -6.023321      -163.9029
  23   2.0000      -6.019210      -163.7910
  24   2.0000      -1.003798       -27.3147
  25   2.0000      -0.976823       -26.5807
  26   2.0000      -0.906538       -24.6681
  27   2.0000      -0.895545       -24.3690
  28   2.0000      -0.875156       -23.8142
  29   2.0000      -0.847555       -23.0632
  30   2.0000      -0.835452       -22.7338
  31   2.0000      -0.810690       -22.0600
  32   2.0000      -0.780973       -21.2513
  33   2.0000      -0.770787       -20.9742
  34   2.0000      -0.709366       -19.3028
  35   2.0000      -0.698866       -19.0171
  36   2.0000      -0.693339       -18.8667
  37   2.0000      -0.652864       -17.7653
  38   2.0000      -0.646097       -17.5812
  39   2.0000      -0.613410       -16.6917
  40   2.0000      -0.592826       -16.1316
  41   2.0000      -0.566976       -15.4282
  42   2.0000      -0.556259       -15.1366
  43   2.0000      -0.546683       -14.8760
  44   2.0000      -0.539571       -14.6825
  45   2.0000      -0.519881       -14.1467
  46   2.0000      -0.515786       -14.0352
  47   2.0000      -0.511763       -13.9258
  48   2.0000      -0.501376       -13.6431
  49   2.0000      -0.498478       -13.5643
  50   2.0000      -0.491554       -13.3759
  51   2.0000      -0.474729       -12.9180
  52   2.0000      -0.471556       -12.8317
  53   2.0000      -0.465983       -12.6801
  54   2.0000      -0.457271       -12.4430
  55   2.0000      -0.448941       -12.2163
  56   2.0000      -0.435986       -11.8638
  57   2.0000      -0.434184       -11.8147
  58   2.0000      -0.432221       -11.7613
  59   2.0000      -0.425330       -11.5738
  60   2.0000      -0.416543       -11.3347
  61   2.0000      -0.414196       -11.2709
  62   2.0000      -0.409059       -11.1311
  63   2.0000      -0.340298        -9.2600
  64   2.0000      -0.326800        -8.8927
  65   2.0000      -0.317907        -8.6507
  66   2.0000      -0.311153        -8.4669
  67   0.0000       0.042950         1.1687
  68   0.0000       0.049651         1.3511
  69   0.0000       0.113831         3.0975
  70   0.0000       0.117422         3.1952
  71   0.0000       0.124677         3.3926

MULLIKEN ATOMIC CHARGES
-----------------------
   0 S :    0.137121
   1 C :   -0.156867
   2 C :   -0.084969
   3 C :    0.037048
   4 C :   -0.181447
   5 H :    0.044028
   6 C :    0.082999
   7 H :    0.033131
   8 H :    0.008272
   9 C :   -0.114996
  10 H :    0.036300
  11 H :    0.029330
  12 C :   -0.057177
  13 H :    0.044374
  14 H :    0.026964
  15 H :    0.045509
  16 S :    0.063977
  17 C :   -0.085037
  18 C :   -0.017556
  19 C :   -0.016503
  20 C :   -0.180658
  21 H :    0.019644
  22 C :    0.066316
  23 H :    0.038520
  24 H :    0.009973
  25 C :   -0.056292
  26 H :    0.023805
  27 H :    0.034841
  28 C :   -0.050660
  29 H :    0.022891
  30 H :    0.038907
  31 H :    0.041503
  32 H :    0.077994
  33 H :    0.038715
Sum of atomic charges:   -0.0000000

LOEWDIN ATOMIC CHARGES
----------------------
   0 S :    0.421904
   1 C :   -0.212643
   2 C :   -0.056276
   3 C :   -0.044145
   4 C :   -0.211876
   5 H :    0.044954
   6 C :   -0.031299
   7 H :    0.032918
   8 H :    0.021068
   9 C :   -0.049093
  10 H :    0.028779
  11 H :    0.020992
  12 C :   -0.073517
  13 H :    0.033117
  14 H :    0.023509
  15 H :    0.029662
  16 S :    0.339238
  17 C :   -0.151647
  18 C :   -0.079693
  19 C :   -0.051258
  20 C :   -0.175720
  21 H :    0.034013
  22 C :   -0.032909
  23 H :    0.036994
  24 H :    0.022348
  25 C :   -0.030285
  26 H :    0.019250
  27 H :    0.024730
  28 C :   -0.059565
  29 H :    0.021019
  30 H :    0.024724
  31 H :    0.022822
  32 H :    0.039375
  33 H :    0.018508

  Mayer bond orders larger than 0.100000
B(  0-S ,  1-C ) :   1.1544 B(  0-S ,  4-C ) :   1.1424 B(  1-C ,  2-C ) :   1.5868
B(  1-C , 32-H ) :   0.9620 B(  2-C ,  3-C ) :   1.2499 B(  2-C ,  6-C ) :   1.0183
B(  3-C ,  4-C ) :   1.5770 B(  3-C ,  5-H ) :   0.9840 B(  4-C , 20-C ) :   1.0422
B(  6-C ,  7-H ) :   0.9418 B(  6-C ,  8-H ) :   0.9426 B(  6-C ,  9-C ) :   1.0599
B(  9-C , 10-H ) :   0.9580 B(  9-C , 11-H ) :   0.9573 B(  9-C , 12-C ) :   1.0697
B( 12-C , 13-H ) :   0.9767 B( 12-C , 14-H ) :   0.9741 B( 12-C , 15-H ) :   0.9762
B( 16-S , 17-C ) :   1.1279 B( 16-S , 20-C ) :   1.1100 B( 17-C , 18-C ) :   1.6598
B( 17-C , 33-H ) :   0.9755 B( 18-C , 19-C ) :   1.1841 B( 18-C , 21-H ) :   0.9897
B( 19-C , 20-C ) :   1.6458 B( 19-C , 22-C ) :   1.0174 B( 22-C , 23-H ) :   0.9462
B( 22-C , 24-H ) :   0.9331 B( 22-C , 25-C ) :   1.0599 B( 25-C , 26-H ) :   0.9603
B( 25-C , 27-H ) :   0.9585 B( 25-C , 28-C ) :   1.0701 B( 28-C , 29-H ) :   0.9732
B( 28-C , 30-H ) :   0.9755 B( 28-C , 31-H ) :   0.9743

Dispersion correction           -0.015743678
FINAL SINGLE POINT ENERGY     -1339.872202582150

DIPOLE MOMENT
-------------
                                X             Y             Z
Electronic contribution:      7.73026      28.10381       5.00332
Nuclear contribution   :     -8.04840     -28.77798      -4.94898
                        -----------------------------------------
Total Dipole Moment    :     -0.31814      -0.67416       0.05434
                        -----------------------------------------
Magnitude (a.u.)       :      0.74744
Magnitude (Debye)      :      1.89983

Rotational constants in cm-1:     0.020379     0.008556     0.007159
Rotational constants in MHz :   610.945249   256.505055   214.626901

                             ****ORCA TERMINATED NORMALLY****
TOTAL RUN TIME: 0 days 0 hours 0 minutes 36 seconds 531 msec
