                         Program Version 4.2.1 -  RELEASE  -
|  1> ! wB97X-D3 SP def2-SVP
|  2> %pal
|  3> nprocs 16
|  4> end
|  5>
|  6> * xyz 0 1
|  7> S 	 2.30935 	 -11.3865 	 77.3306
|  8> C 	 3.8538 	 -10.8134 	 77.8846
|  9> C 	 3.75252 	 -10.4939 	 79.2161
| 10> C 	 2.43175 	 -10.5577 	 79.7077
| 11> C 	 1.49846 	 -11.0311 	 78.8331
| 12> H 	 2.14184 	 -10.3963 	 80.6874
| 13> C 	 4.8545 	 -10.0157 	 80.1337
| 14> H 	 5.88095 	 -10.3732 	 79.8676
| 15> H 	 4.626 	 -10.3992 	 81.15
| 16> C 	 4.96848 	 -8.52714 	 80.1429
| 17> H 	 4.93606 	 -8.2 	 79.1038
| 18> H 	 4.08201 	 -7.95471 	 80.4091
| 19> C 	 6.24404 	 -8.00188 	 80.8535
| 20> H 	 7.18212 	 -8.35723 	 80.3591
| 21> H 	 6.22439 	 -6.91717 	 80.9482
| 22> H 	 6.3671 	 -8.38399 	 81.8408
| 23> S 	 -1.13587 	 -10.8274 	 78.1207
| 24> C 	 -2.30046 	 -11.7592 	 79.0198
| 25> C 	 -1.73975 	 -12.4953 	 79.9991
| 26> C 	 -0.311442 	 -12.455 	 79.9806
| 27> C 	 0.179411 	 -11.5046 	 79.0739
| 28> H 	 -2.38659 	 -13.0883 	 80.6072
| 29> C 	 0.348359 	 -13.0843 	 81.1507
| 30> H 	 1.39907 	 -13.2247 	 80.8592
| 31> H 	 -0.161897 	 -14.0471 	 81.3687
| 32> C 	 0.294585 	 -12.2169 	 82.4485
| 33> H 	 -0.784564 	 -12.2713 	 82.779
| 34> H 	 0.335801 	 -11.1659 	 82.239
| 35> C 	 1.11349 	 -12.7741 	 83.6557
| 36> H 	 0.714789 	 -12.3465 	 84.5694
| 37> H 	 2.16229 	 -12.5396 	 83.4356
| 38> H 	 1.10135 	 -13.9051 	 83.6666
| 39> H 	 4.7847 	 -10.8734 	 77.379
| 40> H 	 -3.40739 	 -11.8531 	 78.8037
| 41> *
| 42>
| 43>                          ****END OF INPUT****

CARTESIAN COORDINATES (ANGSTROEM)
---------------------------------
  S      2.309350  -11.386500   77.330600
  C      3.853800  -10.813400   77.884600
  C      3.752520  -10.493900   79.216100
  C      2.431750  -10.557700   79.707700
  C      1.498460  -11.031100   78.833100
  H      2.141840  -10.396300   80.687400
  C      4.854500  -10.015700   80.133700
  H      5.880950  -10.373200   79.867600
  H      4.626000  -10.399200   81.150000
  C      4.968480   -8.527140   80.142900
  H      4.936060   -8.200000   79.103800
  H      4.082010   -7.954710   80.409100
  C      6.244040   -8.001880   80.853500
  H      7.182120   -8.357230   80.359100
  H      6.224390   -6.917170   80.948200
  H      6.367100   -8.383990   81.840800
  S     -1.135870  -10.827400   78.120700
  C     -2.300460  -11.759200   79.019800
  C     -1.739750  -12.495300   79.999100
  C     -0.311442  -12.455000   79.980600
  C      0.179411  -11.504600   79.073900
  H     -2.386590  -13.088300   80.607200
  C      0.348359  -13.084300   81.150700
  H      1.399070  -13.224700   80.859200
  H     -0.161897  -14.047100   81.368700
  C      0.294585  -12.216900   82.448500
  H     -0.784564  -12.271300   82.779000
  H      0.335801  -11.165900   82.239000
  C      1.113490  -12.774100   83.655700
  H      0.714789  -12.346500   84.569400
  H      2.162290  -12.539600   83.435600
  H      1.101350  -13.905100   83.666600
  H      4.784700  -10.873400   77.379000
  H     -3.407390  -11.853100   78.803700

 Total Charge           Charge          ....    0
 Multiplicity           Mult            ....    1
 Number of Electrons    NEL             ....  134
 Basis Dimension        Dim             ....  322

ORBITAL ENERGIES
----------------

  NO   OCC          E(Eh)            E(eV)
   0   2.0000     -88.965305     -2420.8690
   1   2.0000     -88.962350     -2420.7886
   2   2.0000     -10.326987      -281.0116
   3   2.0000     -10.323305      -280.9114
   4   2.0000     -10.316931      -280.7380
   5   2.0000     -10.312162      -280.6082
   6   2.0000     -10.303104      -280.3617
   7   2.0000     -10.297544      -280.2104
   8   2.0000     -10.294933      -280.1394
   9   2.0000     -10.293665      -280.1049
  10   2.0000     -10.291669      -280.0506
  11   2.0000     -10.288914      -279.9756
  12   2.0000     -10.286298      -279.9044
  13   2.0000     -10.285585      -279.8850
  14   2.0000     -10.282367      -279.7974
  15   2.0000     -10.280022      -279.7336
  16   2.0000      -8.080220      -219.8740
  17   2.0000      -8.077610      -219.8030
  18   2.0000      -6.038821      -164.3247
  19   2.0000      -6.036145      -164.2519
  20   2.0000      -6.034646      -164.2111
  21   2.0000      -6.031881      -164.1358
  22   2.0000      -6.030938      -164.1102
  23   2.0000      -6.028450      -164.0425
  24   2.0000      -1.012799       -27.5597
  25   2.0000      -0.989751       -26.9325
  26   2.0000      -0.916565       -24.9410
  27   2.0000      -0.907550       -24.6957
  28   2.0000      -0.876213       -23.8430
  29   2.0000      -0.850784       -23.1510
  30   2.0000      -0.846898       -23.0453
  31   2.0000      -0.818700       -22.2780
  32   2.0000      -0.782533       -21.2938
  33   2.0000      -0.769498       -20.9391
  34   2.0000      -0.710953       -19.3460
  35   2.0000      -0.704716       -19.1763
  36   2.0000      -0.695362       -18.9218
  37   2.0000      -0.662971       -18.0403
  38   2.0000      -0.649620       -17.6770
  39   2.0000      -0.627057       -17.0631
  40   2.0000      -0.593579       -16.1521
  41   2.0000      -0.573310       -15.6006
  42   2.0000      -0.559828       -15.2337
  43   2.0000      -0.552569       -15.0362
  44   2.0000      -0.528512       -14.3815
  45   2.0000      -0.526911       -14.3380
  46   2.0000      -0.520905       -14.1745
  47   2.0000      -0.516460       -14.0536
  48   2.0000      -0.507605       -13.8126
  49   2.0000      -0.502154       -13.6643
  50   2.0000      -0.496649       -13.5145
  51   2.0000      -0.474801       -12.9200
  52   2.0000      -0.470003       -12.7894
  53   2.0000      -0.466644       -12.6980
  54   2.0000      -0.461838       -12.5672
  55   2.0000      -0.450093       -12.2477
  56   2.0000      -0.447304       -12.1718
  57   2.0000      -0.445073       -12.1111
  58   2.0000      -0.439893       -11.9701
  59   2.0000      -0.425956       -11.5908
  60   2.0000      -0.419099       -11.4043
  61   2.0000      -0.406194       -11.0531
  62   2.0000      -0.404238       -10.9999
  63   2.0000      -0.342628        -9.3234
  64   2.0000      -0.331527        -9.0213
  65   2.0000      -0.328830        -8.9479
  66   2.0000      -0.300556        -8.1785
  67   0.0000       0.033099         0.9007
  68   0.0000       0.065868         1.7924
  69   0.0000       0.115860         3.1527
  70   0.0000       0.118505         3.2247
  71   0.0000       0.126389         3.4392

MULLIKEN ATOMIC CHARGES
-----------------------
   0 S :    0.109509
   1 C :   -0.092162
   2 C :   -0.097829
   3 C :    0.048706
   4 C :   -0.114271
   5 H :   -0.032868
   6 C :    0.067744
   7 H :    0.021358
   8 H :    0.027699
   9 C :   -0.071693
  10 H :    0.014912
  11 H :    0.017456
  12 C :   -0.030919
  13 H :    0.031781
  14 H :    0.037999
  15 H :    0.017660
  16 S :    0.112705
  17 C :   -0.098821
  18 C :   -0.044049
  19 C :    0.003304
  20 C :   -0.193116
  21 H :    0.010593
  22 C :    0.047079
  23 H :    0.031768
  24 H :    0.032087
  25 C :   -0.108559
  26 H :    0.017648
  27 H :    0.031909
  28 C :   -0.029143
  29 H :    0.048320
  30 H :    0.034849
  31 H :    0.037638
  32 H :    0.037534
  33 H :    0.073172
Sum of atomic charges:   -0.0000000

LOEWDIN ATOMIC CHARGES
----------------------
   0 S :    0.416504
   1 C :   -0.192272
   2 C :   -0.064501
   3 C :   -0.053126
   4 C :   -0.199355
   5 H :    0.017965
   6 C :   -0.032275
   7 H :    0.032220
   8 H :    0.030891
   9 C :   -0.052109
  10 H :    0.025666
  11 H :    0.024288
  12 C :   -0.065471
  13 H :    0.028629
  14 H :    0.028442
  15 H :    0.019155
  16 S :    0.405775
  17 C :   -0.191054
  18 C :   -0.074618
  19 C :   -0.048819
  20 C :   -0.204414
  21 H :    0.029039
  22 C :   -0.035519
  23 H :    0.028431
  24 H :    0.035374
  25 C :   -0.046425
  26 H :    0.025171
  27 H :    0.018554
  28 C :   -0.064283
  29 H :    0.028876
  30 H :    0.025201
  31 H :    0.033584
  32 H :    0.026346
  33 H :    0.044129

  Mayer bond orders larger than 0.100000
B(  0-S ,  1-C ) :   1.1443 B(  0-S ,  4-C ) :   1.1597 B(  1-C ,  2-C ) :   1.5959
B(  1-C , 32-H ) :   0.9742 B(  2-C ,  3-C ) :   1.2444 B(  2-C ,  6-C ) :   1.0320
B(  3-C ,  4-C ) :   1.5636 B(  3-C ,  5-H ) :   1.0199 B(  4-C , 20-C ) :   1.0390
B(  6-C ,  7-H ) :   0.9427 B(  6-C ,  8-H ) :   0.9342 B(  6-C ,  9-C ) :   1.0623
B(  9-C , 10-H ) :   0.9473 B(  9-C , 11-H ) :   0.9506 B(  9-C , 12-C ) :   1.0778
B( 12-C , 13-H ) :   0.9734 B( 12-C , 14-H ) :   0.9746 B( 12-C , 15-H ) :   0.9744
B( 16-S , 17-C ) :   1.1463 B( 16-S , 20-C ) :   1.1383 B( 17-C , 18-C ) :   1.6442
B( 17-C , 33-H ) :   0.9542 B( 18-C , 19-C ) :   1.2090 B( 18-C , 21-H ) :   0.9916
B( 19-C , 20-C ) :   1.5780 B( 19-C , 22-C ) :   1.0818 B( 22-C , 23-H ) :   0.9327
B( 22-C , 24-H ) :   0.9260 B( 22-C , 25-C ) :   1.0520 B( 25-C , 26-H ) :   0.9502
B( 25-C , 27-H ) :   0.9587 B( 25-C , 28-C ) :   1.0630 B( 28-C , 29-H ) :   0.9754
B( 28-C , 30-H ) :   0.9771 B( 28-C , 31-H ) :   0.9727

Dispersion correction           -0.014393597
FINAL SINGLE POINT ENERGY     -1339.875960446701

DIPOLE MOMENT
-------------
                                X             Y             Z
Electronic contribution:    -16.30643      -3.46689     -25.00240
Nuclear contribution   :     16.44812       3.34621      25.70978
                        -----------------------------------------
Total Dipole Moment    :      0.14169      -0.12068       0.70737
                        -----------------------------------------
Magnitude (a.u.)       :      0.73145
Magnitude (Debye)      :      1.85919

Rotational constants in cm-1:     0.018196     0.008682     0.006622
Rotational constants in MHz :   545.490398   260.292052   198.522288

                             ****ORCA TERMINATED NORMALLY****
TOTAL RUN TIME: 0 days 0 hours 0 minutes 35 seconds 55 msec
