                         Program Version 4.2.1 -  RELEASE  -
|  1> ! wB97X-D3 SP def2-SVP
|  2> %pal
|  3> nprocs 16
|  4> end
|  5>
|  6> * xyz 0 1
|  7> S 	 31.8955 	 1.47858 	 70.1232
|  8> C 	 31.5587 	 3.07615 	 69.6157
|  9> C 	 31.8207 	 4.00635 	 70.5957
| 10> C 	 32.0673 	 3.33334 	 71.898
| 11> C 	 32.0396 	 1.96513 	 71.8079
| 12> H 	 32.3125 	 3.84885 	 72.8523
| 13> C 	 31.8834 	 5.51654 	 70.3569
| 14> H 	 32.1341 	 5.985 	 71.2853
| 15> H 	 30.8615 	 5.88406 	 70.1334
| 16> C 	 32.9361 	 5.84381 	 69.3494
| 17> H 	 32.7771 	 5.37711 	 68.3785
| 18> H 	 32.8152 	 6.91669 	 69.19
| 19> C 	 34.3981 	 5.56167 	 69.828
| 20> H 	 34.6362 	 4.55563 	 69.5073
| 21> H 	 35.1826 	 6.11013 	 69.4049
| 22> H 	 34.5254 	 5.64082 	 70.9246
| 23> S 	 30.9502 	 -0.414386 	 72.6374
| 24> C 	 31.3148 	 -0.943748 	 74.2236
| 25> C 	 32.3834 	 -0.275943 	 74.7689
| 26> C 	 32.814 	 0.833105 	 73.9866
| 27> C 	 32.0916 	 0.910936 	 72.8174
| 28> H 	 32.9126 	 -0.429806 	 75.7118
| 29> C 	 33.9009 	 1.80669 	 74.4094
| 30> H 	 34.4875 	 2.1392 	 73.5461
| 31> H 	 34.6155 	 1.14893 	 75.0067
| 32> C 	 33.5324 	 2.95741 	 75.3624
| 33> H 	 32.7641 	 3.5653 	 74.9392
| 34> H 	 34.3446 	 3.66687 	 75.377
| 35> C 	 33.1901 	 2.41259 	 76.7531
| 36> H 	 33.1896 	 3.20671 	 77.4792
| 37> H 	 33.9105 	 1.64874 	 77.0128
| 38> H 	 32.2368 	 1.93976 	 76.8379
| 39> H 	 31.3735 	 3.40471 	 68.6089
| 40> H 	 30.7768 	 -1.68815 	 74.7278
| 41> *
| 42>
| 43>                          ****END OF INPUT****

CARTESIAN COORDINATES (ANGSTROEM)
---------------------------------
  S     31.895500    1.478580   70.123200
  C     31.558700    3.076150   69.615700
  C     31.820700    4.006350   70.595700
  C     32.067300    3.333340   71.898000
  C     32.039600    1.965130   71.807900
  H     32.312500    3.848850   72.852300
  C     31.883400    5.516540   70.356900
  H     32.134100    5.985000   71.285300
  H     30.861500    5.884060   70.133400
  C     32.936100    5.843810   69.349400
  H     32.777100    5.377110   68.378500
  H     32.815200    6.916690   69.190000
  C     34.398100    5.561670   69.828000
  H     34.636200    4.555630   69.507300
  H     35.182600    6.110130   69.404900
  H     34.525400    5.640820   70.924600
  S     30.950200   -0.414386   72.637400
  C     31.314800   -0.943748   74.223600
  C     32.383400   -0.275943   74.768900
  C     32.814000    0.833105   73.986600
  C     32.091600    0.910936   72.817400
  H     32.912600   -0.429806   75.711800
  C     33.900900    1.806690   74.409400
  H     34.487500    2.139200   73.546100
  H     34.615500    1.148930   75.006700
  C     33.532400    2.957410   75.362400
  H     32.764100    3.565300   74.939200
  H     34.344600    3.666870   75.377000
  C     33.190100    2.412590   76.753100
  H     33.189600    3.206710   77.479200
  H     33.910500    1.648740   77.012800
  H     32.236800    1.939760   76.837900
  H     31.373500    3.404710   68.608900
  H     30.776800   -1.688150   74.727800

 Total Charge           Charge          ....    0
 Multiplicity           Mult            ....    1
 Number of Electrons    NEL             ....  134
 Basis Dimension        Dim             ....  322

ORBITAL ENERGIES
----------------

  NO   OCC          E(Eh)            E(eV)
   0   2.0000     -88.966235     -2420.8943
   1   2.0000     -88.960395     -2420.7354
   2   2.0000     -10.327090      -281.0144
   3   2.0000     -10.322966      -280.9022
   4   2.0000     -10.312853      -280.6270
   5   2.0000     -10.305237      -280.4197
   6   2.0000     -10.300700      -280.2963
   7   2.0000     -10.299041      -280.2511
   8   2.0000     -10.298394      -280.2336
   9   2.0000     -10.297918      -280.2206
  10   2.0000     -10.292988      -280.0864
  11   2.0000     -10.291777      -280.0535
  12   2.0000     -10.287436      -279.9354
  13   2.0000     -10.286905      -279.9209
  14   2.0000     -10.275619      -279.6138
  15   2.0000     -10.273806      -279.5645
  16   2.0000      -8.081658      -219.9131
  17   2.0000      -8.075937      -219.7574
  18   2.0000      -6.040081      -164.3590
  19   2.0000      -6.036073      -164.2499
  20   2.0000      -6.034525      -164.2078
  21   2.0000      -6.032442      -164.1511
  22   2.0000      -6.030440      -164.0966
  23   2.0000      -6.026473      -163.9887
  24   2.0000      -1.009424       -27.4678
  25   2.0000      -0.985775       -26.8243
  26   2.0000      -0.914984       -24.8980
  27   2.0000      -0.913058       -24.8456
  28   2.0000      -0.867409       -23.6034
  29   2.0000      -0.854176       -23.2433
  30   2.0000      -0.837882       -22.7999
  31   2.0000      -0.813243       -22.1295
  32   2.0000      -0.786775       -21.4092
  33   2.0000      -0.775576       -21.1045
  34   2.0000      -0.713828       -19.4242
  35   2.0000      -0.705901       -19.2085
  36   2.0000      -0.694023       -18.8853
  37   2.0000      -0.668274       -18.1847
  38   2.0000      -0.635768       -17.3001
  39   2.0000      -0.606486       -16.5033
  40   2.0000      -0.598306       -16.2807
  41   2.0000      -0.575035       -15.6475
  42   2.0000      -0.558172       -15.1886
  43   2.0000      -0.556223       -15.1356
  44   2.0000      -0.549193       -14.9443
  45   2.0000      -0.532599       -14.4928
  46   2.0000      -0.512719       -13.9518
  47   2.0000      -0.505157       -13.7460
  48   2.0000      -0.502860       -13.6835
  49   2.0000      -0.498825       -13.5737
  50   2.0000      -0.487375       -13.2622
  51   2.0000      -0.479222       -13.0403
  52   2.0000      -0.471854       -12.8398
  53   2.0000      -0.467935       -12.7332
  54   2.0000      -0.460242       -12.5238
  55   2.0000      -0.448153       -12.1949
  56   2.0000      -0.446975       -12.1628
  57   2.0000      -0.443934       -12.0801
  58   2.0000      -0.438174       -11.9233
  59   2.0000      -0.431120       -11.7314
  60   2.0000      -0.424557       -11.5528
  61   2.0000      -0.415175       -11.2975
  62   2.0000      -0.406628       -11.0649
  63   2.0000      -0.352673        -9.5967
  64   2.0000      -0.333474        -9.0743
  65   2.0000      -0.323045        -8.7905
  66   2.0000      -0.287546        -7.8245
  67   0.0000       0.031025         0.8442
  68   0.0000       0.072008         1.9594
  69   0.0000       0.105860         2.8806
  70   0.0000       0.127295         3.4639
  71   0.0000       0.130143         3.5414

MULLIKEN ATOMIC CHARGES
-----------------------
   0 S :    0.098585
   1 C :   -0.101705
   2 C :   -0.139410
   3 C :    0.019980
   4 C :   -0.143097
   5 H :    0.008326
   6 C :    0.091815
   7 H :    0.007078
   8 H :    0.045666
   9 C :   -0.073571
  10 H :    0.029316
  11 H :    0.025520
  12 C :   -0.035101
  13 H :    0.031682
  14 H :    0.021522
  15 H :    0.028723
  16 S :    0.125014
  17 C :   -0.063929
  18 C :   -0.015212
  19 C :   -0.041912
  20 C :   -0.149223
  21 H :    0.010245
  22 C :    0.002064
  23 H :    0.040922
  24 H :    0.025315
  25 C :   -0.026251
  26 H :    0.023695
  27 H :    0.022453
  28 C :   -0.029953
  29 H :    0.028485
  30 H :    0.018487
  31 H :    0.036723
  32 H :    0.038131
  33 H :    0.039618
Sum of atomic charges:    0.0000000

LOEWDIN ATOMIC CHARGES
----------------------
   0 S :    0.403650
   1 C :   -0.210034
   2 C :   -0.059218
   3 C :   -0.073897
   4 C :   -0.184099
   5 H :    0.032423
   6 C :   -0.031262
   7 H :    0.025008
   8 H :    0.038499
   9 C :   -0.038559
  10 H :    0.021872
  11 H :    0.022830
  12 C :   -0.062611
  13 H :    0.028829
  14 H :    0.018874
  15 H :    0.027037
  16 S :    0.422854
  17 C :   -0.184829
  18 C :   -0.069807
  19 C :   -0.057395
  20 C :   -0.199051
  21 H :    0.030960
  22 C :   -0.035050
  23 H :    0.033336
  24 H :    0.034876
  25 C :   -0.035303
  26 H :    0.016957
  27 H :    0.025230
  28 C :   -0.058423
  29 H :    0.025522
  30 H :    0.021298
  31 H :    0.025076
  32 H :    0.024548
  33 H :    0.019860

  Mayer bond orders larger than 0.100000
B(  0-S ,  1-C ) :   1.1306 B(  0-S ,  4-C ) :   1.1442 B(  1-C ,  2-C ) :   1.6383
B(  1-C , 32-H ) :   0.9680 B(  2-C ,  3-C ) :   1.2136 B(  2-C ,  6-C ) :   1.0117
B(  3-C ,  4-C ) :   1.6054 B(  3-C ,  5-H ) :   0.9851 B(  4-C , 20-C ) :   1.0277
B(  6-C ,  7-H ) :   0.9379 B(  6-C ,  8-H ) :   0.9400 B(  6-C ,  9-C ) :   1.0816
B(  9-C , 10-H ) :   0.9610 B(  9-C , 11-H ) :   0.9560 B(  9-C , 12-C ) :   1.0562
B( 12-C , 13-H ) :   0.9742 B( 12-C , 14-H ) :   0.9773 B( 12-C , 15-H ) :   0.9790
B( 16-S , 17-C ) :   1.1648 B( 16-S , 20-C ) :   1.1402 B( 17-C , 18-C ) :   1.5722
B( 17-C , 33-H ) :   0.9767 B( 18-C , 19-C ) :   1.2663 B( 18-C , 21-H ) :   0.9824
B( 19-C , 20-C ) :   1.6057 B( 19-C , 22-C ) :   1.0355 B( 22-C , 23-H ) :   0.9352
B( 22-C , 24-H ) :   0.9404 B( 22-C , 25-C ) :   1.0715 B( 25-C , 26-H ) :   0.9464
B( 25-C , 27-H ) :   0.9524 B( 25-C , 28-C ) :   1.0765 B( 28-C , 29-H ) :   0.9704
B( 28-C , 30-H ) :   0.9757 B( 28-C , 31-H ) :   0.9725

Dispersion correction           -0.015074940
FINAL SINGLE POINT ENERGY     -1339.884223893929

DIPOLE MOMENT
-------------
                                X             Y             Z
Electronic contribution:    -13.11802     -22.01623      -9.04109
Nuclear contribution   :     13.40192      22.57498       9.42203
                        -----------------------------------------
Total Dipole Moment    :      0.28390       0.55875       0.38095
                        -----------------------------------------
Magnitude (a.u.)       :      0.73343
Magnitude (Debye)      :      1.86423

Rotational constants in cm-1:     0.020384     0.009056     0.006765
Rotational constants in MHz :   611.093364   271.480884   202.796890

                             ****ORCA TERMINATED NORMALLY****
TOTAL RUN TIME: 0 days 0 hours 0 minutes 31 seconds 445 msec
