                         Program Version 4.2.1 -  RELEASE  -
|  1> ! wB97X-D3 SP def2-SVP
|  2> %pal
|  3> nprocs 16
|  4> end
|  5>
|  6> * xyz 0 1
|  7> S 	 -3.28375 	 -24.1389 	 84.7059
|  8> C 	 -1.85092 	 -24.3357 	 83.7661
|  9> C 	 -0.859929 	 -23.3772 	 84.0351
| 10> C 	 -1.40687 	 -22.3532 	 84.8869
| 11> C 	 -2.63118 	 -22.665 	 85.3679
| 12> H 	 -0.93024 	 -21.439 	 85.305
| 13> C 	 0.567286 	 -23.5194 	 83.6135
| 14> H 	 0.575434 	 -23.3391 	 82.5431
| 15> H 	 0.762456 	 -24.6023 	 83.6168
| 16> C 	 1.59783 	 -22.7751 	 84.5591
| 17> H 	 2.62682 	 -22.7129 	 84.1501
| 18> H 	 1.15218 	 -21.7692 	 84.7252
| 19> C 	 1.48454 	 -23.4283 	 85.9242
| 20> H 	 2.27367 	 -22.9784 	 86.5506
| 21> H 	 0.537761 	 -23.3235 	 86.432
| 22> H 	 1.83551 	 -24.4752 	 85.7343
| 23> S 	 -4.24638 	 -22.8672 	 87.6286
| 24> C 	 -4.8441 	 -21.3587 	 88.2474
| 25> C 	 -4.68065 	 -20.2368 	 87.4496
| 26> C 	 -3.9266 	 -20.6386 	 86.2894
| 27> C 	 -3.44681 	 -21.9399 	 86.346
| 28> H 	 -5.2035 	 -19.298 	 87.754
| 29> C 	 -3.51024 	 -19.6049 	 85.2762
| 30> H 	 -2.50012 	 -19.6613 	 84.9264
| 31> H 	 -3.42957 	 -18.7692 	 85.939
| 32> C 	 -4.40599 	 -19.2825 	 84.1196
| 33> H 	 -4.04104 	 -18.4302 	 83.58
| 34> H 	 -5.50355 	 -19.2103 	 84.4967
| 35> C 	 -4.41683 	 -20.4752 	 83.1563
| 36> H 	 -5.25405 	 -20.3916 	 82.4524
| 37> H 	 -4.47941 	 -21.4482 	 83.6328
| 38> H 	 -3.53009 	 -20.5206 	 82.5621
| 39> H 	 -1.81928 	 -25.1044 	 82.9808
| 40> H 	 -5.5822 	 -21.3296 	 89.0837
| 41> *
| 42>
| 43>                          ****END OF INPUT****

CARTESIAN COORDINATES (ANGSTROEM)
---------------------------------
  S     -3.283750  -24.138900   84.705900
  C     -1.850920  -24.335700   83.766100
  C     -0.859929  -23.377200   84.035100
  C     -1.406870  -22.353200   84.886900
  C     -2.631180  -22.665000   85.367900
  H     -0.930240  -21.439000   85.305000
  C      0.567286  -23.519400   83.613500
  H      0.575434  -23.339100   82.543100
  H      0.762456  -24.602300   83.616800
  C      1.597830  -22.775100   84.559100
  H      2.626820  -22.712900   84.150100
  H      1.152180  -21.769200   84.725200
  C      1.484540  -23.428300   85.924200
  H      2.273670  -22.978400   86.550600
  H      0.537761  -23.323500   86.432000
  H      1.835510  -24.475200   85.734300
  S     -4.246380  -22.867200   87.628600
  C     -4.844100  -21.358700   88.247400
  C     -4.680650  -20.236800   87.449600
  C     -3.926600  -20.638600   86.289400
  C     -3.446810  -21.939900   86.346000
  H     -5.203500  -19.298000   87.754000
  C     -3.510240  -19.604900   85.276200
  H     -2.500120  -19.661300   84.926400
  H     -3.429570  -18.769200   85.939000
  C     -4.405990  -19.282500   84.119600
  H     -4.041040  -18.430200   83.580000
  H     -5.503550  -19.210300   84.496700
  C     -4.416830  -20.475200   83.156300
  H     -5.254050  -20.391600   82.452400
  H     -4.479410  -21.448200   83.632800
  H     -3.530090  -20.520600   82.562100
  H     -1.819280  -25.104400   82.980800
  H     -5.582200  -21.329600   89.083700

 Total Charge           Charge          ....    0
 Multiplicity           Mult            ....    1
 Number of Electrons    NEL             ....  134
 Basis Dimension        Dim             ....  322

ORBITAL ENERGIES
----------------

  NO   OCC          E(Eh)            E(eV)
   0   2.0000     -88.967944     -2420.9408
   1   2.0000     -88.966007     -2420.8881
   2   2.0000     -10.325465      -280.9702
   3   2.0000     -10.324514      -280.9443
   4   2.0000     -10.318626      -280.7841
   5   2.0000     -10.312711      -280.6231
   6   2.0000     -10.305739      -280.4334
   7   2.0000     -10.305473      -280.4262
   8   2.0000     -10.300270      -280.2846
   9   2.0000     -10.296944      -280.1941
  10   2.0000     -10.296250      -280.1752
  11   2.0000     -10.293229      -280.0930
  12   2.0000     -10.285942      -279.8947
  13   2.0000     -10.278757      -279.6992
  14   2.0000     -10.277504      -279.6651
  15   2.0000     -10.261945      -279.2417
  16   2.0000      -8.082678      -219.9409
  17   2.0000      -8.081191      -219.9004
  18   2.0000      -6.041038      -164.3850
  19   2.0000      -6.039529      -164.3439
  20   2.0000      -6.037490      -164.2885
  21   2.0000      -6.035684      -164.2393
  22   2.0000      -6.033301      -164.1745
  23   2.0000      -6.032053      -164.1405
  24   2.0000      -1.009531       -27.4707
  25   2.0000      -0.985584       -26.8191
  26   2.0000      -0.913962       -24.8702
  27   2.0000      -0.912268       -24.8241
  28   2.0000      -0.867613       -23.6089
  29   2.0000      -0.851605       -23.1734
  30   2.0000      -0.845298       -23.0017
  31   2.0000      -0.816972       -22.2309
  32   2.0000      -0.783761       -21.3272
  33   2.0000      -0.765410       -20.8279
  34   2.0000      -0.705559       -19.1992
  35   2.0000      -0.691102       -18.8058
  36   2.0000      -0.683265       -18.5926
  37   2.0000      -0.655092       -17.8260
  38   2.0000      -0.642720       -17.4893
  39   2.0000      -0.625927       -17.0323
  40   2.0000      -0.599034       -16.3005
  41   2.0000      -0.563839       -15.3428
  42   2.0000      -0.555239       -15.1088
  43   2.0000      -0.550815       -14.9884
  44   2.0000      -0.543120       -14.7790
  45   2.0000      -0.534908       -14.5556
  46   2.0000      -0.516665       -14.0592
  47   2.0000      -0.505085       -13.7441
  48   2.0000      -0.497032       -13.5249
  49   2.0000      -0.492042       -13.3891
  50   2.0000      -0.488196       -13.2845
  51   2.0000      -0.470998       -12.8165
  52   2.0000      -0.468031       -12.7358
  53   2.0000      -0.463331       -12.6079
  54   2.0000      -0.461879       -12.5684
  55   2.0000      -0.454175       -12.3587
  56   2.0000      -0.444822       -12.1042
  57   2.0000      -0.436031       -11.8650
  58   2.0000      -0.428118       -11.6497
  59   2.0000      -0.424194       -11.5429
  60   2.0000      -0.420731       -11.4487
  61   2.0000      -0.413230       -11.2445
  62   2.0000      -0.406503       -11.0615
  63   2.0000      -0.348326        -9.4784
  64   2.0000      -0.332985        -9.0610
  65   2.0000      -0.328207        -8.9310
  66   2.0000      -0.285963        -7.7815
  67   0.0000       0.032431         0.8825
  68   0.0000       0.061698         1.6789
  69   0.0000       0.107039         2.9127
  70   0.0000       0.116865         3.1801
  71   0.0000       0.130098         3.5402

MULLIKEN ATOMIC CHARGES
-----------------------
   0 S :    0.115044
   1 C :   -0.134035
   2 C :   -0.107008
   3 C :   -0.004786
   4 C :   -0.161293
   5 H :    0.034469
   6 C :    0.076956
   7 H :    0.034378
   8 H :    0.024247
   9 C :   -0.085600
  10 H :    0.049667
  11 H :    0.034360
  12 C :   -0.069609
  13 H :    0.032658
  14 H :    0.066730
  15 H :    0.032705
  16 S :    0.106327
  17 C :   -0.096725
  18 C :   -0.050284
  19 C :   -0.038351
  20 C :   -0.154181
  21 H :    0.047231
  22 C :    0.073169
  23 H :    0.003531
  24 H :    0.006903
  25 C :   -0.044553
  26 H :    0.030405
  27 H :    0.035719
  28 C :   -0.045160
  29 H :    0.026127
  30 H :    0.029619
  31 H :    0.014373
  32 H :    0.054382
  33 H :    0.062586
Sum of atomic charges:    0.0000000

LOEWDIN ATOMIC CHARGES
----------------------
   0 S :    0.414580
   1 C :   -0.209228
   2 C :   -0.057158
   3 C :   -0.073363
   4 C :   -0.192368
   5 H :    0.039563
   6 C :   -0.041351
   7 H :    0.032418
   8 H :    0.032337
   9 C :   -0.040019
  10 H :    0.032044
  11 H :    0.024155
  12 C :   -0.066856
  13 H :    0.027238
  14 H :    0.029670
  15 H :    0.029029
  16 S :    0.395243
  17 C :   -0.189337
  18 C :   -0.077489
  19 C :   -0.050042
  20 C :   -0.196030
  21 H :    0.047125
  22 C :   -0.039642
  23 H :    0.024514
  24 H :    0.027871
  25 C :   -0.035728
  26 H :    0.024428
  27 H :    0.033073
  28 C :   -0.066825
  29 H :    0.023410
  30 H :    0.021408
  31 H :    0.018241
  32 H :    0.027653
  33 H :    0.031436

  Mayer bond orders larger than 0.100000
B(  0-S ,  1-C ) :   1.1441 B(  0-S ,  4-C ) :   1.1502 B(  1-C ,  2-C ) :   1.6131
B(  1-C , 32-H ) :   0.9681 B(  2-C ,  3-C ) :   1.2168 B(  2-C ,  6-C ) :   0.9971
B(  3-C ,  4-C ) :   1.6174 B(  3-C ,  5-H ) :   0.9800 B(  4-C , 20-C ) :   1.0357
B(  6-C ,  7-H ) :   0.9285 B(  6-C ,  8-H ) :   0.9490 B(  6-C ,  9-C ) :   1.0571
B(  9-C , 10-H ) :   0.9591 B(  9-C , 11-H ) :   0.9532 B(  9-C , 12-C ) :   1.0705
B( 12-C , 13-H ) :   0.9716 B( 12-C , 14-H ) :   0.9703 B( 12-C , 15-H ) :   0.9752
B( 16-S , 17-C ) :   1.1556 B( 16-S , 20-C ) :   1.1205 B( 17-C , 18-C ) :   1.6427
B( 17-C , 33-H ) :   0.9551 B( 18-C , 19-C ) :   1.2157 B( 18-C , 21-H ) :   0.9822
B( 19-C , 20-C ) :   1.6056 B( 19-C , 22-C ) :   1.0214 B( 22-C , 23-H ) :   0.9371
B( 22-C , 24-H ) :   0.9280 B( 22-C , 25-C ) :   1.0834 B( 25-C , 26-H ) :   0.9512
B( 25-C , 27-H ) :   0.9549 B( 25-C , 28-C ) :   1.0749 B( 28-C , 29-H ) :   0.9750
B( 28-C , 30-H ) :   0.9730 B( 28-C , 31-H ) :   0.9729

Dispersion correction           -0.015869579
FINAL SINGLE POINT ENERGY     -1339.863172887264

DIPOLE MOMENT
-------------
                                X             Y             Z
Electronic contribution:    -13.91004     -10.85907      10.43393
Nuclear contribution   :     14.24218      11.20637     -10.62614
                        -----------------------------------------
Total Dipole Moment    :      0.33215       0.34730      -0.19221
                        -----------------------------------------
Magnitude (a.u.)       :      0.51757
Magnitude (Debye)      :      1.31557

Rotational constants in cm-1:     0.019372     0.009414     0.008544
Rotational constants in MHz :   580.762913   282.218158   256.131505

                             ****ORCA TERMINATED NORMALLY****
TOTAL RUN TIME: 0 days 0 hours 0 minutes 36 seconds 261 msec
