                         Program Version 4.2.1 -  RELEASE  -
|  1> ! wB97X-D3 SP def2-SVP
|  2> %pal
|  3> nprocs 16
|  4> end
|  5>
|  6> * xyz 0 1
|  7> S 	 53.9546 	 20.7573 	 47.1377
|  8> C 	 54.3432 	 22.4294 	 47.2539
|  9> C 	 53.495 	 23.103 	 48.1274
| 10> C 	 52.719 	 22.1607 	 48.9177
| 11> C 	 52.8857 	 20.855 	 48.48
| 12> H 	 52.0238 	 22.3977 	 49.7128
| 13> C 	 53.5167 	 24.5616 	 48.2665
| 14> H 	 54.3934 	 25.0703 	 47.9032
| 15> H 	 53.5366 	 24.7454 	 49.3024
| 16> C 	 52.341 	 25.1855 	 47.5865
| 17> H 	 51.4679 	 24.696 	 47.9169
| 18> H 	 52.2856 	 26.2675 	 47.9101
| 19> C 	 52.2725 	 25.1514 	 46.0258
| 20> H 	 51.3079 	 25.4548 	 45.6371
| 21> H 	 53.039 	 25.7873 	 45.5906
| 22> H 	 52.5487 	 24.1788 	 45.7179
| 23> S 	 53.5123 	 18.3191 	 49.3397
| 24> C 	 52.3276 	 17.3279 	 50.1774
| 25> C 	 51.0907 	 17.9364 	 50.0499
| 26> C 	 51.0981 	 19.2706 	 49.4992
| 27> C 	 52.4197 	 19.621 	 49.1302
| 28> H 	 50.2963 	 17.2999 	 50.3584
| 29> C 	 49.8753 	 20.1427 	 49.3908
| 30> H 	 49.8682 	 20.6732 	 48.4619
| 31> H 	 49.9777 	 20.9631 	 50.1607
| 32> C 	 48.4306 	 19.5201 	 49.5418
| 33> H 	 48.2049 	 19.1669 	 50.5576
| 34> H 	 48.4624 	 18.6292 	 49.0016
| 35> C 	 47.2479 	 20.3871 	 49.1476
| 36> H 	 46.2665 	 20.0173 	 49.1974
| 37> H 	 47.3069 	 20.7722 	 48.0909
| 38> H 	 47.131 	 21.1471 	 49.9652
| 39> H 	 54.9985 	 22.9531 	 46.5704
| 40> H 	 52.4404 	 16.3254 	 50.4777
| 41> *
| 42>
| 43>                          ****END OF INPUT****

CARTESIAN COORDINATES (ANGSTROEM)
---------------------------------
  S     53.954600   20.757300   47.137700
  C     54.343200   22.429400   47.253900
  C     53.495000   23.103000   48.127400
  C     52.719000   22.160700   48.917700
  C     52.885700   20.855000   48.480000
  H     52.023800   22.397700   49.712800
  C     53.516700   24.561600   48.266500
  H     54.393400   25.070300   47.903200
  H     53.536600   24.745400   49.302400
  C     52.341000   25.185500   47.586500
  H     51.467900   24.696000   47.916900
  H     52.285600   26.267500   47.910100
  C     52.272500   25.151400   46.025800
  H     51.307900   25.454800   45.637100
  H     53.039000   25.787300   45.590600
  H     52.548700   24.178800   45.717900
  S     53.512300   18.319100   49.339700
  C     52.327600   17.327900   50.177400
  C     51.090700   17.936400   50.049900
  C     51.098100   19.270600   49.499200
  C     52.419700   19.621000   49.130200
  H     50.296300   17.299900   50.358400
  C     49.875300   20.142700   49.390800
  H     49.868200   20.673200   48.461900
  H     49.977700   20.963100   50.160700
  C     48.430600   19.520100   49.541800
  H     48.204900   19.166900   50.557600
  H     48.462400   18.629200   49.001600
  C     47.247900   20.387100   49.147600
  H     46.266500   20.017300   49.197400
  H     47.306900   20.772200   48.090900
  H     47.131000   21.147100   49.965200
  H     54.998500   22.953100   46.570400
  H     52.440400   16.325400   50.477700

 Total Charge           Charge          ....    0
 Multiplicity           Mult            ....    1
 Number of Electrons    NEL             ....  134
 Basis Dimension        Dim             ....  322

ORBITAL ENERGIES
----------------

  NO   OCC          E(Eh)            E(eV)
   0   2.0000     -88.965936     -2420.8862
   1   2.0000     -88.965890     -2420.8850
   2   2.0000     -10.328942      -281.0648
   3   2.0000     -10.327775      -281.0331
   4   2.0000     -10.312658      -280.6217
   5   2.0000     -10.309954      -280.5481
   6   2.0000     -10.309813      -280.5443
   7   2.0000     -10.301275      -280.3119
   8   2.0000     -10.298394      -280.2335
   9   2.0000     -10.298297      -280.2309
  10   2.0000     -10.293168      -280.0913
  11   2.0000     -10.287340      -279.9328
  12   2.0000     -10.283258      -279.8217
  13   2.0000     -10.283213      -279.8205
  14   2.0000     -10.281545      -279.7751
  15   2.0000     -10.272278      -279.5229
  16   2.0000      -8.081730      -219.9150
  17   2.0000      -8.080912      -219.8928
  18   2.0000      -6.040095      -164.3593
  19   2.0000      -6.039394      -164.3403
  20   2.0000      -6.036069      -164.2498
  21   2.0000      -6.035248      -164.2275
  22   2.0000      -6.032601      -164.1554
  23   2.0000      -6.031804      -164.1337
  24   2.0000      -1.010899       -27.5080
  25   2.0000      -0.986885       -26.8545
  26   2.0000      -0.922292       -25.0968
  27   2.0000      -0.905707       -24.6456
  28   2.0000      -0.868336       -23.6286
  29   2.0000      -0.853779       -23.2325
  30   2.0000      -0.844972       -22.9929
  31   2.0000      -0.818864       -22.2824
  32   2.0000      -0.788051       -21.4439
  33   2.0000      -0.774791       -21.0831
  34   2.0000      -0.711867       -19.3709
  35   2.0000      -0.704916       -19.1817
  36   2.0000      -0.692115       -18.8334
  37   2.0000      -0.654046       -17.7975
  38   2.0000      -0.642363       -17.4796
  39   2.0000      -0.625660       -17.0251
  40   2.0000      -0.599966       -16.3259
  41   2.0000      -0.576762       -15.6945
  42   2.0000      -0.568079       -15.4582
  43   2.0000      -0.555208       -15.1080
  44   2.0000      -0.541878       -14.7452
  45   2.0000      -0.524468       -14.2715
  46   2.0000      -0.520536       -14.1645
  47   2.0000      -0.514816       -14.0089
  48   2.0000      -0.505167       -13.7463
  49   2.0000      -0.495077       -13.4717
  50   2.0000      -0.488651       -13.2969
  51   2.0000      -0.483488       -13.1564
  52   2.0000      -0.473188       -12.8761
  53   2.0000      -0.467093       -12.7103
  54   2.0000      -0.460188       -12.5224
  55   2.0000      -0.459026       -12.4907
  56   2.0000      -0.449271       -12.2253
  57   2.0000      -0.445074       -12.1111
  58   2.0000      -0.426184       -11.5971
  59   2.0000      -0.426134       -11.5957
  60   2.0000      -0.424294       -11.5456
  61   2.0000      -0.411150       -11.1880
  62   2.0000      -0.406086       -11.0501
  63   2.0000      -0.350088        -9.5264
  64   2.0000      -0.328850        -8.9485
  65   2.0000      -0.326541        -8.8856
  66   2.0000      -0.290657        -7.9092
  67   0.0000       0.028344         0.7713
  68   0.0000       0.074538         2.0283
  69   0.0000       0.111758         3.0411
  70   0.0000       0.123298         3.3551
  71   0.0000       0.135335         3.6826

MULLIKEN ATOMIC CHARGES
-----------------------
   0 S :    0.119455
   1 C :   -0.116413
   2 C :   -0.123125
   3 C :    0.031770
   4 C :   -0.158340
   5 H :    0.012603
   6 C :    0.127126
   7 H :    0.011007
   8 H :    0.014194
   9 C :   -0.090919
  10 H :    0.013070
  11 H :    0.032226
  12 C :   -0.019517
  13 H :    0.039276
  14 H :    0.016897
  15 H :    0.018233
  16 S :    0.115840
  17 C :   -0.082859
  18 C :   -0.053409
  19 C :   -0.012335
  20 C :   -0.147312
  21 H :    0.011491
  22 C :    0.053204
  23 H :    0.026553
  24 H :    0.044094
  25 C :   -0.055885
  26 H :    0.025509
  27 H :    0.014831
  28 C :   -0.050400
  29 H :    0.018708
  30 H :    0.044181
  31 H :    0.030762
  32 H :    0.046599
  33 H :    0.042883
Sum of atomic charges:    0.0000000

LOEWDIN ATOMIC CHARGES
----------------------
   0 S :    0.427123
   1 C :   -0.208502
   2 C :   -0.055632
   3 C :   -0.061175
   4 C :   -0.199886
   5 H :    0.031033
   6 C :   -0.033120
   7 H :    0.029742
   8 H :    0.030123
   9 C :   -0.035517
  10 H :    0.014510
  11 H :    0.027391
  12 C :   -0.057947
  13 H :    0.027906
  14 H :    0.021422
  15 H :    0.017407
  16 S :    0.424803
  17 C :   -0.186538
  18 C :   -0.068044
  19 C :   -0.055192
  20 C :   -0.213036
  21 H :    0.027045
  22 C :   -0.033529
  23 H :    0.029670
  24 H :    0.037839
  25 C :   -0.040381
  26 H :    0.025980
  27 H :    0.013181
  28 C :   -0.072626
  29 H :    0.021901
  30 H :    0.032424
  31 H :    0.033316
  32 H :    0.025556
  33 H :    0.022752

  Mayer bond orders larger than 0.100000
B(  0-S ,  1-C ) :   1.1399 B(  0-S ,  4-C ) :   1.1692 B(  1-C ,  2-C ) :   1.5963
B(  1-C , 32-H ) :   0.9679 B(  2-C ,  3-C ) :   1.2331 B(  2-C ,  6-C ) :   1.0399
B(  3-C ,  4-C ) :   1.5635 B(  3-C ,  5-H ) :   0.9929 B(  4-C , 20-C ) :   1.0395
B(  6-C ,  7-H ) :   0.9398 B(  6-C ,  8-H ) :   0.9246 B(  6-C ,  9-C ) :   1.0718
B(  9-C , 10-H ) :   0.9582 B(  9-C , 11-H ) :   0.9550 B(  9-C , 12-C ) :   1.0719
B( 12-C , 13-H ) :   0.9756 B( 12-C , 14-H ) :   0.9741 B( 12-C , 15-H ) :   0.9742
B( 16-S , 17-C ) :   1.1503 B( 16-S , 20-C ) :   1.1706 B( 17-C , 18-C ) :   1.6052
B( 17-C , 20-C ) :   0.1003 B( 17-C , 33-H ) :   0.9699 B( 18-C , 19-C ) :   1.2482
B( 18-C , 21-H ) :   0.9925 B( 19-C , 20-C ) :   1.5447 B( 19-C , 22-C ) :   1.0483
B( 22-C , 23-H ) :   0.9272 B( 22-C , 24-H ) :   0.9277 B( 22-C , 25-C ) :   1.0628
B( 25-C , 26-H ) :   0.9495 B( 25-C , 27-H ) :   0.9550 B( 25-C , 28-C ) :   1.0908
B( 28-C , 29-H ) :   0.9703 B( 28-C , 30-H ) :   0.9726 B( 28-C , 31-H ) :   0.9728

Dispersion correction           -0.013987689
FINAL SINGLE POINT ENERGY     -1339.869478452568

DIPOLE MOMENT
-------------
                                X             Y             Z
Electronic contribution:     21.63685     -19.27945       1.44992
Nuclear contribution   :    -22.18757      19.57795      -1.35998
                        -----------------------------------------
Total Dipole Moment    :     -0.55072       0.29850       0.08993
                        -----------------------------------------
Magnitude (a.u.)       :      0.63284
Magnitude (Debye)      :      1.60855

Rotational constants in cm-1:     0.017357     0.008923     0.006372
Rotational constants in MHz :   520.350525   267.505576   191.017792

                             ****ORCA TERMINATED NORMALLY****
TOTAL RUN TIME: 0 days 0 hours 0 minutes 30 seconds 300 msec
