                         Program Version 4.2.1 -  RELEASE  -
|  1> ! wB97X-D3 SP def2-SVP
|  2> %pal
|  3> nprocs 16
|  4> end
|  5>
|  6> * xyz 0 1
|  7> S 	 54.5066 	 27.8739 	 41.9124
|  8> C 	 56.0643 	 28.556 	 42.3459
|  9> C 	 56.8722 	 27.62 	 42.9996
| 10> C 	 56.2331 	 26.3952 	 43.1066
| 11> C 	 54.9347 	 26.3185 	 42.5406
| 12> H 	 56.6148 	 25.4728 	 43.508
| 13> C 	 58.2833 	 27.8082 	 43.457
| 14> H 	 58.8418 	 28.5663 	 42.8706
| 15> H 	 58.7897 	 26.8351 	 43.3835
| 16> C 	 58.4065 	 28.2701 	 44.9109
| 17> H 	 59.522 	 28.3683 	 45.0757
| 18> H 	 57.9425 	 29.2551 	 45.0294
| 19> C 	 57.8221 	 27.2621 	 45.9552
| 20> H 	 56.7805 	 27.5269 	 46.169
| 21> H 	 57.8279 	 26.2761 	 45.4733
| 22> H 	 58.3848 	 27.3159 	 46.8532
| 23> S 	 52.4848 	 25.3367 	 43.2186
| 24> C 	 52.1836 	 23.6673 	 42.9029
| 25> C 	 53.1577 	 23.0887 	 42.1101
| 26> C 	 54.2958 	 23.9297 	 41.9741
| 27> C 	 54.0769 	 25.1765 	 42.491
| 28> H 	 53.0046 	 22.0077 	 41.9826
| 29> C 	 55.558 	 23.4425 	 41.1053
| 30> H 	 56.2051 	 24.3198 	 40.8602
| 31> H 	 55.2833 	 23.0634 	 40.1899
| 32> C 	 56.4504 	 22.4124 	 41.7926
| 33> H 	 55.8643 	 21.6026 	 41.8906
| 34> H 	 56.6538 	 22.7088 	 42.8024
| 35> C 	 57.7815 	 22.1365 	 41.0475
| 36> H 	 57.5207 	 21.835 	 39.9694
| 37> H 	 58.366 	 21.4557 	 41.6139
| 38> H 	 58.4286 	 23.0321 	 40.9701
| 39> H 	 56.4159 	 29.5349 	 42.2039
| 40> H 	 51.2567 	 23.1614 	 43.1578
| 41> *
| 42>
| 43>                          ****END OF INPUT****

CARTESIAN COORDINATES (ANGSTROEM)
---------------------------------
  S     54.506600   27.873900   41.912400
  C     56.064300   28.556000   42.345900
  C     56.872200   27.620000   42.999600
  C     56.233100   26.395200   43.106600
  C     54.934700   26.318500   42.540600
  H     56.614800   25.472800   43.508000
  C     58.283300   27.808200   43.457000
  H     58.841800   28.566300   42.870600
  H     58.789700   26.835100   43.383500
  C     58.406500   28.270100   44.910900
  H     59.522000   28.368300   45.075700
  H     57.942500   29.255100   45.029400
  C     57.822100   27.262100   45.955200
  H     56.780500   27.526900   46.169000
  H     57.827900   26.276100   45.473300
  H     58.384800   27.315900   46.853200
  S     52.484800   25.336700   43.218600
  C     52.183600   23.667300   42.902900
  C     53.157700   23.088700   42.110100
  C     54.295800   23.929700   41.974100
  C     54.076900   25.176500   42.491000
  H     53.004600   22.007700   41.982600
  C     55.558000   23.442500   41.105300
  H     56.205100   24.319800   40.860200
  H     55.283300   23.063400   40.189900
  C     56.450400   22.412400   41.792600
  H     55.864300   21.602600   41.890600
  H     56.653800   22.708800   42.802400
  C     57.781500   22.136500   41.047500
  H     57.520700   21.835000   39.969400
  H     58.366000   21.455700   41.613900
  H     58.428600   23.032100   40.970100
  H     56.415900   29.534900   42.203900
  H     51.256700   23.161400   43.157800

 Total Charge           Charge          ....    0
 Multiplicity           Mult            ....    1
 Number of Electrons    NEL             ....  134
 Basis Dimension        Dim             ....  322

ORBITAL ENERGIES
----------------

  NO   OCC          E(Eh)            E(eV)
   0   2.0000     -88.970032     -2420.9976
   1   2.0000     -88.966415     -2420.8992
   2   2.0000     -10.325804      -280.9794
   3   2.0000     -10.324363      -280.9402
   4   2.0000     -10.316528      -280.7270
   5   2.0000     -10.310877      -280.5732
   6   2.0000     -10.309412      -280.5334
   7   2.0000     -10.296214      -280.1742
   8   2.0000     -10.294790      -280.1355
   9   2.0000     -10.292871      -280.0833
  10   2.0000     -10.290646      -280.0227
  11   2.0000     -10.289447      -279.9901
  12   2.0000     -10.289057      -279.9795
  13   2.0000     -10.285933      -279.8945
  14   2.0000     -10.274532      -279.5842
  15   2.0000     -10.274293      -279.5777
  16   2.0000      -8.084418      -219.9882
  17   2.0000      -8.081842      -219.9181
  18   2.0000      -6.042865      -164.4347
  19   2.0000      -6.040189      -164.3619
  20   2.0000      -6.038767      -164.3232
  21   2.0000      -6.036364      -164.2578
  22   2.0000      -6.035497      -164.2342
  23   2.0000      -6.032610      -164.1557
  24   2.0000      -1.010500       -27.4971
  25   2.0000      -0.986967       -26.8567
  26   2.0000      -0.913674       -24.8623
  27   2.0000      -0.907252       -24.6876
  28   2.0000      -0.869765       -23.6675
  29   2.0000      -0.851343       -23.1662
  30   2.0000      -0.844219       -22.9724
  31   2.0000      -0.810167       -22.0458
  32   2.0000      -0.785089       -21.3634
  33   2.0000      -0.775590       -21.1049
  34   2.0000      -0.708981       -19.2924
  35   2.0000      -0.701503       -19.0889
  36   2.0000      -0.694872       -18.9084
  37   2.0000      -0.660535       -17.9741
  38   2.0000      -0.640188       -17.4204
  39   2.0000      -0.614801       -16.7296
  40   2.0000      -0.595653       -16.2085
  41   2.0000      -0.575305       -15.6548
  42   2.0000      -0.566965       -15.4279
  43   2.0000      -0.548888       -14.9360
  44   2.0000      -0.542641       -14.7660
  45   2.0000      -0.525089       -14.2884
  46   2.0000      -0.515817       -14.0361
  47   2.0000      -0.508767       -13.8442
  48   2.0000      -0.505927       -13.7670
  49   2.0000      -0.496010       -13.4971
  50   2.0000      -0.490609       -13.3501
  51   2.0000      -0.478117       -13.0102
  52   2.0000      -0.473474       -12.8839
  53   2.0000      -0.471727       -12.8363
  54   2.0000      -0.460107       -12.5201
  55   2.0000      -0.445320       -12.1178
  56   2.0000      -0.440527       -11.9873
  57   2.0000      -0.436455       -11.8765
  58   2.0000      -0.435208       -11.8426
  59   2.0000      -0.425177       -11.5697
  60   2.0000      -0.420916       -11.4537
  61   2.0000      -0.416674       -11.3383
  62   2.0000      -0.415321       -11.3015
  63   2.0000      -0.341556        -9.2942
  64   2.0000      -0.337719        -9.1898
  65   2.0000      -0.333122        -9.0647
  66   2.0000      -0.291102        -7.9213
  67   0.0000       0.032620         0.8876
  68   0.0000       0.062914         1.7120
  69   0.0000       0.112791         3.0692
  70   0.0000       0.119267         3.2454
  71   0.0000       0.128114         3.4862

MULLIKEN ATOMIC CHARGES
-----------------------
   0 S :    0.129176
   1 C :   -0.097899
   2 C :   -0.059074
   3 C :    0.028515
   4 C :   -0.178812
   5 H :   -0.000749
   6 C :    0.046463
   7 H :    0.031215
   8 H :    0.029753
   9 C :   -0.106893
  10 H :    0.036795
  11 H :    0.031071
  12 C :   -0.035489
  13 H :    0.045029
  14 H :    0.023659
  15 H :    0.035513
  16 S :    0.118248
  17 C :   -0.107838
  18 C :   -0.042647
  19 C :   -0.008958
  20 C :   -0.172456
  21 H :    0.036106
  22 C :    0.074713
  23 H :    0.026390
  24 H :    0.006745
  25 C :   -0.031701
  26 H :   -0.004142
  27 H :    0.013608
  28 C :   -0.054658
  29 H :    0.043013
  30 H :    0.033569
  31 H :    0.033109
  32 H :    0.020070
  33 H :    0.058558
Sum of atomic charges:   -0.0000000

LOEWDIN ATOMIC CHARGES
----------------------
   0 S :    0.425397
   1 C :   -0.194580
   2 C :   -0.065997
   3 C :   -0.061430
   4 C :   -0.205879
   5 H :    0.025406
   6 C :   -0.034949
   7 H :    0.034689
   8 H :    0.031823
   9 C :   -0.041046
  10 H :    0.026590
  11 H :    0.021440
  12 C :   -0.063803
  13 H :    0.031338
  14 H :    0.023284
  15 H :    0.022520
  16 S :    0.412383
  17 C :   -0.186686
  18 C :   -0.081109
  19 C :   -0.046810
  20 C :   -0.201714
  21 H :    0.038373
  22 C :   -0.014684
  23 H :    0.030938
  24 H :    0.015986
  25 C :   -0.033943
  26 H :    0.005730
  27 H :    0.019153
  28 C :   -0.063173
  29 H :    0.034435
  30 H :    0.022107
  31 H :    0.027427
  32 H :    0.017905
  33 H :    0.028881

  Mayer bond orders larger than 0.100000
B(  0-S ,  1-C ) :   1.1532 B(  0-S ,  4-C ) :   1.1720 B(  1-C ,  2-C ) :   1.5667
B(  1-C ,  4-C ) :   0.1157 B(  1-C , 32-H ) :   0.9717 B(  2-C ,  3-C ) :   1.2815
B(  2-C ,  6-C ) :   1.0228 B(  3-C ,  4-C ) :   1.5293 B(  3-C ,  5-H ) :   0.9963
B(  4-C , 20-C ) :   1.0492 B(  6-C ,  7-H ) :   0.9405 B(  6-C ,  8-H ) :   0.9409
B(  6-C ,  9-C ) :   1.0830 B(  9-C , 10-H ) :   0.9609 B(  9-C , 11-H ) :   0.9571
B(  9-C , 12-C ) :   1.0632 B( 12-C , 13-H ) :   0.9742 B( 12-C , 14-H ) :   0.9772
B( 12-C , 15-H ) :   0.9763 B( 16-S , 17-C ) :   1.1626 B( 16-S , 20-C ) :   1.1371
B( 17-C , 18-C ) :   1.6345 B( 17-C , 33-H ) :   0.9634 B( 18-C , 19-C ) :   1.2158
B( 18-C , 21-H ) :   0.9816 B( 19-C , 20-C ) :   1.6311 B( 19-C , 22-C ) :   1.0213
B( 22-C , 23-H ) :   0.9428 B( 22-C , 24-H ) :   0.9443 B( 22-C , 25-C ) :   1.0569
B( 25-C , 26-H ) :   0.9540 B( 25-C , 27-H ) :   0.9515 B( 25-C , 28-C ) :   1.0835
B( 28-C , 29-H ) :   0.9733 B( 28-C , 30-H ) :   0.9746 B( 28-C , 31-H ) :   0.9749

Dispersion correction           -0.014461604
FINAL SINGLE POINT ENERGY     -1339.872321482636

DIPOLE MOMENT
-------------
                                X             Y             Z
Electronic contribution:    -25.66521       9.52833      -4.45162
Nuclear contribution   :     26.12232      -9.88620       4.53256
                        -----------------------------------------
Total Dipole Moment    :      0.45711      -0.35787       0.08094
                        -----------------------------------------
Magnitude (a.u.)       :      0.58615
Magnitude (Debye)      :      1.48988

Rotational constants in cm-1:     0.016189     0.009543     0.007349
Rotational constants in MHz :   485.329658   286.098445   220.313808

                             ****ORCA TERMINATED NORMALLY****
TOTAL RUN TIME: 0 days 0 hours 0 minutes 30 seconds 372 msec
