                         Program Version 4.2.1 -  RELEASE  -
|  1> ! wB97X-D3 SP def2-SVP
|  2> %pal
|  3> nprocs 16
|  4> end
|  5>
|  6> * xyz 0 1
|  7> S 	 -6.37058 	 46.9657 	 31.3933
|  8> C 	 -4.8581 	 46.1949 	 31.7276
|  9> C 	 -3.88011 	 47.1364 	 31.9476
| 10> C 	 -4.49633 	 48.4592 	 32.1484
| 11> C 	 -5.79106 	 48.5051 	 31.8972
| 12> H 	 -4.07684 	 49.4191 	 32.2989
| 13> C 	 -2.40284 	 46.8863 	 32.155
| 14> H 	 -1.90269 	 47.6102 	 31.5913
| 15> H 	 -2.20396 	 45.9523 	 31.6808
| 16> C 	 -1.83121 	 47.0833 	 33.6088
| 17> H 	 -0.737056 	 47.2016 	 33.6142
| 18> H 	 -2.30578 	 47.9887 	 33.9009
| 19> C 	 -2.3571 	 45.9908 	 34.5633
| 20> H 	 -3.4453 	 45.9239 	 34.3813
| 21> H 	 -1.87392 	 45.0189 	 34.5014
| 22> H 	 -2.15582 	 46.2237 	 35.578
| 23> S 	 -6.38149 	 50.3211 	 29.8874
| 24> C 	 -7.46295 	 51.6526 	 30.2894
| 25> C 	 -7.55685 	 51.9028 	 31.6323
| 26> C 	 -7.01877 	 50.7724 	 32.3727
| 27> C 	 -6.45432 	 49.7865 	 31.5328
| 28> H 	 -7.93946 	 52.8128 	 32.0592
| 29> C 	 -7.10676 	 50.7243 	 33.8715
| 30> H 	 -7.4814 	 49.7142 	 34.1296
| 31> H 	 -7.97728 	 51.3354 	 34.1711
| 32> C 	 -5.74018 	 51.0527 	 34.5984
| 33> H 	 -5.16622 	 50.1403 	 34.6796
| 34> H 	 -5.95567 	 51.4724 	 35.5557
| 35> C 	 -4.85631 	 52.0641 	 33.884
| 36> H 	 -5.42361 	 52.9608 	 33.7618
| 37> H 	 -4.40243 	 51.7289 	 33.0001
| 38> H 	 -4.06845 	 52.3118 	 34.5766
| 39> H 	 -4.68002 	 45.1021 	 31.59
| 40> H 	 -7.93897 	 52.3594 	 29.6067
| 41> *
| 42>
| 43>                          ****END OF INPUT****

CARTESIAN COORDINATES (ANGSTROEM)
---------------------------------
  S     -6.370580   46.965700   31.393300
  C     -4.858100   46.194900   31.727600
  C     -3.880110   47.136400   31.947600
  C     -4.496330   48.459200   32.148400
  C     -5.791060   48.505100   31.897200
  H     -4.076840   49.419100   32.298900
  C     -2.402840   46.886300   32.155000
  H     -1.902690   47.610200   31.591300
  H     -2.203960   45.952300   31.680800
  C     -1.831210   47.083300   33.608800
  H     -0.737056   47.201600   33.614200
  H     -2.305780   47.988700   33.900900
  C     -2.357100   45.990800   34.563300
  H     -3.445300   45.923900   34.381300
  H     -1.873920   45.018900   34.501400
  H     -2.155820   46.223700   35.578000
  S     -6.381490   50.321100   29.887400
  C     -7.462950   51.652600   30.289400
  C     -7.556850   51.902800   31.632300
  C     -7.018770   50.772400   32.372700
  C     -6.454320   49.786500   31.532800
  H     -7.939460   52.812800   32.059200
  C     -7.106760   50.724300   33.871500
  H     -7.481400   49.714200   34.129600
  H     -7.977280   51.335400   34.171100
  C     -5.740180   51.052700   34.598400
  H     -5.166220   50.140300   34.679600
  H     -5.955670   51.472400   35.555700
  C     -4.856310   52.064100   33.884000
  H     -5.423610   52.960800   33.761800
  H     -4.402430   51.728900   33.000100
  H     -4.068450   52.311800   34.576600
  H     -4.680020   45.102100   31.590000
  H     -7.938970   52.359400   29.606700

 Total Charge           Charge          ....    0
 Multiplicity           Mult            ....    1
 Number of Electrons    NEL             ....  134
 Basis Dimension        Dim             ....  322

ORBITAL ENERGIES
----------------

  NO   OCC          E(Eh)            E(eV)
   0   2.0000     -88.967356     -2420.9248
   1   2.0000     -88.961078     -2420.7540
   2   2.0000     -10.324423      -280.9418
   3   2.0000     -10.319344      -280.8036
   4   2.0000     -10.319121      -280.7976
   5   2.0000     -10.315949      -280.7112
   6   2.0000     -10.306285      -280.4483
   7   2.0000     -10.302500      -280.3453
   8   2.0000     -10.292622      -280.0765
   9   2.0000     -10.290955      -280.0311
  10   2.0000     -10.289689      -279.9967
  11   2.0000     -10.288029      -279.9515
  12   2.0000     -10.285666      -279.8872
  13   2.0000     -10.283617      -279.8315
  14   2.0000     -10.272014      -279.5157
  15   2.0000     -10.266683      -279.3706
  16   2.0000      -8.082015      -219.9228
  17   2.0000      -8.077129      -219.7898
  18   2.0000      -6.040558      -164.3719
  19   2.0000      -6.036769      -164.2688
  20   2.0000      -6.035678      -164.2391
  21   2.0000      -6.032512      -164.1530
  22   2.0000      -6.031457      -164.1243
  23   2.0000      -6.027741      -164.0232
  24   2.0000      -1.012526       -27.5522
  25   2.0000      -0.985518       -26.8173
  26   2.0000      -0.910232       -24.7687
  27   2.0000      -0.904763       -24.6199
  28   2.0000      -0.872343       -23.7376
  29   2.0000      -0.848351       -23.0848
  30   2.0000      -0.844933       -22.9918
  31   2.0000      -0.820091       -22.3158
  32   2.0000      -0.784066       -21.3355
  33   2.0000      -0.771020       -20.9805
  34   2.0000      -0.708750       -19.2861
  35   2.0000      -0.699873       -19.0445
  36   2.0000      -0.682622       -18.5751
  37   2.0000      -0.658182       -17.9100
  38   2.0000      -0.651369       -17.7247
  39   2.0000      -0.615498       -16.7486
  40   2.0000      -0.584614       -15.9082
  41   2.0000      -0.573974       -15.6186
  42   2.0000      -0.563863       -15.3435
  43   2.0000      -0.549529       -14.9534
  44   2.0000      -0.543164       -14.7802
  45   2.0000      -0.540436       -14.7060
  46   2.0000      -0.518002       -14.0956
  47   2.0000      -0.514524       -14.0009
  48   2.0000      -0.499116       -13.5816
  49   2.0000      -0.491919       -13.3858
  50   2.0000      -0.483716       -13.1626
  51   2.0000      -0.477358       -12.9896
  52   2.0000      -0.472761       -12.8645
  53   2.0000      -0.465934       -12.6787
  54   2.0000      -0.457607       -12.4521
  55   2.0000      -0.450722       -12.2648
  56   2.0000      -0.446082       -12.1385
  57   2.0000      -0.437919       -11.9164
  58   2.0000      -0.433193       -11.7878
  59   2.0000      -0.425974       -11.5913
  60   2.0000      -0.421631       -11.4732
  61   2.0000      -0.416568       -11.3354
  62   2.0000      -0.411428       -11.1955
  63   2.0000      -0.341409        -9.2902
  64   2.0000      -0.329156        -8.9568
  65   2.0000      -0.320239        -8.7142
  66   2.0000      -0.306346        -8.3361
  67   0.0000       0.042658         1.1608
  68   0.0000       0.058963         1.6045
  69   0.0000       0.105671         2.8755
  70   0.0000       0.117385         3.1942
  71   0.0000       0.130106         3.5404

MULLIKEN ATOMIC CHARGES
-----------------------
   0 S :    0.103819
   1 C :   -0.123003
   2 C :   -0.126370
   3 C :    0.043665
   4 C :   -0.138167
   5 H :   -0.008193
   6 C :    0.116935
   7 H :    0.011398
   8 H :    0.007319
   9 C :   -0.055163
  10 H :    0.039865
  11 H :    0.019007
  12 C :   -0.050091
  13 H :    0.045433
  14 H :    0.024869
  15 H :    0.019970
  16 S :    0.128803
  17 C :   -0.089852
  18 C :   -0.022924
  19 C :   -0.093834
  20 C :   -0.184647
  21 H :    0.019478
  22 C :    0.080747
  23 H :    0.035671
  24 H :    0.018439
  25 C :   -0.066140
  26 H :    0.032452
  27 H :    0.023899
  28 C :   -0.008194
  29 H :    0.015551
  30 H :    0.031031
  31 H :    0.024063
  32 H :    0.069091
  33 H :    0.055071
Sum of atomic charges:   -0.0000000

LOEWDIN ATOMIC CHARGES
----------------------
   0 S :    0.415475
   1 C :   -0.200890
   2 C :   -0.061807
   3 C :   -0.059978
   4 C :   -0.209853
   5 H :    0.025012
   6 C :   -0.027428
   7 H :    0.026398
   8 H :    0.022886
   9 C :   -0.028687
  10 H :    0.026365
  11 H :    0.020379
  12 C :   -0.068872
  13 H :    0.032079
  14 H :    0.022960
  15 H :    0.019145
  16 S :    0.409870
  17 C :   -0.180903
  18 C :   -0.068423
  19 C :   -0.052712
  20 C :   -0.211690
  21 H :    0.031192
  22 C :   -0.040885
  23 H :    0.037825
  24 H :    0.029807
  25 C :   -0.030238
  26 H :    0.022774
  27 H :    0.022275
  28 C :   -0.056789
  29 H :    0.021627
  30 H :    0.014868
  31 H :    0.027434
  32 H :    0.040012
  33 H :    0.030772

  Mayer bond orders larger than 0.100000
B(  0-S ,  1-C ) :   1.1441 B(  0-S ,  4-C ) :   1.1391 B(  1-C ,  2-C ) :   1.6223
B(  1-C , 32-H ) :   0.9636 B(  2-C ,  3-C ) :   1.1824 B(  2-C ,  6-C ) :   1.0419
B(  3-C ,  4-C ) :   1.6433 B(  3-C ,  5-H ) :   0.9912 B(  4-C , 20-C ) :   0.9998
B(  6-C ,  7-H ) :   0.9269 B(  6-C ,  8-H ) :   0.9402 B(  6-C ,  9-C ) :   1.0585
B(  9-C , 10-H ) :   0.9585 B(  9-C , 11-H ) :   0.9555 B(  9-C , 12-C ) :   1.0752
B( 12-C , 13-H ) :   0.9747 B( 12-C , 14-H ) :   0.9761 B( 12-C , 15-H ) :   0.9740
B( 16-S , 17-C ) :   1.1476 B( 16-S , 20-C ) :   1.1412 B( 17-C , 18-C ) :   1.6311
B( 17-C , 33-H ) :   0.9629 B( 18-C , 19-C ) :   1.2316 B( 18-C , 21-H ) :   0.9889
B( 19-C , 20-C ) :   1.6030 B( 19-C , 22-C ) :   1.0505 B( 22-C , 23-H ) :   0.9356
B( 22-C , 24-H ) :   0.9371 B( 22-C , 25-C ) :   1.0442 B( 25-C , 26-H ) :   0.9540
B( 25-C , 27-H ) :   0.9563 B( 25-C , 28-C ) :   1.1075 B( 28-C , 29-H ) :   0.9720
B( 28-C , 30-H ) :   0.9641 B( 28-C , 31-H ) :   0.9693

Dispersion correction           -0.015920778
FINAL SINGLE POINT ENERGY     -1339.861529889808

DIPOLE MOMENT
-------------
                                X             Y             Z
Electronic contribution:    -15.98824      -2.33594     -20.44259
Nuclear contribution   :     16.40771       2.62424      20.77514
                        -----------------------------------------
Total Dipole Moment    :      0.41946       0.28830       0.33255
                        -----------------------------------------
Magnitude (a.u.)       :      0.60799
Magnitude (Debye)      :      1.54539

Rotational constants in cm-1:     0.020495     0.009331     0.007556
Rotational constants in MHz :   614.430628   279.732307   226.526505

                             ****ORCA TERMINATED NORMALLY****
TOTAL RUN TIME: 0 days 0 hours 0 minutes 36 seconds 188 msec
