                         Program Version 4.2.1 -  RELEASE  -
|  1> ! wB97X-D3 SP def2-SVP
|  2> %pal
|  3> nprocs 16
|  4> end
|  5>
|  6> * xyz 0 1
|  7> S 	 59.4362 	 -7.19917 	 88.0051
|  8> C 	 60.4236 	 -5.76453 	 88.2815
|  9> C 	 60.8788 	 -5.27673 	 87.0951
| 10> C 	 60.2485 	 -5.83532 	 85.929
| 11> C 	 59.3486 	 -6.91088 	 86.2427
| 12> H 	 60.3799 	 -5.61066 	 84.868
| 13> C 	 61.98 	 -4.26201 	 86.8634
| 14> H 	 62.6228 	 -4.43148 	 86.0304
| 15> H 	 62.708 	 -4.36155 	 87.6968
| 16> C 	 61.6283 	 -2.80566 	 86.7655
| 17> H 	 62.5238 	 -2.173 	 86.4511
| 18> H 	 60.951 	 -2.61796 	 85.9303
| 19> C 	 61.0657 	 -2.18788 	 88.116
| 20> H 	 61.6621 	 -2.39108 	 89.0134
| 21> H 	 61.0333 	 -1.14145 	 88.1032
| 22> H 	 60.0483 	 -2.56017 	 88.3868
| 23> S 	 57.0635 	 -8.51655 	 85.7894
| 24> C 	 56.8608 	 -9.44841 	 84.3371
| 25> C 	 57.9183 	 -9.0588 	 83.5284
| 26> C 	 58.9944 	 -8.31936 	 84.1095
| 27> C 	 58.6176 	 -7.89465 	 85.4273
| 28> H 	 57.924 	 -9.57418 	 82.5841
| 29> C 	 60.384 	 -8.09391 	 83.4738
| 30> H 	 61.2014 	 -7.89397 	 84.1901
| 31> H 	 60.3324 	 -7.16059 	 82.9807
| 32> C 	 60.971 	 -9.22496 	 82.5122
| 33> H 	 61.9076 	 -8.8201 	 81.971
| 34> H 	 60.1955 	 -9.40109 	 81.6912
| 35> C 	 61.3951 	 -10.4917 	 83.2246
| 36> H 	 62.3365 	 -10.3391 	 83.836
| 37> H 	 61.6991 	 -11.281 	 82.5112
| 38> H 	 60.8043 	 -10.9691 	 83.9021
| 39> H 	 60.8646 	 -5.53227 	 89.236
| 40> H 	 56.0996 	 -10.1175 	 84.098
| 41> *
| 42>
| 43>                          ****END OF INPUT****

CARTESIAN COORDINATES (ANGSTROEM)
---------------------------------
  S     59.436200   -7.199170   88.005100
  C     60.423600   -5.764530   88.281500
  C     60.878800   -5.276730   87.095100
  C     60.248500   -5.835320   85.929000
  C     59.348600   -6.910880   86.242700
  H     60.379900   -5.610660   84.868000
  C     61.980000   -4.262010   86.863400
  H     62.622800   -4.431480   86.030400
  H     62.708000   -4.361550   87.696800
  C     61.628300   -2.805660   86.765500
  H     62.523800   -2.173000   86.451100
  H     60.951000   -2.617960   85.930300
  C     61.065700   -2.187880   88.116000
  H     61.662100   -2.391080   89.013400
  H     61.033300   -1.141450   88.103200
  H     60.048300   -2.560170   88.386800
  S     57.063500   -8.516550   85.789400
  C     56.860800   -9.448410   84.337100
  C     57.918300   -9.058800   83.528400
  C     58.994400   -8.319360   84.109500
  C     58.617600   -7.894650   85.427300
  H     57.924000   -9.574180   82.584100
  C     60.384000   -8.093910   83.473800
  H     61.201400   -7.893970   84.190100
  H     60.332400   -7.160590   82.980700
  C     60.971000   -9.224960   82.512200
  H     61.907600   -8.820100   81.971000
  H     60.195500   -9.401090   81.691200
  C     61.395100  -10.491700   83.224600
  H     62.336500  -10.339100   83.836000
  H     61.699100  -11.281000   82.511200
  H     60.804300  -10.969100   83.902100
  H     60.864600   -5.532270   89.236000
  H     56.099600  -10.117500   84.098000

 Total Charge           Charge          ....    0
 Multiplicity           Mult            ....    1
 Number of Electrons    NEL             ....  134
 Basis Dimension        Dim             ....  322

ORBITAL ENERGIES
----------------

  NO   OCC          E(Eh)            E(eV)
   0   2.0000     -88.967558     -2420.9303
   1   2.0000     -88.964815     -2420.8557
   2   2.0000     -10.341975      -281.4195
   3   2.0000     -10.333033      -281.1761
   4   2.0000     -10.317937      -280.7653
   5   2.0000     -10.316275      -280.7201
   6   2.0000     -10.313087      -280.6334
   7   2.0000     -10.305969      -280.4397
   8   2.0000     -10.305840      -280.4362
   9   2.0000     -10.305114      -280.4164
  10   2.0000     -10.298279      -280.2304
  11   2.0000     -10.295581      -280.1570
  12   2.0000     -10.294455      -280.1264
  13   2.0000     -10.290377      -280.0154
  14   2.0000     -10.276341      -279.6334
  15   2.0000     -10.274399      -279.5806
  16   2.0000      -8.082768      -219.9433
  17   2.0000      -8.078876      -219.8374
  18   2.0000      -6.041205      -164.3896
  19   2.0000      -6.037433      -164.2869
  20   2.0000      -6.036861      -164.2713
  21   2.0000      -6.033877      -164.1901
  22   2.0000      -6.033496      -164.1798
  23   2.0000      -6.029589      -164.0734
  24   2.0000      -1.006010       -27.3749
  25   2.0000      -0.983672       -26.7671
  26   2.0000      -0.909562       -24.7504
  27   2.0000      -0.900656       -24.5081
  28   2.0000      -0.869446       -23.6588
  29   2.0000      -0.847957       -23.0741
  30   2.0000      -0.838138       -22.8069
  31   2.0000      -0.814650       -22.1678
  32   2.0000      -0.786935       -21.4136
  33   2.0000      -0.779851       -21.2208
  34   2.0000      -0.710713       -19.3395
  35   2.0000      -0.701515       -19.0892
  36   2.0000      -0.697148       -18.9704
  37   2.0000      -0.652418       -17.7532
  38   2.0000      -0.641412       -17.4537
  39   2.0000      -0.619974       -16.8703
  40   2.0000      -0.600714       -16.3463
  41   2.0000      -0.574840       -15.6422
  42   2.0000      -0.549732       -14.9590
  43   2.0000      -0.547164       -14.8891
  44   2.0000      -0.535862       -14.5816
  45   2.0000      -0.534102       -14.5337
  46   2.0000      -0.525002       -14.2860
  47   2.0000      -0.509531       -13.8650
  48   2.0000      -0.507375       -13.8064
  49   2.0000      -0.498369       -13.5613
  50   2.0000      -0.491836       -13.3835
  51   2.0000      -0.477741       -13.0000
  52   2.0000      -0.471426       -12.8282
  53   2.0000      -0.469341       -12.7714
  54   2.0000      -0.458367       -12.4728
  55   2.0000      -0.448104       -12.1935
  56   2.0000      -0.442946       -12.0532
  57   2.0000      -0.433653       -11.8003
  58   2.0000      -0.432535       -11.7699
  59   2.0000      -0.419777       -11.4227
  60   2.0000      -0.411887       -11.2080
  61   2.0000      -0.411023       -11.1845
  62   2.0000      -0.408549       -11.1172
  63   2.0000      -0.353814        -9.6278
  64   2.0000      -0.330473        -8.9926
  65   2.0000      -0.328370        -8.9354
  66   2.0000      -0.289789        -7.8856
  67   0.0000       0.015894         0.4325
  68   0.0000       0.076934         2.0935
  69   0.0000       0.102370         2.7856
  70   0.0000       0.125761         3.4221
  71   0.0000       0.135203         3.6791

MULLIKEN ATOMIC CHARGES
-----------------------
   0 S :    0.086167
   1 C :   -0.094600
   2 C :   -0.073551
   3 C :    0.025804
   4 C :   -0.156760
   5 H :    0.017770
   6 C :    0.070183
   7 H :    0.017765
   8 H :    0.017751
   9 C :   -0.082644
  10 H :    0.034619
  11 H :    0.027759
  12 C :   -0.058079
  13 H :    0.018956
  14 H :    0.021268
  15 H :    0.043918
  16 S :    0.118023
  17 C :   -0.087253
  18 C :   -0.040235
  19 C :   -0.041573
  20 C :   -0.122899
  21 H :    0.015053
  22 C :    0.048576
  23 H :    0.036551
  24 H :    0.031215
  25 C :   -0.103138
  26 H :    0.045167
  27 H :    0.043029
  28 C :   -0.032270
  29 H :    0.025900
  30 H :    0.032516
  31 H :    0.019536
  32 H :    0.049498
  33 H :    0.045978
Sum of atomic charges:   -0.0000000

LOEWDIN ATOMIC CHARGES
----------------------
   0 S :    0.387320
   1 C :   -0.187381
   2 C :   -0.062853
   3 C :   -0.060149
   4 C :   -0.171251
   5 H :    0.033025
   6 C :   -0.037879
   7 H :    0.029996
   8 H :    0.031943
   9 C :   -0.040982
  10 H :    0.031386
  11 H :    0.022401
  12 C :   -0.072701
  13 H :    0.023112
  14 H :    0.017073
  15 H :    0.030628
  16 S :    0.437130
  17 C :   -0.184046
  18 C :   -0.073499
  19 C :   -0.054808
  20 C :   -0.225085
  21 H :    0.025730
  22 C :   -0.036774
  23 H :    0.035727
  24 H :    0.025052
  25 C :   -0.045333
  26 H :    0.037761
  27 H :    0.025847
  28 C :   -0.071985
  29 H :    0.033371
  30 H :    0.032061
  31 H :    0.011612
  32 H :    0.029156
  33 H :    0.024394

  Mayer bond orders larger than 0.100000
B(  0-S ,  1-C ) :   1.1305 B(  0-S ,  4-C ) :   1.1598 B(  1-C ,  2-C ) :   1.6204
B(  1-C , 32-H ) :   0.9679 B(  2-C ,  3-C ) :   1.2266 B(  2-C ,  6-C ) :   1.0182
B(  3-C ,  4-C ) :   1.5497 B(  3-C ,  5-H ) :   0.9936 B(  4-C , 20-C ) :   1.0579
B(  6-C ,  7-H ) :   0.9413 B(  6-C ,  8-H ) :   0.9398 B(  6-C ,  9-C ) :   1.0844
B(  9-C , 10-H ) :   0.9539 B(  9-C , 11-H ) :   0.9539 B(  9-C , 12-C ) :   1.0661
B( 12-C , 13-H ) :   0.9764 B( 12-C , 14-H ) :   0.9772 B( 12-C , 15-H ) :   0.9757
B( 16-S , 17-C ) :   1.1653 B( 16-S , 20-C ) :   1.1781 B( 17-C , 18-C ) :   1.5606
B( 17-C , 20-C ) :   0.1088 B( 17-C , 33-H ) :   0.9820 B( 18-C , 19-C ) :   1.2951
B( 18-C , 21-H ) :   0.9839 B( 19-C , 20-C ) :   1.5000 B( 19-C , 22-C ) :   1.0240
B( 22-C , 23-H ) :   0.9416 B( 22-C , 24-H ) :   0.9280 B( 22-C , 25-C ) :   1.0667
B( 25-C , 26-H ) :   0.9536 B( 25-C , 27-H ) :   0.9554 B( 25-C , 28-C ) :   1.0715
B( 28-C , 29-H ) :   0.9689 B( 28-C , 30-H ) :   0.9721 B( 28-C , 31-H ) :   0.9806

Dispersion correction           -0.014146878
FINAL SINGLE POINT ENERGY     -1339.855226155944

DIPOLE MOMENT
-------------
                                X             Y             Z
Electronic contribution:    -19.80541     -10.11433       9.52583
Nuclear contribution   :     20.37871      10.16556     -10.02334
                        -----------------------------------------
Total Dipole Moment    :      0.57330       0.05123      -0.49751
                        -----------------------------------------
Magnitude (a.u.)       :      0.76080
Magnitude (Debye)      :      1.93379

Rotational constants in cm-1:     0.020889     0.007654     0.006373
Rotational constants in MHz :   626.227156   229.450375   191.058718

                             ****ORCA TERMINATED NORMALLY****
TOTAL RUN TIME: 0 days 0 hours 0 minutes 29 seconds 722 msec
