                         Program Version 4.2.1 -  RELEASE  -
|  1> ! wB97X-D3 SP def2-SVP
|  2> %pal
|  3> nprocs 16
|  4> end
|  5>
|  6> * xyz 0 1
|  7> S 	 -2.50679 	 -16.0852 	 83.8014
|  8> C 	 -3.65997 	 -17.1402 	 84.6504
|  9> C 	 -4.93361 	 -17.0298 	 84.1173
| 10> C 	 -4.98008 	 -15.8882 	 83.2136
| 11> C 	 -3.73422 	 -15.4145 	 82.8185
| 12> H 	 -5.90474 	 -15.4258 	 82.9266
| 13> C 	 -6.15261 	 -17.7964 	 84.5569
| 14> H 	 -6.95549 	 -17.4897 	 83.9227
| 15> H 	 -6.43502 	 -17.4547 	 85.536
| 16> C 	 -6.00393 	 -19.2996 	 84.5557
| 17> H 	 -5.04482 	 -19.5786 	 85.0715
| 18> H 	 -6.84042 	 -19.6345 	 85.1334
| 19> C 	 -6.0403 	 -19.9767 	 83.1387
| 20> H 	 -6.77011 	 -19.484 	 82.4793
| 21> H 	 -5.0581 	 -20.081 	 82.7207
| 22> H 	 -6.32 	 -21.0368 	 83.2931
| 23> S 	 -3.24475 	 -12.6991 	 82.5424
| 24> C 	 -3.0161 	 -12.034 	 80.9653
| 25> C 	 -3.28693 	 -12.9529 	 80.013
| 26> C 	 -3.4608 	 -14.237 	 80.5056
| 27> C 	 -3.46961 	 -14.257 	 81.8851
| 28> H 	 -3.21829 	 -12.7945 	 78.9376
| 29> C 	 -3.64714 	 -15.5184 	 79.7927
| 30> H 	 -4.61238 	 -15.3786 	 79.3247
| 31> H 	 -3.71556 	 -16.3001 	 80.4976
| 32> C 	 -2.61038 	 -15.9137 	 78.6726
| 33> H 	 -1.70722 	 -15.6782 	 79.1646
| 34> H 	 -2.69032 	 -15.2873 	 77.7972
| 35> C 	 -2.6022 	 -17.4507 	 78.2534
| 36> H 	 -1.68305 	 -17.6829 	 77.7796
| 37> H 	 -3.45923 	 -17.674 	 77.6256
| 38> H 	 -2.63347 	 -18.0059 	 79.181
| 39> H 	 -3.39649 	 -17.8781 	 85.3475
| 40> H 	 -2.63451 	 -11.0635 	 80.7109
| 41> *
| 42>
| 43>                          ****END OF INPUT****

CARTESIAN COORDINATES (ANGSTROEM)
---------------------------------
  S     -2.506790  -16.085200   83.801400
  C     -3.659970  -17.140200   84.650400
  C     -4.933610  -17.029800   84.117300
  C     -4.980080  -15.888200   83.213600
  C     -3.734220  -15.414500   82.818500
  H     -5.904740  -15.425800   82.926600
  C     -6.152610  -17.796400   84.556900
  H     -6.955490  -17.489700   83.922700
  H     -6.435020  -17.454700   85.536000
  C     -6.003930  -19.299600   84.555700
  H     -5.044820  -19.578600   85.071500
  H     -6.840420  -19.634500   85.133400
  C     -6.040300  -19.976700   83.138700
  H     -6.770110  -19.484000   82.479300
  H     -5.058100  -20.081000   82.720700
  H     -6.320000  -21.036800   83.293100
  S     -3.244750  -12.699100   82.542400
  C     -3.016100  -12.034000   80.965300
  C     -3.286930  -12.952900   80.013000
  C     -3.460800  -14.237000   80.505600
  C     -3.469610  -14.257000   81.885100
  H     -3.218290  -12.794500   78.937600
  C     -3.647140  -15.518400   79.792700
  H     -4.612380  -15.378600   79.324700
  H     -3.715560  -16.300100   80.497600
  C     -2.610380  -15.913700   78.672600
  H     -1.707220  -15.678200   79.164600
  H     -2.690320  -15.287300   77.797200
  C     -2.602200  -17.450700   78.253400
  H     -1.683050  -17.682900   77.779600
  H     -3.459230  -17.674000   77.625600
  H     -2.633470  -18.005900   79.181000
  H     -3.396490  -17.878100   85.347500
  H     -2.634510  -11.063500   80.710900

 Total Charge           Charge          ....    0
 Multiplicity           Mult            ....    1
 Number of Electrons    NEL             ....  134
 Basis Dimension        Dim             ....  322

ORBITAL ENERGIES
----------------

  NO   OCC          E(Eh)            E(eV)
   0   2.0000     -88.965357     -2420.8704
   1   2.0000     -88.963310     -2420.8147
   2   2.0000     -10.327941      -281.0376
   3   2.0000     -10.317414      -280.7511
   4   2.0000     -10.311145      -280.5805
   5   2.0000     -10.310036      -280.5503
   6   2.0000     -10.300880      -280.3012
   7   2.0000     -10.293835      -280.1095
   8   2.0000     -10.290802      -280.0270
   9   2.0000     -10.290327      -280.0140
  10   2.0000     -10.287247      -279.9302
  11   2.0000     -10.285113      -279.8722
  12   2.0000     -10.282083      -279.7897
  13   2.0000     -10.280828      -279.7556
  14   2.0000     -10.279212      -279.7116
  15   2.0000     -10.275968      -279.6233
  16   2.0000      -8.080131      -219.8715
  17   2.0000      -8.079200      -219.8462
  18   2.0000      -6.038603      -164.3187
  19   2.0000      -6.037529      -164.2895
  20   2.0000      -6.034580      -164.2093
  21   2.0000      -6.033517      -164.1804
  22   2.0000      -6.030978      -164.1113
  23   2.0000      -6.030118      -164.0879
  24   2.0000      -1.012773       -27.5590
  25   2.0000      -0.987895       -26.8820
  26   2.0000      -0.915354       -24.9081
  27   2.0000      -0.904197       -24.6045
  28   2.0000      -0.864500       -23.5242
  29   2.0000      -0.849522       -23.1167
  30   2.0000      -0.843165       -22.9437
  31   2.0000      -0.814051       -22.1514
  32   2.0000      -0.786491       -21.4015
  33   2.0000      -0.772596       -21.0234
  34   2.0000      -0.706981       -19.2379
  35   2.0000      -0.704163       -19.1612
  36   2.0000      -0.694750       -18.9051
  37   2.0000      -0.656126       -17.8541
  38   2.0000      -0.640601       -17.4316
  39   2.0000      -0.609465       -16.5844
  40   2.0000      -0.596687       -16.2367
  41   2.0000      -0.580577       -15.7983
  42   2.0000      -0.566336       -15.4108
  43   2.0000      -0.555512       -15.1163
  44   2.0000      -0.540657       -14.7120
  45   2.0000      -0.521803       -14.1990
  46   2.0000      -0.519718       -14.1422
  47   2.0000      -0.514542       -14.0014
  48   2.0000      -0.505137       -13.7455
  49   2.0000      -0.493903       -13.4398
  50   2.0000      -0.484929       -13.1956
  51   2.0000      -0.475629       -12.9425
  52   2.0000      -0.474904       -12.9228
  53   2.0000      -0.466048       -12.6818
  54   2.0000      -0.462688       -12.5904
  55   2.0000      -0.449526       -12.2322
  56   2.0000      -0.444117       -12.0850
  57   2.0000      -0.437247       -11.8981
  58   2.0000      -0.430373       -11.7110
  59   2.0000      -0.424674       -11.5560
  60   2.0000      -0.423771       -11.5314
  61   2.0000      -0.418182       -11.3793
  62   2.0000      -0.416771       -11.3409
  63   2.0000      -0.337652        -9.1880
  64   2.0000      -0.325106        -8.8466
  65   2.0000      -0.318902        -8.6778
  66   2.0000      -0.308255        -8.3880
  67   0.0000       0.044652         1.2151
  68   0.0000       0.063261         1.7214
  69   0.0000       0.120185         3.2704
  70   0.0000       0.124213         3.3800
  71   0.0000       0.130468         3.5502

MULLIKEN ATOMIC CHARGES
-----------------------
   0 S :    0.116344
   1 C :   -0.113132
   2 C :   -0.110369
   3 C :    0.046894
   4 C :   -0.184486
   5 H :    0.009818
   6 C :    0.100980
   7 H :    0.004148
   8 H :    0.034204
   9 C :   -0.089589
  10 H :    0.034802
  11 H :    0.025974
  12 C :   -0.048347
  13 H :    0.040317
  14 H :    0.038004
  15 H :    0.032280
  16 S :    0.130577
  17 C :   -0.082006
  18 C :   -0.025495
  19 C :   -0.044574
  20 C :   -0.187439
  21 H :    0.011589
  22 C :    0.116731
  23 H :    0.023105
  24 H :    0.016666
  25 C :   -0.094446
  26 H :    0.020923
  27 H :    0.026474
  28 C :   -0.031324
  29 H :    0.032234
  30 H :    0.040114
  31 H :    0.029407
  32 H :    0.030932
  33 H :    0.048690
Sum of atomic charges:   -0.0000000

LOEWDIN ATOMIC CHARGES
----------------------
   0 S :    0.414279
   1 C :   -0.184698
   2 C :   -0.058358
   3 C :   -0.057926
   4 C :   -0.215099
   5 H :    0.026716
   6 C :   -0.031641
   7 H :    0.024529
   8 H :    0.034339
   9 C :   -0.037878
  10 H :    0.028143
  11 H :    0.021702
  12 C :   -0.065459
  13 H :    0.027120
  14 H :    0.025146
  15 H :    0.030528
  16 S :    0.436696
  17 C :   -0.187799
  18 C :   -0.074617
  19 C :   -0.059843
  20 C :   -0.221820
  21 H :    0.032658
  22 C :   -0.025404
  23 H :    0.031958
  24 H :    0.023764
  25 C :   -0.033040
  26 H :    0.016882
  27 H :    0.017042
  28 C :   -0.055638
  29 H :    0.022890
  30 H :    0.025634
  31 H :    0.025649
  32 H :    0.014380
  33 H :    0.029166

  Mayer bond orders larger than 0.100000
B(  0-S ,  1-C ) :   1.1367 B(  0-S ,  4-C ) :   1.1686 B(  1-C ,  2-C ) :   1.6138
B(  1-C , 32-H ) :   0.9731 B(  2-C ,  3-C ) :   1.2373 B(  2-C ,  6-C ) :   1.0155
B(  3-C ,  4-C ) :   1.5825 B(  3-C ,  5-H ) :   0.9924 B(  4-C , 20-C ) :   0.9684
B(  6-C ,  7-H ) :   0.9364 B(  6-C ,  8-H ) :   0.9335 B(  6-C ,  9-C ) :   1.0846
B(  9-C , 10-H ) :   0.9578 B(  9-C , 11-H ) :   0.9556 B(  9-C , 12-C ) :   1.0676
B( 12-C , 13-H ) :   0.9771 B( 12-C , 14-H ) :   0.9769 B( 12-C , 15-H ) :   0.9759
B( 16-S , 17-C ) :   1.1683 B( 16-S , 20-C ) :   1.1700 B( 17-C , 18-C ) :   1.5760
B( 17-C , 33-H ) :   0.9694 B( 18-C , 19-C ) :   1.2833 B( 18-C , 21-H ) :   0.9883
B( 19-C , 20-C ) :   1.5865 B( 19-C , 22-C ) :   1.0537 B( 22-C , 23-H ) :   0.9187
B( 22-C , 24-H ) :   0.9256 B( 22-C , 25-C ) :   1.0476 B( 25-C , 26-H ) :   0.9640
B( 25-C , 27-H ) :   0.9567 B( 25-C , 28-C ) :   1.0836 B( 28-C , 29-H ) :   0.9770
B( 28-C , 30-H ) :   0.9791 B( 28-C , 31-H ) :   0.9761

Dispersion correction           -0.014054386
FINAL SINGLE POINT ENERGY     -1339.874560969882

DIPOLE MOMENT
-------------
                                X             Y             Z
Electronic contribution:      9.39788      23.25715      11.66797
Nuclear contribution   :     -9.78178     -23.63395     -11.86517
                        -----------------------------------------
Total Dipole Moment    :     -0.38390      -0.37680      -0.19720
                        -----------------------------------------
Magnitude (a.u.)       :      0.57292
Magnitude (Debye)      :      1.45626

Rotational constants in cm-1:     0.018161     0.008703     0.006773
Rotational constants in MHz :   544.458592   260.899582   203.037016

                             ****ORCA TERMINATED NORMALLY****
TOTAL RUN TIME: 0 days 0 hours 0 minutes 33 seconds 544 msec
