                         Program Version 4.2.1 -  RELEASE  -
|  1> ! wB97X-D3 SP def2-SVP
|  2> %pal
|  3> nprocs 16
|  4> end
|  5>
|  6> * xyz 0 1
|  7> S 	 -12.3231 	 -8.79764 	 86.6775
|  8> C 	 -13.1667 	 -9.77498 	 85.4899
|  9> C 	 -12.7524 	 -11.0858 	 85.5201
| 10> C 	 -11.6004 	 -11.2237 	 86.3992
| 11> C 	 -11.2284 	 -10.069 	 87.0931
| 12> H 	 -11.0771 	 -12.1034 	 86.5383
| 13> C 	 -13.4937 	 -12.2531 	 84.8205
| 14> H 	 -14.2211 	 -11.7495 	 84.1877
| 15> H 	 -14.0518 	 -12.891 	 85.5263
| 16> C 	 -12.7475 	 -13.1937 	 83.903
| 17> H 	 -12.2185 	 -12.5886 	 83.1759
| 18> H 	 -11.9213 	 -13.6788 	 84.4311
| 19> C 	 -13.6629 	 -14.326 	 83.4294
| 20> H 	 -13.1448 	 -14.9694 	 82.6644
| 21> H 	 -13.9746 	 -14.9215 	 84.2954
| 22> H 	 -14.6071 	 -14.0886 	 82.9395
| 23> S 	 -10.4018 	 -8.69119 	 89.3265
| 24> C 	 -8.70244 	 -8.87961 	 89.8326
| 25> C 	 -8.2039 	 -10.0505 	 89.3052
| 26> C 	 -8.95597 	 -10.6134 	 88.2336
| 27> C 	 -10.1621 	 -9.91933 	 88.0755
| 28> H 	 -7.19096 	 -10.2033 	 89.5999
| 29> C 	 -8.3933 	 -11.6405 	 87.3188
| 30> H 	 -9.10177 	 -12.5146 	 87.2374
| 31> H 	 -7.52289 	 -11.9997 	 87.8386
| 32> C 	 -7.70666 	 -11.1824 	 85.9903
| 33> H 	 -8.38182 	 -10.7538 	 85.2623
| 34> H 	 -7.33517 	 -12.1205 	 85.5537
| 35> C 	 -6.48552 	 -10.2517 	 86.1933
| 36> H 	 -6.72506 	 -9.3095 	 86.6503
| 37> H 	 -6.15358 	 -9.93268 	 85.281
| 38> H 	 -5.55793 	 -10.6593 	 86.7332
| 39> H 	 -14.0464 	 -9.44286 	 84.8477
| 40> H 	 -8.11435 	 -8.15312 	 90.4833
| 41> *
| 42>
| 43>                          ****END OF INPUT****

CARTESIAN COORDINATES (ANGSTROEM)
---------------------------------
  S    -12.323100   -8.797640   86.677500
  C    -13.166700   -9.774980   85.489900
  C    -12.752400  -11.085800   85.520100
  C    -11.600400  -11.223700   86.399200
  C    -11.228400  -10.069000   87.093100
  H    -11.077100  -12.103400   86.538300
  C    -13.493700  -12.253100   84.820500
  H    -14.221100  -11.749500   84.187700
  H    -14.051800  -12.891000   85.526300
  C    -12.747500  -13.193700   83.903000
  H    -12.218500  -12.588600   83.175900
  H    -11.921300  -13.678800   84.431100
  C    -13.662900  -14.326000   83.429400
  H    -13.144800  -14.969400   82.664400
  H    -13.974600  -14.921500   84.295400
  H    -14.607100  -14.088600   82.939500
  S    -10.401800   -8.691190   89.326500
  C     -8.702440   -8.879610   89.832600
  C     -8.203900  -10.050500   89.305200
  C     -8.955970  -10.613400   88.233600
  C    -10.162100   -9.919330   88.075500
  H     -7.190960  -10.203300   89.599900
  C     -8.393300  -11.640500   87.318800
  H     -9.101770  -12.514600   87.237400
  H     -7.522890  -11.999700   87.838600
  C     -7.706660  -11.182400   85.990300
  H     -8.381820  -10.753800   85.262300
  H     -7.335170  -12.120500   85.553700
  C     -6.485520  -10.251700   86.193300
  H     -6.725060   -9.309500   86.650300
  H     -6.153580   -9.932680   85.281000
  H     -5.557930  -10.659300   86.733200
  H    -14.046400   -9.442860   84.847700
  H     -8.114350   -8.153120   90.483300

 Total Charge           Charge          ....    0
 Multiplicity           Mult            ....    1
 Number of Electrons    NEL             ....  134
 Basis Dimension        Dim             ....  322

ORBITAL ENERGIES
----------------

  NO   OCC          E(Eh)            E(eV)
   0   2.0000     -88.966469     -2420.9007
   1   2.0000     -88.964330     -2420.8425
   2   2.0000     -10.330642      -281.1111
   3   2.0000     -10.330316      -281.1022
   4   2.0000     -10.323539      -280.9178
   5   2.0000     -10.319268      -280.8015
   6   2.0000     -10.305278      -280.4209
   7   2.0000     -10.304537      -280.4007
   8   2.0000     -10.295492      -280.1546
   9   2.0000     -10.295222      -280.1472
  10   2.0000     -10.292825      -280.0820
  11   2.0000     -10.292539      -280.0742
  12   2.0000     -10.290814      -280.0273
  13   2.0000     -10.287123      -279.9268
  14   2.0000     -10.286200      -279.9017
  15   2.0000     -10.274748      -279.5901
  16   2.0000      -8.081344      -219.9045
  17   2.0000      -8.078488      -219.8268
  18   2.0000      -6.039939      -164.3551
  19   2.0000      -6.037070      -164.2770
  20   2.0000      -6.035780      -164.2419
  21   2.0000      -6.033194      -164.1716
  22   2.0000      -6.032034      -164.1400
  23   2.0000      -6.029092      -164.0599
  24   2.0000      -1.005322       -27.3562
  25   2.0000      -0.981549       -26.7093
  26   2.0000      -0.914301       -24.8794
  27   2.0000      -0.906941       -24.6791
  28   2.0000      -0.871091       -23.7036
  29   2.0000      -0.850495       -23.1432
  30   2.0000      -0.841741       -22.9049
  31   2.0000      -0.814144       -22.1540
  32   2.0000      -0.784391       -21.3444
  33   2.0000      -0.774132       -21.0652
  34   2.0000      -0.714889       -19.4531
  35   2.0000      -0.702235       -19.1088
  36   2.0000      -0.687221       -18.7002
  37   2.0000      -0.662413       -18.0252
  38   2.0000      -0.635022       -17.2798
  39   2.0000      -0.621434       -16.9101
  40   2.0000      -0.587580       -15.9889
  41   2.0000      -0.576756       -15.6943
  42   2.0000      -0.562247       -15.2995
  43   2.0000      -0.553558       -15.0631
  44   2.0000      -0.541260       -14.7284
  45   2.0000      -0.522522       -14.2186
  46   2.0000      -0.512040       -13.9333
  47   2.0000      -0.508844       -13.8463
  48   2.0000      -0.499528       -13.5928
  49   2.0000      -0.493616       -13.4320
  50   2.0000      -0.488883       -13.3032
  51   2.0000      -0.484176       -13.1751
  52   2.0000      -0.471522       -12.8308
  53   2.0000      -0.465720       -12.6729
  54   2.0000      -0.463787       -12.6203
  55   2.0000      -0.445959       -12.1352
  56   2.0000      -0.440584       -11.9889
  57   2.0000      -0.438437       -11.9305
  58   2.0000      -0.437374       -11.9015
  59   2.0000      -0.424919       -11.5626
  60   2.0000      -0.422490       -11.4965
  61   2.0000      -0.416234       -11.3263
  62   2.0000      -0.412458       -11.2236
  63   2.0000      -0.356198        -9.6926
  64   2.0000      -0.332553        -9.0492
  65   2.0000      -0.328455        -8.9377
  66   2.0000      -0.282294        -7.6816
  67   0.0000       0.017284         0.4703
  68   0.0000       0.081490         2.2175
  69   0.0000       0.097277         2.6471
  70   0.0000       0.125199         3.4068
  71   0.0000       0.126592         3.4447

MULLIKEN ATOMIC CHARGES
-----------------------
   0 S :    0.109151
   1 C :   -0.147194
   2 C :   -0.074956
   3 C :    0.044127
   4 C :   -0.120967
   5 H :   -0.044437
   6 C :    0.059938
   7 H :    0.009697
   8 H :    0.037955
   9 C :   -0.060589
  10 H :    0.025997
  11 H :    0.025597
  12 C :   -0.069072
  13 H :    0.044350
  14 H :    0.033877
  15 H :    0.028556
  16 S :    0.089122
  17 C :   -0.141483
  18 C :   -0.012094
  19 C :   -0.045505
  20 C :   -0.123874
  21 H :    0.011741
  22 C :    0.047563
  23 H :    0.049918
  24 H :    0.005603
  25 C :   -0.042434
  26 H :    0.039186
  27 H :    0.030840
  28 C :   -0.045135
  29 H :    0.033472
  30 H :    0.005548
  31 H :    0.037720
  32 H :    0.072485
  33 H :    0.085298
Sum of atomic charges:   -0.0000000

LOEWDIN ATOMIC CHARGES
----------------------
   0 S :    0.411397
   1 C :   -0.207014
   2 C :   -0.063676
   3 C :   -0.057425
   4 C :   -0.198593
   5 H :    0.010675
   6 C :   -0.030448
   7 H :    0.028143
   8 H :    0.033481
   9 C :   -0.045604
  10 H :    0.023290
  11 H :    0.023480
  12 C :   -0.069983
  13 H :    0.034186
  14 H :    0.028478
  15 H :    0.022554
  16 S :    0.372460
  17 C :   -0.184112
  18 C :   -0.068800
  19 C :   -0.062612
  20 C :   -0.179005
  21 H :    0.028585
  22 C :   -0.040046
  23 H :    0.035463
  24 H :    0.031539
  25 C :   -0.026954
  26 H :    0.024332
  27 H :    0.028510
  28 C :   -0.067862
  29 H :    0.025782
  30 H :    0.015318
  31 H :    0.033226
  32 H :    0.044755
  33 H :    0.046477

  Mayer bond orders larger than 0.100000
B(  0-S ,  1-C ) :   1.1358 B(  0-S ,  4-C ) :   1.1473 B(  1-C ,  2-C ) :   1.6259
B(  1-C , 32-H ) :   0.9526 B(  2-C ,  3-C ) :   1.2386 B(  2-C ,  6-C ) :   1.0149
B(  3-C ,  4-C ) :   1.5466 B(  3-C ,  5-H ) :   1.0084 B(  4-C , 20-C ) :   1.0890
B(  6-C ,  7-H ) :   0.9399 B(  6-C ,  8-H ) :   0.9435 B(  6-C ,  9-C ) :   1.0635
B(  9-C , 10-H ) :   0.9566 B(  9-C , 11-H ) :   0.9524 B(  9-C , 12-C ) :   1.0708
B( 12-C , 13-H ) :   0.9741 B( 12-C , 14-H ) :   0.9714 B( 12-C , 15-H ) :   0.9781
B( 16-S , 17-C ) :   1.1279 B( 16-S , 20-C ) :   1.1347 B( 17-C , 18-C ) :   1.6396
B( 17-C , 33-H ) :   0.9588 B( 18-C , 19-C ) :   1.2216 B( 18-C , 21-H ) :   0.9857
B( 19-C , 20-C ) :   1.5772 B( 19-C , 22-C ) :   1.0602 B( 22-C , 23-H ) :   0.9301
B( 22-C , 24-H ) :   0.9214 B( 22-C , 25-C ) :   1.0585 B( 25-C , 26-H ) :   0.9587
B( 25-C , 27-H ) :   0.9547 B( 25-C , 28-C ) :   1.0800 B( 28-C , 29-H ) :   0.9712
B( 28-C , 30-H ) :   0.9679 B( 28-C , 31-H ) :   0.9732

Dispersion correction           -0.014147962
FINAL SINGLE POINT ENERGY     -1339.865921227041

DIPOLE MOMENT
-------------
                                X             Y             Z
Electronic contribution:     -6.81998      21.23461      18.63093
Nuclear contribution   :      7.15814     -21.73183     -19.01923
                        -----------------------------------------
Total Dipole Moment    :      0.33816      -0.49722      -0.38830
                        -----------------------------------------
Magnitude (a.u.)       :      0.71579
Magnitude (Debye)      :      1.81940

Rotational constants in cm-1:     0.019754     0.008250     0.006461
Rotational constants in MHz :   592.214412   247.336531   193.703058

                             ****ORCA TERMINATED NORMALLY****
TOTAL RUN TIME: 0 days 0 hours 0 minutes 33 seconds 490 msec
