                         Program Version 4.2.1 -  RELEASE  -
|  1> ! wB97X-D3 SP def2-SVP
|  2> %pal
|  3> nprocs 16
|  4> end
|  5>
|  6> * xyz 0 1
|  7> S 	 -65.0628 	 51.8451 	 124.192
|  8> C 	 -65.1153 	 50.1929 	 124.82
|  9> C 	 -64.3294 	 49.2661 	 124.06
| 10> C 	 -63.9739 	 49.9068 	 122.837
| 11> C 	 -64.3834 	 51.2187 	 122.691
| 12> H 	 -63.4626 	 49.4255 	 122.052
| 13> C 	 -63.9389 	 47.8856 	 124.407
| 14> H 	 -62.8714 	 47.7952 	 124.343
| 15> H 	 -64.2574 	 47.3066 	 123.567
| 16> C 	 -64.5039 	 47.43 	 125.791
| 17> H 	 -63.8611 	 47.9162 	 126.524
| 18> H 	 -65.528 	 47.6174 	 125.829
| 19> C 	 -64.2865 	 45.8637 	 125.962
| 20> H 	 -64.9034 	 45.3059 	 125.191
| 21> H 	 -63.2211 	 45.5419 	 126.015
| 22> H 	 -64.5677 	 45.5574 	 126.989
| 23> S 	 -63.1144 	 53.3966 	 121.609
| 24> C 	 -63.5734 	 54.023 	 120.039
| 25> C 	 -64.4581 	 53.1714 	 119.466
| 26> C 	 -64.786 	 52.0592 	 120.248
| 27> C 	 -64.2005 	 52.0452 	 121.505
| 28> H 	 -64.8549 	 53.2288 	 118.484
| 29> C 	 -65.866 	 51.0843 	 119.827
| 30> H 	 -66.6708 	 51.5516 	 119.181
| 31> H 	 -66.5139 	 50.7594 	 120.597
| 32> C 	 -65.3739 	 49.8705 	 118.936
| 33> H 	 -64.8117 	 49.1203 	 119.547
| 34> H 	 -64.6139 	 50.2632 	 118.248
| 35> C 	 -66.5642 	 49.2073 	 118.274
| 36> H 	 -66.3254 	 48.3912 	 117.593
| 37> H 	 -66.88 	 50.023 	 117.499
| 38> H 	 -67.4471 	 49.0164 	 118.936
| 39> H 	 -65.7083 	 50.0526 	 125.741
| 40> H 	 -63.1562 	 54.9128 	 119.584
| 41> *
| 42>
| 43>                          ****END OF INPUT****

CARTESIAN COORDINATES (ANGSTROEM)
---------------------------------
  S    -65.062800   51.845100  124.192000
  C    -65.115300   50.192900  124.820000
  C    -64.329400   49.266100  124.060000
  C    -63.973900   49.906800  122.837000
  C    -64.383400   51.218700  122.691000
  H    -63.462600   49.425500  122.052000
  C    -63.938900   47.885600  124.407000
  H    -62.871400   47.795200  124.343000
  H    -64.257400   47.306600  123.567000
  C    -64.503900   47.430000  125.791000
  H    -63.861100   47.916200  126.524000
  H    -65.528000   47.617400  125.829000
  C    -64.286500   45.863700  125.962000
  H    -64.903400   45.305900  125.191000
  H    -63.221100   45.541900  126.015000
  H    -64.567700   45.557400  126.989000
  S    -63.114400   53.396600  121.609000
  C    -63.573400   54.023000  120.039000
  C    -64.458100   53.171400  119.466000
  C    -64.786000   52.059200  120.248000
  C    -64.200500   52.045200  121.505000
  H    -64.854900   53.228800  118.484000
  C    -65.866000   51.084300  119.827000
  H    -66.670800   51.551600  119.181000
  H    -66.513900   50.759400  120.597000
  C    -65.373900   49.870500  118.936000
  H    -64.811700   49.120300  119.547000
  H    -64.613900   50.263200  118.248000
  C    -66.564200   49.207300  118.274000
  H    -66.325400   48.391200  117.593000
  H    -66.880000   50.023000  117.499000
  H    -67.447100   49.016400  118.936000
  H    -65.708300   50.052600  125.741000
  H    -63.156200   54.912800  119.584000

 Total Charge           Charge          ....    0
 Multiplicity           Mult            ....    1
 Number of Electrons    NEL             ....  134
 Basis Dimension        Dim             ....  322

ORBITAL ENERGIES
----------------

  NO   OCC          E(Eh)            E(eV)
   0   2.0000     -88.965636     -2420.8780
   1   2.0000     -88.960493     -2420.7381
   2   2.0000     -10.327887      -281.0361
   3   2.0000     -10.322699      -280.8949
   4   2.0000     -10.321188      -280.8538
   5   2.0000     -10.314978      -280.6848
   6   2.0000     -10.306698      -280.4595
   7   2.0000     -10.296506      -280.1822
   8   2.0000     -10.293243      -280.0934
   9   2.0000     -10.291503      -280.0460
  10   2.0000     -10.290735      -280.0251
  11   2.0000     -10.290578      -280.0209
  12   2.0000     -10.289841      -280.0008
  13   2.0000     -10.288830      -279.9733
  14   2.0000     -10.287735      -279.9435
  15   2.0000     -10.285199      -279.8745
  16   2.0000      -8.080005      -219.8681
  17   2.0000      -8.075748      -219.7523
  18   2.0000      -6.038433      -164.3141
  19   2.0000      -6.034778      -164.2147
  20   2.0000      -6.034226      -164.1996
  21   2.0000      -6.030661      -164.1026
  22   2.0000      -6.029987      -164.0843
  23   2.0000      -6.026704      -163.9949
  24   2.0000      -1.006748       -27.3950
  25   2.0000      -0.982902       -26.7461
  26   2.0000      -0.913669       -24.8622
  27   2.0000      -0.902266       -24.5519
  28   2.0000      -0.865615       -23.5546
  29   2.0000      -0.851014       -23.1573
  30   2.0000      -0.847598       -23.0643
  31   2.0000      -0.811563       -22.0838
  32   2.0000      -0.777780       -21.1645
  33   2.0000      -0.763568       -20.7777
  34   2.0000      -0.716686       -19.5020
  35   2.0000      -0.695196       -18.9172
  36   2.0000      -0.690136       -18.7796
  37   2.0000      -0.664280       -18.0760
  38   2.0000      -0.644554       -17.5392
  39   2.0000      -0.614490       -16.7211
  40   2.0000      -0.603264       -16.4157
  41   2.0000      -0.582287       -15.8448
  42   2.0000      -0.564631       -15.3644
  43   2.0000      -0.550412       -14.9775
  44   2.0000      -0.528684       -14.3862
  45   2.0000      -0.522468       -14.2171
  46   2.0000      -0.515110       -14.0168
  47   2.0000      -0.511393       -13.9157
  48   2.0000      -0.507765       -13.8170
  49   2.0000      -0.499105       -13.5813
  50   2.0000      -0.488028       -13.2799
  51   2.0000      -0.475341       -12.9347
  52   2.0000      -0.469121       -12.7654
  53   2.0000      -0.462230       -12.5779
  54   2.0000      -0.454150       -12.3581
  55   2.0000      -0.449973       -12.2444
  56   2.0000      -0.440983       -11.9998
  57   2.0000      -0.439017       -11.9463
  58   2.0000      -0.435244       -11.8436
  59   2.0000      -0.430992       -11.7279
  60   2.0000      -0.421103       -11.4588
  61   2.0000      -0.414786       -11.2869
  62   2.0000      -0.404488       -11.0067
  63   2.0000      -0.338969        -9.2238
  64   2.0000      -0.328114        -8.9284
  65   2.0000      -0.326813        -8.8930
  66   2.0000      -0.293684        -7.9915
  67   0.0000       0.036642         0.9971
  68   0.0000       0.057561         1.5663
  69   0.0000       0.110945         3.0190
  70   0.0000       0.127982         3.4826
  71   0.0000       0.132354         3.6015

MULLIKEN ATOMIC CHARGES
-----------------------
   0 S :    0.120069
   1 C :   -0.173248
   2 C :   -0.068111
   3 C :    0.046614
   4 C :   -0.147190
   5 H :   -0.006142
   6 C :    0.076631
   7 H :    0.030836
   8 H :    0.019064
   9 C :   -0.057864
  10 H :    0.045140
  11 H :    0.035237
  12 C :   -0.082414
  13 H :    0.051377
  14 H :    0.036058
  15 H :    0.029455
  16 S :    0.095187
  17 C :   -0.084958
  18 C :    0.000067
  19 C :    0.005945
  20 C :   -0.180812
  21 H :    0.001733
  22 C :    0.015260
  23 H :    0.013949
  24 H :    0.021836
  25 C :   -0.071236
  26 H :    0.028675
  27 H :    0.030375
  28 C :   -0.079415
  29 H :    0.040268
  30 H :    0.029030
  31 H :    0.053497
  32 H :    0.065855
  33 H :    0.059232
Sum of atomic charges:    0.0000000

LOEWDIN ATOMIC CHARGES
----------------------
   0 S :    0.394759
   1 C :   -0.200171
   2 C :   -0.055756
   3 C :   -0.049898
   4 C :   -0.194497
   5 H :    0.023840
   6 C :   -0.033362
   7 H :    0.035319
   8 H :    0.030598
   9 C :   -0.023901
  10 H :    0.031953
  11 H :    0.018009
  12 C :   -0.076635
  13 H :    0.031817
  14 H :    0.028133
  15 H :    0.025342
  16 S :    0.408798
  17 C :   -0.181430
  18 C :   -0.069040
  19 C :   -0.062841
  20 C :   -0.201520
  21 H :    0.027618
  22 C :   -0.033926
  23 H :    0.031987
  24 H :    0.024309
  25 C :   -0.045437
  26 H :    0.019540
  27 H :    0.024208
  28 C :   -0.078824
  29 H :    0.025631
  30 H :    0.033500
  31 H :    0.032919
  32 H :    0.026922
  33 H :    0.032038

  Mayer bond orders larger than 0.100000
B(  0-S ,  1-C ) :   1.1486 B(  0-S ,  4-C ) :   1.1380 B(  1-C ,  2-C ) :   1.5705
B(  1-C ,  4-C ) :   0.1024 B(  1-C , 32-H ) :   0.9645 B(  2-C ,  3-C ) :   1.2412
B(  2-C ,  6-C ) :   1.0205 B(  3-C ,  4-C ) :   1.5855 B(  3-C ,  5-H ) :   1.0023
B(  4-C , 20-C ) :   1.0271 B(  6-C ,  7-H ) :   0.9309 B(  6-C ,  8-H ) :   0.9286
B(  6-C ,  9-C ) :   1.0774 B(  9-C , 10-H ) :   0.9537 B(  9-C , 11-H ) :   0.9545
B(  9-C , 12-C ) :   1.0853 B( 12-C , 13-H ) :   0.9766 B( 12-C , 14-H ) :   0.9748
B( 12-C , 15-H ) :   0.9741 B( 16-S , 17-C ) :   1.1562 B( 16-S , 20-C ) :   1.1563
B( 17-C , 18-C ) :   1.5670 B( 17-C , 20-C ) :   0.1005 B( 17-C , 33-H ) :   0.9718
B( 18-C , 19-C ) :   1.2878 B( 18-C , 21-H ) :   0.9921 B( 19-C , 20-C ) :   1.5826
B( 19-C , 22-C ) :   1.0368 B( 22-C , 23-H ) :   0.9503 B( 22-C , 24-H ) :   0.9372
B( 22-C , 25-C ) :   1.0375 B( 25-C , 26-H ) :   0.9512 B( 25-C , 27-H ) :   0.9608
B( 25-C , 28-C ) :   1.0737 B( 28-C , 29-H ) :   0.9718 B( 28-C , 30-H ) :   0.9717
B( 28-C , 31-H ) :   0.9730

Dispersion correction           -0.013684795
FINAL SINGLE POINT ENERGY     -1339.866161528707

DIPOLE MOMENT
-------------
                                X             Y             Z
Electronic contribution:      7.34030      27.54333       4.53415
Nuclear contribution   :     -7.43048     -28.16213      -4.69879
                        -----------------------------------------
Total Dipole Moment    :     -0.09018      -0.61880      -0.16464
                        -----------------------------------------
Magnitude (a.u.)       :      0.64665
Magnitude (Debye)      :      1.64365

Rotational constants in cm-1:     0.019084     0.007763     0.006063
Rotational constants in MHz :   572.113098   232.728332   181.758672

                             ****ORCA TERMINATED NORMALLY****
TOTAL RUN TIME: 0 days 0 hours 0 minutes 32 seconds 376 msec
