                         Program Version 4.2.1 -  RELEASE  -
|  1> ! wB97X-D3 SP def2-SVP
|  2> %pal
|  3> nprocs 16
|  4> end
|  5>
|  6> * xyz 0 1
|  7> S 	 -36.1202 	 69.4959 	 144.291
|  8> C 	 -34.9082 	 70.7797 	 144.239
|  9> C 	 -33.7244 	 70.4223 	 144.916
| 10> C 	 -33.7542 	 69.0504 	 145.345
| 11> C 	 -34.9105 	 68.4129 	 144.899
| 12> H 	 -32.9867 	 68.5478 	 145.885
| 13> C 	 -32.5047 	 71.2235 	 145.202
| 14> H 	 -32.5551 	 72.309 	 144.92
| 15> H 	 -31.7295 	 70.8687 	 144.536
| 16> C 	 -31.9829 	 71.1284 	 146.625
| 17> H 	 -31.3963 	 70.2836 	 146.909
| 18> H 	 -31.2881 	 71.9719 	 146.742
| 19> C 	 -33.1548 	 71.3698 	 147.588
| 20> H 	 -33.7259 	 72.2667 	 147.387
| 21> H 	 -33.8541 	 70.5465 	 147.579
| 22> H 	 -32.5766 	 71.5635 	 148.502
| 23> S 	 -37.0233 	 66.61 	 145.044
| 24> C 	 -36.7026 	 64.9724 	 145.515
| 25> C 	 -35.4434 	 64.8407 	 146.058
| 26> C 	 -34.6822 	 66.0313 	 145.888
| 27> C 	 -35.3546 	 67.077 	 145.28
| 28> H 	 -35.1089 	 63.8394 	 146.488
| 29> C 	 -33.1642 	 65.9151 	 146.047
| 30> H 	 -32.6156 	 66.6589 	 145.48
| 31> H 	 -32.9762 	 64.9909 	 145.56
| 32> C 	 -32.6026 	 65.9416 	 147.435
| 33> H 	 -33.1924 	 65.1415 	 147.973
| 34> H 	 -32.9739 	 66.7405 	 148.091
| 35> C 	 -31.1073 	 65.7136 	 147.536
| 36> H 	 -30.8524 	 64.7636 	 147.09
| 37> H 	 -30.7972 	 65.6559 	 148.575
| 38> H 	 -30.4673 	 66.4624 	 147.065
| 39> H 	 -35.0658 	 71.822 	 143.915
| 40> H 	 -37.4871 	 64.2071 	 145.661
| 41> *
| 42>
| 43>                          ****END OF INPUT****

CARTESIAN COORDINATES (ANGSTROEM)
---------------------------------
  S    -36.120200   69.495900  144.291000
  C    -34.908200   70.779700  144.239000
  C    -33.724400   70.422300  144.916000
  C    -33.754200   69.050400  145.345000
  C    -34.910500   68.412900  144.899000
  H    -32.986700   68.547800  145.885000
  C    -32.504700   71.223500  145.202000
  H    -32.555100   72.309000  144.920000
  H    -31.729500   70.868700  144.536000
  C    -31.982900   71.128400  146.625000
  H    -31.396300   70.283600  146.909000
  H    -31.288100   71.971900  146.742000
  C    -33.154800   71.369800  147.588000
  H    -33.725900   72.266700  147.387000
  H    -33.854100   70.546500  147.579000
  H    -32.576600   71.563500  148.502000
  S    -37.023300   66.610000  145.044000
  C    -36.702600   64.972400  145.515000
  C    -35.443400   64.840700  146.058000
  C    -34.682200   66.031300  145.888000
  C    -35.354600   67.077000  145.280000
  H    -35.108900   63.839400  146.488000
  C    -33.164200   65.915100  146.047000
  H    -32.615600   66.658900  145.480000
  H    -32.976200   64.990900  145.560000
  C    -32.602600   65.941600  147.435000
  H    -33.192400   65.141500  147.973000
  H    -32.973900   66.740500  148.091000
  C    -31.107300   65.713600  147.536000
  H    -30.852400   64.763600  147.090000
  H    -30.797200   65.655900  148.575000
  H    -30.467300   66.462400  147.065000
  H    -35.065800   71.822000  143.915000
  H    -37.487100   64.207100  145.661000

 Total Charge           Charge          ....    0
 Multiplicity           Mult            ....    1
 Number of Electrons    NEL             ....  134
 Basis Dimension        Dim             ....  322

ORBITAL ENERGIES
----------------

  NO   OCC          E(Eh)            E(eV)
   0   2.0000     -88.970723     -2421.0164
   1   2.0000     -88.965323     -2420.8695
   2   2.0000     -10.331833      -281.1435
   3   2.0000     -10.327310      -281.0204
   4   2.0000     -10.318169      -280.7717
   5   2.0000     -10.317753      -280.7603
   6   2.0000     -10.304277      -280.3936
   7   2.0000     -10.301436      -280.3163
   8   2.0000     -10.299491      -280.2634
   9   2.0000     -10.293659      -280.1047
  10   2.0000     -10.290772      -280.0262
  11   2.0000     -10.288430      -279.9624
  12   2.0000     -10.285924      -279.8942
  13   2.0000     -10.285033      -279.8700
  14   2.0000     -10.279967      -279.7321
  15   2.0000     -10.271446      -279.5003
  16   2.0000      -8.085276      -220.0115
  17   2.0000      -8.080527      -219.8823
  18   2.0000      -6.043877      -164.4623
  19   2.0000      -6.040056      -164.3583
  20   2.0000      -6.039138      -164.3333
  21   2.0000      -6.035730      -164.2406
  22   2.0000      -6.035014      -164.2211
  23   2.0000      -6.031138      -164.1156
  24   2.0000      -1.011028       -27.5115
  25   2.0000      -0.985208       -26.8089
  26   2.0000      -0.920560       -25.0497
  27   2.0000      -0.914954       -24.8972
  28   2.0000      -0.868281       -23.6271
  29   2.0000      -0.856523       -23.3072
  30   2.0000      -0.844294       -22.9744
  31   2.0000      -0.812428       -22.1073
  32   2.0000      -0.785698       -21.3799
  33   2.0000      -0.775170       -21.0934
  34   2.0000      -0.709276       -19.3004
  35   2.0000      -0.700637       -19.0653
  36   2.0000      -0.695182       -18.9169
  37   2.0000      -0.661525       -18.0010
  38   2.0000      -0.631857       -17.1937
  39   2.0000      -0.629879       -17.1399
  40   2.0000      -0.600101       -16.3296
  41   2.0000      -0.563453       -15.3323
  42   2.0000      -0.558504       -15.1977
  43   2.0000      -0.557078       -15.1589
  44   2.0000      -0.543759       -14.7964
  45   2.0000      -0.531446       -14.4614
  46   2.0000      -0.514545       -14.0015
  47   2.0000      -0.510992       -13.9048
  48   2.0000      -0.503944       -13.7130
  49   2.0000      -0.498830       -13.5739
  50   2.0000      -0.491987       -13.3877
  51   2.0000      -0.490042       -13.3347
  52   2.0000      -0.474144       -12.9021
  53   2.0000      -0.467207       -12.7133
  54   2.0000      -0.459705       -12.5092
  55   2.0000      -0.456845       -12.4314
  56   2.0000      -0.448569       -12.2062
  57   2.0000      -0.443394       -12.0654
  58   2.0000      -0.435235       -11.8434
  59   2.0000      -0.420419       -11.4402
  60   2.0000      -0.417264       -11.3543
  61   2.0000      -0.412283       -11.2188
  62   2.0000      -0.400207       -10.8902
  63   2.0000      -0.360842        -9.8190
  64   2.0000      -0.336584        -9.1589
  65   2.0000      -0.325609        -8.8603
  66   2.0000      -0.280197        -7.6246
  67   0.0000       0.016367         0.4454
  68   0.0000       0.082793         2.2529
  69   0.0000       0.090033         2.4499
  70   0.0000       0.115921         3.1544
  71   0.0000       0.124795         3.3958

MULLIKEN ATOMIC CHARGES
-----------------------
   0 S :    0.096415
   1 C :   -0.107834
   2 C :   -0.097297
   3 C :   -0.021776
   4 C :   -0.065052
   5 H :    0.005048
   6 C :    0.070812
   7 H :    0.023680
   8 H :    0.034981
   9 C :   -0.105458
  10 H :    0.030121
  11 H :    0.026989
  12 C :   -0.032781
  13 H :    0.024448
  14 H :    0.049119
  15 H :    0.031577
  16 S :    0.087642
  17 C :   -0.094683
  18 C :   -0.062409
  19 C :   -0.048935
  20 C :   -0.114117
  21 H :    0.050691
  22 C :    0.047425
  23 H :    0.009814
  24 H :    0.020632
  25 C :   -0.092728
  26 H :    0.011896
  27 H :    0.026905
  28 C :   -0.010008
  29 H :    0.022904
  30 H :    0.032797
  31 H :    0.030428
  32 H :    0.049878
  33 H :    0.068874
Sum of atomic charges:   -0.0000000

LOEWDIN ATOMIC CHARGES
----------------------
   0 S :    0.405180
   1 C :   -0.205050
   2 C :   -0.054548
   3 C :   -0.058345
   4 C :   -0.179756
   5 H :    0.026430
   6 C :   -0.042221
   7 H :    0.034524
   8 H :    0.033666
   9 C :   -0.043374
  10 H :    0.018596
  11 H :    0.029003
  12 C :   -0.061297
  13 H :    0.024194
  14 H :    0.025812
  15 H :    0.029211
  16 S :    0.399309
  17 C :   -0.193607
  18 C :   -0.079945
  19 C :   -0.062325
  20 C :   -0.193578
  21 H :    0.046157
  22 C :   -0.030399
  23 H :    0.020832
  24 H :    0.028979
  25 C :   -0.056478
  26 H :    0.027498
  27 H :    0.026037
  28 C :   -0.062291
  29 H :    0.024997
  30 H :    0.029787
  31 H :    0.024658
  32 H :    0.032305
  33 H :    0.036037

  Mayer bond orders larger than 0.100000
B(  0-S ,  1-C ) :   1.1216 B(  0-S ,  4-C ) :   1.1544 B(  1-C ,  2-C ) :   1.6152
B(  1-C , 32-H ) :   0.9616 B(  2-C ,  3-C ) :   1.2331 B(  2-C ,  6-C ) :   1.0346
B(  3-C ,  4-C ) :   1.5470 B(  3-C ,  5-H ) :   0.9914 B(  4-C , 20-C ) :   1.0909
B(  6-C ,  7-H ) :   0.9413 B(  6-C ,  8-H ) :   0.9311 B(  6-C ,  9-C ) :   1.0730
B(  9-C , 10-H ) :   0.9503 B(  9-C , 11-H ) :   0.9562 B(  9-C , 12-C ) :   1.0796
B( 12-C , 13-H ) :   0.9749 B( 12-C , 14-H ) :   0.9680 B( 12-C , 15-H ) :   0.9753
B( 16-S , 17-C ) :   1.1567 B( 16-S , 20-C ) :   1.1194 B( 17-C , 18-C ) :   1.6184
B( 17-C , 33-H ) :   0.9604 B( 18-C , 19-C ) :   1.2520 B( 18-C , 21-H ) :   0.9767
B( 19-C , 20-C ) :   1.6075 B( 19-C , 22-C ) :   1.0186 B( 22-C , 23-H ) :   0.9456
B( 22-C , 24-H ) :   0.9381 B( 22-C , 25-C ) :   1.0564 B( 25-C , 26-H ) :   0.9455
B( 25-C , 27-H ) :   0.9509 B( 25-C , 28-C ) :   1.0829 B( 28-C , 29-H ) :   0.9718
B( 28-C , 30-H ) :   0.9717 B( 28-C , 31-H ) :   0.9737

Dispersion correction           -0.014825624
FINAL SINGLE POINT ENERGY     -1339.869194522303

DIPOLE MOMENT
-------------
                                X             Y             Z
Electronic contribution:    -26.65496      -3.14918     -15.57491
Nuclear contribution   :     27.32798       3.09821      15.98694
                        -----------------------------------------
Total Dipole Moment    :      0.67302      -0.05097       0.41204
                        -----------------------------------------
Magnitude (a.u.)       :      0.79078
Magnitude (Debye)      :      2.01000

Rotational constants in cm-1:     0.016395     0.011124     0.007140
Rotational constants in MHz :   491.505994   333.501798   214.040291

                             ****ORCA TERMINATED NORMALLY****
TOTAL RUN TIME: 0 days 0 hours 0 minutes 34 seconds 677 msec
