                         Program Version 4.2.1 -  RELEASE  -
|  1> ! wB97X-D3 SP def2-SVP
|  2> %pal
|  3> nprocs 16
|  4> end
|  5>
|  6> * xyz 0 1
|  7> S 	 27.8899 	 -8.53612 	 79.317
|  8> C 	 29.1481 	 -7.71357 	 78.4817
|  9> C 	 29.472 	 -6.45635 	 79.0021
| 10> C 	 28.6235 	 -6.16604 	 80.1025
| 11> C 	 27.7766 	 -7.22463 	 80.4336
| 12> H 	 28.7188 	 -5.34294 	 80.8332
| 13> C 	 30.7105 	 -5.63922 	 78.762
| 14> H 	 30.5477 	 -4.76484 	 79.2837
| 15> H 	 30.9079 	 -5.23512 	 77.7887
| 16> C 	 31.9483 	 -6.30794 	 79.1975
| 17> H 	 31.6781 	 -6.65141 	 80.1978
| 18> H 	 32.1638 	 -7.18939 	 78.6748
| 19> C 	 33.1092 	 -5.4346 	 79.2859
| 20> H 	 33.8036 	 -5.97266 	 80.0127
| 21> H 	 33.58 	 -5.41652 	 78.2915
| 22> H 	 32.7773 	 -4.46454 	 79.7755
| 23> S 	 26.5121 	 -8.95981 	 82.1751
| 24> C 	 25.3816 	 -8.37709 	 83.3246
| 25> C 	 25.4633 	 -7.01097 	 83.389
| 26> C 	 26.4226 	 -6.43211 	 82.5121
| 27> C 	 26.9403 	 -7.37641 	 81.6094
| 28> H 	 24.8726 	 -6.53839 	 84.1011
| 29> C 	 26.7173 	 -4.93034 	 82.6428
| 30> H 	 25.8456 	 -4.52737 	 83.0719
| 31> H 	 26.8576 	 -4.41188 	 81.6952
| 32> C 	 27.8727 	 -4.4004 	 83.5757
| 33> H 	 28.1273 	 -3.37282 	 83.1686
| 34> H 	 28.7279 	 -5.05439 	 83.4687
| 35> C 	 27.487 	 -4.3497 	 85.0129
| 36> H 	 27.4369 	 -5.37602 	 85.3286
| 37> H 	 26.5836 	 -3.80156 	 85.3056
| 38> H 	 28.2369 	 -3.94838 	 85.7145
| 39> H 	 29.7867 	 -8.17748 	 77.7713
| 40> H 	 24.7481 	 -8.9409 	 83.9656
| 41> *
| 42>
| 43>                          ****END OF INPUT****

CARTESIAN COORDINATES (ANGSTROEM)
---------------------------------
  S     27.889900   -8.536120   79.317000
  C     29.148100   -7.713570   78.481700
  C     29.472000   -6.456350   79.002100
  C     28.623500   -6.166040   80.102500
  C     27.776600   -7.224630   80.433600
  H     28.718800   -5.342940   80.833200
  C     30.710500   -5.639220   78.762000
  H     30.547700   -4.764840   79.283700
  H     30.907900   -5.235120   77.788700
  C     31.948300   -6.307940   79.197500
  H     31.678100   -6.651410   80.197800
  H     32.163800   -7.189390   78.674800
  C     33.109200   -5.434600   79.285900
  H     33.803600   -5.972660   80.012700
  H     33.580000   -5.416520   78.291500
  H     32.777300   -4.464540   79.775500
  S     26.512100   -8.959810   82.175100
  C     25.381600   -8.377090   83.324600
  C     25.463300   -7.010970   83.389000
  C     26.422600   -6.432110   82.512100
  C     26.940300   -7.376410   81.609400
  H     24.872600   -6.538390   84.101100
  C     26.717300   -4.930340   82.642800
  H     25.845600   -4.527370   83.071900
  H     26.857600   -4.411880   81.695200
  C     27.872700   -4.400400   83.575700
  H     28.127300   -3.372820   83.168600
  H     28.727900   -5.054390   83.468700
  C     27.487000   -4.349700   85.012900
  H     27.436900   -5.376020   85.328600
  H     26.583600   -3.801560   85.305600
  H     28.236900   -3.948380   85.714500
  H     29.786700   -8.177480   77.771300
  H     24.748100   -8.940900   83.965600

 Total Charge           Charge          ....    0
 Multiplicity           Mult            ....    1
 Number of Electrons    NEL             ....  134
 Basis Dimension        Dim             ....  322

ORBITAL ENERGIES
----------------

  NO   OCC          E(Eh)            E(eV)
   0   2.0000     -88.970910     -2421.0215
   1   2.0000     -88.965497     -2420.8742
   2   2.0000     -10.329125      -281.0698
   3   2.0000     -10.328773      -281.0602
   4   2.0000     -10.310676      -280.5678
   5   2.0000     -10.308770      -280.5159
   6   2.0000     -10.304677      -280.4045
   7   2.0000     -10.301775      -280.3256
   8   2.0000     -10.295861      -280.1646
   9   2.0000     -10.293005      -280.0869
  10   2.0000     -10.289917      -280.0029
  11   2.0000     -10.286196      -279.9016
  12   2.0000     -10.284552      -279.8569
  13   2.0000     -10.278127      -279.6821
  14   2.0000     -10.275468      -279.6097
  15   2.0000     -10.269103      -279.4365
  16   2.0000      -8.086306      -220.0396
  17   2.0000      -8.081100      -219.8979
  18   2.0000      -6.044624      -164.4826
  19   2.0000      -6.040702      -164.3759
  20   2.0000      -6.039554      -164.3446
  21   2.0000      -6.037258      -164.2821
  22   2.0000      -6.035454      -164.2331
  23   2.0000      -6.031904      -164.1364
  24   2.0000      -1.014174       -27.5971
  25   2.0000      -0.991168       -26.9711
  26   2.0000      -0.932875       -25.3848
  27   2.0000      -0.909892       -24.7594
  28   2.0000      -0.875163       -23.8144
  29   2.0000      -0.859725       -23.3943
  30   2.0000      -0.850440       -23.1416
  31   2.0000      -0.815427       -22.1889
  32   2.0000      -0.787527       -21.4297
  33   2.0000      -0.776967       -21.1423
  34   2.0000      -0.709703       -19.3120
  35   2.0000      -0.698741       -19.0137
  36   2.0000      -0.690171       -18.7805
  37   2.0000      -0.670298       -18.2397
  38   2.0000      -0.640662       -17.4333
  39   2.0000      -0.624484       -16.9931
  40   2.0000      -0.599380       -16.3100
  41   2.0000      -0.582147       -15.8410
  42   2.0000      -0.573497       -15.6056
  43   2.0000      -0.550728       -14.9861
  44   2.0000      -0.549088       -14.9415
  45   2.0000      -0.526398       -14.3240
  46   2.0000      -0.523939       -14.2571
  47   2.0000      -0.511417       -13.9164
  48   2.0000      -0.506803       -13.7908
  49   2.0000      -0.504148       -13.7186
  50   2.0000      -0.494462       -13.4550
  51   2.0000      -0.479142       -13.0381
  52   2.0000      -0.471588       -12.8326
  53   2.0000      -0.470417       -12.8007
  54   2.0000      -0.464963       -12.6523
  55   2.0000      -0.454094       -12.3565
  56   2.0000      -0.448735       -12.2107
  57   2.0000      -0.437416       -11.9027
  58   2.0000      -0.435131       -11.8405
  59   2.0000      -0.425535       -11.5794
  60   2.0000      -0.419740       -11.4217
  61   2.0000      -0.414616       -11.2823
  62   2.0000      -0.404912       -11.0182
  63   2.0000      -0.360406        -9.8071
  64   2.0000      -0.336825        -9.1655
  65   2.0000      -0.329013        -8.9529
  66   2.0000      -0.278458        -7.5772
  67   0.0000       0.017552         0.4776
  68   0.0000       0.082218         2.2373
  69   0.0000       0.108019         2.9394
  70   0.0000       0.121368         3.3026
  71   0.0000       0.134909         3.6710

MULLIKEN ATOMIC CHARGES
-----------------------
   0 S :    0.126625
   1 C :   -0.107342
   2 C :   -0.077220
   3 C :   -0.014943
   4 C :   -0.133367
   5 H :    0.017350
   6 C :    0.129756
   7 H :   -0.018603
   8 H :    0.007986
   9 C :   -0.066688
  10 H :    0.011793
  11 H :    0.010365
  12 C :   -0.052419
  13 H :    0.043455
  14 H :    0.043421
  15 H :    0.040085
  16 S :    0.102685
  17 C :   -0.070949
  18 C :   -0.019806
  19 C :   -0.042835
  20 C :   -0.121139
  21 H :   -0.008627
  22 C :    0.053314
  23 H :   -0.000096
  24 H :    0.029427
  25 C :   -0.060226
  26 H :    0.035058
  27 H :    0.033903
  28 C :   -0.058067
  29 H :    0.028935
  30 H :    0.032043
  31 H :    0.029898
  32 H :    0.033358
  33 H :    0.042867
Sum of atomic charges:    0.0000000

LOEWDIN ATOMIC CHARGES
----------------------
   0 S :    0.435659
   1 C :   -0.204552
   2 C :   -0.051754
   3 C :   -0.068997
   4 C :   -0.193727
   5 H :    0.034847
   6 C :   -0.028385
   7 H :    0.018573
   8 H :    0.025924
   9 C :   -0.047688
  10 H :    0.023040
  11 H :    0.015845
  12 C :   -0.066885
  13 H :    0.037951
  14 H :    0.029452
  15 H :    0.033621
  16 S :    0.421212
  17 C :   -0.193972
  18 C :   -0.065458
  19 C :   -0.059767
  20 C :   -0.200132
  21 H :    0.020288
  22 C :   -0.032103
  23 H :    0.023048
  24 H :    0.029170
  25 C :   -0.038425
  26 H :    0.028439
  27 H :    0.023945
  28 C :   -0.076301
  29 H :    0.027270
  30 H :    0.024745
  31 H :    0.029632
  32 H :    0.018568
  33 H :    0.026917

  Mayer bond orders larger than 0.100000
B(  0-S ,  1-C ) :   1.1540 B(  0-S ,  4-C ) :   1.1619 B(  1-C ,  2-C ) :   1.5860
B(  1-C , 32-H ) :   0.9708 B(  2-C ,  3-C ) :   1.2705 B(  2-C ,  6-C ) :   1.0321
B(  3-C ,  4-C ) :   1.5504 B(  3-C ,  5-H ) :   0.9786 B(  4-C , 20-C ) :   1.0917
B(  6-C ,  7-H ) :   0.9261 B(  6-C ,  8-H ) :   0.9206 B(  6-C ,  9-C ) :   1.0741
B(  9-C , 10-H ) :   0.9500 B(  9-C , 11-H ) :   0.9454 B(  9-C , 12-C ) :   1.0964
B( 12-C , 13-H ) :   0.9729 B( 12-C , 14-H ) :   0.9705 B( 12-C , 15-H ) :   0.9703
B( 16-S , 17-C ) :   1.1520 B( 16-S , 20-C ) :   1.1505 B( 17-C , 18-C ) :   1.5921
B( 17-C , 33-H ) :   0.9721 B( 18-C , 19-C ) :   1.2673 B( 18-C , 21-H ) :   1.0002
B( 19-C , 20-C ) :   1.5392 B( 19-C , 22-C ) :   1.0459 B( 22-C , 23-H ) :   0.9305
B( 22-C , 24-H ) :   0.9387 B( 22-C , 25-C ) :   1.0524 B( 25-C , 26-H ) :   0.9572
B( 25-C , 27-H ) :   0.9538 B( 25-C , 28-C ) :   1.0890 B( 28-C , 29-H ) :   0.9721
B( 28-C , 30-H ) :   0.9744 B( 28-C , 31-H ) :   0.9690

Dispersion correction           -0.014055693
FINAL SINGLE POINT ENERGY     -1339.858128464359

DIPOLE MOMENT
-------------
                                X             Y             Z
Electronic contribution:    -17.66739     -22.34512      -7.15101
Nuclear contribution   :     18.02202      22.75500       7.51477
                        -----------------------------------------
Total Dipole Moment    :      0.35462       0.40988       0.36375
                        -----------------------------------------
Magnitude (a.u.)       :      0.65274
Magnitude (Debye)      :      1.65914

Rotational constants in cm-1:     0.018362     0.008922     0.006510
Rotational constants in MHz :   550.486385   267.476012   195.157120

                             ****ORCA TERMINATED NORMALLY****
TOTAL RUN TIME: 0 days 0 hours 0 minutes 30 seconds 771 msec
