                         Program Version 4.2.1 -  RELEASE  -
|  1> ! wB97X-D3 SP def2-SVP
|  2> %pal
|  3> nprocs 16
|  4> end
|  5>
|  6> * xyz 0 1
|  7> S 	 -77.5124 	 48.524 	 121.456
|  8> C 	 -79.2483 	 49.0438 	 121.449
|  9> C 	 -79.9269 	 48.2323 	 122.4
| 10> C 	 -79.1729 	 47.2201 	 123.056
| 11> C 	 -77.8732 	 47.2361 	 122.616
| 12> H 	 -79.5189 	 46.4959 	 123.684
| 13> C 	 -81.4571 	 48.5383 	 122.65
| 14> H 	 -82.0504 	 48.0208 	 121.894
| 15> H 	 -81.6355 	 49.6396 	 122.438
| 16> C 	 -81.9302 	 48.2117 	 124.023
| 17> H 	 -83.0141 	 48.5049 	 123.92
| 18> H 	 -81.9481 	 47.0968 	 124.126
| 19> C 	 -81.3821 	 49.0122 	 125.194
| 20> H 	 -81.6458 	 48.5068 	 126.084
| 21> H 	 -80.2868 	 49.0531 	 125.192
| 22> H 	 -81.5686 	 50.139 	 125.169
| 23> S 	 -75.2694 	 47.2192 	 123.358
| 24> C 	 -74.5501 	 45.6261 	 123.745
| 25> C 	 -75.4699 	 44.5924 	 123.894
| 26> C 	 -76.7787 	 45.0682 	 123.533
| 27> C 	 -76.8006 	 46.3697 	 123.114
| 28> H 	 -75.1591 	 43.5946 	 124.209
| 29> C 	 -78.0718 	 44.1905 	 123.569
| 30> H 	 -78.6067 	 44.3251 	 122.554
| 31> H 	 -78.8461 	 44.5268 	 124.262
| 32> C 	 -77.8666 	 42.6484 	 123.799
| 33> H 	 -77.4645 	 42.4782 	 124.841
| 34> H 	 -77.1721 	 42.3981 	 122.963
| 35> C 	 -79.2478 	 41.9853 	 123.564
| 36> H 	 -79.5198 	 42.2199 	 122.569
| 37> H 	 -79.9986 	 42.3714 	 124.216
| 38> H 	 -79.2015 	 40.9333 	 123.622
| 39> H 	 -79.6384 	 49.8735 	 120.856
| 40> H 	 -73.4721 	 45.5181 	 123.957
| 41> *
| 42>
| 43>                          ****END OF INPUT****

CARTESIAN COORDINATES (ANGSTROEM)
---------------------------------
  S    -77.512400   48.524000  121.456000
  C    -79.248300   49.043800  121.449000
  C    -79.926900   48.232300  122.400000
  C    -79.172900   47.220100  123.056000
  C    -77.873200   47.236100  122.616000
  H    -79.518900   46.495900  123.684000
  C    -81.457100   48.538300  122.650000
  H    -82.050400   48.020800  121.894000
  H    -81.635500   49.639600  122.438000
  C    -81.930200   48.211700  124.023000
  H    -83.014100   48.504900  123.920000
  H    -81.948100   47.096800  124.126000
  C    -81.382100   49.012200  125.194000
  H    -81.645800   48.506800  126.084000
  H    -80.286800   49.053100  125.192000
  H    -81.568600   50.139000  125.169000
  S    -75.269400   47.219200  123.358000
  C    -74.550100   45.626100  123.745000
  C    -75.469900   44.592400  123.894000
  C    -76.778700   45.068200  123.533000
  C    -76.800600   46.369700  123.114000
  H    -75.159100   43.594600  124.209000
  C    -78.071800   44.190500  123.569000
  H    -78.606700   44.325100  122.554000
  H    -78.846100   44.526800  124.262000
  C    -77.866600   42.648400  123.799000
  H    -77.464500   42.478200  124.841000
  H    -77.172100   42.398100  122.963000
  C    -79.247800   41.985300  123.564000
  H    -79.519800   42.219900  122.569000
  H    -79.998600   42.371400  124.216000
  H    -79.201500   40.933300  123.622000
  H    -79.638400   49.873500  120.856000
  H    -73.472100   45.518100  123.957000

 Total Charge           Charge          ....    0
 Multiplicity           Mult            ....    1
 Number of Electrons    NEL             ....  134
 Basis Dimension        Dim             ....  322

ORBITAL ENERGIES
----------------

  NO   OCC          E(Eh)            E(eV)
   0   2.0000     -88.966606     -2420.9044
   1   2.0000     -88.966410     -2420.8991
   2   2.0000     -10.331754      -281.1413
   3   2.0000     -10.324248      -280.9371
   4   2.0000     -10.322369      -280.8859
   5   2.0000     -10.321091      -280.8512
   6   2.0000     -10.307509      -280.4816
   7   2.0000     -10.307398      -280.4786
   8   2.0000     -10.303045      -280.3601
   9   2.0000     -10.301625      -280.3215
  10   2.0000     -10.299085      -280.2523
  11   2.0000     -10.295020      -280.1417
  12   2.0000     -10.290666      -280.0233
  13   2.0000     -10.289312      -279.9864
  14   2.0000     -10.279467      -279.7185
  15   2.0000     -10.273664      -279.5606
  16   2.0000      -8.080415      -219.8793
  17   2.0000      -8.079911      -219.8656
  18   2.0000      -6.038926      -164.3275
  19   2.0000      -6.038483      -164.3155
  20   2.0000      -6.035306      -164.2290
  21   2.0000      -6.034631      -164.2107
  22   2.0000      -6.030935      -164.1101
  23   2.0000      -6.030663      -164.1027
  24   2.0000      -1.001519       -27.2527
  25   2.0000      -0.973978       -26.5033
  26   2.0000      -0.910418       -24.7737
  27   2.0000      -0.904053       -24.6005
  28   2.0000      -0.864444       -23.5227
  29   2.0000      -0.852991       -23.2111
  30   2.0000      -0.839077       -22.8325
  31   2.0000      -0.813889       -22.1470
  32   2.0000      -0.782388       -21.2899
  33   2.0000      -0.770497       -20.9663
  34   2.0000      -0.705768       -19.2049
  35   2.0000      -0.696949       -18.9650
  36   2.0000      -0.684072       -18.6145
  37   2.0000      -0.652643       -17.7593
  38   2.0000      -0.641341       -17.4518
  39   2.0000      -0.624350       -16.9894
  40   2.0000      -0.595460       -16.2033
  41   2.0000      -0.572811       -15.5870
  42   2.0000      -0.561186       -15.2706
  43   2.0000      -0.554493       -15.0885
  44   2.0000      -0.534553       -14.5459
  45   2.0000      -0.523828       -14.2541
  46   2.0000      -0.519266       -14.1299
  47   2.0000      -0.510939       -13.9033
  48   2.0000      -0.506187       -13.7741
  49   2.0000      -0.493295       -13.4232
  50   2.0000      -0.485339       -13.2067
  51   2.0000      -0.477693       -12.9987
  52   2.0000      -0.470008       -12.7896
  53   2.0000      -0.461841       -12.5673
  54   2.0000      -0.457564       -12.4509
  55   2.0000      -0.455325       -12.3900
  56   2.0000      -0.440897       -11.9974
  57   2.0000      -0.439068       -11.9476
  58   2.0000      -0.433679       -11.8010
  59   2.0000      -0.428768       -11.6674
  60   2.0000      -0.423179       -11.5153
  61   2.0000      -0.417316       -11.3557
  62   2.0000      -0.392257       -10.6739
  63   2.0000      -0.349029        -9.4976
  64   2.0000      -0.333336        -9.0705
  65   2.0000      -0.331104        -9.0098
  66   2.0000      -0.284473        -7.7409
  67   0.0000       0.021655         0.5893
  68   0.0000       0.071205         1.9376
  69   0.0000       0.094968         2.5842
  70   0.0000       0.122459         3.3323
  71   0.0000       0.135849         3.6966

MULLIKEN ATOMIC CHARGES
-----------------------
   0 S :    0.095516
   1 C :   -0.139791
   2 C :   -0.080759
   3 C :    0.061308
   4 C :   -0.119689
   5 H :   -0.042941
   6 C :    0.045070
   7 H :    0.041743
   8 H :    0.025613
   9 C :   -0.113689
  10 H :    0.034657
  11 H :    0.038052
  12 C :   -0.028932
  13 H :    0.032642
  14 H :    0.029831
  15 H :    0.041637
  16 S :    0.096426
  17 C :   -0.098315
  18 C :   -0.041402
  19 C :   -0.001233
  20 C :   -0.131675
  21 H :    0.030714
  22 C :   -0.072307
  23 H :    0.048710
  24 H :    0.047386
  25 C :   -0.105696
  26 H :    0.052860
  27 H :    0.048099
  28 C :    0.017131
  29 H :    0.013648
  30 H :    0.024083
  31 H :    0.026725
  32 H :    0.061855
  33 H :    0.062720
Sum of atomic charges:   -0.0000000

LOEWDIN ATOMIC CHARGES
----------------------
   0 S :    0.371657
   1 C :   -0.192628
   2 C :   -0.052730
   3 C :   -0.060163
   4 C :   -0.172039
   5 H :    0.015357
   6 C :   -0.037075
   7 H :    0.032241
   8 H :    0.032419
   9 C :   -0.060043
  10 H :    0.034995
  11 H :    0.027523
  12 C :   -0.070635
  13 H :    0.024198
  14 H :    0.026303
  15 H :    0.038649
  16 S :    0.378338
  17 C :   -0.170877
  18 C :   -0.069306
  19 C :   -0.060460
  20 C :   -0.184859
  21 H :    0.037934
  22 C :   -0.043828
  23 H :    0.040518
  24 H :    0.022713
  25 C :   -0.044253
  26 H :    0.029107
  27 H :    0.031674
  28 C :   -0.052618
  29 H :    0.022116
  30 H :    0.022195
  31 H :    0.020946
  32 H :    0.032812
  33 H :    0.029819

  Mayer bond orders larger than 0.100000
B(  0-S ,  1-C ) :   1.1099 B(  0-S ,  4-C ) :   1.1553 B(  1-C ,  2-C ) :   1.6013
B(  1-C ,  4-C ) :   0.1027 B(  1-C , 32-H ) :   0.9746 B(  2-C ,  3-C ) :   1.2345
B(  2-C ,  6-C ) :   0.9932 B(  3-C ,  4-C ) :   1.5474 B(  3-C ,  5-H ) :   1.0090
B(  4-C , 20-C ) :   1.0531 B(  6-C ,  7-H ) :   0.9386 B(  6-C ,  8-H ) :   0.9484
B(  6-C ,  9-C ) :   1.0948 B(  9-C , 10-H ) :   0.9489 B(  9-C , 11-H ) :   0.9466
B(  9-C , 12-C ) :   1.0731 B( 12-C , 13-H ) :   0.9726 B( 12-C , 14-H ) :   0.9740
B( 12-C , 15-H ) :   0.9690 B( 16-S , 17-C ) :   1.1393 B( 16-S , 20-C ) :   1.1234
B( 17-C , 18-C ) :   1.6287 B( 17-C , 33-H ) :   0.9609 B( 18-C , 19-C ) :   1.2132
B( 18-C , 21-H ) :   0.9895 B( 19-C , 20-C ) :   1.6506 B( 19-C , 22-C ) :   1.0072
B( 22-C , 23-H ) :   0.9436 B( 22-C , 24-H ) :   0.9368 B( 22-C , 25-C ) :   1.0639
B( 25-C , 26-H ) :   0.9500 B( 25-C , 27-H ) :   0.9554 B( 25-C , 28-C ) :   1.0797
B( 28-C , 29-H ) :   0.9723 B( 28-C , 30-H ) :   0.9740 B( 28-C , 31-H ) :   0.9724

Dispersion correction           -0.013953702
FINAL SINGLE POINT ENERGY     -1339.862374048280

DIPOLE MOMENT
-------------
                                X             Y             Z
Electronic contribution:     23.48948      12.97195      -9.55214
Nuclear contribution   :    -24.03171     -13.38765       9.80089
                        -----------------------------------------
Total Dipole Moment    :     -0.54223      -0.41570       0.24875
                        -----------------------------------------
Magnitude (a.u.)       :      0.72712
Magnitude (Debye)      :      1.84818

Rotational constants in cm-1:     0.015808     0.009567     0.006916
Rotational constants in MHz :   473.925553   286.801257   207.351410

                             ****ORCA TERMINATED NORMALLY****
TOTAL RUN TIME: 0 days 0 hours 0 minutes 31 seconds 878 msec
