                         Program Version 4.2.1 -  RELEASE  -
|  1> ! wB97X-D3 SP def2-SVP
|  2> %pal
|  3> nprocs 16
|  4> end
|  5>
|  6> * xyz 0 1
|  7> S 	 -22.6965 	 -6.60221 	 86.3158
|  8> C 	 -23.3289 	 -7.64544 	 84.9966
|  9> C 	 -22.3894 	 -8.62322 	 84.6385
| 10> C 	 -21.2723 	 -8.50513 	 85.482
| 11> C 	 -21.1744 	 -7.44418 	 86.3343
| 12> H 	 -20.5269 	 -9.23114 	 85.5502
| 13> C 	 -22.4599 	 -9.62632 	 83.4558
| 14> H 	 -21.5259 	 -10.2372 	 83.5142
| 15> H 	 -22.3434 	 -9.13239 	 82.5486
| 16> C 	 -23.5139 	 -10.6712 	 83.5551
| 17> H 	 -24.4996 	 -10.2622 	 83.4499
| 18> H 	 -23.4525 	 -11.2655 	 82.6446
| 19> C 	 -23.254 	 -11.6494 	 84.6891
| 20> H 	 -22.5291 	 -12.3854 	 84.4104
| 21> H 	 -22.9941 	 -11.079 	 85.5972
| 22> H 	 -24.124 	 -12.3058 	 84.9274
| 23> S 	 -20.3451 	 -6.65202 	 88.854
| 24> C 	 -18.7135 	 -6.16011 	 89.0822
| 25> C 	 -17.9476 	 -6.32827 	 87.9363
| 26> C 	 -18.6737 	 -6.81922 	 86.8277
| 27> C 	 -20.0402 	 -6.97395 	 87.1242
| 28> H 	 -16.9193 	 -6.106 	 87.9827
| 29> C 	 -18.0405 	 -7.08634 	 85.4845
| 30> H 	 -18.7174 	 -7.73304 	 84.953
| 31> H 	 -17.3255 	 -7.80248 	 85.7567
| 32> C 	 -17.5391 	 -5.82097 	 84.6802
| 33> H 	 -16.6698 	 -5.47726 	 85.2363
| 34> H 	 -18.2564 	 -4.98009 	 84.6986
| 35> C 	 -17.0271 	 -6.06372 	 83.2696
| 36> H 	 -16.3446 	 -6.9184 	 83.2337
| 37> H 	 -16.5181 	 -5.24796 	 82.8375
| 38> H 	 -17.8186 	 -6.41387 	 82.6766
| 39> H 	 -24.219 	 -7.46993 	 84.3833
| 40> H 	 -18.2331 	 -5.80191 	 89.9437
| 41> *
| 42>
| 43>                          ****END OF INPUT****

CARTESIAN COORDINATES (ANGSTROEM)
---------------------------------
  S    -22.696500   -6.602210   86.315800
  C    -23.328900   -7.645440   84.996600
  C    -22.389400   -8.623220   84.638500
  C    -21.272300   -8.505130   85.482000
  C    -21.174400   -7.444180   86.334300
  H    -20.526900   -9.231140   85.550200
  C    -22.459900   -9.626320   83.455800
  H    -21.525900  -10.237200   83.514200
  H    -22.343400   -9.132390   82.548600
  C    -23.513900  -10.671200   83.555100
  H    -24.499600  -10.262200   83.449900
  H    -23.452500  -11.265500   82.644600
  C    -23.254000  -11.649400   84.689100
  H    -22.529100  -12.385400   84.410400
  H    -22.994100  -11.079000   85.597200
  H    -24.124000  -12.305800   84.927400
  S    -20.345100   -6.652020   88.854000
  C    -18.713500   -6.160110   89.082200
  C    -17.947600   -6.328270   87.936300
  C    -18.673700   -6.819220   86.827700
  C    -20.040200   -6.973950   87.124200
  H    -16.919300   -6.106000   87.982700
  C    -18.040500   -7.086340   85.484500
  H    -18.717400   -7.733040   84.953000
  H    -17.325500   -7.802480   85.756700
  C    -17.539100   -5.820970   84.680200
  H    -16.669800   -5.477260   85.236300
  H    -18.256400   -4.980090   84.698600
  C    -17.027100   -6.063720   83.269600
  H    -16.344600   -6.918400   83.233700
  H    -16.518100   -5.247960   82.837500
  H    -17.818600   -6.413870   82.676600
  H    -24.219000   -7.469930   84.383300
  H    -18.233100   -5.801910   89.943700

 Total Charge           Charge          ....    0
 Multiplicity           Mult            ....    1
 Number of Electrons    NEL             ....  134
 Basis Dimension        Dim             ....  322

ORBITAL ENERGIES
----------------

  NO   OCC          E(Eh)            E(eV)
   0   2.0000     -88.967298     -2420.9233
   1   2.0000     -88.965621     -2420.8776
   2   2.0000     -10.330092      -281.0961
   3   2.0000     -10.326494      -280.9982
   4   2.0000     -10.319134      -280.7979
   5   2.0000     -10.312505      -280.6175
   6   2.0000     -10.305335      -280.4224
   7   2.0000     -10.302202      -280.3372
   8   2.0000     -10.292162      -280.0640
   9   2.0000     -10.291041      -280.0335
  10   2.0000     -10.288036      -279.9517
  11   2.0000     -10.287762      -279.9442
  12   2.0000     -10.283175      -279.8194
  13   2.0000     -10.281293      -279.7682
  14   2.0000     -10.277284      -279.6591
  15   2.0000     -10.269853      -279.4569
  16   2.0000      -8.081838      -219.9180
  17   2.0000      -8.079782      -219.8620
  18   2.0000      -6.040256      -164.3637
  19   2.0000      -6.038375      -164.3125
  20   2.0000      -6.036369      -164.2580
  21   2.0000      -6.034318      -164.2021
  22   2.0000      -6.032707      -164.1583
  23   2.0000      -6.030516      -164.0987
  24   2.0000      -1.004855       -27.3435
  25   2.0000      -0.982891       -26.7458
  26   2.0000      -0.919359       -25.0170
  27   2.0000      -0.906333       -24.6626
  28   2.0000      -0.867729       -23.6121
  29   2.0000      -0.857440       -23.3321
  30   2.0000      -0.842784       -22.9333
  31   2.0000      -0.813445       -22.1350
  32   2.0000      -0.788610       -21.4592
  33   2.0000      -0.776069       -21.1179
  34   2.0000      -0.709675       -19.3112
  35   2.0000      -0.706415       -19.2225
  36   2.0000      -0.699378       -19.0310
  37   2.0000      -0.660541       -17.9742
  38   2.0000      -0.639913       -17.4129
  39   2.0000      -0.618746       -16.8369
  40   2.0000      -0.592599       -16.1254
  41   2.0000      -0.577760       -15.7216
  42   2.0000      -0.565830       -15.3970
  43   2.0000      -0.559519       -15.2253
  44   2.0000      -0.544868       -14.8266
  45   2.0000      -0.533500       -14.5173
  46   2.0000      -0.517519       -14.0824
  47   2.0000      -0.508176       -13.8282
  48   2.0000      -0.502848       -13.6832
  49   2.0000      -0.501177       -13.6377
  50   2.0000      -0.485694       -13.2164
  51   2.0000      -0.474240       -12.9047
  52   2.0000      -0.471729       -12.8364
  53   2.0000      -0.465294       -12.6613
  54   2.0000      -0.461057       -12.5460
  55   2.0000      -0.450887       -12.2693
  56   2.0000      -0.445194       -12.1143
  57   2.0000      -0.437797       -11.9131
  58   2.0000      -0.433154       -11.7867
  59   2.0000      -0.428002       -11.6465
  60   2.0000      -0.421450       -11.4682
  61   2.0000      -0.412218       -11.2170
  62   2.0000      -0.409706       -11.1487
  63   2.0000      -0.344283        -9.3684
  64   2.0000      -0.334593        -9.1047
  65   2.0000      -0.331236        -9.0134
  66   2.0000      -0.288713        -7.8563
  67   0.0000       0.026999         0.7347
  68   0.0000       0.067115         1.8263
  69   0.0000       0.108938         2.9644
  70   0.0000       0.119122         3.2415
  71   0.0000       0.138696         3.7741

MULLIKEN ATOMIC CHARGES
-----------------------
   0 S :    0.104738
   1 C :   -0.128554
   2 C :   -0.108142
   3 C :    0.038316
   4 C :   -0.142151
   5 H :   -0.010818
   6 C :    0.086490
   7 H :    0.008956
   8 H :    0.028297
   9 C :   -0.038569
  10 H :    0.021011
  11 H :    0.015611
  12 C :   -0.065926
  13 H :    0.027905
  14 H :    0.052786
  15 H :    0.034253
  16 S :    0.112488
  17 C :   -0.056304
  18 C :   -0.047207
  19 C :   -0.051426
  20 C :   -0.163761
  21 H :    0.000468
  22 C :    0.136901
  23 H :   -0.011988
  24 H :    0.011756
  25 C :   -0.072566
  26 H :    0.022084
  27 H :    0.046111
  28 C :   -0.004780
  29 H :    0.013813
  30 H :    0.033562
  31 H :    0.018718
  32 H :    0.053563
  33 H :    0.034365
Sum of atomic charges:    0.0000000

LOEWDIN ATOMIC CHARGES
----------------------
   0 S :    0.395654
   1 C :   -0.187138
   2 C :   -0.062790
   3 C :   -0.068772
   4 C :   -0.197281
   5 H :    0.017271
   6 C :   -0.023340
   7 H :    0.035225
   8 H :    0.024944
   9 C :   -0.044975
  10 H :    0.017596
  11 H :    0.026385
  12 C :   -0.066420
  13 H :    0.023238
  14 H :    0.031029
  15 H :    0.032247
  16 S :    0.408153
  17 C :   -0.184444
  18 C :   -0.068853
  19 C :   -0.046268
  20 C :   -0.192277
  21 H :    0.024215
  22 C :   -0.029335
  23 H :    0.023856
  24 H :    0.029358
  25 C :   -0.033441
  26 H :    0.022606
  27 H :    0.031055
  28 C :   -0.059735
  29 H :    0.026131
  30 H :    0.023636
  31 H :    0.018986
  32 H :    0.031533
  33 H :    0.021951

  Mayer bond orders larger than 0.100000
B(  0-S ,  1-C ) :   1.1419 B(  0-S ,  4-C ) :   1.1437 B(  1-C ,  2-C ) :   1.6006
B(  1-C ,  4-C ) :   0.1061 B(  1-C , 32-H ) :   0.9660 B(  2-C ,  3-C ) :   1.2613
B(  2-C ,  6-C ) :   0.9946 B(  3-C ,  4-C ) :   1.5831 B(  3-C ,  5-H ) :   0.9919
B(  4-C , 20-C ) :   1.0342 B(  6-C ,  7-H ) :   0.9412 B(  6-C ,  8-H ) :   0.9409
B(  6-C ,  9-C ) :   1.0796 B(  9-C , 10-H ) :   0.9590 B(  9-C , 11-H ) :   0.9494
B(  9-C , 12-C ) :   1.0671 B( 12-C , 13-H ) :   0.9727 B( 12-C , 14-H ) :   0.9796
B( 12-C , 15-H ) :   0.9718 B( 16-S , 17-C ) :   1.1612 B( 16-S , 20-C ) :   1.1405
B( 17-C , 18-C ) :   1.6023 B( 17-C , 20-C ) :   0.1038 B( 17-C , 33-H ) :   0.9700
B( 18-C , 19-C ) :   1.2499 B( 18-C , 21-H ) :   0.9977 B( 19-C , 20-C ) :   1.5725
B( 19-C , 22-C ) :   1.0382 B( 22-C , 23-H ) :   0.9231 B( 22-C , 24-H ) :   0.9174
B( 22-C , 25-C ) :   1.0389 B( 25-C , 26-H ) :   0.9537 B( 25-C , 27-H ) :   0.9619
B( 25-C , 28-C ) :   1.0920 B( 28-C , 29-H ) :   0.9698 B( 28-C , 30-H ) :   0.9740
B( 28-C , 31-H ) :   0.9738

Dispersion correction           -0.013897257
FINAL SINGLE POINT ENERGY     -1339.863246623111

DIPOLE MOMENT
-------------
                                X             Y             Z
Electronic contribution:     -7.86514      12.83558      21.72941
Nuclear contribution   :      8.35335     -13.17175     -22.31034
                        -----------------------------------------
Total Dipole Moment    :      0.48821      -0.33618      -0.58093
                        -----------------------------------------
Magnitude (a.u.)       :      0.82996
Magnitude (Debye)      :      2.10959

Rotational constants in cm-1:     0.017614     0.008444     0.006695
Rotational constants in MHz :   528.052151   253.146835   200.721626

                             ****ORCA TERMINATED NORMALLY****
TOTAL RUN TIME: 0 days 0 hours 0 minutes 32 seconds 958 msec
