                         Program Version 4.2.1 -  RELEASE  -
|  1> ! wB97X-D3 SP def2-SVP
|  2> %pal
|  3> nprocs 16
|  4> end
|  5>
|  6> * xyz 0 1
|  7> S 	 -31.6868 	 61.7402 	 113.067
|  8> C 	 -31.2575 	 60.0426 	 112.674
|  9> C 	 -31.3352 	 59.2789 	 113.779
| 10> C 	 -31.6481 	 60.0504 	 114.923
| 11> C 	 -32.0213 	 61.3606 	 114.7
| 12> H 	 -31.4894 	 59.6661 	 115.948
| 13> C 	 -31.0193 	 57.7449 	 113.745
| 14> H 	 -31.2058 	 57.3946 	 114.648
| 15> H 	 -29.9385 	 57.5998 	 113.621
| 16> C 	 -31.8213 	 56.9213 	 112.739
| 17> H 	 -32.9339 	 56.9904 	 112.758
| 18> H 	 -31.5529 	 57.2888 	 111.789
| 19> C 	 -31.605 	 55.444 	 112.843
| 20> H 	 -31.9038 	 55.0341 	 113.796
| 21> H 	 -32.2052 	 54.8031 	 112.203
| 22> H 	 -30.5915 	 55.2494 	 112.654
| 23> S 	 -30.791 	 63.4697 	 115.936
| 24> C 	 -31.5487 	 64.1447 	 117.391
| 25> C 	 -32.659 	 63.4107 	 117.863
| 26> C 	 -33.0354 	 62.4255 	 116.89
| 27> C 	 -32.1992 	 62.3877 	 115.747
| 28> H 	 -33.0147 	 63.7572 	 118.817
| 29> C 	 -34.1629 	 61.4406 	 117.237
| 30> H 	 -34.4006 	 61.7303 	 118.257
| 31> H 	 -33.9123 	 60.3915 	 117.28
| 32> C 	 -35.4547 	 61.6514 	 116.44
| 33> H 	 -35.2904 	 61.6565 	 115.478
| 34> H 	 -35.7329 	 62.7364 	 116.549
| 35> C 	 -36.5634 	 60.5793 	 116.811
| 36> H 	 -36.7356 	 60.745 	 117.886
| 37> H 	 -36.2991 	 59.49 	 116.654
| 38> H 	 -37.5026 	 60.7917 	 116.332
| 39> H 	 -31.0844 	 59.7188 	 111.695
| 40> H 	 -31.0818 	 64.9468 	 117.95
| 41> *
| 42>
| 43>                          ****END OF INPUT****

CARTESIAN COORDINATES (ANGSTROEM)
---------------------------------
  S    -31.686800   61.740200  113.067000
  C    -31.257500   60.042600  112.674000
  C    -31.335200   59.278900  113.779000
  C    -31.648100   60.050400  114.923000
  C    -32.021300   61.360600  114.700000
  H    -31.489400   59.666100  115.948000
  C    -31.019300   57.744900  113.745000
  H    -31.205800   57.394600  114.648000
  H    -29.938500   57.599800  113.621000
  C    -31.821300   56.921300  112.739000
  H    -32.933900   56.990400  112.758000
  H    -31.552900   57.288800  111.789000
  C    -31.605000   55.444000  112.843000
  H    -31.903800   55.034100  113.796000
  H    -32.205200   54.803100  112.203000
  H    -30.591500   55.249400  112.654000
  S    -30.791000   63.469700  115.936000
  C    -31.548700   64.144700  117.391000
  C    -32.659000   63.410700  117.863000
  C    -33.035400   62.425500  116.890000
  C    -32.199200   62.387700  115.747000
  H    -33.014700   63.757200  118.817000
  C    -34.162900   61.440600  117.237000
  H    -34.400600   61.730300  118.257000
  H    -33.912300   60.391500  117.280000
  C    -35.454700   61.651400  116.440000
  H    -35.290400   61.656500  115.478000
  H    -35.732900   62.736400  116.549000
  C    -36.563400   60.579300  116.811000
  H    -36.735600   60.745000  117.886000
  H    -36.299100   59.490000  116.654000
  H    -37.502600   60.791700  116.332000
  H    -31.084400   59.718800  111.695000
  H    -31.081800   64.946800  117.950000

 Total Charge           Charge          ....    0
 Multiplicity           Mult            ....    1
 Number of Electrons    NEL             ....  134
 Basis Dimension        Dim             ....  322

ORBITAL ENERGIES
----------------

  NO   OCC          E(Eh)            E(eV)
   0   2.0000     -88.967958     -2420.9412
   1   2.0000     -88.962570     -2420.7946
   2   2.0000     -10.332597      -281.1642
   3   2.0000     -10.327457      -281.0244
   4   2.0000     -10.321714      -280.8681
   5   2.0000     -10.313591      -280.6471
   6   2.0000     -10.309648      -280.5398
   7   2.0000     -10.300688      -280.2960
   8   2.0000     -10.299025      -280.2507
   9   2.0000     -10.293379      -280.0971
  10   2.0000     -10.288329      -279.9597
  11   2.0000     -10.287994      -279.9505
  12   2.0000     -10.284047      -279.8432
  13   2.0000     -10.283319      -279.8233
  14   2.0000     -10.275759      -279.6176
  15   2.0000     -10.271347      -279.4976
  16   2.0000      -8.081716      -219.9147
  17   2.0000      -8.077610      -219.8029
  18   2.0000      -6.040096      -164.3594
  19   2.0000      -6.036513      -164.2619
  20   2.0000      -6.036074      -164.2499
  21   2.0000      -6.032495      -164.1525
  22   2.0000      -6.032062      -164.1408
  23   2.0000      -6.028391      -164.0409
  24   2.0000      -1.006086       -27.3770
  25   2.0000      -0.978646       -26.6303
  26   2.0000      -0.917479       -24.9659
  27   2.0000      -0.903083       -24.5741
  28   2.0000      -0.872064       -23.7301
  29   2.0000      -0.844936       -22.9919
  30   2.0000      -0.844006       -22.9666
  31   2.0000      -0.811293       -22.0764
  32   2.0000      -0.788888       -21.4667
  33   2.0000      -0.771168       -20.9846
  34   2.0000      -0.713422       -19.4132
  35   2.0000      -0.709047       -19.2941
  36   2.0000      -0.692433       -18.8420
  37   2.0000      -0.660748       -17.9799
  38   2.0000      -0.643057       -17.4985
  39   2.0000      -0.616885       -16.7863
  40   2.0000      -0.593485       -16.1495
  41   2.0000      -0.576686       -15.6924
  42   2.0000      -0.571598       -15.5540
  43   2.0000      -0.556306       -15.1379
  44   2.0000      -0.527480       -14.3535
  45   2.0000      -0.524432       -14.2705
  46   2.0000      -0.516944       -14.0668
  47   2.0000      -0.509216       -13.8565
  48   2.0000      -0.500306       -13.6140
  49   2.0000      -0.497147       -13.5281
  50   2.0000      -0.494429       -13.4541
  51   2.0000      -0.481197       -13.0940
  52   2.0000      -0.471299       -12.8247
  53   2.0000      -0.467426       -12.7193
  54   2.0000      -0.456435       -12.4202
  55   2.0000      -0.452898       -12.3240
  56   2.0000      -0.444223       -12.0879
  57   2.0000      -0.434810       -11.8318
  58   2.0000      -0.431306       -11.7364
  59   2.0000      -0.427178       -11.6241
  60   2.0000      -0.420667       -11.4469
  61   2.0000      -0.413788       -11.2597
  62   2.0000      -0.410222       -11.1627
  63   2.0000      -0.340544        -9.2667
  64   2.0000      -0.334120        -9.0919
  65   2.0000      -0.327102        -8.9009
  66   2.0000      -0.297161        -8.0862
  67   0.0000       0.028690         0.7807
  68   0.0000       0.060409         1.6438
  69   0.0000       0.101492         2.7617
  70   0.0000       0.121136         3.2963
  71   0.0000       0.133382         3.6295

MULLIKEN ATOMIC CHARGES
-----------------------
   0 S :    0.090312
   1 C :   -0.123060
   2 C :   -0.082779
   3 C :    0.017031
   4 C :   -0.147211
   5 H :    0.025200
   6 C :    0.163082
   7 H :   -0.039053
   8 H :    0.039378
   9 C :   -0.074119
  10 H :    0.033787
  11 H :    0.010395
  12 C :   -0.022150
  13 H :    0.019240
  14 H :    0.025595
  15 H :    0.014529
  16 S :    0.104463
  17 C :   -0.109523
  18 C :   -0.033078
  19 C :   -0.045816
  20 C :   -0.130552
  21 H :    0.024837
  22 C :    0.081863
  23 H :    0.005891
  24 H :    0.028861
  25 C :   -0.030047
  26 H :   -0.006822
  27 H :    0.021683
  28 C :   -0.061839
  29 H :    0.026650
  30 H :    0.050334
  31 H :    0.034501
  32 H :    0.031282
  33 H :    0.057135
Sum of atomic charges:    0.0000000

LOEWDIN ATOMIC CHARGES
----------------------
   0 S :    0.401313
   1 C :   -0.166425
   2 C :   -0.062025
   3 C :   -0.065756
   4 C :   -0.217069
   5 H :    0.034351
   6 C :   -0.010050
   7 H :    0.003991
   8 H :    0.038819
   9 C :   -0.038515
  10 H :    0.032451
  11 H :    0.013179
  12 C :   -0.060205
  13 H :    0.023679
  14 H :    0.028318
  15 H :    0.015894
  16 S :    0.391326
  17 C :   -0.172325
  18 C :   -0.071040
  19 C :   -0.046633
  20 C :   -0.191679
  21 H :    0.036033
  22 C :   -0.026700
  23 H :    0.027298
  24 H :    0.026313
  25 C :   -0.029841
  26 H :   -0.002840
  27 H :    0.033047
  28 C :   -0.067632
  29 H :    0.025193
  30 H :    0.034014
  31 H :    0.023588
  32 H :    0.015575
  33 H :    0.024355

  Mayer bond orders larger than 0.100000
B(  0-S ,  1-C ) :   1.1342 B(  0-S ,  4-C ) :   1.1607 B(  1-C ,  2-C ) :   1.6094
B(  1-C , 32-H ) :   0.9821 B(  2-C ,  3-C ) :   1.2687 B(  2-C ,  6-C ) :   0.9984
B(  3-C ,  4-C ) :   1.5603 B(  3-C ,  5-H ) :   0.9848 B(  4-C , 20-C ) :   1.0127
B(  6-C ,  7-H ) :   0.9299 B(  6-C ,  8-H ) :   0.9367 B(  6-C ,  9-C ) :   1.0568
B(  9-C , 10-H ) :   0.9588 B(  9-C , 11-H ) :   0.9545 B(  9-C , 12-C ) :   1.0957
B( 12-C , 13-H ) :   0.9721 B( 12-C , 14-H ) :   0.9716 B( 12-C , 15-H ) :   0.9731
B( 16-S , 17-C ) :   1.1677 B( 16-S , 20-C ) :   1.1411 B( 17-C , 18-C ) :   1.6130
B( 17-C , 20-C ) :   0.1023 B( 17-C , 33-H ) :   0.9648 B( 18-C , 19-C ) :   1.2327
B( 18-C , 21-H ) :   0.9943 B( 19-C , 20-C ) :   1.5972 B( 19-C , 22-C ) :   1.0266
B( 22-C , 23-H ) :   0.9348 B( 22-C , 24-H ) :   0.9431 B( 22-C , 25-C ) :   1.0563
B( 25-C , 26-H ) :   0.9616 B( 25-C , 27-H ) :   0.9485 B( 25-C , 28-C ) :   1.0639
B( 28-C , 29-H ) :   0.9782 B( 28-C , 30-H ) :   0.9759 B( 28-C , 31-H ) :   0.9762

Dispersion correction           -0.013416859
FINAL SINGLE POINT ENERGY     -1339.836927414800

DIPOLE MOMENT
-------------
                                X             Y             Z
Electronic contribution:     14.73149      25.05037      -2.51918
Nuclear contribution   :    -14.76968     -25.64421       2.88009
                        -----------------------------------------
Total Dipole Moment    :     -0.03819      -0.59383       0.36091
                        -----------------------------------------
Magnitude (a.u.)       :      0.69596
Magnitude (Debye)      :      1.76898

Rotational constants in cm-1:     0.017958     0.008002     0.006289
Rotational constants in MHz :   538.364293   239.882195   188.527268

                             ****ORCA TERMINATED NORMALLY****
TOTAL RUN TIME: 0 days 0 hours 0 minutes 29 seconds 104 msec
