                         Program Version 4.2.1 -  RELEASE  -
|  1> ! wB97X-D3 SP def2-SVP
|  2> %pal
|  3> nprocs 16
|  4> end
|  5>
|  6> * xyz 0 1
|  7> S 	 -14.0684 	 33.7555 	 36.9571
|  8> C 	 -13.2508 	 34.5879 	 35.6503
|  9> C 	 -14.0869 	 34.9019 	 34.5836
| 10> C 	 -15.3704 	 34.24 	 34.7377
| 11> C 	 -15.4655 	 33.5895 	 35.9267
| 12> H 	 -16.1915 	 34.2699 	 34.0733
| 13> C 	 -13.8008 	 36.0051 	 33.549
| 14> H 	 -13.8755 	 35.5083 	 32.5067
| 15> H 	 -12.6814 	 36.16 	 33.6619
| 16> C 	 -14.545 	 37.3027 	 33.4966
| 17> H 	 -15.616 	 37.1007 	 33.4616
| 18> H 	 -14.4996 	 37.7994 	 34.4101
| 19> C 	 -14.0772 	 38.1304 	 32.2339
| 20> H 	 -13.0003 	 38.346 	 32.2816
| 21> H 	 -14.2546 	 37.7233 	 31.2674
| 22> H 	 -14.4845 	 39.1989 	 32.1374
| 23> S 	 -16.7376 	 32.448 	 38.147
| 24> C 	 -17.9477 	 31.2367 	 37.9147
| 25> C 	 -18.259 	 31.0095 	 36.5936
| 26> C 	 -17.5297 	 31.8795 	 35.742
| 27> C 	 -16.6087 	 32.6685 	 36.3838
| 28> H 	 -18.9661 	 30.2431 	 36.3083
| 29> C 	 -17.6727 	 31.6849 	 34.2522
| 30> H 	 -17.6668 	 30.5331 	 34.1721
| 31> H 	 -16.7522 	 32.0838 	 33.7386
| 32> C 	 -18.9448 	 32.3233 	 33.6331
| 33> H 	 -19.7991 	 31.9248 	 34.0779
| 34> H 	 -18.8056 	 32.1026 	 32.5969
| 35> C 	 -19.1193 	 33.7945 	 33.7983
| 36> H 	 -19.9586 	 34.0924 	 33.2863
| 37> H 	 -18.3362 	 34.2425 	 33.2263
| 38> H 	 -19.2716 	 34.2041 	 34.8074
| 39> H 	 -12.3709 	 35.1475 	 35.8267
| 40> H 	 -18.4959 	 30.737 	 38.6913
| 41> *
| 42>
| 43>                          ****END OF INPUT****

CARTESIAN COORDINATES (ANGSTROEM)
---------------------------------
  S    -14.068400   33.755500   36.957100
  C    -13.250800   34.587900   35.650300
  C    -14.086900   34.901900   34.583600
  C    -15.370400   34.240000   34.737700
  C    -15.465500   33.589500   35.926700
  H    -16.191500   34.269900   34.073300
  C    -13.800800   36.005100   33.549000
  H    -13.875500   35.508300   32.506700
  H    -12.681400   36.160000   33.661900
  C    -14.545000   37.302700   33.496600
  H    -15.616000   37.100700   33.461600
  H    -14.499600   37.799400   34.410100
  C    -14.077200   38.130400   32.233900
  H    -13.000300   38.346000   32.281600
  H    -14.254600   37.723300   31.267400
  H    -14.484500   39.198900   32.137400
  S    -16.737600   32.448000   38.147000
  C    -17.947700   31.236700   37.914700
  C    -18.259000   31.009500   36.593600
  C    -17.529700   31.879500   35.742000
  C    -16.608700   32.668500   36.383800
  H    -18.966100   30.243100   36.308300
  C    -17.672700   31.684900   34.252200
  H    -17.666800   30.533100   34.172100
  H    -16.752200   32.083800   33.738600
  C    -18.944800   32.323300   33.633100
  H    -19.799100   31.924800   34.077900
  H    -18.805600   32.102600   32.596900
  C    -19.119300   33.794500   33.798300
  H    -19.958600   34.092400   33.286300
  H    -18.336200   34.242500   33.226300
  H    -19.271600   34.204100   34.807400
  H    -12.370900   35.147500   35.826700
  H    -18.495900   30.737000   38.691300

 Total Charge           Charge          ....    0
 Multiplicity           Mult            ....    1
 Number of Electrons    NEL             ....  134
 Basis Dimension        Dim             ....  322

ORBITAL ENERGIES
----------------

  NO   OCC          E(Eh)            E(eV)
   0   2.0000     -88.967674     -2420.9335
   1   2.0000     -88.964506     -2420.8473
   2   2.0000     -10.333915      -281.2001
   3   2.0000     -10.330660      -281.1116
   4   2.0000     -10.314809      -280.6802
   5   2.0000     -10.310317      -280.5580
   6   2.0000     -10.306931      -280.4658
   7   2.0000     -10.303028      -280.3596
   8   2.0000     -10.299255      -280.2570
   9   2.0000     -10.298615      -280.2396
  10   2.0000     -10.291290      -280.0402
  11   2.0000     -10.290379      -280.0154
  12   2.0000     -10.289860      -280.0013
  13   2.0000     -10.288742      -279.9709
  14   2.0000     -10.279547      -279.7207
  15   2.0000     -10.267340      -279.3885
  16   2.0000      -8.082518      -219.9365
  17   2.0000      -8.079342      -219.8501
  18   2.0000      -6.041109      -164.3869
  19   2.0000      -6.037830      -164.2977
  20   2.0000      -6.037257      -164.2821
  21   2.0000      -6.033939      -164.1918
  22   2.0000      -6.032944      -164.1648
  23   2.0000      -6.030044      -164.0858
  24   2.0000      -1.005421       -27.3589
  25   2.0000      -0.985592       -26.8193
  26   2.0000      -0.914688       -24.8899
  27   2.0000      -0.909256       -24.7421
  28   2.0000      -0.862491       -23.4696
  29   2.0000      -0.859296       -23.3826
  30   2.0000      -0.846328       -23.0298
  31   2.0000      -0.816232       -22.2108
  32   2.0000      -0.782869       -21.3029
  33   2.0000      -0.772930       -21.0325
  34   2.0000      -0.714196       -19.4343
  35   2.0000      -0.701058       -19.0768
  36   2.0000      -0.688735       -18.7414
  37   2.0000      -0.662427       -18.0256
  38   2.0000      -0.642896       -17.4941
  39   2.0000      -0.622637       -16.9428
  40   2.0000      -0.599123       -16.3030
  41   2.0000      -0.569534       -15.4978
  42   2.0000      -0.558058       -15.1855
  43   2.0000      -0.553758       -15.0685
  44   2.0000      -0.546944       -14.8831
  45   2.0000      -0.522778       -14.2255
  46   2.0000      -0.518494       -14.1089
  47   2.0000      -0.506835       -13.7917
  48   2.0000      -0.499729       -13.5983
  49   2.0000      -0.493810       -13.4373
  50   2.0000      -0.486659       -13.2427
  51   2.0000      -0.482580       -13.1317
  52   2.0000      -0.470195       -12.7947
  53   2.0000      -0.464879       -12.6500
  54   2.0000      -0.459742       -12.5102
  55   2.0000      -0.457546       -12.4505
  56   2.0000      -0.449560       -12.2332
  57   2.0000      -0.443171       -12.0593
  58   2.0000      -0.435681       -11.8555
  59   2.0000      -0.425360       -11.5746
  60   2.0000      -0.422318       -11.4919
  61   2.0000      -0.413483       -11.2514
  62   2.0000      -0.406939       -11.0734
  63   2.0000      -0.355052        -9.6615
  64   2.0000      -0.334883        -9.1126
  65   2.0000      -0.327618        -8.9149
  66   2.0000      -0.288973        -7.8633
  67   0.0000       0.029356         0.7988
  68   0.0000       0.071923         1.9571
  69   0.0000       0.101853         2.7716
  70   0.0000       0.119116         3.2413
  71   0.0000       0.131206         3.5703

MULLIKEN ATOMIC CHARGES
-----------------------
   0 S :    0.101183
   1 C :   -0.089516
   2 C :   -0.083084
   3 C :    0.015633
   4 C :   -0.081091
   5 H :   -0.031874
   6 C :   -0.015000
   7 H :    0.038320
   8 H :    0.025409
   9 C :    0.020414
  10 H :    0.023380
  11 H :    0.016558
  12 C :   -0.083240
  13 H :    0.031483
  14 H :    0.031756
  15 H :    0.039839
  16 S :    0.082908
  17 C :   -0.069408
  18 C :   -0.042939
  19 C :   -0.052196
  20 C :   -0.127477
  21 H :    0.021540
  22 C :   -0.019276
  23 H :    0.047292
  24 H :    0.033059
  25 C :   -0.018060
  26 H :    0.010813
  27 H :    0.028252
  28 C :   -0.012048
  29 H :    0.004131
  30 H :    0.016517
  31 H :    0.051172
  32 H :    0.036566
  33 H :    0.048985
Sum of atomic charges:   -0.0000000

LOEWDIN ATOMIC CHARGES
----------------------
   0 S :    0.399399
   1 C :   -0.194269
   2 C :   -0.055914
   3 C :   -0.068722
   4 C :   -0.175730
   5 H :    0.020222
   6 C :   -0.043814
   7 H :    0.037517
   8 H :    0.032967
   9 C :   -0.035949
  10 H :    0.027403
  11 H :    0.020062
  12 C :   -0.070476
  13 H :    0.026990
  14 H :    0.020774
  15 H :    0.035798
  16 S :    0.387980
  17 C :   -0.180217
  18 C :   -0.074250
  19 C :   -0.066661
  20 C :   -0.183203
  21 H :    0.033794
  22 C :   -0.037360
  23 H :    0.042792
  24 H :    0.031178
  25 C :   -0.029990
  26 H :    0.015057
  27 H :    0.026622
  28 C :   -0.059239
  29 H :    0.019185
  30 H :    0.019725
  31 H :    0.034386
  32 H :    0.016895
  33 H :    0.027044

  Mayer bond orders larger than 0.100000
B(  0-S ,  1-C ) :   1.1227 B(  0-S ,  4-C ) :   1.1481 B(  1-C ,  2-C ) :   1.6520
B(  1-C , 32-H ) :   0.9613 B(  2-C ,  3-C ) :   1.1955 B(  2-C ,  6-C ) :   1.0231
B(  3-C ,  4-C ) :   1.6117 B(  3-C ,  5-H ) :   1.0031 B(  4-C , 20-C ) :   1.0012
B(  6-C ,  7-H ) :   0.9382 B(  6-C ,  8-H ) :   0.9404 B(  6-C ,  9-C ) :   1.0613
B(  9-C , 10-H ) :   0.9491 B(  9-C , 11-H ) :   0.9527 B(  9-C , 12-C ) :   1.0583
B( 12-C , 13-H ) :   0.9780 B( 12-C , 14-H ) :   0.9798 B( 12-C , 15-H ) :   0.9758
B( 16-S , 17-C ) :   1.1594 B( 16-S , 20-C ) :   1.1179 B( 17-C , 18-C ) :   1.6241
B( 17-C , 33-H ) :   0.9652 B( 18-C , 19-C ) :   1.2307 B( 18-C , 21-H ) :   0.9914
B( 19-C , 20-C ) :   1.6339 B( 19-C , 22-C ) :   1.0238 B( 22-C , 23-H ) :   0.9423
B( 22-C , 24-H ) :   0.9393 B( 22-C , 25-C ) :   1.0654 B( 25-C , 26-H ) :   0.9543
B( 25-C , 27-H ) :   0.9542 B( 25-C , 28-C ) :   1.0977 B( 28-C , 29-H ) :   0.9587
B( 28-C , 30-H ) :   0.9637 B( 28-C , 31-H ) :   0.9694

Dispersion correction           -0.014368711
FINAL SINGLE POINT ENERGY     -1339.860828687450

DIPOLE MOMENT
-------------
                                X             Y             Z
Electronic contribution:      6.14411     -14.07247      26.30678
Nuclear contribution   :     -6.56108      14.25546     -26.87633
                        -----------------------------------------
Total Dipole Moment    :     -0.41697       0.18300      -0.56954
                        -----------------------------------------
Magnitude (a.u.)       :      0.72920
Magnitude (Debye)      :      1.85348

Rotational constants in cm-1:     0.019647     0.008626     0.006459
Rotational constants in MHz :   589.010173   258.600552   193.623841

                             ****ORCA TERMINATED NORMALLY****
TOTAL RUN TIME: 0 days 0 hours 0 minutes 34 seconds 858 msec
