                         Program Version 4.2.1 -  RELEASE  -
|  1> ! wB97X-D3 SP def2-SVP
|  2> %pal
|  3> nprocs 16
|  4> end
|  5>
|  6> * xyz 0 1
|  7> S 	 -7.85636 	 68.7286 	 48.2589
|  8> C 	 -8.44156 	 67.6183 	 47.0639
|  9> C 	 -9.05377 	 66.4737 	 47.609
| 10> C 	 -8.91401 	 66.4977 	 49.0033
| 11> C 	 -8.51066 	 67.7501 	 49.5351
| 12> H 	 -9.14646 	 65.7199 	 49.6397
| 13> C 	 -9.70658 	 65.2795 	 46.8604
| 14> H 	 -10.2754 	 64.7693 	 47.62
| 15> H 	 -8.86665 	 64.5872 	 46.5065
| 16> C 	 -10.5918 	 65.6711 	 45.6361
| 17> H 	 -10.0285 	 65.8992 	 44.7951
| 18> H 	 -11.0508 	 64.8434 	 45.2045
| 19> C 	 -11.6559 	 66.7079 	 45.8884
| 20> H 	 -11.366 	 67.5977 	 46.3989
| 21> H 	 -12.012 	 67.1472 	 44.9785
| 22> H 	 -12.523 	 66.3467 	 46.5163
| 23> S 	 -6.62543 	 67.8028 	 51.505
| 24> C 	 -7.18292 	 67.9097 	 53.2015
| 25> C 	 -8.52682 	 68.1356 	 53.3134
| 26> C 	 -9.19446 	 68.1107 	 52.0449
| 27> C 	 -8.31505 	 67.9858 	 50.9632
| 28> H 	 -8.9012 	 68.3066 	 54.2739
| 29> C 	 -10.6967 	 68.2388 	 51.8495
| 30> H 	 -11.1377 	 67.3207 	 52.0553
| 31> H 	 -10.9145 	 68.5041 	 50.8221
| 32> C 	 -11.4467 	 69.2841 	 52.7273
| 33> H 	 -10.958 	 70.3049 	 52.5396
| 34> H 	 -11.3059 	 69.0872 	 53.7681
| 35> C 	 -13.0158 	 69.377 	 52.3683
| 36> H 	 -13.3422 	 68.3286 	 52.3958
| 37> H 	 -13.1078 	 69.7599 	 51.3793
| 38> H 	 -13.6038 	 69.8571 	 53.1431
| 39> H 	 -8.62504 	 67.8512 	 46.0107
| 40> H 	 -6.54293 	 67.9581 	 54.0516
| 41> *
| 42>
| 43>                          ****END OF INPUT****

CARTESIAN COORDINATES (ANGSTROEM)
---------------------------------
  S     -7.856360   68.728600   48.258900
  C     -8.441560   67.618300   47.063900
  C     -9.053770   66.473700   47.609000
  C     -8.914010   66.497700   49.003300
  C     -8.510660   67.750100   49.535100
  H     -9.146460   65.719900   49.639700
  C     -9.706580   65.279500   46.860400
  H    -10.275400   64.769300   47.620000
  H     -8.866650   64.587200   46.506500
  C    -10.591800   65.671100   45.636100
  H    -10.028500   65.899200   44.795100
  H    -11.050800   64.843400   45.204500
  C    -11.655900   66.707900   45.888400
  H    -11.366000   67.597700   46.398900
  H    -12.012000   67.147200   44.978500
  H    -12.523000   66.346700   46.516300
  S     -6.625430   67.802800   51.505000
  C     -7.182920   67.909700   53.201500
  C     -8.526820   68.135600   53.313400
  C     -9.194460   68.110700   52.044900
  C     -8.315050   67.985800   50.963200
  H     -8.901200   68.306600   54.273900
  C    -10.696700   68.238800   51.849500
  H    -11.137700   67.320700   52.055300
  H    -10.914500   68.504100   50.822100
  C    -11.446700   69.284100   52.727300
  H    -10.958000   70.304900   52.539600
  H    -11.305900   69.087200   53.768100
  C    -13.015800   69.377000   52.368300
  H    -13.342200   68.328600   52.395800
  H    -13.107800   69.759900   51.379300
  H    -13.603800   69.857100   53.143100
  H     -8.625040   67.851200   46.010700
  H     -6.542930   67.958100   54.051600

 Total Charge           Charge          ....    0
 Multiplicity           Mult            ....    1
 Number of Electrons    NEL             ....  134
 Basis Dimension        Dim             ....  322

ORBITAL ENERGIES
----------------

  NO   OCC          E(Eh)            E(eV)
   0   2.0000     -88.971477     -2421.0370
   1   2.0000     -88.962062     -2420.7808
   2   2.0000     -10.327653      -281.0297
   3   2.0000     -10.327040      -281.0130
   4   2.0000     -10.315582      -280.7013
   5   2.0000     -10.312653      -280.6215
   6   2.0000     -10.307670      -280.4859
   7   2.0000     -10.304209      -280.3918
   8   2.0000     -10.301225      -280.3106
   9   2.0000     -10.292724      -280.0793
  10   2.0000     -10.290610      -280.0217
  11   2.0000     -10.288007      -279.9509
  12   2.0000     -10.285266      -279.8763
  13   2.0000     -10.281916      -279.7852
  14   2.0000     -10.280190      -279.7382
  15   2.0000     -10.273627      -279.5596
  16   2.0000      -8.086103      -220.0340
  17   2.0000      -8.075935      -219.7574
  18   2.0000      -6.044534      -164.4801
  19   2.0000      -6.040525      -164.3710
  20   2.0000      -6.037070      -164.2770
  21   2.0000      -6.034558      -164.2087
  22   2.0000      -6.030660      -164.1026
  23   2.0000      -6.026527      -163.9901
  24   2.0000      -1.002682       -27.2844
  25   2.0000      -0.978707       -26.6320
  26   2.0000      -0.909933       -24.7605
  27   2.0000      -0.899484       -24.4762
  28   2.0000      -0.867596       -23.6085
  29   2.0000      -0.854241       -23.2451
  30   2.0000      -0.841080       -22.8870
  31   2.0000      -0.809552       -22.0290
  32   2.0000      -0.784614       -21.3504
  33   2.0000      -0.770286       -20.9606
  34   2.0000      -0.716703       -19.5025
  35   2.0000      -0.702528       -19.1168
  36   2.0000      -0.697385       -18.9768
  37   2.0000      -0.656031       -17.8515
  38   2.0000      -0.640503       -17.4290
  39   2.0000      -0.610917       -16.6239
  40   2.0000      -0.593891       -16.1606
  41   2.0000      -0.572940       -15.5905
  42   2.0000      -0.567328       -15.4378
  43   2.0000      -0.555367       -15.1123
  44   2.0000      -0.538733       -14.6597
  45   2.0000      -0.522508       -14.2182
  46   2.0000      -0.515405       -14.0249
  47   2.0000      -0.509184       -13.8556
  48   2.0000      -0.501186       -13.6380
  49   2.0000      -0.492606       -13.4045
  50   2.0000      -0.489507       -13.3202
  51   2.0000      -0.473619       -12.8878
  52   2.0000      -0.471834       -12.8393
  53   2.0000      -0.464715       -12.6455
  54   2.0000      -0.459744       -12.5103
  55   2.0000      -0.447824       -12.1859
  56   2.0000      -0.445836       -12.1318
  57   2.0000      -0.440958       -11.9991
  58   2.0000      -0.430037       -11.7019
  59   2.0000      -0.429847       -11.6967
  60   2.0000      -0.422876       -11.5070
  61   2.0000      -0.415775       -11.3138
  62   2.0000      -0.414978       -11.2921
  63   2.0000      -0.340316        -9.2605
  64   2.0000      -0.329587        -8.9685
  65   2.0000      -0.321232        -8.7412
  66   2.0000      -0.297495        -8.0953
  67   0.0000       0.034806         0.9471
  68   0.0000       0.054370         1.4795
  69   0.0000       0.115608         3.1459
  70   0.0000       0.121796         3.3142
  71   0.0000       0.129967         3.5366

MULLIKEN ATOMIC CHARGES
-----------------------
   0 S :    0.131706
   1 C :   -0.117437
   2 C :   -0.116582
   3 C :    0.059139
   4 C :   -0.185038
   5 H :   -0.014557
   6 C :    0.071607
   7 H :    0.021959
   8 H :    0.061460
   9 C :   -0.009876
  10 H :    0.001910
  11 H :    0.004826
  12 C :   -0.052651
  13 H :    0.024517
  14 H :    0.019730
  15 H :    0.036284
  16 S :    0.092511
  17 C :   -0.077333
  18 C :   -0.019914
  19 C :   -0.016795
  20 C :   -0.166729
  21 H :   -0.000088
  22 C :    0.113217
  23 H :    0.013522
  24 H :    0.027820
  25 C :   -0.143400
  26 H :    0.042538
  27 H :    0.026813
  28 C :   -0.035114
  29 H :    0.022953
  30 H :    0.041021
  31 H :    0.042406
  32 H :    0.055788
  33 H :    0.043790
Sum of atomic charges:   -0.0000000

LOEWDIN ATOMIC CHARGES
----------------------
   0 S :    0.432881
   1 C :   -0.213477
   2 C :   -0.063220
   3 C :   -0.044250
   4 C :   -0.215976
   5 H :    0.017135
   6 C :   -0.023093
   7 H :    0.026286
   8 H :    0.047274
   9 C :   -0.043447
  10 H :    0.018264
  11 H :    0.023945
  12 C :   -0.068871
  13 H :    0.020922
  14 H :    0.025337
  15 H :    0.032063
  16 S :    0.371719
  17 C :   -0.160755
  18 C :   -0.066062
  19 C :   -0.046285
  20 C :   -0.190683
  21 H :    0.024927
  22 C :   -0.026259
  23 H :    0.021363
  24 H :    0.031693
  25 C :   -0.040230
  26 H :    0.028497
  27 H :    0.012087
  28 C :   -0.059871
  29 H :    0.025341
  30 H :    0.023163
  31 H :    0.028032
  32 H :    0.029014
  33 H :    0.022535

  Mayer bond orders larger than 0.100000
B(  0-S ,  1-C ) :   1.1642 B(  0-S ,  4-C ) :   1.1693 B(  1-C ,  2-C ) :   1.5673
B(  1-C ,  4-C ) :   0.1119 B(  1-C , 32-H ) :   0.9575 B(  2-C ,  3-C ) :   1.2943
B(  2-C ,  6-C ) :   1.0028 B(  3-C ,  4-C ) :   1.5256 B(  3-C ,  5-H ) :   0.9996
B(  4-C , 20-C ) :   1.0225 B(  6-C ,  7-H ) :   0.9460 B(  6-C ,  8-H ) :   0.9391
B(  6-C ,  9-C ) :   1.0715 B(  9-C , 10-H ) :   0.9465 B(  9-C , 11-H ) :   0.9435
B(  9-C , 12-C ) :   1.0818 B( 12-C , 13-H ) :   0.9728 B( 12-C , 14-H ) :   0.9701
B( 12-C , 15-H ) :   0.9755 B( 16-S , 17-C ) :   1.1399 B( 16-S , 20-C ) :   1.1269
B( 17-C , 18-C ) :   1.6545 B( 17-C , 33-H ) :   0.9640 B( 18-C , 19-C ) :   1.1950
B( 18-C , 21-H ) :   1.0006 B( 19-C , 20-C ) :   1.6383 B( 19-C , 22-C ) :   1.0418
B( 22-C , 23-H ) :   0.9227 B( 22-C , 24-H ) :   0.9393 B( 22-C , 25-C ) :   1.0541
B( 25-C , 26-H ) :   0.9636 B( 25-C , 27-H ) :   0.9564 B( 25-C , 28-C ) :   1.0695
B( 28-C , 29-H ) :   0.9758 B( 28-C , 30-H ) :   0.9792 B( 28-C , 31-H ) :   0.9769

Dispersion correction           -0.014012777
FINAL SINGLE POINT ENERGY     -1339.859022780066

DIPOLE MOMENT
-------------
                                X             Y             Z
Electronic contribution:     27.19786       3.76349       4.79075
Nuclear contribution   :    -27.81298      -4.08207      -4.79928
                        -----------------------------------------
Total Dipole Moment    :     -0.61512      -0.31858      -0.00853
                        -----------------------------------------
Magnitude (a.u.)       :      0.69277
Magnitude (Debye)      :      1.76089

Rotational constants in cm-1:     0.017371     0.008549     0.006491
Rotational constants in MHz :   520.783418   256.290239   194.600692

                             ****ORCA TERMINATED NORMALLY****
TOTAL RUN TIME: 0 days 0 hours 0 minutes 32 seconds 681 msec
