                         Program Version 4.2.1 -  RELEASE  -
|  1> ! wB97X-D3 SP def2-SVP
|  2> %pal
|  3> nprocs 16
|  4> end
|  5>
|  6> * xyz 0 1
|  7> S 	 53.9493 	 18.7875 	 50.0229
|  8> C 	 54.7669 	 20.3213 	 49.9117
|  9> C 	 54.6107 	 21.0281 	 51.0983
| 10> C 	 53.5104 	 20.5064 	 51.8564
| 11> C 	 52.9309 	 19.35 	 51.3798
| 12> H 	 53.0299 	 20.9769 	 52.7387
| 13> C 	 55.3711 	 22.3296 	 51.4427
| 14> H 	 56.1785 	 22.4249 	 50.7386
| 15> H 	 55.8032 	 22.1778 	 52.3911
| 16> C 	 54.5756 	 23.6129 	 51.3803
| 17> H 	 53.5142 	 23.4495 	 51.6328
| 18> H 	 55.163 	 24.2837 	 52.0555
| 19> C 	 54.5411 	 24.1415 	 49.8972
| 20> H 	 55.5729 	 24.3802 	 49.6301
| 21> H 	 54.2829 	 23.3622 	 49.1898
| 22> H 	 53.8387 	 25.0164 	 49.8916
| 23> S 	 51.9011 	 16.8054 	 51.9109
| 24> C 	 50.2043 	 16.6801 	 52.204
| 25> C 	 49.6766 	 17.8884 	 52.6124
| 26> C 	 50.5918 	 18.9656 	 52.3218
| 27> C 	 51.8201 	 18.5495 	 51.8514
| 28> H 	 48.6764 	 18.0088 	 52.9875
| 29> C 	 50.0232 	 20.4158 	 52.4455
| 30> H 	 50.8463 	 20.9045 	 52.8612
| 31> H 	 49.1422 	 20.4041 	 53.1807
| 32> C 	 49.6982 	 21.1119 	 51.1012
| 33> H 	 49.1226 	 20.3858 	 50.4101
| 34> H 	 50.5592 	 21.4325 	 50.6082
| 35> C 	 48.846 	 22.3405 	 51.1746
| 36> H 	 49.4026 	 23.1657 	 51.7067
| 37> H 	 47.9378 	 22.1284 	 51.7798
| 38> H 	 48.5479 	 22.5967 	 50.1397
| 39> H 	 55.4776 	 20.6293 	 49.1664
| 40> H 	 49.7743 	 15.7143 	 52.3087
| 41> *
| 42>
| 43>                          ****END OF INPUT****

CARTESIAN COORDINATES (ANGSTROEM)
---------------------------------
  S     53.949300   18.787500   50.022900
  C     54.766900   20.321300   49.911700
  C     54.610700   21.028100   51.098300
  C     53.510400   20.506400   51.856400
  C     52.930900   19.350000   51.379800
  H     53.029900   20.976900   52.738700
  C     55.371100   22.329600   51.442700
  H     56.178500   22.424900   50.738600
  H     55.803200   22.177800   52.391100
  C     54.575600   23.612900   51.380300
  H     53.514200   23.449500   51.632800
  H     55.163000   24.283700   52.055500
  C     54.541100   24.141500   49.897200
  H     55.572900   24.380200   49.630100
  H     54.282900   23.362200   49.189800
  H     53.838700   25.016400   49.891600
  S     51.901100   16.805400   51.910900
  C     50.204300   16.680100   52.204000
  C     49.676600   17.888400   52.612400
  C     50.591800   18.965600   52.321800
  C     51.820100   18.549500   51.851400
  H     48.676400   18.008800   52.987500
  C     50.023200   20.415800   52.445500
  H     50.846300   20.904500   52.861200
  H     49.142200   20.404100   53.180700
  C     49.698200   21.111900   51.101200
  H     49.122600   20.385800   50.410100
  H     50.559200   21.432500   50.608200
  C     48.846000   22.340500   51.174600
  H     49.402600   23.165700   51.706700
  H     47.937800   22.128400   51.779800
  H     48.547900   22.596700   50.139700
  H     55.477600   20.629300   49.166400
  H     49.774300   15.714300   52.308700

 Total Charge           Charge          ....    0
 Multiplicity           Mult            ....    1
 Number of Electrons    NEL             ....  134
 Basis Dimension        Dim             ....  322

ORBITAL ENERGIES
----------------

  NO   OCC          E(Eh)            E(eV)
   0   2.0000     -88.964985     -2420.8603
   1   2.0000     -88.962455     -2420.7915
   2   2.0000     -10.333101      -281.1780
   3   2.0000     -10.327135      -281.0156
   4   2.0000     -10.315522      -280.6996
   5   2.0000     -10.315514      -280.6994
   6   2.0000     -10.305268      -280.4206
   7   2.0000     -10.304715      -280.4056
   8   2.0000     -10.299545      -280.2649
   9   2.0000     -10.297130      -280.1992
  10   2.0000     -10.295192      -280.1464
  11   2.0000     -10.292786      -280.0809
  12   2.0000     -10.288718      -279.9703
  13   2.0000     -10.283457      -279.8271
  14   2.0000     -10.283100      -279.8174
  15   2.0000     -10.281938      -279.7858
  16   2.0000      -8.080466      -219.8807
  17   2.0000      -8.077013      -219.7867
  18   2.0000      -6.038977      -164.3289
  19   2.0000      -6.035600      -164.2370
  20   2.0000      -6.035019      -164.2212
  21   2.0000      -6.031705      -164.1310
  22   2.0000      -6.031038      -164.1129
  23   2.0000      -6.027511      -164.0169
  24   2.0000      -1.008280       -27.4367
  25   2.0000      -0.985935       -26.8287
  26   2.0000      -0.913912       -24.8688
  27   2.0000      -0.907460       -24.6932
  28   2.0000      -0.871403       -23.7121
  29   2.0000      -0.853894       -23.2356
  30   2.0000      -0.839722       -22.8500
  31   2.0000      -0.815203       -22.1828
  32   2.0000      -0.783025       -21.3072
  33   2.0000      -0.773271       -21.0418
  34   2.0000      -0.708046       -19.2669
  35   2.0000      -0.692816       -18.8525
  36   2.0000      -0.685733       -18.6597
  37   2.0000      -0.665617       -18.1123
  38   2.0000      -0.643011       -17.4972
  39   2.0000      -0.619408       -16.8550
  40   2.0000      -0.595098       -16.1934
  41   2.0000      -0.574785       -15.6407
  42   2.0000      -0.568658       -15.4740
  43   2.0000      -0.553337       -15.0571
  44   2.0000      -0.537772       -14.6335
  45   2.0000      -0.527821       -14.3627
  46   2.0000      -0.522494       -14.2178
  47   2.0000      -0.517198       -14.0737
  48   2.0000      -0.505887       -13.7659
  49   2.0000      -0.496337       -13.5060
  50   2.0000      -0.493047       -13.4165
  51   2.0000      -0.481062       -13.0904
  52   2.0000      -0.470864       -12.8129
  53   2.0000      -0.464270       -12.6334
  54   2.0000      -0.458711       -12.4822
  55   2.0000      -0.448913       -12.2156
  56   2.0000      -0.444506       -12.0956
  57   2.0000      -0.434623       -11.8267
  58   2.0000      -0.432329       -11.7643
  59   2.0000      -0.422871       -11.5069
  60   2.0000      -0.420012       -11.4291
  61   2.0000      -0.412584       -11.2270
  62   2.0000      -0.407038       -11.0761
  63   2.0000      -0.355747        -9.6804
  64   2.0000      -0.330571        -8.9953
  65   2.0000      -0.327117        -8.9013
  66   2.0000      -0.287378        -7.8199
  67   0.0000       0.022181         0.6036
  68   0.0000       0.068232         1.8567
  69   0.0000       0.099966         2.7202
  70   0.0000       0.123020         3.3476
  71   0.0000       0.127709         3.4751

MULLIKEN ATOMIC CHARGES
-----------------------
   0 S :    0.097741
   1 C :   -0.105262
   2 C :   -0.119960
   3 C :    0.013042
   4 C :   -0.158197
   5 H :    0.026220
   6 C :    0.102500
   7 H :    0.001270
   8 H :    0.024086
   9 C :   -0.081342
  10 H :    0.039047
  11 H :    0.043333
  12 C :   -0.070639
  13 H :    0.023429
  14 H :    0.036288
  15 H :    0.051835
  16 S :    0.107021
  17 C :   -0.085211
  18 C :   -0.017403
  19 C :   -0.081691
  20 C :   -0.126233
  21 H :    0.018725
  22 C :    0.098182
  23 H :   -0.006898
  24 H :    0.035096
  25 C :   -0.071093
  26 H :    0.038884
  27 H :    0.026524
  28 C :   -0.063117
  29 H :    0.034255
  30 H :    0.026913
  31 H :    0.044970
  32 H :    0.045356
  33 H :    0.052328
Sum of atomic charges:   -0.0000000

LOEWDIN ATOMIC CHARGES
----------------------
   0 S :    0.385780
   1 C :   -0.194396
   2 C :   -0.061781
   3 C :   -0.069673
   4 C :   -0.175659
   5 H :    0.033780
   6 C :   -0.026733
   7 H :    0.024858
   8 H :    0.026307
   9 C :   -0.041108
  10 H :    0.025102
  11 H :    0.031709
  12 C :   -0.066531
  13 H :    0.021050
  14 H :    0.023805
  15 H :    0.032577
  16 S :    0.411454
  17 C :   -0.178394
  18 C :   -0.067347
  19 C :   -0.051610
  20 C :   -0.207092
  21 H :    0.030177
  22 C :   -0.026813
  23 H :    0.016102
  24 H :    0.037666
  25 C :   -0.043820
  26 H :    0.032451
  27 H :    0.018415
  28 C :   -0.068855
  29 H :    0.026585
  30 H :    0.022235
  31 H :    0.032149
  32 H :    0.026492
  33 H :    0.021117

  Mayer bond orders larger than 0.100000
B(  0-S ,  1-C ) :   1.1395 B(  0-S ,  4-C ) :   1.1249 B(  1-C ,  2-C ) :   1.6120
B(  1-C ,  4-C ) :   0.1033 B(  1-C , 32-H ) :   0.9673 B(  2-C ,  3-C ) :   1.2187
B(  2-C ,  6-C ) :   1.0302 B(  3-C ,  4-C ) :   1.5927 B(  3-C ,  5-H ) :   0.9844
B(  4-C , 20-C ) :   1.0729 B(  6-C ,  7-H ) :   0.9383 B(  6-C ,  8-H ) :   0.9357
B(  6-C ,  9-C ) :   1.0572 B(  9-C , 10-H ) :   0.9625 B(  9-C , 11-H ) :   0.9554
B(  9-C , 12-C ) :   1.0663 B( 12-C , 13-H ) :   0.9747 B( 12-C , 14-H ) :   0.9779
B( 12-C , 15-H ) :   0.9759 B( 16-S , 17-C ) :   1.1649 B( 16-S , 20-C ) :   1.1306
B( 17-C , 18-C ) :   1.5879 B( 17-C , 33-H ) :   0.9723 B( 18-C , 19-C ) :   1.2472
B( 18-C , 21-H ) :   0.9946 B( 19-C , 20-C ) :   1.6034 B( 19-C , 22-C ) :   1.0311
B( 22-C , 23-H ) :   0.9190 B( 22-C , 24-H ) :   0.9432 B( 22-C , 25-C ) :   1.0625
B( 25-C , 26-H ) :   0.9595 B( 25-C , 27-H ) :   0.9498 B( 25-C , 28-C ) :   1.0929
B( 28-C , 29-H ) :   0.9723 B( 28-C , 30-H ) :   0.9744 B( 28-C , 31-H ) :   0.9728

Dispersion correction           -0.014476257
FINAL SINGLE POINT ENERGY     -1339.864526684917

DIPOLE MOMENT
-------------
                                X             Y             Z
Electronic contribution:      5.69728     -30.56016       0.75943
Nuclear contribution   :     -5.83927      31.14558      -0.53003
                        -----------------------------------------
Total Dipole Moment    :     -0.14199       0.58543       0.22941
                        -----------------------------------------
Magnitude (a.u.)       :      0.64460
Magnitude (Debye)      :      1.63846

Rotational constants in cm-1:     0.018483     0.009397     0.006856
Rotational constants in MHz :   554.099721   281.719518   205.551253

                             ****ORCA TERMINATED NORMALLY****
TOTAL RUN TIME: 0 days 0 hours 0 minutes 31 seconds 567 msec
