                         Program Version 4.2.1 -  RELEASE  -
|  1> ! wB97X-D3 SP def2-SVP
|  2> %pal
|  3> nprocs 16
|  4> end
|  5>
|  6> * xyz 0 1
|  7> S 	 -34.0293 	 68.2162 	 146.733
|  8> C 	 -34.8347 	 69.3956 	 145.722
|  9> C 	 -34.9248 	 68.9704 	 144.363
| 10> C 	 -34.3577 	 67.7044 	 144.258
| 11> C 	 -33.8183 	 67.1299 	 145.384
| 12> H 	 -34.2476 	 67.1425 	 143.308
| 13> C 	 -35.6485 	 69.6946 	 143.212
| 14> H 	 -35.7394 	 68.9074 	 142.485
| 15> H 	 -34.9174 	 70.4459 	 142.842
| 16> C 	 -37.0705 	 70.1635 	 143.567
| 17> H 	 -36.9848 	 70.9752 	 144.289
| 18> H 	 -37.5744 	 70.6049 	 142.67
| 19> C 	 -37.9752 	 69.0007 	 144.097
| 20> H 	 -37.736 	 68.5261 	 145.074
| 21> H 	 -39.0281 	 69.2606 	 144.027
| 22> H 	 -38.0469 	 68.2142 	 143.336
| 23> S 	 -31.3488 	 65.9539 	 144.78
| 24> C 	 -31.1583 	 64.2784 	 145.079
| 25> C 	 -32.2428 	 63.7928 	 145.788
| 26> C 	 -33.3292 	 64.7297 	 145.98
| 27> C 	 -32.9702 	 65.9518 	 145.415
| 28> H 	 -32.3702 	 62.7835 	 146.231
| 29> C 	 -34.5975 	 64.41 	 146.774
| 30> H 	 -35.05 	 65.3424 	 146.865
| 31> H 	 -34.3797 	 64.156 	 147.804
| 32> C 	 -35.4657 	 63.2502 	 146.206
| 33> H 	 -36.2833 	 63.1647 	 146.887
| 34> H 	 -34.8941 	 62.2952 	 146.141
| 35> C 	 -36.2093 	 63.6635 	 144.92
| 36> H 	 -35.5272 	 63.9248 	 144.049
| 37> H 	 -36.6988 	 64.6364 	 144.969
| 38> H 	 -37.0139 	 62.959 	 144.579
| 39> H 	 -35.1925 	 70.2976 	 146.076
| 40> H 	 -30.1938 	 63.8087 	 144.854
| 41> *
| 42>
| 43>                          ****END OF INPUT****

CARTESIAN COORDINATES (ANGSTROEM)
---------------------------------
  S    -34.029300   68.216200  146.733000
  C    -34.834700   69.395600  145.722000
  C    -34.924800   68.970400  144.363000
  C    -34.357700   67.704400  144.258000
  C    -33.818300   67.129900  145.384000
  H    -34.247600   67.142500  143.308000
  C    -35.648500   69.694600  143.212000
  H    -35.739400   68.907400  142.485000
  H    -34.917400   70.445900  142.842000
  C    -37.070500   70.163500  143.567000
  H    -36.984800   70.975200  144.289000
  H    -37.574400   70.604900  142.670000
  C    -37.975200   69.000700  144.097000
  H    -37.736000   68.526100  145.074000
  H    -39.028100   69.260600  144.027000
  H    -38.046900   68.214200  143.336000
  S    -31.348800   65.953900  144.780000
  C    -31.158300   64.278400  145.079000
  C    -32.242800   63.792800  145.788000
  C    -33.329200   64.729700  145.980000
  C    -32.970200   65.951800  145.415000
  H    -32.370200   62.783500  146.231000
  C    -34.597500   64.410000  146.774000
  H    -35.050000   65.342400  146.865000
  H    -34.379700   64.156000  147.804000
  C    -35.465700   63.250200  146.206000
  H    -36.283300   63.164700  146.887000
  H    -34.894100   62.295200  146.141000
  C    -36.209300   63.663500  144.920000
  H    -35.527200   63.924800  144.049000
  H    -36.698800   64.636400  144.969000
  H    -37.013900   62.959000  144.579000
  H    -35.192500   70.297600  146.076000
  H    -30.193800   63.808700  144.854000

 Total Charge           Charge          ....    0
 Multiplicity           Mult            ....    1
 Number of Electrons    NEL             ....  134
 Basis Dimension        Dim             ....  322

ORBITAL ENERGIES
----------------

  NO   OCC          E(Eh)            E(eV)
   0   2.0000     -88.968631     -2420.9595
   1   2.0000     -88.965049     -2420.8621
   2   2.0000     -10.321468      -280.8614
   3   2.0000     -10.321039      -280.8498
   4   2.0000     -10.317892      -280.7641
   5   2.0000     -10.312434      -280.6156
   6   2.0000     -10.301568      -280.3199
   7   2.0000     -10.301093      -280.3070
   8   2.0000     -10.297674      -280.2139
   9   2.0000     -10.296796      -280.1901
  10   2.0000     -10.295370      -280.1513
  11   2.0000     -10.291375      -280.0425
  12   2.0000     -10.288923      -279.9758
  13   2.0000     -10.287869      -279.9472
  14   2.0000     -10.281786      -279.7816
  15   2.0000     -10.279169      -279.7104
  16   2.0000      -8.082854      -219.9456
  17   2.0000      -8.080630      -219.8851
  18   2.0000      -6.041184      -164.3890
  19   2.0000      -6.039013      -164.3299
  20   2.0000      -6.037257      -164.2821
  21   2.0000      -6.035037      -164.2217
  22   2.0000      -6.034029      -164.1943
  23   2.0000      -6.031451      -164.1241
  24   2.0000      -1.006806       -27.3966
  25   2.0000      -0.984593       -26.7921
  26   2.0000      -0.909381       -24.7455
  27   2.0000      -0.905873       -24.6501
  28   2.0000      -0.863786       -23.5048
  29   2.0000      -0.847760       -23.0687
  30   2.0000      -0.844157       -22.9707
  31   2.0000      -0.806258       -21.9394
  32   2.0000      -0.783755       -21.3271
  33   2.0000      -0.773220       -21.0404
  34   2.0000      -0.709482       -19.3060
  35   2.0000      -0.703228       -19.1358
  36   2.0000      -0.694200       -18.8901
  37   2.0000      -0.655023       -17.8241
  38   2.0000      -0.639478       -17.4011
  39   2.0000      -0.610366       -16.6089
  40   2.0000      -0.597208       -16.2508
  41   2.0000      -0.569344       -15.4926
  42   2.0000      -0.554477       -15.0881
  43   2.0000      -0.545311       -14.8387
  44   2.0000      -0.541319       -14.7301
  45   2.0000      -0.538891       -14.6640
  46   2.0000      -0.518350       -14.1050
  47   2.0000      -0.505619       -13.7586
  48   2.0000      -0.496057       -13.4984
  49   2.0000      -0.492401       -13.3989
  50   2.0000      -0.487940       -13.2775
  51   2.0000      -0.472551       -12.8588
  52   2.0000      -0.464462       -12.6387
  53   2.0000      -0.463029       -12.5997
  54   2.0000      -0.458453       -12.4751
  55   2.0000      -0.444957       -12.1079
  56   2.0000      -0.439282       -11.9535
  57   2.0000      -0.438265       -11.9258
  58   2.0000      -0.433768       -11.8034
  59   2.0000      -0.428206       -11.6521
  60   2.0000      -0.425637       -11.5822
  61   2.0000      -0.416144       -11.3239
  62   2.0000      -0.410823       -11.1790
  63   2.0000      -0.338072        -9.1994
  64   2.0000      -0.327399        -8.9090
  65   2.0000      -0.324760        -8.8372
  66   2.0000      -0.302648        -8.2355
  67   0.0000       0.040061         1.0901
  68   0.0000       0.058793         1.5998
  69   0.0000       0.113245         3.0816
  70   0.0000       0.122716         3.3393
  71   0.0000       0.127050         3.4572

MULLIKEN ATOMIC CHARGES
-----------------------
   0 S :    0.124648
   1 C :   -0.112894
   2 C :   -0.107496
   3 C :    0.007401
   4 C :   -0.193739
   5 H :    0.020271
   6 C :    0.100161
   7 H :    0.011711
   8 H :    0.056420
   9 C :   -0.080206
  10 H :    0.032908
  11 H :    0.039365
  12 C :   -0.064743
  13 H :    0.064381
  14 H :    0.026117
  15 H :    0.016268
  16 S :    0.131353
  17 C :   -0.108930
  18 C :   -0.018161
  19 C :   -0.056309
  20 C :   -0.176256
  21 H :    0.022796
  22 C :    0.110415
  23 H :   -0.006373
  24 H :    0.031228
  25 C :   -0.044281
  26 H :    0.027048
  27 H :    0.048017
  28 C :   -0.095384
  29 H :    0.036087
  30 H :    0.023929
  31 H :    0.044878
  32 H :    0.017955
  33 H :    0.071414
Sum of atomic charges:    0.0000000

LOEWDIN ATOMIC CHARGES
----------------------
   0 S :    0.419827
   1 C :   -0.186974
   2 C :   -0.062165
   3 C :   -0.068222
   4 C :   -0.210319
   5 H :    0.035545
   6 C :   -0.029857
   7 H :    0.025594
   8 H :    0.041234
   9 C :   -0.039734
  10 H :    0.020116
  11 H :    0.032529
  12 C :   -0.076128
  13 H :    0.033799
  14 H :    0.027882
  15 H :    0.026025
  16 S :    0.429117
  17 C :   -0.201074
  18 C :   -0.075384
  19 C :   -0.049376
  20 C :   -0.214877
  21 H :    0.032305
  22 C :   -0.024158
  23 H :    0.017200
  24 H :    0.034935
  25 C :   -0.035545
  26 H :    0.025072
  27 H :    0.030278
  28 C :   -0.083237
  29 H :    0.029455
  30 H :    0.025625
  31 H :    0.029246
  32 H :    0.007548
  33 H :    0.033718

  Mayer bond orders larger than 0.100000
B(  0-S ,  1-C ) :   1.1773 B(  0-S ,  4-C ) :   1.1487 B(  1-C ,  2-C ) :   1.5361
B(  1-C ,  4-C ) :   0.1119 B(  1-C , 32-H ) :   0.9817 B(  2-C ,  3-C ) :   1.3003
B(  2-C ,  6-C ) :   0.9916 B(  3-C ,  4-C ) :   1.5661 B(  3-C ,  5-H ) :   0.9859
B(  4-C , 20-C ) :   1.0206 B(  6-C ,  7-H ) :   0.9448 B(  6-C ,  8-H ) :   0.9357
B(  6-C ,  9-C ) :   1.0714 B(  9-C , 10-H ) :   0.9581 B(  9-C , 11-H ) :   0.9568
B(  9-C , 12-C ) :   1.0693 B( 12-C , 13-H ) :   0.9736 B( 12-C , 14-H ) :   0.9719
B( 12-C , 15-H ) :   0.9709 B( 16-S , 17-C ) :   1.1666 B( 16-S , 20-C ) :   1.1586
B( 17-C , 18-C ) :   1.5691 B( 17-C , 33-H ) :   0.9701 B( 18-C , 19-C ) :   1.2666
B( 18-C , 21-H ) :   0.9827 B( 19-C , 20-C ) :   1.5767 B( 19-C , 22-C ) :   1.0366
B( 22-C , 23-H ) :   0.9184 B( 22-C , 24-H ) :   0.9356 B( 22-C , 25-C ) :   1.0746
B( 25-C , 26-H ) :   0.9521 B( 25-C , 27-H ) :   0.9583 B( 25-C , 28-C ) :   1.0612
B( 28-C , 29-H ) :   0.9747 B( 28-C , 30-H ) :   0.9719 B( 28-C , 31-H ) :   0.9769

Dispersion correction           -0.015375768
FINAL SINGLE POINT ENERGY     -1339.880211850964

DIPOLE MOMENT
-------------
                                X             Y             Z
Electronic contribution:     24.38054       3.05195       6.84616
Nuclear contribution   :    -24.78785      -3.08409      -6.97990
                        -----------------------------------------
Total Dipole Moment    :     -0.40731      -0.03214      -0.13373
                        -----------------------------------------
Magnitude (a.u.)       :      0.42991
Magnitude (Debye)      :      1.09274

Rotational constants in cm-1:     0.020092     0.008817     0.007366
Rotational constants in MHz :   602.339407   264.325394   220.828640

                             ****ORCA TERMINATED NORMALLY****
TOTAL RUN TIME: 0 days 0 hours 0 minutes 34 seconds 82 msec
