                         Program Version 4.2.1 -  RELEASE  -
|  1> ! wB97X-D3 SP def2-SVP
|  2> %pal
|  3> nprocs 16
|  4> end
|  5>
|  6> * xyz 0 1
|  7> S 	 -1.24595 	 -18.1975 	 86.5062
|  8> C 	 -2.97018 	 -18.2882 	 86.016
|  9> C 	 -3.49743 	 -16.9947 	 85.9487
| 10> C 	 -2.51485 	 -15.9326 	 86.0534
| 11> C 	 -1.21974 	 -16.4215 	 86.332
| 12> H 	 -2.56571 	 -14.8428 	 86.0234
| 13> C 	 -4.84855 	 -16.6219 	 85.4682
| 14> H 	 -5.18661 	 -15.7625 	 86.0112
| 15> H 	 -5.57168 	 -17.4569 	 85.6509
| 16> C 	 -4.88898 	 -16.4772 	 83.919
| 17> H 	 -5.82384 	 -15.9983 	 83.6713
| 18> H 	 -4.07868 	 -15.8301 	 83.5264
| 19> C 	 -4.75736 	 -17.7611 	 83.0524
| 20> H 	 -3.70671 	 -18.065 	 83.0898
| 21> H 	 -5.52101 	 -18.4821 	 83.4031
| 22> H 	 -4.94103 	 -17.4995 	 81.9806
| 23> S 	 1.12475 	 -16.0366 	 85.1423
| 24> C 	 2.16674 	 -14.7336 	 85.7027
| 25> C 	 1.7671 	 -14.1371 	 86.8524
| 26> C 	 0.468225 	 -14.6398 	 87.2348
| 27> C 	 0.0333754 	 -15.7123 	 86.4332
| 28> H 	 2.27293 	 -13.3323 	 87.3766
| 29> C 	 -0.435594 	 -13.8131 	 88.1583
| 30> H 	 -0.00112597 	 -13.9876 	 89.1857
| 31> H 	 -1.33813 	 -14.2793 	 88.2481
| 32> C 	 -0.614119 	 -12.3415 	 87.9284
| 33> H 	 -1.14051 	 -12.1229 	 86.9247
| 34> H 	 0.351708 	 -11.8213 	 87.8581
| 35> C 	 -1.48141 	 -11.6279 	 89.035
| 36> H 	 -2.50693 	 -12.0296 	 89.1179
| 37> H 	 -1.57917 	 -10.5297 	 88.9406
| 38> H 	 -1.07679 	 -11.7558 	 90.0558
| 39> H 	 -3.52865 	 -19.236 	 85.8874
| 40> H 	 3.14147 	 -14.4171 	 85.2997
| 41> *
| 42>
| 43>                          ****END OF INPUT****

CARTESIAN COORDINATES (ANGSTROEM)
---------------------------------
  S     -1.245950  -18.197500   86.506200
  C     -2.970180  -18.288200   86.016000
  C     -3.497430  -16.994700   85.948700
  C     -2.514850  -15.932600   86.053400
  C     -1.219740  -16.421500   86.332000
  H     -2.565710  -14.842800   86.023400
  C     -4.848550  -16.621900   85.468200
  H     -5.186610  -15.762500   86.011200
  H     -5.571680  -17.456900   85.650900
  C     -4.888980  -16.477200   83.919000
  H     -5.823840  -15.998300   83.671300
  H     -4.078680  -15.830100   83.526400
  C     -4.757360  -17.761100   83.052400
  H     -3.706710  -18.065000   83.089800
  H     -5.521010  -18.482100   83.403100
  H     -4.941030  -17.499500   81.980600
  S      1.124750  -16.036600   85.142300
  C      2.166740  -14.733600   85.702700
  C      1.767100  -14.137100   86.852400
  C      0.468225  -14.639800   87.234800
  C      0.033375  -15.712300   86.433200
  H      2.272930  -13.332300   87.376600
  C     -0.435594  -13.813100   88.158300
  H     -0.001126  -13.987600   89.185700
  H     -1.338130  -14.279300   88.248100
  C     -0.614119  -12.341500   87.928400
  H     -1.140510  -12.122900   86.924700
  H      0.351708  -11.821300   87.858100
  C     -1.481410  -11.627900   89.035000
  H     -2.506930  -12.029600   89.117900
  H     -1.579170  -10.529700   88.940600
  H     -1.076790  -11.755800   90.055800
  H     -3.528650  -19.236000   85.887400
  H      3.141470  -14.417100   85.299700

 Total Charge           Charge          ....    0
 Multiplicity           Mult            ....    1
 Number of Electrons    NEL             ....  134
 Basis Dimension        Dim             ....  322

ORBITAL ENERGIES
----------------

  NO   OCC          E(Eh)            E(eV)
   0   2.0000     -88.968886     -2420.9665
   1   2.0000     -88.963923     -2420.8314
   2   2.0000     -10.332972      -281.1745
   3   2.0000     -10.324497      -280.9438
   4   2.0000     -10.322187      -280.8810
   5   2.0000     -10.318464      -280.7797
   6   2.0000     -10.308157      -280.4992
   7   2.0000     -10.305616      -280.4301
   8   2.0000     -10.300643      -280.2947
   9   2.0000     -10.300492      -280.2906
  10   2.0000     -10.294662      -280.1320
  11   2.0000     -10.292282      -280.0672
  12   2.0000     -10.288192      -279.9559
  13   2.0000     -10.287879      -279.9474
  14   2.0000     -10.286356      -279.9060
  15   2.0000     -10.282526      -279.8018
  16   2.0000      -8.083893      -219.9739
  17   2.0000      -8.077459      -219.7988
  18   2.0000      -6.042434      -164.4230
  19   2.0000      -6.038423      -164.3138
  20   2.0000      -6.036061      -164.2496
  21   2.0000      -6.034503      -164.2072
  22   2.0000      -6.032143      -164.1430
  23   2.0000      -6.028180      -164.0351
  24   2.0000      -1.005721       -27.3671
  25   2.0000      -0.976675       -26.5767
  26   2.0000      -0.910629       -24.7795
  27   2.0000      -0.907601       -24.6971
  28   2.0000      -0.869501       -23.6603
  29   2.0000      -0.846524       -23.0351
  30   2.0000      -0.841394       -22.8955
  31   2.0000      -0.813336       -22.1320
  32   2.0000      -0.781770       -21.2730
  33   2.0000      -0.769530       -20.9400
  34   2.0000      -0.707990       -19.2654
  35   2.0000      -0.697978       -18.9930
  36   2.0000      -0.689941       -18.7742
  37   2.0000      -0.660173       -17.9642
  38   2.0000      -0.642070       -17.4716
  39   2.0000      -0.614208       -16.7135
  40   2.0000      -0.596460       -16.2305
  41   2.0000      -0.568468       -15.4688
  42   2.0000      -0.558772       -15.2050
  43   2.0000      -0.548854       -14.9351
  44   2.0000      -0.537956       -14.6385
  45   2.0000      -0.525439       -14.2979
  46   2.0000      -0.518327       -14.1044
  47   2.0000      -0.517169       -14.0729
  48   2.0000      -0.500623       -13.6226
  49   2.0000      -0.494509       -13.4563
  50   2.0000      -0.483980       -13.1698
  51   2.0000      -0.475658       -12.9433
  52   2.0000      -0.464996       -12.6532
  53   2.0000      -0.462451       -12.5839
  54   2.0000      -0.459659       -12.5080
  55   2.0000      -0.457403       -12.4466
  56   2.0000      -0.444724       -12.1016
  57   2.0000      -0.437586       -11.9073
  58   2.0000      -0.434056       -11.8113
  59   2.0000      -0.424997       -11.5648
  60   2.0000      -0.417520       -11.3613
  61   2.0000      -0.414570       -11.2810
  62   2.0000      -0.409632       -11.1466
  63   2.0000      -0.345927        -9.4132
  64   2.0000      -0.326038        -8.8720
  65   2.0000      -0.323279        -8.7969
  66   2.0000      -0.297792        -8.1033
  67   0.0000       0.032602         0.8871
  68   0.0000       0.062168         1.6917
  69   0.0000       0.109858         2.9894
  70   0.0000       0.116961         3.1827
  71   0.0000       0.120043         3.2665

MULLIKEN ATOMIC CHARGES
-----------------------
   0 S :    0.096360
   1 C :   -0.139148
   2 C :   -0.076839
   3 C :    0.044603
   4 C :   -0.183494
   5 H :    0.021493
   6 C :    0.073729
   7 H :    0.028345
   8 H :    0.020886
   9 C :   -0.092039
  10 H :    0.025859
  11 H :    0.031225
  12 C :   -0.074463
  13 H :    0.051596
  14 H :    0.036008
  15 H :    0.042697
  16 S :    0.130857
  17 C :   -0.083294
  18 C :   -0.040165
  19 C :   -0.026500
  20 C :   -0.174269
  21 H :    0.027788
  22 C :    0.092423
  23 H :    0.028869
  24 H :   -0.012896
  25 C :   -0.072196
  26 H :    0.042847
  27 H :    0.030371
  28 C :   -0.083562
  29 H :    0.035659
  30 H :    0.042632
  31 H :    0.028401
  32 H :    0.068983
  33 H :    0.057232
Sum of atomic charges:   -0.0000000

LOEWDIN ATOMIC CHARGES
----------------------
   0 S :    0.370833
   1 C :   -0.193092
   2 C :   -0.063674
   3 C :   -0.062314
   4 C :   -0.185069
   5 H :    0.036211
   6 C :   -0.035206
   7 H :    0.029921
   8 H :    0.031946
   9 C :   -0.040462
  10 H :    0.018308
  11 H :    0.024981
  12 C :   -0.069165
  13 H :    0.028705
  14 H :    0.023866
  15 H :    0.033506
  16 S :    0.425528
  17 C :   -0.181924
  18 C :   -0.069527
  19 C :   -0.045218
  20 C :   -0.223501
  21 H :    0.035199
  22 C :   -0.035765
  23 H :    0.040671
  24 H :    0.013656
  25 C :   -0.042781
  26 H :    0.032810
  27 H :    0.022951
  28 C :   -0.074952
  29 H :    0.026513
  30 H :    0.030115
  31 H :    0.024926
  32 H :    0.038057
  33 H :    0.033945

  Mayer bond orders larger than 0.100000
B(  0-S ,  1-C ) :   1.1203 B(  0-S ,  4-C ) :   1.1477 B(  1-C ,  2-C ) :   1.6091
B(  1-C ,  4-C ) :   0.1006 B(  1-C , 32-H ) :   0.9670 B(  2-C ,  3-C ) :   1.1932
B(  2-C ,  6-C ) :   1.0551 B(  3-C ,  4-C ) :   1.5955 B(  3-C ,  5-H ) :   0.9909
B(  4-C , 20-C ) :   1.0215 B(  6-C ,  7-H ) :   0.9360 B(  6-C ,  8-H ) :   0.9396
B(  6-C ,  9-C ) :   1.0549 B(  9-C , 10-H ) :   0.9587 B(  9-C , 11-H ) :   0.9586
B(  9-C , 12-C ) :   1.0772 B( 12-C , 13-H ) :   0.9742 B( 12-C , 14-H ) :   0.9748
B( 12-C , 15-H ) :   0.9725 B( 16-S , 17-C ) :   1.1457 B( 16-S , 20-C ) :   1.1468
B( 17-C , 18-C ) :   1.6397 B( 17-C , 33-H ) :   0.9584 B( 18-C , 19-C ) :   1.2244
B( 18-C , 21-H ) :   0.9875 B( 19-C , 20-C ) :   1.6027 B( 19-C , 22-C ) :   1.0490
B( 22-C , 23-H ) :   0.9213 B( 22-C , 24-H ) :   0.9329 B( 22-C , 25-C ) :   1.0638
B( 25-C , 26-H ) :   0.9539 B( 25-C , 27-H ) :   0.9498 B( 25-C , 28-C ) :   1.0708
B( 28-C , 29-H ) :   0.9771 B( 28-C , 30-H ) :   0.9770 B( 28-C , 31-H ) :   0.9756

Dispersion correction           -0.014395758
FINAL SINGLE POINT ENERGY     -1339.870581249595

DIPOLE MOMENT
-------------
                                X             Y             Z
Electronic contribution:     18.27985     -15.26925      -1.11326
Nuclear contribution   :    -18.59210      15.90755       1.13064
                        -----------------------------------------
Total Dipole Moment    :     -0.31226       0.63830       0.01737
                        -----------------------------------------
Magnitude (a.u.)       :      0.71080
Magnitude (Debye)      :      1.80670

Rotational constants in cm-1:     0.018207     0.008461     0.006850
Rotational constants in MHz :   545.820562   253.643369   205.355213

                             ****ORCA TERMINATED NORMALLY****
TOTAL RUN TIME: 0 days 0 hours 0 minutes 34 seconds 559 msec
