                         Program Version 4.2.1 -  RELEASE  -
|  1> ! wB97X-D3 SP def2-SVP
|  2> %pal
|  3> nprocs 16
|  4> end
|  5>
|  6> * xyz 0 1
|  7> S 	 -97.5317 	 44.5373 	 121.814
|  8> C 	 -98.6713 	 44.6681 	 123.104
|  9> C 	 -99.5544 	 45.723 	 122.845
| 10> C 	 -99.3648 	 46.3653 	 121.584
| 11> C 	 -98.2977 	 45.8756 	 120.902
| 12> H 	 -99.9328 	 47.127 	 121.098
| 13> C 	 -100.691 	 46.1613 	 123.754
| 14> H 	 -100.763 	 45.4318 	 124.508
| 15> H 	 -101.647 	 46.1447 	 123.236
| 16> C 	 -100.536 	 47.5584 	 124.422
| 17> H 	 -99.6227 	 47.4348 	 125.005
| 18> H 	 -100.513 	 48.2819 	 123.671
| 19> C 	 -101.635 	 47.8781 	 125.408
| 20> H 	 -101.582 	 48.841 	 125.81
| 21> H 	 -102.603 	 47.5686 	 125.123
| 22> H 	 -101.61 	 47.1798 	 126.331
| 23> S 	 -97.6432 	 44.6512 	 118.496
| 24> C 	 -97.5955 	 45.715 	 117.068
| 25> C 	 -97.752 	 47.0132 	 117.486
| 26> C 	 -98.0352 	 47.2686 	 118.865
| 27> C 	 -98.0206 	 46.0731 	 119.507
| 28> H 	 -97.8763 	 47.7805 	 116.714
| 29> C 	 -98.2683 	 48.7424 	 119.42
| 30> H 	 -97.4832 	 49.2647 	 118.859
| 31> H 	 -97.9467 	 48.8707 	 120.405
| 32> C 	 -99.6749 	 49.2319 	 119.076
| 33> H 	 -100.015 	 49.9731 	 119.789
| 34> H 	 -100.375 	 48.5126 	 119.354
| 35> C 	 -99.8717 	 49.8343 	 117.612
| 36> H 	 -99.3973 	 50.7806 	 117.477
| 37> H 	 -100.91 	 49.8359 	 117.352
| 38> H 	 -99.4609 	 49.1256 	 116.923
| 39> H 	 -98.6357 	 44.1008 	 123.999
| 40> H 	 -97.4039 	 45.484 	 116.058
| 41> *
| 42>
| 43>                          ****END OF INPUT****

CARTESIAN COORDINATES (ANGSTROEM)
---------------------------------
  S    -97.531700   44.537300  121.814000
  C    -98.671300   44.668100  123.104000
  C    -99.554400   45.723000  122.845000
  C    -99.364800   46.365300  121.584000
  C    -98.297700   45.875600  120.902000
  H    -99.932800   47.127000  121.098000
  C    -100.691000   46.161300  123.754000
  H    -100.763000   45.431800  124.508000
  H    -101.647000   46.144700  123.236000
  C    -100.536000   47.558400  124.422000
  H    -99.622700   47.434800  125.005000
  H    -100.513000   48.281900  123.671000
  C    -101.635000   47.878100  125.408000
  H    -101.582000   48.841000  125.810000
  H    -102.603000   47.568600  125.123000
  H    -101.610000   47.179800  126.331000
  S    -97.643200   44.651200  118.496000
  C    -97.595500   45.715000  117.068000
  C    -97.752000   47.013200  117.486000
  C    -98.035200   47.268600  118.865000
  C    -98.020600   46.073100  119.507000
  H    -97.876300   47.780500  116.714000
  C    -98.268300   48.742400  119.420000
  H    -97.483200   49.264700  118.859000
  H    -97.946700   48.870700  120.405000
  C    -99.674900   49.231900  119.076000
  H    -100.015000   49.973100  119.789000
  H    -100.375000   48.512600  119.354000
  C    -99.871700   49.834300  117.612000
  H    -99.397300   50.780600  117.477000
  H    -100.910000   49.835900  117.352000
  H    -99.460900   49.125600  116.923000
  H    -98.635700   44.100800  123.999000
  H    -97.403900   45.484000  116.058000

 Total Charge           Charge          ....    0
 Multiplicity           Mult            ....    1
 Number of Electrons    NEL             ....  134
 Basis Dimension        Dim             ....  322

ORBITAL ENERGIES
----------------

  NO   OCC          E(Eh)            E(eV)
   0   2.0000     -88.966946     -2420.9137
   1   2.0000     -88.963329     -2420.8152
   2   2.0000     -10.324657      -280.9482
   3   2.0000     -10.324424      -280.9419
   4   2.0000     -10.315384      -280.6959
   5   2.0000     -10.314454      -280.6706
   6   2.0000     -10.302925      -280.3568
   7   2.0000     -10.302416      -280.3430
   8   2.0000     -10.300110      -280.2803
   9   2.0000     -10.292170      -280.0642
  10   2.0000     -10.290271      -280.0125
  11   2.0000     -10.289810      -280.0000
  12   2.0000     -10.285250      -279.8759
  13   2.0000     -10.282220      -279.7934
  14   2.0000     -10.280825      -279.7555
  15   2.0000     -10.275262      -279.6041
  16   2.0000      -8.080531      -219.8824
  17   2.0000      -8.078013      -219.8139
  18   2.0000      -6.039287      -164.3373
  19   2.0000      -6.036572      -164.2635
  20   2.0000      -6.035380      -164.2310
  21   2.0000      -6.032443      -164.1511
  22   2.0000      -6.030901      -164.1092
  23   2.0000      -6.028813      -164.0523
  24   2.0000      -1.006537       -27.3893
  25   2.0000      -0.981109       -26.6973
  26   2.0000      -0.911384       -24.8000
  27   2.0000      -0.906831       -24.6761
  28   2.0000      -0.874198       -23.7881
  29   2.0000      -0.852689       -23.2028
  30   2.0000      -0.842781       -22.9332
  31   2.0000      -0.816601       -22.2208
  32   2.0000      -0.791964       -21.5504
  33   2.0000      -0.771835       -21.0027
  34   2.0000      -0.719758       -19.5856
  35   2.0000      -0.707331       -19.2475
  36   2.0000      -0.699599       -19.0370
  37   2.0000      -0.661811       -18.0088
  38   2.0000      -0.647610       -17.6224
  39   2.0000      -0.618872       -16.8404
  40   2.0000      -0.597525       -16.2595
  41   2.0000      -0.574322       -15.6281
  42   2.0000      -0.558076       -15.1860
  43   2.0000      -0.551769       -15.0144
  44   2.0000      -0.542596       -14.7648
  45   2.0000      -0.533402       -14.5146
  46   2.0000      -0.521726       -14.1969
  47   2.0000      -0.514537       -14.0013
  48   2.0000      -0.505092       -13.7443
  49   2.0000      -0.500867       -13.6293
  50   2.0000      -0.497836       -13.5468
  51   2.0000      -0.482559       -13.1311
  52   2.0000      -0.477556       -12.9950
  53   2.0000      -0.465251       -12.6601
  54   2.0000      -0.457780       -12.4568
  55   2.0000      -0.452829       -12.3221
  56   2.0000      -0.442642       -12.0449
  57   2.0000      -0.437022       -11.8920
  58   2.0000      -0.430437       -11.7128
  59   2.0000      -0.426196       -11.5974
  60   2.0000      -0.419303       -11.4098
  61   2.0000      -0.416469       -11.3327
  62   2.0000      -0.414044       -11.2667
  63   2.0000      -0.358802        -9.7635
  64   2.0000      -0.333996        -9.0885
  65   2.0000      -0.327325        -8.9070
  66   2.0000      -0.287592        -7.8258
  67   0.0000       0.027321         0.7435
  68   0.0000       0.073819         2.0087
  69   0.0000       0.106947         2.9102
  70   0.0000       0.123212         3.3528
  71   0.0000       0.132293         3.5999

MULLIKEN ATOMIC CHARGES
-----------------------
   0 S :    0.091943
   1 C :   -0.099678
   2 C :   -0.084820
   3 C :    0.039550
   4 C :   -0.143442
   5 H :   -0.013798
   6 C :    0.066875
   7 H :   -0.009383
   8 H :    0.025612
   9 C :   -0.040070
  10 H :    0.033615
  11 H :    0.018899
  12 C :   -0.023937
  13 H :    0.033687
  14 H :    0.008765
  15 H :    0.014501
  16 S :    0.108204
  17 C :   -0.070556
  18 C :   -0.047117
  19 C :   -0.062911
  20 C :   -0.147534
  21 H :    0.020000
  22 C :    0.099415
  23 H :    0.031579
  24 H :    0.019959
  25 C :   -0.059431
  26 H :    0.018284
  27 H :    0.019285
  28 C :   -0.004465
  29 H :    0.040931
  30 H :    0.028311
  31 H :    0.009887
  32 H :    0.039968
  33 H :    0.037872
Sum of atomic charges:    0.0000000

LOEWDIN ATOMIC CHARGES
----------------------
   0 S :    0.390045
   1 C :   -0.197409
   2 C :   -0.058576
   3 C :   -0.056792
   4 C :   -0.172165
   5 H :    0.028173
   6 C :   -0.027857
   7 H :    0.017556
   8 H :    0.027891
   9 C :   -0.029922
  10 H :    0.030326
  11 H :    0.013323
  12 C :   -0.066130
  13 H :    0.020084
  14 H :    0.016744
  15 H :    0.033280
  16 S :    0.374142
  17 C :   -0.174009
  18 C :   -0.071266
  19 C :   -0.057392
  20 C :   -0.181215
  21 H :    0.025793
  22 C :   -0.016280
  23 H :    0.037381
  24 H :    0.024163
  25 C :   -0.040201
  26 H :    0.025431
  27 H :    0.015300
  28 C :   -0.051675
  29 H :    0.024977
  30 H :    0.027663
  31 H :    0.019651
  32 H :    0.024093
  33 H :    0.024871

  Mayer bond orders larger than 0.100000
B(  0-S ,  1-C ) :   1.1335 B(  0-S ,  4-C ) :   1.1329 B(  1-C ,  2-C ) :   1.6024
B(  1-C , 32-H ) :   0.9738 B(  2-C ,  3-C ) :   1.2226 B(  2-C ,  6-C ) :   1.0396
B(  3-C ,  4-C ) :   1.5859 B(  3-C ,  5-H ) :   0.9958 B(  4-C , 20-C ) :   1.0596
B(  6-C ,  7-H ) :   0.9387 B(  6-C ,  8-H ) :   0.9380 B(  6-C ,  9-C ) :   1.0609
B(  9-C , 10-H ) :   0.9559 B(  9-C , 11-H ) :   0.9579 B(  9-C , 12-C ) :   1.0920
B( 12-C , 13-H ) :   0.9745 B( 12-C , 14-H ) :   0.9706 B( 12-C , 15-H ) :   0.9672
B( 16-S , 17-C ) :   1.1102 B( 16-S , 20-C ) :   1.1213 B( 17-C , 18-C ) :   1.6659
B( 17-C , 33-H ) :   0.9720 B( 18-C , 19-C ) :   1.2192 B( 18-C , 21-H ) :   0.9693
B( 19-C , 20-C ) :   1.6463 B( 19-C , 22-C ) :   1.0131 B( 22-C , 23-H ) :   0.9443
B( 22-C , 24-H ) :   0.9386 B( 22-C , 25-C ) :   1.0514 B( 25-C , 26-H ) :   0.9531
B( 25-C , 27-H ) :   0.9530 B( 25-C , 28-C ) :   1.0719 B( 28-C , 29-H ) :   0.9773
B( 28-C , 30-H ) :   0.9699 B( 28-C , 31-H ) :   0.9759

Dispersion correction           -0.014291301
FINAL SINGLE POINT ENERGY     -1339.856992327929

DIPOLE MOMENT
-------------
                                X             Y             Z
Electronic contribution:     17.82914     -23.47686      -9.24116
Nuclear contribution   :    -18.31309      24.11763       9.30003
                        -----------------------------------------
Total Dipole Moment    :     -0.48394       0.64077       0.05887
                        -----------------------------------------
Magnitude (a.u.)       :      0.80514
Magnitude (Debye)      :      2.04651

Rotational constants in cm-1:     0.017870     0.009102     0.006331
Rotational constants in MHz :   535.716434   272.856222   189.809439

                             ****ORCA TERMINATED NORMALLY****
TOTAL RUN TIME: 0 days 0 hours 0 minutes 33 seconds 134 msec
