                         Program Version 4.2.1 -  RELEASE  -
|  1> ! wB97X-D3 SP def2-SVP
|  2> %pal
|  3> nprocs 16
|  4> end
|  5>
|  6> * xyz 0 1
|  7> S 	 -106.784 	 47.0785 	 125.327
|  8> C 	 -105.41 	 47.0136 	 126.38
|  9> C 	 -104.369 	 46.3268 	 125.849
| 10> C 	 -104.726 	 45.7829 	 124.601
| 11> C 	 -106.015 	 46.103 	 124.204
| 12> H 	 -104.136 	 45.1888 	 123.905
| 13> C 	 -103.017 	 46.3101 	 126.439
| 14> H 	 -102.856 	 45.3507 	 126.938
| 15> H 	 -102.947 	 47.0739 	 127.173
| 16> C 	 -101.92 	 46.6537 	 125.414
| 17> H 	 -101.636 	 45.7697 	 124.827
| 18> H 	 -102.047 	 47.5885 	 124.796
| 19> C 	 -100.546 	 46.9498 	 126.13
| 20> H 	 -100.06 	 46.0473 	 126.518
| 21> H 	 -99.8397 	 47.251 	 125.41
| 22> H 	 -100.754 	 47.7972 	 126.759
| 23> S 	 -108.353 	 44.6342 	 123.443
| 24> C 	 -108.593 	 44.1744 	 121.761
| 25> C 	 -107.435 	 44.3822 	 121.054
| 26> C 	 -106.446 	 45.0895 	 121.787
| 27> C 	 -106.795 	 45.4311 	 123.119
| 28> H 	 -107.279 	 43.9544 	 120.065
| 29> C 	 -105.113 	 45.5209 	 121.166
| 30> H 	 -104.682 	 46.2532 	 121.844
| 31> H 	 -105.351 	 46.047 	 120.243
| 32> C 	 -104.12 	 44.3428 	 120.858
| 33> H 	 -104.564 	 43.6571 	 120.157
| 34> H 	 -103.937 	 43.8402 	 121.725
| 35> C 	 -102.792 	 44.8846 	 120.259
| 36> H 	 -102.033 	 44.0999 	 120.396
| 37> H 	 -102.427 	 45.8304 	 120.626
| 38> H 	 -102.95 	 45.1682 	 119.21
| 39> H 	 -105.323 	 47.6076 	 127.326
| 40> H 	 -109.394 	 43.6038 	 121.289
| 41> *
| 42>
| 43>                          ****END OF INPUT****

CARTESIAN COORDINATES (ANGSTROEM)
---------------------------------
  S    -106.784000   47.078500  125.327000
  C    -105.410000   47.013600  126.380000
  C    -104.369000   46.326800  125.849000
  C    -104.726000   45.782900  124.601000
  C    -106.015000   46.103000  124.204000
  H    -104.136000   45.188800  123.905000
  C    -103.017000   46.310100  126.439000
  H    -102.856000   45.350700  126.938000
  H    -102.947000   47.073900  127.173000
  C    -101.920000   46.653700  125.414000
  H    -101.636000   45.769700  124.827000
  H    -102.047000   47.588500  124.796000
  C    -100.546000   46.949800  126.130000
  H    -100.060000   46.047300  126.518000
  H    -99.839700   47.251000  125.410000
  H    -100.754000   47.797200  126.759000
  S    -108.353000   44.634200  123.443000
  C    -108.593000   44.174400  121.761000
  C    -107.435000   44.382200  121.054000
  C    -106.446000   45.089500  121.787000
  C    -106.795000   45.431100  123.119000
  H    -107.279000   43.954400  120.065000
  C    -105.113000   45.520900  121.166000
  H    -104.682000   46.253200  121.844000
  H    -105.351000   46.047000  120.243000
  C    -104.120000   44.342800  120.858000
  H    -104.564000   43.657100  120.157000
  H    -103.937000   43.840200  121.725000
  C    -102.792000   44.884600  120.259000
  H    -102.033000   44.099900  120.396000
  H    -102.427000   45.830400  120.626000
  H    -102.950000   45.168200  119.210000
  H    -105.323000   47.607600  127.326000
  H    -109.394000   43.603800  121.289000

 Total Charge           Charge          ....    0
 Multiplicity           Mult            ....    1
 Number of Electrons    NEL             ....  134
 Basis Dimension        Dim             ....  322

ORBITAL ENERGIES
----------------

  NO   OCC          E(Eh)            E(eV)
   0   2.0000     -88.966929     -2420.9132
   1   2.0000     -88.964520     -2420.8477
   2   2.0000     -10.332216      -281.1539
   3   2.0000     -10.326734      -281.0047
   4   2.0000     -10.316990      -280.7396
   5   2.0000     -10.311361      -280.5864
   6   2.0000     -10.300818      -280.2995
   7   2.0000     -10.295005      -280.1413
   8   2.0000     -10.294815      -280.1362
   9   2.0000     -10.292049      -280.0609
  10   2.0000     -10.291094      -280.0349
  11   2.0000     -10.290686      -280.0238
  12   2.0000     -10.288358      -279.9604
  13   2.0000     -10.282747      -279.8078
  14   2.0000     -10.279587      -279.7218
  15   2.0000     -10.275698      -279.6160
  16   2.0000      -8.083366      -219.9596
  17   2.0000      -8.078278      -219.8211
  18   2.0000      -6.041634      -164.4012
  19   2.0000      -6.037537      -164.2897
  20   2.0000      -6.036912      -164.2727
  21   2.0000      -6.034372      -164.2036
  22   2.0000      -6.032929      -164.1643
  23   2.0000      -6.028933      -164.0556
  24   2.0000      -1.015390       -27.6302
  25   2.0000      -0.984192       -26.7812
  26   2.0000      -0.918822       -25.0024
  27   2.0000      -0.902255       -24.5516
  28   2.0000      -0.869188       -23.6518
  29   2.0000      -0.852009       -23.1843
  30   2.0000      -0.843539       -22.9539
  31   2.0000      -0.817034       -22.2326
  32   2.0000      -0.785601       -21.3773
  33   2.0000      -0.766836       -20.8667
  34   2.0000      -0.710229       -19.3263
  35   2.0000      -0.703283       -19.1373
  36   2.0000      -0.687703       -18.7133
  37   2.0000      -0.655012       -17.8238
  38   2.0000      -0.642716       -17.4892
  39   2.0000      -0.621792       -16.9198
  40   2.0000      -0.587290       -15.9810
  41   2.0000      -0.581537       -15.8244
  42   2.0000      -0.571773       -15.5587
  43   2.0000      -0.565185       -15.3795
  44   2.0000      -0.527448       -14.3526
  45   2.0000      -0.524284       -14.2665
  46   2.0000      -0.521237       -14.1836
  47   2.0000      -0.509200       -13.8560
  48   2.0000      -0.504218       -13.7205
  49   2.0000      -0.499709       -13.5978
  50   2.0000      -0.490047       -13.3349
  51   2.0000      -0.481806       -13.1106
  52   2.0000      -0.472025       -12.8444
  53   2.0000      -0.465498       -12.6668
  54   2.0000      -0.461819       -12.5667
  55   2.0000      -0.450526       -12.2594
  56   2.0000      -0.441526       -12.0145
  57   2.0000      -0.439291       -11.9537
  58   2.0000      -0.435802       -11.8588
  59   2.0000      -0.429075       -11.6757
  60   2.0000      -0.424905       -11.5623
  61   2.0000      -0.414087       -11.2679
  62   2.0000      -0.407108       -11.0780
  63   2.0000      -0.347544        -9.4572
  64   2.0000      -0.334984        -9.1154
  65   2.0000      -0.325453        -8.8560
  66   2.0000      -0.290891        -7.9155
  67   0.0000       0.030122         0.8197
  68   0.0000       0.075829         2.0634
  69   0.0000       0.117638         3.2011
  70   0.0000       0.123484         3.3602
  71   0.0000       0.129476         3.5232

MULLIKEN ATOMIC CHARGES
-----------------------
   0 S :    0.127190
   1 C :   -0.151388
   2 C :   -0.068750
   3 C :    0.035559
   4 C :   -0.172053
   5 H :    0.001282
   6 C :    0.131075
   7 H :    0.042594
   8 H :   -0.002777
   9 C :   -0.145586
  10 H :    0.036652
  11 H :    0.055616
  12 C :   -0.043471
  13 H :    0.035378
  14 H :    0.017729
  15 H :    0.032539
  16 S :    0.100387
  17 C :   -0.091085
  18 C :   -0.032524
  19 C :   -0.060114
  20 C :   -0.123270
  21 H :    0.023141
  22 C :    0.033195
  23 H :    0.023668
  24 H :    0.025872
  25 C :   -0.033507
  26 H :    0.027156
  27 H :    0.008758
  28 C :   -0.045822
  29 H :    0.042759
  30 H :    0.021631
  31 H :    0.026861
  32 H :    0.059697
  33 H :    0.061606
Sum of atomic charges:    0.0000000

LOEWDIN ATOMIC CHARGES
----------------------
   0 S :    0.450602
   1 C :   -0.208278
   2 C :   -0.069708
   3 C :   -0.059051
   4 C :   -0.219863
   5 H :    0.030152
   6 C :   -0.026486
   7 H :    0.039704
   8 H :    0.023008
   9 C :   -0.041911
  10 H :    0.024069
  11 H :    0.036191
  12 C :   -0.064468
  13 H :    0.026582
  14 H :    0.018944
  15 H :    0.021442
  16 S :    0.390880
  17 C :   -0.187103
  18 C :   -0.076989
  19 C :   -0.061118
  20 C :   -0.194490
  21 H :    0.033140
  22 C :   -0.030544
  23 H :    0.026121
  24 H :    0.028268
  25 C :   -0.025197
  26 H :    0.023760
  27 H :    0.007147
  28 C :   -0.066492
  29 H :    0.029402
  30 H :    0.021503
  31 H :    0.027388
  32 H :    0.036271
  33 H :    0.037124

  Mayer bond orders larger than 0.100000
B(  0-S ,  1-C ) :   1.1514 B(  0-S ,  4-C ) :   1.1856 B(  1-C ,  2-C ) :   1.6016
B(  1-C , 32-H ) :   0.9587 B(  2-C ,  3-C ) :   1.2575 B(  2-C ,  6-C ) :   1.0274
B(  3-C ,  4-C ) :   1.5364 B(  3-C ,  5-H ) :   0.9951 B(  4-C , 20-C ) :   1.0150
B(  6-C ,  7-H ) :   0.9204 B(  6-C ,  8-H ) :   0.9423 B(  6-C ,  9-C ) :   1.0686
B(  9-C , 10-H ) :   0.9498 B(  9-C , 11-H ) :   0.9637 B(  9-C , 12-C ) :   1.0867
B( 12-C , 13-H ) :   0.9752 B( 12-C , 14-H ) :   0.9746 B( 12-C , 15-H ) :   0.9769
B( 16-S , 17-C ) :   1.1536 B( 16-S , 20-C ) :   1.1325 B( 17-C , 18-C ) :   1.5983
B( 17-C , 33-H ) :   0.9632 B( 18-C , 19-C ) :   1.2714 B( 18-C , 21-H ) :   0.9858
B( 19-C , 20-C ) :   1.5767 B( 19-C , 22-C ) :   1.0440 B( 22-C , 23-H ) :   0.9374
B( 22-C , 24-H ) :   0.9405 B( 22-C , 25-C ) :   1.0573 B( 25-C , 26-H ) :   0.9552
B( 25-C , 27-H ) :   0.9595 B( 25-C , 28-C ) :   1.0762 B( 28-C , 29-H ) :   0.9773
B( 28-C , 30-H ) :   0.9762 B( 28-C , 31-H ) :   0.9743

Dispersion correction           -0.013971592
FINAL SINGLE POINT ENERGY     -1339.868819535369

DIPOLE MOMENT
-------------
                                X             Y             Z
Electronic contribution:    -32.43866       0.30568       6.99154
Nuclear contribution   :     33.21936      -0.41917      -7.18336
                        -----------------------------------------
Total Dipole Moment    :      0.78070      -0.11349      -0.19182
                        -----------------------------------------
Magnitude (a.u.)       :      0.81189
Magnitude (Debye)      :      2.06367

Rotational constants in cm-1:     0.017204     0.009404     0.006399
Rotational constants in MHz :   515.765006   281.910925   191.846036

                             ****ORCA TERMINATED NORMALLY****
TOTAL RUN TIME: 0 days 0 hours 0 minutes 33 seconds 596 msec
