                         Program Version 4.2.1 -  RELEASE  -
|  1> ! wB97X-D3 SP def2-SVP
|  2> %pal
|  3> nprocs 16
|  4> end
|  5>
|  6> * xyz 0 1
|  7> S 	 25.1528 	 6.85841 	 64.8759
|  8> C 	 26.1108 	 8.00818 	 63.9033
|  9> C 	 26.5204 	 9.12811 	 64.6546
| 10> C 	 25.9508 	 9.13506 	 65.9524
| 11> C 	 25.3269 	 7.90857 	 66.2979
| 12> H 	 26.0987 	 9.99477 	 66.5703
| 13> C 	 27.1588 	 10.3075 	 64.0402
| 14> H 	 27.5271 	 10.0092 	 63.0828
| 15> H 	 28.1014 	 10.5222 	 64.5247
| 16> C 	 26.242 	 11.539 	 63.842
| 17> H 	 25.963 	 12.0921 	 64.7263
| 18> H 	 26.9404 	 12.2247 	 63.3178
| 19> C 	 25.0831 	 11.3981 	 62.8516
| 20> H 	 25.4421 	 11.1825 	 61.8506
| 21> H 	 24.3177 	 10.7007 	 63.2372
| 22> H 	 24.509 	 12.3246 	 62.8627
| 23> S 	 23.0684 	 6.96758 	 67.5103
| 24> C 	 22.654 	 7.2812 	 69.1068
| 25> C 	 23.717 	 7.8652 	 69.7237
| 26> C 	 24.8154 	 8.08245 	 68.8729
| 27> C 	 24.6092 	 7.75304 	 67.5372
| 28> H 	 23.6976 	 8.11147 	 70.7848
| 29> C 	 26.0342 	 8.78963 	 69.4582
| 30> H 	 25.8569 	 9.05342 	 70.4635
| 31> H 	 26.186 	 9.72868 	 68.9353
| 32> C 	 27.3378 	 7.97693 	 69.2794
| 33> H 	 27.6731 	 7.96195 	 68.2671
| 34> H 	 27.155 	 6.94573 	 69.5449
| 35> C 	 28.4423 	 8.67046 	 70.1472
| 36> H 	 28.633 	 9.65643 	 69.9508
| 37> H 	 29.2929 	 8.13933 	 69.8351
| 38> H 	 28.3696 	 8.53112 	 71.2587
| 39> H 	 26.2755 	 7.93507 	 62.8208
| 40> H 	 21.7584 	 6.90953 	 69.6385
| 41> *
| 42>
| 43>                          ****END OF INPUT****

CARTESIAN COORDINATES (ANGSTROEM)
---------------------------------
  S     25.152800    6.858410   64.875900
  C     26.110800    8.008180   63.903300
  C     26.520400    9.128110   64.654600
  C     25.950800    9.135060   65.952400
  C     25.326900    7.908570   66.297900
  H     26.098700    9.994770   66.570300
  C     27.158800   10.307500   64.040200
  H     27.527100   10.009200   63.082800
  H     28.101400   10.522200   64.524700
  C     26.242000   11.539000   63.842000
  H     25.963000   12.092100   64.726300
  H     26.940400   12.224700   63.317800
  C     25.083100   11.398100   62.851600
  H     25.442100   11.182500   61.850600
  H     24.317700   10.700700   63.237200
  H     24.509000   12.324600   62.862700
  S     23.068400    6.967580   67.510300
  C     22.654000    7.281200   69.106800
  C     23.717000    7.865200   69.723700
  C     24.815400    8.082450   68.872900
  C     24.609200    7.753040   67.537200
  H     23.697600    8.111470   70.784800
  C     26.034200    8.789630   69.458200
  H     25.856900    9.053420   70.463500
  H     26.186000    9.728680   68.935300
  C     27.337800    7.976930   69.279400
  H     27.673100    7.961950   68.267100
  H     27.155000    6.945730   69.544900
  C     28.442300    8.670460   70.147200
  H     28.633000    9.656430   69.950800
  H     29.292900    8.139330   69.835100
  H     28.369600    8.531120   71.258700
  H     26.275500    7.935070   62.820800
  H     21.758400    6.909530   69.638500

 Total Charge           Charge          ....    0
 Multiplicity           Mult            ....    1
 Number of Electrons    NEL             ....  134
 Basis Dimension        Dim             ....  322

ORBITAL ENERGIES
----------------

  NO   OCC          E(Eh)            E(eV)
   0   2.0000     -88.973773     -2421.0995
   1   2.0000     -88.958067     -2420.6721
   2   2.0000     -10.337859      -281.3074
   3   2.0000     -10.323022      -280.9037
   4   2.0000     -10.320123      -280.8248
   5   2.0000     -10.310806      -280.5713
   6   2.0000     -10.298230      -280.2291
   7   2.0000     -10.296029      -280.1692
   8   2.0000     -10.295884      -280.1652
   9   2.0000     -10.290553      -280.0202
  10   2.0000     -10.289271      -279.9853
  11   2.0000     -10.285184      -279.8741
  12   2.0000     -10.280949      -279.7588
  13   2.0000     -10.279643      -279.7233
  14   2.0000     -10.278863      -279.7021
  15   2.0000     -10.267389      -279.3899
  16   2.0000      -8.086940      -220.0568
  17   2.0000      -8.074895      -219.7291
  18   2.0000      -6.045595      -164.5090
  19   2.0000      -6.041698      -164.4030
  20   2.0000      -6.037611      -164.2917
  21   2.0000      -6.033250      -164.1731
  22   2.0000      -6.028877      -164.0541
  23   2.0000      -6.025903      -163.9732
  24   2.0000      -1.013385       -27.5756
  25   2.0000      -0.983595       -26.7650
  26   2.0000      -0.915066       -24.9002
  27   2.0000      -0.905590       -24.6424
  28   2.0000      -0.870095       -23.6765
  29   2.0000      -0.851672       -23.1752
  30   2.0000      -0.846039       -23.0219
  31   2.0000      -0.813929       -22.1481
  32   2.0000      -0.783349       -21.3160
  33   2.0000      -0.772439       -21.0191
  34   2.0000      -0.713445       -19.4138
  35   2.0000      -0.701563       -19.0905
  36   2.0000      -0.693655       -18.8753
  37   2.0000      -0.660945       -17.9852
  38   2.0000      -0.632037       -17.1986
  39   2.0000      -0.628096       -17.0914
  40   2.0000      -0.596760       -16.2387
  41   2.0000      -0.569373       -15.4934
  42   2.0000      -0.559774       -15.2322
  43   2.0000      -0.557493       -15.1702
  44   2.0000      -0.538638       -14.6571
  45   2.0000      -0.522925       -14.2295
  46   2.0000      -0.516549       -14.0560
  47   2.0000      -0.511956       -13.9310
  48   2.0000      -0.504863       -13.7380
  49   2.0000      -0.496218       -13.5028
  50   2.0000      -0.495991       -13.4966
  51   2.0000      -0.481149       -13.0927
  52   2.0000      -0.469760       -12.7828
  53   2.0000      -0.466756       -12.7011
  54   2.0000      -0.463758       -12.6195
  55   2.0000      -0.452110       -12.3025
  56   2.0000      -0.448638       -12.2081
  57   2.0000      -0.441841       -12.0231
  58   2.0000      -0.430861       -11.7243
  59   2.0000      -0.425476       -11.5778
  60   2.0000      -0.421652       -11.4737
  61   2.0000      -0.408804       -11.1241
  62   2.0000      -0.400454       -10.8969
  63   2.0000      -0.353019        -9.6061
  64   2.0000      -0.333858        -9.0847
  65   2.0000      -0.325314        -8.8522
  66   2.0000      -0.282350        -7.6831
  67   0.0000       0.019392         0.5277
  68   0.0000       0.080535         2.1915
  69   0.0000       0.106015         2.8848
  70   0.0000       0.122727         3.3396
  71   0.0000       0.137495         3.7414

MULLIKEN ATOMIC CHARGES
-----------------------
   0 S :    0.114960
   1 C :   -0.137199
   2 C :   -0.086221
   3 C :    0.001921
   4 C :   -0.110201
   5 H :    0.008125
   6 C :    0.105926
   7 H :   -0.009410
   8 H :    0.026480
   9 C :   -0.091871
  10 H :    0.032505
  11 H :    0.026115
  12 C :   -0.042234
  13 H :    0.035061
  14 H :    0.045580
  15 H :    0.029130
  16 S :    0.094093
  17 C :   -0.087492
  18 C :   -0.054169
  19 C :   -0.055142
  20 C :   -0.130117
  21 H :    0.018087
  22 C :    0.096799
  23 H :   -0.003126
  24 H :    0.018323
  25 C :   -0.087576
  26 H :    0.033854
  27 H :    0.031173
  28 C :   -0.011660
  29 H :    0.009994
  30 H :    0.012799
  31 H :    0.037720
  32 H :    0.057839
  33 H :    0.069933
Sum of atomic charges:   -0.0000000

LOEWDIN ATOMIC CHARGES
----------------------
   0 S :    0.389722
   1 C :   -0.193575
   2 C :   -0.064648
   3 C :   -0.051230
   4 C :   -0.184622
   5 H :    0.027411
   6 C :   -0.035334
   7 H :    0.026118
   8 H :    0.033297
   9 C :   -0.041059
  10 H :    0.021075
  11 H :    0.029755
  12 C :   -0.065043
  13 H :    0.024337
  14 H :    0.030510
  15 H :    0.029945
  16 S :    0.440381
  17 C :   -0.211505
  18 C :   -0.084653
  19 C :   -0.061642
  20 C :   -0.207166
  21 H :    0.032244
  22 C :   -0.026135
  23 H :    0.019443
  24 H :    0.026679
  25 C :   -0.026442
  26 H :    0.021662
  27 H :    0.023812
  28 C :   -0.058982
  29 H :    0.010848
  30 H :    0.021438
  31 H :    0.030461
  32 H :    0.031468
  33 H :    0.041430

  Mayer bond orders larger than 0.100000
B(  0-S ,  1-C ) :   1.1314 B(  0-S ,  4-C ) :   1.1439 B(  1-C ,  2-C ) :   1.5792
B(  1-C ,  4-C ) :   0.1000 B(  1-C , 32-H ) :   0.9613 B(  2-C ,  3-C ) :   1.2737
B(  2-C ,  6-C ) :   1.0533 B(  3-C ,  4-C ) :   1.5158 B(  3-C ,  5-H ) :   0.9923
B(  4-C , 20-C ) :   1.0955 B(  6-C ,  7-H ) :   0.9272 B(  6-C ,  8-H ) :   0.9251
B(  6-C ,  9-C ) :   1.0622 B(  9-C , 10-H ) :   0.9602 B(  9-C , 11-H ) :   0.9530
B(  9-C , 12-C ) :   1.0798 B( 12-C , 13-H ) :   0.9757 B( 12-C , 14-H ) :   0.9732
B( 12-C , 15-H ) :   0.9702 B( 16-S , 17-C ) :   1.1951 B( 16-S , 20-C ) :   1.1437
B( 17-C , 18-C ) :   1.5425 B( 17-C , 33-H ) :   0.9644 B( 18-C , 19-C ) :   1.3067
B( 18-C , 21-H ) :   0.9935 B( 19-C , 20-C ) :   1.5278 B( 19-C , 22-C ) :   1.0460
B( 22-C , 23-H ) :   0.9395 B( 22-C , 24-H ) :   0.9296 B( 22-C , 25-C ) :   1.0581
B( 25-C , 26-H ) :   0.9540 B( 25-C , 27-H ) :   0.9607 B( 25-C , 28-C ) :   1.0797
B( 28-C , 29-H ) :   0.9729 B( 28-C , 30-H ) :   0.9729 B( 28-C , 31-H ) :   0.9769

Dispersion correction           -0.014522499
FINAL SINGLE POINT ENERGY     -1339.867396481671

DIPOLE MOMENT
-------------
                                X             Y             Z
Electronic contribution:    -16.21970     -18.95219      -1.57543
Nuclear contribution   :     16.52400      19.57966       1.63933
                        -----------------------------------------
Total Dipole Moment    :      0.30429       0.62747       0.06389
                        -----------------------------------------
Magnitude (a.u.)       :      0.70029
Magnitude (Debye)      :      1.77998

Rotational constants in cm-1:     0.017474     0.009146     0.007333
Rotational constants in MHz :   523.843558   274.204645   219.838604

                             ****ORCA TERMINATED NORMALLY****
TOTAL RUN TIME: 0 days 0 hours 0 minutes 30 seconds 777 msec
