                         Program Version 4.2.1 -  RELEASE  -
|  1> ! wB97X-D3 SP def2-SVP
|  2> %pal
|  3> nprocs 16
|  4> end
|  5>
|  6> * xyz 0 1
|  7> S 	 -31.2505 	 61.8397 	 112.029
|  8> C 	 -29.8407 	 60.8154 	 111.785
|  9> C 	 -29.8454 	 59.846 	 112.787
| 10> C 	 -31.0255 	 59.8086 	 113.556
| 11> C 	 -31.8993 	 60.8644 	 113.292
| 12> H 	 -31.3296 	 59.1061 	 114.297
| 13> C 	 -28.693 	 58.9399 	 113.141
| 14> H 	 -27.849 	 59.1179 	 112.466
| 15> H 	 -29.1263 	 58.0123 	 112.924
| 16> C 	 -28.1954 	 58.7649 	 114.601
| 17> H 	 -27.6122 	 59.6651 	 114.978
| 18> H 	 -28.998 	 58.4818 	 115.253
| 19> C 	 -27.0782 	 57.6668 	 114.668
| 20> H 	 -26.2523 	 57.8694 	 113.938
| 21> H 	 -26.4477 	 57.7015 	 115.637
| 22> H 	 -27.5149 	 56.6974 	 114.451
| 23> S 	 -34.0953 	 59.8031 	 114.56
| 24> C 	 -35.2761 	 60.8582 	 115.301
| 25> C 	 -34.8435 	 62.1672 	 115.148
| 26> C 	 -33.6454 	 62.3315 	 114.416
| 27> C 	 -33.1167 	 61.109 	 114.009
| 28> H 	 -35.4304 	 62.9991 	 115.571
| 29> C 	 -33.2145 	 63.7953 	 114.177
| 30> H 	 -32.1653 	 63.7497 	 113.817
| 31> H 	 -33.2865 	 64.2698 	 115.17
| 32> C 	 -34.0788 	 64.6361 	 113.136
| 33> H 	 -35.0824 	 64.6678 	 113.446
| 34> H 	 -34.1877 	 63.9924 	 112.237
| 35> C 	 -33.5325 	 66.0251 	 112.836
| 36> H 	 -34.3719 	 66.5576 	 112.411
| 37> H 	 -32.6563 	 66.0236 	 112.135
| 38> H 	 -33.2688 	 66.5518 	 113.711
| 39> H 	 -29.0746 	 60.9122 	 110.996
| 40> H 	 -36.1885 	 60.6456 	 115.774
| 41> *
| 42>
| 43>                          ****END OF INPUT****

CARTESIAN COORDINATES (ANGSTROEM)
---------------------------------
  S    -31.250500   61.839700  112.029000
  C    -29.840700   60.815400  111.785000
  C    -29.845400   59.846000  112.787000
  C    -31.025500   59.808600  113.556000
  C    -31.899300   60.864400  113.292000
  H    -31.329600   59.106100  114.297000
  C    -28.693000   58.939900  113.141000
  H    -27.849000   59.117900  112.466000
  H    -29.126300   58.012300  112.924000
  C    -28.195400   58.764900  114.601000
  H    -27.612200   59.665100  114.978000
  H    -28.998000   58.481800  115.253000
  C    -27.078200   57.666800  114.668000
  H    -26.252300   57.869400  113.938000
  H    -26.447700   57.701500  115.637000
  H    -27.514900   56.697400  114.451000
  S    -34.095300   59.803100  114.560000
  C    -35.276100   60.858200  115.301000
  C    -34.843500   62.167200  115.148000
  C    -33.645400   62.331500  114.416000
  C    -33.116700   61.109000  114.009000
  H    -35.430400   62.999100  115.571000
  C    -33.214500   63.795300  114.177000
  H    -32.165300   63.749700  113.817000
  H    -33.286500   64.269800  115.170000
  C    -34.078800   64.636100  113.136000
  H    -35.082400   64.667800  113.446000
  H    -34.187700   63.992400  112.237000
  C    -33.532500   66.025100  112.836000
  H    -34.371900   66.557600  112.411000
  H    -32.656300   66.023600  112.135000
  H    -33.268800   66.551800  113.711000
  H    -29.074600   60.912200  110.996000
  H    -36.188500   60.645600  115.774000

 Total Charge           Charge          ....    0
 Multiplicity           Mult            ....    1
 Number of Electrons    NEL             ....  134
 Basis Dimension        Dim             ....  322

ORBITAL ENERGIES
----------------

  NO   OCC          E(Eh)            E(eV)
   0   2.0000     -88.970506     -2421.0106
   1   2.0000     -88.969142     -2420.9734
   2   2.0000     -10.328308      -281.0476
   3   2.0000     -10.327226      -281.0181
   4   2.0000     -10.316898      -280.7371
   5   2.0000     -10.314682      -280.6768
   6   2.0000     -10.301775      -280.3255
   7   2.0000     -10.300036      -280.2782
   8   2.0000     -10.296703      -280.1875
   9   2.0000     -10.295065      -280.1430
  10   2.0000     -10.291454      -280.0447
  11   2.0000     -10.289065      -279.9797
  12   2.0000     -10.288110      -279.9537
  13   2.0000     -10.287987      -279.9504
  14   2.0000     -10.285254      -279.8760
  15   2.0000     -10.276582      -279.6400
  16   2.0000      -8.085157      -220.0083
  17   2.0000      -8.083333      -219.9587
  18   2.0000      -6.043766      -164.4592
  19   2.0000      -6.041882      -164.4080
  20   2.0000      -6.039575      -164.3452
  21   2.0000      -6.037780      -164.2963
  22   2.0000      -6.035926      -164.2459
  23   2.0000      -6.034217      -164.1994
  24   2.0000      -1.012223       -27.5440
  25   2.0000      -0.987885       -26.8817
  26   2.0000      -0.910351       -24.7719
  27   2.0000      -0.900754       -24.5108
  28   2.0000      -0.872965       -23.7546
  29   2.0000      -0.854672       -23.2568
  30   2.0000      -0.845776       -23.0147
  31   2.0000      -0.812622       -22.1126
  32   2.0000      -0.780107       -21.2278
  33   2.0000      -0.769404       -20.9366
  34   2.0000      -0.710934       -19.3455
  35   2.0000      -0.699798       -19.0425
  36   2.0000      -0.692723       -18.8500
  37   2.0000      -0.669507       -18.2182
  38   2.0000      -0.636264       -17.3136
  39   2.0000      -0.615521       -16.7492
  40   2.0000      -0.592489       -16.1224
  41   2.0000      -0.572868       -15.5885
  42   2.0000      -0.567777       -15.4500
  43   2.0000      -0.556599       -15.1458
  44   2.0000      -0.526840       -14.3360
  45   2.0000      -0.519948       -14.1485
  46   2.0000      -0.516775       -14.0622
  47   2.0000      -0.512198       -13.9376
  48   2.0000      -0.509884       -13.8746
  49   2.0000      -0.502564       -13.6755
  50   2.0000      -0.498171       -13.5559
  51   2.0000      -0.477535       -12.9944
  52   2.0000      -0.474013       -12.8985
  53   2.0000      -0.471385       -12.8270
  54   2.0000      -0.458703       -12.4820
  55   2.0000      -0.446606       -12.1528
  56   2.0000      -0.440983       -11.9998
  57   2.0000      -0.434190       -11.8149
  58   2.0000      -0.430285       -11.7086
  59   2.0000      -0.423500       -11.5240
  60   2.0000      -0.420211       -11.4345
  61   2.0000      -0.417284       -11.3549
  62   2.0000      -0.410489       -11.1700
  63   2.0000      -0.356789        -9.7087
  64   2.0000      -0.331688        -9.0257
  65   2.0000      -0.327125        -8.9015
  66   2.0000      -0.283211        -7.7066
  67   0.0000       0.024961         0.6792
  68   0.0000       0.080764         2.1977
  69   0.0000       0.104120         2.8332
  70   0.0000       0.125002         3.4015
  71   0.0000       0.134963         3.6725

MULLIKEN ATOMIC CHARGES
-----------------------
   0 S :    0.111610
   1 C :   -0.144260
   2 C :   -0.047273
   3 C :   -0.018039
   4 C :   -0.121243
   5 H :    0.003146
   6 C :    0.074974
   7 H :    0.014755
   8 H :    0.016477
   9 C :   -0.062161
  10 H :    0.044290
  11 H :    0.035575
  12 C :   -0.105649
  13 H :    0.032125
  14 H :    0.049996
  15 H :    0.037168
  16 S :    0.114789
  17 C :   -0.068723
  18 C :   -0.055172
  19 C :   -0.054888
  20 C :   -0.139425
  21 H :    0.026228
  22 C :    0.043460
  23 H :    0.025269
  24 H :    0.035021
  25 C :   -0.064278
  26 H :    0.007237
  27 H :    0.029516
  28 C :   -0.020375
  29 H :    0.031563
  30 H :    0.048477
  31 H :    0.021010
  32 H :    0.060919
  33 H :    0.037879
Sum of atomic charges:   -0.0000000

LOEWDIN ATOMIC CHARGES
----------------------
   0 S :    0.427433
   1 C :   -0.213473
   2 C :   -0.056978
   3 C :   -0.072658
   4 C :   -0.191658
   5 H :    0.021550
   6 C :   -0.033155
   7 H :    0.028854
   8 H :    0.028638
   9 C :   -0.036386
  10 H :    0.032678
  11 H :    0.020959
  12 C :   -0.076785
  13 H :    0.026514
  14 H :    0.037136
  15 H :    0.019738
  16 S :    0.428018
  17 C :   -0.187517
  18 C :   -0.069431
  19 C :   -0.065985
  20 C :   -0.205855
  21 H :    0.033296
  22 C :   -0.034313
  23 H :    0.020047
  24 H :    0.032457
  25 C :   -0.039586
  26 H :    0.013287
  27 H :    0.028875
  28 C :   -0.061504
  29 H :    0.030076
  30 H :    0.034294
  31 H :    0.019210
  32 H :    0.038019
  33 H :    0.024206

  Mayer bond orders larger than 0.100000
B(  0-S ,  1-C ) :   1.1288 B(  0-S ,  4-C ) :   1.1664 B(  1-C ,  2-C ) :   1.5807
B(  1-C , 32-H ) :   0.9692 B(  2-C ,  3-C ) :   1.2562 B(  2-C ,  6-C ) :   1.0189
B(  3-C ,  4-C ) :   1.5262 B(  3-C ,  5-H ) :   0.9983 B(  4-C , 20-C ) :   1.0695
B(  6-C ,  7-H ) :   0.9466 B(  6-C ,  8-H ) :   0.9278 B(  6-C ,  9-C ) :   1.0691
B(  9-C , 10-H ) :   0.9592 B(  9-C , 11-H ) :   0.9510 B(  9-C , 12-C ) :   1.0688
B( 12-C , 13-H ) :   0.9749 B( 12-C , 14-H ) :   0.9756 B( 12-C , 15-H ) :   0.9781
B( 16-S , 17-C ) :   1.1450 B( 16-S , 20-C ) :   1.1517 B( 17-C , 18-C ) :   1.5939
B( 17-C , 33-H ) :   0.9757 B( 18-C , 19-C ) :   1.2708 B( 18-C , 21-H ) :   0.9824
B( 19-C , 20-C ) :   1.5429 B( 19-C , 22-C ) :   1.0415 B( 22-C , 23-H ) :   0.9311
B( 22-C , 24-H ) :   0.9328 B( 22-C , 25-C ) :   1.0558 B( 25-C , 26-H ) :   0.9557
B( 25-C , 27-H ) :   0.9523 B( 25-C , 28-C ) :   1.0825 B( 28-C , 29-H ) :   0.9724
B( 28-C , 30-H ) :   0.9757 B( 28-C , 31-H ) :   0.9737

Dispersion correction           -0.013553862
FINAL SINGLE POINT ENERGY     -1339.873291388034

DIPOLE MOMENT
-------------
                                X             Y             Z
Electronic contribution:    -13.01942      -5.58329      -3.00827
Nuclear contribution   :     13.13356       5.70340       3.19444
                        -----------------------------------------
Total Dipole Moment    :      0.11413       0.12011       0.18617
                        -----------------------------------------
Magnitude (a.u.)       :      0.24922
Magnitude (Debye)      :      0.63347

Rotational constants in cm-1:     0.020518     0.007652     0.006129
Rotational constants in MHz :   615.126445   229.397138   183.731536

                             ****ORCA TERMINATED NORMALLY****
TOTAL RUN TIME: 0 days 0 hours 0 minutes 27 seconds 595 msec
