                         Program Version 4.2.1 -  RELEASE  -
|  1> ! wB97X-D3 SP def2-SVP
|  2> %pal
|  3> nprocs 16
|  4> end
|  5>
|  6> * xyz 0 1
|  7> S 	 -0.745482 	 78.197 	 50.864
|  8> C 	 0.733375 	 78.6672 	 50.0875
|  9> C 	 1.44894 	 77.6128 	 49.632
| 10> C 	 0.700998 	 76.3706 	 49.7648
| 11> C 	 -0.514605 	 76.5491 	 50.4248
| 12> H 	 1.15899 	 75.3958 	 49.6837
| 13> C 	 2.93265 	 77.7029 	 49.2245
| 14> H 	 2.87564 	 78.5734 	 48.5581
| 15> H 	 3.28346 	 76.8006 	 48.6095
| 16> C 	 3.90129 	 78.0149 	 50.3719
| 17> H 	 3.68303 	 78.9603 	 50.8393
| 18> H 	 3.61083 	 77.3256 	 51.153
| 19> C 	 5.40247 	 77.8226 	 50.0327
| 20> H 	 5.54271 	 78.6168 	 49.3654
| 21> H 	 5.99314 	 78.1597 	 50.815
| 22> H 	 5.67331 	 76.9102 	 49.5784
| 23> S 	 -2.40767 	 76.0938 	 52.3943
| 24> C 	 -3.21602 	 74.5796 	 52.5105
| 25> C 	 -2.88738 	 73.7705 	 51.4045
| 26> C 	 -1.79371 	 74.2641 	 50.6207
| 27> C 	 -1.40912 	 75.5739 	 51.0502
| 28> H 	 -3.53805 	 72.8191 	 51.3159
| 29> C 	 -1.23683 	 73.4283 	 49.4636
| 30> H 	 -0.749356 	 74.0376 	 48.6779
| 31> H 	 -2.18248 	 73.1182 	 49.0219
| 32> C 	 -0.354531 	 72.1915 	 49.8471
| 33> H 	 -0.127177 	 71.6425 	 48.9625
| 34> H 	 -1.00799 	 71.5718 	 50.5214
| 35> C 	 0.923261 	 72.607 	 50.4971
| 36> H 	 1.57889 	 73.0658 	 49.7594
| 37> H 	 1.43442 	 71.8344 	 50.9947
| 38> H 	 0.737469 	 73.3133 	 51.2557
| 39> H 	 1.06563 	 79.6266 	 50.2084
| 40> H 	 -3.92109 	 74.3018 	 53.2498
| 41> *
| 42>
| 43>                          ****END OF INPUT****

CARTESIAN COORDINATES (ANGSTROEM)
---------------------------------
  S     -0.745482   78.197000   50.864000
  C      0.733375   78.667200   50.087500
  C      1.448940   77.612800   49.632000
  C      0.700998   76.370600   49.764800
  C     -0.514605   76.549100   50.424800
  H      1.158990   75.395800   49.683700
  C      2.932650   77.702900   49.224500
  H      2.875640   78.573400   48.558100
  H      3.283460   76.800600   48.609500
  C      3.901290   78.014900   50.371900
  H      3.683030   78.960300   50.839300
  H      3.610830   77.325600   51.153000
  C      5.402470   77.822600   50.032700
  H      5.542710   78.616800   49.365400
  H      5.993140   78.159700   50.815000
  H      5.673310   76.910200   49.578400
  S     -2.407670   76.093800   52.394300
  C     -3.216020   74.579600   52.510500
  C     -2.887380   73.770500   51.404500
  C     -1.793710   74.264100   50.620700
  C     -1.409120   75.573900   51.050200
  H     -3.538050   72.819100   51.315900
  C     -1.236830   73.428300   49.463600
  H     -0.749356   74.037600   48.677900
  H     -2.182480   73.118200   49.021900
  C     -0.354531   72.191500   49.847100
  H     -0.127177   71.642500   48.962500
  H     -1.007990   71.571800   50.521400
  C      0.923261   72.607000   50.497100
  H      1.578890   73.065800   49.759400
  H      1.434420   71.834400   50.994700
  H      0.737469   73.313300   51.255700
  H      1.065630   79.626600   50.208400
  H     -3.921090   74.301800   53.249800

 Total Charge           Charge          ....    0
 Multiplicity           Mult            ....    1
 Number of Electrons    NEL             ....  134
 Basis Dimension        Dim             ....  322

ORBITAL ENERGIES
----------------

  NO   OCC          E(Eh)            E(eV)
   0   2.0000     -88.968874     -2420.9661
   1   2.0000     -88.962673     -2420.7974
   2   2.0000     -10.332891      -281.1723
   3   2.0000     -10.331087      -281.1232
   4   2.0000     -10.316697      -280.7316
   5   2.0000     -10.312203      -280.6093
   6   2.0000     -10.304463      -280.3987
   7   2.0000     -10.302303      -280.3399
   8   2.0000     -10.301582      -280.3203
   9   2.0000     -10.299569      -280.2655
  10   2.0000     -10.295217      -280.1471
  11   2.0000     -10.294359      -280.1237
  12   2.0000     -10.288507      -279.9645
  13   2.0000     -10.284585      -279.8578
  14   2.0000     -10.268072      -279.4084
  15   2.0000     -10.265926      -279.3500
  16   2.0000      -8.083806      -219.9716
  17   2.0000      -8.078709      -219.8329
  18   2.0000      -6.042258      -164.4182
  19   2.0000      -6.038221      -164.3084
  20   2.0000      -6.037195      -164.2804
  21   2.0000      -6.034678      -164.2119
  22   2.0000      -6.033137      -164.1700
  23   2.0000      -6.029332      -164.0665
  24   2.0000      -1.009472       -27.4691
  25   2.0000      -0.984609       -26.7926
  26   2.0000      -0.911853       -24.8128
  27   2.0000      -0.909770       -24.7561
  28   2.0000      -0.870718       -23.6934
  29   2.0000      -0.854955       -23.2645
  30   2.0000      -0.844507       -22.9802
  31   2.0000      -0.815212       -22.1831
  32   2.0000      -0.785358       -21.3707
  33   2.0000      -0.776020       -21.1166
  34   2.0000      -0.708654       -19.2835
  35   2.0000      -0.705044       -19.1852
  36   2.0000      -0.694678       -18.9031
  37   2.0000      -0.658353       -17.9147
  38   2.0000      -0.639734       -17.4081
  39   2.0000      -0.618580       -16.8324
  40   2.0000      -0.594143       -16.1675
  41   2.0000      -0.573394       -15.6028
  42   2.0000      -0.558480       -15.1970
  43   2.0000      -0.554166       -15.0796
  44   2.0000      -0.547275       -14.8921
  45   2.0000      -0.525143       -14.2899
  46   2.0000      -0.519730       -14.1426
  47   2.0000      -0.513608       -13.9760
  48   2.0000      -0.505382       -13.7521
  49   2.0000      -0.501932       -13.6583
  50   2.0000      -0.488264       -13.2864
  51   2.0000      -0.479505       -13.0480
  52   2.0000      -0.475722       -12.9451
  53   2.0000      -0.467343       -12.7171
  54   2.0000      -0.459026       -12.4907
  55   2.0000      -0.454396       -12.3647
  56   2.0000      -0.446216       -12.1422
  57   2.0000      -0.440991       -12.0000
  58   2.0000      -0.435852       -11.8601
  59   2.0000      -0.427867       -11.6428
  60   2.0000      -0.423090       -11.5129
  61   2.0000      -0.410745       -11.1769
  62   2.0000      -0.406357       -11.0575
  63   2.0000      -0.359701        -9.7880
  64   2.0000      -0.334140        -9.0924
  65   2.0000      -0.325917        -8.8686
  66   2.0000      -0.280253        -7.6261
  67   0.0000       0.020049         0.5456
  68   0.0000       0.075991         2.0678
  69   0.0000       0.107188         2.9167
  70   0.0000       0.117098         3.1864
  71   0.0000       0.138082         3.7574

MULLIKEN ATOMIC CHARGES
-----------------------
   0 S :    0.081076
   1 C :   -0.092865
   2 C :   -0.086409
   3 C :    0.020241
   4 C :   -0.105717
   5 H :   -0.009710
   6 C :    0.029287
   7 H :    0.033082
   8 H :    0.038457
   9 C :   -0.080035
  10 H :    0.017939
  11 H :    0.022726
  12 C :    0.034922
  13 H :    0.003381
  14 H :    0.016130
  15 H :    0.034664
  16 S :    0.103261
  17 C :   -0.089378
  18 C :   -0.078248
  19 C :   -0.056502
  20 C :   -0.125009
  21 H :    0.054088
  22 C :    0.031402
  23 H :    0.031900
  24 H :    0.029607
  25 C :   -0.050863
  26 H :    0.029313
  27 H :    0.030789
  28 C :   -0.012260
  29 H :    0.033456
  30 H :    0.022036
  31 H :    0.026854
  32 H :    0.013008
  33 H :    0.049376
Sum of atomic charges:    0.0000000

LOEWDIN ATOMIC CHARGES
----------------------
   0 S :    0.414233
   1 C :   -0.189551
   2 C :   -0.054906
   3 C :   -0.074693
   4 C :   -0.186762
   5 H :    0.026379
   6 C :   -0.036465
   7 H :    0.032003
   8 H :    0.036705
   9 C :   -0.039064
  10 H :    0.021689
  11 H :    0.019850
  12 C :   -0.051215
  13 H :    0.022781
  14 H :    0.022862
  15 H :    0.022582
  16 S :    0.418118
  17 C :   -0.197289
  18 C :   -0.082640
  19 C :   -0.056926
  20 C :   -0.202014
  21 H :    0.047317
  22 C :   -0.035063
  23 H :    0.029942
  24 H :    0.034495
  25 C :   -0.031693
  26 H :    0.021370
  27 H :    0.027301
  28 C :   -0.060093
  29 H :    0.024593
  30 H :    0.022568
  31 H :    0.022434
  32 H :    0.006588
  33 H :    0.024564

  Mayer bond orders larger than 0.100000
B(  0-S ,  1-C ) :   1.1294 B(  0-S ,  4-C ) :   1.1601 B(  1-C ,  2-C ) :   1.6243
B(  1-C , 32-H ) :   0.9834 B(  2-C ,  3-C ) :   1.2471 B(  2-C ,  6-C ) :   1.0103
B(  3-C ,  4-C ) :   1.5549 B(  3-C ,  5-H ) :   0.9877 B(  4-C , 20-C ) :   1.0852
B(  6-C ,  7-H ) :   0.9376 B(  6-C ,  8-H ) :   0.9489 B(  6-C ,  9-C ) :   1.0558
B(  9-C , 10-H ) :   0.9519 B(  9-C , 11-H ) :   0.9590 B(  9-C , 12-C ) :   1.0803
B( 12-C , 13-H ) :   0.9692 B( 12-C , 14-H ) :   0.9677 B( 12-C , 15-H ) :   0.9774
B( 16-S , 17-C ) :   1.1673 B( 16-S , 20-C ) :   1.1515 B( 17-C , 18-C ) :   1.5851
B( 17-C , 20-C ) :   0.1028 B( 17-C , 33-H ) :   0.9739 B( 18-C , 19-C ) :   1.2741
B( 18-C , 21-H ) :   0.9738 B( 19-C , 20-C ) :   1.5215 B( 19-C , 22-C ) :   1.0302
B( 22-C , 23-H ) :   0.9384 B( 22-C , 24-H ) :   0.9336 B( 22-C , 25-C ) :   1.0689
B( 25-C , 26-H ) :   0.9556 B( 25-C , 27-H ) :   0.9547 B( 25-C , 28-C ) :   1.0869
B( 28-C , 29-H ) :   0.9635 B( 28-C , 30-H ) :   0.9657 B( 28-C , 31-H ) :   0.9718

Dispersion correction           -0.014522318
FINAL SINGLE POINT ENERGY     -1339.862561637548

DIPOLE MOMENT
-------------
                                X             Y             Z
Electronic contribution:    -24.59577      11.09586       8.81843
Nuclear contribution   :     25.00485     -11.47240      -8.85860
                        -----------------------------------------
Total Dipole Moment    :      0.40909      -0.37654      -0.04017
                        -----------------------------------------
Magnitude (a.u.)       :      0.55745
Magnitude (Debye)      :      1.41692

Rotational constants in cm-1:     0.019950     0.008518     0.006534
Rotational constants in MHz :   598.085916   255.364713   195.893969

                             ****ORCA TERMINATED NORMALLY****
TOTAL RUN TIME: 0 days 0 hours 0 minutes 33 seconds 943 msec
