                         Program Version 4.2.1 -  RELEASE  -
|  1> ! wB97X-D3 SP def2-SVP
|  2> %pal
|  3> nprocs 16
|  4> end
|  5>
|  6> * xyz 0 1
|  7> S 	 -8.68001 	 -10.982 	 87.2538
|  8> C 	 -9.60043 	 -11.6032 	 85.8536
|  9> C 	 -10.8078 	 -12.127 	 86.3383
| 10> C 	 -11.0163 	 -11.8457 	 87.7026
| 11> C 	 -9.90737 	 -11.4061 	 88.4147
| 12> H 	 -11.9157 	 -12.0265 	 88.2452
| 13> C 	 -11.8789 	 -12.5511 	 85.3941
| 14> H 	 -12.7045 	 -12.8592 	 86.069
| 15> H 	 -11.5774 	 -13.3635 	 84.7473
| 16> C 	 -12.3869 	 -11.4339 	 84.491
| 17> H 	 -12.9835 	 -10.7727 	 85.0663
| 18> H 	 -11.6046 	 -10.862 	 84.1025
| 19> C 	 -13.174 	 -12.0334 	 83.2675
| 20> H 	 -13.7385 	 -11.217 	 82.7179
| 21> H 	 -12.35 	 -12.3911 	 82.6434
| 22> H 	 -13.9863 	 -12.6592 	 83.5873
| 23> S 	 -10.9839 	 -9.78243 	 90.4103
| 24> C 	 -10.4517 	 -10.0248 	 92.0083
| 25> C 	 -9.42842 	 -10.926 	 92.1058
| 26> C 	 -9.0587 	 -11.4404 	 90.8296
| 27> C 	 -9.90084 	 -11.0225 	 89.8095
| 28> H 	 -8.98878 	 -11.2831 	 93.0763
| 29> C 	 -8.03692 	 -12.5629 	 90.5673
| 30> H 	 -8.4535 	 -13.1243 	 89.7569
| 31> H 	 -8.1453 	 -13.2599 	 91.4242
| 32> C 	 -6.5743 	 -12.2687 	 90.2981
| 33> H 	 -6.52885 	 -12.162 	 89.2179
| 34> H 	 -5.94197 	 -13.1211 	 90.6115
| 35> C 	 -5.94007 	 -10.9975 	 90.9171
| 36> H 	 -5.74499 	 -11.2295 	 91.9618
| 37> H 	 -6.66161 	 -10.1616 	 90.8072
| 38> H 	 -5.02682 	 -10.7849 	 90.2972
| 39> H 	 -9.29109 	 -11.5872 	 84.8241
| 40> H 	 -10.965 	 -9.61008 	 92.8167
| 41> *
| 42>
| 43>                          ****END OF INPUT****

CARTESIAN COORDINATES (ANGSTROEM)
---------------------------------
  S     -8.680010  -10.982000   87.253800
  C     -9.600430  -11.603200   85.853600
  C    -10.807800  -12.127000   86.338300
  C    -11.016300  -11.845700   87.702600
  C     -9.907370  -11.406100   88.414700
  H    -11.915700  -12.026500   88.245200
  C    -11.878900  -12.551100   85.394100
  H    -12.704500  -12.859200   86.069000
  H    -11.577400  -13.363500   84.747300
  C    -12.386900  -11.433900   84.491000
  H    -12.983500  -10.772700   85.066300
  H    -11.604600  -10.862000   84.102500
  C    -13.174000  -12.033400   83.267500
  H    -13.738500  -11.217000   82.717900
  H    -12.350000  -12.391100   82.643400
  H    -13.986300  -12.659200   83.587300
  S    -10.983900   -9.782430   90.410300
  C    -10.451700  -10.024800   92.008300
  C     -9.428420  -10.926000   92.105800
  C     -9.058700  -11.440400   90.829600
  C     -9.900840  -11.022500   89.809500
  H     -8.988780  -11.283100   93.076300
  C     -8.036920  -12.562900   90.567300
  H     -8.453500  -13.124300   89.756900
  H     -8.145300  -13.259900   91.424200
  C     -6.574300  -12.268700   90.298100
  H     -6.528850  -12.162000   89.217900
  H     -5.941970  -13.121100   90.611500
  C     -5.940070  -10.997500   90.917100
  H     -5.744990  -11.229500   91.961800
  H     -6.661610  -10.161600   90.807200
  H     -5.026820  -10.784900   90.297200
  H     -9.291090  -11.587200   84.824100
  H    -10.965000   -9.610080   92.816700

 Total Charge           Charge          ....    0
 Multiplicity           Mult            ....    1
 Number of Electrons    NEL             ....  134
 Basis Dimension        Dim             ....  322

ORBITAL ENERGIES
----------------

  NO   OCC          E(Eh)            E(eV)
   0   2.0000     -88.968680     -2420.9609
   1   2.0000     -88.965939     -2420.8863
   2   2.0000     -10.328648      -281.0568
   3   2.0000     -10.323230      -280.9094
   4   2.0000     -10.319859      -280.8176
   5   2.0000     -10.310444      -280.5614
   6   2.0000     -10.302391      -280.3423
   7   2.0000     -10.300274      -280.2847
   8   2.0000     -10.296832      -280.1911
   9   2.0000     -10.292621      -280.0765
  10   2.0000     -10.289026      -279.9786
  11   2.0000     -10.284726      -279.8616
  12   2.0000     -10.284602      -279.8582
  13   2.0000     -10.279022      -279.7064
  14   2.0000     -10.278417      -279.6899
  15   2.0000     -10.276667      -279.6423
  16   2.0000      -8.082351      -219.9319
  17   2.0000      -8.081560      -219.9104
  18   2.0000      -6.040875      -164.3806
  19   2.0000      -6.039945      -164.3553
  20   2.0000      -6.036810      -164.2699
  21   2.0000      -6.035905      -164.2453
  22   2.0000      -6.033323      -164.1751
  23   2.0000      -6.032444      -164.1512
  24   2.0000      -1.010498       -27.4971
  25   2.0000      -0.988179       -26.8897
  26   2.0000      -0.917216       -24.9587
  27   2.0000      -0.903837       -24.5947
  28   2.0000      -0.869987       -23.6735
  29   2.0000      -0.848542       -23.0900
  30   2.0000      -0.845971       -23.0200
  31   2.0000      -0.814348       -22.1595
  32   2.0000      -0.782095       -21.2819
  33   2.0000      -0.770674       -20.9711
  34   2.0000      -0.708213       -19.2714
  35   2.0000      -0.704540       -19.1715
  36   2.0000      -0.685594       -18.6560
  37   2.0000      -0.663412       -18.0523
  38   2.0000      -0.640820       -17.4376
  39   2.0000      -0.616492       -16.7756
  40   2.0000      -0.588444       -16.0124
  41   2.0000      -0.578543       -15.7430
  42   2.0000      -0.567965       -15.4551
  43   2.0000      -0.562073       -15.2948
  44   2.0000      -0.542105       -14.7514
  45   2.0000      -0.523876       -14.2554
  46   2.0000      -0.514881       -14.0106
  47   2.0000      -0.513019       -13.9599
  48   2.0000      -0.508081       -13.8256
  49   2.0000      -0.497968       -13.5504
  50   2.0000      -0.485520       -13.2117
  51   2.0000      -0.480764       -13.0822
  52   2.0000      -0.472936       -12.8692
  53   2.0000      -0.468724       -12.7546
  54   2.0000      -0.460875       -12.5411
  55   2.0000      -0.444741       -12.1020
  56   2.0000      -0.439948       -11.9716
  57   2.0000      -0.433016       -11.7830
  58   2.0000      -0.432415       -11.7666
  59   2.0000      -0.428064       -11.6482
  60   2.0000      -0.414494       -11.2790
  61   2.0000      -0.411433       -11.1957
  62   2.0000      -0.404820       -11.0157
  63   2.0000      -0.337676        -9.1886
  64   2.0000      -0.335096        -9.1184
  65   2.0000      -0.329159        -8.9569
  66   2.0000      -0.299777        -8.1574
  67   0.0000       0.028836         0.7847
  68   0.0000       0.063559         1.7295
  69   0.0000       0.110796         3.0149
  70   0.0000       0.113154         3.0791
  71   0.0000       0.126303         3.4369

MULLIKEN ATOMIC CHARGES
-----------------------
   0 S :    0.115136
   1 C :   -0.136917
   2 C :   -0.056281
   3 C :    0.003495
   4 C :   -0.143908
   5 H :    0.004880
   6 C :    0.057644
   7 H :    0.024898
   8 H :    0.026621
   9 C :   -0.048936
  10 H :    0.016402
  11 H :    0.010286
  12 C :   -0.070150
  13 H :    0.037091
  14 H :    0.046600
  15 H :    0.038908
  16 S :    0.124644
  17 C :   -0.072073
  18 C :   -0.037132
  19 C :   -0.059337
  20 C :   -0.170422
  21 H :    0.036737
  22 C :    0.065008
  23 H :    0.031444
  24 H :    0.019329
  25 C :   -0.080815
  26 H :    0.020963
  27 H :    0.033237
  28 C :   -0.060537
  29 H :    0.035051
  30 H :    0.048221
  31 H :    0.046951
  32 H :    0.053710
  33 H :    0.039254
Sum of atomic charges:    0.0000000

LOEWDIN ATOMIC CHARGES
----------------------
   0 S :    0.410622
   1 C :   -0.181825
   2 C :   -0.065499
   3 C :   -0.060170
   4 C :   -0.203269
   5 H :    0.026150
   6 C :   -0.033671
   7 H :    0.034264
   8 H :    0.029138
   9 C :   -0.029286
  10 H :    0.017545
  11 H :    0.012271
  12 C :   -0.067749
  13 H :    0.032323
  14 H :    0.029590
  15 H :    0.023177
  16 S :    0.427246
  17 C :   -0.187671
  18 C :   -0.076985
  19 C :   -0.053621
  20 C :   -0.207647
  21 H :    0.041666
  22 C :   -0.037536
  23 H :    0.031004
  24 H :    0.030396
  25 C :   -0.048284
  26 H :    0.016083
  27 H :    0.028354
  28 C :   -0.067640
  29 H :    0.022132
  30 H :    0.028157
  31 H :    0.034996
  32 H :    0.027790
  33 H :    0.017945

  Mayer bond orders larger than 0.100000
B(  0-S ,  1-C ) :   1.1564 B(  0-S ,  4-C ) :   1.1561 B(  1-C ,  2-C ) :   1.5439
B(  1-C ,  4-C ) :   0.1096 B(  1-C , 32-H ) :   0.9758 B(  2-C ,  3-C ) :   1.2767
B(  2-C ,  6-C ) :   1.0404 B(  3-C ,  4-C ) :   1.5379 B(  3-C ,  5-H ) :   0.9978
B(  4-C , 20-C ) :   1.0505 B(  6-C ,  7-H ) :   0.9389 B(  6-C ,  8-H ) :   0.9367
B(  6-C ,  9-C ) :   1.0619 B(  9-C , 10-H ) :   0.9543 B(  9-C , 11-H ) :   0.9620
B(  9-C , 12-C ) :   1.0721 B( 12-C , 13-H ) :   0.9748 B( 12-C , 14-H ) :   0.9785
B( 12-C , 15-H ) :   0.9762 B( 16-S , 17-C ) :   1.1755 B( 16-S , 20-C ) :   1.1376
B( 17-C , 18-C ) :   1.5883 B( 17-C , 33-H ) :   0.9729 B( 18-C , 19-C ) :   1.2574
B( 18-C , 21-H ) :   0.9843 B( 19-C , 20-C ) :   1.5771 B( 19-C , 22-C ) :   1.0299
B( 22-C , 23-H ) :   0.9368 B( 22-C , 24-H ) :   0.9381 B( 22-C , 25-C ) :   1.0584
B( 25-C , 26-H ) :   0.9515 B( 25-C , 27-H ) :   0.9552 B( 25-C , 28-C ) :   1.0931
B( 28-C , 29-H ) :   0.9784 B( 28-C , 30-H ) :   0.9675 B( 28-C , 31-H ) :   0.9753

Dispersion correction           -0.014651463
FINAL SINGLE POINT ENERGY     -1339.874704197455

DIPOLE MOMENT
-------------
                                X             Y             Z
Electronic contribution:     -0.99518       8.40674      10.13616
Nuclear contribution   :      0.73519      -8.64346     -10.23941
                        -----------------------------------------
Total Dipole Moment    :     -0.25999      -0.23672      -0.10325
                        -----------------------------------------
Magnitude (a.u.)       :      0.36646
Magnitude (Debye)      :      0.93146

Rotational constants in cm-1:     0.025211     0.007426     0.006228
Rotational constants in MHz :   755.802496   222.613794   186.707262

                             ****ORCA TERMINATED NORMALLY****
TOTAL RUN TIME: 0 days 0 hours 0 minutes 31 seconds 323 msec
