                         Program Version 4.2.1 -  RELEASE  -
|  1> ! wB97X-D3 SP def2-SVP
|  2> %pal
|  3> nprocs 16
|  4> end
|  5>
|  6> * xyz 0 1
|  7> S 	 35.5336 	 15.5516 	 63.2458
|  8> C 	 34.945 	 16.1909 	 64.7329
|  9> C 	 35.5783 	 15.6943 	 65.863
| 10> C 	 36.3767 	 14.567 	 65.4838
| 11> C 	 36.4588 	 14.3352 	 64.1266
| 12> H 	 36.7034 	 13.8189 	 66.2
| 13> C 	 35.4146 	 16.0422 	 67.3036
| 14> H 	 36.2353 	 16.6442 	 67.6575
| 15> H 	 35.429 	 15.1538 	 67.9281
| 16> C 	 34.1109 	 16.7951 	 67.662
| 17> H 	 33.9504 	 17.6304 	 67.0931
| 18> H 	 33.3548 	 16.0778 	 67.2497
| 19> C 	 33.8858 	 16.9198 	 69.2234
| 20> H 	 34.5527 	 17.707 	 69.6065
| 21> H 	 32.9217 	 17.3446 	 69.4123
| 22> H 	 34.0362 	 15.9021 	 69.8407
| 23> S 	 38.3778 	 13.9745 	 62.2606
| 24> C 	 39.3945 	 12.5771 	 62.2141
| 25> C 	 38.867 	 11.6693 	 63.0699
| 26> C 	 37.6237 	 12.0318 	 63.6645
| 27> C 	 37.2797 	 13.3518 	 63.4632
| 28> H 	 39.3292 	 10.7126 	 63.2868
| 29> C 	 36.9686 	 11.1258 	 64.6476
| 30> H 	 36.1111 	 11.7084 	 64.9472
| 31> H 	 37.5541 	 10.877 	 65.5071
| 32> C 	 36.3993 	 9.78201 	 64.0777
| 33> H 	 36.1416 	 9.08886 	 64.8265
| 34> H 	 37.0624 	 9.20943 	 63.4115
| 35> C 	 35.1056 	 9.93547 	 63.3351
| 36> H 	 34.2869 	 10.1836 	 64.0413
| 37> H 	 34.8562 	 8.9922 	 62.771
| 38> H 	 35.1162 	 10.7114 	 62.5831
| 39> H 	 34.1702 	 16.9473 	 64.7704
| 40> H 	 40.3148 	 12.335 	 61.6926
| 41> *
| 42>
| 43>                          ****END OF INPUT****

CARTESIAN COORDINATES (ANGSTROEM)
---------------------------------
  S     35.533600   15.551600   63.245800
  C     34.945000   16.190900   64.732900
  C     35.578300   15.694300   65.863000
  C     36.376700   14.567000   65.483800
  C     36.458800   14.335200   64.126600
  H     36.703400   13.818900   66.200000
  C     35.414600   16.042200   67.303600
  H     36.235300   16.644200   67.657500
  H     35.429000   15.153800   67.928100
  C     34.110900   16.795100   67.662000
  H     33.950400   17.630400   67.093100
  H     33.354800   16.077800   67.249700
  C     33.885800   16.919800   69.223400
  H     34.552700   17.707000   69.606500
  H     32.921700   17.344600   69.412300
  H     34.036200   15.902100   69.840700
  S     38.377800   13.974500   62.260600
  C     39.394500   12.577100   62.214100
  C     38.867000   11.669300   63.069900
  C     37.623700   12.031800   63.664500
  C     37.279700   13.351800   63.463200
  H     39.329200   10.712600   63.286800
  C     36.968600   11.125800   64.647600
  H     36.111100   11.708400   64.947200
  H     37.554100   10.877000   65.507100
  C     36.399300    9.782010   64.077700
  H     36.141600    9.088860   64.826500
  H     37.062400    9.209430   63.411500
  C     35.105600    9.935470   63.335100
  H     34.286900   10.183600   64.041300
  H     34.856200    8.992200   62.771000
  H     35.116200   10.711400   62.583100
  H     34.170200   16.947300   64.770400
  H     40.314800   12.335000   61.692600

 Total Charge           Charge          ....    0
 Multiplicity           Mult            ....    1
 Number of Electrons    NEL             ....  134
 Basis Dimension        Dim             ....  322

ORBITAL ENERGIES
----------------

  NO   OCC          E(Eh)            E(eV)
   0   2.0000     -88.969469     -2420.9823
   1   2.0000     -88.959490     -2420.7108
   2   2.0000     -10.331713      -281.1402
   3   2.0000     -10.325867      -280.9811
   4   2.0000     -10.317040      -280.7409
   5   2.0000     -10.312959      -280.6299
   6   2.0000     -10.303231      -280.3652
   7   2.0000     -10.296931      -280.1937
   8   2.0000     -10.296306      -280.1767
   9   2.0000     -10.295647      -280.1588
  10   2.0000     -10.292343      -280.0689
  11   2.0000     -10.289386      -279.9884
  12   2.0000     -10.285998      -279.8962
  13   2.0000     -10.285966      -279.8954
  14   2.0000     -10.279121      -279.7091
  15   2.0000     -10.272040      -279.5164
  16   2.0000      -8.084490      -219.9901
  17   2.0000      -8.075079      -219.7341
  18   2.0000      -6.043000      -164.4384
  19   2.0000      -6.039008      -164.3298
  20   2.0000      -6.035187      -164.2258
  21   2.0000      -6.033723      -164.1860
  22   2.0000      -6.029312      -164.0659
  23   2.0000      -6.025747      -163.9689
  24   2.0000      -1.013406       -27.5762
  25   2.0000      -0.990819       -26.9616
  26   2.0000      -0.914098       -24.8739
  27   2.0000      -0.909550       -24.7501
  28   2.0000      -0.873665       -23.7736
  29   2.0000      -0.854395       -23.2493
  30   2.0000      -0.847230       -23.0543
  31   2.0000      -0.815487       -22.1905
  32   2.0000      -0.780942       -21.2505
  33   2.0000      -0.770812       -20.9749
  34   2.0000      -0.717696       -19.5295
  35   2.0000      -0.701766       -19.0960
  36   2.0000      -0.694844       -18.9077
  37   2.0000      -0.661598       -18.0030
  38   2.0000      -0.642257       -17.4767
  39   2.0000      -0.619177       -16.8487
  40   2.0000      -0.596171       -16.2226
  41   2.0000      -0.575788       -15.6680
  42   2.0000      -0.568869       -15.4797
  43   2.0000      -0.554219       -15.0811
  44   2.0000      -0.541584       -14.7373
  45   2.0000      -0.521654       -14.1949
  46   2.0000      -0.518158       -14.0998
  47   2.0000      -0.512972       -13.9587
  48   2.0000      -0.510578       -13.8935
  49   2.0000      -0.499865       -13.6020
  50   2.0000      -0.489989       -13.3333
  51   2.0000      -0.482105       -13.1188
  52   2.0000      -0.474121       -12.9015
  53   2.0000      -0.465551       -12.6683
  54   2.0000      -0.456311       -12.4168
  55   2.0000      -0.452491       -12.3129
  56   2.0000      -0.439427       -11.9574
  57   2.0000      -0.433447       -11.7947
  58   2.0000      -0.432765       -11.7761
  59   2.0000      -0.430971       -11.7273
  60   2.0000      -0.419193       -11.4068
  61   2.0000      -0.414980       -11.2922
  62   2.0000      -0.407429       -11.0867
  63   2.0000      -0.353772        -9.6266
  64   2.0000      -0.332135        -9.0378
  65   2.0000      -0.325081        -8.8459
  66   2.0000      -0.291028        -7.9193
  67   0.0000       0.031459         0.8560
  68   0.0000       0.068502         1.8640
  69   0.0000       0.112611         3.0643
  70   0.0000       0.118301         3.2191
  71   0.0000       0.131011         3.5650

MULLIKEN ATOMIC CHARGES
-----------------------
   0 S :    0.124840
   1 C :   -0.123718
   2 C :   -0.071928
   3 C :    0.020493
   4 C :   -0.154928
   5 H :    0.021026
   6 C :    0.082982
   7 H :    0.037152
   8 H :    0.020157
   9 C :   -0.106745
  10 H :    0.018484
  11 H :    0.030260
  12 C :   -0.062578
  13 H :    0.035932
  14 H :    0.032039
  15 H :    0.059843
  16 S :    0.088246
  17 C :   -0.062402
  18 C :   -0.048200
  19 C :   -0.059401
  20 C :   -0.119120
  21 H :    0.016522
  22 C :    0.068735
  23 H :    0.012255
  24 H :    0.033615
  25 C :   -0.046649
  26 H :    0.013165
  27 H :    0.023656
  28 C :   -0.083923
  29 H :    0.031922
  30 H :    0.035671
  31 H :    0.031303
  32 H :    0.044745
  33 H :    0.056548
Sum of atomic charges:    0.0000000

LOEWDIN ATOMIC CHARGES
----------------------
   0 S :    0.412791
   1 C :   -0.198526
   2 C :   -0.061817
   3 C :   -0.052579
   4 C :   -0.195408
   5 H :    0.032727
   6 C :   -0.030826
   7 H :    0.032418
   8 H :    0.030842
   9 C :   -0.038766
  10 H :    0.008447
  11 H :    0.028521
  12 C :   -0.071814
  13 H :    0.026048
  14 H :    0.022834
  15 H :    0.044264
  16 S :    0.411884
  17 C :   -0.194374
  18 C :   -0.072811
  19 C :   -0.067780
  20 C :   -0.193545
  21 H :    0.028832
  22 C :   -0.028671
  23 H :    0.029177
  24 H :    0.028823
  25 C :   -0.042258
  26 H :    0.018991
  27 H :    0.022820
  28 C :   -0.069171
  29 H :    0.024502
  30 H :    0.031031
  31 H :    0.019587
  32 H :    0.024200
  33 H :    0.039607

  Mayer bond orders larger than 0.100000
B(  0-S ,  1-C ) :   1.1430 B(  0-S ,  4-C ) :   1.1389 B(  1-C ,  2-C ) :   1.6135
B(  1-C , 32-H ) :   0.9648 B(  2-C ,  3-C ) :   1.2437 B(  2-C ,  6-C ) :   1.0250
B(  3-C ,  4-C ) :   1.5850 B(  3-C ,  5-H ) :   0.9888 B(  4-C , 20-C ) :   1.0389
B(  6-C ,  7-H ) :   0.9229 B(  6-C ,  8-H ) :   0.9454 B(  6-C ,  9-C ) :   1.0644
B(  9-C , 10-H ) :   0.9548 B(  9-C , 11-H ) :   0.9621 B(  9-C , 12-C ) :   1.0741
B( 12-C , 13-H ) :   0.9746 B( 12-C , 14-H ) :   0.9736 B( 12-C , 15-H ) :   0.9728
B( 16-S , 17-C ) :   1.1426 B( 16-S , 20-C ) :   1.1357 B( 17-C , 18-C ) :   1.6100
B( 17-C , 33-H ) :   0.9685 B( 18-C , 19-C ) :   1.2477 B( 18-C , 21-H ) :   0.9877
B( 19-C , 20-C ) :   1.5859 B( 19-C , 22-C ) :   1.0558 B( 22-C , 23-H ) :   0.9323
B( 22-C , 24-H ) :   0.9392 B( 22-C , 25-C ) :   1.0591 B( 25-C , 26-H ) :   0.9536
B( 25-C , 27-H ) :   0.9611 B( 25-C , 28-C ) :   1.0832 B( 28-C , 29-H ) :   0.9734
B( 28-C , 30-H ) :   0.9726 B( 28-C , 31-H ) :   0.9783

Dispersion correction           -0.013632850
FINAL SINGLE POINT ENERGY     -1339.864408362658

DIPOLE MOMENT
-------------
                                X             Y             Z
Electronic contribution:     12.76429       8.64038     -21.15408
Nuclear contribution   :    -12.84489      -8.84662      21.88982
                        -----------------------------------------
Total Dipole Moment    :     -0.08060      -0.20625       0.73574
                        -----------------------------------------
Magnitude (a.u.)       :      0.76834
Magnitude (Debye)      :      1.95295

Rotational constants in cm-1:     0.020987     0.007315     0.006270
Rotational constants in MHz :   629.186756   219.297765   187.973774

                             ****ORCA TERMINATED NORMALLY****
TOTAL RUN TIME: 0 days 0 hours 0 minutes 29 seconds 339 msec
