                         Program Version 4.2.1 -  RELEASE  -
|  1> ! wB97X-D3 SP def2-SVP
|  2> %pal
|  3> nprocs 16
|  4> end
|  5>
|  6> * xyz 0 1
|  7> S 	 -22.7918 	 31.8481 	 43.3981
|  8> C 	 -21.6692 	 30.9369 	 44.2712
|  9> C 	 -20.4933 	 30.8027 	 43.5973
| 10> C 	 -20.6316 	 31.059 	 42.2514
| 11> C 	 -21.9598 	 31.4005 	 41.8747
| 12> H 	 -19.9419 	 30.8908 	 41.4823
| 13> C 	 -19.2078 	 30.1957 	 44.007
| 14> H 	 -18.5717 	 30.0837 	 43.1119
| 15> H 	 -19.4725 	 29.1903 	 44.2765
| 16> C 	 -18.376 	 30.9665 	 45.081
| 17> H 	 -18.2573 	 32.0087 	 44.7292
| 18> H 	 -18.9675 	 30.8341 	 46.0214
| 19> C 	 -17.0072 	 30.3406 	 45.3352
| 20> H 	 -16.3142 	 30.4315 	 44.5373
| 21> H 	 -16.5724 	 30.6784 	 46.297
| 22> H 	 -17.0309 	 29.2907 	 45.4865
| 23> S 	 -23.8394 	 32.8111 	 40.4285
| 24> C 	 -23.9238 	 32.673 	 38.7371
| 25> C 	 -23.0774 	 31.6597 	 38.2825
| 26> C 	 -22.3173 	 31.0217 	 39.3195
| 27> C 	 -22.5714 	 31.5827 	 40.5726
| 28> H 	 -23.0136 	 31.4365 	 37.2111
| 29> C 	 -21.2922 	 29.9001 	 38.9563
| 30> H 	 -21.9135 	 29.1939 	 38.3835
| 31> H 	 -20.9758 	 29.4239 	 39.8648
| 32> C 	 -20.0996 	 30.2955 	 38.0246
| 33> H 	 -19.6253 	 31.1783 	 38.55
| 34> H 	 -20.4434 	 30.5932 	 37.003
| 35> C 	 -19.0807 	 29.0805 	 37.9565
| 36> H 	 -18.2764 	 29.2668 	 37.2574
| 37> H 	 -19.7309 	 28.2895 	 37.6346
| 38> H 	 -18.7713 	 28.7848 	 38.9546
| 39> H 	 -21.7881 	 30.7664 	 45.3677
| 40> H 	 -24.7051 	 33.108 	 38.1089
| 41> *
| 42>
| 43>                          ****END OF INPUT****

CARTESIAN COORDINATES (ANGSTROEM)
---------------------------------
  S    -22.791800   31.848100   43.398100
  C    -21.669200   30.936900   44.271200
  C    -20.493300   30.802700   43.597300
  C    -20.631600   31.059000   42.251400
  C    -21.959800   31.400500   41.874700
  H    -19.941900   30.890800   41.482300
  C    -19.207800   30.195700   44.007000
  H    -18.571700   30.083700   43.111900
  H    -19.472500   29.190300   44.276500
  C    -18.376000   30.966500   45.081000
  H    -18.257300   32.008700   44.729200
  H    -18.967500   30.834100   46.021400
  C    -17.007200   30.340600   45.335200
  H    -16.314200   30.431500   44.537300
  H    -16.572400   30.678400   46.297000
  H    -17.030900   29.290700   45.486500
  S    -23.839400   32.811100   40.428500
  C    -23.923800   32.673000   38.737100
  C    -23.077400   31.659700   38.282500
  C    -22.317300   31.021700   39.319500
  C    -22.571400   31.582700   40.572600
  H    -23.013600   31.436500   37.211100
  C    -21.292200   29.900100   38.956300
  H    -21.913500   29.193900   38.383500
  H    -20.975800   29.423900   39.864800
  C    -20.099600   30.295500   38.024600
  H    -19.625300   31.178300   38.550000
  H    -20.443400   30.593200   37.003000
  C    -19.080700   29.080500   37.956500
  H    -18.276400   29.266800   37.257400
  H    -19.730900   28.289500   37.634600
  H    -18.771300   28.784800   38.954600
  H    -21.788100   30.766400   45.367700
  H    -24.705100   33.108000   38.108900

 Total Charge           Charge          ....    0
 Multiplicity           Mult            ....    1
 Number of Electrons    NEL             ....  134
 Basis Dimension        Dim             ....  322

ORBITAL ENERGIES
----------------

  NO   OCC          E(Eh)            E(eV)
   0   2.0000     -88.964585     -2420.8494
   1   2.0000     -88.963542     -2420.8211
   2   2.0000     -10.333390      -281.1858
   3   2.0000     -10.330745      -281.1139
   4   2.0000     -10.316895      -280.7370
   5   2.0000     -10.309849      -280.5453
   6   2.0000     -10.308059      -280.4965
   7   2.0000     -10.301045      -280.3057
   8   2.0000     -10.297784      -280.2169
   9   2.0000     -10.295830      -280.1638
  10   2.0000     -10.294138      -280.1177
  11   2.0000     -10.290839      -280.0280
  12   2.0000     -10.288614      -279.9674
  13   2.0000     -10.288201      -279.9562
  14   2.0000     -10.282696      -279.8064
  15   2.0000     -10.273966      -279.5688
  16   2.0000      -8.080060      -219.8696
  17   2.0000      -8.079088      -219.8432
  18   2.0000      -6.038549      -164.3173
  19   2.0000      -6.037469      -164.2879
  20   2.0000      -6.034424      -164.2050
  21   2.0000      -6.033793      -164.1879
  22   2.0000      -6.030858      -164.1080
  23   2.0000      -6.029631      -164.0746
  24   2.0000      -1.010929       -27.5088
  25   2.0000      -0.990485       -26.9525
  26   2.0000      -0.911986       -24.8164
  27   2.0000      -0.903238       -24.5784
  28   2.0000      -0.869376       -23.6569
  29   2.0000      -0.859062       -23.3763
  30   2.0000      -0.847041       -23.0492
  31   2.0000      -0.810739       -22.0613
  32   2.0000      -0.781716       -21.2716
  33   2.0000      -0.770904       -20.9774
  34   2.0000      -0.706789       -19.2327
  35   2.0000      -0.703298       -19.1377
  36   2.0000      -0.694461       -18.8973
  37   2.0000      -0.663219       -18.0471
  38   2.0000      -0.638655       -17.3787
  39   2.0000      -0.619282       -16.8515
  40   2.0000      -0.592846       -16.1322
  41   2.0000      -0.572328       -15.5738
  42   2.0000      -0.565068       -15.3763
  43   2.0000      -0.559624       -15.2281
  44   2.0000      -0.529858       -14.4182
  45   2.0000      -0.525388       -14.2965
  46   2.0000      -0.518581       -14.1113
  47   2.0000      -0.510750       -13.8982
  48   2.0000      -0.504872       -13.7383
  49   2.0000      -0.502247       -13.6668
  50   2.0000      -0.491219       -13.3668
  51   2.0000      -0.484960       -13.1964
  52   2.0000      -0.473022       -12.8716
  53   2.0000      -0.470645       -12.8069
  54   2.0000      -0.461220       -12.5504
  55   2.0000      -0.448094       -12.1933
  56   2.0000      -0.446289       -12.1441
  57   2.0000      -0.436906       -11.8888
  58   2.0000      -0.433642       -11.8000
  59   2.0000      -0.429907       -11.6984
  60   2.0000      -0.421458       -11.4685
  61   2.0000      -0.416113       -11.3230
  62   2.0000      -0.408364       -11.1122
  63   2.0000      -0.359164        -9.7733
  64   2.0000      -0.333089        -9.0638
  65   2.0000      -0.326748        -8.8913
  66   2.0000      -0.275374        -7.4933
  67   0.0000       0.013612         0.3704
  68   0.0000       0.073619         2.0033
  69   0.0000       0.098810         2.6888
  70   0.0000       0.120739         3.2855
  71   0.0000       0.128569         3.4985

MULLIKEN ATOMIC CHARGES
-----------------------
   0 S :    0.104605
   1 C :   -0.127049
   2 C :   -0.042220
   3 C :    0.025850
   4 C :   -0.151469
   5 H :   -0.014339
   6 C :    0.038591
   7 H :    0.014495
   8 H :    0.031742
   9 C :   -0.081605
  10 H :    0.046735
  11 H :    0.037418
  12 C :   -0.019148
  13 H :    0.022653
  14 H :    0.034626
  15 H :    0.007790
  16 S :    0.098338
  17 C :   -0.087583
  18 C :   -0.061981
  19 C :   -0.043974
  20 C :   -0.135059
  21 H :    0.024864
  22 C :    0.044461
  23 H :    0.031641
  24 H :    0.019646
  25 C :   -0.111918
  26 H :    0.043989
  27 H :    0.042504
  28 C :   -0.018560
  29 H :    0.048155
  30 H :    0.020128
  31 H :    0.027486
  32 H :    0.059468
  33 H :    0.069719
Sum of atomic charges:    0.0000000

LOEWDIN ATOMIC CHARGES
----------------------
   0 S :    0.407352
   1 C :   -0.212807
   2 C :   -0.075316
   3 C :   -0.055035
   4 C :   -0.170342
   5 H :    0.019751
   6 C :   -0.033123
   7 H :    0.027551
   8 H :    0.031911
   9 C :   -0.037852
  10 H :    0.031693
  11 H :    0.029448
  12 C :   -0.068986
  13 H :    0.019301
  14 H :    0.032195
  15 H :    0.020143
  16 S :    0.414293
  17 C :   -0.204670
  18 C :   -0.076872
  19 C :   -0.057131
  20 C :   -0.194582
  21 H :    0.032043
  22 C :   -0.031351
  23 H :    0.032907
  24 H :    0.022788
  25 C :   -0.040500
  26 H :    0.025612
  27 H :    0.026391
  28 C :   -0.059754
  29 H :    0.027143
  30 H :    0.023358
  31 H :    0.023906
  32 H :    0.034312
  33 H :    0.036223

  Mayer bond orders larger than 0.100000
B(  0-S ,  1-C ) :   1.1562 B(  0-S ,  4-C ) :   1.1531 B(  1-C ,  2-C ) :   1.5703
B(  1-C ,  4-C ) :   0.1122 B(  1-C , 32-H ) :   0.9657 B(  2-C ,  3-C ) :   1.2662
B(  2-C ,  6-C ) :   1.0197 B(  3-C ,  4-C ) :   1.5106 B(  3-C ,  5-H ) :   1.0100
B(  4-C , 20-C ) :   1.1042 B(  6-C ,  7-H ) :   0.9480 B(  6-C ,  8-H ) :   0.9344
B(  6-C ,  9-C ) :   1.0539 B(  9-C , 10-H ) :   0.9590 B(  9-C , 11-H ) :   0.9565
B(  9-C , 12-C ) :   1.0881 B( 12-C , 13-H ) :   0.9737 B( 12-C , 14-H ) :   0.9731
B( 12-C , 15-H ) :   0.9681 B( 16-S , 17-C ) :   1.1718 B( 16-S , 20-C ) :   1.1308
B( 17-C , 18-C ) :   1.5907 B( 17-C , 33-H ) :   0.9637 B( 18-C , 19-C ) :   1.2544
B( 18-C , 21-H ) :   0.9876 B( 19-C , 20-C ) :   1.5744 B( 19-C , 22-C ) :   1.0351
B( 22-C , 23-H ) :   0.9302 B( 22-C , 24-H ) :   0.9423 B( 22-C , 25-C ) :   1.0520
B( 25-C , 26-H ) :   0.9607 B( 25-C , 27-H ) :   0.9537 B( 25-C , 28-C ) :   1.0674
B( 28-C , 29-H ) :   0.9760 B( 28-C , 30-H ) :   0.9739 B( 28-C , 31-H ) :   0.9766

Dispersion correction           -0.013495028
FINAL SINGLE POINT ENERGY     -1339.860800486008

DIPOLE MOMENT
-------------
                                X             Y             Z
Electronic contribution:    -28.28527      14.60332       1.73514
Nuclear contribution   :     28.82851     -15.04791      -1.96834
                        -----------------------------------------
Total Dipole Moment    :      0.54324      -0.44459      -0.23321
                        -----------------------------------------
Magnitude (a.u.)       :      0.73970
Magnitude (Debye)      :      1.88017

Rotational constants in cm-1:     0.017363     0.008500     0.005945
Rotational constants in MHz :   520.529005   254.829735   178.237487

                             ****ORCA TERMINATED NORMALLY****
TOTAL RUN TIME: 0 days 0 hours 0 minutes 33 seconds 267 msec
