                         Program Version 4.2.1 -  RELEASE  -
|  1> ! wB97X-D3 SP def2-SVP
|  2> %pal
|  3> nprocs 16
|  4> end
|  5>
|  6> * xyz 0 1
|  7> S 	 -35.9736 	 29.5463 	 83.3571
|  8> C 	 -35.065 	 28.942 	 81.9269
|  9> C 	 -35.8211 	 29.0389 	 80.7952
| 10> C 	 -37.0986 	 29.5938 	 81.0452
| 11> C 	 -37.3793 	 29.8344 	 82.387
| 12> H 	 -37.9468 	 29.643 	 80.318
| 13> C 	 -35.3928 	 28.4938 	 79.4721
| 14> H 	 -36.2646 	 27.9284 	 79.1149
| 15> H 	 -34.5831 	 27.8658 	 79.5124
| 16> C 	 -35.1967 	 29.6202 	 78.4785
| 17> H 	 -35.9783 	 30.326 	 78.4584
| 18> H 	 -34.2185 	 30.0356 	 78.6739
| 19> C 	 -35.2197 	 29.1717 	 77.0225
| 20> H 	 -36.2299 	 28.7638 	 76.6903
| 21> H 	 -34.994 	 30.0666 	 76.4632
| 22> H 	 -34.4623 	 28.4712 	 76.5928
| 23> S 	 -38.8187 	 31.6512 	 83.9605
| 24> C 	 -40.4928 	 31.5228 	 84.14
| 25> C 	 -40.9542 	 30.5805 	 83.2618
| 26> C 	 -39.9619 	 29.7241 	 82.7192
| 27> C 	 -38.726 	 30.2262 	 82.9395
| 28> H 	 -42.0482 	 30.4861 	 83.2314
| 29> C 	 -40.2829 	 28.5631 	 81.8651
| 30> H 	 -40.6855 	 27.8913 	 82.6251
| 31> H 	 -39.3872 	 28.1114 	 81.4449
| 32> C 	 -41.318 	 28.8113 	 80.7538
| 33> H 	 -41.3283 	 29.8365 	 80.4465
| 34> H 	 -42.314 	 28.6811 	 81.1326
| 35> C 	 -41.2219 	 27.9151 	 79.527
| 36> H 	 -42.1286 	 28.0425 	 78.9202
| 37> H 	 -41.1021 	 26.8617 	 79.7823
| 38> H 	 -40.4156 	 28.1595 	 78.8214
| 39> H 	 -34.1059 	 28.4001 	 82.0673
| 40> H 	 -41.2014 	 32.1798 	 84.5455
| 41> *
| 42>
| 43>                          ****END OF INPUT****

CARTESIAN COORDINATES (ANGSTROEM)
---------------------------------
  S    -35.973600   29.546300   83.357100
  C    -35.065000   28.942000   81.926900
  C    -35.821100   29.038900   80.795200
  C    -37.098600   29.593800   81.045200
  C    -37.379300   29.834400   82.387000
  H    -37.946800   29.643000   80.318000
  C    -35.392800   28.493800   79.472100
  H    -36.264600   27.928400   79.114900
  H    -34.583100   27.865800   79.512400
  C    -35.196700   29.620200   78.478500
  H    -35.978300   30.326000   78.458400
  H    -34.218500   30.035600   78.673900
  C    -35.219700   29.171700   77.022500
  H    -36.229900   28.763800   76.690300
  H    -34.994000   30.066600   76.463200
  H    -34.462300   28.471200   76.592800
  S    -38.818700   31.651200   83.960500
  C    -40.492800   31.522800   84.140000
  C    -40.954200   30.580500   83.261800
  C    -39.961900   29.724100   82.719200
  C    -38.726000   30.226200   82.939500
  H    -42.048200   30.486100   83.231400
  C    -40.282900   28.563100   81.865100
  H    -40.685500   27.891300   82.625100
  H    -39.387200   28.111400   81.444900
  C    -41.318000   28.811300   80.753800
  H    -41.328300   29.836500   80.446500
  H    -42.314000   28.681100   81.132600
  C    -41.221900   27.915100   79.527000
  H    -42.128600   28.042500   78.920200
  H    -41.102100   26.861700   79.782300
  H    -40.415600   28.159500   78.821400
  H    -34.105900   28.400100   82.067300
  H    -41.201400   32.179800   84.545500

 Total Charge           Charge          ....    0
 Multiplicity           Mult            ....    1
 Number of Electrons    NEL             ....  134
 Basis Dimension        Dim             ....  322

ORBITAL ENERGIES
----------------

  NO   OCC          E(Eh)            E(eV)
   0   2.0000     -88.963840     -2420.8292
   1   2.0000     -88.961028     -2420.7526
   2   2.0000     -10.333231      -281.1815
   3   2.0000     -10.324640      -280.9477
   4   2.0000     -10.316347      -280.7221
   5   2.0000     -10.306730      -280.4604
   6   2.0000     -10.299177      -280.2548
   7   2.0000     -10.297038      -280.1967
   8   2.0000     -10.296724      -280.1881
   9   2.0000     -10.288377      -279.9610
  10   2.0000     -10.287569      -279.9390
  11   2.0000     -10.284566      -279.8573
  12   2.0000     -10.283848      -279.8377
  13   2.0000     -10.282128      -279.7909
  14   2.0000     -10.281838      -279.7830
  15   2.0000     -10.281337      -279.7694
  16   2.0000      -8.078309      -219.8220
  17   2.0000      -8.076967      -219.7854
  18   2.0000      -6.036860      -164.2713
  19   2.0000      -6.035413      -164.2319
  20   2.0000      -6.032835      -164.1618
  21   2.0000      -6.031271      -164.1192
  22   2.0000      -6.029056      -164.0590
  23   2.0000      -6.027736      -164.0230
  24   2.0000      -1.012314       -27.5465
  25   2.0000      -0.989898       -26.9365
  26   2.0000      -0.920977       -25.0611
  27   2.0000      -0.915479       -24.9115
  28   2.0000      -0.870023       -23.6745
  29   2.0000      -0.857260       -23.3272
  30   2.0000      -0.843967       -22.9655
  31   2.0000      -0.815736       -22.1973
  32   2.0000      -0.785851       -21.3841
  33   2.0000      -0.777364       -21.1531
  34   2.0000      -0.708937       -19.2912
  35   2.0000      -0.703708       -19.1489
  36   2.0000      -0.694863       -18.9082
  37   2.0000      -0.655183       -17.8284
  38   2.0000      -0.642518       -17.4838
  39   2.0000      -0.623654       -16.9705
  40   2.0000      -0.599537       -16.3142
  41   2.0000      -0.574451       -15.6316
  42   2.0000      -0.569403       -15.4942
  43   2.0000      -0.565861       -15.3979
  44   2.0000      -0.533073       -14.5057
  45   2.0000      -0.529223       -14.4009
  46   2.0000      -0.519084       -14.1250
  47   2.0000      -0.513834       -13.9821
  48   2.0000      -0.505532       -13.7562
  49   2.0000      -0.503604       -13.7038
  50   2.0000      -0.487739       -13.2720
  51   2.0000      -0.481157       -13.0930
  52   2.0000      -0.472656       -12.8616
  53   2.0000      -0.465945       -12.6790
  54   2.0000      -0.461664       -12.5625
  55   2.0000      -0.451919       -12.2973
  56   2.0000      -0.445654       -12.1269
  57   2.0000      -0.436836       -11.8869
  58   2.0000      -0.433033       -11.7834
  59   2.0000      -0.429180       -11.6786
  60   2.0000      -0.426492       -11.6054
  61   2.0000      -0.413608       -11.2548
  62   2.0000      -0.410206       -11.1623
  63   2.0000      -0.343734        -9.3535
  64   2.0000      -0.330475        -8.9927
  65   2.0000      -0.327150        -8.9022
  66   2.0000      -0.298079        -8.1111
  67   0.0000       0.036581         0.9954
  68   0.0000       0.072340         1.9685
  69   0.0000       0.111725         3.0402
  70   0.0000       0.122986         3.3466
  71   0.0000       0.127103         3.4587

MULLIKEN ATOMIC CHARGES
-----------------------
   0 S :    0.102104
   1 C :   -0.159337
   2 C :   -0.071393
   3 C :    0.017050
   4 C :   -0.154464
   5 H :    0.026298
   6 C :    0.137421
   7 H :    0.017443
   8 H :   -0.002388
   9 C :   -0.051354
  10 H :    0.028797
  11 H :    0.029287
  12 C :   -0.089927
  13 H :    0.036636
  14 H :    0.027561
  15 H :    0.031993
  16 S :    0.109629
  17 C :   -0.049814
  18 C :   -0.086052
  19 C :   -0.046333
  20 C :   -0.158678
  21 H :    0.022577
  22 C :    0.093677
  23 H :    0.037652
  24 H :    0.023878
  25 C :   -0.060703
  26 H :    0.026464
  27 H :    0.020216
  28 C :   -0.060087
  29 H :    0.032932
  30 H :    0.035483
  31 H :    0.029213
  32 H :    0.064963
  33 H :    0.039257
Sum of atomic charges:   -0.0000000

LOEWDIN ATOMIC CHARGES
----------------------
   0 S :    0.390044
   1 C :   -0.189904
   2 C :   -0.062467
   3 C :   -0.072470
   4 C :   -0.193366
   5 H :    0.036105
   6 C :   -0.018054
   7 H :    0.033295
   8 H :    0.018039
   9 C :   -0.030115
  10 H :    0.024171
  11 H :    0.027107
  12 C :   -0.077310
  13 H :    0.027305
  14 H :    0.025231
  15 H :    0.024114
  16 S :    0.422483
  17 C :   -0.197198
  18 C :   -0.078080
  19 C :   -0.061127
  20 C :   -0.196382
  21 H :    0.031352
  22 C :   -0.031112
  23 H :    0.041846
  24 H :    0.028423
  25 C :   -0.041035
  26 H :    0.022609
  27 H :    0.023435
  28 C :   -0.067012
  29 H :    0.030454
  30 H :    0.025390
  31 H :    0.022991
  32 H :    0.035549
  33 H :    0.025690

  Mayer bond orders larger than 0.100000
B(  0-S ,  1-C ) :   1.1180 B(  0-S ,  4-C ) :   1.1724 B(  1-C ,  2-C ) :   1.6203
B(  1-C , 32-H ) :   0.9669 B(  2-C ,  3-C ) :   1.2311 B(  2-C ,  6-C ) :   1.0277
B(  3-C ,  4-C ) :   1.5784 B(  3-C ,  5-H ) :   0.9838 B(  4-C , 20-C ) :   0.9946
B(  6-C ,  7-H ) :   0.9352 B(  6-C ,  8-H ) :   0.9395 B(  6-C ,  9-C ) :   1.0696
B(  9-C , 10-H ) :   0.9589 B(  9-C , 11-H ) :   0.9521 B(  9-C , 12-C ) :   1.0790
B( 12-C , 13-H ) :   0.9744 B( 12-C , 14-H ) :   0.9738 B( 12-C , 15-H ) :   0.9737
B( 16-S , 17-C ) :   1.1652 B( 16-S , 20-C ) :   1.1413 B( 17-C , 18-C ) :   1.6297
B( 17-C , 33-H ) :   0.9655 B( 18-C , 19-C ) :   1.2241 B( 18-C , 21-H ) :   0.9836
B( 19-C , 20-C ) :   1.6250 B( 19-C , 22-C ) :   1.0498 B( 22-C , 23-H ) :   0.9096
B( 22-C , 24-H ) :   0.9438 B( 22-C , 25-C ) :   1.0512 B( 25-C , 26-H ) :   0.9632
B( 25-C , 27-H ) :   0.9444 B( 25-C , 28-C ) :   1.0961 B( 28-C , 29-H ) :   0.9724
B( 28-C , 30-H ) :   0.9738 B( 28-C , 31-H ) :   0.9747

Dispersion correction           -0.013935532
FINAL SINGLE POINT ENERGY     -1339.871053217895

DIPOLE MOMENT
-------------
                                X             Y             Z
Electronic contribution:      5.25860      11.71780      29.49847
Nuclear contribution   :     -5.61238     -12.07288     -30.17155
                        -----------------------------------------
Total Dipole Moment    :     -0.35378      -0.35507      -0.67308
                        -----------------------------------------
Magnitude (a.u.)       :      0.83921
Magnitude (Debye)      :      2.13311

Rotational constants in cm-1:     0.016843     0.009115     0.006631
Rotational constants in MHz :   504.932418   273.247526   198.788093

                             ****ORCA TERMINATED NORMALLY****
TOTAL RUN TIME: 0 days 0 hours 0 minutes 30 seconds 217 msec
