                         Program Version 4.2.1 -  RELEASE  -
|  1> ! wB97X-D3 SP def2-SVP
|  2> %pal
|  3> nprocs 16
|  4> end
|  5>
|  6> * xyz 0 1
|  7> S 	 57.9564 	 -9.3534 	 89.4273
|  8> C 	 57.9342 	 -7.72205 	 89.9783
|  9> C 	 58.3101 	 -6.82836 	 88.9733
| 10> C 	 58.671 	 -7.55043 	 87.7667
| 11> C 	 58.5467 	 -8.94378 	 87.7928
| 12> H 	 58.9726 	 -7.01722 	 86.8682
| 13> C 	 58.2891 	 -5.33331 	 88.995
| 14> H 	 57.5815 	 -5.16568 	 89.7415
| 15> H 	 57.9033 	 -4.95889 	 88.0895
| 16> C 	 59.6401 	 -4.69308 	 89.42
| 17> H 	 59.4941 	 -3.66374 	 89.5357
| 18> H 	 59.8924 	 -5.12676 	 90.3903
| 19> C 	 60.9179 	 -4.87953 	 88.5438
| 20> H 	 61.7464 	 -4.45097 	 89.1803
| 21> H 	 61.1173 	 -5.91907 	 88.2309
| 22> H 	 60.8384 	 -4.39656 	 87.5751
| 23> S 	 56.9736 	 -10.746 	 86.4643
| 24> C 	 57.6279 	 -11.5727 	 85.0513
| 25> C 	 58.9095 	 -11.2426 	 84.8604
| 26> C 	 59.467 	 -10.3206 	 85.8107
| 27> C 	 58.5087 	 -9.8791 	 86.6878
| 28> H 	 59.4701 	 -11.7188 	 84.0853
| 29> C 	 60.9199 	 -9.78372 	 85.8526
| 30> H 	 60.8666 	 -8.71214 	 85.9339
| 31> H 	 61.4777 	 -9.92035 	 84.9063
| 32> C 	 61.8511 	 -10.192 	 87.0057
| 33> H 	 61.4438 	 -9.8374 	 87.9947
| 34> H 	 62.8382 	 -9.62369 	 87.0368
| 35> C 	 62.0305 	 -11.6892 	 87.1244
| 36> H 	 62.4432 	 -12.0986 	 86.2199
| 37> H 	 61.1371 	 -12.1087 	 87.21
| 38> H 	 62.7034 	 -11.9244 	 88.0002
| 39> H 	 57.5082 	 -7.26661 	 90.8577
| 40> H 	 57.2012 	 -12.4381 	 84.5526
| 41> *
| 42>
| 43>                          ****END OF INPUT****

CARTESIAN COORDINATES (ANGSTROEM)
---------------------------------
  S     57.956400   -9.353400   89.427300
  C     57.934200   -7.722050   89.978300
  C     58.310100   -6.828360   88.973300
  C     58.671000   -7.550430   87.766700
  C     58.546700   -8.943780   87.792800
  H     58.972600   -7.017220   86.868200
  C     58.289100   -5.333310   88.995000
  H     57.581500   -5.165680   89.741500
  H     57.903300   -4.958890   88.089500
  C     59.640100   -4.693080   89.420000
  H     59.494100   -3.663740   89.535700
  H     59.892400   -5.126760   90.390300
  C     60.917900   -4.879530   88.543800
  H     61.746400   -4.450970   89.180300
  H     61.117300   -5.919070   88.230900
  H     60.838400   -4.396560   87.575100
  S     56.973600  -10.746000   86.464300
  C     57.627900  -11.572700   85.051300
  C     58.909500  -11.242600   84.860400
  C     59.467000  -10.320600   85.810700
  C     58.508700   -9.879100   86.687800
  H     59.470100  -11.718800   84.085300
  C     60.919900   -9.783720   85.852600
  H     60.866600   -8.712140   85.933900
  H     61.477700   -9.920350   84.906300
  C     61.851100  -10.192000   87.005700
  H     61.443800   -9.837400   87.994700
  H     62.838200   -9.623690   87.036800
  C     62.030500  -11.689200   87.124400
  H     62.443200  -12.098600   86.219900
  H     61.137100  -12.108700   87.210000
  H     62.703400  -11.924400   88.000200
  H     57.508200   -7.266610   90.857700
  H     57.201200  -12.438100   84.552600

 Total Charge           Charge          ....    0
 Multiplicity           Mult            ....    1
 Number of Electrons    NEL             ....  134
 Basis Dimension        Dim             ....  322

ORBITAL ENERGIES
----------------

  NO   OCC          E(Eh)            E(eV)
   0   2.0000     -88.969009     -2420.9698
   1   2.0000     -88.964357     -2420.8432
   2   2.0000     -10.334053      -281.2039
   3   2.0000     -10.329565      -281.0817
   4   2.0000     -10.315380      -280.6958
   5   2.0000     -10.315064      -280.6872
   6   2.0000     -10.308543      -280.5097
   7   2.0000     -10.300680      -280.2958
   8   2.0000     -10.297770      -280.2166
   9   2.0000     -10.294853      -280.1372
  10   2.0000     -10.291145      -280.0363
  11   2.0000     -10.287683      -279.9421
  12   2.0000     -10.287041      -279.9246
  13   2.0000     -10.286183      -279.9013
  14   2.0000     -10.284150      -279.8459
  15   2.0000     -10.261683      -279.2346
  16   2.0000      -8.083170      -219.9543
  17   2.0000      -8.078776      -219.8347
  18   2.0000      -6.041844      -164.4069
  19   2.0000      -6.037589      -164.2911
  20   2.0000      -6.037429      -164.2868
  21   2.0000      -6.033931      -164.1916
  22   2.0000      -6.033361      -164.1761
  23   2.0000      -6.029328      -164.0663
  24   2.0000      -1.006101       -27.3774
  25   2.0000      -0.983948       -26.7746
  26   2.0000      -0.912916       -24.8417
  27   2.0000      -0.905277       -24.6338
  28   2.0000      -0.872813       -23.7505
  29   2.0000      -0.847973       -23.0745
  30   2.0000      -0.842664       -22.9301
  31   2.0000      -0.819224       -22.2922
  32   2.0000      -0.786950       -21.4140
  33   2.0000      -0.776964       -21.1423
  34   2.0000      -0.711526       -19.3616
  35   2.0000      -0.704171       -19.1615
  36   2.0000      -0.686790       -18.6885
  37   2.0000      -0.662317       -18.0226
  38   2.0000      -0.637062       -17.3353
  39   2.0000      -0.617324       -16.7982
  40   2.0000      -0.593372       -16.1465
  41   2.0000      -0.578452       -15.7405
  42   2.0000      -0.552056       -15.0222
  43   2.0000      -0.548251       -14.9187
  44   2.0000      -0.543974       -14.8023
  45   2.0000      -0.541050       -14.7227
  46   2.0000      -0.521038       -14.1782
  47   2.0000      -0.511644       -13.9225
  48   2.0000      -0.507712       -13.8156
  49   2.0000      -0.492564       -13.4033
  50   2.0000      -0.490055       -13.3351
  51   2.0000      -0.481781       -13.1099
  52   2.0000      -0.470276       -12.7969
  53   2.0000      -0.467815       -12.7299
  54   2.0000      -0.462153       -12.5758
  55   2.0000      -0.442449       -12.0396
  56   2.0000      -0.437264       -11.8986
  57   2.0000      -0.435799       -11.8587
  58   2.0000      -0.429657       -11.6916
  59   2.0000      -0.426767       -11.6129
  60   2.0000      -0.423872       -11.5341
  61   2.0000      -0.420127       -11.4322
  62   2.0000      -0.404303       -11.0017
  63   2.0000      -0.347317        -9.4510
  64   2.0000      -0.332718        -9.0537
  65   2.0000      -0.325908        -8.8684
  66   2.0000      -0.299201        -8.1417
  67   0.0000       0.026268         0.7148
  68   0.0000       0.064521         1.7557
  69   0.0000       0.116096         3.1591
  70   0.0000       0.120445         3.2775
  71   0.0000       0.124693         3.3931

MULLIKEN ATOMIC CHARGES
-----------------------
   0 S :    0.116129
   1 C :   -0.088721
   2 C :   -0.165013
   3 C :    0.043327
   4 C :   -0.157499
   5 H :    0.013147
   6 C :    0.135551
   7 H :   -0.002151
   8 H :    0.017812
   9 C :   -0.051584
  10 H :    0.024139
  11 H :    0.023160
  12 C :   -0.077692
  13 H :    0.052102
  14 H :    0.038713
  15 H :    0.026637
  16 S :    0.098699
  17 C :   -0.075185
  18 C :   -0.032734
  19 C :   -0.024018
  20 C :   -0.167874
  21 H :    0.008219
  22 C :    0.080489
  23 H :    0.019162
  24 H :    0.025618
  25 C :   -0.116763
  26 H :    0.032611
  27 H :    0.033340
  28 C :    0.008268
  29 H :    0.010835
  30 H :    0.007412
  31 H :    0.041894
  32 H :    0.041061
  33 H :    0.060905
Sum of atomic charges:   -0.0000000

LOEWDIN ATOMIC CHARGES
----------------------
   0 S :    0.408687
   1 C :   -0.210135
   2 C :   -0.062881
   3 C :   -0.055711
   4 C :   -0.195632
   5 H :    0.027192
   6 C :   -0.023537
   7 H :    0.025695
   8 H :    0.025508
   9 C :   -0.030817
  10 H :    0.016956
  11 H :    0.026046
  12 C :   -0.072289
  13 H :    0.038303
  14 H :    0.025592
  15 H :    0.020167
  16 S :    0.386398
  17 C :   -0.179743
  18 C :   -0.069939
  19 C :   -0.053527
  20 C :   -0.184200
  21 H :    0.028661
  22 C :   -0.034084
  23 H :    0.031583
  24 H :    0.031698
  25 C :   -0.048794
  26 H :    0.026264
  27 H :    0.029935
  28 C :   -0.055737
  29 H :    0.019279
  30 H :    0.005678
  31 H :    0.035754
  32 H :    0.031435
  33 H :    0.036196

  Mayer bond orders larger than 0.100000
B(  0-S ,  1-C ) :   1.1485 B(  0-S ,  4-C ) :   1.1307 B(  1-C ,  2-C ) :   1.6081
B(  1-C , 32-H ) :   0.9568 B(  2-C ,  3-C ) :   1.2614 B(  2-C ,  6-C ) :   1.0204
B(  3-C ,  4-C ) :   1.5623 B(  3-C ,  5-H ) :   0.9854 B(  4-C , 20-C ) :   1.0530
B(  6-C ,  7-H ) :   0.9246 B(  6-C ,  8-H ) :   0.9414 B(  6-C ,  9-C ) :   1.0732
B(  9-C , 10-H ) :   0.9572 B(  9-C , 11-H ) :   0.9549 B(  9-C , 12-C ) :   1.0773
B( 12-C , 13-H ) :   0.9737 B( 12-C , 14-H ) :   0.9730 B( 12-C , 15-H ) :   0.9754
B( 16-S , 17-C ) :   1.1275 B( 16-S , 20-C ) :   1.1298 B( 17-C , 18-C ) :   1.6555
B( 17-C , 33-H ) :   0.9613 B( 18-C , 19-C ) :   1.2189 B( 18-C , 21-H ) :   0.9910
B( 19-C , 20-C ) :   1.6188 B( 19-C , 22-C ) :   1.0281 B( 22-C , 23-H ) :   0.9293
B( 22-C , 24-H ) :   0.9417 B( 22-C , 25-C ) :   1.0752 B( 25-C , 26-H ) :   0.9518
B( 25-C , 27-H ) :   0.9538 B( 25-C , 28-C ) :   1.0746 B( 28-C , 29-H ) :   0.9731
B( 28-C , 30-H ) :   0.9727 B( 28-C , 31-H ) :   0.9724

Dispersion correction           -0.015085954
FINAL SINGLE POINT ENERGY     -1339.867719655821

DIPOLE MOMENT
-------------
                                X             Y             Z
Electronic contribution:    -21.58807     -13.44095      -0.36649
Nuclear contribution   :     21.86673      13.87415       0.19746
                        -----------------------------------------
Total Dipole Moment    :      0.27866       0.43320      -0.16903
                        -----------------------------------------
Magnitude (a.u.)       :      0.54211
Magnitude (Debye)      :      1.37793

Rotational constants in cm-1:     0.019536     0.008974     0.007424
Rotational constants in MHz :   585.679329   269.043850   222.570415

                             ****ORCA TERMINATED NORMALLY****
TOTAL RUN TIME: 0 days 0 hours 0 minutes 31 seconds 112 msec
