                         Program Version 4.2.1 -  RELEASE  -
|  1> ! wB97X-D3 SP def2-SVP
|  2> %pal
|  3> nprocs 16
|  4> end
|  5>
|  6> * xyz 0 1
|  7> S 	 -65.0231 	 41.0216 	 124.516
|  8> C 	 -66.2399 	 42.2098 	 123.917
|  9> C 	 -67.5126 	 41.8326 	 124.25
| 10> C 	 -67.55 	 40.5705 	 124.915
| 11> C 	 -66.3551 	 40.0507 	 125.212
| 12> H 	 -68.4739 	 40.1459 	 125.139
| 13> C 	 -68.6963 	 42.6636 	 123.933
| 14> H 	 -68.4416 	 43.4002 	 123.225
| 15> H 	 -68.9285 	 43.2396 	 124.838
| 16> C 	 -70.0833 	 42.043 	 123.469
| 17> H 	 -69.8065 	 41.5074 	 122.549
| 18> H 	 -70.612 	 41.3921 	 124.155
| 19> C 	 -71.0452 	 43.1295 	 122.979
| 20> H 	 -71.4215 	 43.8473 	 123.712
| 21> H 	 -70.6269 	 43.6922 	 122.139
| 22> H 	 -72.0242 	 42.6821 	 122.589
| 23> S 	 -65.0729 	 37.5813 	 125.432
| 24> C 	 -65.3888 	 36.5584 	 126.872
| 25> C 	 -66.2725 	 37.1922 	 127.689
| 26> C 	 -66.7838 	 38.4059 	 127.15
| 27> C 	 -66.217 	 38.8637 	 125.993
| 28> H 	 -66.3715 	 36.7765 	 128.635
| 29> C 	 -67.7108 	 39.2067 	 128.075
| 30> H 	 -68.5567 	 38.4749 	 128.316
| 31> H 	 -68.2481 	 40.1185 	 127.573
| 32> C 	 -67.0368 	 39.9508 	 129.286
| 33> H 	 -66.2847 	 40.5981 	 128.956
| 34> H 	 -66.4712 	 39.1937 	 129.859
| 35> C 	 -67.9814 	 40.5414 	 130.366
| 36> H 	 -68.7443 	 41.1496 	 130.004
| 37> H 	 -67.5679 	 41.0194 	 131.266
| 38> H 	 -68.5214 	 39.6533 	 130.752
| 39> H 	 -66.0266 	 43.1376 	 123.48
| 40> H 	 -64.8053 	 35.7614 	 127.114
| 41> *
| 42>
| 43>                          ****END OF INPUT****

CARTESIAN COORDINATES (ANGSTROEM)
---------------------------------
  S    -65.023100   41.021600  124.516000
  C    -66.239900   42.209800  123.917000
  C    -67.512600   41.832600  124.250000
  C    -67.550000   40.570500  124.915000
  C    -66.355100   40.050700  125.212000
  H    -68.473900   40.145900  125.139000
  C    -68.696300   42.663600  123.933000
  H    -68.441600   43.400200  123.225000
  H    -68.928500   43.239600  124.838000
  C    -70.083300   42.043000  123.469000
  H    -69.806500   41.507400  122.549000
  H    -70.612000   41.392100  124.155000
  C    -71.045200   43.129500  122.979000
  H    -71.421500   43.847300  123.712000
  H    -70.626900   43.692200  122.139000
  H    -72.024200   42.682100  122.589000
  S    -65.072900   37.581300  125.432000
  C    -65.388800   36.558400  126.872000
  C    -66.272500   37.192200  127.689000
  C    -66.783800   38.405900  127.150000
  C    -66.217000   38.863700  125.993000
  H    -66.371500   36.776500  128.635000
  C    -67.710800   39.206700  128.075000
  H    -68.556700   38.474900  128.316000
  H    -68.248100   40.118500  127.573000
  C    -67.036800   39.950800  129.286000
  H    -66.284700   40.598100  128.956000
  H    -66.471200   39.193700  129.859000
  C    -67.981400   40.541400  130.366000
  H    -68.744300   41.149600  130.004000
  H    -67.567900   41.019400  131.266000
  H    -68.521400   39.653300  130.752000
  H    -66.026600   43.137600  123.480000
  H    -64.805300   35.761400  127.114000

 Total Charge           Charge          ....    0
 Multiplicity           Mult            ....    1
 Number of Electrons    NEL             ....  134
 Basis Dimension        Dim             ....  322

ORBITAL ENERGIES
----------------

  NO   OCC          E(Eh)            E(eV)
   0   2.0000     -88.968998     -2420.9695
   1   2.0000     -88.958577     -2420.6859
   2   2.0000     -10.331060      -281.1224
   3   2.0000     -10.329515      -281.0804
   4   2.0000     -10.313775      -280.6521
   5   2.0000     -10.313222      -280.6370
   6   2.0000     -10.306527      -280.4549
   7   2.0000     -10.306438      -280.4524
   8   2.0000     -10.298534      -280.2374
   9   2.0000     -10.296447      -280.1806
  10   2.0000     -10.292559      -280.0748
  11   2.0000     -10.289740      -279.9981
  12   2.0000     -10.287388      -279.9340
  13   2.0000     -10.287148      -279.9275
  14   2.0000     -10.286186      -279.9013
  15   2.0000     -10.277080      -279.6536
  16   2.0000      -8.082234      -219.9288
  17   2.0000      -8.072379      -219.6606
  18   2.0000      -6.041041      -164.3851
  19   2.0000      -6.037132      -164.2787
  20   2.0000      -6.032573      -164.1546
  21   2.0000      -6.031052      -164.1133
  22   2.0000      -6.027046      -164.0043
  23   2.0000      -6.022988      -163.8938
  24   2.0000      -1.005450       -27.3597
  25   2.0000      -0.981757       -26.7150
  26   2.0000      -0.912117       -24.8200
  27   2.0000      -0.897096       -24.4112
  28   2.0000      -0.877924       -23.8895
  29   2.0000      -0.851796       -23.1786
  30   2.0000      -0.843340       -22.9484
  31   2.0000      -0.824407       -22.4333
  32   2.0000      -0.779375       -21.2079
  33   2.0000      -0.770010       -20.9530
  34   2.0000      -0.720730       -19.6120
  35   2.0000      -0.701011       -19.0755
  36   2.0000      -0.698635       -19.0108
  37   2.0000      -0.667923       -18.1751
  38   2.0000      -0.644036       -17.5251
  39   2.0000      -0.631891       -17.1946
  40   2.0000      -0.596345       -16.2274
  41   2.0000      -0.574126       -15.6228
  42   2.0000      -0.572694       -15.5838
  43   2.0000      -0.555415       -15.1136
  44   2.0000      -0.528585       -14.3835
  45   2.0000      -0.523413       -14.2428
  46   2.0000      -0.519359       -14.1325
  47   2.0000      -0.511446       -13.9172
  48   2.0000      -0.506454       -13.7813
  49   2.0000      -0.503703       -13.7064
  50   2.0000      -0.492580       -13.4038
  51   2.0000      -0.474310       -12.9066
  52   2.0000      -0.471143       -12.8205
  53   2.0000      -0.463277       -12.6064
  54   2.0000      -0.460434       -12.5291
  55   2.0000      -0.455261       -12.3883
  56   2.0000      -0.446573       -12.1519
  57   2.0000      -0.440006       -11.9732
  58   2.0000      -0.432137       -11.7590
  59   2.0000      -0.426949       -11.6179
  60   2.0000      -0.418559       -11.3896
  61   2.0000      -0.409107       -11.1324
  62   2.0000      -0.403325       -10.9750
  63   2.0000      -0.353879        -9.6295
  64   2.0000      -0.330982        -9.0065
  65   2.0000      -0.329065        -8.9543
  66   2.0000      -0.294290        -8.0080
  67   0.0000       0.023407         0.6369
  68   0.0000       0.071593         1.9482
  69   0.0000       0.106758         2.9050
  70   0.0000       0.118945         3.2367
  71   0.0000       0.129916         3.5352

MULLIKEN ATOMIC CHARGES
-----------------------
   0 S :    0.105186
   1 C :   -0.108568
   2 C :   -0.064941
   3 C :    0.038535
   4 C :   -0.092848
   5 H :   -0.011016
   6 C :    0.068642
   7 H :   -0.000569
   8 H :    0.038243
   9 C :   -0.071665
  10 H :    0.040115
  11 H :    0.042396
  12 C :   -0.093324
  13 H :    0.034193
  14 H :    0.034687
  15 H :    0.040033
  16 S :    0.060059
  17 C :   -0.050327
  18 C :   -0.014634
  19 C :   -0.006406
  20 C :   -0.140637
  21 H :    0.003724
  22 C :   -0.031815
  23 H :    0.043975
  24 H :    0.039651
  25 C :   -0.039807
  26 H :    0.027941
  27 H :    0.014859
  28 C :   -0.037859
  29 H :    0.015529
  30 H :    0.044381
  31 H :    0.019853
  32 H :    0.024975
  33 H :    0.027437
Sum of atomic charges:   -0.0000000

LOEWDIN ATOMIC CHARGES
----------------------
   0 S :    0.365851
   1 C :   -0.168822
   2 C :   -0.058501
   3 C :   -0.045039
   4 C :   -0.176528
   5 H :    0.022598
   6 C :   -0.033351
   7 H :    0.024226
   8 H :    0.036879
   9 C :   -0.039200
  10 H :    0.031077
  11 H :    0.022854
  12 C :   -0.074385
  13 H :    0.022116
  14 H :    0.024601
  15 H :    0.035208
  16 S :    0.348931
  17 C :   -0.142211
  18 C :   -0.060067
  19 C :   -0.062308
  20 C :   -0.165809
  21 H :    0.025482
  22 C :   -0.044374
  23 H :    0.036711
  24 H :    0.035590
  25 C :   -0.037070
  26 H :    0.018266
  27 H :    0.021921
  28 C :   -0.066987
  29 H :    0.011499
  30 H :    0.032535
  31 H :    0.029911
  32 H :    0.017923
  33 H :    0.010471

  Mayer bond orders larger than 0.100000
B(  0-S ,  1-C ) :   1.1017 B(  0-S ,  4-C ) :   1.1096 B(  1-C ,  2-C ) :   1.6472
B(  1-C , 32-H ) :   0.9713 B(  2-C ,  3-C ) :   1.2097 B(  2-C ,  6-C ) :   1.0375
B(  3-C ,  4-C ) :   1.5903 B(  3-C ,  5-H ) :   1.0090 B(  4-C , 20-C ) :   1.0737
B(  6-C ,  7-H ) :   0.9383 B(  6-C ,  8-H ) :   0.9235 B(  6-C ,  9-C ) :   1.0538
B(  9-C , 10-H ) :   0.9583 B(  9-C , 11-H ) :   0.9548 B(  9-C , 12-C ) :   1.0852
B( 12-C , 13-H ) :   0.9763 B( 12-C , 14-H ) :   0.9752 B( 12-C , 15-H ) :   0.9731
B( 16-S , 17-C ) :   1.1347 B( 16-S , 20-C ) :   1.1019 B( 17-C , 18-C ) :   1.6435
B( 17-C , 33-H ) :   0.9772 B( 18-C , 19-C ) :   1.1939 B( 18-C , 21-H ) :   1.0028
B( 19-C , 20-C ) :   1.6336 B( 19-C , 22-C ) :   1.0416 B( 22-C , 23-H ) :   0.9383
B( 22-C , 24-H ) :   0.9425 B( 22-C , 25-C ) :   1.0445 B( 25-C , 26-H ) :   0.9591
B( 25-C , 27-H ) :   0.9590 B( 25-C , 28-C ) :   1.0630 B( 28-C , 29-H ) :   0.9795
B( 28-C , 30-H ) :   0.9760 B( 28-C , 31-H ) :   0.9748

Dispersion correction           -0.013606101
FINAL SINGLE POINT ENERGY     -1339.852738530250

DIPOLE MOMENT
-------------
                                X             Y             Z
Electronic contribution:     24.91149     -13.86556      -9.49427
Nuclear contribution   :    -25.54904      14.19639       9.87965
                        -----------------------------------------
Total Dipole Moment    :     -0.63755       0.33083       0.38538
                        -----------------------------------------
Magnitude (a.u.)       :      0.81513
Magnitude (Debye)      :      2.07191

Rotational constants in cm-1:     0.016588     0.008254     0.006591
Rotational constants in MHz :   497.304380   247.439692   197.596928

                             ****ORCA TERMINATED NORMALLY****
TOTAL RUN TIME: 0 days 0 hours 0 minutes 31 seconds 19 msec
