                         Program Version 4.2.1 -  RELEASE  -
|  1> ! wB97X-D3 SP def2-SVP
|  2> %pal
|  3> nprocs 16
|  4> end
|  5>
|  6> * xyz 0 1
|  7> S 	 10.3633 	 -7.12708 	 67.665
|  8> C 	 9.83128 	 -5.82022 	 68.7564
|  9> C 	 10.7809 	 -5.48261 	 69.6914
| 10> C 	 11.9029 	 -6.34252 	 69.5611
| 11> C 	 11.9052 	 -7.21098 	 68.467
| 12> H 	 12.8516 	 -6.35721 	 70.2201
| 13> C 	 10.6528 	 -4.44513 	 70.7441
| 14> H 	 10.3009 	 -4.9898 	 71.6348
| 15> H 	 9.85251 	 -3.75105 	 70.395
| 16> C 	 11.9553 	 -3.79993 	 71.1681
| 17> H 	 12.5929 	 -4.68723 	 71.5156
| 18> H 	 12.3919 	 -3.318 	 70.2366
| 19> C 	 11.8877 	 -2.7378 	 72.2685
| 20> H 	 11.3272 	 -3.1232 	 73.1126
| 21> H 	 12.9187 	 -2.48477 	 72.5859
| 22> H 	 11.4319 	 -1.81129 	 71.9047
| 23> S 	 13.7177 	 -9.04531 	 69.4547
| 24> C 	 14.8055 	 -9.84992 	 68.3575
| 25> C 	 14.5898 	 -9.41468 	 67.0653
| 26> C 	 13.4599 	 -8.58969 	 66.8862
| 27> C 	 12.9979 	 -8.14501 	 68.097
| 28> H 	 15.2519 	 -9.57766 	 66.2289
| 29> C 	 13.048 	 -7.97789 	 65.5853
| 30> H 	 13.942 	 -7.8375 	 64.9402
| 31> H 	 12.6541 	 -6.93497 	 65.5909
| 32> C 	 12.1116 	 -8.87842 	 64.6315
| 33> H 	 11.1793 	 -9.07435 	 65.1327
| 34> H 	 12.4486 	 -9.89394 	 64.2921
| 35> C 	 11.6227 	 -8.13233 	 63.3406
| 36> H 	 10.7143 	 -8.57311 	 62.9019
| 37> H 	 12.4481 	 -8.15848 	 62.5706
| 38> H 	 11.4348 	 -7.13815 	 63.6099
| 39> H 	 8.86543 	 -5.2983 	 68.6771
| 40> H 	 15.5632 	 -10.5384 	 68.7201
| 41> *
| 42>
| 43>                          ****END OF INPUT****

CARTESIAN COORDINATES (ANGSTROEM)
---------------------------------
  S     10.363300   -7.127080   67.665000
  C      9.831280   -5.820220   68.756400
  C     10.780900   -5.482610   69.691400
  C     11.902900   -6.342520   69.561100
  C     11.905200   -7.210980   68.467000
  H     12.851600   -6.357210   70.220100
  C     10.652800   -4.445130   70.744100
  H     10.300900   -4.989800   71.634800
  H      9.852510   -3.751050   70.395000
  C     11.955300   -3.799930   71.168100
  H     12.592900   -4.687230   71.515600
  H     12.391900   -3.318000   70.236600
  C     11.887700   -2.737800   72.268500
  H     11.327200   -3.123200   73.112600
  H     12.918700   -2.484770   72.585900
  H     11.431900   -1.811290   71.904700
  S     13.717700   -9.045310   69.454700
  C     14.805500   -9.849920   68.357500
  C     14.589800   -9.414680   67.065300
  C     13.459900   -8.589690   66.886200
  C     12.997900   -8.145010   68.097000
  H     15.251900   -9.577660   66.228900
  C     13.048000   -7.977890   65.585300
  H     13.942000   -7.837500   64.940200
  H     12.654100   -6.934970   65.590900
  C     12.111600   -8.878420   64.631500
  H     11.179300   -9.074350   65.132700
  H     12.448600   -9.893940   64.292100
  C     11.622700   -8.132330   63.340600
  H     10.714300   -8.573110   62.901900
  H     12.448100   -8.158480   62.570600
  H     11.434800   -7.138150   63.609900
  H      8.865430   -5.298300   68.677100
  H     15.563200  -10.538400   68.720100

 Total Charge           Charge          ....    0
 Multiplicity           Mult            ....    1
 Number of Electrons    NEL             ....  134
 Basis Dimension        Dim             ....  322

ORBITAL ENERGIES
----------------

  NO   OCC          E(Eh)            E(eV)
   0   2.0000     -88.968832     -2420.9650
   1   2.0000     -88.965962     -2420.8869
   2   2.0000     -10.331501      -281.1344
   3   2.0000     -10.330330      -281.1026
   4   2.0000     -10.319359      -280.8040
   5   2.0000     -10.315810      -280.7075
   6   2.0000     -10.302366      -280.3416
   7   2.0000     -10.301592      -280.3206
   8   2.0000     -10.300154      -280.2814
   9   2.0000     -10.297803      -280.2175
  10   2.0000     -10.296398      -280.1792
  11   2.0000     -10.294421      -280.1254
  12   2.0000     -10.294286      -280.1218
  13   2.0000     -10.290353      -280.0147
  14   2.0000     -10.282794      -279.8091
  15   2.0000     -10.277281      -279.6590
  16   2.0000      -8.082617      -219.9392
  17   2.0000      -8.080421      -219.8794
  18   2.0000      -6.041245      -164.3906
  19   2.0000      -6.038892      -164.3266
  20   2.0000      -6.037250      -164.2819
  21   2.0000      -6.035005      -164.2208
  22   2.0000      -6.033328      -164.1752
  23   2.0000      -6.031202      -164.1173
  24   2.0000      -1.006606       -27.3912
  25   2.0000      -0.985937       -26.8287
  26   2.0000      -0.917089       -24.9553
  27   2.0000      -0.899025       -24.4637
  28   2.0000      -0.867472       -23.6051
  29   2.0000      -0.852718       -23.2036
  30   2.0000      -0.845220       -22.9996
  31   2.0000      -0.808738       -22.0069
  32   2.0000      -0.783672       -21.3248
  33   2.0000      -0.772497       -21.0207
  34   2.0000      -0.705865       -19.2076
  35   2.0000      -0.694368       -18.8947
  36   2.0000      -0.682335       -18.5673
  37   2.0000      -0.671643       -18.2763
  38   2.0000      -0.625924       -17.0323
  39   2.0000      -0.615780       -16.7562
  40   2.0000      -0.603780       -16.4297
  41   2.0000      -0.576522       -15.6880
  42   2.0000      -0.560054       -15.2398
  43   2.0000      -0.552085       -15.0230
  44   2.0000      -0.524832       -14.2814
  45   2.0000      -0.522873       -14.2281
  46   2.0000      -0.519458       -14.1352
  47   2.0000      -0.507193       -13.8014
  48   2.0000      -0.506485       -13.7822
  49   2.0000      -0.498359       -13.5610
  50   2.0000      -0.492710       -13.4073
  51   2.0000      -0.476640       -12.9700
  52   2.0000      -0.469745       -12.7824
  53   2.0000      -0.461687       -12.5631
  54   2.0000      -0.460164       -12.5217
  55   2.0000      -0.450305       -12.2534
  56   2.0000      -0.445335       -12.1182
  57   2.0000      -0.434153       -11.8139
  58   2.0000      -0.428861       -11.6699
  59   2.0000      -0.424847       -11.5607
  60   2.0000      -0.421326       -11.4649
  61   2.0000      -0.416515       -11.3339
  62   2.0000      -0.409051       -11.1309
  63   2.0000      -0.348610        -9.4862
  64   2.0000      -0.332554        -9.0493
  65   2.0000      -0.331085        -9.0093
  66   2.0000      -0.288228        -7.8431
  67   0.0000       0.026088         0.7099
  68   0.0000       0.076587         2.0840
  69   0.0000       0.104621         2.8469
  70   0.0000       0.110737         3.0133
  71   0.0000       0.128833         3.5057

MULLIKEN ATOMIC CHARGES
-----------------------
   0 S :    0.110402
   1 C :   -0.150532
   2 C :   -0.059589
   3 C :   -0.048251
   4 C :   -0.126186
   5 H :    0.042852
   6 C :    0.090344
   7 H :    0.040785
   8 H :    0.026009
   9 C :   -0.169221
  10 H :    0.050622
  11 H :    0.045400
  12 C :   -0.010055
  13 H :    0.027405
  14 H :    0.039843
  15 H :    0.034273
  16 S :    0.097517
  17 C :   -0.091290
  18 C :   -0.013145
  19 C :    0.014344
  20 C :   -0.147898
  21 H :    0.017019
  22 C :   -0.018815
  23 H :    0.027193
  24 H :    0.046822
  25 C :   -0.089355
  26 H :    0.021816
  27 H :    0.038675
  28 C :   -0.058627
  29 H :    0.042919
  30 H :    0.034930
  31 H :    0.018514
  32 H :    0.050474
  33 H :    0.064803
Sum of atomic charges:    0.0000000

LOEWDIN ATOMIC CHARGES
----------------------
   0 S :    0.403487
   1 C :   -0.194269
   2 C :   -0.066085
   3 C :   -0.083314
   4 C :   -0.197634
   5 H :    0.037817
   6 C :   -0.039103
   7 H :    0.039063
   8 H :    0.032710
   9 C :   -0.052796
  10 H :    0.032564
  11 H :    0.031276
  12 C :   -0.063405
  13 H :    0.023025
  14 H :    0.032495
  15 H :    0.026564
  16 S :    0.399937
  17 C :   -0.186211
  18 C :   -0.063401
  19 C :   -0.065796
  20 C :   -0.173516
  21 H :    0.031093
  22 C :   -0.040741
  23 H :    0.034475
  24 H :    0.036331
  25 C :   -0.044011
  26 H :    0.014220
  27 H :    0.027535
  28 C :   -0.064360
  29 H :    0.030044
  30 H :    0.025960
  31 H :    0.013688
  32 H :    0.031219
  33 H :    0.031137

  Mayer bond orders larger than 0.100000
B(  0-S ,  1-C ) :   1.1274 B(  0-S ,  4-C ) :   1.1468 B(  1-C ,  2-C ) :   1.6163
B(  1-C , 32-H ) :   0.9624 B(  2-C ,  3-C ) :   1.2416 B(  2-C ,  6-C ) :   1.0295
B(  3-C ,  4-C ) :   1.5708 B(  3-C ,  5-H ) :   0.9684 B(  4-C , 20-C ) :   1.0384
B(  6-C ,  7-H ) :   0.9212 B(  6-C ,  8-H ) :   0.9378 B(  6-C ,  9-C ) :   1.0671
B(  9-C , 10-H ) :   0.9415 B(  9-C , 11-H ) :   0.9597 B(  9-C , 12-C ) :   1.0898
B( 12-C , 13-H ) :   0.9713 B( 12-C , 14-H ) :   0.9731 B( 12-C , 15-H ) :   0.9733
B( 16-S , 17-C ) :   1.1485 B( 16-S , 20-C ) :   1.1397 B( 17-C , 18-C ) :   1.5947
B( 17-C , 33-H ) :   0.9706 B( 18-C , 19-C ) :   1.2445 B( 18-C , 21-H ) :   0.9854
B( 19-C , 20-C ) :   1.5926 B( 19-C , 22-C ) :   1.0446 B( 22-C , 23-H ) :   0.9416
B( 22-C , 24-H ) :   0.9457 B( 22-C , 25-C ) :   1.0316 B( 25-C , 26-H ) :   0.9600
B( 25-C , 27-H ) :   0.9629 B( 25-C , 28-C ) :   1.0731 B( 28-C , 29-H ) :   0.9771
B( 28-C , 30-H ) :   0.9791 B( 28-C , 31-H ) :   0.9755

Dispersion correction           -0.013723666
FINAL SINGLE POINT ENERGY     -1339.880730133736

DIPOLE MOMENT
-------------
                                X             Y             Z
Electronic contribution:      1.28542     -14.28633       4.35562
Nuclear contribution   :     -1.15534      14.63591      -4.32500
                        -----------------------------------------
Total Dipole Moment    :      0.13008       0.34958       0.03062
                        -----------------------------------------
Magnitude (a.u.)       :      0.37426
Magnitude (Debye)      :      0.95128

Rotational constants in cm-1:     0.019605     0.007982     0.006248
Rotational constants in MHz :   587.731462   239.296299   187.303626

                             ****ORCA TERMINATED NORMALLY****
TOTAL RUN TIME: 0 days 0 hours 0 minutes 33 seconds 283 msec
