                         Program Version 4.2.1 -  RELEASE  -
|  1> ! wB97X-D3 SP def2-SVP
|  2> %pal
|  3> nprocs 16
|  4> end
|  5>
|  6> * xyz 0 1
|  7> S 	 -4.1337 	 50.6113 	 47.6566
|  8> C 	 -4.08938 	 52.3125 	 47.4102
|  9> C 	 -5.35401 	 52.8784 	 47.4807
| 10> C 	 -6.42553 	 51.9251 	 47.672
| 11> C 	 -5.9253 	 50.6472 	 47.6406
| 12> H 	 -7.53478 	 52.0631 	 47.7681
| 13> C 	 -5.61978 	 54.3471 	 47.5242
| 14> H 	 -6.62012 	 54.428 	 47.1372
| 15> H 	 -4.8878 	 54.8441 	 46.8521
| 16> C 	 -5.39055 	 55.0409 	 48.8832
| 17> H 	 -4.33181 	 55.2083 	 48.9848
| 18> H 	 -5.76592 	 56.0729 	 48.7382
| 19> C 	 -5.81445 	 54.3864 	 50.1555
| 20> H 	 -5.62923 	 55.0597 	 51.0081
| 21> H 	 -6.80609 	 54.0602 	 50.177
| 22> H 	 -5.10444 	 53.4946 	 50.2851
| 23> S 	 -6.58004 	 48.5178 	 46.0871
| 24> C 	 -7.73965 	 47.3513 	 46.6138
| 25> C 	 -8.19083 	 47.6749 	 47.8597
| 26> C 	 -7.56937 	 48.8017 	 48.5083
| 27> C 	 -6.69098 	 49.4085 	 47.6216
| 28> H 	 -8.97368 	 47.1303 	 48.2822
| 29> C 	 -7.92046 	 49.3422 	 49.9004
| 30> H 	 -7.4526 	 50.303 	 50.0368
| 31> H 	 -7.53713 	 48.6461 	 50.6672
| 32> C 	 -9.52058 	 49.4766 	 50.2748
| 33> H 	 -9.62021 	 49.5304 	 51.3507
| 34> H 	 -10.0677 	 48.5294 	 50.0852
| 35> C 	 -10.2091 	 50.6979 	 49.6281
| 36> H 	 -11.2534 	 50.4687 	 49.5474
| 37> H 	 -9.79639 	 50.9536 	 48.5926
| 38> H 	 -10.3176 	 51.5539 	 50.2557
| 39> H 	 -3.14805 	 52.8684 	 47.192
| 40> H 	 -8.02864 	 46.5211 	 45.9378
| 41> *
| 42>
| 43>                          ****END OF INPUT****

CARTESIAN COORDINATES (ANGSTROEM)
---------------------------------
  S     -4.133700   50.611300   47.656600
  C     -4.089380   52.312500   47.410200
  C     -5.354010   52.878400   47.480700
  C     -6.425530   51.925100   47.672000
  C     -5.925300   50.647200   47.640600
  H     -7.534780   52.063100   47.768100
  C     -5.619780   54.347100   47.524200
  H     -6.620120   54.428000   47.137200
  H     -4.887800   54.844100   46.852100
  C     -5.390550   55.040900   48.883200
  H     -4.331810   55.208300   48.984800
  H     -5.765920   56.072900   48.738200
  C     -5.814450   54.386400   50.155500
  H     -5.629230   55.059700   51.008100
  H     -6.806090   54.060200   50.177000
  H     -5.104440   53.494600   50.285100
  S     -6.580040   48.517800   46.087100
  C     -7.739650   47.351300   46.613800
  C     -8.190830   47.674900   47.859700
  C     -7.569370   48.801700   48.508300
  C     -6.690980   49.408500   47.621600
  H     -8.973680   47.130300   48.282200
  C     -7.920460   49.342200   49.900400
  H     -7.452600   50.303000   50.036800
  H     -7.537130   48.646100   50.667200
  C     -9.520580   49.476600   50.274800
  H     -9.620210   49.530400   51.350700
  H    -10.067700   48.529400   50.085200
  C    -10.209100   50.697900   49.628100
  H    -11.253400   50.468700   49.547400
  H     -9.796390   50.953600   48.592600
  H    -10.317600   51.553900   50.255700
  H     -3.148050   52.868400   47.192000
  H     -8.028640   46.521100   45.937800

 Total Charge           Charge          ....    0
 Multiplicity           Mult            ....    1
 Number of Electrons    NEL             ....  134
 Basis Dimension        Dim             ....  322

ORBITAL ENERGIES
----------------

  NO   OCC          E(Eh)            E(eV)
   0   2.0000     -88.964089     -2420.8359
   1   2.0000     -88.959069     -2420.6993
   2   2.0000     -10.328014      -281.0395
   3   2.0000     -10.324947      -280.9561
   4   2.0000     -10.316697      -280.7316
   5   2.0000     -10.313434      -280.6428
   6   2.0000     -10.308097      -280.4976
   7   2.0000     -10.301718      -280.3240
   8   2.0000     -10.299899      -280.2745
   9   2.0000     -10.298600      -280.2392
  10   2.0000     -10.298408      -280.2339
  11   2.0000     -10.288169      -279.9553
  12   2.0000     -10.287332      -279.9325
  13   2.0000     -10.281832      -279.7829
  14   2.0000     -10.280845      -279.7560
  15   2.0000     -10.274623      -279.5867
  16   2.0000      -8.078844      -219.8365
  17   2.0000      -8.074350      -219.7142
  18   2.0000      -6.037310      -164.2836
  19   2.0000      -6.033471      -164.1791
  20   2.0000      -6.032758      -164.1597
  21   2.0000      -6.029536      -164.0720
  22   2.0000      -6.028782      -164.0515
  23   2.0000      -6.025159      -163.9529
  24   2.0000      -1.003613       -27.3097
  25   2.0000      -0.982259       -26.7286
  26   2.0000      -0.911121       -24.7929
  27   2.0000      -0.895019       -24.3547
  28   2.0000      -0.868382       -23.6299
  29   2.0000      -0.849920       -23.1275
  30   2.0000      -0.846726       -23.0406
  31   2.0000      -0.814491       -22.1634
  32   2.0000      -0.783221       -21.3125
  33   2.0000      -0.769667       -20.9437
  34   2.0000      -0.707324       -19.2473
  35   2.0000      -0.698557       -19.0087
  36   2.0000      -0.692753       -18.8508
  37   2.0000      -0.656681       -17.8692
  38   2.0000      -0.639428       -17.3997
  39   2.0000      -0.607538       -16.5320
  40   2.0000      -0.593761       -16.1571
  41   2.0000      -0.568732       -15.4760
  42   2.0000      -0.552132       -15.0243
  43   2.0000      -0.544631       -14.8202
  44   2.0000      -0.541999       -14.7485
  45   2.0000      -0.528940       -14.3932
  46   2.0000      -0.521407       -14.1882
  47   2.0000      -0.517305       -14.0766
  48   2.0000      -0.501210       -13.6386
  49   2.0000      -0.491669       -13.3790
  50   2.0000      -0.487056       -13.2535
  51   2.0000      -0.479915       -13.0592
  52   2.0000      -0.470335       -12.7985
  53   2.0000      -0.466042       -12.6816
  54   2.0000      -0.461907       -12.5691
  55   2.0000      -0.444490       -12.0952
  56   2.0000      -0.441985       -12.0270
  57   2.0000      -0.437208       -11.8970
  58   2.0000      -0.433778       -11.8037
  59   2.0000      -0.425859       -11.5882
  60   2.0000      -0.420439       -11.4407
  61   2.0000      -0.412594       -11.2273
  62   2.0000      -0.404468       -11.0061
  63   2.0000      -0.341186        -9.2841
  64   2.0000      -0.327363        -8.9080
  65   2.0000      -0.321040        -8.7359
  66   2.0000      -0.300384        -8.1739
  67   0.0000       0.037640         1.0242
  68   0.0000       0.063775         1.7354
  69   0.0000       0.112502         3.0613
  70   0.0000       0.122636         3.3371
  71   0.0000       0.127798         3.4776

MULLIKEN ATOMIC CHARGES
-----------------------
   0 S :    0.116073
   1 C :   -0.135707
   2 C :   -0.123628
   3 C :    0.040695
   4 C :   -0.180162
   5 H :    0.036549
   6 C :    0.086099
   7 H :    0.019948
   8 H :    0.027365
   9 C :   -0.077316
  10 H :    0.013048
  11 H :    0.027345
  12 C :   -0.032228
  13 H :    0.036678
  14 H :    0.020835
  15 H :    0.048327
  16 S :    0.101120
  17 C :   -0.099151
  18 C :   -0.018255
  19 C :    0.007196
  20 C :   -0.200935
  21 H :   -0.008541
  22 C :    0.064437
  23 H :    0.030271
  24 H :    0.042926
  25 C :   -0.095251
  26 H :    0.024537
  27 H :    0.033326
  28 C :   -0.049850
  29 H :    0.019966
  30 H :    0.056701
  31 H :    0.026789
  32 H :    0.064957
  33 H :    0.075838
Sum of atomic charges:    0.0000000

LOEWDIN ATOMIC CHARGES
----------------------
   0 S :    0.398974
   1 C :   -0.214598
   2 C :   -0.069673
   3 C :   -0.062460
   4 C :   -0.186128
   5 H :    0.044562
   6 C :   -0.034190
   7 H :    0.025146
   8 H :    0.037707
   9 C :   -0.046638
  10 H :    0.021547
  11 H :    0.024983
  12 C :   -0.065727
  13 H :    0.031755
  14 H :    0.012235
  15 H :    0.039319
  16 S :    0.401807
  17 C :   -0.190673
  18 C :   -0.070551
  19 C :   -0.054162
  20 C :   -0.195043
  21 H :    0.018188
  22 C :   -0.023906
  23 H :    0.028393
  24 H :    0.038055
  25 C :   -0.040789
  26 H :    0.023770
  27 H :    0.024150
  28 C :   -0.077278
  29 H :    0.027047
  30 H :    0.034966
  31 H :    0.023129
  32 H :    0.037450
  33 H :    0.038632

  Mayer bond orders larger than 0.100000
B(  0-S ,  1-C ) :   1.1335 B(  0-S ,  4-C ) :   1.1507 B(  1-C ,  2-C ) :   1.6117
B(  1-C , 32-H ) :   0.9646 B(  2-C ,  3-C ) :   1.2079 B(  2-C ,  6-C ) :   1.0374
B(  3-C ,  4-C ) :   1.6057 B(  3-C ,  5-H ) :   0.9836 B(  4-C , 20-C ) :   1.0157
B(  6-C ,  7-H ) :   0.9362 B(  6-C ,  8-H ) :   0.9376 B(  6-C ,  9-C ) :   1.0664
B(  9-C , 10-H ) :   0.9523 B(  9-C , 11-H ) :   0.9529 B(  9-C , 12-C ) :   1.0917
B( 12-C , 13-H ) :   0.9693 B( 12-C , 14-H ) :   0.9779 B( 12-C , 15-H ) :   0.9648
B( 16-S , 17-C ) :   1.1520 B( 16-S , 20-C ) :   1.1544 B( 17-C , 18-C ) :   1.6074
B( 17-C , 33-H ) :   0.9662 B( 18-C , 19-C ) :   1.2177 B( 18-C , 21-H ) :   1.0010
B( 19-C , 20-C ) :   1.5961 B( 19-C , 22-C ) :   1.0470 B( 22-C , 23-H ) :   0.9424
B( 22-C , 24-H ) :   0.9323 B( 22-C , 25-C ) :   1.0606 B( 25-C , 26-H ) :   0.9572
B( 25-C , 27-H ) :   0.9645 B( 25-C , 28-C ) :   1.0621 B( 28-C , 29-H ) :   0.9697
B( 28-C , 30-H ) :   0.9762 B( 28-C , 31-H ) :   0.9758

Dispersion correction           -0.015149730
FINAL SINGLE POINT ENERGY     -1339.876081937753

DIPOLE MOMENT
-------------
                                X             Y             Z
Electronic contribution:     13.91978     -17.69265     -16.80825
Nuclear contribution   :    -14.40351      17.99016      17.20064
                        -----------------------------------------
Total Dipole Moment    :     -0.48374       0.29751       0.39238
                        -----------------------------------------
Magnitude (a.u.)       :      0.69027
Magnitude (Debye)      :      1.75454

Rotational constants in cm-1:     0.018286     0.009668     0.007093
Rotational constants in MHz :   548.210814   289.843620   212.634707

                             ****ORCA TERMINATED NORMALLY****
TOTAL RUN TIME: 0 days 0 hours 0 minutes 32 seconds 530 msec
