                         Program Version 4.2.1 -  RELEASE  -
|  1> ! wB97X-D3 SP def2-SVP
|  2> %pal
|  3> nprocs 16
|  4> end
|  5>
|  6> * xyz 0 1
|  7> S 	 66.7646 	 16.3539 	 74.9299
|  8> C 	 65.3336 	 17.3552 	 74.7505
|  9> C 	 65.4145 	 18.587 	 75.4069
| 10> C 	 66.6422 	 18.6546 	 76.1254
| 11> C 	 67.4408 	 17.5043 	 76.0079
| 12> H 	 67.0426 	 19.4397 	 76.739
| 13> C 	 64.418 	 19.7094 	 75.3232
| 14> H 	 63.6493 	 19.5423 	 74.6177
| 15> H 	 64.9195 	 20.5745 	 74.9216
| 16> C 	 63.7434 	 20.1697 	 76.6601
| 17> H 	 64.5518 	 20.1311 	 77.4158
| 18> H 	 63.4792 	 21.1981 	 76.4448
| 19> C 	 62.536 	 19.2431 	 77.0469
| 20> H 	 62.6594 	 18.1759 	 77.1343
| 21> H 	 62.2356 	 19.5898 	 78.0307
| 22> H 	 61.8107 	 19.5267 	 76.289
| 23> S 	 70.0016 	 16.7888 	 75.878
| 24> C 	 70.7376 	 16.0673 	 77.2925
| 25> C 	 70.1727 	 16.6068 	 78.4564
| 26> C 	 68.9377 	 17.2066 	 78.134
| 27> C 	 68.6333 	 17.2412 	 76.7756
| 28> H 	 70.5823 	 16.4925 	 79.4799
| 29> C 	 67.8908 	 17.6001 	 79.1463
| 30> H 	 67.506 	 18.5668 	 78.7972
| 31> H 	 68.3489 	 17.8008 	 80.1886
| 32> C 	 66.9345 	 16.4121 	 79.4458
| 33> H 	 66.8052 	 16.427 	 80.5229
| 34> H 	 67.4885 	 15.5391 	 79.2481
| 35> C 	 65.6287 	 16.3344 	 78.6974
| 36> H 	 65.8154 	 16.382 	 77.5772
| 37> H 	 65.0179 	 17.1731 	 78.9785
| 38> H 	 65.0831 	 15.3944 	 78.8704
| 39> H 	 64.4996 	 17.1871 	 74.0033
| 40> H 	 71.7047 	 15.6984 	 77.2849
| 41> *
| 42>
| 43>                          ****END OF INPUT****

CARTESIAN COORDINATES (ANGSTROEM)
---------------------------------
  S     66.764600   16.353900   74.929900
  C     65.333600   17.355200   74.750500
  C     65.414500   18.587000   75.406900
  C     66.642200   18.654600   76.125400
  C     67.440800   17.504300   76.007900
  H     67.042600   19.439700   76.739000
  C     64.418000   19.709400   75.323200
  H     63.649300   19.542300   74.617700
  H     64.919500   20.574500   74.921600
  C     63.743400   20.169700   76.660100
  H     64.551800   20.131100   77.415800
  H     63.479200   21.198100   76.444800
  C     62.536000   19.243100   77.046900
  H     62.659400   18.175900   77.134300
  H     62.235600   19.589800   78.030700
  H     61.810700   19.526700   76.289000
  S     70.001600   16.788800   75.878000
  C     70.737600   16.067300   77.292500
  C     70.172700   16.606800   78.456400
  C     68.937700   17.206600   78.134000
  C     68.633300   17.241200   76.775600
  H     70.582300   16.492500   79.479900
  C     67.890800   17.600100   79.146300
  H     67.506000   18.566800   78.797200
  H     68.348900   17.800800   80.188600
  C     66.934500   16.412100   79.445800
  H     66.805200   16.427000   80.522900
  H     67.488500   15.539100   79.248100
  C     65.628700   16.334400   78.697400
  H     65.815400   16.382000   77.577200
  H     65.017900   17.173100   78.978500
  H     65.083100   15.394400   78.870400
  H     64.499600   17.187100   74.003300
  H     71.704700   15.698400   77.284900

 Total Charge           Charge          ....    0
 Multiplicity           Mult            ....    1
 Number of Electrons    NEL             ....  134
 Basis Dimension        Dim             ....  322

ORBITAL ENERGIES
----------------

  NO   OCC          E(Eh)            E(eV)
   0   2.0000     -88.973098     -2421.0811
   1   2.0000     -88.962317     -2420.7877
   2   2.0000     -10.326608      -281.0013
   3   2.0000     -10.320060      -280.8231
   4   2.0000     -10.317041      -280.7410
   5   2.0000     -10.312186      -280.6088
   6   2.0000     -10.304896      -280.4105
   7   2.0000     -10.298932      -280.2482
   8   2.0000     -10.298245      -280.2295
   9   2.0000     -10.294006      -280.1141
  10   2.0000     -10.293762      -280.1075
  11   2.0000     -10.292409      -280.0707
  12   2.0000     -10.287921      -279.9486
  13   2.0000     -10.279346      -279.7152
  14   2.0000     -10.274728      -279.5896
  15   2.0000     -10.269007      -279.4339
  16   2.0000      -8.087368      -220.0685
  17   2.0000      -8.078291      -219.8215
  18   2.0000      -6.045766      -164.5137
  19   2.0000      -6.041878      -164.4079
  20   2.0000      -6.038299      -164.3105
  21   2.0000      -6.036594      -164.2641
  22   2.0000      -6.032740      -164.1592
  23   2.0000      -6.029079      -164.0596
  24   2.0000      -1.014218       -27.5983
  25   2.0000      -0.987730       -26.8775
  26   2.0000      -0.911808       -24.8116
  27   2.0000      -0.905462       -24.6389
  28   2.0000      -0.870011       -23.6742
  29   2.0000      -0.849578       -23.1182
  30   2.0000      -0.845096       -22.9962
  31   2.0000      -0.811987       -22.0953
  32   2.0000      -0.784922       -21.3588
  33   2.0000      -0.768092       -20.9009
  34   2.0000      -0.708304       -19.2739
  35   2.0000      -0.693540       -18.8722
  36   2.0000      -0.692375       -18.8405
  37   2.0000      -0.662458       -18.0264
  38   2.0000      -0.642114       -17.4728
  39   2.0000      -0.621567       -16.9137
  40   2.0000      -0.593856       -16.1597
  41   2.0000      -0.571161       -15.5421
  42   2.0000      -0.548647       -14.9294
  43   2.0000      -0.545631       -14.8474
  44   2.0000      -0.543999       -14.8030
  45   2.0000      -0.527829       -14.3629
  46   2.0000      -0.522451       -14.2166
  47   2.0000      -0.507457       -13.8086
  48   2.0000      -0.504417       -13.7259
  49   2.0000      -0.494794       -13.4640
  50   2.0000      -0.490432       -13.3453
  51   2.0000      -0.484898       -13.1948
  52   2.0000      -0.476910       -12.9774
  53   2.0000      -0.464200       -12.6315
  54   2.0000      -0.458742       -12.4830
  55   2.0000      -0.450334       -12.2542
  56   2.0000      -0.439606       -11.9623
  57   2.0000      -0.431931       -11.7534
  58   2.0000      -0.425835       -11.5876
  59   2.0000      -0.424271       -11.5450
  60   2.0000      -0.419187       -11.4066
  61   2.0000      -0.415866       -11.3163
  62   2.0000      -0.406681       -11.0664
  63   2.0000      -0.339181        -9.2296
  64   2.0000      -0.334446        -9.1007
  65   2.0000      -0.328584        -8.9412
  66   2.0000      -0.289599        -7.8804
  67   0.0000       0.023981         0.6526
  68   0.0000       0.066482         1.8091
  69   0.0000       0.100892         2.7454
  70   0.0000       0.120221         3.2714
  71   0.0000       0.128045         3.4843

MULLIKEN ATOMIC CHARGES
-----------------------
   0 S :    0.144844
   1 C :   -0.153862
   2 C :   -0.060720
   3 C :    0.028429
   4 C :   -0.174795
   5 H :    0.010086
   6 C :    0.083818
   7 H :   -0.005997
   8 H :    0.028171
   9 C :   -0.092284
  10 H :    0.029567
  11 H :    0.033272
  12 C :   -0.039512
  13 H :    0.051060
  14 H :    0.031247
  15 H :    0.031929
  16 S :    0.108557
  17 C :   -0.067343
  18 C :   -0.052126
  19 C :   -0.038084
  20 C :   -0.181369
  21 H :    0.036640
  22 C :    0.025612
  23 H :    0.020447
  24 H :    0.024866
  25 C :   -0.027311
  26 H :    0.016546
  27 H :    0.015853
  28 C :   -0.028468
  29 H :    0.043340
  30 H :    0.023471
  31 H :    0.033348
  32 H :    0.064960
  33 H :    0.035807
Sum of atomic charges:    0.0000000

LOEWDIN ATOMIC CHARGES
----------------------
   0 S :    0.434139
   1 C :   -0.212307
   2 C :   -0.059084
   3 C :   -0.058083
   4 C :   -0.217369
   5 H :    0.026691
   6 C :   -0.031915
   7 H :    0.019651
   8 H :    0.032947
   9 C :   -0.031142
  10 H :    0.020338
  11 H :    0.025385
  12 C :   -0.062785
  13 H :    0.028051
  14 H :    0.026197
  15 H :    0.026650
  16 S :    0.429547
  17 C :   -0.176390
  18 C :   -0.066706
  19 C :   -0.061074
  20 C :   -0.222433
  21 H :    0.040399
  22 C :   -0.037476
  23 H :    0.024559
  24 H :    0.037653
  25 C :   -0.036183
  26 H :    0.020133
  27 H :    0.020383
  28 C :   -0.067682
  29 H :    0.032511
  30 H :    0.018665
  31 H :    0.027204
  32 H :    0.039385
  33 H :    0.010141

  Mayer bond orders larger than 0.100000
B(  0-S ,  1-C ) :   1.1418 B(  0-S ,  4-C ) :   1.1597 B(  1-C ,  2-C ) :   1.5940
B(  1-C ,  4-C ) :   0.1023 B(  1-C , 32-H ) :   0.9551 B(  2-C ,  3-C ) :   1.2387
B(  2-C ,  6-C ) :   1.0380 B(  3-C ,  4-C ) :   1.5530 B(  3-C ,  5-H ) :   0.9965
B(  4-C , 20-C ) :   1.0340 B(  6-C ,  7-H ) :   0.9344 B(  6-C ,  8-H ) :   0.9354
B(  6-C ,  9-C ) :   1.0633 B(  9-C , 10-H ) :   0.9626 B(  9-C , 11-H ) :   0.9587
B(  9-C , 12-C ) :   1.0585 B( 12-C , 13-H ) :   0.9798 B( 12-C , 14-H ) :   0.9754
B( 12-C , 15-H ) :   0.9768 B( 16-S , 17-C ) :   1.1724 B( 16-S , 20-C ) :   1.1692
B( 17-C , 18-C ) :   1.5588 B( 17-C , 20-C ) :   0.1098 B( 17-C , 33-H ) :   0.9720
B( 18-C , 19-C ) :   1.2833 B( 18-C , 21-H ) :   0.9866 B( 19-C , 20-C ) :   1.5480
B( 19-C , 22-C ) :   1.0538 B( 22-C , 23-H ) :   0.9422 B( 22-C , 24-H ) :   0.9392
B( 22-C , 25-C ) :   1.0387 B( 25-C , 26-H ) :   0.9580 B( 25-C , 27-H ) :   0.9504
B( 25-C , 28-C ) :   1.0932 B( 28-C , 29-H ) :   0.9689 B( 28-C , 30-H ) :   0.9745
B( 28-C , 31-H ) :   0.9688

Dispersion correction           -0.016718640
FINAL SINGLE POINT ENERGY     -1339.862063849101

DIPOLE MOMENT
-------------
                                X             Y             Z
Electronic contribution:     22.73960      -9.24001     -14.79002
Nuclear contribution   :    -23.03184       9.63993      15.12357
                        -----------------------------------------
Total Dipole Moment    :     -0.29224       0.39992       0.33355
                        -----------------------------------------
Magnitude (a.u.)       :      0.59716
Magnitude (Debye)      :      1.51785

Rotational constants in cm-1:     0.023178     0.009425     0.007866
Rotational constants in MHz :   694.869844   282.563934   235.806516

                             ****ORCA TERMINATED NORMALLY****
TOTAL RUN TIME: 0 days 0 hours 0 minutes 34 seconds 142 msec
