                         Program Version 4.2.1 -  RELEASE  -
|  1> ! wB97X-D3 SP def2-SVP
|  2> %pal
|  3> nprocs 16
|  4> end
|  5>
|  6> * xyz 0 1
|  7> S 	 -49.0249 	 61.5083 	 137.858
|  8> C 	 -48.788 	 60.0616 	 138.841
|  9> C 	 -49.3113 	 60.2269 	 140.107
| 10> C 	 -49.9912 	 61.5045 	 140.28
| 11> C 	 -50.0208 	 62.2542 	 139.162
| 12> H 	 -50.5425 	 61.8645 	 141.104
| 13> C 	 -49.2181 	 59.154 	 141.228
| 14> H 	 -48.3862 	 59.456 	 141.869
| 15> H 	 -48.9076 	 58.2101 	 140.845
| 16> C 	 -50.4322 	 59.165 	 142.177
| 17> H 	 -50.527 	 60.2073 	 142.484
| 18> H 	 -51.3165 	 58.8173 	 141.556
| 19> C 	 -50.2063 	 58.1956 	 143.384
| 20> H 	 -50.2658 	 57.1679 	 142.953
| 21> H 	 -49.2635 	 58.2485 	 143.846
| 22> H 	 -51.0209 	 58.3258 	 144.126
| 23> S 	 -49.773 	 64.7602 	 137.856
| 24> C 	 -50.9095 	 65.9944 	 138.292
| 25> C 	 -51.8957 	 65.5385 	 139.134
| 26> C 	 -51.8517 	 64.1033 	 139.404
| 27> C 	 -50.6639 	 63.5742 	 138.946
| 28> H 	 -52.6579 	 66.2057 	 139.443
| 29> C 	 -52.8956 	 63.4497 	 140.233
| 30> H 	 -52.6162 	 62.3542 	 140.189
| 31> H 	 -53.8112 	 63.4689 	 139.663
| 32> C 	 -53.1478 	 64.0167 	 141.631
| 33> H 	 -53.3173 	 65.0185 	 141.621
| 34> H 	 -52.2807 	 63.7859 	 142.187
| 35> C 	 -54.3586 	 63.336 	 142.242
| 36> H 	 -54.5345 	 63.8421 	 143.239
| 37> H 	 -54.0691 	 62.2572 	 142.228
| 38> H 	 -55.2151 	 63.5465 	 141.65
| 39> H 	 -48.2344 	 59.1884 	 138.603
| 40> H 	 -50.7995 	 67.0791 	 137.982
| 41> *
| 42>
| 43>                          ****END OF INPUT****

CARTESIAN COORDINATES (ANGSTROEM)
---------------------------------
  S    -49.024900   61.508300  137.858000
  C    -48.788000   60.061600  138.841000
  C    -49.311300   60.226900  140.107000
  C    -49.991200   61.504500  140.280000
  C    -50.020800   62.254200  139.162000
  H    -50.542500   61.864500  141.104000
  C    -49.218100   59.154000  141.228000
  H    -48.386200   59.456000  141.869000
  H    -48.907600   58.210100  140.845000
  C    -50.432200   59.165000  142.177000
  H    -50.527000   60.207300  142.484000
  H    -51.316500   58.817300  141.556000
  C    -50.206300   58.195600  143.384000
  H    -50.265800   57.167900  142.953000
  H    -49.263500   58.248500  143.846000
  H    -51.020900   58.325800  144.126000
  S    -49.773000   64.760200  137.856000
  C    -50.909500   65.994400  138.292000
  C    -51.895700   65.538500  139.134000
  C    -51.851700   64.103300  139.404000
  C    -50.663900   63.574200  138.946000
  H    -52.657900   66.205700  139.443000
  C    -52.895600   63.449700  140.233000
  H    -52.616200   62.354200  140.189000
  H    -53.811200   63.468900  139.663000
  C    -53.147800   64.016700  141.631000
  H    -53.317300   65.018500  141.621000
  H    -52.280700   63.785900  142.187000
  C    -54.358600   63.336000  142.242000
  H    -54.534500   63.842100  143.239000
  H    -54.069100   62.257200  142.228000
  H    -55.215100   63.546500  141.650000
  H    -48.234400   59.188400  138.603000
  H    -50.799500   67.079100  137.982000

 Total Charge           Charge          ....    0
 Multiplicity           Mult            ....    1
 Number of Electrons    NEL             ....  134
 Basis Dimension        Dim             ....  322

ORBITAL ENERGIES
----------------

  NO   OCC          E(Eh)            E(eV)
   0   2.0000     -88.963695     -2420.8252
   1   2.0000     -88.963462     -2420.8189
   2   2.0000     -10.335015      -281.2301
   3   2.0000     -10.333367      -281.1852
   4   2.0000     -10.321867      -280.8723
   5   2.0000     -10.311971      -280.6030
   6   2.0000     -10.306821      -280.4629
   7   2.0000     -10.305847      -280.4364
   8   2.0000     -10.296297      -280.1765
   9   2.0000     -10.293083      -280.0890
  10   2.0000     -10.292519      -280.0737
  11   2.0000     -10.292500      -280.0732
  12   2.0000     -10.292079      -280.0617
  13   2.0000     -10.284005      -279.8420
  14   2.0000     -10.283787      -279.8361
  15   2.0000     -10.277983      -279.6781
  16   2.0000      -8.077774      -219.8074
  17   2.0000      -8.077264      -219.7935
  18   2.0000      -6.036494      -164.2613
  19   2.0000      -6.036038      -164.2489
  20   2.0000      -6.032529      -164.1535
  21   2.0000      -6.032038      -164.1401
  22   2.0000      -6.028192      -164.0354
  23   2.0000      -6.027674      -164.0214
  24   2.0000      -0.998956       -27.1830
  25   2.0000      -0.977784       -26.6069
  26   2.0000      -0.920475       -25.0474
  27   2.0000      -0.907587       -24.6967
  28   2.0000      -0.869757       -23.6673
  29   2.0000      -0.854955       -23.2645
  30   2.0000      -0.840743       -22.8778
  31   2.0000      -0.815803       -22.1991
  32   2.0000      -0.781887       -21.2762
  33   2.0000      -0.770567       -20.9682
  34   2.0000      -0.712280       -19.3821
  35   2.0000      -0.703797       -19.1513
  36   2.0000      -0.688710       -18.7407
  37   2.0000      -0.658664       -17.9231
  38   2.0000      -0.644128       -17.5276
  39   2.0000      -0.621367       -16.9083
  40   2.0000      -0.598066       -16.2742
  41   2.0000      -0.580715       -15.8021
  42   2.0000      -0.568856       -15.4794
  43   2.0000      -0.558727       -15.2037
  44   2.0000      -0.535187       -14.5632
  45   2.0000      -0.524498       -14.2723
  46   2.0000      -0.515918       -14.0388
  47   2.0000      -0.510799       -13.8995
  48   2.0000      -0.506267       -13.7762
  49   2.0000      -0.496410       -13.5080
  50   2.0000      -0.489444       -13.3185
  51   2.0000      -0.486275       -13.2322
  52   2.0000      -0.465486       -12.6665
  53   2.0000      -0.464585       -12.6420
  54   2.0000      -0.456868       -12.4320
  55   2.0000      -0.451256       -12.2793
  56   2.0000      -0.448695       -12.2096
  57   2.0000      -0.440195       -11.9783
  58   2.0000      -0.433301       -11.7907
  59   2.0000      -0.429096       -11.6763
  60   2.0000      -0.425741       -11.5850
  61   2.0000      -0.419576       -11.4172
  62   2.0000      -0.412475       -11.2240
  63   2.0000      -0.356888        -9.7114
  64   2.0000      -0.329829        -8.9751
  65   2.0000      -0.326738        -8.8910
  66   2.0000      -0.288620        -7.8537
  67   0.0000       0.027326         0.7436
  68   0.0000       0.073281         1.9941
  69   0.0000       0.097641         2.6569
  70   0.0000       0.117507         3.1975
  71   0.0000       0.127662         3.4739

MULLIKEN ATOMIC CHARGES
-----------------------
   0 S :    0.088409
   1 C :   -0.099451
   2 C :   -0.086263
   3 C :    0.023797
   4 C :   -0.126137
   5 H :   -0.009160
   6 C :    0.085671
   7 H :    0.030311
   8 H :    0.007010
   9 C :   -0.131292
  10 H :    0.043461
  11 H :    0.050125
  12 C :   -0.033750
  13 H :    0.032891
  14 H :    0.024520
  15 H :    0.045001
  16 S :    0.085576
  17 C :   -0.101443
  18 C :   -0.030586
  19 C :   -0.029720
  20 C :   -0.140323
  21 H :    0.007110
  22 C :    0.009639
  23 H :    0.032134
  24 H :    0.023112
  25 C :   -0.008945
  26 H :    0.006126
  27 H :    0.021544
  28 C :   -0.047428
  29 H :    0.045398
  30 H :    0.043465
  31 H :    0.025633
  32 H :    0.031353
  33 H :    0.082211
Sum of atomic charges:   -0.0000000

LOEWDIN ATOMIC CHARGES
----------------------
   0 S :    0.364217
   1 C :   -0.189046
   2 C :   -0.054405
   3 C :   -0.068321
   4 C :   -0.161280
   5 H :    0.023605
   6 C :   -0.030710
   7 H :    0.033262
   8 H :    0.020216
   9 C :   -0.042626
  10 H :    0.021263
  11 H :    0.032869
  12 C :   -0.064325
  13 H :    0.031822
  14 H :    0.016452
  15 H :    0.030991
  16 S :    0.362726
  17 C :   -0.190093
  18 C :   -0.072898
  19 C :   -0.050833
  20 C :   -0.165615
  21 H :    0.023398
  22 C :   -0.040562
  23 H :    0.037770
  24 H :    0.031637
  25 C :   -0.026083
  26 H :    0.009838
  27 H :    0.020183
  28 C :   -0.059299
  29 H :    0.034965
  30 H :    0.033517
  31 H :    0.017999
  32 H :    0.024391
  33 H :    0.044975

  Mayer bond orders larger than 0.100000
B(  0-S ,  1-C ) :   1.1096 B(  0-S ,  4-C ) :   1.1155 B(  1-C ,  2-C ) :   1.6709
B(  1-C , 32-H ) :   0.9707 B(  2-C ,  3-C ) :   1.1735 B(  2-C ,  6-C ) :   1.0142
B(  3-C ,  4-C ) :   1.6477 B(  3-C ,  5-H ) :   0.9920 B(  4-C , 20-C ) :   1.0401
B(  6-C ,  7-H ) :   0.9324 B(  6-C ,  8-H ) :   0.9482 B(  6-C ,  9-C ) :   1.0550
B(  9-C , 10-H ) :   0.9494 B(  9-C , 11-H ) :   0.9620 B(  9-C , 12-C ) :   1.0770
B( 12-C , 13-H ) :   0.9750 B( 12-C , 14-H ) :   0.9768 B( 12-C , 15-H ) :   0.9761
B( 16-S , 17-C ) :   1.1377 B( 16-S , 20-C ) :   1.1021 B( 17-C , 18-C ) :   1.6616
B( 17-C , 33-H ) :   0.9557 B( 18-C , 19-C ) :   1.1755 B( 18-C , 21-H ) :   0.9914
B( 19-C , 20-C ) :   1.6404 B( 19-C , 22-C ) :   1.0610 B( 22-C , 23-H ) :   0.9278
B( 22-C , 24-H ) :   0.9198 B( 22-C , 25-C ) :   1.0648 B( 25-C , 26-H ) :   0.9477
B( 25-C , 27-H ) :   0.9531 B( 25-C , 28-C ) :   1.0860 B( 28-C , 29-H ) :   0.9723
B( 28-C , 30-H ) :   0.9749 B( 28-C , 31-H ) :   0.9763

Dispersion correction           -0.013698555
FINAL SINGLE POINT ENERGY     -1339.870177365932

DIPOLE MOMENT
-------------
                                X             Y             Z
Electronic contribution:     15.30924      13.00157     -26.82683
Nuclear contribution   :    -15.74213     -13.08638      27.54607
                        -----------------------------------------
Total Dipole Moment    :     -0.43289      -0.08480       0.71924
                        -----------------------------------------
Magnitude (a.u.)       :      0.84374
Magnitude (Debye)      :      2.14461

Rotational constants in cm-1:     0.015977     0.009625     0.006250
Rotational constants in MHz :   478.979142   288.557726   187.366104

                             ****ORCA TERMINATED NORMALLY****
TOTAL RUN TIME: 0 days 0 hours 0 minutes 32 seconds 725 msec
