                         Program Version 4.2.1 -  RELEASE  -
|  1> ! wB97X-D3 SP def2-SVP
|  2> %pal
|  3> nprocs 16
|  4> end
|  5>
|  6> * xyz 0 1
|  7> S 	 6.67437 	 24.8446 	 66.8806
|  8> C 	 6.24982 	 24.4358 	 65.1654
|  9> C 	 6.57226 	 25.4721 	 64.3471
| 10> C 	 7.24054 	 26.5496 	 65.043
| 11> C 	 7.19548 	 26.4959 	 66.4347
| 12> H 	 7.71214 	 27.481 	 64.5234
| 13> C 	 6.55474 	 25.4752 	 62.8724
| 14> H 	 5.87692 	 26.2121 	 62.5507
| 15> H 	 6.06348 	 24.5431 	 62.5478
| 16> C 	 7.92503 	 25.53 	 62.236
| 17> H 	 7.82621 	 25.5322 	 61.1176
| 18> H 	 8.48015 	 26.4154 	 62.5148
| 19> C 	 8.84579 	 24.311 	 62.441
| 20> H 	 8.4541 	 23.4554 	 61.9106
| 21> H 	 9.80497 	 24.5264 	 61.9149
| 22> H 	 9.13691 	 24.1504 	 63.5162
| 23> S 	 9.01187 	 26.6598 	 68.4442
| 24> C 	 9.29536 	 28.2014 	 69.269
| 25> C 	 8.59208 	 29.2109 	 68.7361
| 26> C 	 7.7774 	 28.7565 	 67.6108
| 27> C 	 7.78085 	 27.3742 	 67.439
| 28> H 	 8.65025 	 30.2444 	 69.0647
| 29> C 	 7.00896 	 29.687 	 66.7559
| 30> H 	 6.46753 	 29.1133 	 65.9505
| 31> H 	 7.75928 	 30.4027 	 66.2744
| 32> C 	 5.96975 	 30.5513 	 67.5369
| 33> H 	 6.48756 	 31.1996 	 68.178
| 34> H 	 5.307 	 29.8587 	 68.0667
| 35> C 	 5.0882 	 31.4638 	 66.6929
| 36> H 	 4.75241 	 32.3265 	 67.2739
| 37> H 	 4.16689 	 30.9319 	 66.3088
| 38> H 	 5.65743 	 31.8711 	 65.8327
| 39> H 	 5.9379 	 23.4785 	 64.7558
| 40> H 	 9.96992 	 28.2253 	 70.0819
| 41> *
| 42>
| 43>                          ****END OF INPUT****

CARTESIAN COORDINATES (ANGSTROEM)
---------------------------------
  S      6.674370   24.844600   66.880600
  C      6.249820   24.435800   65.165400
  C      6.572260   25.472100   64.347100
  C      7.240540   26.549600   65.043000
  C      7.195480   26.495900   66.434700
  H      7.712140   27.481000   64.523400
  C      6.554740   25.475200   62.872400
  H      5.876920   26.212100   62.550700
  H      6.063480   24.543100   62.547800
  C      7.925030   25.530000   62.236000
  H      7.826210   25.532200   61.117600
  H      8.480150   26.415400   62.514800
  C      8.845790   24.311000   62.441000
  H      8.454100   23.455400   61.910600
  H      9.804970   24.526400   61.914900
  H      9.136910   24.150400   63.516200
  S      9.011870   26.659800   68.444200
  C      9.295360   28.201400   69.269000
  C      8.592080   29.210900   68.736100
  C      7.777400   28.756500   67.610800
  C      7.780850   27.374200   67.439000
  H      8.650250   30.244400   69.064700
  C      7.008960   29.687000   66.755900
  H      6.467530   29.113300   65.950500
  H      7.759280   30.402700   66.274400
  C      5.969750   30.551300   67.536900
  H      6.487560   31.199600   68.178000
  H      5.307000   29.858700   68.066700
  C      5.088200   31.463800   66.692900
  H      4.752410   32.326500   67.273900
  H      4.166890   30.931900   66.308800
  H      5.657430   31.871100   65.832700
  H      5.937900   23.478500   64.755800
  H      9.969920   28.225300   70.081900

 Total Charge           Charge          ....    0
 Multiplicity           Mult            ....    1
 Number of Electrons    NEL             ....  134
 Basis Dimension        Dim             ....  322

ORBITAL ENERGIES
----------------

  NO   OCC          E(Eh)            E(eV)
   0   2.0000     -88.964049     -2420.8348
   1   2.0000     -88.961095     -2420.7545
   2   2.0000     -10.336501      -281.2705
   3   2.0000     -10.327317      -281.0206
   4   2.0000     -10.318346      -280.7765
   5   2.0000     -10.316372      -280.7228
   6   2.0000     -10.306064      -280.4423
   7   2.0000     -10.304469      -280.3989
   8   2.0000     -10.298489      -280.2361
   9   2.0000     -10.297347      -280.2051
  10   2.0000     -10.297329      -280.2046
  11   2.0000     -10.289841      -280.0008
  12   2.0000     -10.287156      -279.9277
  13   2.0000     -10.282177      -279.7923
  14   2.0000     -10.281435      -279.7721
  15   2.0000     -10.281072      -279.7622
  16   2.0000      -8.077284      -219.7941
  17   2.0000      -8.076201      -219.7646
  18   2.0000      -6.036110      -164.2509
  19   2.0000      -6.034831      -164.2161
  20   2.0000      -6.032084      -164.1414
  21   2.0000      -6.030704      -164.1038
  22   2.0000      -6.027679      -164.0215
  23   2.0000      -6.026745      -163.9961
  24   2.0000      -1.004592       -27.3364
  25   2.0000      -0.981036       -26.6954
  26   2.0000      -0.917076       -24.9549
  27   2.0000      -0.907779       -24.7019
  28   2.0000      -0.872684       -23.7469
  29   2.0000      -0.850119       -23.1329
  30   2.0000      -0.839094       -22.8329
  31   2.0000      -0.816634       -22.2217
  32   2.0000      -0.783490       -21.3198
  33   2.0000      -0.768827       -20.9209
  34   2.0000      -0.709157       -19.2972
  35   2.0000      -0.695991       -18.9389
  36   2.0000      -0.692154       -18.8345
  37   2.0000      -0.660342       -17.9688
  38   2.0000      -0.636975       -17.3330
  39   2.0000      -0.615156       -16.7392
  40   2.0000      -0.599708       -16.3189
  41   2.0000      -0.572799       -15.5866
  42   2.0000      -0.568723       -15.4757
  43   2.0000      -0.556229       -15.1358
  44   2.0000      -0.540381       -14.7045
  45   2.0000      -0.523993       -14.2586
  46   2.0000      -0.519956       -14.1487
  47   2.0000      -0.512686       -13.9509
  48   2.0000      -0.502726       -13.6799
  49   2.0000      -0.500166       -13.6102
  50   2.0000      -0.485111       -13.2005
  51   2.0000      -0.477122       -12.9831
  52   2.0000      -0.466673       -12.6988
  53   2.0000      -0.462939       -12.5972
  54   2.0000      -0.458770       -12.4838
  55   2.0000      -0.451116       -12.2755
  56   2.0000      -0.441387       -12.0107
  57   2.0000      -0.436220       -11.8702
  58   2.0000      -0.426862       -11.6155
  59   2.0000      -0.423225       -11.5165
  60   2.0000      -0.419742       -11.4218
  61   2.0000      -0.417621       -11.3640
  62   2.0000      -0.408915       -11.1271
  63   2.0000      -0.352374        -9.5886
  64   2.0000      -0.327680        -8.9166
  65   2.0000      -0.324813        -8.8386
  66   2.0000      -0.296199        -8.0600
  67   0.0000       0.026519         0.7216
  68   0.0000       0.073278         1.9940
  69   0.0000       0.104808         2.8520
  70   0.0000       0.115211         3.1350
  71   0.0000       0.131272         3.5721

MULLIKEN ATOMIC CHARGES
-----------------------
   0 S :    0.079252
   1 C :   -0.105328
   2 C :   -0.107668
   3 C :   -0.012629
   4 C :   -0.151748
   5 H :    0.056591
   6 C :    0.128357
   7 H :    0.026041
   8 H :    0.001794
   9 C :   -0.098458
  10 H :    0.033404
  11 H :    0.031043
  12 C :   -0.073532
  13 H :    0.029832
  14 H :    0.032984
  15 H :    0.057096
  16 S :    0.086671
  17 C :   -0.068042
  18 C :   -0.004012
  19 C :   -0.053947
  20 C :   -0.128334
  21 H :    0.024781
  22 C :    0.018300
  23 H :    0.036097
  24 H :    0.040543
  25 C :   -0.066701
  26 H :    0.014787
  27 H :    0.039559
  28 C :   -0.064515
  29 H :    0.034830
  30 H :    0.044233
  31 H :    0.027196
  32 H :    0.046831
  33 H :    0.044692
Sum of atomic charges:   -0.0000000

LOEWDIN ATOMIC CHARGES
----------------------
   0 S :    0.358555
   1 C :   -0.175210
   2 C :   -0.069278
   3 C :   -0.071914
   4 C :   -0.181533
   5 H :    0.045536
   6 C :   -0.032865
   7 H :    0.029162
   8 H :    0.030270
   9 C :   -0.042367
  10 H :    0.031721
  11 H :    0.019660
  12 C :   -0.069488
  13 H :    0.021205
  14 H :    0.031386
  15 H :    0.032550
  16 S :    0.391617
  17 C :   -0.157097
  18 C :   -0.067277
  19 C :   -0.052982
  20 C :   -0.205339
  21 H :    0.035579
  22 C :   -0.042169
  23 H :    0.034077
  24 H :    0.038329
  25 C :   -0.039190
  26 H :    0.013148
  27 H :    0.029636
  28 C :   -0.071634
  29 H :    0.026947
  30 H :    0.031197
  31 H :    0.024880
  32 H :    0.032793
  33 H :    0.020096

  Mayer bond orders larger than 0.100000
B(  0-S ,  1-C ) :   1.1059 B(  0-S ,  4-C ) :   1.1263 B(  1-C ,  2-C ) :   1.6524
B(  1-C , 32-H ) :   0.9624 B(  2-C ,  3-C ) :   1.2052 B(  2-C ,  6-C ) :   1.0350
B(  3-C ,  4-C ) :   1.6023 B(  3-C ,  5-H ) :   0.9677 B(  4-C , 20-C ) :   1.0379
B(  6-C ,  7-H ) :   0.9260 B(  6-C ,  8-H ) :   0.9339 B(  6-C ,  9-C ) :   1.0694
B(  9-C , 10-H ) :   0.9540 B(  9-C , 11-H ) :   0.9562 B(  9-C , 12-C ) :   1.0805
B( 12-C , 13-H ) :   0.9755 B( 12-C , 14-H ) :   0.9722 B( 12-C , 15-H ) :   0.9736
B( 16-S , 17-C ) :   1.1414 B( 16-S , 20-C ) :   1.1271 B( 17-C , 18-C ) :   1.6286
B( 17-C , 33-H ) :   0.9745 B( 18-C , 19-C ) :   1.1976 B( 18-C , 21-H ) :   0.9941
B( 19-C , 20-C ) :   1.6205 B( 19-C , 22-C ) :   1.0708 B( 22-C , 23-H ) :   0.9369
B( 22-C , 24-H ) :   0.9209 B( 22-C , 25-C ) :   1.0636 B( 25-C , 26-H ) :   0.9551
B( 25-C , 27-H ) :   0.9586 B( 25-C , 28-C ) :   1.0890 B( 28-C , 29-H ) :   0.9761
B( 28-C , 30-H ) :   0.9768 B( 28-C , 31-H ) :   0.9716

Dispersion correction           -0.013969934
FINAL SINGLE POINT ENERGY     -1339.879809367979

DIPOLE MOMENT
-------------
                                X             Y             Z
Electronic contribution:      4.91898     -12.62821      19.18528
Nuclear contribution   :     -4.80274      13.15600     -19.70697
                        -----------------------------------------
Total Dipole Moment    :      0.11624       0.52779      -0.52169
                        -----------------------------------------
Magnitude (a.u.)       :      0.75116
Magnitude (Debye)      :      1.90930

Rotational constants in cm-1:     0.018033     0.008441     0.006919
Rotational constants in MHz :   540.624286   253.069167   207.438911

                             ****ORCA TERMINATED NORMALLY****
TOTAL RUN TIME: 0 days 0 hours 0 minutes 35 seconds 19 msec
