                         Program Version 4.2.1 -  RELEASE  -
|  1> ! wB97X-D3 SP def2-SVP
|  2> %pal
|  3> nprocs 16
|  4> end
|  5>
|  6> * xyz 0 1
|  7> S 	 -96.8727 	 49.4691 	 126.139
|  8> C 	 -95.4983 	 48.4173 	 126.092
|  9> C 	 -95.5467 	 47.4231 	 125.135
| 10> C 	 -96.8586 	 47.4642 	 124.484
| 11> C 	 -97.6995 	 48.3768 	 124.999
| 12> H 	 -97.1031 	 46.7463 	 123.744
| 13> C 	 -94.5158 	 46.3161 	 124.977
| 14> H 	 -95.0707 	 45.4557 	 124.597
| 15> H 	 -94.1194 	 46.1156 	 125.98
| 16> C 	 -93.3086 	 46.6105 	 124.089
| 17> H 	 -92.6872 	 47.4072 	 124.582
| 18> H 	 -92.8503 	 45.6062 	 123.987
| 19> C 	 -93.5814 	 47.2586 	 122.707
| 20> H 	 -94.2022 	 48.1666 	 122.799
| 21> H 	 -92.6726 	 47.3695 	 122.125
| 22> H 	 -94.143 	 46.5474 	 122.138
| 23> S 	 -100.117 	 48.3304 	 126.28
| 24> C 	 -101.507 	 48.9876 	 125.429
| 25> C 	 -101.16 	 49.089 	 124.076
| 26> C 	 -99.8039 	 48.8607 	 123.703
| 27> C 	 -99.1007 	 48.6222 	 124.888
| 28> H 	 -101.99 	 49.3742 	 123.464
| 29> C 	 -99.1704 	 49.0604 	 122.312
| 30> H 	 -98.8506 	 48.0678 	 122
| 31> H 	 -98.2378 	 49.5982 	 122.394
| 32> C 	 -100.095 	 49.776 	 121.306
| 33> H 	 -100.409 	 50.7493 	 121.595
| 34> H 	 -101.047 	 49.3119 	 121.32
| 35> C 	 -99.381 	 49.8406 	 119.922
| 36> H 	 -99.9067 	 49.3017 	 119.104
| 37> H 	 -98.4267 	 49.3539 	 119.843
| 38> H 	 -99.2691 	 50.9219 	 119.732
| 39> H 	 -94.6261 	 48.6344 	 126.706
| 40> H 	 -102.416 	 49.3351 	 125.871
| 41> *
| 42>
| 43>                          ****END OF INPUT****

CARTESIAN COORDINATES (ANGSTROEM)
---------------------------------
  S    -96.872700   49.469100  126.139000
  C    -95.498300   48.417300  126.092000
  C    -95.546700   47.423100  125.135000
  C    -96.858600   47.464200  124.484000
  C    -97.699500   48.376800  124.999000
  H    -97.103100   46.746300  123.744000
  C    -94.515800   46.316100  124.977000
  H    -95.070700   45.455700  124.597000
  H    -94.119400   46.115600  125.980000
  C    -93.308600   46.610500  124.089000
  H    -92.687200   47.407200  124.582000
  H    -92.850300   45.606200  123.987000
  C    -93.581400   47.258600  122.707000
  H    -94.202200   48.166600  122.799000
  H    -92.672600   47.369500  122.125000
  H    -94.143000   46.547400  122.138000
  S    -100.117000   48.330400  126.280000
  C    -101.507000   48.987600  125.429000
  C    -101.160000   49.089000  124.076000
  C    -99.803900   48.860700  123.703000
  C    -99.100700   48.622200  124.888000
  H    -101.990000   49.374200  123.464000
  C    -99.170400   49.060400  122.312000
  H    -98.850600   48.067800  122.000000
  H    -98.237800   49.598200  122.394000
  C    -100.095000   49.776000  121.306000
  H    -100.409000   50.749300  121.595000
  H    -101.047000   49.311900  121.320000
  C    -99.381000   49.840600  119.922000
  H    -99.906700   49.301700  119.104000
  H    -98.426700   49.353900  119.843000
  H    -99.269100   50.921900  119.732000
  H    -94.626100   48.634400  126.706000
  H    -102.416000   49.335100  125.871000

 Total Charge           Charge          ....    0
 Multiplicity           Mult            ....    1
 Number of Electrons    NEL             ....  134
 Basis Dimension        Dim             ....  322

ORBITAL ENERGIES
----------------

  NO   OCC          E(Eh)            E(eV)
   0   2.0000     -88.963591     -2420.8224
   1   2.0000     -88.959305     -2420.7058
   2   2.0000     -10.321697      -280.8677
   3   2.0000     -10.318867      -280.7907
   4   2.0000     -10.314041      -280.6593
   5   2.0000     -10.310137      -280.5531
   6   2.0000     -10.303842      -280.3818
   7   2.0000     -10.300292      -280.2852
   8   2.0000     -10.295778      -280.1623
   9   2.0000     -10.294586      -280.1299
  10   2.0000     -10.293898      -280.1112
  11   2.0000     -10.292202      -280.0650
  12   2.0000     -10.292069      -280.0614
  13   2.0000     -10.283720      -279.8342
  14   2.0000     -10.281024      -279.7609
  15   2.0000     -10.275507      -279.6108
  16   2.0000      -8.078116      -219.8167
  17   2.0000      -8.074557      -219.7199
  18   2.0000      -6.036562      -164.2632
  19   2.0000      -6.032953      -164.1650
  20   2.0000      -6.032730      -164.1589
  21   2.0000      -6.029162      -164.0619
  22   2.0000      -6.028868      -164.0538
  23   2.0000      -6.025227      -163.9548
  24   2.0000      -1.005966       -27.3737
  25   2.0000      -0.979750       -26.6604
  26   2.0000      -0.910494       -24.7758
  27   2.0000      -0.907002       -24.6808
  28   2.0000      -0.867580       -23.6081
  29   2.0000      -0.848752       -23.0957
  30   2.0000      -0.842675       -22.9304
  31   2.0000      -0.813945       -22.1486
  32   2.0000      -0.784394       -21.3444
  33   2.0000      -0.770846       -20.9758
  34   2.0000      -0.716709       -19.5026
  35   2.0000      -0.700852       -19.0712
  36   2.0000      -0.694237       -18.8912
  37   2.0000      -0.651567       -17.7300
  38   2.0000      -0.638804       -17.3827
  39   2.0000      -0.618394       -16.8274
  40   2.0000      -0.596354       -16.2276
  41   2.0000      -0.576725       -15.6935
  42   2.0000      -0.563021       -15.3206
  43   2.0000      -0.544650       -14.8207
  44   2.0000      -0.542851       -14.7717
  45   2.0000      -0.529578       -14.4106
  46   2.0000      -0.516580       -14.0568
  47   2.0000      -0.510980       -13.9045
  48   2.0000      -0.503640       -13.7048
  49   2.0000      -0.495142       -13.4735
  50   2.0000      -0.491359       -13.3706
  51   2.0000      -0.476582       -12.9685
  52   2.0000      -0.466598       -12.6968
  53   2.0000      -0.464225       -12.6322
  54   2.0000      -0.459802       -12.5119
  55   2.0000      -0.455199       -12.3866
  56   2.0000      -0.444402       -12.0928
  57   2.0000      -0.439390       -11.9564
  58   2.0000      -0.431652       -11.7458
  59   2.0000      -0.421863       -11.4795
  60   2.0000      -0.419344       -11.4109
  61   2.0000      -0.411137       -11.1876
  62   2.0000      -0.409363       -11.1393
  63   2.0000      -0.341943        -9.3047
  64   2.0000      -0.328523        -8.9396
  65   2.0000      -0.320010        -8.7079
  66   2.0000      -0.294624        -8.0171
  67   0.0000       0.028589         0.7780
  68   0.0000       0.069538         1.8922
  69   0.0000       0.111686         3.0391
  70   0.0000       0.117725         3.2035
  71   0.0000       0.123896         3.3714

MULLIKEN ATOMIC CHARGES
-----------------------
   0 S :    0.104661
   1 C :   -0.123415
   2 C :   -0.127512
   3 C :    0.059376
   4 C :   -0.181310
   5 H :   -0.005492
   6 C :    0.078321
   7 H :    0.022983
   8 H :    0.038240
   9 C :   -0.099749
  10 H :    0.037518
  11 H :    0.042295
  12 C :   -0.049245
  13 H :    0.055053
  14 H :    0.038434
  15 H :    0.006874
  16 S :    0.125926
  17 C :   -0.095659
  18 C :   -0.067755
  19 C :    0.004934
  20 C :   -0.169604
  21 H :    0.006200
  22 C :    0.088072
  23 H :    0.030382
  24 H :    0.038294
  25 C :   -0.058992
  26 H :    0.020532
  27 H :    0.021044
  28 C :   -0.051979
  29 H :    0.037316
  30 H :    0.028761
  31 H :    0.044992
  32 H :    0.047325
  33 H :    0.053180
Sum of atomic charges:   -0.0000000

LOEWDIN ATOMIC CHARGES
----------------------
   0 S :    0.392742
   1 C :   -0.195619
   2 C :   -0.069008
   3 C :   -0.050717
   4 C :   -0.181713
   5 H :    0.024965
   6 C :   -0.032776
   7 H :    0.029479
   8 H :    0.039058
   9 C :   -0.044594
  10 H :    0.028092
  11 H :    0.030055
  12 C :   -0.070141
  13 H :    0.031892
  14 H :    0.028146
  15 H :    0.015401
  16 S :    0.408649
  17 C :   -0.189464
  18 C :   -0.071888
  19 C :   -0.051418
  20 C :   -0.211627
  21 H :    0.023356
  22 C :   -0.023512
  23 H :    0.032983
  24 H :    0.033666
  25 C :   -0.038026
  26 H :    0.022283
  27 H :    0.018227
  28 C :   -0.067974
  29 H :    0.031850
  30 H :    0.023034
  31 H :    0.033431
  32 H :    0.023775
  33 H :    0.027394

  Mayer bond orders larger than 0.100000
B(  0-S ,  1-C ) :   1.1432 B(  0-S ,  4-C ) :   1.1294 B(  1-C ,  2-C ) :   1.6430
B(  1-C , 32-H ) :   0.9630 B(  2-C ,  3-C ) :   1.2015 B(  2-C ,  6-C ) :   1.0109
B(  3-C ,  4-C ) :   1.6255 B(  3-C ,  5-H ) :   1.0035 B(  4-C , 20-C ) :   1.0375
B(  6-C ,  7-H ) :   0.9396 B(  6-C ,  8-H ) :   0.9446 B(  6-C ,  9-C ) :   1.0669
B(  9-C , 10-H ) :   0.9583 B(  9-C , 11-H ) :   0.9561 B(  9-C , 12-C ) :   1.0825
B( 12-C , 13-H ) :   0.9688 B( 12-C , 14-H ) :   0.9740 B( 12-C , 15-H ) :   0.9743
B( 16-S , 17-C ) :   1.1400 B( 16-S , 20-C ) :   1.1691 B( 17-C , 18-C ) :   1.5996
B( 17-C , 20-C ) :   0.1110 B( 17-C , 33-H ) :   0.9721 B( 18-C , 19-C ) :   1.2412
B( 18-C , 21-H ) :   0.9881 B( 19-C , 20-C ) :   1.5578 B( 19-C , 22-C ) :   1.0271
B( 22-C , 23-H ) :   0.9239 B( 22-C , 24-H ) :   0.9338 B( 22-C , 25-C ) :   1.0745
B( 25-C , 26-H ) :   0.9653 B( 25-C , 27-H ) :   0.9523 B( 25-C , 28-C ) :   1.0522
B( 28-C , 29-H ) :   0.9767 B( 28-C , 30-H ) :   0.9789 B( 28-C , 31-H ) :   0.9813

Dispersion correction           -0.014051622
FINAL SINGLE POINT ENERGY     -1339.862756898997

DIPOLE MOMENT
-------------
                                X             Y             Z
Electronic contribution:    -12.04913       3.51568      24.99788
Nuclear contribution   :     12.21122      -3.70479     -25.55592
                        -----------------------------------------
Total Dipole Moment    :      0.16209      -0.18911      -0.55804
                        -----------------------------------------
Magnitude (a.u.)       :      0.61110
Magnitude (Debye)      :      1.55330

Rotational constants in cm-1:     0.017416     0.008884     0.006477
Rotational constants in MHz :   522.129688   266.348777   194.164854

                             ****ORCA TERMINATED NORMALLY****
TOTAL RUN TIME: 0 days 0 hours 0 minutes 31 seconds 832 msec
