                         Program Version 4.2.1 -  RELEASE  -
|  1> ! wB97X-D3 SP def2-SVP
|  2> %pal
|  3> nprocs 16
|  4> end
|  5>
|  6> * xyz 0 1
|  7> S 	 24.8923 	 10.3493 	 70.8101
|  8> C 	 25.6405 	 11.5766 	 69.8743
|  9> C 	 24.7285 	 12.498 	 69.419
| 10> C 	 23.4088 	 12.224 	 69.8742
| 11> C 	 23.3282 	 11.0896 	 70.6485
| 12> H 	 22.5576 	 12.9124 	 69.8248
| 13> C 	 25.128 	 13.6691 	 68.5856
| 14> H 	 24.1678 	 14.0528 	 68.1223
| 15> H 	 25.8057 	 13.3736 	 67.8286
| 16> C 	 25.6769 	 14.8939 	 69.3915
| 17> H 	 24.8369 	 15.3143 	 69.9747
| 18> H 	 26.438 	 14.5592 	 70.1234
| 19> C 	 26.2221 	 15.9612 	 68.4632
| 20> H 	 27.1227 	 15.6089 	 67.9608
| 21> H 	 25.4835 	 16.2375 	 67.6921
| 22> H 	 26.5895 	 16.7703 	 69.0761
| 23> S 	 22.0031 	 8.68336 	 70.987
| 24> C 	 20.2688 	 8.62979 	 71.4435
| 25> C 	 19.774 	 9.90833 	 71.3838
| 26> C 	 20.7962 	 10.9417 	 71.2995
| 27> C 	 22.0425 	 10.4541 	 71.0576
| 28> H 	 18.6805 	 10.1297 	 71.4602
| 29> C 	 20.3638 	 12.3926 	 71.4919
| 30> H 	 19.2591 	 12.2977 	 71.681
| 31> H 	 20.4398 	 13.0795 	 70.6457
| 32> C 	 21.0151 	 13.1236 	 72.6554
| 33> H 	 22.1158 	 13.1254 	 72.4973
| 34> H 	 20.83 	 12.6523 	 73.58
| 35> C 	 20.4823 	 14.5597 	 72.796
| 36> H 	 19.4172 	 14.606 	 72.8773
| 37> H 	 20.8314 	 15.1853 	 71.9032
| 38> H 	 20.8431 	 14.9428 	 73.7642
| 39> H 	 26.6624 	 11.5745 	 69.4468
| 40> H 	 19.6042 	 7.8355 	 71.649
| 41> *
| 42>
| 43>                          ****END OF INPUT****

CARTESIAN COORDINATES (ANGSTROEM)
---------------------------------
  S     24.892300   10.349300   70.810100
  C     25.640500   11.576600   69.874300
  C     24.728500   12.498000   69.419000
  C     23.408800   12.224000   69.874200
  C     23.328200   11.089600   70.648500
  H     22.557600   12.912400   69.824800
  C     25.128000   13.669100   68.585600
  H     24.167800   14.052800   68.122300
  H     25.805700   13.373600   67.828600
  C     25.676900   14.893900   69.391500
  H     24.836900   15.314300   69.974700
  H     26.438000   14.559200   70.123400
  C     26.222100   15.961200   68.463200
  H     27.122700   15.608900   67.960800
  H     25.483500   16.237500   67.692100
  H     26.589500   16.770300   69.076100
  S     22.003100    8.683360   70.987000
  C     20.268800    8.629790   71.443500
  C     19.774000    9.908330   71.383800
  C     20.796200   10.941700   71.299500
  C     22.042500   10.454100   71.057600
  H     18.680500   10.129700   71.460200
  C     20.363800   12.392600   71.491900
  H     19.259100   12.297700   71.681000
  H     20.439800   13.079500   70.645700
  C     21.015100   13.123600   72.655400
  H     22.115800   13.125400   72.497300
  H     20.830000   12.652300   73.580000
  C     20.482300   14.559700   72.796000
  H     19.417200   14.606000   72.877300
  H     20.831400   15.185300   71.903200
  H     20.843100   14.942800   73.764200
  H     26.662400   11.574500   69.446800
  H     19.604200    7.835500   71.649000

 Total Charge           Charge          ....    0
 Multiplicity           Mult            ....    1
 Number of Electrons    NEL             ....  134
 Basis Dimension        Dim             ....  322

ORBITAL ENERGIES
----------------

  NO   OCC          E(Eh)            E(eV)
   0   2.0000     -88.971041     -2421.0251
   1   2.0000     -88.964072     -2420.8355
   2   2.0000     -10.332744      -281.1683
   3   2.0000     -10.332145      -281.1520
   4   2.0000     -10.317828      -280.7624
   5   2.0000     -10.312208      -280.6095
   6   2.0000     -10.302637      -280.3490
   7   2.0000     -10.298788      -280.2443
   8   2.0000     -10.297033      -280.1965
   9   2.0000     -10.295162      -280.1456
  10   2.0000     -10.295021      -280.1418
  11   2.0000     -10.292231      -280.0658
  12   2.0000     -10.290129      -280.0087
  13   2.0000     -10.282751      -279.8079
  14   2.0000     -10.281112      -279.7633
  15   2.0000     -10.278794      -279.7002
  16   2.0000      -8.086176      -220.0360
  17   2.0000      -8.077871      -219.8100
  18   2.0000      -6.044673      -164.4839
  19   2.0000      -6.040528      -164.3711
  20   2.0000      -6.037022      -164.2757
  21   2.0000      -6.036733      -164.2679
  22   2.0000      -6.032591      -164.1551
  23   2.0000      -6.028205      -164.0358
  24   2.0000      -1.010509       -27.4973
  25   2.0000      -0.984996       -26.8031
  26   2.0000      -0.912894       -24.8411
  27   2.0000      -0.908792       -24.7295
  28   2.0000      -0.870215       -23.6797
  29   2.0000      -0.855692       -23.2846
  30   2.0000      -0.844169       -22.9710
  31   2.0000      -0.819177       -22.2909
  32   2.0000      -0.777487       -21.1565
  33   2.0000      -0.770641       -20.9702
  34   2.0000      -0.707580       -19.2542
  35   2.0000      -0.697934       -18.9918
  36   2.0000      -0.689872       -18.7724
  37   2.0000      -0.665174       -18.1003
  38   2.0000      -0.639013       -17.3884
  39   2.0000      -0.621074       -16.9003
  40   2.0000      -0.597148       -16.2492
  41   2.0000      -0.574774       -15.6404
  42   2.0000      -0.563748       -15.3404
  43   2.0000      -0.558108       -15.1869
  44   2.0000      -0.528331       -14.3766
  45   2.0000      -0.519247       -14.1294
  46   2.0000      -0.516909       -14.0658
  47   2.0000      -0.512456       -13.9446
  48   2.0000      -0.508892       -13.8477
  49   2.0000      -0.497941       -13.5497
  50   2.0000      -0.496458       -13.5093
  51   2.0000      -0.484056       -13.1718
  52   2.0000      -0.475828       -12.9479
  53   2.0000      -0.460087       -12.5196
  54   2.0000      -0.459461       -12.5026
  55   2.0000      -0.449193       -12.2232
  56   2.0000      -0.444689       -12.1006
  57   2.0000      -0.435476       -11.8499
  58   2.0000      -0.431953       -11.7540
  59   2.0000      -0.430272       -11.7083
  60   2.0000      -0.419361       -11.4114
  61   2.0000      -0.417690       -11.3659
  62   2.0000      -0.411091       -11.1864
  63   2.0000      -0.356649        -9.7049
  64   2.0000      -0.332529        -9.0486
  65   2.0000      -0.327106        -8.9010
  66   2.0000      -0.291480        -7.9316
  67   0.0000       0.022882         0.6226
  68   0.0000       0.081510         2.2180
  69   0.0000       0.099639         2.7113
  70   0.0000       0.118622         3.2279
  71   0.0000       0.125640         3.4188

MULLIKEN ATOMIC CHARGES
-----------------------
   0 S :    0.125611
   1 C :   -0.119041
   2 C :   -0.097220
   3 C :    0.024294
   4 C :   -0.139681
   5 H :    0.010023
   6 C :    0.047459
   7 H :    0.026509
   8 H :    0.020333
   9 C :   -0.094289
  10 H :    0.029365
  11 H :    0.033818
  12 C :   -0.024617
  13 H :    0.023028
  14 H :    0.038375
  15 H :    0.034797
  16 S :    0.082575
  17 C :   -0.066074
  18 C :   -0.052510
  19 C :   -0.057707
  20 C :   -0.098279
  21 H :    0.039252
  22 C :    0.027903
  23 H :    0.013937
  24 H :    0.031824
  25 C :   -0.068324
  26 H :    0.044387
  27 H :    0.019218
  28 C :   -0.058874
  29 H :    0.024965
  30 H :    0.040676
  31 H :    0.036946
  32 H :    0.058703
  33 H :    0.042620
Sum of atomic charges:    0.0000000

LOEWDIN ATOMIC CHARGES
----------------------
   0 S :    0.430073
   1 C :   -0.215575
   2 C :   -0.067679
   3 C :   -0.063047
   4 C :   -0.198088
   5 H :    0.033234
   6 C :   -0.032789
   7 H :    0.035881
   8 H :    0.023027
   9 C :   -0.040257
  10 H :    0.024665
  11 H :    0.024164
  12 C :   -0.066351
  13 H :    0.023529
  14 H :    0.028828
  15 H :    0.027651
  16 S :    0.372232
  17 C :   -0.170793
  18 C :   -0.069715
  19 C :   -0.068358
  20 C :   -0.174638
  21 H :    0.037844
  22 C :   -0.037142
  23 H :    0.032023
  24 H :    0.024237
  25 C :   -0.039878
  26 H :    0.029049
  27 H :    0.018208
  28 C :   -0.066120
  29 H :    0.018617
  30 H :    0.030669
  31 H :    0.029889
  32 H :    0.038986
  33 H :    0.027622

  Mayer bond orders larger than 0.100000
B(  0-S ,  1-C ) :   1.1418 B(  0-S ,  4-C ) :   1.1645 B(  1-C ,  2-C ) :   1.6002
B(  1-C , 32-H ) :   0.9594 B(  2-C ,  3-C ) :   1.2791 B(  2-C ,  6-C ) :   1.0343
B(  3-C ,  4-C ) :   1.5479 B(  3-C ,  5-H ) :   0.9829 B(  4-C , 20-C ) :   1.0396
B(  6-C ,  7-H ) :   0.9376 B(  6-C ,  8-H ) :   0.9430 B(  6-C ,  9-C ) :   1.0571
B(  9-C , 10-H ) :   0.9552 B(  9-C , 11-H ) :   0.9582 B(  9-C , 12-C ) :   1.0860
B( 12-C , 13-H ) :   0.9733 B( 12-C , 14-H ) :   0.9721 B( 12-C , 15-H ) :   0.9712
B( 16-S , 17-C ) :   1.1209 B( 16-S , 20-C ) :   1.1121 B( 17-C , 18-C ) :   1.6546
B( 17-C , 33-H ) :   0.9703 B( 18-C , 19-C ) :   1.2331 B( 18-C , 21-H ) :   0.9711
B( 19-C , 20-C ) :   1.6435 B( 19-C , 22-C ) :   1.0305 B( 22-C , 23-H ) :   0.9315
B( 22-C , 24-H ) :   0.9350 B( 22-C , 25-C ) :   1.0678 B( 25-C , 26-H ) :   0.9528
B( 25-C , 27-H ) :   0.9528 B( 25-C , 28-C ) :   1.0872 B( 28-C , 29-H ) :   0.9747
B( 28-C , 30-H ) :   0.9729 B( 28-C , 31-H ) :   0.9744

Dispersion correction           -0.013881825
FINAL SINGLE POINT ENERGY     -1339.883409363508

DIPOLE MOMENT
-------------
                                X             Y             Z
Electronic contribution:      1.23833     -31.63153       1.76690
Nuclear contribution   :     -1.44809      32.27682      -1.89365
                        -----------------------------------------
Total Dipole Moment    :     -0.20976       0.64529      -0.12675
                        -----------------------------------------
Magnitude (a.u.)       :      0.69026
Magnitude (Debye)      :      1.75450

Rotational constants in cm-1:     0.018765     0.008612     0.006376
Rotational constants in MHz :   562.557378   258.192304   191.156674

                             ****ORCA TERMINATED NORMALLY****
TOTAL RUN TIME: 0 days 0 hours 0 minutes 30 seconds 253 msec
