                         Program Version 4.2.1 -  RELEASE  -
|  1> ! wB97X-D3 SP def2-SVP
|  2> %pal
|  3> nprocs 16
|  4> end
|  5>
|  6> * xyz 0 1
|  7> S 	 -95.6499 	 51.758 	 123.222
|  8> C 	 -94.1881 	 50.747 	 123.495
|  9> C 	 -94.585 	 49.4056 	 123.519
| 10> C 	 -96.0038 	 49.2774 	 123.288
| 11> C 	 -96.6865 	 50.4417 	 122.962
| 12> H 	 -96.4617 	 48.2565 	 123.228
| 13> C 	 -93.6307 	 48.2882 	 123.467
| 14> H 	 -94.1197 	 47.616 	 124.161
| 15> H 	 -92.6312 	 48.5715 	 123.932
| 16> C 	 -93.3525 	 47.5071 	 122.227
| 17> H 	 -92.6117 	 47.9622 	 121.536
| 18> H 	 -92.7528 	 46.6041 	 122.467
| 19> C 	 -94.5701 	 47.17 	 121.414
| 20> H 	 -95.1266 	 48.0366 	 121.015
| 21> H 	 -94.2909 	 46.7014 	 120.481
| 22> H 	 -95.2046 	 46.4995 	 121.997
| 23> S 	 -98.6993 	 52.1977 	 122.779
| 24> C 	 -100.292 	 51.7677 	 122.174
| 25> C 	 -100.296 	 50.4111 	 121.78
| 26> C 	 -99.0871 	 49.7249 	 122.061
| 27> C 	 -98.0584 	 50.5723 	 122.519
| 28> H 	 -101.191 	 49.8819 	 121.442
| 29> C 	 -98.9963 	 48.2336 	 121.767
| 30> H 	 -98.0147 	 48.1436 	 121.44
| 31> H 	 -99.6137 	 48.0444 	 120.912
| 32> C 	 -99.2621 	 47.3295 	 123.01
| 33> H 	 -100.271 	 47.5484 	 123.397
| 34> H 	 -98.4552 	 47.5927 	 123.725
| 35> C 	 -99.0784 	 45.8124 	 122.735
| 36> H 	 -99.1109 	 45.2939 	 123.684
| 37> H 	 -98.1415 	 45.6864 	 122.303
| 38> H 	 -99.8675 	 45.3202 	 122.148
| 39> H 	 -93.2257 	 51.0674 	 123.579
| 40> H 	 -101.124 	 52.4154 	 122.129
| 41> *
| 42>
| 43>                          ****END OF INPUT****

CARTESIAN COORDINATES (ANGSTROEM)
---------------------------------
  S    -95.649900   51.758000  123.222000
  C    -94.188100   50.747000  123.495000
  C    -94.585000   49.405600  123.519000
  C    -96.003800   49.277400  123.288000
  C    -96.686500   50.441700  122.962000
  H    -96.461700   48.256500  123.228000
  C    -93.630700   48.288200  123.467000
  H    -94.119700   47.616000  124.161000
  H    -92.631200   48.571500  123.932000
  C    -93.352500   47.507100  122.227000
  H    -92.611700   47.962200  121.536000
  H    -92.752800   46.604100  122.467000
  C    -94.570100   47.170000  121.414000
  H    -95.126600   48.036600  121.015000
  H    -94.290900   46.701400  120.481000
  H    -95.204600   46.499500  121.997000
  S    -98.699300   52.197700  122.779000
  C    -100.292000   51.767700  122.174000
  C    -100.296000   50.411100  121.780000
  C    -99.087100   49.724900  122.061000
  C    -98.058400   50.572300  122.519000
  H    -101.191000   49.881900  121.442000
  C    -98.996300   48.233600  121.767000
  H    -98.014700   48.143600  121.440000
  H    -99.613700   48.044400  120.912000
  C    -99.262100   47.329500  123.010000
  H    -100.271000   47.548400  123.397000
  H    -98.455200   47.592700  123.725000
  C    -99.078400   45.812400  122.735000
  H    -99.110900   45.293900  123.684000
  H    -98.141500   45.686400  122.303000
  H    -99.867500   45.320200  122.148000
  H    -93.225700   51.067400  123.579000
  H    -101.124000   52.415400  122.129000

 Total Charge           Charge          ....    0
 Multiplicity           Mult            ....    1
 Number of Electrons    NEL             ....  134
 Basis Dimension        Dim             ....  322

ORBITAL ENERGIES
----------------

  NO   OCC          E(Eh)            E(eV)
   0   2.0000     -88.966990     -2420.9149
   1   2.0000     -88.965439     -2420.8727
   2   2.0000     -10.333387      -281.1858
   3   2.0000     -10.332215      -281.1539
   4   2.0000     -10.322014      -280.8763
   5   2.0000     -10.312493      -280.6172
   6   2.0000     -10.307069      -280.4696
   7   2.0000     -10.302334      -280.3408
   8   2.0000     -10.298188      -280.2279
   9   2.0000     -10.296855      -280.1917
  10   2.0000     -10.295460      -280.1537
  11   2.0000     -10.292746      -280.0799
  12   2.0000     -10.288833      -279.9734
  13   2.0000     -10.286637      -279.9136
  14   2.0000     -10.276854      -279.6474
  15   2.0000     -10.276414      -279.6354
  16   2.0000      -8.081418      -219.9066
  17   2.0000      -8.080371      -219.8781
  18   2.0000      -6.040017      -164.3572
  19   2.0000      -6.039030      -164.3304
  20   2.0000      -6.035829      -164.2433
  21   2.0000      -6.034813      -164.2156
  22   2.0000      -6.032256      -164.1460
  23   2.0000      -6.030973      -164.1111
  24   2.0000      -1.009406       -27.4673
  25   2.0000      -0.982273       -26.7290
  26   2.0000      -0.924199       -25.1487
  27   2.0000      -0.908487       -24.7212
  28   2.0000      -0.873057       -23.7571
  29   2.0000      -0.853582       -23.2272
  30   2.0000      -0.842182       -22.9169
  31   2.0000      -0.815568       -22.1927
  32   2.0000      -0.787561       -21.4306
  33   2.0000      -0.778053       -21.1719
  34   2.0000      -0.710788       -19.3415
  35   2.0000      -0.707311       -19.2469
  36   2.0000      -0.698431       -19.0053
  37   2.0000      -0.668752       -18.1977
  38   2.0000      -0.638324       -17.3697
  39   2.0000      -0.617223       -16.7955
  40   2.0000      -0.593224       -16.1425
  41   2.0000      -0.572946       -15.5907
  42   2.0000      -0.568393       -15.4668
  43   2.0000      -0.554157       -15.0794
  44   2.0000      -0.549758       -14.9597
  45   2.0000      -0.528732       -14.3875
  46   2.0000      -0.520938       -14.1754
  47   2.0000      -0.516726       -14.0608
  48   2.0000      -0.514210       -13.9924
  49   2.0000      -0.508557       -13.8385
  50   2.0000      -0.500402       -13.6166
  51   2.0000      -0.479232       -13.0406
  52   2.0000      -0.470499       -12.8029
  53   2.0000      -0.465417       -12.6646
  54   2.0000      -0.455908       -12.4059
  55   2.0000      -0.451313       -12.2809
  56   2.0000      -0.441830       -12.0228
  57   2.0000      -0.439558       -11.9610
  58   2.0000      -0.437232       -11.8977
  59   2.0000      -0.426475       -11.6050
  60   2.0000      -0.425068       -11.5667
  61   2.0000      -0.415825       -11.3152
  62   2.0000      -0.397349       -10.8124
  63   2.0000      -0.358107        -9.7446
  64   2.0000      -0.334910        -9.1134
  65   2.0000      -0.325026        -8.8444
  66   2.0000      -0.281184        -7.6514
  67   0.0000       0.014761         0.4017
  68   0.0000       0.082722         2.2510
  69   0.0000       0.093156         2.5349
  70   0.0000       0.112206         3.0533
  71   0.0000       0.125195         3.4067

MULLIKEN ATOMIC CHARGES
-----------------------
   0 S :    0.092648
   1 C :   -0.071744
   2 C :   -0.092640
   3 C :   -0.032090
   4 C :   -0.086712
   5 H :    0.005992
   6 C :    0.055925
   7 H :    0.023736
   8 H :    0.033064
   9 C :   -0.053637
  10 H :    0.019958
  11 H :    0.028923
  12 C :   -0.070006
  13 H :    0.060851
  14 H :    0.023240
  15 H :    0.032215
  16 S :    0.084345
  17 C :   -0.068149
  18 C :   -0.032313
  19 C :   -0.094258
  20 C :   -0.112461
  21 H :    0.023601
  22 C :    0.109318
  23 H :   -0.004469
  24 H :    0.014193
  25 C :   -0.088655
  26 H :    0.034915
  27 H :    0.038556
  28 C :   -0.013231
  29 H :    0.031684
  30 H :    0.015450
  31 H :    0.035414
  32 H :    0.008282
  33 H :    0.048052
Sum of atomic charges:    0.0000000

LOEWDIN ATOMIC CHARGES
----------------------
   0 S :    0.403939
   1 C :   -0.166494
   2 C :   -0.060047
   3 C :   -0.080028
   4 C :   -0.208049
   5 H :    0.028831
   6 C :   -0.043302
   7 H :    0.034067
   8 H :    0.040540
   9 C :   -0.047850
  10 H :    0.024725
  11 H :    0.031257
  12 C :   -0.069747
  13 H :    0.033562
  14 H :    0.026465
  15 H :    0.020183
  16 S :    0.401751
  17 C :   -0.174239
  18 C :   -0.071632
  19 C :   -0.051862
  20 C :   -0.186350
  21 H :    0.033607
  22 C :   -0.026656
  23 H :    0.018922
  24 H :    0.026821
  25 C :   -0.032199
  26 H :    0.025804
  27 H :    0.028370
  28 C :   -0.061133
  29 H :    0.028202
  30 H :    0.014521
  31 H :    0.027012
  32 H :    0.008873
  33 H :    0.022137

  Mayer bond orders larger than 0.100000
B(  0-S ,  1-C ) :   1.1170 B(  0-S ,  4-C ) :   1.1549 B(  1-C ,  2-C ) :   1.5907
B(  1-C , 32-H ) :   0.9872 B(  2-C ,  3-C ) :   1.2481 B(  2-C ,  6-C ) :   1.0382
B(  3-C ,  4-C ) :   1.5420 B(  3-C ,  5-H ) :   0.9753 B(  4-C , 20-C ) :   1.0841
B(  6-C ,  7-H ) :   0.9247 B(  6-C ,  8-H ) :   0.9371 B(  6-C ,  9-C ) :   1.0767
B(  9-C , 10-H ) :   0.9496 B(  9-C , 11-H ) :   0.9468 B(  9-C , 12-C ) :   1.0980
B( 12-C , 13-H ) :   0.9610 B( 12-C , 14-H ) :   0.9639 B( 12-C , 15-H ) :   0.9730
B( 16-S , 17-C ) :   1.1672 B( 16-S , 20-C ) :   1.1367 B( 17-C , 18-C ) :   1.5608
B( 17-C , 20-C ) :   0.1111 B( 17-C , 33-H ) :   0.9765 B( 18-C , 19-C ) :   1.2885
B( 18-C , 21-H ) :   0.9823 B( 19-C , 20-C ) :   1.5542 B( 19-C , 22-C ) :   1.0329
B( 22-C , 23-H ) :   0.9242 B( 22-C , 24-H ) :   0.9349 B( 22-C , 25-C ) :   1.0587
B( 25-C , 26-H ) :   0.9565 B( 25-C , 27-H ) :   0.9522 B( 25-C , 28-C ) :   1.0815
B( 28-C , 29-H ) :   0.9736 B( 28-C , 30-H ) :   0.9730 B( 28-C , 31-H ) :   0.9753

Dispersion correction           -0.015357278
FINAL SINGLE POINT ENERGY     -1339.866493136744

DIPOLE MOMENT
-------------
                                X             Y             Z
Electronic contribution:     -4.12965      30.85498       4.36383
Nuclear contribution   :      4.12783     -31.62861      -4.56982
                        -----------------------------------------
Total Dipole Moment    :     -0.00182      -0.77362      -0.20599
                        -----------------------------------------
Magnitude (a.u.)       :      0.80058
Magnitude (Debye)      :      2.03491

Rotational constants in cm-1:     0.016751     0.011086     0.007156
Rotational constants in MHz :   502.175441   332.350080   214.532814

                             ****ORCA TERMINATED NORMALLY****
TOTAL RUN TIME: 0 days 0 hours 0 minutes 36 seconds 430 msec
