                         Program Version 4.2.1 -  RELEASE  -
|  1> ! wB97X-D3 SP def2-SVP
|  2> %pal
|  3> nprocs 16
|  4> end
|  5>
|  6> * xyz 0 1
|  7> S 	 49.8401 	 27.9684 	 44.7922
|  8> C 	 51.4126 	 28.6498 	 44.3836
|  9> C 	 52.3082 	 27.5948 	 44.1067
| 10> C 	 51.7401 	 26.2715 	 44.1172
| 11> C 	 50.3939 	 26.294 	 44.4117
| 12> H 	 52.215 	 25.3383 	 43.9387
| 13> C 	 53.7498 	 27.8014 	 43.7222
| 14> H 	 53.7023 	 28.8169 	 43.4132
| 15> H 	 54.0185 	 27.2204 	 42.8191
| 16> C 	 54.8306 	 27.5821 	 44.7673
| 17> H 	 54.7247 	 28.3204 	 45.5616
| 18> H 	 54.8168 	 26.5322 	 45.0628
| 19> C 	 56.2518 	 27.8996 	 44.1057
| 20> H 	 56.406 	 28.9802 	 43.746
| 21> H 	 57.0109 	 27.8918 	 44.9049
| 22> H 	 56.581 	 27.2391 	 43.2896
| 23> S 	 48.2568 	 25.251 	 45.819
| 24> C 	 47.5005 	 23.8783 	 45.1711
| 25> C 	 47.8094 	 23.6811 	 43.8303
| 26> C 	 49.019 	 24.3885 	 43.4428
| 27> C 	 49.4076 	 25.2256 	 44.4656
| 28> H 	 47.2548 	 23.0457 	 43.1736
| 29> C 	 49.6516 	 24.2477 	 42.0857
| 30> H 	 49.8944 	 25.2554 	 41.7814
| 31> H 	 48.7703 	 23.8432 	 41.5278
| 32> C 	 50.7992 	 23.242 	 42.1203
| 33> H 	 50.2589 	 22.3569 	 42.5021
| 34> H 	 51.5427 	 23.4547 	 42.8854
| 35> C 	 51.33 	 23.0695 	 40.6871
| 36> H 	 51.9635 	 23.9993 	 40.4111
| 37> H 	 50.4345 	 22.8694 	 39.9925
| 38> H 	 52.0637 	 22.2836 	 40.6254
| 39> H 	 51.6361 	 29.6955 	 44.4466
| 40> H 	 46.5973 	 23.4289 	 45.6057
| 41> *
| 42>
| 43>                          ****END OF INPUT****

CARTESIAN COORDINATES (ANGSTROEM)
---------------------------------
  S     49.840100   27.968400   44.792200
  C     51.412600   28.649800   44.383600
  C     52.308200   27.594800   44.106700
  C     51.740100   26.271500   44.117200
  C     50.393900   26.294000   44.411700
  H     52.215000   25.338300   43.938700
  C     53.749800   27.801400   43.722200
  H     53.702300   28.816900   43.413200
  H     54.018500   27.220400   42.819100
  C     54.830600   27.582100   44.767300
  H     54.724700   28.320400   45.561600
  H     54.816800   26.532200   45.062800
  C     56.251800   27.899600   44.105700
  H     56.406000   28.980200   43.746000
  H     57.010900   27.891800   44.904900
  H     56.581000   27.239100   43.289600
  S     48.256800   25.251000   45.819000
  C     47.500500   23.878300   45.171100
  C     47.809400   23.681100   43.830300
  C     49.019000   24.388500   43.442800
  C     49.407600   25.225600   44.465600
  H     47.254800   23.045700   43.173600
  C     49.651600   24.247700   42.085700
  H     49.894400   25.255400   41.781400
  H     48.770300   23.843200   41.527800
  C     50.799200   23.242000   42.120300
  H     50.258900   22.356900   42.502100
  H     51.542700   23.454700   42.885400
  C     51.330000   23.069500   40.687100
  H     51.963500   23.999300   40.411100
  H     50.434500   22.869400   39.992500
  H     52.063700   22.283600   40.625400
  H     51.636100   29.695500   44.446600
  H     46.597300   23.428900   45.605700

 Total Charge           Charge          ....    0
 Multiplicity           Mult            ....    1
 Number of Electrons    NEL             ....  134
 Basis Dimension        Dim             ....  322

ORBITAL ENERGIES
----------------

  NO   OCC          E(Eh)            E(eV)
   0   2.0000     -88.966258     -2420.8950
   1   2.0000     -88.962678     -2420.7975
   2   2.0000     -10.331698      -281.1398
   3   2.0000     -10.322949      -280.9017
   4   2.0000     -10.316785      -280.7340
   5   2.0000     -10.316384      -280.7231
   6   2.0000     -10.303275      -280.3664
   7   2.0000     -10.302345      -280.3411
   8   2.0000     -10.295321      -280.1499
   9   2.0000     -10.293091      -280.0892
  10   2.0000     -10.292931      -280.0849
  11   2.0000     -10.292805      -280.0815
  12   2.0000     -10.292674      -280.0779
  13   2.0000     -10.291395      -280.0431
  14   2.0000     -10.288558      -279.9659
  15   2.0000     -10.283711      -279.8340
  16   2.0000      -8.081729      -219.9150
  17   2.0000      -8.076528      -219.7735
  18   2.0000      -6.040153      -164.3609
  19   2.0000      -6.036362      -164.2578
  20   2.0000      -6.035193      -164.2260
  21   2.0000      -6.032301      -164.1473
  22   2.0000      -6.031153      -164.1160
  23   2.0000      -6.027195      -164.0083
  24   2.0000      -1.006013       -27.3750
  25   2.0000      -0.978661       -26.6307
  26   2.0000      -0.917505       -24.9666
  27   2.0000      -0.907286       -24.6885
  28   2.0000      -0.865683       -23.5564
  29   2.0000      -0.852620       -23.2010
  30   2.0000      -0.841865       -22.9083
  31   2.0000      -0.812158       -22.0999
  32   2.0000      -0.780606       -21.2414
  33   2.0000      -0.762862       -20.7585
  34   2.0000      -0.705947       -19.2098
  35   2.0000      -0.700042       -19.0491
  36   2.0000      -0.692197       -18.8356
  37   2.0000      -0.664942       -18.0940
  38   2.0000      -0.645112       -17.5544
  39   2.0000      -0.616454       -16.7746
  40   2.0000      -0.593276       -16.1439
  41   2.0000      -0.575003       -15.6466
  42   2.0000      -0.572246       -15.5716
  43   2.0000      -0.550290       -14.9742
  44   2.0000      -0.526144       -14.3171
  45   2.0000      -0.519687       -14.1414
  46   2.0000      -0.513628       -13.9765
  47   2.0000      -0.510214       -13.8836
  48   2.0000      -0.505865       -13.7653
  49   2.0000      -0.496492       -13.5102
  50   2.0000      -0.496110       -13.4998
  51   2.0000      -0.474373       -12.9083
  52   2.0000      -0.468541       -12.7497
  53   2.0000      -0.459315       -12.4986
  54   2.0000      -0.457101       -12.4384
  55   2.0000      -0.455897       -12.4056
  56   2.0000      -0.442949       -12.0532
  57   2.0000      -0.433585       -11.7984
  58   2.0000      -0.433180       -11.7874
  59   2.0000      -0.429645       -11.6912
  60   2.0000      -0.422611       -11.4998
  61   2.0000      -0.417308       -11.3555
  62   2.0000      -0.409739       -11.1496
  63   2.0000      -0.348593        -9.4857
  64   2.0000      -0.329849        -8.9757
  65   2.0000      -0.327109        -8.9011
  66   2.0000      -0.287399        -7.8205
  67   0.0000       0.029653         0.8069
  68   0.0000       0.059620         1.6223
  69   0.0000       0.105334         2.8663
  70   0.0000       0.122422         3.3313
  71   0.0000       0.125176         3.4062

MULLIKEN ATOMIC CHARGES
-----------------------
   0 S :    0.085780
   1 C :   -0.112579
   2 C :   -0.091177
   3 C :    0.042700
   4 C :   -0.137543
   5 H :   -0.005488
   6 C :    0.054890
   7 H :    0.000213
   8 H :    0.025715
   9 C :   -0.031261
  10 H :    0.034717
  11 H :    0.039041
  12 C :   -0.107398
  13 H :    0.036678
  14 H :    0.032332
  15 H :    0.043510
  16 S :    0.114176
  17 C :   -0.076125
  18 C :   -0.041785
  19 C :   -0.067935
  20 C :   -0.168933
  21 H :    0.010799
  22 C :    0.079008
  23 H :    0.039447
  24 H :    0.027261
  25 C :   -0.074588
  26 H :    0.024827
  27 H :    0.031164
  28 C :   -0.048026
  29 H :    0.045643
  30 H :    0.051857
  31 H :    0.031629
  32 H :    0.048104
  33 H :    0.063346
Sum of atomic charges:    0.0000000

LOEWDIN ATOMIC CHARGES
----------------------
   0 S :    0.369884
   1 C :   -0.197283
   2 C :   -0.057499
   3 C :   -0.066121
   4 C :   -0.161985
   5 H :    0.026165
   6 C :   -0.041326
   7 H :    0.024251
   8 H :    0.031387
   9 C :   -0.028395
  10 H :    0.028074
  11 H :    0.027194
  12 C :   -0.081057
  13 H :    0.031923
  14 H :    0.024768
  15 H :    0.023959
  16 S :    0.415068
  17 C :   -0.200905
  18 C :   -0.070312
  19 C :   -0.045882
  20 C :   -0.202299
  21 H :    0.024180
  22 C :   -0.028690
  23 H :    0.029243
  24 H :    0.037402
  25 C :   -0.041983
  26 H :    0.028944
  27 H :    0.020776
  28 C :   -0.073252
  29 H :    0.037402
  30 H :    0.038505
  31 H :    0.019214
  32 H :    0.026281
  33 H :    0.032370

  Mayer bond orders larger than 0.100000
B(  0-S ,  1-C ) :   1.1210 B(  0-S ,  4-C ) :   1.1354 B(  1-C ,  2-C ) :   1.6134
B(  1-C , 32-H ) :   0.9725 B(  2-C ,  3-C ) :   1.2065 B(  2-C ,  6-C ) :   1.0265
B(  3-C ,  4-C ) :   1.5963 B(  3-C ,  5-H ) :   1.0027 B(  4-C , 20-C ) :   1.0524
B(  6-C ,  7-H ) :   0.9361 B(  6-C ,  8-H ) :   0.9437 B(  6-C ,  9-C ) :   1.0721
B(  9-C , 10-H ) :   0.9539 B(  9-C , 11-H ) :   0.9554 B(  9-C , 12-C ) :   1.0708
B( 12-C , 13-H ) :   0.9755 B( 12-C , 14-H ) :   0.9767 B( 12-C , 15-H ) :   0.9773
B( 16-S , 17-C ) :   1.1681 B( 16-S , 20-C ) :   1.1307 B( 17-C , 18-C ) :   1.6046
B( 17-C , 33-H ) :   0.9619 B( 18-C , 19-C ) :   1.2444 B( 18-C , 21-H ) :   0.9888
B( 19-C , 20-C ) :   1.5882 B( 19-C , 22-C ) :   1.0292 B( 22-C , 23-H ) :   0.9246
B( 22-C , 24-H ) :   0.9340 B( 22-C , 25-C ) :   1.0567 B( 25-C , 26-H ) :   0.9482
B( 25-C , 27-H ) :   0.9570 B( 25-C , 28-C ) :   1.0782 B( 28-C , 29-H ) :   0.9717
B( 28-C , 30-H ) :   0.9697 B( 28-C , 31-H ) :   0.9748

Dispersion correction           -0.014028064
FINAL SINGLE POINT ENERGY     -1339.868244425622

DIPOLE MOMENT
-------------
                                X             Y             Z
Electronic contribution:    -25.51116       5.49934      15.75830
Nuclear contribution   :     25.79827      -5.75895     -16.20146
                        -----------------------------------------
Total Dipole Moment    :      0.28711      -0.25961      -0.44316
                        -----------------------------------------
Magnitude (a.u.)       :      0.58841
Magnitude (Debye)      :      1.49561

Rotational constants in cm-1:     0.018237     0.008527     0.006407
Rotational constants in MHz :   546.716654   255.645115   192.064951

                             ****ORCA TERMINATED NORMALLY****
TOTAL RUN TIME: 0 days 0 hours 0 minutes 28 seconds 391 msec
