                         Program Version 4.2.1 -  RELEASE  -
|  1> ! wB97X-D3 SP def2-SVP
|  2> %pal
|  3> nprocs 16
|  4> end
|  5>
|  6> * xyz 0 1
|  7> S 	 -13.0868 	 67.179 	 52.8487
|  8> C 	 -13.661 	 65.54 	 52.744
|  9> C 	 -12.7688 	 64.6327 	 53.3322
| 10> C 	 -11.7368 	 65.297 	 54.0602
| 11> C 	 -11.682 	 66.6332 	 53.7934
| 12> H 	 -11.046 	 64.9457 	 54.7685
| 13> C 	 -12.8551 	 63.1502 	 53.3334
| 14> H 	 -11.8601 	 62.7396 	 53.4233
| 15> H 	 -13.1737 	 62.8547 	 52.3682
| 16> C 	 -13.7988 	 62.5837 	 54.3741
| 17> H 	 -13.5666 	 62.9503 	 55.331
| 18> H 	 -14.7881 	 62.9643 	 54.0894
| 19> C 	 -13.9002 	 61.0813 	 54.4265
| 20> H 	 -14.1798 	 60.6387 	 53.4095
| 21> H 	 -13.0346 	 60.5326 	 54.7674
| 22> H 	 -14.6597 	 60.902 	 55.1845
| 23> S 	 -11.5317 	 68.4274 	 55.8453
| 24> C 	 -9.967 	 69.1768 	 56.0919
| 25> C 	 -9.01808 	 68.8186 	 55.1462
| 26> C 	 -9.57526 	 67.9539 	 54.1662
| 27> C 	 -10.8544 	 67.6325 	 54.4078
| 28> H 	 -8.01022 	 69.2087 	 55.0889
| 29> C 	 -8.72974 	 67.3037 	 53.0828
| 30> H 	 -9.19522 	 66.3988 	 52.6938
| 31> H 	 -7.86636 	 66.8796 	 53.584
| 32> C 	 -8.50499 	 68.2819 	 51.8772
| 33> H 	 -8.11237 	 69.2052 	 52.1984
| 34> H 	 -9.48231 	 68.3171 	 51.419
| 35> C 	 -7.54398 	 67.7702 	 50.7791
| 36> H 	 -8.05177 	 66.863 	 50.4107
| 37> H 	 -6.52289 	 67.5802 	 51.1896
| 38> H 	 -7.41709 	 68.4268 	 49.8939
| 39> H 	 -14.616 	 65.2916 	 52.2401
| 40> H 	 -9.79327 	 69.9261 	 56.8441
| 41> *
| 42>
| 43>                          ****END OF INPUT****

CARTESIAN COORDINATES (ANGSTROEM)
---------------------------------
  S    -13.086800   67.179000   52.848700
  C    -13.661000   65.540000   52.744000
  C    -12.768800   64.632700   53.332200
  C    -11.736800   65.297000   54.060200
  C    -11.682000   66.633200   53.793400
  H    -11.046000   64.945700   54.768500
  C    -12.855100   63.150200   53.333400
  H    -11.860100   62.739600   53.423300
  H    -13.173700   62.854700   52.368200
  C    -13.798800   62.583700   54.374100
  H    -13.566600   62.950300   55.331000
  H    -14.788100   62.964300   54.089400
  C    -13.900200   61.081300   54.426500
  H    -14.179800   60.638700   53.409500
  H    -13.034600   60.532600   54.767400
  H    -14.659700   60.902000   55.184500
  S    -11.531700   68.427400   55.845300
  C     -9.967000   69.176800   56.091900
  C     -9.018080   68.818600   55.146200
  C     -9.575260   67.953900   54.166200
  C    -10.854400   67.632500   54.407800
  H     -8.010220   69.208700   55.088900
  C     -8.729740   67.303700   53.082800
  H     -9.195220   66.398800   52.693800
  H     -7.866360   66.879600   53.584000
  C     -8.504990   68.281900   51.877200
  H     -8.112370   69.205200   52.198400
  H     -9.482310   68.317100   51.419000
  C     -7.543980   67.770200   50.779100
  H     -8.051770   66.863000   50.410700
  H     -6.522890   67.580200   51.189600
  H     -7.417090   68.426800   49.893900
  H    -14.616000   65.291600   52.240100
  H     -9.793270   69.926100   56.844100

 Total Charge           Charge          ....    0
 Multiplicity           Mult            ....    1
 Number of Electrons    NEL             ....  134
 Basis Dimension        Dim             ....  322

ORBITAL ENERGIES
----------------

  NO   OCC          E(Eh)            E(eV)
   0   2.0000     -88.963909     -2420.8310
   1   2.0000     -88.963013     -2420.8066
   2   2.0000     -10.320781      -280.8427
   3   2.0000     -10.317899      -280.7643
   4   2.0000     -10.317212      -280.7456
   5   2.0000     -10.315491      -280.6988
   6   2.0000     -10.300489      -280.2906
   7   2.0000     -10.295538      -280.1558
   8   2.0000     -10.292712      -280.0789
   9   2.0000     -10.289360      -279.9877
  10   2.0000     -10.289007      -279.9781
  11   2.0000     -10.282662      -279.8055
  12   2.0000     -10.281023      -279.7609
  13   2.0000     -10.280967      -279.7593
  14   2.0000     -10.280244      -279.7397
  15   2.0000     -10.280117      -279.7362
  16   2.0000      -8.078540      -219.8282
  17   2.0000      -8.077632      -219.8035
  18   2.0000      -6.036989      -164.2748
  19   2.0000      -6.036029      -164.2487
  20   2.0000      -6.033218      -164.1722
  21   2.0000      -6.032192      -164.1443
  22   2.0000      -6.029198      -164.0628
  23   2.0000      -6.028494      -164.0437
  24   2.0000      -1.007337       -27.4110
  25   2.0000      -0.982639       -26.7390
  26   2.0000      -0.917663       -24.9709
  27   2.0000      -0.903578       -24.5876
  28   2.0000      -0.869356       -23.6564
  29   2.0000      -0.853270       -23.2187
  30   2.0000      -0.849642       -23.1199
  31   2.0000      -0.814433       -22.1618
  32   2.0000      -0.781705       -21.2713
  33   2.0000      -0.766867       -20.8675
  34   2.0000      -0.701700       -19.0942
  35   2.0000      -0.698062       -18.9952
  36   2.0000      -0.693136       -18.8612
  37   2.0000      -0.665200       -18.1010
  38   2.0000      -0.650530       -17.7018
  39   2.0000      -0.617968       -16.8158
  40   2.0000      -0.598152       -16.2766
  41   2.0000      -0.570252       -15.5173
  42   2.0000      -0.568941       -15.4817
  43   2.0000      -0.556926       -15.1547
  44   2.0000      -0.532103       -14.4793
  45   2.0000      -0.520509       -14.1638
  46   2.0000      -0.514610       -14.0032
  47   2.0000      -0.513427       -13.9711
  48   2.0000      -0.507325       -13.8050
  49   2.0000      -0.501871       -13.6566
  50   2.0000      -0.492332       -13.3970
  51   2.0000      -0.470728       -12.8092
  52   2.0000      -0.468780       -12.7562
  53   2.0000      -0.461611       -12.5611
  54   2.0000      -0.457242       -12.4422
  55   2.0000      -0.452932       -12.3249
  56   2.0000      -0.446151       -12.1404
  57   2.0000      -0.436695       -11.8831
  58   2.0000      -0.427731       -11.6391
  59   2.0000      -0.424708       -11.5569
  60   2.0000      -0.421282       -11.4637
  61   2.0000      -0.417630       -11.3643
  62   2.0000      -0.415984       -11.3195
  63   2.0000      -0.340410        -9.2630
  64   2.0000      -0.329825        -8.9750
  65   2.0000      -0.317411        -8.6372
  66   2.0000      -0.306753        -8.3472
  67   0.0000       0.043077         1.1722
  68   0.0000       0.057794         1.5727
  69   0.0000       0.112262         3.0548
  70   0.0000       0.121547         3.3075
  71   0.0000       0.128188         3.4882

MULLIKEN ATOMIC CHARGES
-----------------------
   0 S :    0.103126
   1 C :   -0.140016
   2 C :   -0.088218
   3 C :    0.067214
   4 C :   -0.196113
   5 H :   -0.000120
   6 C :    0.112315
   7 H :    0.011805
   8 H :    0.002500
   9 C :   -0.054556
  10 H :    0.013960
  11 H :    0.019426
  12 C :   -0.041803
  13 H :    0.035620
  14 H :    0.028165
  15 H :    0.034159
  16 S :    0.116147
  17 C :   -0.082232
  18 C :   -0.028928
  19 C :   -0.016034
  20 C :   -0.181346
  21 H :    0.018285
  22 C :    0.071520
  23 H :    0.016523
  24 H :    0.022356
  25 C :   -0.057590
  26 H :    0.022348
  27 H :    0.034786
  28 C :   -0.065740
  29 H :    0.028489
  30 H :    0.036994
  31 H :    0.042706
  32 H :    0.062023
  33 H :    0.052231
Sum of atomic charges:    0.0000000

LOEWDIN ATOMIC CHARGES
----------------------
   0 S :    0.394108
   1 C :   -0.203467
   2 C :   -0.059651
   3 C :   -0.048103
   4 C :   -0.188257
   5 H :    0.028879
   6 C :   -0.031968
   7 H :    0.027477
   8 H :    0.024548
   9 C :   -0.034188
  10 H :    0.017565
  11 H :    0.026703
  12 C :   -0.067578
  13 H :    0.031019
  14 H :    0.020296
  15 H :    0.029701
  16 S :    0.391671
  17 C :   -0.172113
  18 C :   -0.069378
  19 C :   -0.052907
  20 C :   -0.201671
  21 H :    0.032371
  22 C :   -0.027520
  23 H :    0.028078
  24 H :    0.027397
  25 C :   -0.029898
  26 H :    0.013381
  27 H :    0.029129
  28 C :   -0.072368
  29 H :    0.025633
  30 H :    0.025762
  31 H :    0.028462
  32 H :    0.032657
  33 H :    0.024226

  Mayer bond orders larger than 0.100000
B(  0-S ,  1-C ) :   1.1468 B(  0-S ,  4-C ) :   1.1405 B(  1-C ,  2-C ) :   1.6014
B(  1-C , 32-H ) :   0.9666 B(  2-C ,  3-C ) :   1.2116 B(  2-C ,  6-C ) :   1.0362
B(  3-C ,  4-C ) :   1.6189 B(  3-C ,  5-H ) :   0.9993 B(  4-C , 20-C ) :   1.0060
B(  6-C ,  7-H ) :   0.9361 B(  6-C ,  8-H ) :   0.9254 B(  6-C ,  9-C ) :   1.0709
B(  9-C , 10-H ) :   0.9547 B(  9-C , 11-H ) :   0.9517 B(  9-C , 12-C ) :   1.0914
B( 12-C , 13-H ) :   0.9714 B( 12-C , 14-H ) :   0.9737 B( 12-C , 15-H ) :   0.9723
B( 16-S , 17-C ) :   1.1512 B( 16-S , 20-C ) :   1.1213 B( 17-C , 18-C ) :   1.6216
B( 17-C , 33-H ) :   0.9678 B( 18-C , 19-C ) :   1.2215 B( 18-C , 21-H ) :   0.9892
B( 19-C , 20-C ) :   1.6626 B( 19-C , 22-C ) :   1.0375 B( 22-C , 23-H ) :   0.9295
B( 22-C , 24-H ) :   0.9413 B( 22-C , 25-C ) :   1.0456 B( 25-C , 26-H ) :   0.9666
B( 25-C , 27-H ) :   0.9556 B( 25-C , 28-C ) :   1.0821 B( 28-C , 29-H ) :   0.9747
B( 28-C , 30-H ) :   0.9761 B( 28-C , 31-H ) :   0.9755

Dispersion correction           -0.013912084
FINAL SINGLE POINT ENERGY     -1339.881711317035

DIPOLE MOMENT
-------------
                                X             Y             Z
Electronic contribution:     -8.19072      18.86057       9.38112
Nuclear contribution   :      8.48272     -19.27380      -9.37476
                        -----------------------------------------
Total Dipole Moment    :      0.29200      -0.41323       0.00636
                        -----------------------------------------
Magnitude (a.u.)       :      0.50603
Magnitude (Debye)      :      1.28622

Rotational constants in cm-1:     0.019053     0.007608     0.006577
Rotational constants in MHz :   571.207801   228.073248   197.166727

                             ****ORCA TERMINATED NORMALLY****
TOTAL RUN TIME: 0 days 0 hours 0 minutes 31 seconds 670 msec
