                         Program Version 4.2.1 -  RELEASE  -
|  1> ! wB97X-D3 SP def2-SVP
|  2> %pal
|  3> nprocs 16
|  4> end
|  5>
|  6> * xyz 0 1
|  7> S 	 54.6618 	 12.477 	 52.0409
|  8> C 	 53.8009 	 13.745 	 51.2245
|  9> C 	 52.4294 	 13.4219 	 51.1568
| 10> C 	 52.1302 	 12.0483 	 51.5213
| 11> C 	 53.1971 	 11.422 	 52.1229
| 12> H 	 51.153 	 11.5467 	 51.3735
| 13> C 	 51.423 	 14.1691 	 50.4324
| 14> H 	 51.5074 	 15.3005 	 50.6504
| 15> H 	 50.4522 	 13.7999 	 50.75
| 16> C 	 51.4969 	 13.9513 	 48.8858
| 17> H 	 51.5551 	 12.9121 	 48.6361
| 18> H 	 50.6067 	 14.4193 	 48.4017
| 19> C 	 52.6288 	 14.6137 	 48.0777
| 20> H 	 53.675 	 14.3589 	 48.4777
| 21> H 	 52.608 	 14.3788 	 47.0028
| 22> H 	 52.4634 	 15.7113 	 48.1083
| 23> S 	 54.856 	 9.39957 	 52.657
| 24> C 	 54.3768 	 8.01371 	 53.4659
| 25> C 	 53.0172 	 8.00245 	 53.7256
| 26> C 	 52.3619 	 9.18843 	 53.2638
| 27> C 	 53.2857 	 10.1047 	 52.7417
| 28> H 	 52.6042 	 7.19114 	 54.2338
| 29> C 	 50.9335 	 9.48421 	 53.6992
| 30> H 	 50.8701 	 10.5452 	 53.8061
| 31> H 	 50.6564 	 9.07954 	 54.6214
| 32> C 	 49.8761 	 8.91272 	 52.6629
| 33> H 	 49.8885 	 7.84453 	 52.7673
| 34> H 	 50.3426 	 9.07878 	 51.6434
| 35> C 	 48.508 	 9.52847 	 52.8883
| 36> H 	 48.5842 	 10.5782 	 52.6985
| 37> H 	 48.2157 	 9.34757 	 53.9091
| 38> H 	 47.7859 	 9.2655 	 52.1062
| 39> H 	 54.1636 	 14.6909 	 50.8518
| 40> H 	 55.0159 	 7.17585 	 53.6953
| 41> *
| 42>
| 43>                          ****END OF INPUT****

CARTESIAN COORDINATES (ANGSTROEM)
---------------------------------
  S     54.661800   12.477000   52.040900
  C     53.800900   13.745000   51.224500
  C     52.429400   13.421900   51.156800
  C     52.130200   12.048300   51.521300
  C     53.197100   11.422000   52.122900
  H     51.153000   11.546700   51.373500
  C     51.423000   14.169100   50.432400
  H     51.507400   15.300500   50.650400
  H     50.452200   13.799900   50.750000
  C     51.496900   13.951300   48.885800
  H     51.555100   12.912100   48.636100
  H     50.606700   14.419300   48.401700
  C     52.628800   14.613700   48.077700
  H     53.675000   14.358900   48.477700
  H     52.608000   14.378800   47.002800
  H     52.463400   15.711300   48.108300
  S     54.856000    9.399570   52.657000
  C     54.376800    8.013710   53.465900
  C     53.017200    8.002450   53.725600
  C     52.361900    9.188430   53.263800
  C     53.285700   10.104700   52.741700
  H     52.604200    7.191140   54.233800
  C     50.933500    9.484210   53.699200
  H     50.870100   10.545200   53.806100
  H     50.656400    9.079540   54.621400
  C     49.876100    8.912720   52.662900
  H     49.888500    7.844530   52.767300
  H     50.342600    9.078780   51.643400
  C     48.508000    9.528470   52.888300
  H     48.584200   10.578200   52.698500
  H     48.215700    9.347570   53.909100
  H     47.785900    9.265500   52.106200
  H     54.163600   14.690900   50.851800
  H     55.015900    7.175850   53.695300

 Total Charge           Charge          ....    0
 Multiplicity           Mult            ....    1
 Number of Electrons    NEL             ....  134
 Basis Dimension        Dim             ....  322

ORBITAL ENERGIES
----------------

  NO   OCC          E(Eh)            E(eV)
   0   2.0000     -88.967206     -2420.9207
   1   2.0000     -88.965448     -2420.8729
   2   2.0000     -10.335794      -281.2513
   3   2.0000     -10.327543      -281.0267
   4   2.0000     -10.316304      -280.7209
   5   2.0000     -10.311128      -280.5801
   6   2.0000     -10.306817      -280.4628
   7   2.0000     -10.299786      -280.2714
   8   2.0000     -10.298665      -280.2409
   9   2.0000     -10.295628      -280.1583
  10   2.0000     -10.289966      -280.0042
  11   2.0000     -10.288841      -279.9736
  12   2.0000     -10.288615      -279.9674
  13   2.0000     -10.286924      -279.9214
  14   2.0000     -10.284526      -279.8562
  15   2.0000     -10.278427      -279.6902
  16   2.0000      -8.082268      -219.9297
  17   2.0000      -8.081081      -219.8974
  18   2.0000      -6.040530      -164.3712
  19   2.0000      -6.039845      -164.3525
  20   2.0000      -6.036374      -164.2581
  21   2.0000      -6.035676      -164.2391
  22   2.0000      -6.033256      -164.1732
  23   2.0000      -6.031637      -164.1292
  24   2.0000      -1.013248       -27.5719
  25   2.0000      -0.985010       -26.8035
  26   2.0000      -0.911914       -24.8144
  27   2.0000      -0.910055       -24.7638
  28   2.0000      -0.868888       -23.6436
  29   2.0000      -0.857655       -23.3380
  30   2.0000      -0.846609       -23.0374
  31   2.0000      -0.816166       -22.2090
  32   2.0000      -0.783127       -21.3100
  33   2.0000      -0.769481       -20.9387
  34   2.0000      -0.707430       -19.2501
  35   2.0000      -0.697944       -18.9920
  36   2.0000      -0.692843       -18.8532
  37   2.0000      -0.667221       -18.1560
  38   2.0000      -0.635649       -17.2969
  39   2.0000      -0.621605       -16.9147
  40   2.0000      -0.600879       -16.3507
  41   2.0000      -0.572440       -15.5769
  42   2.0000      -0.566170       -15.4063
  43   2.0000      -0.543142       -14.7796
  44   2.0000      -0.541312       -14.7299
  45   2.0000      -0.526448       -14.3254
  46   2.0000      -0.522663       -14.2224
  47   2.0000      -0.512930       -13.9575
  48   2.0000      -0.505815       -13.7639
  49   2.0000      -0.502638       -13.6775
  50   2.0000      -0.494718       -13.4620
  51   2.0000      -0.487805       -13.2738
  52   2.0000      -0.473836       -12.8937
  53   2.0000      -0.468158       -12.7392
  54   2.0000      -0.454769       -12.3749
  55   2.0000      -0.449827       -12.2404
  56   2.0000      -0.441534       -12.0147
  57   2.0000      -0.438336       -11.9277
  58   2.0000      -0.430907       -11.7256
  59   2.0000      -0.422526       -11.4975
  60   2.0000      -0.421290       -11.4639
  61   2.0000      -0.418837       -11.3971
  62   2.0000      -0.409091       -11.1319
  63   2.0000      -0.360605        -9.8126
  64   2.0000      -0.332758        -9.0548
  65   2.0000      -0.325844        -8.8667
  66   2.0000      -0.282293        -7.6816
  67   0.0000       0.020636         0.5615
  68   0.0000       0.081440         2.2161
  69   0.0000       0.100903         2.7457
  70   0.0000       0.114180         3.1070
  71   0.0000       0.125677         3.4199

MULLIKEN ATOMIC CHARGES
-----------------------
   0 S :    0.099259
   1 C :   -0.099811
   2 C :   -0.093851
   3 C :   -0.028203
   4 C :   -0.092541
   5 H :    0.027240
   6 C :    0.046762
   7 H :    0.040390
   8 H :    0.020160
   9 C :   -0.062564
  10 H :    0.027236
  11 H :    0.033562
  12 C :   -0.104135
  13 H :    0.046104
  14 H :    0.042107
  15 H :    0.028015
  16 S :    0.114169
  17 C :   -0.075643
  18 C :   -0.024056
  19 C :   -0.034898
  20 C :   -0.136429
  21 H :   -0.005750
  22 C :    0.064243
  23 H :    0.018586
  24 H :    0.009586
  25 C :   -0.117821
  26 H :    0.024510
  27 H :    0.037328
  28 C :    0.002540
  29 H :    0.014760
  30 H :    0.036143
  31 H :    0.037260
  32 H :    0.052234
  33 H :    0.053504
Sum of atomic charges:    0.0000000

LOEWDIN ATOMIC CHARGES
----------------------
   0 S :    0.383505
   1 C :   -0.203300
   2 C :   -0.066502
   3 C :   -0.070462
   4 C :   -0.169710
   5 H :    0.038251
   6 C :   -0.040533
   7 H :    0.039806
   8 H :    0.030646
   9 C :   -0.038932
  10 H :    0.020536
  11 H :    0.028934
  12 C :   -0.079290
  13 H :    0.028177
  14 H :    0.029622
  15 H :    0.022261
  16 S :    0.452848
  17 C :   -0.205879
  18 C :   -0.065384
  19 C :   -0.052041
  20 C :   -0.205920
  21 H :    0.021235
  22 C :   -0.020744
  23 H :    0.024617
  24 H :    0.020139
  25 C :   -0.040826
  26 H :    0.017822
  27 H :    0.024993
  28 C :   -0.063870
  29 H :    0.022106
  30 H :    0.026940
  31 H :    0.031386
  32 H :    0.030050
  33 H :    0.029518

  Mayer bond orders larger than 0.100000
B(  0-S ,  1-C ) :   1.1251 B(  0-S ,  4-C ) :   1.1290 B(  1-C ,  2-C ) :   1.5973
B(  1-C , 32-H ) :   0.9661 B(  2-C ,  3-C ) :   1.2165 B(  2-C ,  6-C ) :   1.0686
B(  3-C ,  4-C ) :   1.5943 B(  3-C ,  5-H ) :   0.9834 B(  4-C , 20-C ) :   1.0609
B(  6-C ,  7-H ) :   0.9373 B(  6-C ,  8-H ) :   0.9301 B(  6-C ,  9-C ) :   1.0583
B(  9-C , 10-H ) :   0.9563 B(  9-C , 11-H ) :   0.9564 B(  9-C , 12-C ) :   1.0796
B( 12-C , 13-H ) :   0.9680 B( 12-C , 14-H ) :   0.9725 B( 12-C , 15-H ) :   0.9767
B( 16-S , 17-C ) :   1.1847 B( 16-S , 20-C ) :   1.1617 B( 17-C , 18-C ) :   1.5773
B( 17-C , 33-H ) :   0.9688 B( 18-C , 19-C ) :   1.2570 B( 18-C , 21-H ) :   1.0034
B( 19-C , 20-C ) :   1.5512 B( 19-C , 22-C ) :   1.0427 B( 22-C , 23-H ) :   0.9501
B( 22-C , 24-H ) :   0.9444 B( 22-C , 25-C ) :   1.0295 B( 25-C , 26-H ) :   0.9577
B( 25-C , 27-H ) :   0.9613 B( 25-C , 28-C ) :   1.0768 B( 28-C , 29-H ) :   0.9731
B( 28-C , 30-H ) :   0.9705 B( 28-C , 31-H ) :   0.9705

Dispersion correction           -0.014417973
FINAL SINGLE POINT ENERGY     -1339.875800296871

DIPOLE MOMENT
-------------
                                X             Y             Z
Electronic contribution:     24.67406      -6.32368      10.39021
Nuclear contribution   :    -25.28859       6.19547     -10.48086
                        -----------------------------------------
Total Dipole Moment    :     -0.61453      -0.12821      -0.09065
                        -----------------------------------------
Magnitude (a.u.)       :      0.63427
Magnitude (Debye)      :      1.61219

Rotational constants in cm-1:     0.018099     0.009211     0.006606
Rotational constants in MHz :   542.598365   276.150370   198.031516

                             ****ORCA TERMINATED NORMALLY****
TOTAL RUN TIME: 0 days 0 hours 0 minutes 30 seconds 369 msec
