                         Program Version 4.2.1 -  RELEASE  -
|  1> ! wB97X-D3 SP def2-SVP
|  2> %pal
|  3> nprocs 16
|  4> end
|  5>
|  6> * xyz 0 1
|  7> S 	 7.72383 	 -5.8469 	 85.0949
|  8> C 	 8.51033 	 -4.33553 	 84.7806
|  9> C 	 7.61386 	 -3.27137 	 84.9661
| 10> C 	 6.26067 	 -3.70867 	 85.1186
| 11> C 	 6.14048 	 -5.07006 	 85.2598
| 12> H 	 5.39586 	 -3.04757 	 85.1842
| 13> C 	 8.04323 	 -1.77918 	 84.7754
| 14> H 	 8.32241 	 -1.74682 	 83.7396
| 15> H 	 8.97799 	 -1.63607 	 85.3014
| 16> C 	 7.07377 	 -0.667851 	 85.3042
| 17> H 	 7.33644 	 0.389008 	 85.0219
| 18> H 	 6.10225 	 -0.894208 	 84.914
| 19> C 	 6.89328 	 -0.707191 	 86.8482
| 20> H 	 6.3132 	 -1.59916 	 87.0818
| 21> H 	 7.81499 	 -0.606706 	 87.3996
| 22> H 	 6.25331 	 0.0993228 	 87.0748
| 23> S 	 4.52541 	 -7.09546 	 84.3887
| 24> C 	 3.11573 	 -7.48504 	 85.2815
| 25> C 	 2.95582 	 -6.6426 	 86.36
| 26> C 	 3.86712 	 -5.57479 	 86.399
| 27> C 	 4.91799 	 -5.80955 	 85.5211
| 28> H 	 2.12135 	 -6.78627 	 87.007
| 29> C 	 3.84698 	 -4.43702 	 87.4959
| 30> H 	 2.83996 	 -4.1478 	 87.6427
| 31> H 	 4.39958 	 -3.58308 	 87.0378
| 32> C 	 4.58093 	 -4.7756 	 88.8453
| 33> H 	 4.52487 	 -3.87592 	 89.5025
| 34> H 	 5.61195 	 -5.00041 	 88.6146
| 35> C 	 3.98744 	 -6.08655 	 89.439
| 36> H 	 2.98028 	 -6.36719 	 88.9814
| 37> H 	 3.79225 	 -5.94754 	 90.5168
| 38> H 	 4.70285 	 -6.88242 	 89.2454
| 39> H 	 9.51241 	 -4.099 	 84.5451
| 40> H 	 2.47007 	 -8.35932 	 85.122
| 41> *
| 42>
| 43>                          ****END OF INPUT****

CARTESIAN COORDINATES (ANGSTROEM)
---------------------------------
  S      7.723830   -5.846900   85.094900
  C      8.510330   -4.335530   84.780600
  C      7.613860   -3.271370   84.966100
  C      6.260670   -3.708670   85.118600
  C      6.140480   -5.070060   85.259800
  H      5.395860   -3.047570   85.184200
  C      8.043230   -1.779180   84.775400
  H      8.322410   -1.746820   83.739600
  H      8.977990   -1.636070   85.301400
  C      7.073770   -0.667851   85.304200
  H      7.336440    0.389008   85.021900
  H      6.102250   -0.894208   84.914000
  C      6.893280   -0.707191   86.848200
  H      6.313200   -1.599160   87.081800
  H      7.814990   -0.606706   87.399600
  H      6.253310    0.099323   87.074800
  S      4.525410   -7.095460   84.388700
  C      3.115730   -7.485040   85.281500
  C      2.955820   -6.642600   86.360000
  C      3.867120   -5.574790   86.399000
  C      4.917990   -5.809550   85.521100
  H      2.121350   -6.786270   87.007000
  C      3.846980   -4.437020   87.495900
  H      2.839960   -4.147800   87.642700
  H      4.399580   -3.583080   87.037800
  C      4.580930   -4.775600   88.845300
  H      4.524870   -3.875920   89.502500
  H      5.611950   -5.000410   88.614600
  C      3.987440   -6.086550   89.439000
  H      2.980280   -6.367190   88.981400
  H      3.792250   -5.947540   90.516800
  H      4.702850   -6.882420   89.245400
  H      9.512410   -4.099000   84.545100
  H      2.470070   -8.359320   85.122000

 Total Charge           Charge          ....    0
 Multiplicity           Mult            ....    1
 Number of Electrons    NEL             ....  134
 Basis Dimension        Dim             ....  322

ORBITAL ENERGIES
----------------

  NO   OCC          E(Eh)            E(eV)
   0   2.0000     -88.969743     -2420.9898
   1   2.0000     -88.966014     -2420.8883
   2   2.0000     -10.329098      -281.0691
   3   2.0000     -10.325764      -280.9783
   4   2.0000     -10.313622      -280.6479
   5   2.0000     -10.310192      -280.5546
   6   2.0000     -10.305509      -280.4272
   7   2.0000     -10.304192      -280.3913
   8   2.0000     -10.296791      -280.1899
   9   2.0000     -10.294396      -280.1248
  10   2.0000     -10.294219      -280.1200
  11   2.0000     -10.294019      -280.1145
  12   2.0000     -10.289791      -279.9994
  13   2.0000     -10.288634      -279.9680
  14   2.0000     -10.280651      -279.7507
  15   2.0000     -10.274231      -279.5760
  16   2.0000      -8.083845      -219.9726
  17   2.0000      -8.081275      -219.9027
  18   2.0000      -6.042465      -164.4238
  19   2.0000      -6.039635      -164.3468
  20   2.0000      -6.038366      -164.3123
  21   2.0000      -6.035673      -164.2390
  22   2.0000      -6.034605      -164.2099
  23   2.0000      -6.032195      -164.1444
  24   2.0000      -1.008766       -27.4499
  25   2.0000      -0.985499       -26.8168
  26   2.0000      -0.904670       -24.6173
  27   2.0000      -0.900569       -24.5057
  28   2.0000      -0.870546       -23.6888
  29   2.0000      -0.847861       -23.0715
  30   2.0000      -0.842175       -22.9168
  31   2.0000      -0.815137       -22.1810
  32   2.0000      -0.783279       -21.3141
  33   2.0000      -0.770768       -20.9737
  34   2.0000      -0.710513       -19.3340
  35   2.0000      -0.694701       -18.9038
  36   2.0000      -0.687810       -18.7163
  37   2.0000      -0.661203       -17.9922
  38   2.0000      -0.636873       -17.3302
  39   2.0000      -0.624203       -16.9854
  40   2.0000      -0.590859       -16.0781
  41   2.0000      -0.568593       -15.4722
  42   2.0000      -0.552511       -15.0346
  43   2.0000      -0.551339       -15.0027
  44   2.0000      -0.542448       -14.7608
  45   2.0000      -0.533042       -14.5048
  46   2.0000      -0.519924       -14.1479
  47   2.0000      -0.509423       -13.8621
  48   2.0000      -0.502723       -13.6798
  49   2.0000      -0.491749       -13.3812
  50   2.0000      -0.489462       -13.3189
  51   2.0000      -0.479801       -13.0561
  52   2.0000      -0.476009       -12.9529
  53   2.0000      -0.465865       -12.6768
  54   2.0000      -0.460363       -12.5271
  55   2.0000      -0.447326       -12.1723
  56   2.0000      -0.441533       -12.0147
  57   2.0000      -0.433977       -11.8091
  58   2.0000      -0.430330       -11.7099
  59   2.0000      -0.425435       -11.5767
  60   2.0000      -0.420303       -11.4370
  61   2.0000      -0.418372       -11.3845
  62   2.0000      -0.414519       -11.2796
  63   2.0000      -0.346579        -9.4309
  64   2.0000      -0.334810        -9.1107
  65   2.0000      -0.327649        -8.9158
  66   2.0000      -0.289709        -7.8834
  67   0.0000       0.026953         0.7334
  68   0.0000       0.072237         1.9657
  69   0.0000       0.116074         3.1585
  70   0.0000       0.116945         3.1822
  71   0.0000       0.136835         3.7235

MULLIKEN ATOMIC CHARGES
-----------------------
   0 S :    0.126978
   1 C :   -0.094484
   2 C :   -0.129251
   3 C :    0.016943
   4 C :   -0.144216
   5 H :    0.023113
   6 C :    0.076593
   7 H :    0.042351
   8 H :    0.019979
   9 C :   -0.094398
  10 H :    0.043202
  11 H :    0.022902
  12 C :   -0.037195
  13 H :    0.032498
  14 H :    0.038500
  15 H :    0.021937
  16 S :    0.119895
  17 C :   -0.092109
  18 C :   -0.040246
  19 C :   -0.041419
  20 C :   -0.177241
  21 H :    0.011738
  22 C :    0.066802
  23 H :    0.023245
  24 H :    0.011176
  25 C :   -0.059086
  26 H :    0.045665
  27 H :    0.037476
  28 C :   -0.079511
  29 H :    0.030887
  30 H :    0.039321
  31 H :    0.048307
  32 H :    0.027003
  33 H :    0.062645
Sum of atomic charges:    0.0000000

LOEWDIN ATOMIC CHARGES
----------------------
   0 S :    0.411332
   1 C :   -0.206985
   2 C :   -0.056892
   3 C :   -0.068823
   4 C :   -0.192209
   5 H :    0.030775
   6 C :   -0.033553
   7 H :    0.032334
   8 H :    0.027394
   9 C :   -0.039368
  10 H :    0.031725
  11 H :    0.016734
  12 C :   -0.058086
  13 H :    0.024908
  14 H :    0.023818
  15 H :    0.021393
  16 S :    0.423821
  17 C :   -0.201306
  18 C :   -0.074441
  19 C :   -0.052117
  20 C :   -0.199152
  21 H :    0.024595
  22 C :   -0.023647
  23 H :    0.021363
  24 H :    0.027895
  25 C :   -0.037087
  26 H :    0.028230
  27 H :    0.026370
  28 C :   -0.073270
  29 H :    0.027843
  30 H :    0.027895
  31 H :    0.030454
  32 H :    0.023169
  33 H :    0.034891

  Mayer bond orders larger than 0.100000
B(  0-S ,  1-C ) :   1.1386 B(  0-S ,  4-C ) :   1.1492 B(  1-C ,  2-C ) :   1.6097
B(  1-C ,  4-C ) :   0.1026 B(  1-C , 32-H ) :   0.9736 B(  2-C ,  3-C ) :   1.2554
B(  2-C ,  6-C ) :   0.9909 B(  3-C ,  4-C ) :   1.5715 B(  3-C ,  5-H ) :   0.9813
B(  4-C , 20-C ) :   1.0402 B(  6-C ,  7-H ) :   0.9469 B(  6-C ,  8-H ) :   0.9438
B(  6-C ,  9-C ) :   1.0631 B(  9-C , 10-H ) :   0.9602 B(  9-C , 11-H ) :   0.9543
B(  9-C , 12-C ) :   1.0799 B( 12-C , 13-H ) :   0.9753 B( 12-C , 14-H ) :   0.9761
B( 12-C , 15-H ) :   0.9727 B( 16-S , 17-C ) :   1.1628 B( 16-S , 20-C ) :   1.1623
B( 17-C , 18-C ) :   1.6020 B( 17-C , 20-C ) :   0.1082 B( 17-C , 33-H ) :   0.9625
B( 18-C , 19-C ) :   1.2546 B( 18-C , 21-H ) :   0.9860 B( 19-C , 20-C ) :   1.5701
B( 19-C , 22-C ) :   1.0385 B( 22-C , 23-H ) :   0.9355 B( 22-C , 24-H ) :   0.9352
B( 22-C , 25-C ) :   1.0736 B( 25-C , 26-H ) :   0.9618 B( 25-C , 27-H ) :   0.9622
B( 25-C , 28-C ) :   1.0504 B( 28-C , 29-H ) :   0.9788 B( 28-C , 30-H ) :   0.9748
B( 28-C , 31-H ) :   0.9785

Dispersion correction           -0.015382689
FINAL SINGLE POINT ENERGY     -1339.875887322621

DIPOLE MOMENT
-------------
                                X             Y             Z
Electronic contribution:      2.79966     -20.63771     -17.11401
Nuclear contribution   :     -2.96881      21.18805      17.42993
                        -----------------------------------------
Total Dipole Moment    :     -0.16915       0.55034       0.31591
                        -----------------------------------------
Magnitude (a.u.)       :      0.65673
Magnitude (Debye)      :      1.66926

Rotational constants in cm-1:     0.018509     0.009680     0.007532
Rotational constants in MHz :   554.891457   290.196388   225.810882

                             ****ORCA TERMINATED NORMALLY****
TOTAL RUN TIME: 0 days 0 hours 0 minutes 33 seconds 649 msec
