                         Program Version 4.2.1 -  RELEASE  -
|  1> ! wB97X-D3 SP def2-SVP
|  2> %pal
|  3> nprocs 16
|  4> end
|  5>
|  6> * xyz 0 1
|  7> S 	 15.0947 	 33.9188 	 57.5536
|  8> C 	 16.0511 	 33.0236 	 58.7471
|  9> C 	 15.8163 	 33.5205 	 60.0243
| 10> C 	 14.9426 	 34.6658 	 60.048
| 11> C 	 14.4898 	 34.9885 	 58.8367
| 12> H 	 14.7003 	 35.3174 	 60.8987
| 13> C 	 16.352 	 33.0079 	 61.3146
| 14> H 	 16.4055 	 33.8745 	 61.9371
| 15> H 	 17.3694 	 32.7082 	 61.0765
| 16> C 	 15.5597 	 31.896 	 62.0223
| 17> H 	 14.534 	 32.1901 	 62.0535
| 18> H 	 15.604 	 31.162 	 61.23
| 19> C 	 16.2618 	 31.1829 	 63.281
| 20> H 	 16.4296 	 31.8728 	 64.0594
| 21> H 	 15.6506 	 30.4952 	 63.7759
| 22> H 	 17.2023 	 30.8074 	 62.9195
| 23> S 	 12.1042 	 35.7444 	 57.8297
| 24> C 	 11.4718 	 37.3051 	 58.2394
| 25> C 	 12.4562 	 38.0671 	 58.9172
| 26> C 	 13.6531 	 37.3504 	 59.2329
| 27> C 	 13.6284 	 36.1097 	 58.5841
| 28> H 	 12.2192 	 39.108 	 59.1572
| 29> C 	 14.8273 	 37.9545 	 59.8992
| 30> H 	 15.7509 	 37.4917 	 59.6716
| 31> H 	 14.6786 	 37.8235 	 60.9413
| 32> C 	 14.9735 	 39.4385 	 59.5929
| 33> H 	 15.9833 	 39.7589 	 59.9678
| 34> H 	 14.1526 	 40.0098 	 59.9964
| 35> C 	 15.0698 	 39.8032 	 58.1227
| 36> H 	 14.3374 	 39.2845 	 57.4822
| 37> H 	 16.0658 	 39.6065 	 57.7493
| 38> H 	 14.8694 	 40.8754 	 58.0078
| 39> H 	 16.6355 	 32.1783 	 58.5085
| 40> H 	 10.4183 	 37.5919 	 58.0432
| 41> *
| 42>
| 43>                          ****END OF INPUT****

CARTESIAN COORDINATES (ANGSTROEM)
---------------------------------
  S     15.094700   33.918800   57.553600
  C     16.051100   33.023600   58.747100
  C     15.816300   33.520500   60.024300
  C     14.942600   34.665800   60.048000
  C     14.489800   34.988500   58.836700
  H     14.700300   35.317400   60.898700
  C     16.352000   33.007900   61.314600
  H     16.405500   33.874500   61.937100
  H     17.369400   32.708200   61.076500
  C     15.559700   31.896000   62.022300
  H     14.534000   32.190100   62.053500
  H     15.604000   31.162000   61.230000
  C     16.261800   31.182900   63.281000
  H     16.429600   31.872800   64.059400
  H     15.650600   30.495200   63.775900
  H     17.202300   30.807400   62.919500
  S     12.104200   35.744400   57.829700
  C     11.471800   37.305100   58.239400
  C     12.456200   38.067100   58.917200
  C     13.653100   37.350400   59.232900
  C     13.628400   36.109700   58.584100
  H     12.219200   39.108000   59.157200
  C     14.827300   37.954500   59.899200
  H     15.750900   37.491700   59.671600
  H     14.678600   37.823500   60.941300
  C     14.973500   39.438500   59.592900
  H     15.983300   39.758900   59.967800
  H     14.152600   40.009800   59.996400
  C     15.069800   39.803200   58.122700
  H     14.337400   39.284500   57.482200
  H     16.065800   39.606500   57.749300
  H     14.869400   40.875400   58.007800
  H     16.635500   32.178300   58.508500
  H     10.418300   37.591900   58.043200

 Total Charge           Charge          ....    0
 Multiplicity           Mult            ....    1
 Number of Electrons    NEL             ....  134
 Basis Dimension        Dim             ....  322

ORBITAL ENERGIES
----------------

  NO   OCC          E(Eh)            E(eV)
   0   2.0000     -88.966402     -2420.8989
   1   2.0000     -88.963661     -2420.8243
   2   2.0000     -10.323199      -280.9085
   3   2.0000     -10.321406      -280.8597
   4   2.0000     -10.320777      -280.8426
   5   2.0000     -10.313654      -280.6488
   6   2.0000     -10.303969      -280.3853
   7   2.0000     -10.300393      -280.2879
   8   2.0000     -10.300105      -280.2801
   9   2.0000     -10.287674      -279.9418
  10   2.0000     -10.286333      -279.9054
  11   2.0000     -10.286211      -279.9020
  12   2.0000     -10.284702      -279.8610
  13   2.0000     -10.284150      -279.8459
  14   2.0000     -10.277319      -279.6601
  15   2.0000     -10.270948      -279.4867
  16   2.0000      -8.081651      -219.9129
  17   2.0000      -8.077860      -219.8098
  18   2.0000      -6.040024      -164.3574
  19   2.0000      -6.036466      -164.2606
  20   2.0000      -6.035944      -164.2464
  21   2.0000      -6.032682      -164.1576
  22   2.0000      -6.032585      -164.1550
  23   2.0000      -6.028421      -164.0417
  24   2.0000      -1.009073       -27.4583
  25   2.0000      -0.982279       -26.7292
  26   2.0000      -0.920113       -25.0375
  27   2.0000      -0.909275       -24.7426
  28   2.0000      -0.870116       -23.6770
  29   2.0000      -0.851225       -23.1630
  30   2.0000      -0.844145       -22.9703
  31   2.0000      -0.814075       -22.1521
  32   2.0000      -0.789915       -21.4947
  33   2.0000      -0.774155       -21.0658
  34   2.0000      -0.711143       -19.3512
  35   2.0000      -0.702179       -19.1073
  36   2.0000      -0.693621       -18.8744
  37   2.0000      -0.656145       -17.8546
  38   2.0000      -0.642440       -17.4817
  39   2.0000      -0.620175       -16.8758
  40   2.0000      -0.604797       -16.4574
  41   2.0000      -0.565557       -15.3896
  42   2.0000      -0.562682       -15.3114
  43   2.0000      -0.558136       -15.1876
  44   2.0000      -0.539904       -14.6915
  45   2.0000      -0.530793       -14.4436
  46   2.0000      -0.518530       -14.1099
  47   2.0000      -0.510213       -13.8836
  48   2.0000      -0.509199       -13.8560
  49   2.0000      -0.496814       -13.5190
  50   2.0000      -0.491856       -13.3841
  51   2.0000      -0.480671       -13.0797
  52   2.0000      -0.471102       -12.8193
  53   2.0000      -0.466858       -12.7039
  54   2.0000      -0.460909       -12.5420
  55   2.0000      -0.452649       -12.3172
  56   2.0000      -0.441509       -12.0141
  57   2.0000      -0.438326       -11.9275
  58   2.0000      -0.434090       -11.8122
  59   2.0000      -0.426068       -11.5939
  60   2.0000      -0.422178       -11.4881
  61   2.0000      -0.412893       -11.2354
  62   2.0000      -0.409805       -11.1514
  63   2.0000      -0.349818        -9.5190
  64   2.0000      -0.331249        -9.0137
  65   2.0000      -0.328000        -8.9253
  66   2.0000      -0.288628        -7.8540
  67   0.0000       0.031714         0.8630
  68   0.0000       0.068466         1.8631
  69   0.0000       0.110947         3.0190
  70   0.0000       0.122276         3.3273
  71   0.0000       0.129843         3.5332

MULLIKEN ATOMIC CHARGES
-----------------------
   0 S :    0.095638
   1 C :   -0.104119
   2 C :   -0.108826
   3 C :   -0.002600
   4 C :   -0.123733
   5 H :    0.023750
   6 C :    0.079950
   7 H :    0.006447
   8 H :    0.014592
   9 C :   -0.054355
  10 H :    0.022480
  11 H :    0.012249
  12 C :    0.007544
  13 H :    0.016346
  14 H :    0.027465
  15 H :    0.032698
  16 S :    0.114283
  17 C :   -0.116102
  18 C :   -0.052525
  19 C :   -0.075690
  20 C :   -0.143296
  21 H :    0.023622
  22 C :    0.142470
  23 H :    0.025155
  24 H :    0.026994
  25 C :   -0.111642
  26 H :    0.036049
  27 H :    0.030767
  28 C :   -0.058547
  29 H :    0.047578
  30 H :    0.027311
  31 H :    0.030903
  32 H :    0.032594
  33 H :    0.074550
Sum of atomic charges:    0.0000000

LOEWDIN ATOMIC CHARGES
----------------------
   0 S :    0.373796
   1 C :   -0.184268
   2 C :   -0.056396
   3 C :   -0.067215
   4 C :   -0.182927
   5 H :    0.038917
   6 C :   -0.033703
   7 H :    0.020895
   8 H :    0.028056
   9 C :   -0.034728
  10 H :    0.020512
  11 H :    0.021759
  12 C :   -0.050135
  13 H :    0.019118
  14 H :    0.022659
  15 H :    0.027542
  16 S :    0.425507
  17 C :   -0.200104
  18 C :   -0.072928
  19 C :   -0.053362
  20 C :   -0.204429
  21 H :    0.031443
  22 C :   -0.029418
  23 H :    0.030178
  24 H :    0.031691
  25 C :   -0.041264
  26 H :    0.034425
  27 H :    0.018254
  28 C :   -0.067735
  29 H :    0.027164
  30 H :    0.021944
  31 H :    0.028117
  32 H :    0.019617
  33 H :    0.037017

  Mayer bond orders larger than 0.100000
B(  0-S ,  1-C ) :   1.1109 B(  0-S ,  4-C ) :   1.1250 B(  1-C ,  2-C ) :   1.6344
B(  1-C , 32-H ) :   0.9785 B(  2-C ,  3-C ) :   1.1973 B(  2-C ,  6-C ) :   1.0291
B(  3-C ,  4-C ) :   1.6347 B(  3-C ,  5-H ) :   0.9883 B(  4-C , 20-C ) :   1.0158
B(  6-C ,  7-H ) :   0.9321 B(  6-C ,  8-H ) :   0.9361 B(  6-C ,  9-C ) :   1.0526
B(  9-C , 10-H ) :   0.9593 B(  9-C , 11-H ) :   0.9590 B(  9-C , 12-C ) :   1.0598
B( 12-C , 13-H ) :   0.9784 B( 12-C , 14-H ) :   0.9761 B( 12-C , 15-H ) :   0.9764
B( 16-S , 17-C ) :   1.1776 B( 16-S , 20-C ) :   1.1622 B( 17-C , 18-C ) :   1.5657
B( 17-C , 20-C ) :   0.1046 B( 17-C , 33-H ) :   0.9657 B( 18-C , 19-C ) :   1.2519
B( 18-C , 21-H ) :   0.9883 B( 19-C , 20-C ) :   1.5685 B( 19-C , 22-C ) :   1.0331
B( 22-C , 23-H ) :   0.9389 B( 22-C , 24-H ) :   0.9085 B( 22-C , 25-C ) :   1.0887
B( 25-C , 26-H ) :   0.9557 B( 25-C , 27-H ) :   0.9513 B( 25-C , 28-C ) :   1.0805
B( 28-C , 29-H ) :   0.9703 B( 28-C , 30-H ) :   0.9770 B( 28-C , 31-H ) :   0.9742

Dispersion correction           -0.014279248
FINAL SINGLE POINT ENERGY     -1339.869468197302

DIPOLE MOMENT
-------------
                                X             Y             Z
Electronic contribution:    -12.16678      -4.36350     -18.48811
Nuclear contribution   :     12.32271       4.60571      19.12065
                        -----------------------------------------
Total Dipole Moment    :      0.15592       0.24222       0.63254
                        -----------------------------------------
Magnitude (a.u.)       :      0.69505
Magnitude (Debye)      :      1.76667

Rotational constants in cm-1:     0.021092     0.007457     0.006714
Rotational constants in MHz :   632.335870   223.561683   201.290422

                             ****ORCA TERMINATED NORMALLY****
TOTAL RUN TIME: 0 days 0 hours 0 minutes 35 seconds 102 msec
