                         Program Version 4.2.1 -  RELEASE  -
|  1> ! wB97X-D3 SP def2-SVP
|  2> %pal
|  3> nprocs 16
|  4> end
|  5>
|  6> * xyz 0 1
|  7> S 	 -12.7987 	 -6.47931 	 84.9405
|  8> C 	 -12.2926 	 -5.98934 	 86.5574
|  9> C 	 -13.3979 	 -5.49173 	 87.2423
| 10> C 	 -14.604 	 -5.30487 	 86.4606
| 11> C 	 -14.4792 	 -6.00735 	 85.2762
| 12> H 	 -15.5789 	 -4.89547 	 86.7659
| 13> C 	 -13.378 	 -5.20589 	 88.7004
| 14> H 	 -13.6402 	 -4.14894 	 88.6476
| 15> H 	 -12.4525 	 -5.23984 	 89.2418
| 16> C 	 -14.4319 	 -5.75944 	 89.6665
| 17> H 	 -14.3402 	 -5.27979 	 90.6795
| 18> H 	 -15.4042 	 -5.49353 	 89.347
| 19> C 	 -14.4246 	 -7.28493 	 89.7613
| 20> H 	 -15.1301 	 -7.65418 	 90.4386
| 21> H 	 -14.6608 	 -7.56276 	 88.7004
| 22> H 	 -13.4548 	 -7.73091 	 90.06
| 23> S 	 -15.3794 	 -5.11076 	 82.8657
| 24> C 	 -16.8846 	 -5.69851 	 82.2779
| 25> C 	 -17.4877 	 -6.65519 	 83.0972
| 26> C 	 -16.6772 	 -6.93748 	 84.2078
| 27> C 	 -15.4842 	 -6.19507 	 84.2651
| 28> H 	 -18.4978 	 -7.06985 	 82.8187
| 29> C 	 -16.9297 	 -8.01546 	 85.2057
| 30> H 	 -17.6769 	 -7.74897 	 85.8996
| 31> H 	 -15.977 	 -8.1206 	 85.785
| 32> C 	 -17.2315 	 -9.41668 	 84.5835
| 33> H 	 -16.5881 	 -9.69762 	 83.7559
| 34> H 	 -18.1741 	 -9.39475 	 84.0828
| 35> C 	 -17.2318 	 -10.4762 	 85.7682
| 36> H 	 -16.2381 	 -10.6904 	 86.2462
| 37> H 	 -17.5883 	 -11.5015 	 85.4488
| 38> H 	 -18.0216 	 -10.2133 	 86.5134
| 39> H 	 -11.2958 	 -6.32949 	 86.9266
| 40> H 	 -17.3173 	 -5.3622 	 81.3535
| 41> *
| 42>
| 43>                          ****END OF INPUT****

CARTESIAN COORDINATES (ANGSTROEM)
---------------------------------
  S    -12.798700   -6.479310   84.940500
  C    -12.292600   -5.989340   86.557400
  C    -13.397900   -5.491730   87.242300
  C    -14.604000   -5.304870   86.460600
  C    -14.479200   -6.007350   85.276200
  H    -15.578900   -4.895470   86.765900
  C    -13.378000   -5.205890   88.700400
  H    -13.640200   -4.148940   88.647600
  H    -12.452500   -5.239840   89.241800
  C    -14.431900   -5.759440   89.666500
  H    -14.340200   -5.279790   90.679500
  H    -15.404200   -5.493530   89.347000
  C    -14.424600   -7.284930   89.761300
  H    -15.130100   -7.654180   90.438600
  H    -14.660800   -7.562760   88.700400
  H    -13.454800   -7.730910   90.060000
  S    -15.379400   -5.110760   82.865700
  C    -16.884600   -5.698510   82.277900
  C    -17.487700   -6.655190   83.097200
  C    -16.677200   -6.937480   84.207800
  C    -15.484200   -6.195070   84.265100
  H    -18.497800   -7.069850   82.818700
  C    -16.929700   -8.015460   85.205700
  H    -17.676900   -7.748970   85.899600
  H    -15.977000   -8.120600   85.785000
  C    -17.231500   -9.416680   84.583500
  H    -16.588100   -9.697620   83.755900
  H    -18.174100   -9.394750   84.082800
  C    -17.231800  -10.476200   85.768200
  H    -16.238100  -10.690400   86.246200
  H    -17.588300  -11.501500   85.448800
  H    -18.021600  -10.213300   86.513400
  H    -11.295800   -6.329490   86.926600
  H    -17.317300   -5.362200   81.353500

 Total Charge           Charge          ....    0
 Multiplicity           Mult            ....    1
 Number of Electrons    NEL             ....  134
 Basis Dimension        Dim             ....  322

ORBITAL ENERGIES
----------------

  NO   OCC          E(Eh)            E(eV)
   0   2.0000     -88.965155     -2420.8650
   1   2.0000     -88.961416     -2420.7632
   2   2.0000     -10.332112      -281.1511
   3   2.0000     -10.322130      -280.8794
   4   2.0000     -10.318116      -280.7702
   5   2.0000     -10.317071      -280.7418
   6   2.0000     -10.308944      -280.5206
   7   2.0000     -10.303150      -280.3630
   8   2.0000     -10.303053      -280.3603
   9   2.0000     -10.298076      -280.2249
  10   2.0000     -10.290421      -280.0166
  11   2.0000     -10.289432      -279.9897
  12   2.0000     -10.286987      -279.9231
  13   2.0000     -10.285729      -279.8889
  14   2.0000     -10.285016      -279.8695
  15   2.0000     -10.273310      -279.5510
  16   2.0000      -8.080216      -219.8739
  17   2.0000      -8.075920      -219.7569
  18   2.0000      -6.038472      -164.3152
  19   2.0000      -6.034592      -164.2096
  20   2.0000      -6.034462      -164.2061
  21   2.0000      -6.031306      -164.1202
  22   2.0000      -6.030460      -164.0972
  23   2.0000      -6.026653      -163.9936
  24   2.0000      -1.005562       -27.3627
  25   2.0000      -0.982229       -26.7278
  26   2.0000      -0.913487       -24.8572
  27   2.0000      -0.904572       -24.6146
  28   2.0000      -0.869719       -23.6662
  29   2.0000      -0.847614       -23.0648
  30   2.0000      -0.844722       -22.9860
  31   2.0000      -0.813743       -22.1431
  32   2.0000      -0.780444       -21.2370
  33   2.0000      -0.764906       -20.8141
  34   2.0000      -0.709455       -19.3052
  35   2.0000      -0.703248       -19.1364
  36   2.0000      -0.690555       -18.7910
  37   2.0000      -0.654638       -17.8136
  38   2.0000      -0.642567       -17.4851
  39   2.0000      -0.621474       -16.9112
  40   2.0000      -0.597537       -16.2598
  41   2.0000      -0.565419       -15.3858
  42   2.0000      -0.559956       -15.2372
  43   2.0000      -0.554410       -15.0863
  44   2.0000      -0.538825       -14.6622
  45   2.0000      -0.521112       -14.1802
  46   2.0000      -0.516248       -14.0478
  47   2.0000      -0.510254       -13.8847
  48   2.0000      -0.502690       -13.6789
  49   2.0000      -0.497604       -13.5405
  50   2.0000      -0.483353       -13.1527
  51   2.0000      -0.478265       -13.0143
  52   2.0000      -0.470182       -12.7943
  53   2.0000      -0.465325       -12.6621
  54   2.0000      -0.457695       -12.4545
  55   2.0000      -0.445996       -12.1362
  56   2.0000      -0.442874       -12.0512
  57   2.0000      -0.437756       -11.9119
  58   2.0000      -0.433779       -11.8037
  59   2.0000      -0.426676       -11.6104
  60   2.0000      -0.420753       -11.4493
  61   2.0000      -0.414459       -11.2780
  62   2.0000      -0.406981       -11.0745
  63   2.0000      -0.340322        -9.2606
  64   2.0000      -0.329551        -8.9675
  65   2.0000      -0.317578        -8.6417
  66   2.0000      -0.300107        -8.1663
  67   0.0000       0.035605         0.9689
  68   0.0000       0.054598         1.4857
  69   0.0000       0.116996         3.1836
  70   0.0000       0.120092         3.2679
  71   0.0000       0.127040         3.4569

MULLIKEN ATOMIC CHARGES
-----------------------
   0 S :    0.090270
   1 C :   -0.138932
   2 C :   -0.078194
   3 C :    0.048780
   4 C :   -0.185713
   5 H :    0.036898
   6 C :    0.059473
   7 H :    0.031402
   8 H :    0.019159
   9 C :   -0.071191
  10 H :    0.030696
  11 H :    0.005595
  12 C :   -0.045110
  13 H :    0.025056
  14 H :    0.043122
  15 H :    0.027675
  16 S :    0.120799
  17 C :   -0.088651
  18 C :   -0.065958
  19 C :   -0.001751
  20 C :   -0.177687
  21 H :    0.041664
  22 C :    0.068053
  23 H :    0.021401
  24 H :    0.042457
  25 C :   -0.065699
  26 H :    0.035666
  27 H :    0.019511
  28 C :   -0.097309
  29 H :    0.055690
  30 H :    0.030836
  31 H :    0.037138
  32 H :    0.074436
  33 H :    0.050418
Sum of atomic charges:   -0.0000000

LOEWDIN ATOMIC CHARGES
----------------------
   0 S :    0.380065
   1 C :   -0.205332
   2 C :   -0.058155
   3 C :   -0.056049
   4 C :   -0.184264
   5 H :    0.041762
   6 C :   -0.040769
   7 H :    0.041747
   8 H :    0.027769
   9 C :   -0.039626
  10 H :    0.027887
  11 H :    0.012514
  12 C :   -0.064933
  13 H :    0.015706
  14 H :    0.033581
  15 H :    0.024050
  16 S :    0.418698
  17 C :   -0.184693
  18 C :   -0.084889
  19 C :   -0.051468
  20 C :   -0.210081
  21 H :    0.044188
  22 C :   -0.030352
  23 H :    0.024278
  24 H :    0.037695
  25 C :   -0.034508
  26 H :    0.026388
  27 H :    0.017381
  28 C :   -0.079060
  29 H :    0.032330
  30 H :    0.027388
  31 H :    0.028675
  32 H :    0.038345
  33 H :    0.023735

  Mayer bond orders larger than 0.100000
B(  0-S ,  1-C ) :   1.1140 B(  0-S ,  4-C ) :   1.1530 B(  1-C ,  2-C ) :   1.6210
B(  1-C , 32-H ) :   0.9677 B(  2-C ,  3-C ) :   1.1845 B(  2-C ,  6-C ) :   1.0237
B(  3-C ,  4-C ) :   1.6032 B(  3-C ,  5-H ) :   0.9864 B(  4-C , 20-C ) :   1.0161
B(  6-C ,  7-H ) :   0.9216 B(  6-C ,  8-H ) :   0.9533 B(  6-C ,  9-C ) :   1.0852
B(  9-C , 10-H ) :   0.9518 B(  9-C , 11-H ) :   0.9511 B(  9-C , 12-C ) :   1.0732
B( 12-C , 13-H ) :   0.9751 B( 12-C , 14-H ) :   0.9739 B( 12-C , 15-H ) :   0.9763
B( 16-S , 17-C ) :   1.1899 B( 16-S , 20-C ) :   1.1446 B( 17-C , 18-C ) :   1.5775
B( 17-C , 20-C ) :   0.1098 B( 17-C , 33-H ) :   0.9668 B( 18-C , 19-C ) :   1.2521
B( 18-C , 21-H ) :   0.9874 B( 19-C , 20-C ) :   1.5842 B( 19-C , 22-C ) :   1.0447
B( 22-C , 23-H ) :   0.9247 B( 22-C , 24-H ) :   0.9426 B( 22-C , 25-C ) :   1.0523
B( 25-C , 26-H ) :   0.9619 B( 25-C , 27-H ) :   0.9520 B( 25-C , 28-C ) :   1.0722
B( 28-C , 29-H ) :   0.9780 B( 28-C , 30-H ) :   0.9756 B( 28-C , 31-H ) :   0.9743

Dispersion correction           -0.014623863
FINAL SINGLE POINT ENERGY     -1339.869212821494

DIPOLE MOMENT
-------------
                                X             Y             Z
Electronic contribution:      9.98398      15.06407     -22.26678
Nuclear contribution   :    -10.47190     -15.21748      22.71313
                        -----------------------------------------
Total Dipole Moment    :     -0.48792      -0.15341       0.44635
                        -----------------------------------------
Magnitude (a.u.)       :      0.67885
Magnitude (Debye)      :      1.72549

Rotational constants in cm-1:     0.016622     0.009730     0.007305
Rotational constants in MHz :   498.323687   291.707407   218.992950

                             ****ORCA TERMINATED NORMALLY****
TOTAL RUN TIME: 0 days 0 hours 0 minutes 34 seconds 410 msec
