                         Program Version 4.2.1 -  RELEASE  -
|  1> ! wB97X-D3 SP def2-SVP
|  2> %pal
|  3> nprocs 16
|  4> end
|  5>
|  6> * xyz 0 1
|  7> S 	 26.905 	 10.6536 	 68.4875
|  8> C 	 26.0513 	 11.3311 	 67.125
|  9> C 	 24.6798 	 11.5607 	 67.4117
| 10> C 	 24.3602 	 11.2056 	 68.7037
| 11> C 	 25.4166 	 10.6508 	 69.4063
| 12> H 	 23.4099 	 11.2948 	 69.181
| 13> C 	 23.674 	 12.2476 	 66.4724
| 14> H 	 22.8559 	 11.6013 	 66.2514
| 15> H 	 24.2007 	 12.4691 	 65.5477
| 16> C 	 23.097 	 13.5978 	 66.8948
| 17> H 	 22.7218 	 13.5548 	 67.8901
| 18> H 	 23.8633 	 14.3223 	 66.9355
| 19> C 	 22.0489 	 14.0144 	 65.8404
| 20> H 	 22.4526 	 13.9645 	 64.8522
| 21> H 	 21.1119 	 13.4639 	 65.9332
| 22> H 	 21.7062 	 14.965 	 66.0501
| 23> S 	 25.3709 	 8.37446 	 70.9564
| 24> C 	 25.1069 	 8.43898 	 72.6611
| 25> C 	 25.2404 	 9.67842 	 73.0973
| 26> C 	 25.3114 	 10.6379 	 72.0435
| 27> C 	 25.4087 	 10.0721 	 70.7545
| 28> H 	 25.2642 	 9.9392 	 74.1389
| 29> C 	 25.3701 	 12.1321 	 72.3111
| 30> H 	 26.0537 	 12.5873 	 71.512
| 31> H 	 25.6949 	 12.3823 	 73.3319
| 32> C 	 23.9747 	 12.8278 	 72.1895
| 33> H 	 23.2021 	 12.521 	 72.9112
| 34> H 	 23.5757 	 12.7322 	 71.1717
| 35> C 	 24.0346 	 14.3599 	 72.3805
| 36> H 	 23.0158 	 14.7415 	 72.3743
| 37> H 	 24.5821 	 14.7856 	 71.5534
| 38> H 	 24.5055 	 14.7751 	 73.3425
| 39> H 	 26.4604 	 11.6315 	 66.1645
| 40> H 	 25.0894 	 7.57508 	 73.3099
| 41> *
| 42>
| 43>                          ****END OF INPUT****

CARTESIAN COORDINATES (ANGSTROEM)
---------------------------------
  S     26.905000   10.653600   68.487500
  C     26.051300   11.331100   67.125000
  C     24.679800   11.560700   67.411700
  C     24.360200   11.205600   68.703700
  C     25.416600   10.650800   69.406300
  H     23.409900   11.294800   69.181000
  C     23.674000   12.247600   66.472400
  H     22.855900   11.601300   66.251400
  H     24.200700   12.469100   65.547700
  C     23.097000   13.597800   66.894800
  H     22.721800   13.554800   67.890100
  H     23.863300   14.322300   66.935500
  C     22.048900   14.014400   65.840400
  H     22.452600   13.964500   64.852200
  H     21.111900   13.463900   65.933200
  H     21.706200   14.965000   66.050100
  S     25.370900    8.374460   70.956400
  C     25.106900    8.438980   72.661100
  C     25.240400    9.678420   73.097300
  C     25.311400   10.637900   72.043500
  C     25.408700   10.072100   70.754500
  H     25.264200    9.939200   74.138900
  C     25.370100   12.132100   72.311100
  H     26.053700   12.587300   71.512000
  H     25.694900   12.382300   73.331900
  C     23.974700   12.827800   72.189500
  H     23.202100   12.521000   72.911200
  H     23.575700   12.732200   71.171700
  C     24.034600   14.359900   72.380500
  H     23.015800   14.741500   72.374300
  H     24.582100   14.785600   71.553400
  H     24.505500   14.775100   73.342500
  H     26.460400   11.631500   66.164500
  H     25.089400    7.575080   73.309900

 Total Charge           Charge          ....    0
 Multiplicity           Mult            ....    1
 Number of Electrons    NEL             ....  134
 Basis Dimension        Dim             ....  322

ORBITAL ENERGIES
----------------

  NO   OCC          E(Eh)            E(eV)
   0   2.0000     -88.973283     -2421.0861
   1   2.0000     -88.959144     -2420.7014
   2   2.0000     -10.329996      -281.0935
   3   2.0000     -10.322618      -280.8927
   4   2.0000     -10.317876      -280.7637
   5   2.0000     -10.308433      -280.5067
   6   2.0000     -10.301400      -280.3153
   7   2.0000     -10.300442      -280.2893
   8   2.0000     -10.297143      -280.1995
   9   2.0000     -10.290506      -280.0189
  10   2.0000     -10.289170      -279.9826
  11   2.0000     -10.287035      -279.9244
  12   2.0000     -10.285095      -279.8717
  13   2.0000     -10.281334      -279.7693
  14   2.0000     -10.278202      -279.6841
  15   2.0000     -10.272587      -279.5313
  16   2.0000      -8.087621      -220.0754
  17   2.0000      -8.075336      -219.7411
  18   2.0000      -6.045922      -164.5179
  19   2.0000      -6.042154      -164.4154
  20   2.0000      -6.038651      -164.3200
  21   2.0000      -6.033788      -164.1877
  22   2.0000      -6.029517      -164.0715
  23   2.0000      -6.026172      -163.9805
  24   2.0000      -1.011978       -27.5373
  25   2.0000      -0.990798       -26.9610
  26   2.0000      -0.915345       -24.9078
  27   2.0000      -0.900840       -24.5131
  28   2.0000      -0.872946       -23.7541
  29   2.0000      -0.855978       -23.2923
  30   2.0000      -0.845460       -23.0061
  31   2.0000      -0.818395       -22.2697
  32   2.0000      -0.782873       -21.3031
  33   2.0000      -0.764570       -20.8050
  34   2.0000      -0.712064       -19.3762
  35   2.0000      -0.699267       -19.0280
  36   2.0000      -0.685581       -18.6556
  37   2.0000      -0.659369       -17.9423
  38   2.0000      -0.646379       -17.5889
  39   2.0000      -0.626214       -17.0402
  40   2.0000      -0.595898       -16.2152
  41   2.0000      -0.576051       -15.6752
  42   2.0000      -0.570692       -15.5293
  43   2.0000      -0.562683       -15.3114
  44   2.0000      -0.529183       -14.3998
  45   2.0000      -0.519421       -14.1342
  46   2.0000      -0.514963       -14.0128
  47   2.0000      -0.512337       -13.9414
  48   2.0000      -0.501331       -13.6419
  49   2.0000      -0.496723       -13.5165
  50   2.0000      -0.494036       -13.4434
  51   2.0000      -0.478462       -13.0196
  52   2.0000      -0.473449       -12.8832
  53   2.0000      -0.469202       -12.7676
  54   2.0000      -0.459267       -12.4973
  55   2.0000      -0.452118       -12.3028
  56   2.0000      -0.443149       -12.0587
  57   2.0000      -0.439149       -11.9498
  58   2.0000      -0.430304       -11.7092
  59   2.0000      -0.429126       -11.6771
  60   2.0000      -0.425406       -11.5759
  61   2.0000      -0.417569       -11.3626
  62   2.0000      -0.411569       -11.1994
  63   2.0000      -0.345118        -9.3911
  64   2.0000      -0.335510        -9.1297
  65   2.0000      -0.317050        -8.6274
  66   2.0000      -0.303500        -8.2586
  67   0.0000       0.040889         1.1126
  68   0.0000       0.058792         1.5998
  69   0.0000       0.117750         3.2041
  70   0.0000       0.121453         3.3049
  71   0.0000       0.131993         3.5917

MULLIKEN ATOMIC CHARGES
-----------------------
   0 S :    0.139486
   1 C :   -0.113437
   2 C :   -0.079285
   3 C :    0.061851
   4 C :   -0.197203
   5 H :    0.010363
   6 C :    0.064973
   7 H :    0.028973
   8 H :    0.007476
   9 C :   -0.052443
  10 H :    0.015757
  11 H :    0.016351
  12 C :   -0.011035
  13 H :    0.031109
  14 H :    0.028328
  15 H :    0.008238
  16 S :    0.108614
  17 C :   -0.076797
  18 C :   -0.015153
  19 C :   -0.031912
  20 C :   -0.162952
  21 H :    0.010709
  22 C :    0.053914
  23 H :    0.045787
  24 H :    0.020776
  25 C :   -0.090028
  26 H :    0.034356
  27 H :    0.023227
  28 C :   -0.074002
  29 H :    0.031991
  30 H :    0.029116
  31 H :    0.035845
  32 H :    0.042922
  33 H :    0.054086
Sum of atomic charges:    0.0000000

LOEWDIN ATOMIC CHARGES
----------------------
   0 S :    0.427214
   1 C :   -0.203382
   2 C :   -0.063236
   3 C :   -0.054488
   4 C :   -0.198748
   5 H :    0.030287
   6 C :   -0.026606
   7 H :    0.027382
   8 H :    0.027179
   9 C :   -0.028731
  10 H :    0.016257
  11 H :    0.018357
  12 C :   -0.053987
  13 H :    0.024290
  14 H :    0.028685
  15 H :    0.016665
  16 S :    0.431393
  17 C :   -0.187751
  18 C :   -0.075491
  19 C :   -0.056227
  20 C :   -0.226943
  21 H :    0.031205
  22 C :   -0.034610
  23 H :    0.041450
  24 H :    0.029478
  25 C :   -0.043149
  26 H :    0.024466
  27 H :    0.022502
  28 C :   -0.073763
  29 H :    0.024585
  30 H :    0.019681
  31 H :    0.027395
  32 H :    0.026972
  33 H :    0.031669

  Mayer bond orders larger than 0.100000
B(  0-S ,  1-C ) :   1.1576 B(  0-S ,  4-C ) :   1.1749 B(  1-C ,  2-C ) :   1.5768
B(  1-C ,  4-C ) :   0.1155 B(  1-C , 32-H ) :   0.9636 B(  2-C ,  3-C ) :   1.2748
B(  2-C ,  6-C ) :   1.0218 B(  3-C ,  4-C ) :   1.5596 B(  3-C ,  5-H ) :   0.9958
B(  4-C , 20-C ) :   0.9979 B(  6-C ,  7-H ) :   0.9422 B(  6-C ,  8-H ) :   0.9390
B(  6-C ,  9-C ) :   1.0668 B(  9-C , 10-H ) :   0.9547 B(  9-C , 11-H ) :   0.9541
B(  9-C , 12-C ) :   1.0857 B( 12-C , 13-H ) :   0.9750 B( 12-C , 14-H ) :   0.9728
B( 12-C , 15-H ) :   0.9693 B( 16-S , 17-C ) :   1.1684 B( 16-S , 20-C ) :   1.1622
B( 17-C , 18-C ) :   1.5939 B( 17-C , 33-H ) :   0.9644 B( 18-C , 19-C ) :   1.2678
B( 18-C , 21-H ) :   0.9948 B( 19-C , 20-C ) :   1.5709 B( 19-C , 22-C ) :   1.0533
B( 22-C , 23-H ) :   0.9339 B( 22-C , 24-H ) :   0.9391 B( 22-C , 25-C ) :   1.0610
B( 25-C , 26-H ) :   0.9604 B( 25-C , 27-H ) :   0.9513 B( 25-C , 28-C ) :   1.0813
B( 28-C , 29-H ) :   0.9752 B( 28-C , 30-H ) :   0.9765 B( 28-C , 31-H ) :   0.9743

Dispersion correction           -0.014202827
FINAL SINGLE POINT ENERGY     -1339.881315862056

DIPOLE MOMENT
-------------
                                X             Y             Z
Electronic contribution:     17.17858     -26.16099       3.23251
Nuclear contribution   :    -17.55666      26.67239      -3.17016
                        -----------------------------------------
Total Dipole Moment    :     -0.37808       0.51140       0.06235
                        -----------------------------------------
Magnitude (a.u.)       :      0.63903
Magnitude (Debye)      :      1.62429

Rotational constants in cm-1:     0.017734     0.008828     0.006848
Rotational constants in MHz :   531.658376   264.661255   205.283257

                             ****ORCA TERMINATED NORMALLY****
TOTAL RUN TIME: 0 days 0 hours 0 minutes 31 seconds 282 msec
