                         Program Version 4.2.1 -  RELEASE  -
|  1> ! wB97X-D3 SP def2-SVP
|  2> %pal
|  3> nprocs 16
|  4> end
|  5>
|  6> * xyz 0 1
|  7> S 	 -46.6312 	 52.6267 	 106.001
|  8> C 	 -45.5153 	 51.8634 	 104.899
|  9> C 	 -44.3697 	 52.6332 	 104.848
| 10> C 	 -44.4863 	 53.9117 	 105.518
| 11> C 	 -45.5695 	 53.9688 	 106.297
| 12> H 	 -43.6934 	 54.6409 	 105.664
| 13> C 	 -43.1084 	 52.3496 	 104.093
| 14> H 	 -43.3001 	 51.2871 	 103.711
| 15> H 	 -42.306 	 52.3044 	 104.808
| 16> C 	 -42.8489 	 53.1813 	 102.815
| 17> H 	 -42.4647 	 54.1568 	 103.093
| 18> H 	 -41.9817 	 52.817 	 102.276
| 19> C 	 -44.0923 	 53.2977 	 101.939
| 20> H 	 -44.9619 	 53.5461 	 102.556
| 21> H 	 -43.9684 	 54.0078 	 101.123
| 22> H 	 -44.31 	 52.2803 	 101.558
| 23> S 	 -46.6458 	 54.779 	 108.715
| 24> C 	 -46.811 	 56.5047 	 109.028
| 25> C 	 -46.3687 	 57.2485 	 108.015
| 26> C 	 -46.0453 	 56.4577 	 106.864
| 27> C 	 -45.9379 	 55.106 	 107.143
| 28> H 	 -46.3635 	 58.3038 	 108.105
| 29> C 	 -45.6188 	 57.1323 	 105.611
| 30> H 	 -44.9501 	 56.4628 	 105.18
| 31> H 	 -44.9962 	 57.9392 	 105.919
| 32> C 	 -46.6926 	 57.6145 	 104.613
| 33> H 	 -47.2134 	 56.7768 	 104.216
| 34> H 	 -46.2863 	 58.1083 	 103.755
| 35> C 	 -47.6341 	 58.6781 	 105.3
| 36> H 	 -48.5526 	 58.6751 	 104.708
| 37> H 	 -47.2267 	 59.7175 	 105.381
| 38> H 	 -48.0125 	 58.3724 	 106.349
| 39> H 	 -45.662 	 50.8715 	 104.484
| 40> H 	 -47.1928 	 56.945 	 109.949
| 41> *
| 42>
| 43>                          ****END OF INPUT****

CARTESIAN COORDINATES (ANGSTROEM)
---------------------------------
  S    -46.631200   52.626700  106.001000
  C    -45.515300   51.863400  104.899000
  C    -44.369700   52.633200  104.848000
  C    -44.486300   53.911700  105.518000
  C    -45.569500   53.968800  106.297000
  H    -43.693400   54.640900  105.664000
  C    -43.108400   52.349600  104.093000
  H    -43.300100   51.287100  103.711000
  H    -42.306000   52.304400  104.808000
  C    -42.848900   53.181300  102.815000
  H    -42.464700   54.156800  103.093000
  H    -41.981700   52.817000  102.276000
  C    -44.092300   53.297700  101.939000
  H    -44.961900   53.546100  102.556000
  H    -43.968400   54.007800  101.123000
  H    -44.310000   52.280300  101.558000
  S    -46.645800   54.779000  108.715000
  C    -46.811000   56.504700  109.028000
  C    -46.368700   57.248500  108.015000
  C    -46.045300   56.457700  106.864000
  C    -45.937900   55.106000  107.143000
  H    -46.363500   58.303800  108.105000
  C    -45.618800   57.132300  105.611000
  H    -44.950100   56.462800  105.180000
  H    -44.996200   57.939200  105.919000
  C    -46.692600   57.614500  104.613000
  H    -47.213400   56.776800  104.216000
  H    -46.286300   58.108300  103.755000
  C    -47.634100   58.678100  105.300000
  H    -48.552600   58.675100  104.708000
  H    -47.226700   59.717500  105.381000
  H    -48.012500   58.372400  106.349000
  H    -45.662000   50.871500  104.484000
  H    -47.192800   56.945000  109.949000

 Total Charge           Charge          ....    0
 Multiplicity           Mult            ....    1
 Number of Electrons    NEL             ....  134
 Basis Dimension        Dim             ....  322

ORBITAL ENERGIES
----------------

  NO   OCC          E(Eh)            E(eV)
   0   2.0000     -88.963525     -2420.8206
   1   2.0000     -88.962264     -2420.7863
   2   2.0000     -10.326181      -280.9897
   3   2.0000     -10.326048      -280.9861
   4   2.0000     -10.316361      -280.7224
   5   2.0000     -10.313646      -280.6486
   6   2.0000     -10.301918      -280.3294
   7   2.0000     -10.300473      -280.2901
   8   2.0000     -10.293807      -280.1087
   9   2.0000     -10.288855      -279.9740
  10   2.0000     -10.286146      -279.9003
  11   2.0000     -10.285974      -279.8956
  12   2.0000     -10.285672      -279.8874
  13   2.0000     -10.285511      -279.8830
  14   2.0000     -10.277328      -279.6603
  15   2.0000     -10.276433      -279.6360
  16   2.0000      -8.078882      -219.8376
  17   2.0000      -8.077104      -219.7892
  18   2.0000      -6.037486      -164.2883
  19   2.0000      -6.035696      -164.2396
  20   2.0000      -6.033251      -164.1731
  21   2.0000      -6.031689      -164.1306
  22   2.0000      -6.029534      -164.0719
  23   2.0000      -6.027686      -164.0217
  24   2.0000      -1.012642       -27.5554
  25   2.0000      -0.990118       -26.9425
  26   2.0000      -0.912873       -24.8405
  27   2.0000      -0.907606       -24.6972
  28   2.0000      -0.874789       -23.8042
  29   2.0000      -0.848516       -23.0893
  30   2.0000      -0.841098       -22.8874
  31   2.0000      -0.822794       -22.3894
  32   2.0000      -0.780530       -21.2393
  33   2.0000      -0.770547       -20.9677
  34   2.0000      -0.712947       -19.4003
  35   2.0000      -0.702427       -19.1140
  36   2.0000      -0.694037       -18.8857
  37   2.0000      -0.662554       -18.0290
  38   2.0000      -0.643066       -17.4987
  39   2.0000      -0.620922       -16.8961
  40   2.0000      -0.590757       -16.0753
  41   2.0000      -0.566867       -15.4252
  42   2.0000      -0.562544       -15.3076
  43   2.0000      -0.552566       -15.0361
  44   2.0000      -0.542801       -14.7704
  45   2.0000      -0.540643       -14.7116
  46   2.0000      -0.519076       -14.1248
  47   2.0000      -0.515187       -14.0190
  48   2.0000      -0.502429       -13.6718
  49   2.0000      -0.492603       -13.4044
  50   2.0000      -0.488666       -13.2973
  51   2.0000      -0.478415       -13.0183
  52   2.0000      -0.474359       -12.9080
  53   2.0000      -0.468137       -12.7386
  54   2.0000      -0.453181       -12.3317
  55   2.0000      -0.447808       -12.1855
  56   2.0000      -0.442334       -12.0365
  57   2.0000      -0.436440       -11.8761
  58   2.0000      -0.434996       -11.8368
  59   2.0000      -0.424498       -11.5512
  60   2.0000      -0.418170       -11.3790
  61   2.0000      -0.415955       -11.3187
  62   2.0000      -0.403959       -10.9923
  63   2.0000      -0.353618        -9.6224
  64   2.0000      -0.331181        -9.0119
  65   2.0000      -0.328128        -8.9288
  66   2.0000      -0.297212        -8.0875
  67   0.0000       0.033492         0.9114
  68   0.0000       0.076128         2.0716
  69   0.0000       0.111545         3.0353
  70   0.0000       0.119966         3.2644
  71   0.0000       0.128567         3.4985

MULLIKEN ATOMIC CHARGES
-----------------------
   0 S :    0.105908
   1 C :   -0.119239
   2 C :   -0.124604
   3 C :   -0.003111
   4 C :   -0.101093
   5 H :    0.032145
   6 C :    0.053593
   7 H :    0.016532
   8 H :    0.039584
   9 C :   -0.051667
  10 H :    0.012066
  11 H :    0.026805
  12 C :   -0.049719
  13 H :    0.051206
  14 H :    0.040252
  15 H :    0.023524
  16 S :    0.090352
  17 C :   -0.080366
  18 C :   -0.012418
  19 C :   -0.067710
  20 C :   -0.161636
  21 H :    0.011290
  22 C :    0.118304
  23 H :   -0.024248
  24 H :    0.010805
  25 C :   -0.005379
  26 H :    0.027636
  27 H :    0.025449
  28 C :   -0.124840
  29 H :    0.035486
  30 H :    0.046635
  31 H :    0.049313
  32 H :    0.055641
  33 H :    0.053505
Sum of atomic charges:    0.0000000

LOEWDIN ATOMIC CHARGES
----------------------
   0 S :    0.405732
   1 C :   -0.201618
   2 C :   -0.063389
   3 C :   -0.071530
   4 C :   -0.189081
   5 H :    0.035589
   6 C :   -0.034846
   7 H :    0.032721
   8 H :    0.030515
   9 C :   -0.042676
  10 H :    0.016019
  11 H :    0.024789
  12 C :   -0.063665
  13 H :    0.029874
  14 H :    0.026542
  15 H :    0.026129
  16 S :    0.386749
  17 C :   -0.172743
  18 C :   -0.069064
  19 C :   -0.047933
  20 C :   -0.194912
  21 H :    0.028461
  22 C :   -0.031338
  23 H :    0.017713
  24 H :    0.028586
  25 C :   -0.024506
  26 H :    0.023206
  27 H :    0.024560
  28 C :   -0.082104
  29 H :    0.026130
  30 H :    0.028239
  31 H :    0.033534
  32 H :    0.032087
  33 H :    0.032228

  Mayer bond orders larger than 0.100000
B(  0-S ,  1-C ) :   1.1209 B(  0-S ,  4-C ) :   1.1461 B(  1-C ,  2-C ) :   1.6224
B(  1-C , 32-H ) :   0.9687 B(  2-C ,  3-C ) :   1.1954 B(  2-C ,  6-C ) :   1.0327
B(  3-C ,  4-C ) :   1.6264 B(  3-C ,  5-H ) :   0.9861 B(  4-C , 20-C ) :   1.0265
B(  6-C ,  7-H ) :   0.9408 B(  6-C ,  8-H ) :   0.9414 B(  6-C ,  9-C ) :   1.0598
B(  9-C , 10-H ) :   0.9514 B(  9-C , 11-H ) :   0.9565 B(  9-C , 12-C ) :   1.0721
B( 12-C , 13-H ) :   0.9698 B( 12-C , 14-H ) :   0.9739 B( 12-C , 15-H ) :   0.9755
B( 16-S , 17-C ) :   1.1365 B( 16-S , 20-C ) :   1.1192 B( 17-C , 18-C ) :   1.6535
B( 17-C , 33-H ) :   0.9622 B( 18-C , 19-C ) :   1.1979 B( 18-C , 21-H ) :   0.9907
B( 19-C , 20-C ) :   1.6204 B( 19-C , 22-C ) :   1.0378 B( 22-C , 23-H ) :   0.9215
B( 22-C , 24-H ) :   0.9310 B( 22-C , 25-C ) :   1.0723 B( 25-C , 26-H ) :   0.9575
B( 25-C , 27-H ) :   0.9537 B( 25-C , 28-C ) :   1.0662 B( 28-C , 29-H ) :   0.9748
B( 28-C , 30-H ) :   0.9764 B( 28-C , 31-H ) :   0.9709

Dispersion correction           -0.015075925
FINAL SINGLE POINT ENERGY     -1339.877386523815

DIPOLE MOMENT
-------------
                                X             Y             Z
Electronic contribution:     -7.90081     -11.57711      21.78817
Nuclear contribution   :      8.27488      11.98538     -22.17085
                        -----------------------------------------
Total Dipole Moment    :      0.37406       0.40828      -0.38269
                        -----------------------------------------
Magnitude (a.u.)       :      0.67310
Magnitude (Debye)      :      1.71088

Rotational constants in cm-1:     0.019963     0.009210     0.007205
Rotational constants in MHz :   598.479111   276.100605   215.996946

                             ****ORCA TERMINATED NORMALLY****
TOTAL RUN TIME: 0 days 0 hours 0 minutes 32 seconds 157 msec
