                         Program Version 4.2.1 -  RELEASE  -
|  1> ! wB97X-D3 SP def2-SVP
|  2> %pal
|  3> nprocs 16
|  4> end
|  5>
|  6> * xyz 0 1
|  7> S 	 -46.6907 	 64.022 	 135.438
|  8> C 	 -46.9683 	 62.6161 	 134.367
|  9> C 	 -47.501 	 61.5966 	 135.119
| 10> C 	 -47.9027 	 61.9737 	 136.44
| 11> C 	 -47.4399 	 63.2009 	 136.805
| 12> H 	 -48.4148 	 61.3989 	 137.132
| 13> C 	 -47.7494 	 60.1532 	 134.609
| 14> H 	 -47.4933 	 60.1916 	 133.595
| 15> H 	 -48.7897 	 59.9814 	 134.76
| 16> C 	 -46.9243 	 59.0796 	 135.319
| 17> H 	 -45.8374 	 59.3662 	 135.373
| 18> H 	 -47.3307 	 58.8927 	 136.322
| 19> C 	 -46.9285 	 57.7537 	 134.525
| 20> H 	 -46.5589 	 56.97 	 135.074
| 21> H 	 -47.9541 	 57.3773 	 134.325
| 22> H 	 -46.4569 	 57.8647 	 133.592
| 23> S 	 -48.6503 	 65.2876 	 138.033
| 24> C 	 -48.4925 	 65.4709 	 139.782
| 25> C 	 -47.7498 	 64.4486 	 140.284
| 26> C 	 -47.256 	 63.5053 	 139.374
| 27> C 	 -47.6942 	 63.7893 	 138.107
| 28> H 	 -47.3907 	 64.5796 	 141.314
| 29> C 	 -46.234 	 62.4434 	 139.818
| 30> H 	 -45.495 	 62.8916 	 140.491
| 31> H 	 -45.7184 	 62.3759 	 138.887
| 32> C 	 -46.9348 	 61.1407 	 140.275
| 33> H 	 -47.8597 	 60.9938 	 139.667
| 34> H 	 -47.4502 	 61.3798 	 141.193
| 35> C 	 -46.1289 	 59.857 	 140.554
| 36> H 	 -46.6401 	 59.0191 	 140.971
| 37> H 	 -45.285 	 60.1002 	 141.237
| 38> H 	 -45.6973 	 59.4842 	 139.676
| 39> H 	 -46.6014 	 62.4349 	 133.348
| 40> H 	 -48.6816 	 66.2334 	 140.477
| 41> *
| 42>
| 43>                          ****END OF INPUT****

CARTESIAN COORDINATES (ANGSTROEM)
---------------------------------
  S    -46.690700   64.022000  135.438000
  C    -46.968300   62.616100  134.367000
  C    -47.501000   61.596600  135.119000
  C    -47.902700   61.973700  136.440000
  C    -47.439900   63.200900  136.805000
  H    -48.414800   61.398900  137.132000
  C    -47.749400   60.153200  134.609000
  H    -47.493300   60.191600  133.595000
  H    -48.789700   59.981400  134.760000
  C    -46.924300   59.079600  135.319000
  H    -45.837400   59.366200  135.373000
  H    -47.330700   58.892700  136.322000
  C    -46.928500   57.753700  134.525000
  H    -46.558900   56.970000  135.074000
  H    -47.954100   57.377300  134.325000
  H    -46.456900   57.864700  133.592000
  S    -48.650300   65.287600  138.033000
  C    -48.492500   65.470900  139.782000
  C    -47.749800   64.448600  140.284000
  C    -47.256000   63.505300  139.374000
  C    -47.694200   63.789300  138.107000
  H    -47.390700   64.579600  141.314000
  C    -46.234000   62.443400  139.818000
  H    -45.495000   62.891600  140.491000
  H    -45.718400   62.375900  138.887000
  C    -46.934800   61.140700  140.275000
  H    -47.859700   60.993800  139.667000
  H    -47.450200   61.379800  141.193000
  C    -46.128900   59.857000  140.554000
  H    -46.640100   59.019100  140.971000
  H    -45.285000   60.100200  141.237000
  H    -45.697300   59.484200  139.676000
  H    -46.601400   62.434900  133.348000
  H    -48.681600   66.233400  140.477000

 Total Charge           Charge          ....    0
 Multiplicity           Mult            ....    1
 Number of Electrons    NEL             ....  134
 Basis Dimension        Dim             ....  322

ORBITAL ENERGIES
----------------

  NO   OCC          E(Eh)            E(eV)
   0   2.0000     -88.966841     -2420.9108
   1   2.0000     -88.966190     -2420.8931
   2   2.0000     -10.327374      -281.0221
   3   2.0000     -10.327073      -281.0139
   4   2.0000     -10.317477      -280.7528
   5   2.0000     -10.309254      -280.5291
   6   2.0000     -10.301406      -280.3155
   7   2.0000     -10.300055      -280.2788
   8   2.0000     -10.294601      -280.1303
   9   2.0000     -10.292319      -280.0682
  10   2.0000     -10.291208      -280.0380
  11   2.0000     -10.286986      -279.9231
  12   2.0000     -10.286116      -279.8994
  13   2.0000     -10.284622      -279.8588
  14   2.0000     -10.276154      -279.6284
  15   2.0000     -10.270519      -279.4750
  16   2.0000      -8.080568      -219.8834
  17   2.0000      -8.080087      -219.8703
  18   2.0000      -6.039298      -164.3377
  19   2.0000      -6.038750      -164.3227
  20   2.0000      -6.035273      -164.2281
  21   2.0000      -6.034744      -164.2137
  22   2.0000      -6.031066      -164.1137
  23   2.0000      -6.030668      -164.1028
  24   2.0000      -1.007177       -27.4067
  25   2.0000      -0.983202       -26.7543
  26   2.0000      -0.911377       -24.7998
  27   2.0000      -0.904925       -24.6243
  28   2.0000      -0.872625       -23.7453
  29   2.0000      -0.851724       -23.1766
  30   2.0000      -0.845709       -23.0129
  31   2.0000      -0.819501       -22.2997
  32   2.0000      -0.786138       -21.3919
  33   2.0000      -0.776973       -21.1425
  34   2.0000      -0.713659       -19.4196
  35   2.0000      -0.705703       -19.2031
  36   2.0000      -0.697177       -18.9712
  37   2.0000      -0.659860       -17.9557
  38   2.0000      -0.643545       -17.5117
  39   2.0000      -0.620050       -16.8724
  40   2.0000      -0.588361       -16.0101
  41   2.0000      -0.576410       -15.6849
  42   2.0000      -0.562422       -15.3043
  43   2.0000      -0.553631       -15.0651
  44   2.0000      -0.528975       -14.3941
  45   2.0000      -0.523128       -14.2350
  46   2.0000      -0.520614       -14.1666
  47   2.0000      -0.512631       -13.9494
  48   2.0000      -0.510412       -13.8890
  49   2.0000      -0.501651       -13.6506
  50   2.0000      -0.499858       -13.6018
  51   2.0000      -0.480950       -13.0873
  52   2.0000      -0.473280       -12.8786
  53   2.0000      -0.469538       -12.7768
  54   2.0000      -0.458433       -12.4746
  55   2.0000      -0.445433       -12.1208
  56   2.0000      -0.445272       -12.1165
  57   2.0000      -0.436818       -11.8864
  58   2.0000      -0.435705       -11.8561
  59   2.0000      -0.427735       -11.6393
  60   2.0000      -0.423486       -11.5236
  61   2.0000      -0.411775       -11.2050
  62   2.0000      -0.408888       -11.1264
  63   2.0000      -0.341607        -9.2956
  64   2.0000      -0.334514        -9.1026
  65   2.0000      -0.327218        -8.9041
  66   2.0000      -0.302442        -8.2299
  67   0.0000       0.032401         0.8817
  68   0.0000       0.068188         1.8555
  69   0.0000       0.110767         3.0141
  70   0.0000       0.122632         3.3370
  71   0.0000       0.130436         3.5493

MULLIKEN ATOMIC CHARGES
-----------------------
   0 S :    0.105819
   1 C :   -0.128182
   2 C :   -0.110523
   3 C :    0.066545
   4 C :   -0.143875
   5 H :   -0.016714
   6 C :    0.127718
   7 H :   -0.007906
   8 H :    0.029724
   9 C :   -0.105310
  10 H :    0.043767
  11 H :    0.033151
  12 C :   -0.007904
  13 H :    0.014392
  14 H :    0.015210
  15 H :    0.025960
  16 S :    0.109726
  17 C :   -0.048855
  18 C :   -0.068493
  19 C :   -0.044621
  20 C :   -0.201432
  21 H :    0.021934
  22 C :    0.115707
  23 H :    0.030687
  24 H :    0.018918
  25 C :   -0.080911
  26 H :    0.026740
  27 H :    0.013710
  28 C :    0.001016
  29 H :    0.029964
  30 H :    0.029338
  31 H :    0.017514
  32 H :    0.056847
  33 H :    0.030338
Sum of atomic charges:   -0.0000000

LOEWDIN ATOMIC CHARGES
----------------------
   0 S :    0.381389
   1 C :   -0.197077
   2 C :   -0.056557
   3 C :   -0.050612
   4 C :   -0.191940
   5 H :    0.018997
   6 C :   -0.020212
   7 H :    0.018463
   8 H :    0.030317
   9 C :   -0.038521
  10 H :    0.032162
  11 H :    0.023657
  12 C :   -0.057771
  13 H :    0.015157
  14 H :    0.026795
  15 H :    0.018845
  16 S :    0.393408
  17 C :   -0.180891
  18 C :   -0.078477
  19 C :   -0.053945
  20 C :   -0.183840
  21 H :    0.033104
  22 C :   -0.022073
  23 H :    0.032991
  24 H :    0.028221
  25 C :   -0.047699
  26 H :    0.028099
  27 H :    0.023333
  28 C :   -0.062101
  29 H :    0.026026
  30 H :    0.031580
  31 H :    0.016728
  32 H :    0.036638
  33 H :    0.025806

  Mayer bond orders larger than 0.100000
B(  0-S ,  1-C ) :   1.1073 B(  0-S ,  4-C ) :   1.1335 B(  1-C ,  2-C ) :   1.6556
B(  1-C , 32-H ) :   0.9601 B(  2-C ,  3-C ) :   1.2008 B(  2-C ,  6-C ) :   1.0229
B(  3-C ,  4-C ) :   1.6023 B(  3-C ,  5-H ) :   1.0041 B(  4-C , 20-C ) :   1.0267
B(  6-C ,  7-H ) :   0.9385 B(  6-C ,  8-H ) :   0.9346 B(  6-C ,  9-C ) :   1.0686
B(  9-C , 10-H ) :   0.9584 B(  9-C , 11-H ) :   0.9525 B(  9-C , 12-C ) :   1.0915
B( 12-C , 13-H ) :   0.9728 B( 12-C , 14-H ) :   0.9699 B( 12-C , 15-H ) :   0.9761
B( 16-S , 17-C ) :   1.1267 B( 16-S , 20-C ) :   1.1377 B( 17-C , 18-C ) :   1.6644
B( 17-C , 33-H ) :   0.9637 B( 18-C , 19-C ) :   1.2349 B( 18-C , 21-H ) :   0.9732
B( 19-C , 20-C ) :   1.6287 B( 19-C , 22-C ) :   1.0148 B( 22-C , 23-H ) :   0.9417
B( 22-C , 24-H ) :   0.9298 B( 22-C , 25-C ) :   1.0430 B( 25-C , 26-H ) :   0.9541
B( 25-C , 27-H ) :   0.9513 B( 25-C , 28-C ) :   1.0766 B( 28-C , 29-H ) :   0.9737
B( 28-C , 30-H ) :   0.9712 B( 28-C , 31-H ) :   0.9761

Dispersion correction           -0.014188349
FINAL SINGLE POINT ENERGY     -1339.859997204341

DIPOLE MOMENT
-------------
                                X             Y             Z
Electronic contribution:     -6.15501      31.40472      -4.88838
Nuclear contribution   :      6.37978     -32.10481       5.15214
                        -----------------------------------------
Total Dipole Moment    :      0.22477      -0.70008       0.26376
                        -----------------------------------------
Magnitude (a.u.)       :      0.78116
Magnitude (Debye)      :      1.98555

Rotational constants in cm-1:     0.017112     0.009387     0.006576
Rotational constants in MHz :   513.000258   281.401700   197.148015

                             ****ORCA TERMINATED NORMALLY****
TOTAL RUN TIME: 0 days 0 hours 0 minutes 33 seconds 408 msec
