                         Program Version 4.2.1 -  RELEASE  -
|  1> ! wB97X-D3 SP def2-SVP
|  2> %pal
|  3> nprocs 16
|  4> end
|  5>
|  6> * xyz 0 1
|  7> S 	 -49.0114 	 66.414 	 126.401
|  8> C 	 -47.9816 	 64.9851 	 126.409
|  9> C 	 -47.5324 	 64.7152 	 127.679
| 10> C 	 -48.1316 	 65.5854 	 128.649
| 11> C 	 -48.8537 	 66.6383 	 128.097
| 12> H 	 -48.0268 	 65.4977 	 129.708
| 13> C 	 -46.7151 	 63.5376 	 128.143
| 14> H 	 -46.9723 	 63.3376 	 129.228
| 15> H 	 -45.6945 	 63.8572 	 128.173
| 16> C 	 -46.9015 	 62.3196 	 127.302
| 17> H 	 -47.9752 	 62.1227 	 126.968
| 18> H 	 -46.2624 	 62.4279 	 126.353
| 19> C 	 -46.5087 	 61.1054 	 128.024
| 20> H 	 -46.3854 	 60.2969 	 127.305
| 21> H 	 -45.5342 	 61.0925 	 128.459
| 22> H 	 -47.2854 	 60.9652 	 128.785
| 23> S 	 -49.3139 	 69.324 	 128.384
| 24> C 	 -50.5854 	 69.8359 	 129.414
| 25> C 	 -51.0962 	 68.8077 	 130.171
| 26> C 	 -50.5872 	 67.5398 	 129.74
| 27> C 	 -49.6465 	 67.6594 	 128.74
| 28> H 	 -51.8013 	 68.9553 	 131.016
| 29> C 	 -50.9702 	 66.1993 	 130.327
| 30> H 	 -51.3402 	 66.3104 	 131.367
| 31> H 	 -50.133 	 65.5289 	 130.529
| 32> C 	 -52.0153 	 65.3916 	 129.509
| 33> H 	 -51.7455 	 65.1766 	 128.48
| 34> H 	 -52.7442 	 66.175 	 129.331
| 35> C 	 -52.602 	 64.1527 	 130.223
| 36> H 	 -53.0994 	 63.5129 	 129.462
| 37> H 	 -53.3406 	 64.297 	 131.036
| 38> H 	 -51.8356 	 63.474 	 130.655
| 39> H 	 -47.6825 	 64.4495 	 125.522
| 40> H 	 -50.8389 	 70.872 	 129.54
| 41> *
| 42>
| 43>                          ****END OF INPUT****

CARTESIAN COORDINATES (ANGSTROEM)
---------------------------------
  S    -49.011400   66.414000  126.401000
  C    -47.981600   64.985100  126.409000
  C    -47.532400   64.715200  127.679000
  C    -48.131600   65.585400  128.649000
  C    -48.853700   66.638300  128.097000
  H    -48.026800   65.497700  129.708000
  C    -46.715100   63.537600  128.143000
  H    -46.972300   63.337600  129.228000
  H    -45.694500   63.857200  128.173000
  C    -46.901500   62.319600  127.302000
  H    -47.975200   62.122700  126.968000
  H    -46.262400   62.427900  126.353000
  C    -46.508700   61.105400  128.024000
  H    -46.385400   60.296900  127.305000
  H    -45.534200   61.092500  128.459000
  H    -47.285400   60.965200  128.785000
  S    -49.313900   69.324000  128.384000
  C    -50.585400   69.835900  129.414000
  C    -51.096200   68.807700  130.171000
  C    -50.587200   67.539800  129.740000
  C    -49.646500   67.659400  128.740000
  H    -51.801300   68.955300  131.016000
  C    -50.970200   66.199300  130.327000
  H    -51.340200   66.310400  131.367000
  H    -50.133000   65.528900  130.529000
  C    -52.015300   65.391600  129.509000
  H    -51.745500   65.176600  128.480000
  H    -52.744200   66.175000  129.331000
  C    -52.602000   64.152700  130.223000
  H    -53.099400   63.512900  129.462000
  H    -53.340600   64.297000  131.036000
  H    -51.835600   63.474000  130.655000
  H    -47.682500   64.449500  125.522000
  H    -50.838900   70.872000  129.540000

 Total Charge           Charge          ....    0
 Multiplicity           Mult            ....    1
 Number of Electrons    NEL             ....  134
 Basis Dimension        Dim             ....  322

ORBITAL ENERGIES
----------------

  NO   OCC          E(Eh)            E(eV)
   0   2.0000     -88.965155     -2420.8649
   1   2.0000     -88.962954     -2420.8051
   2   2.0000     -10.323482      -280.9162
   3   2.0000     -10.320157      -280.8257
   4   2.0000     -10.313597      -280.6473
   5   2.0000     -10.311383      -280.5870
   6   2.0000     -10.301382      -280.3148
   7   2.0000     -10.297897      -280.2200
   8   2.0000     -10.297360      -280.2054
   9   2.0000     -10.291991      -280.0593
  10   2.0000     -10.290785      -280.0265
  11   2.0000     -10.290687      -280.0238
  12   2.0000     -10.290547      -280.0200
  13   2.0000     -10.283939      -279.8402
  14   2.0000     -10.283095      -279.8172
  15   2.0000     -10.272806      -279.5373
  16   2.0000      -8.080992      -219.8950
  17   2.0000      -8.078075      -219.8156
  18   2.0000      -6.039360      -164.3393
  19   2.0000      -6.036555      -164.2630
  20   2.0000      -6.035360      -164.2305
  21   2.0000      -6.032396      -164.1498
  22   2.0000      -6.031826      -164.1343
  23   2.0000      -6.028968      -164.0566
  24   2.0000      -1.011960       -27.5368
  25   2.0000      -0.987794       -26.8793
  26   2.0000      -0.924856       -25.1666
  27   2.0000      -0.903365       -24.5818
  28   2.0000      -0.873774       -23.7766
  29   2.0000      -0.851072       -23.1588
  30   2.0000      -0.846798       -23.0425
  31   2.0000      -0.812671       -22.1139
  32   2.0000      -0.784151       -21.3378
  33   2.0000      -0.771369       -20.9900
  34   2.0000      -0.707380       -19.2488
  35   2.0000      -0.700272       -19.0554
  36   2.0000      -0.687382       -18.7046
  37   2.0000      -0.663572       -18.0567
  38   2.0000      -0.641601       -17.4589
  39   2.0000      -0.616454       -16.7746
  40   2.0000      -0.600353       -16.3364
  41   2.0000      -0.581582       -15.8256
  42   2.0000      -0.568183       -15.4611
  43   2.0000      -0.550730       -14.9861
  44   2.0000      -0.528796       -14.3893
  45   2.0000      -0.519642       -14.1402
  46   2.0000      -0.517004       -14.0684
  47   2.0000      -0.511662       -13.9230
  48   2.0000      -0.507524       -13.8104
  49   2.0000      -0.500737       -13.6257
  50   2.0000      -0.491518       -13.3749
  51   2.0000      -0.482974       -13.1424
  52   2.0000      -0.475594       -12.9416
  53   2.0000      -0.460686       -12.5359
  54   2.0000      -0.456928       -12.4337
  55   2.0000      -0.455121       -12.3845
  56   2.0000      -0.447521       -12.1777
  57   2.0000      -0.431955       -11.7541
  58   2.0000      -0.430051       -11.7023
  59   2.0000      -0.425438       -11.5768
  60   2.0000      -0.420319       -11.4375
  61   2.0000      -0.414551       -11.2805
  62   2.0000      -0.402951       -10.9649
  63   2.0000      -0.339252        -9.2315
  64   2.0000      -0.332774        -9.0552
  65   2.0000      -0.327203        -8.9036
  66   2.0000      -0.296970        -8.0810
  67   0.0000       0.035361         0.9622
  68   0.0000       0.070993         1.9318
  69   0.0000       0.113065         3.0767
  70   0.0000       0.120417         3.2767
  71   0.0000       0.135241         3.6801

MULLIKEN ATOMIC CHARGES
-----------------------
   0 S :    0.113550
   1 C :   -0.131520
   2 C :   -0.077220
   3 C :    0.021127
   4 C :   -0.142622
   5 H :    0.007095
   6 C :    0.084130
   7 H :    0.025775
   8 H :    0.037765
   9 C :   -0.135447
  10 H :    0.048682
  11 H :    0.036073
  12 C :   -0.017530
  13 H :    0.024084
  14 H :    0.016575
  15 H :    0.039425
  16 S :    0.124656
  17 C :   -0.087964
  18 C :   -0.041417
  19 C :   -0.024008
  20 C :   -0.169902
  21 H :    0.033241
  22 C :    0.053750
  23 H :    0.015108
  24 H :    0.009540
  25 C :   -0.048931
  26 H :    0.032125
  27 H :    0.016997
  28 C :   -0.067269
  29 H :    0.035579
  30 H :    0.040222
  31 H :    0.030138
  32 H :    0.044799
  33 H :    0.053394
Sum of atomic charges:    0.0000000

LOEWDIN ATOMIC CHARGES
----------------------
   0 S :    0.418976
   1 C :   -0.197428
   2 C :   -0.061346
   3 C :   -0.058495
   4 C :   -0.206067
   5 H :    0.024231
   6 C :   -0.034299
   7 H :    0.034582
   8 H :    0.035557
   9 C :   -0.055716
  10 H :    0.034734
  11 H :    0.028556
  12 C :   -0.065003
  13 H :    0.028042
  14 H :    0.019354
  15 H :    0.029242
  16 S :    0.431213
  17 C :   -0.192478
  18 C :   -0.073220
  19 C :   -0.056413
  20 C :   -0.211356
  21 H :    0.039359
  22 C :   -0.036513
  23 H :    0.031522
  24 H :    0.022695
  25 C :   -0.042336
  26 H :    0.026270
  27 H :    0.024338
  28 C :   -0.076305
  29 H :    0.032154
  30 H :    0.027529
  31 H :    0.026415
  32 H :    0.026116
  33 H :    0.026091

  Mayer bond orders larger than 0.100000
B(  0-S ,  1-C ) :   1.1352 B(  0-S ,  4-C ) :   1.1700 B(  1-C ,  2-C ) :   1.6096
B(  1-C ,  4-C ) :   0.1012 B(  1-C , 32-H ) :   0.9694 B(  2-C ,  3-C ) :   1.2482
B(  2-C ,  6-C ) :   1.0083 B(  3-C ,  4-C ) :   1.5704 B(  3-C ,  5-H ) :   0.9979
B(  4-C , 20-C ) :   1.0136 B(  6-C ,  7-H ) :   0.9528 B(  6-C ,  8-H ) :   0.9119
B(  6-C ,  9-C ) :   1.0753 B(  9-C , 10-H ) :   0.9614 B(  9-C , 11-H ) :   0.9381
B(  9-C , 12-C ) :   1.0977 B( 12-C , 13-H ) :   0.9678 B( 12-C , 14-H ) :   0.9679
B( 12-C , 15-H ) :   0.9750 B( 16-S , 17-C ) :   1.1718 B( 16-S , 20-C ) :   1.1565
B( 17-C , 18-C ) :   1.5847 B( 17-C , 33-H ) :   0.9704 B( 18-C , 19-C ) :   1.2549
B( 18-C , 21-H ) :   0.9878 B( 19-C , 20-C ) :   1.5913 B( 19-C , 22-C ) :   1.0534
B( 22-C , 23-H ) :   0.9347 B( 22-C , 24-H ) :   0.9334 B( 22-C , 25-C ) :   1.0467
B( 25-C , 26-H ) :   0.9595 B( 25-C , 27-H ) :   0.9524 B( 25-C , 28-C ) :   1.0715
B( 28-C , 29-H ) :   0.9746 B( 28-C , 30-H ) :   0.9764 B( 28-C , 31-H ) :   0.9751

Dispersion correction           -0.014289767
FINAL SINGLE POINT ENERGY     -1339.885040692046

DIPOLE MOMENT
-------------
                                X             Y             Z
Electronic contribution:      1.85602      28.99239      -9.42674
Nuclear contribution   :     -1.78772     -29.50965       9.83193
                        -----------------------------------------
Total Dipole Moment    :      0.06830      -0.51726       0.40518
                        -----------------------------------------
Magnitude (a.u.)       :      0.66060
Magnitude (Debye)      :      1.67911

Rotational constants in cm-1:     0.020107     0.008391     0.006678
Rotational constants in MHz :   602.777932   251.552106   200.201738

                             ****ORCA TERMINATED NORMALLY****
TOTAL RUN TIME: 0 days 0 hours 0 minutes 35 seconds 411 msec
