                         Program Version 4.2.1 -  RELEASE  -
|  1> ! wB97X-D3 SP def2-SVP
|  2> %pal
|  3> nprocs 16
|  4> end
|  5>
|  6> * xyz 0 1
|  7> S 	 36.1451 	 27.4133 	 56.0165
|  8> C 	 36.839 	 28.9048 	 55.6526
|  9> C 	 36.7344 	 29.8676 	 56.6337
| 10> C 	 35.9796 	 29.4305 	 57.7543
| 11> C 	 35.5811 	 28.107 	 57.5429
| 12> H 	 35.5986 	 29.918 	 58.5628
| 13> C 	 37.1788 	 31.2975 	 56.4745
| 14> H 	 38.0331 	 31.1851 	 55.8136
| 15> H 	 37.5966 	 31.7705 	 57.3972
| 16> C 	 36.155 	 32.2662 	 55.8874
| 17> H 	 35.5765 	 31.8411 	 55.1493
| 18> H 	 35.2582 	 32.5441 	 56.5151
| 19> C 	 36.7615 	 33.5043 	 55.3327
| 20> H 	 37.3646 	 34.0132 	 56.0498
| 21> H 	 37.356 	 33.2631 	 54.4212
| 22> H 	 35.9957 	 34.0474 	 54.8309
| 23> S 	 33.1846 	 26.9408 	 57.4921
| 24> C 	 32.3687 	 26.3478 	 58.8898
| 25> C 	 33.2078 	 26.5295 	 59.9756
| 26> C 	 34.5674 	 27.0211 	 59.7215
| 27> C 	 34.649 	 27.3733 	 58.3452
| 28> H 	 32.8706 	 26.1781 	 60.9825
| 29> C 	 35.5 	 27.2126 	 60.895
| 30> H 	 34.9217 	 26.864 	 61.7362
| 31> H 	 35.6813 	 28.2982 	 60.9957
| 32> C 	 36.8171 	 26.4624 	 60.8108
| 33> H 	 37.266 	 26.6527 	 59.8562
| 34> H 	 36.6774 	 25.3661 	 60.9925
| 35> C 	 37.6998 	 26.8898 	 62.0358
| 36> H 	 38.7905 	 26.8704 	 61.69
| 37> H 	 37.4499 	 26.2906 	 62.9378
| 38> H 	 37.5907 	 27.8688 	 62.4398
| 39> H 	 37.1323 	 29.1793 	 54.5938
| 40> H 	 31.3415 	 26.1383 	 58.9896
| 41> *
| 42>
| 43>                          ****END OF INPUT****

CARTESIAN COORDINATES (ANGSTROEM)
---------------------------------
  S     36.145100   27.413300   56.016500
  C     36.839000   28.904800   55.652600
  C     36.734400   29.867600   56.633700
  C     35.979600   29.430500   57.754300
  C     35.581100   28.107000   57.542900
  H     35.598600   29.918000   58.562800
  C     37.178800   31.297500   56.474500
  H     38.033100   31.185100   55.813600
  H     37.596600   31.770500   57.397200
  C     36.155000   32.266200   55.887400
  H     35.576500   31.841100   55.149300
  H     35.258200   32.544100   56.515100
  C     36.761500   33.504300   55.332700
  H     37.364600   34.013200   56.049800
  H     37.356000   33.263100   54.421200
  H     35.995700   34.047400   54.830900
  S     33.184600   26.940800   57.492100
  C     32.368700   26.347800   58.889800
  C     33.207800   26.529500   59.975600
  C     34.567400   27.021100   59.721500
  C     34.649000   27.373300   58.345200
  H     32.870600   26.178100   60.982500
  C     35.500000   27.212600   60.895000
  H     34.921700   26.864000   61.736200
  H     35.681300   28.298200   60.995700
  C     36.817100   26.462400   60.810800
  H     37.266000   26.652700   59.856200
  H     36.677400   25.366100   60.992500
  C     37.699800   26.889800   62.035800
  H     38.790500   26.870400   61.690000
  H     37.449900   26.290600   62.937800
  H     37.590700   27.868800   62.439800
  H     37.132300   29.179300   54.593800
  H     31.341500   26.138300   58.989600

 Total Charge           Charge          ....    0
 Multiplicity           Mult            ....    1
 Number of Electrons    NEL             ....  134
 Basis Dimension        Dim             ....  322

ORBITAL ENERGIES
----------------

  NO   OCC          E(Eh)            E(eV)
   0   2.0000     -88.969200     -2420.9750
   1   2.0000     -88.961883     -2420.7759
   2   2.0000     -10.326631      -281.0019
   3   2.0000     -10.325879      -280.9814
   4   2.0000     -10.310986      -280.5762
   5   2.0000     -10.310966      -280.5756
   6   2.0000     -10.307976      -280.4943
   7   2.0000     -10.298859      -280.2462
   8   2.0000     -10.296322      -280.1772
   9   2.0000     -10.291953      -280.0583
  10   2.0000     -10.291698      -280.0513
  11   2.0000     -10.289865      -280.0015
  12   2.0000     -10.287578      -279.9392
  13   2.0000     -10.281472      -279.7731
  14   2.0000     -10.277569      -279.6669
  15   2.0000     -10.271897      -279.5125
  16   2.0000      -8.084843      -219.9998
  17   2.0000      -8.077158      -219.7906
  18   2.0000      -6.043014      -164.4388
  19   2.0000      -6.039341      -164.3388
  20   2.0000      -6.035778      -164.2419
  21   2.0000      -6.035694      -164.2396
  22   2.0000      -6.031354      -164.1215
  23   2.0000      -6.028065      -164.0320
  24   2.0000      -1.009940       -27.4819
  25   2.0000      -0.983991       -26.7758
  26   2.0000      -0.916437       -24.9375
  27   2.0000      -0.909664       -24.7532
  28   2.0000      -0.872637       -23.7457
  29   2.0000      -0.861525       -23.4433
  30   2.0000      -0.843927       -22.9644
  31   2.0000      -0.813928       -22.1481
  32   2.0000      -0.778216       -21.1763
  33   2.0000      -0.766285       -20.8517
  34   2.0000      -0.709850       -19.3160
  35   2.0000      -0.702821       -19.1247
  36   2.0000      -0.690840       -18.7987
  37   2.0000      -0.663464       -18.0538
  38   2.0000      -0.646114       -17.5816
  39   2.0000      -0.619098       -16.8465
  40   2.0000      -0.591681       -16.1004
  41   2.0000      -0.576156       -15.6780
  42   2.0000      -0.569342       -15.4926
  43   2.0000      -0.546493       -14.8708
  44   2.0000      -0.534460       -14.5434
  45   2.0000      -0.522000       -14.2043
  46   2.0000      -0.517524       -14.0825
  47   2.0000      -0.508399       -13.8343
  48   2.0000      -0.506283       -13.7767
  49   2.0000      -0.498694       -13.5702
  50   2.0000      -0.491177       -13.3656
  51   2.0000      -0.485780       -13.2187
  52   2.0000      -0.480358       -13.0712
  53   2.0000      -0.465006       -12.6535
  54   2.0000      -0.458034       -12.4637
  55   2.0000      -0.448509       -12.2046
  56   2.0000      -0.445460       -12.1216
  57   2.0000      -0.439955       -11.9718
  58   2.0000      -0.428903       -11.6711
  59   2.0000      -0.424925       -11.5628
  60   2.0000      -0.419107       -11.4045
  61   2.0000      -0.407858       -11.0984
  62   2.0000      -0.404389       -11.0040
  63   2.0000      -0.346319        -9.4238
  64   2.0000      -0.329527        -8.9669
  65   2.0000      -0.324504        -8.8302
  66   2.0000      -0.290729        -7.9112
  67   0.0000       0.030055         0.8178
  68   0.0000       0.065945         1.7944
  69   0.0000       0.116120         3.1598
  70   0.0000       0.119561         3.2534
  71   0.0000       0.132912         3.6167

MULLIKEN ATOMIC CHARGES
-----------------------
   0 S :    0.135278
   1 C :   -0.138339
   2 C :   -0.076080
   3 C :    0.086861
   4 C :   -0.188560
   5 H :   -0.021920
   6 C :    0.065261
   7 H :    0.016489
   8 H :    0.031327
   9 C :   -0.045663
  10 H :   -0.009588
  11 H :    0.022896
  12 C :   -0.019808
  13 H :    0.034545
  14 H :    0.019521
  15 H :    0.019688
  16 S :    0.105586
  17 C :   -0.067300
  18 C :   -0.083206
  19 C :   -0.026770
  20 C :   -0.179778
  21 H :    0.030066
  22 C :    0.079507
  23 H :    0.008464
  24 H :    0.039595
  25 C :   -0.072886
  26 H :    0.044489
  27 H :    0.045574
  28 C :   -0.072406
  29 H :    0.049883
  30 H :    0.036553
  31 H :    0.014448
  32 H :    0.067443
  33 H :    0.048830
Sum of atomic charges:   -0.0000000

LOEWDIN ATOMIC CHARGES
----------------------
   0 S :    0.429236
   1 C :   -0.230520
   2 C :   -0.064067
   3 C :   -0.037816
   4 C :   -0.192712
   5 H :    0.019068
   6 C :   -0.033622
   7 H :    0.030682
   8 H :    0.034963
   9 C :   -0.049269
  10 H :    0.012958
  11 H :    0.030778
  12 C :   -0.060171
  13 H :    0.020728
  14 H :    0.028105
  15 H :    0.026207
  16 S :    0.421479
  17 C :   -0.200572
  18 C :   -0.077653
  19 C :   -0.055239
  20 C :   -0.207680
  21 H :    0.030646
  22 C :   -0.032859
  23 H :    0.028696
  24 H :    0.035620
  25 C :   -0.034991
  26 H :    0.023372
  27 H :    0.035136
  28 C :   -0.077304
  29 H :    0.038231
  30 H :    0.029646
  31 H :    0.014355
  32 H :    0.038530
  33 H :    0.026039

  Mayer bond orders larger than 0.100000
B(  0-S ,  1-C ) :   1.1506 B(  0-S ,  4-C ) :   1.1591 B(  1-C ,  2-C ) :   1.6154
B(  1-C , 32-H ) :   0.9517 B(  2-C ,  3-C ) :   1.2283 B(  2-C ,  6-C ) :   1.0324
B(  3-C ,  4-C ) :   1.5646 B(  3-C ,  5-H ) :   1.0135 B(  4-C , 20-C ) :   1.0492
B(  6-C ,  7-H ) :   0.9406 B(  6-C ,  8-H ) :   0.9377 B(  6-C ,  9-C ) :   1.0545
B(  9-C , 10-H ) :   0.9455 B(  9-C , 11-H ) :   0.9450 B(  9-C , 12-C ) :   1.1045
B( 12-C , 13-H ) :   0.9758 B( 12-C , 14-H ) :   0.9700 B( 12-C , 15-H ) :   0.9656
B( 16-S , 17-C ) :   1.1509 B( 16-S , 20-C ) :   1.1646 B( 17-C , 18-C ) :   1.6104
B( 17-C , 33-H ) :   0.9715 B( 18-C , 19-C ) :   1.2579 B( 18-C , 21-H ) :   0.9712
B( 19-C , 20-C ) :   1.5464 B( 19-C , 22-C ) :   1.0406 B( 22-C , 23-H ) :   0.9265
B( 22-C , 24-H ) :   0.9338 B( 22-C , 25-C ) :   1.0716 B( 25-C , 26-H ) :   0.9666
B( 25-C , 27-H ) :   0.9554 B( 25-C , 28-C ) :   1.0596 B( 28-C , 29-H ) :   0.9765
B( 28-C , 30-H ) :   0.9780 B( 28-C , 31-H ) :   0.9762

Dispersion correction           -0.013590265
FINAL SINGLE POINT ENERGY     -1339.852026733611

DIPOLE MOMENT
-------------
                                X             Y             Z
Electronic contribution:    -12.98919     -16.84596     -10.63123
Nuclear contribution   :     12.94583      17.29802      10.91448
                        -----------------------------------------
Total Dipole Moment    :     -0.04336       0.45206       0.28325
                        -----------------------------------------
Magnitude (a.u.)       :      0.53523
Magnitude (Debye)      :      1.36045

Rotational constants in cm-1:     0.018182     0.007918     0.006673
Rotational constants in MHz :   545.089194   237.361944   200.040125

                             ****ORCA TERMINATED NORMALLY****
TOTAL RUN TIME: 0 days 0 hours 0 minutes 33 seconds 627 msec
