                         Program Version 4.2.1 -  RELEASE  -
|  1> ! wB97X-D3 SP def2-SVP
|  2> %pal
|  3> nprocs 16
|  4> end
|  5>
|  6> * xyz 0 1
|  7> S 	 -80.4578 	 42.7143 	 127.907
|  8> C 	 -81.6567 	 41.5841 	 127.45
|  9> C 	 -82.8385 	 41.8418 	 128.244
| 10> C 	 -82.5414 	 42.798 	 129.279
| 11> C 	 -81.2901 	 43.3466 	 129.257
| 12> H 	 -83.2524 	 43.2033 	 130.012
| 13> C 	 -84.1608 	 41.138 	 128.018
| 14> H 	 -84.326 	 40.5523 	 128.832
| 15> H 	 -84.0548 	 40.4628 	 127.206
| 16> C 	 -85.4175 	 42.0106 	 127.824
| 17> H 	 -85.6433 	 42.6567 	 128.689
| 18> H 	 -85.2949 	 42.586 	 126.918
| 19> C 	 -86.6988 	 41.1532 	 127.6
| 20> H 	 -86.5302 	 40.5537 	 126.734
| 21> H 	 -86.9615 	 40.5859 	 128.48
| 22> H 	 -87.5305 	 41.8095 	 127.197
| 23> S 	 -80.4543 	 45.9931 	 129.276
| 24> C 	 -79.9091 	 46.6771 	 130.793
| 25> C 	 -79.9918 	 45.7621 	 131.807
| 26> C 	 -80.4975 	 44.4824 	 131.416
| 27> C 	 -80.7971 	 44.4408 	 130.067
| 28> H 	 -79.7323 	 46.0502 	 132.814
| 29> C 	 -80.7782 	 43.4319 	 132.418
| 30> H 	 -79.956 	 43.166 	 133.091
| 31> H 	 -80.8702 	 42.4645 	 131.876
| 32> C 	 -81.8871 	 43.8103 	 133.391
| 33> H 	 -82.7795 	 44.0366 	 132.975
| 34> H 	 -81.6252 	 44.716 	 133.893
| 35> C 	 -82.1499 	 42.6622 	 134.363
| 36> H 	 -82.7576 	 41.8712 	 133.911
| 37> H 	 -82.6748 	 43.0105 	 135.26
| 38> H 	 -81.2259 	 42.3199 	 134.759
| 39> H 	 -81.6523 	 40.852 	 126.735
| 40> H 	 -79.4741 	 47.6764 	 130.919
| 41> *
| 42>
| 43>                          ****END OF INPUT****

CARTESIAN COORDINATES (ANGSTROEM)
---------------------------------
  S    -80.457800   42.714300  127.907000
  C    -81.656700   41.584100  127.450000
  C    -82.838500   41.841800  128.244000
  C    -82.541400   42.798000  129.279000
  C    -81.290100   43.346600  129.257000
  H    -83.252400   43.203300  130.012000
  C    -84.160800   41.138000  128.018000
  H    -84.326000   40.552300  128.832000
  H    -84.054800   40.462800  127.206000
  C    -85.417500   42.010600  127.824000
  H    -85.643300   42.656700  128.689000
  H    -85.294900   42.586000  126.918000
  C    -86.698800   41.153200  127.600000
  H    -86.530200   40.553700  126.734000
  H    -86.961500   40.585900  128.480000
  H    -87.530500   41.809500  127.197000
  S    -80.454300   45.993100  129.276000
  C    -79.909100   46.677100  130.793000
  C    -79.991800   45.762100  131.807000
  C    -80.497500   44.482400  131.416000
  C    -80.797100   44.440800  130.067000
  H    -79.732300   46.050200  132.814000
  C    -80.778200   43.431900  132.418000
  H    -79.956000   43.166000  133.091000
  H    -80.870200   42.464500  131.876000
  C    -81.887100   43.810300  133.391000
  H    -82.779500   44.036600  132.975000
  H    -81.625200   44.716000  133.893000
  C    -82.149900   42.662200  134.363000
  H    -82.757600   41.871200  133.911000
  H    -82.674800   43.010500  135.260000
  H    -81.225900   42.319900  134.759000
  H    -81.652300   40.852000  126.735000
  H    -79.474100   47.676400  130.919000

 Total Charge           Charge          ....    0
 Multiplicity           Mult            ....    1
 Number of Electrons    NEL             ....  134
 Basis Dimension        Dim             ....  322

ORBITAL ENERGIES
----------------

  NO   OCC          E(Eh)            E(eV)
   0   2.0000     -88.965089     -2420.8631
   1   2.0000     -88.964814     -2420.8557
   2   2.0000     -10.326694      -281.0036
   3   2.0000     -10.321860      -280.8721
   4   2.0000     -10.317566      -280.7552
   5   2.0000     -10.311517      -280.5906
   6   2.0000     -10.306317      -280.4491
   7   2.0000     -10.300620      -280.2941
   8   2.0000     -10.292513      -280.0735
   9   2.0000     -10.290355      -280.0148
  10   2.0000     -10.288180      -279.9556
  11   2.0000     -10.288048      -279.9520
  12   2.0000     -10.282616      -279.8042
  13   2.0000     -10.280328      -279.7420
  14   2.0000     -10.274257      -279.5768
  15   2.0000     -10.274168      -279.5743
  16   2.0000      -8.080840      -219.8908
  17   2.0000      -8.079229      -219.8470
  18   2.0000      -6.039190      -164.3347
  19   2.0000      -6.037822      -164.2975
  20   2.0000      -6.034955      -164.2195
  21   2.0000      -6.033800      -164.1880
  22   2.0000      -6.031927      -164.1371
  23   2.0000      -6.029909      -164.0822
  24   2.0000      -1.009813       -27.4784
  25   2.0000      -0.985594       -26.8194
  26   2.0000      -0.916248       -24.9324
  27   2.0000      -0.911811       -24.8116
  28   2.0000      -0.871485       -23.7143
  29   2.0000      -0.853148       -23.2153
  30   2.0000      -0.845556       -23.0088
  31   2.0000      -0.817265       -22.2389
  32   2.0000      -0.782542       -21.2941
  33   2.0000      -0.770602       -20.9692
  34   2.0000      -0.712112       -19.3776
  35   2.0000      -0.704800       -19.1786
  36   2.0000      -0.695941       -18.9375
  37   2.0000      -0.659539       -17.9470
  38   2.0000      -0.647754       -17.6263
  39   2.0000      -0.617578       -16.8051
  40   2.0000      -0.601603       -16.3704
  41   2.0000      -0.577230       -15.7072
  42   2.0000      -0.571550       -15.5527
  43   2.0000      -0.566126       -15.4051
  44   2.0000      -0.527975       -14.3669
  45   2.0000      -0.523006       -14.2317
  46   2.0000      -0.520609       -14.1665
  47   2.0000      -0.513452       -13.9717
  48   2.0000      -0.507240       -13.8027
  49   2.0000      -0.504656       -13.7324
  50   2.0000      -0.499329       -13.5874
  51   2.0000      -0.474829       -12.9208
  52   2.0000      -0.468685       -12.7536
  53   2.0000      -0.462179       -12.5765
  54   2.0000      -0.460518       -12.5313
  55   2.0000      -0.448441       -12.2027
  56   2.0000      -0.444533       -12.0963
  57   2.0000      -0.438408       -11.9297
  58   2.0000      -0.434808       -11.8317
  59   2.0000      -0.427373       -11.6294
  60   2.0000      -0.423147       -11.5144
  61   2.0000      -0.417925       -11.3723
  62   2.0000      -0.413641       -11.2557
  63   2.0000      -0.342492        -9.3197
  64   2.0000      -0.329925        -8.9777
  65   2.0000      -0.323684        -8.8079
  66   2.0000      -0.297778        -8.1029
  67   0.0000       0.039720         1.0808
  68   0.0000       0.062642         1.7046
  69   0.0000       0.121357         3.3023
  70   0.0000       0.124446         3.3864
  71   0.0000       0.129120         3.5135

MULLIKEN ATOMIC CHARGES
-----------------------
   0 S :    0.130292
   1 C :   -0.070524
   2 C :   -0.127368
   3 C :    0.032217
   4 C :   -0.172041
   5 H :    0.015830
   6 C :    0.141593
   7 H :    0.004111
   8 H :   -0.005299
   9 C :   -0.098173
  10 H :    0.040290
  11 H :    0.031020
  12 C :   -0.061133
  13 H :    0.018421
  14 H :    0.042658
  15 H :    0.040812
  16 S :    0.109415
  17 C :   -0.099241
  18 C :   -0.030283
  19 C :    0.008477
  20 C :   -0.174640
  21 H :    0.013813
  22 C :    0.046467
  23 H :    0.016286
  24 H :    0.032549
  25 C :   -0.022808
  26 H :   -0.004064
  27 H :    0.013525
  28 C :   -0.029996
  29 H :    0.042907
  30 H :    0.025487
  31 H :    0.012125
  32 H :    0.011941
  33 H :    0.065334
Sum of atomic charges:   -0.0000000

LOEWDIN ATOMIC CHARGES
----------------------
   0 S :    0.450637
   1 C :   -0.203314
   2 C :   -0.052926
   3 C :   -0.067094
   4 C :   -0.221374
   5 H :    0.032943
   6 C :   -0.026590
   7 H :    0.019354
   8 H :    0.025035
   9 C :   -0.034977
  10 H :    0.025309
  11 H :    0.023735
  12 C :   -0.066931
  13 H :    0.018633
  14 H :    0.022767
  15 H :    0.036044
  16 S :    0.393038
  17 C :   -0.184888
  18 C :   -0.070456
  19 C :   -0.051440
  20 C :   -0.191612
  21 H :    0.028990
  22 C :   -0.038097
  23 H :    0.032162
  24 H :    0.035895
  25 C :   -0.026804
  26 H :    0.008009
  27 H :    0.022028
  28 C :   -0.057943
  29 H :    0.029308
  30 H :    0.027150
  31 H :    0.016529
  32 H :    0.010980
  33 H :    0.035900

  Mayer bond orders larger than 0.100000
B(  0-S ,  1-C ) :   1.1711 B(  0-S ,  4-C ) :   1.1712 B(  1-C ,  2-C ) :   1.5424
B(  1-C ,  4-C ) :   0.1058 B(  1-C , 32-H ) :   0.9834 B(  2-C ,  3-C ) :   1.2732
B(  2-C ,  6-C ) :   1.0355 B(  3-C ,  4-C ) :   1.5506 B(  3-C ,  5-H ) :   0.9912
B(  4-C , 20-C ) :   1.0263 B(  6-C ,  7-H ) :   0.9288 B(  6-C ,  8-H ) :   0.9335
B(  6-C ,  9-C ) :   1.0643 B(  9-C , 10-H ) :   0.9566 B(  9-C , 11-H ) :   0.9580
B(  9-C , 12-C ) :   1.0867 B( 12-C , 13-H ) :   0.9739 B( 12-C , 14-H ) :   0.9772
B( 12-C , 15-H ) :   0.9740 B( 16-S , 17-C ) :   1.1449 B( 16-S , 20-C ) :   1.1331
B( 17-C , 18-C ) :   1.6280 B( 17-C , 33-H ) :   0.9634 B( 18-C , 19-C ) :   1.2189
B( 18-C , 21-H ) :   0.9904 B( 19-C , 20-C ) :   1.6141 B( 19-C , 22-C ) :   1.0694
B( 22-C , 23-H ) :   0.9262 B( 22-C , 24-H ) :   0.9299 B( 22-C , 25-C ) :   1.0518
B( 25-C , 26-H ) :   0.9514 B( 25-C , 27-H ) :   0.9500 B( 25-C , 28-C ) :   1.0912
B( 28-C , 29-H ) :   0.9771 B( 28-C , 30-H ) :   0.9719 B( 28-C , 31-H ) :   0.9711

Dispersion correction           -0.013596023
FINAL SINGLE POINT ENERGY     -1339.871706408156

DIPOLE MOMENT
-------------
                                X             Y             Z
Electronic contribution:     21.88516      12.98065     -13.14844
Nuclear contribution   :    -22.33805     -13.16898      13.56189
                        -----------------------------------------
Total Dipole Moment    :     -0.45289      -0.18833       0.41344
                        -----------------------------------------
Magnitude (a.u.)       :      0.64149
Magnitude (Debye)      :      1.63054

Rotational constants in cm-1:     0.017033     0.008257     0.006596
Rotational constants in MHz :   510.627312   247.536006   197.752742

                             ****ORCA TERMINATED NORMALLY****
TOTAL RUN TIME: 0 days 0 hours 0 minutes 30 seconds 793 msec
