                         Program Version 4.2.1 -  RELEASE  -
|  1> ! wB97X-D3 SP def2-SVP
|  2> %pal
|  3> nprocs 16
|  4> end
|  5>
|  6> * xyz 0 1
|  7> S 	 6.88241 	 -13.2703 	 77.2997
|  8> C 	 5.35367 	 -12.4336 	 77.7
|  9> C 	 4.77251 	 -11.9308 	 76.5921
| 10> C 	 5.61966 	 -12.0115 	 75.4556
| 11> C 	 6.86321 	 -12.5745 	 75.729
| 12> H 	 5.47871 	 -11.5844 	 74.4949
| 13> C 	 3.37193 	 -11.3273 	 76.5119
| 14> H 	 2.7942 	 -12.2366 	 76.1411
| 15> H 	 3.38758 	 -10.4872 	 75.8157
| 16> C 	 2.70108 	 -10.8308 	 77.8328
| 17> H 	 2.39248 	 -11.6559 	 78.4939
| 18> H 	 3.54594 	 -10.2476 	 78.2852
| 19> C 	 1.40898 	 -10.1339 	 77.6221
| 20> H 	 0.77934 	 -10.8281 	 77.1011
| 21> H 	 0.783822 	 -9.90751 	 78.4846
| 22> H 	 1.49973 	 -9.28517 	 77.025
| 23> S 	 8.72336 	 -11.6709 	 73.95
| 24> C 	 9.95821 	 -12.6619 	 73.2591
| 25> C 	 9.78347 	 -13.9783 	 73.6848
| 26> C 	 8.61209 	 -14.1287 	 74.558
| 27> C 	 7.95114 	 -12.9262 	 74.8153
| 28> H 	 10.4312 	 -14.7335 	 73.215
| 29> C 	 8.15028 	 -15.5402 	 75.0438
| 30> H 	 7.73687 	 -15.5122 	 76.0599
| 31> H 	 8.97235 	 -16.2183 	 74.9944
| 32> C 	 7.24972 	 -16.1836 	 74.058
| 33> H 	 7.62087 	 -16.4193 	 73.0581
| 34> H 	 6.44148 	 -15.5077 	 73.824
| 35> C 	 6.65918 	 -17.4716 	 74.6946
| 36> H 	 7.36348 	 -18.3059 	 74.5986
| 37> H 	 5.91926 	 -17.7447 	 73.9719
| 38> H 	 6.2959 	 -17.2879 	 75.7709
| 39> H 	 4.98155 	 -12.3209 	 78.6987
| 40> H 	 10.6522 	 -12.1962 	 72.5798
| 41> *
| 42>
| 43>                          ****END OF INPUT****

CARTESIAN COORDINATES (ANGSTROEM)
---------------------------------
  S      6.882410  -13.270300   77.299700
  C      5.353670  -12.433600   77.700000
  C      4.772510  -11.930800   76.592100
  C      5.619660  -12.011500   75.455600
  C      6.863210  -12.574500   75.729000
  H      5.478710  -11.584400   74.494900
  C      3.371930  -11.327300   76.511900
  H      2.794200  -12.236600   76.141100
  H      3.387580  -10.487200   75.815700
  C      2.701080  -10.830800   77.832800
  H      2.392480  -11.655900   78.493900
  H      3.545940  -10.247600   78.285200
  C      1.408980  -10.133900   77.622100
  H      0.779340  -10.828100   77.101100
  H      0.783822   -9.907510   78.484600
  H      1.499730   -9.285170   77.025000
  S      8.723360  -11.670900   73.950000
  C      9.958210  -12.661900   73.259100
  C      9.783470  -13.978300   73.684800
  C      8.612090  -14.128700   74.558000
  C      7.951140  -12.926200   74.815300
  H     10.431200  -14.733500   73.215000
  C      8.150280  -15.540200   75.043800
  H      7.736870  -15.512200   76.059900
  H      8.972350  -16.218300   74.994400
  C      7.249720  -16.183600   74.058000
  H      7.620870  -16.419300   73.058100
  H      6.441480  -15.507700   73.824000
  C      6.659180  -17.471600   74.694600
  H      7.363480  -18.305900   74.598600
  H      5.919260  -17.744700   73.971900
  H      6.295900  -17.287900   75.770900
  H      4.981550  -12.320900   78.698700
  H     10.652200  -12.196200   72.579800

 Total Charge           Charge          ....    0
 Multiplicity           Mult            ....    1
 Number of Electrons    NEL             ....  134
 Basis Dimension        Dim             ....  322

ORBITAL ENERGIES
----------------

  NO   OCC          E(Eh)            E(eV)
   0   2.0000     -88.964227     -2420.8397
   1   2.0000     -88.960083     -2420.7269
   2   2.0000     -10.330078      -281.0957
   3   2.0000     -10.324730      -280.9502
   4   2.0000     -10.317057      -280.7414
   5   2.0000     -10.310569      -280.5648
   6   2.0000     -10.308402      -280.5059
   7   2.0000     -10.302580      -280.3475
   8   2.0000     -10.301484      -280.3176
   9   2.0000     -10.301231      -280.3108
  10   2.0000     -10.293111      -280.0898
  11   2.0000     -10.292907      -280.0842
  12   2.0000     -10.284483      -279.8550
  13   2.0000     -10.278461      -279.6911
  14   2.0000     -10.275830      -279.6196
  15   2.0000     -10.272163      -279.5198
  16   2.0000      -8.078968      -219.8399
  17   2.0000      -8.076209      -219.7648
  18   2.0000      -6.037492      -164.2885
  19   2.0000      -6.034578      -164.2092
  20   2.0000      -6.033582      -164.1821
  21   2.0000      -6.030292      -164.0926
  22   2.0000      -6.029599      -164.0737
  23   2.0000      -6.027268      -164.0103
  24   2.0000      -1.010136       -27.4872
  25   2.0000      -0.986894       -26.8548
  26   2.0000      -0.916349       -24.9351
  27   2.0000      -0.911896       -24.8139
  28   2.0000      -0.875238       -23.8164
  29   2.0000      -0.851335       -23.1660
  30   2.0000      -0.840341       -22.8668
  31   2.0000      -0.815327       -22.1862
  32   2.0000      -0.784061       -21.3354
  33   2.0000      -0.771062       -20.9817
  34   2.0000      -0.709740       -19.3130
  35   2.0000      -0.696027       -18.9399
  36   2.0000      -0.688276       -18.7289
  37   2.0000      -0.664124       -18.0717
  38   2.0000      -0.641023       -17.4431
  39   2.0000      -0.611895       -16.6505
  40   2.0000      -0.594771       -16.1845
  41   2.0000      -0.583773       -15.8853
  42   2.0000      -0.570980       -15.5372
  43   2.0000      -0.566510       -15.4155
  44   2.0000      -0.528568       -14.3831
  45   2.0000      -0.526134       -14.3168
  46   2.0000      -0.518945       -14.1212
  47   2.0000      -0.511584       -13.9209
  48   2.0000      -0.508584       -13.8393
  49   2.0000      -0.504368       -13.7246
  50   2.0000      -0.491722       -13.3804
  51   2.0000      -0.479715       -13.0537
  52   2.0000      -0.473258       -12.8780
  53   2.0000      -0.468554       -12.7500
  54   2.0000      -0.459430       -12.5017
  55   2.0000      -0.452037       -12.3005
  56   2.0000      -0.448036       -12.1917
  57   2.0000      -0.434396       -11.8205
  58   2.0000      -0.430568       -11.7164
  59   2.0000      -0.427876       -11.6431
  60   2.0000      -0.410563       -11.1720
  61   2.0000      -0.406311       -11.0563
  62   2.0000      -0.401400       -10.9227
  63   2.0000      -0.348894        -9.4939
  64   2.0000      -0.330773        -9.0008
  65   2.0000      -0.324907        -8.8412
  66   2.0000      -0.294127        -8.0036
  67   0.0000       0.033209         0.9037
  68   0.0000       0.072792         1.9808
  69   0.0000       0.105096         2.8598
  70   0.0000       0.131240         3.5712
  71   0.0000       0.132582         3.6078

MULLIKEN ATOMIC CHARGES
-----------------------
   0 S :    0.098144
   1 C :   -0.134866
   2 C :   -0.058324
   3 C :    0.032355
   4 C :   -0.127043
   5 H :   -0.000493
   6 C :    0.035867
   7 H :    0.058537
   8 H :    0.036321
   9 C :   -0.110126
  10 H :    0.034608
  11 H :    0.041728
  12 C :    0.006444
  13 H :    0.011787
  14 H :    0.034188
  15 H :    0.015537
  16 S :    0.097264
  17 C :   -0.109500
  18 C :   -0.032552
  19 C :   -0.071758
  20 C :   -0.150215
  21 H :    0.034996
  22 C :    0.104693
  23 H :    0.030196
  24 H :    0.003884
  25 C :   -0.089481
  26 H :    0.023095
  27 H :    0.017696
  28 C :   -0.049772
  29 H :    0.028402
  30 H :    0.023835
  31 H :    0.057161
  32 H :    0.043465
  33 H :    0.063927
Sum of atomic charges:   -0.0000000

LOEWDIN ATOMIC CHARGES
----------------------
   0 S :    0.411846
   1 C :   -0.184866
   2 C :   -0.065404
   3 C :   -0.060100
   4 C :   -0.192460
   5 H :    0.025747
   6 C :   -0.030521
   7 H :    0.047415
   8 H :    0.030212
   9 C :   -0.050351
  10 H :    0.028091
  11 H :    0.027030
  12 C :   -0.060693
  13 H :    0.026679
  14 H :    0.031171
  15 H :    0.014884
  16 S :    0.431338
  17 C :   -0.192715
  18 C :   -0.075736
  19 C :   -0.058203
  20 C :   -0.222793
  21 H :    0.037226
  22 C :   -0.033656
  23 H :    0.020116
  24 H :    0.027143
  25 C :   -0.042658
  26 H :    0.024410
  27 H :    0.017656
  28 C :   -0.067266
  29 H :    0.022998
  30 H :    0.023607
  31 H :    0.037533
  32 H :    0.024659
  33 H :    0.027662

  Mayer bond orders larger than 0.100000
B(  0-S ,  1-C ) :   1.1159 B(  0-S ,  4-C ) :   1.1626 B(  1-C ,  2-C ) :   1.6337
B(  1-C , 32-H ) :   0.9701 B(  2-C ,  3-C ) :   1.2244 B(  2-C ,  6-C ) :   1.0017
B(  3-C ,  4-C ) :   1.5797 B(  3-C ,  5-H ) :   1.0007 B(  4-C , 20-C ) :   1.0102
B(  6-C ,  7-H ) :   0.9255 B(  6-C ,  8-H ) :   0.9510 B(  6-C ,  9-C ) :   1.0720
B(  9-C , 10-H ) :   0.9478 B(  9-C , 11-H ) :   0.9583 B(  9-C , 12-C ) :   1.0888
B( 12-C , 13-H ) :   0.9647 B( 12-C , 14-H ) :   0.9713 B( 12-C , 15-H ) :   0.9736
B( 16-S , 17-C ) :   1.1792 B( 16-S , 20-C ) :   1.1594 B( 17-C , 18-C ) :   1.5708
B( 17-C , 33-H ) :   0.9736 B( 18-C , 19-C ) :   1.2517 B( 18-C , 21-H ) :   0.9904
B( 19-C , 20-C ) :   1.5763 B( 19-C , 22-C ) :   1.0411 B( 22-C , 23-H ) :   0.9378
B( 22-C , 24-H ) :   0.9254 B( 22-C , 25-C ) :   1.0660 B( 25-C , 26-H ) :   0.9512
B( 25-C , 27-H ) :   0.9560 B( 25-C , 28-C ) :   1.0788 B( 28-C , 29-H ) :   0.9743
B( 28-C , 30-H ) :   0.9725 B( 28-C , 31-H ) :   0.9730

Dispersion correction           -0.013732357
FINAL SINGLE POINT ENERGY     -1339.863349905412

DIPOLE MOMENT
-------------
                                X             Y             Z
Electronic contribution:     20.50190       7.83848      -2.35294
Nuclear contribution   :    -20.97727      -7.97074       2.14979
                        -----------------------------------------
Total Dipole Moment    :     -0.47537      -0.13225      -0.20315
                        -----------------------------------------
Magnitude (a.u.)       :      0.53361
Magnitude (Debye)      :      1.35633

Rotational constants in cm-1:     0.021490     0.007332     0.006163
Rotational constants in MHz :   644.240744   219.793120   184.760978

                             ****ORCA TERMINATED NORMALLY****
TOTAL RUN TIME: 0 days 0 hours 0 minutes 29 seconds 444 msec
