                         Program Version 4.2.1 -  RELEASE  -
|  1> ! wB97X-D3 SP def2-SVP
|  2> %pal
|  3> nprocs 16
|  4> end
|  5>
|  6> * xyz 0 1
|  7> S 	 -1.02876 	 -4.62206 	 86.237
|  8> C 	 0.225695 	 -5.77178 	 86.5486
|  9> C 	 0.205597 	 -6.23115 	 87.8279
| 10> C 	 -0.838008 	 -5.68713 	 88.6091
| 11> C 	 -1.63099 	 -4.81795 	 87.8928
| 12> H 	 -1.27259 	 -5.9283 	 89.6016
| 13> C 	 1.19109 	 -7.14386 	 88.3643
| 14> H 	 2.14694 	 -6.63986 	 88.2883
| 15> H 	 1.2257 	 -8.05295 	 87.7663
| 16> C 	 1.01571 	 -7.71533 	 89.7536
| 17> H 	 1.9694 	 -8.06193 	 90.0839
| 18> H 	 0.889809 	 -6.81665 	 90.2984
| 19> C 	 -0.164037 	 -8.73661 	 89.8428
| 20> H 	 -0.21342 	 -9.49718 	 89.1873
| 21> H 	 -0.326717 	 -8.89826 	 90.8843
| 22> H 	 -1.08703 	 -8.19097 	 89.5336
| 23> S 	 -4.24773 	 -4.63563 	 87.1222
| 24> C 	 -5.52257 	 -4.0005 	 88.153
| 25> C 	 -4.98415 	 -3.65383 	 89.343
| 26> C 	 -3.56145 	 -3.79723 	 89.4666
| 27> C 	 -2.96418 	 -4.25554 	 88.2664
| 28> H 	 -5.65683 	 -3.18309 	 89.9916
| 29> C 	 -2.73974 	 -3.43239 	 90.6337
| 30> H 	 -2.99372 	 -2.40189 	 90.9995
| 31> H 	 -1.75058 	 -3.33415 	 90.388
| 32> C 	 -2.70178 	 -4.34764 	 91.8564
| 33> H 	 -1.75183 	 -4.26978 	 92.3011
| 34> H 	 -2.65472 	 -5.36715 	 91.5169
| 35> C 	 -3.77394 	 -4.00954 	 92.8613
| 36> H 	 -3.78294 	 -2.95666 	 93.2357
| 37> H 	 -3.63976 	 -4.67528 	 93.7229
| 38> H 	 -4.80355 	 -4.24246 	 92.4974
| 39> H 	 1.01915 	 -6.06401 	 85.8654
| 40> H 	 -6.60088 	 -3.95495 	 87.9867
| 41> *
| 42>
| 43>                          ****END OF INPUT****

CARTESIAN COORDINATES (ANGSTROEM)
---------------------------------
  S     -1.028760   -4.622060   86.237000
  C      0.225695   -5.771780   86.548600
  C      0.205597   -6.231150   87.827900
  C     -0.838008   -5.687130   88.609100
  C     -1.630990   -4.817950   87.892800
  H     -1.272590   -5.928300   89.601600
  C      1.191090   -7.143860   88.364300
  H      2.146940   -6.639860   88.288300
  H      1.225700   -8.052950   87.766300
  C      1.015710   -7.715330   89.753600
  H      1.969400   -8.061930   90.083900
  H      0.889809   -6.816650   90.298400
  C     -0.164037   -8.736610   89.842800
  H     -0.213420   -9.497180   89.187300
  H     -0.326717   -8.898260   90.884300
  H     -1.087030   -8.190970   89.533600
  S     -4.247730   -4.635630   87.122200
  C     -5.522570   -4.000500   88.153000
  C     -4.984150   -3.653830   89.343000
  C     -3.561450   -3.797230   89.466600
  C     -2.964180   -4.255540   88.266400
  H     -5.656830   -3.183090   89.991600
  C     -2.739740   -3.432390   90.633700
  H     -2.993720   -2.401890   90.999500
  H     -1.750580   -3.334150   90.388000
  C     -2.701780   -4.347640   91.856400
  H     -1.751830   -4.269780   92.301100
  H     -2.654720   -5.367150   91.516900
  C     -3.773940   -4.009540   92.861300
  H     -3.782940   -2.956660   93.235700
  H     -3.639760   -4.675280   93.722900
  H     -4.803550   -4.242460   92.497400
  H      1.019150   -6.064010   85.865400
  H     -6.600880   -3.954950   87.986700

 Total Charge           Charge          ....    0
 Multiplicity           Mult            ....    1
 Number of Electrons    NEL             ....  134
 Basis Dimension        Dim             ....  322

ORBITAL ENERGIES
----------------

  NO   OCC          E(Eh)            E(eV)
   0   2.0000     -88.967587     -2420.9311
   1   2.0000     -88.961265     -2420.7591
   2   2.0000     -10.334195      -281.2077
   3   2.0000     -10.332676      -281.1664
   4   2.0000     -10.315098      -280.6881
   5   2.0000     -10.309286      -280.5299
   6   2.0000     -10.305920      -280.4383
   7   2.0000     -10.296805      -280.1903
   8   2.0000     -10.294664      -280.1320
   9   2.0000     -10.287218      -279.9294
  10   2.0000     -10.282338      -279.7966
  11   2.0000     -10.282002      -279.7875
  12   2.0000     -10.280013      -279.7334
  13   2.0000     -10.279724      -279.7255
  14   2.0000     -10.279622      -279.7227
  15   2.0000     -10.273727      -279.5623
  16   2.0000      -8.082200      -219.9278
  17   2.0000      -8.075804      -219.7538
  18   2.0000      -6.040658      -164.3747
  19   2.0000      -6.036725      -164.2677
  20   2.0000      -6.034468      -164.2062
  21   2.0000      -6.033013      -164.1666
  22   2.0000      -6.030151      -164.0888
  23   2.0000      -6.026548      -163.9907
  24   2.0000      -1.008445       -27.4412
  25   2.0000      -0.987392       -26.8683
  26   2.0000      -0.922510       -25.1028
  27   2.0000      -0.915680       -24.9169
  28   2.0000      -0.872770       -23.7493
  29   2.0000      -0.851113       -23.1600
  30   2.0000      -0.844621       -22.9833
  31   2.0000      -0.825869       -22.4730
  32   2.0000      -0.788046       -21.4438
  33   2.0000      -0.775186       -21.0939
  34   2.0000      -0.719692       -19.5838
  35   2.0000      -0.703987       -19.1565
  36   2.0000      -0.693399       -18.8683
  37   2.0000      -0.657879       -17.9018
  38   2.0000      -0.643173       -17.5016
  39   2.0000      -0.625718       -17.0267
  40   2.0000      -0.600881       -16.3508
  41   2.0000      -0.578396       -15.7390
  42   2.0000      -0.562022       -15.2934
  43   2.0000      -0.550230       -14.9725
  44   2.0000      -0.544264       -14.8102
  45   2.0000      -0.533305       -14.5120
  46   2.0000      -0.526050       -14.3146
  47   2.0000      -0.510509       -13.8916
  48   2.0000      -0.507456       -13.8086
  49   2.0000      -0.501133       -13.6365
  50   2.0000      -0.497370       -13.5341
  51   2.0000      -0.485350       -13.2070
  52   2.0000      -0.482436       -13.1277
  53   2.0000      -0.471755       -12.8371
  54   2.0000      -0.462431       -12.5834
  55   2.0000      -0.441856       -12.0235
  56   2.0000      -0.440449       -11.9852
  57   2.0000      -0.436139       -11.8679
  58   2.0000      -0.433704       -11.8017
  59   2.0000      -0.424264       -11.5448
  60   2.0000      -0.417758       -11.3678
  61   2.0000      -0.411829       -11.2064
  62   2.0000      -0.409228       -11.1357
  63   2.0000      -0.354518        -9.6469
  64   2.0000      -0.331459        -9.0195
  65   2.0000      -0.325177        -8.8485
  66   2.0000      -0.291338        -7.9277
  67   0.0000       0.026852         0.7307
  68   0.0000       0.072492         1.9726
  69   0.0000       0.116472         3.1694
  70   0.0000       0.122212         3.3256
  71   0.0000       0.129785         3.5316

MULLIKEN ATOMIC CHARGES
-----------------------
   0 S :    0.115539
   1 C :   -0.116988
   2 C :   -0.063428
   3 C :    0.018491
   4 C :   -0.162858
   5 H :    0.019984
   6 C :    0.019723
   7 H :    0.037804
   8 H :    0.025456
   9 C :   -0.037944
  10 H :    0.016930
  11 H :    0.007569
  12 C :    0.009309
  13 H :    0.013208
  14 H :    0.035144
  15 H :    0.015383
  16 S :    0.087184
  17 C :   -0.091151
  18 C :   -0.016692
  19 C :   -0.022917
  20 C :   -0.126292
  21 H :   -0.001803
  22 C :    0.062273
  23 H :    0.022756
  24 H :   -0.008204
  25 C :   -0.038589
  26 H :    0.009453
  27 H :    0.021169
  28 C :   -0.059230
  29 H :    0.041017
  30 H :    0.028858
  31 H :    0.034673
  32 H :    0.043237
  33 H :    0.060935
Sum of atomic charges:    0.0000000

LOEWDIN ATOMIC CHARGES
----------------------
   0 S :    0.407102
   1 C :   -0.199873
   2 C :   -0.070193
   3 C :   -0.071810
   4 C :   -0.183595
   5 H :    0.039421
   6 C :   -0.040535
   7 H :    0.035928
   8 H :    0.031782
   9 C :   -0.033934
  10 H :    0.022023
  11 H :    0.017038
  12 C :   -0.054152
  13 H :    0.011249
  14 H :    0.028666
  15 H :    0.035092
  16 S :    0.396244
  17 C :   -0.183417
  18 C :   -0.071907
  19 C :   -0.056835
  20 C :   -0.190282
  21 H :    0.023210
  22 C :   -0.034700
  23 H :    0.035987
  24 H :    0.020033
  25 C :   -0.038311
  26 H :    0.020273
  27 H :    0.021428
  28 C :   -0.070286
  29 H :    0.030113
  30 H :    0.026183
  31 H :    0.027345
  32 H :    0.032239
  33 H :    0.038474

  Mayer bond orders larger than 0.100000
B(  0-S ,  1-C ) :   1.1282 B(  0-S ,  4-C ) :   1.1589 B(  1-C ,  2-C ) :   1.6291
B(  1-C , 32-H ) :   0.9713 B(  2-C ,  3-C ) :   1.2256 B(  2-C ,  6-C ) :   1.0203
B(  3-C ,  4-C ) :   1.5839 B(  3-C ,  5-H ) :   0.9748 B(  4-C , 20-C ) :   1.0052
B(  6-C ,  7-H ) :   0.9325 B(  6-C ,  8-H ) :   0.9319 B(  6-C ,  9-C ) :   1.0987
B(  9-C , 10-H ) :   0.9497 B(  9-C , 11-H ) :   0.9421 B(  9-C , 12-C ) :   1.0690
B( 12-C , 13-H ) :   0.9743 B( 12-C , 14-H ) :   0.9733 B( 12-C , 15-H ) :   0.9685
B( 16-S , 17-C ) :   1.1432 B( 16-S , 20-C ) :   1.1449 B( 17-C , 18-C ) :   1.6294
B( 17-C , 33-H ) :   0.9636 B( 18-C , 19-C ) :   1.2217 B( 18-C , 21-H ) :   0.9974
B( 19-C , 20-C ) :   1.5795 B( 19-C , 22-C ) :   1.0746 B( 22-C , 23-H ) :   0.9326
B( 22-C , 24-H ) :   0.9235 B( 22-C , 25-C ) :   1.0713 B( 25-C , 26-H ) :   0.9517
B( 25-C , 27-H ) :   0.9428 B( 25-C , 28-C ) :   1.0869 B( 28-C , 29-H ) :   0.9734
B( 28-C , 30-H ) :   0.9702 B( 28-C , 31-H ) :   0.9742

Dispersion correction           -0.014774512
FINAL SINGLE POINT ENERGY     -1339.851613279860

DIPOLE MOMENT
-------------
                                X             Y             Z
Electronic contribution:     -7.02394       9.38961     -26.02826
Nuclear contribution   :      7.21503      -9.62591      26.65229
                        -----------------------------------------
Total Dipole Moment    :      0.19108      -0.23630       0.62403
                        -----------------------------------------
Magnitude (a.u.)       :      0.69409
Magnitude (Debye)      :      1.76423

Rotational constants in cm-1:     0.016761     0.010229     0.007253
Rotational constants in MHz :   502.487152   306.654745   217.435532

                             ****ORCA TERMINATED NORMALLY****
TOTAL RUN TIME: 0 days 0 hours 0 minutes 36 seconds 170 msec
