                         Program Version 4.2.1 -  RELEASE  -
|  1> ! wB97X-D3 SP def2-SVP
|  2> %pal
|  3> nprocs 16
|  4> end
|  5>
|  6> * xyz 0 1
|  7> S 	 -6.12172 	 12.7969 	 83.1608
|  8> C 	 -5.88822 	 11.1402 	 83.5661
|  9> C 	 -5.1117 	 10.4775 	 82.6462
| 10> C 	 -4.74876 	 11.3877 	 81.5717
| 11> C 	 -5.33824 	 12.6429 	 81.5902
| 12> H 	 -4.04089 	 11.1149 	 80.8286
| 13> C 	 -4.47036 	 9.13136 	 82.8669
| 14> H 	 -4.43558 	 8.86704 	 83.981
| 15> H 	 -3.46128 	 9.18912 	 82.4603
| 16> C 	 -5.12541 	 7.92099 	 82.1436
| 17> H 	 -4.79302 	 6.97744 	 82.4004
| 18> H 	 -6.16799 	 7.89612 	 82.4953
| 19> C 	 -5.06883 	 8.03825 	 80.6122
| 20> H 	 -4.11738 	 7.56284 	 80.2089
| 21> H 	 -6.01115 	 7.50917 	 80.3259
| 22> H 	 -5.0753 	 9.10185 	 80.258
| 23> S 	 -6.80475 	 14.5268 	 80.0378
| 24> C 	 -5.97377 	 15.3862 	 78.7967
| 25> C 	 -4.65757 	 15.0961 	 78.8154
| 26> C 	 -4.27136 	 14.2239 	 79.8523
| 27> C 	 -5.34106 	 13.6764 	 80.567
| 28> H 	 -3.96119 	 15.5138 	 78.1405
| 29> C 	 -2.82685 	 13.8512 	 80.081
| 30> H 	 -2.51785 	 13.283 	 79.1881
| 31> H 	 -2.7459 	 13.2233 	 81.0026
| 32> C 	 -1.97817 	 15.129 	 80.3433
| 33> H 	 -2.47204 	 15.7787 	 81.1178
| 34> H 	 -1.89773 	 15.6829 	 79.42
| 35> C 	 -0.518625 	 14.7749 	 80.688
| 36> H 	 0.187247 	 15.598 	 80.5975
| 37> H 	 -0.166657 	 14.0133 	 80.0155
| 38> H 	 -0.468284 	 14.4308 	 81.6785
| 39> H 	 -6.3998 	 10.6311 	 84.3755
| 40> H 	 -6.31071 	 16.1501 	 78.0784
| 41> *
| 42>
| 43>                          ****END OF INPUT****

CARTESIAN COORDINATES (ANGSTROEM)
---------------------------------
  S     -6.121720   12.796900   83.160800
  C     -5.888220   11.140200   83.566100
  C     -5.111700   10.477500   82.646200
  C     -4.748760   11.387700   81.571700
  C     -5.338240   12.642900   81.590200
  H     -4.040890   11.114900   80.828600
  C     -4.470360    9.131360   82.866900
  H     -4.435580    8.867040   83.981000
  H     -3.461280    9.189120   82.460300
  C     -5.125410    7.920990   82.143600
  H     -4.793020    6.977440   82.400400
  H     -6.167990    7.896120   82.495300
  C     -5.068830    8.038250   80.612200
  H     -4.117380    7.562840   80.208900
  H     -6.011150    7.509170   80.325900
  H     -5.075300    9.101850   80.258000
  S     -6.804750   14.526800   80.037800
  C     -5.973770   15.386200   78.796700
  C     -4.657570   15.096100   78.815400
  C     -4.271360   14.223900   79.852300
  C     -5.341060   13.676400   80.567000
  H     -3.961190   15.513800   78.140500
  C     -2.826850   13.851200   80.081000
  H     -2.517850   13.283000   79.188100
  H     -2.745900   13.223300   81.002600
  C     -1.978170   15.129000   80.343300
  H     -2.472040   15.778700   81.117800
  H     -1.897730   15.682900   79.420000
  C     -0.518625   14.774900   80.688000
  H      0.187247   15.598000   80.597500
  H     -0.166657   14.013300   80.015500
  H     -0.468284   14.430800   81.678500
  H     -6.399800   10.631100   84.375500
  H     -6.310710   16.150100   78.078400

 Total Charge           Charge          ....    0
 Multiplicity           Mult            ....    1
 Number of Electrons    NEL             ....  134
 Basis Dimension        Dim             ....  322

ORBITAL ENERGIES
----------------

  NO   OCC          E(Eh)            E(eV)
   0   2.0000     -88.966562     -2420.9032
   1   2.0000     -88.964544     -2420.8483
   2   2.0000     -10.333145      -281.1792
   3   2.0000     -10.328848      -281.0622
   4   2.0000     -10.316398      -280.7235
   5   2.0000     -10.312996      -280.6309
   6   2.0000     -10.301773      -280.3255
   7   2.0000     -10.299464      -280.2627
   8   2.0000     -10.298944      -280.2485
   9   2.0000     -10.295842      -280.1641
  10   2.0000     -10.294449      -280.1262
  11   2.0000     -10.289541      -279.9926
  12   2.0000     -10.284230      -279.8481
  13   2.0000     -10.284136      -279.8456
  14   2.0000     -10.279878      -279.7297
  15   2.0000     -10.271147      -279.4921
  16   2.0000      -8.081156      -219.8994
  17   2.0000      -8.079741      -219.8609
  18   2.0000      -6.039759      -164.3502
  19   2.0000      -6.038311      -164.3108
  20   2.0000      -6.035581      -164.2365
  21   2.0000      -6.034135      -164.1972
  22   2.0000      -6.031897      -164.1363
  23   2.0000      -6.030452      -164.0970
  24   2.0000      -1.008459       -27.4416
  25   2.0000      -0.989505       -26.9258
  26   2.0000      -0.909902       -24.7597
  27   2.0000      -0.908310       -24.7164
  28   2.0000      -0.873485       -23.7687
  29   2.0000      -0.851094       -23.1595
  30   2.0000      -0.842890       -22.9362
  31   2.0000      -0.818619       -22.2758
  32   2.0000      -0.779871       -21.2214
  33   2.0000      -0.768269       -20.9057
  34   2.0000      -0.706286       -19.2190
  35   2.0000      -0.700693       -19.0668
  36   2.0000      -0.696679       -18.9576
  37   2.0000      -0.657936       -17.9034
  38   2.0000      -0.641022       -17.4431
  39   2.0000      -0.618146       -16.8206
  40   2.0000      -0.593733       -16.1563
  41   2.0000      -0.575331       -15.6556
  42   2.0000      -0.570278       -15.5181
  43   2.0000      -0.547447       -14.8968
  44   2.0000      -0.543609       -14.7923
  45   2.0000      -0.521184       -14.1821
  46   2.0000      -0.516687       -14.0598
  47   2.0000      -0.514843       -14.0096
  48   2.0000      -0.510434       -13.8896
  49   2.0000      -0.506106       -13.7718
  50   2.0000      -0.487326       -13.2608
  51   2.0000      -0.478614       -13.0238
  52   2.0000      -0.473294       -12.8790
  53   2.0000      -0.464744       -12.6463
  54   2.0000      -0.460913       -12.5421
  55   2.0000      -0.450829       -12.2677
  56   2.0000      -0.440219       -11.9790
  57   2.0000      -0.437409       -11.9025
  58   2.0000      -0.432752       -11.7758
  59   2.0000      -0.422262       -11.4903
  60   2.0000      -0.418713       -11.3938
  61   2.0000      -0.412462       -11.2237
  62   2.0000      -0.408974       -11.1288
  63   2.0000      -0.347841        -9.4652
  64   2.0000      -0.330980        -9.0064
  65   2.0000      -0.326340        -8.8802
  66   2.0000      -0.294462        -8.0127
  67   0.0000       0.026576         0.7232
  68   0.0000       0.073139         1.9902
  69   0.0000       0.103420         2.8142
  70   0.0000       0.129185         3.5153
  71   0.0000       0.135383         3.6840

MULLIKEN ATOMIC CHARGES
-----------------------
   0 S :    0.111684
   1 C :   -0.119631
   2 C :   -0.078499
   3 C :    0.033453
   4 C :   -0.168574
   5 H :    0.006543
   6 C :    0.022744
   7 H :    0.043404
   8 H :    0.028047
   9 C :   -0.034085
  10 H :    0.010877
  11 H :    0.017451
  12 C :   -0.105049
  13 H :    0.045690
  14 H :    0.048864
  15 H :    0.043856
  16 S :    0.115304
  17 C :   -0.075430
  18 C :   -0.023755
  19 C :   -0.049039
  20 C :   -0.143348
  21 H :    0.000330
  22 C :    0.045237
  23 H :    0.043380
  24 H :    0.037506
  25 C :   -0.116721
  26 H :    0.051967
  27 H :    0.024363
  28 C :   -0.005209
  29 H :    0.029629
  30 H :    0.019286
  31 H :    0.022618
  32 H :    0.053182
  33 H :    0.063922
Sum of atomic charges:    0.0000000

LOEWDIN ATOMIC CHARGES
----------------------
   0 S :    0.410697
   1 C :   -0.197389
   2 C :   -0.070096
   3 C :   -0.056896
   4 C :   -0.193032
   5 H :    0.020842
   6 C :   -0.033510
   7 H :    0.039406
   8 H :    0.030130
   9 C :   -0.041673
  10 H :    0.012587
  11 H :    0.021635
  12 C :   -0.077647
  13 H :    0.030428
  14 H :    0.036655
  15 H :    0.028377
  16 S :    0.410334
  17 C :   -0.191327
  18 C :   -0.075066
  19 C :   -0.051597
  20 C :   -0.203643
  21 H :    0.024303
  22 C :   -0.035281
  23 H :    0.034370
  24 H :    0.033844
  25 C :   -0.039335
  26 H :    0.033596
  27 H :    0.017662
  28 C :   -0.060177
  29 H :    0.025954
  30 H :    0.023293
  31 H :    0.017833
  32 H :    0.031029
  33 H :    0.043695

  Mayer bond orders larger than 0.100000
B(  0-S ,  1-C ) :   1.1549 B(  0-S ,  4-C ) :   1.1417 B(  1-C ,  2-C ) :   1.6102
B(  1-C , 32-H ) :   0.9623 B(  2-C ,  3-C ) :   1.2496 B(  2-C ,  6-C ) :   1.0176
B(  3-C ,  4-C ) :   1.5625 B(  3-C ,  5-H ) :   0.9876 B(  4-C , 20-C ) :   1.0704
B(  6-C ,  7-H ) :   0.9502 B(  6-C ,  8-H ) :   0.9453 B(  6-C ,  9-C ) :   1.0640
B(  9-C , 10-H ) :   0.9565 B(  9-C , 11-H ) :   0.9614 B(  9-C , 12-C ) :   1.0581
B( 12-C , 13-H ) :   0.9758 B( 12-C , 14-H ) :   0.9755 B( 12-C , 15-H ) :   0.9766
B( 16-S , 17-C ) :   1.1608 B( 16-S , 20-C ) :   1.1217 B( 17-C , 18-C ) :   1.6032
B( 17-C , 33-H ) :   0.9594 B( 18-C , 19-C ) :   1.2620 B( 18-C , 21-H ) :   0.9940
B( 19-C , 20-C ) :   1.5692 B( 19-C , 22-C ) :   1.0475 B( 22-C , 23-H ) :   0.9311
B( 22-C , 24-H ) :   0.9356 B( 22-C , 25-C ) :   1.0568 B( 25-C , 26-H ) :   0.9606
B( 25-C , 27-H ) :   0.9535 B( 25-C , 28-C ) :   1.0854 B( 28-C , 29-H ) :   0.9751
B( 28-C , 30-H ) :   0.9695 B( 28-C , 31-H ) :   0.9757

Dispersion correction           -0.013920304
FINAL SINGLE POINT ENERGY     -1339.877018082108

DIPOLE MOMENT
-------------
                                X             Y             Z
Electronic contribution:    -20.67643      13.98102       3.78533
Nuclear contribution   :     21.26934     -14.21986      -3.97296
                        -----------------------------------------
Total Dipole Moment    :      0.59291      -0.23884      -0.18763
                        -----------------------------------------
Magnitude (a.u.)       :      0.66618
Magnitude (Debye)      :      1.69330

Rotational constants in cm-1:     0.017411     0.008281     0.007057
Rotational constants in MHz :   521.964840   248.272419   211.558468

                             ****ORCA TERMINATED NORMALLY****
TOTAL RUN TIME: 0 days 0 hours 0 minutes 34 seconds 717 msec
