                         Program Version 4.2.1 -  RELEASE  -
|  1> ! wB97X-D3 SP def2-SVP
|  2> %pal
|  3> nprocs 16
|  4> end
|  5>
|  6> * xyz 0 1
|  7> S 	 -14.9007 	 -8.01727 	 86.1892
|  8> C 	 -13.674 	 -7.42522 	 85.1307
|  9> C 	 -12.9324 	 -6.40783 	 85.7301
| 10> C 	 -13.39 	 -6.11752 	 87.0179
| 11> C 	 -14.4756 	 -6.87877 	 87.3744
| 12> H 	 -12.896 	 -5.41166 	 87.7344
| 13> C 	 -11.9262 	 -5.57573 	 85.0531
| 14> H 	 -11.5458 	 -4.74154 	 85.6978
| 15> H 	 -12.5284 	 -5.01986 	 84.344
| 16> C 	 -10.7872 	 -6.30798 	 84.2973
| 17> H 	 -9.96023 	 -6.63288 	 84.9293
| 18> H 	 -11.1208 	 -7.26183 	 83.8961
| 19> C 	 -10.2772 	 -5.389 	 83.1179
| 20> H 	 -11.0183 	 -5.17368 	 82.3678
| 21> H 	 -9.73832 	 -4.53533 	 83.4617
| 22> H 	 -9.6525 	 -6.01178 	 82.4678
| 23> S 	 -15.5007 	 -8.4318 	 89.3422
| 24> C 	 -16.1126 	 -7.63053 	 90.7607
| 25> C 	 -15.8507 	 -6.31277 	 90.8528
| 26> C 	 -15.3312 	 -5.78738 	 89.5711
| 27> C 	 -15.1024 	 -6.83809 	 88.6863
| 28> H 	 -16.0913 	 -5.78054 	 91.7682
| 29> C 	 -15.1332 	 -4.31392 	 89.3452
| 30> H 	 -14.9977 	 -4.22899 	 88.2437
| 31> H 	 -14.1383 	 -4.00495 	 89.7008
| 32> C 	 -16.1987 	 -3.48592 	 89.9237
| 33> H 	 -16.4069 	 -3.76634 	 90.9904
| 34> H 	 -17.1003 	 -3.67862 	 89.2591
| 35> C 	 -15.9449 	 -1.99396 	 89.8208
| 36> H 	 -15.4671 	 -1.79839 	 88.8774
| 37> H 	 -15.3087 	 -1.66841 	 90.5916
| 38> H 	 -16.8638 	 -1.44411 	 89.873
| 39> H 	 -13.6689 	 -7.73346 	 84.1292
| 40> H 	 -16.5658 	 -8.1307 	 91.6379
| 41> *
| 42>
| 43>                          ****END OF INPUT****

CARTESIAN COORDINATES (ANGSTROEM)
---------------------------------
  S    -14.900700   -8.017270   86.189200
  C    -13.674000   -7.425220   85.130700
  C    -12.932400   -6.407830   85.730100
  C    -13.390000   -6.117520   87.017900
  C    -14.475600   -6.878770   87.374400
  H    -12.896000   -5.411660   87.734400
  C    -11.926200   -5.575730   85.053100
  H    -11.545800   -4.741540   85.697800
  H    -12.528400   -5.019860   84.344000
  C    -10.787200   -6.307980   84.297300
  H     -9.960230   -6.632880   84.929300
  H    -11.120800   -7.261830   83.896100
  C    -10.277200   -5.389000   83.117900
  H    -11.018300   -5.173680   82.367800
  H     -9.738320   -4.535330   83.461700
  H     -9.652500   -6.011780   82.467800
  S    -15.500700   -8.431800   89.342200
  C    -16.112600   -7.630530   90.760700
  C    -15.850700   -6.312770   90.852800
  C    -15.331200   -5.787380   89.571100
  C    -15.102400   -6.838090   88.686300
  H    -16.091300   -5.780540   91.768200
  C    -15.133200   -4.313920   89.345200
  H    -14.997700   -4.228990   88.243700
  H    -14.138300   -4.004950   89.700800
  C    -16.198700   -3.485920   89.923700
  H    -16.406900   -3.766340   90.990400
  H    -17.100300   -3.678620   89.259100
  C    -15.944900   -1.993960   89.820800
  H    -15.467100   -1.798390   88.877400
  H    -15.308700   -1.668410   90.591600
  H    -16.863800   -1.444110   89.873000
  H    -13.668900   -7.733460   84.129200
  H    -16.565800   -8.130700   91.637900

 Total Charge           Charge          ....    0
 Multiplicity           Mult            ....    1
 Number of Electrons    NEL             ....  134
 Basis Dimension        Dim             ....  322

ORBITAL ENERGIES
----------------

  NO   OCC          E(Eh)            E(eV)
   0   2.0000     -88.966858     -2420.9113
   1   2.0000     -88.962238     -2420.7856
   2   2.0000     -10.324103      -280.9331
   3   2.0000     -10.320912      -280.8463
   4   2.0000     -10.310559      -280.5646
   5   2.0000     -10.305935      -280.4387
   6   2.0000     -10.304649      -280.4038
   7   2.0000     -10.296149      -280.1725
   8   2.0000     -10.291196      -280.0377
   9   2.0000     -10.291099      -280.0350
  10   2.0000     -10.290514      -280.0191
  11   2.0000     -10.289645      -279.9955
  12   2.0000     -10.289599      -279.9942
  13   2.0000     -10.287134      -279.9271
  14   2.0000     -10.277987      -279.6783
  15   2.0000     -10.268860      -279.4299
  16   2.0000      -8.082981      -219.9491
  17   2.0000      -8.077232      -219.7926
  18   2.0000      -6.041229      -164.3902
  19   2.0000      -6.037274      -164.2826
  20   2.0000      -6.035766      -164.2415
  21   2.0000      -6.033967      -164.1926
  22   2.0000      -6.032022      -164.1397
  23   2.0000      -6.027633      -164.0202
  24   2.0000      -1.013960       -27.5912
  25   2.0000      -0.984997       -26.8031
  26   2.0000      -0.919718       -25.0268
  27   2.0000      -0.911831       -24.8122
  28   2.0000      -0.867720       -23.6118
  29   2.0000      -0.857608       -23.3367
  30   2.0000      -0.847311       -23.0565
  31   2.0000      -0.814894       -22.1744
  32   2.0000      -0.783924       -21.3317
  33   2.0000      -0.770975       -20.9793
  34   2.0000      -0.713513       -19.4157
  35   2.0000      -0.700982       -19.0747
  36   2.0000      -0.692307       -18.8386
  37   2.0000      -0.655083       -17.8257
  38   2.0000      -0.639184       -17.3931
  39   2.0000      -0.619633       -16.8611
  40   2.0000      -0.596638       -16.2353
  41   2.0000      -0.571719       -15.5573
  42   2.0000      -0.570940       -15.5361
  43   2.0000      -0.551930       -15.0188
  44   2.0000      -0.529881       -14.4188
  45   2.0000      -0.525253       -14.2929
  46   2.0000      -0.520045       -14.1511
  47   2.0000      -0.516239       -14.0476
  48   2.0000      -0.505706       -13.7610
  49   2.0000      -0.500357       -13.6154
  50   2.0000      -0.487629       -13.2691
  51   2.0000      -0.481591       -13.1048
  52   2.0000      -0.473098       -12.8736
  53   2.0000      -0.459338       -12.4992
  54   2.0000      -0.458093       -12.4653
  55   2.0000      -0.455511       -12.3951
  56   2.0000      -0.449322       -12.2267
  57   2.0000      -0.440681       -11.9916
  58   2.0000      -0.435190       -11.8421
  59   2.0000      -0.425105       -11.5677
  60   2.0000      -0.421341       -11.4653
  61   2.0000      -0.413228       -11.2445
  62   2.0000      -0.412106       -11.2140
  63   2.0000      -0.351818        -9.5735
  64   2.0000      -0.332133        -9.0378
  65   2.0000      -0.326741        -8.8911
  66   2.0000      -0.284001        -7.7281
  67   0.0000       0.030250         0.8231
  68   0.0000       0.082386         2.2418
  69   0.0000       0.102647         2.7932
  70   0.0000       0.120429         3.2770
  71   0.0000       0.143108         3.8942

MULLIKEN ATOMIC CHARGES
-----------------------
   0 S :    0.123653
   1 C :   -0.125634
   2 C :   -0.047241
   3 C :   -0.026097
   4 C :   -0.143251
   5 H :    0.031983
   6 C :    0.056465
   7 H :    0.025053
   8 H :    0.033501
   9 C :   -0.071404
  10 H :    0.036138
  11 H :    0.022178
  12 C :   -0.053307
  13 H :    0.026519
  14 H :    0.043725
  15 H :    0.018982
  16 S :    0.096597
  17 C :   -0.085336
  18 C :   -0.046370
  19 C :   -0.058384
  20 C :   -0.132142
  21 H :    0.023978
  22 C :    0.071432
  23 H :    0.027442
  24 H :    0.026928
  25 C :   -0.129558
  26 H :    0.041160
  27 H :    0.042205
  28 C :    0.013576
  29 H :    0.018065
  30 H :    0.019917
  31 H :    0.030384
  32 H :    0.032596
  33 H :    0.056244
Sum of atomic charges:   -0.0000000

LOEWDIN ATOMIC CHARGES
----------------------
   0 S :    0.443043
   1 C :   -0.205365
   2 C :   -0.061296
   3 C :   -0.074268
   4 C :   -0.212840
   5 H :    0.041137
   6 C :   -0.039575
   7 H :    0.034085
   8 H :    0.037458
   9 C :   -0.034193
  10 H :    0.027194
  11 H :    0.021864
  12 C :   -0.065959
  13 H :    0.024032
  14 H :    0.022372
  15 H :    0.027177
  16 S :    0.384987
  17 C :   -0.189231
  18 C :   -0.072138
  19 C :   -0.050426
  20 C :   -0.185356
  21 H :    0.032562
  22 C :   -0.045688
  23 H :    0.035221
  24 H :    0.028581
  25 C :   -0.048027
  26 H :    0.027491
  27 H :    0.036560
  28 C :   -0.055042
  29 H :    0.023707
  30 H :    0.017889
  31 H :    0.026362
  32 H :    0.014065
  33 H :    0.033616

  Mayer bond orders larger than 0.100000
B(  0-S ,  1-C ) :   1.1484 B(  0-S ,  4-C ) :   1.1870 B(  1-C ,  2-C ) :   1.5498
B(  1-C , 32-H ) :   0.9805 B(  2-C ,  3-C ) :   1.2925 B(  2-C ,  6-C ) :   1.0211
B(  3-C ,  4-C ) :   1.5189 B(  3-C ,  5-H ) :   0.9878 B(  4-C , 20-C ) :   1.0452
B(  6-C ,  7-H ) :   0.9419 B(  6-C ,  8-H ) :   0.9406 B(  6-C ,  9-C ) :   1.0404
B(  9-C , 10-H ) :   0.9570 B(  9-C , 11-H ) :   0.9636 B(  9-C , 12-C ) :   1.0769
B( 12-C , 13-H ) :   0.9752 B( 12-C , 14-H ) :   0.9797 B( 12-C , 15-H ) :   0.9726
B( 16-S , 17-C ) :   1.1226 B( 16-S , 20-C ) :   1.1206 B( 17-C , 18-C ) :   1.6999
B( 17-C , 33-H ) :   0.9560 B( 18-C , 19-C ) :   1.1687 B( 18-C , 21-H ) :   0.9817
B( 19-C , 20-C ) :   1.6501 B( 19-C , 22-C ) :   1.0445 B( 22-C , 23-H ) :   0.9204
B( 22-C , 24-H ) :   0.9231 B( 22-C , 25-C ) :   1.0714 B( 25-C , 26-H ) :   0.9521
B( 25-C , 27-H ) :   0.9521 B( 25-C , 28-C ) :   1.0901 B( 28-C , 29-H ) :   0.9692
B( 28-C , 30-H ) :   0.9727 B( 28-C , 31-H ) :   0.9731

Dispersion correction           -0.013312044
FINAL SINGLE POINT ENERGY     -1339.877523251125

DIPOLE MOMENT
-------------
                                X             Y             Z
Electronic contribution:    -11.91883     -24.50458       6.84335
Nuclear contribution   :     12.19360      25.11998      -6.89614
                        -----------------------------------------
Total Dipole Moment    :      0.27477       0.61540      -0.05279
                        -----------------------------------------
Magnitude (a.u.)       :      0.67602
Magnitude (Debye)      :      1.71832

Rotational constants in cm-1:     0.019181     0.007708     0.005880
Rotational constants in MHz :   575.019810   231.073997   176.274952

                             ****ORCA TERMINATED NORMALLY****
TOTAL RUN TIME: 0 days 0 hours 0 minutes 32 seconds 772 msec
