                         Program Version 4.2.1 -  RELEASE  -
|  1> ! wB97X-D3 SP def2-SVP
|  2> %pal
|  3> nprocs 16
|  4> end
|  5>
|  6> * xyz 0 1
|  7> S 	 -18.4804 	 56.6339 	 62.0221
|  8> C 	 -17.7638 	 55.1393 	 61.4656
|  9> C 	 -16.8533 	 55.3342 	 60.453
| 10> C 	 -16.4765 	 56.7069 	 60.4269
| 11> C 	 -17.2388 	 57.481 	 61.2516
| 12> H 	 -15.7411 	 57.1414 	 59.822
| 13> C 	 -16.1568 	 54.3109 	 59.6631
| 14> H 	 -15.8582 	 53.4774 	 60.3914
| 15> H 	 -15.2824 	 54.7897 	 59.153
| 16> C 	 -17.1251 	 53.7633 	 58.5602
| 17> H 	 -18.0497 	 53.3296 	 59.0052
| 18> H 	 -17.4896 	 54.6655 	 57.9739
| 19> C 	 -16.5768 	 52.6525 	 57.6932
| 20> H 	 -16.5563 	 51.6944 	 58.2865
| 21> H 	 -17.2804 	 52.4117 	 56.9214
| 22> H 	 -15.6089 	 52.7849 	 57.239
| 23> S 	 -17.523 	 59.7277 	 59.8777
| 24> C 	 -17.501 	 61.2908 	 60.7041
| 25> C 	 -17.0364 	 61.1304 	 62.0347
| 26> C 	 -16.8993 	 59.7352 	 62.4031
| 27> C 	 -17.188 	 58.9087 	 61.378
| 28> H 	 -16.9975 	 61.9536 	 62.6906
| 29> C 	 -16.727 	 59.2476 	 63.8127
| 30> H 	 -15.6346 	 59.2015 	 63.9162
| 31> H 	 -17.195 	 58.2837 	 64.0359
| 32> C 	 -17.2802 	 60.1198 	 64.9935
| 33> H 	 -16.7472 	 61.0644 	 64.9339
| 34> H 	 -16.9913 	 59.7344 	 65.9388
| 35> C 	 -18.8061 	 60.2723 	 64.9981
| 36> H 	 -19.1766 	 60.7197 	 64.0695
| 37> H 	 -19.1929 	 60.9878 	 65.7313
| 38> H 	 -19.4213 	 59.351 	 65.1241
| 39> H 	 -18.1708 	 54.1667 	 61.759
| 40> H 	 -17.8477 	 62.1959 	 60.2651
| 41> *
| 42>
| 43>                          ****END OF INPUT****

CARTESIAN COORDINATES (ANGSTROEM)
---------------------------------
  S    -18.480400   56.633900   62.022100
  C    -17.763800   55.139300   61.465600
  C    -16.853300   55.334200   60.453000
  C    -16.476500   56.706900   60.426900
  C    -17.238800   57.481000   61.251600
  H    -15.741100   57.141400   59.822000
  C    -16.156800   54.310900   59.663100
  H    -15.858200   53.477400   60.391400
  H    -15.282400   54.789700   59.153000
  C    -17.125100   53.763300   58.560200
  H    -18.049700   53.329600   59.005200
  H    -17.489600   54.665500   57.973900
  C    -16.576800   52.652500   57.693200
  H    -16.556300   51.694400   58.286500
  H    -17.280400   52.411700   56.921400
  H    -15.608900   52.784900   57.239000
  S    -17.523000   59.727700   59.877700
  C    -17.501000   61.290800   60.704100
  C    -17.036400   61.130400   62.034700
  C    -16.899300   59.735200   62.403100
  C    -17.188000   58.908700   61.378000
  H    -16.997500   61.953600   62.690600
  C    -16.727000   59.247600   63.812700
  H    -15.634600   59.201500   63.916200
  H    -17.195000   58.283700   64.035900
  C    -17.280200   60.119800   64.993500
  H    -16.747200   61.064400   64.933900
  H    -16.991300   59.734400   65.938800
  C    -18.806100   60.272300   64.998100
  H    -19.176600   60.719700   64.069500
  H    -19.192900   60.987800   65.731300
  H    -19.421300   59.351000   65.124100
  H    -18.170800   54.166700   61.759000
  H    -17.847700   62.195900   60.265100

 Total Charge           Charge          ....    0
 Multiplicity           Mult            ....    1
 Number of Electrons    NEL             ....  134
 Basis Dimension        Dim             ....  322

ORBITAL ENERGIES
----------------

  NO   OCC          E(Eh)            E(eV)
   0   2.0000     -88.964284     -2420.8412
   1   2.0000     -88.961831     -2420.7745
   2   2.0000     -10.320908      -280.8462
   3   2.0000     -10.315055      -280.6869
   4   2.0000     -10.314101      -280.6610
   5   2.0000     -10.308213      -280.5007
   6   2.0000     -10.300543      -280.2920
   7   2.0000     -10.299153      -280.2542
   8   2.0000     -10.298171      -280.2275
   9   2.0000     -10.294834      -280.1367
  10   2.0000     -10.293614      -280.1035
  11   2.0000     -10.290224      -280.0112
  12   2.0000     -10.285755      -279.8896
  13   2.0000     -10.282753      -279.8079
  14   2.0000     -10.276942      -279.6498
  15   2.0000     -10.276816      -279.6464
  16   2.0000      -8.080098      -219.8706
  17   2.0000      -8.076641      -219.7766
  18   2.0000      -6.038407      -164.3134
  19   2.0000      -6.035200      -164.2262
  20   2.0000      -6.034619      -164.2103
  21   2.0000      -6.031120      -164.1151
  22   2.0000      -6.030844      -164.1076
  23   2.0000      -6.027363      -164.0129
  24   2.0000      -1.015356       -27.6292
  25   2.0000      -0.985169       -26.8078
  26   2.0000      -0.913331       -24.8530
  27   2.0000      -0.904547       -24.6140
  28   2.0000      -0.868696       -23.6384
  29   2.0000      -0.853850       -23.2344
  30   2.0000      -0.845969       -23.0200
  31   2.0000      -0.811909       -22.0932
  32   2.0000      -0.783322       -21.3153
  33   2.0000      -0.771176       -20.9848
  34   2.0000      -0.705879       -19.2079
  35   2.0000      -0.696118       -18.9423
  36   2.0000      -0.694160       -18.8891
  37   2.0000      -0.665480       -18.1086
  38   2.0000      -0.644771       -17.5451
  39   2.0000      -0.614322       -16.7165
  40   2.0000      -0.595927       -16.2160
  41   2.0000      -0.570561       -15.5258
  42   2.0000      -0.554515       -15.0891
  43   2.0000      -0.554329       -15.0841
  44   2.0000      -0.538577       -14.6554
  45   2.0000      -0.525533       -14.3005
  46   2.0000      -0.520203       -14.1555
  47   2.0000      -0.513928       -13.9847
  48   2.0000      -0.503531       -13.7018
  49   2.0000      -0.495576       -13.4853
  50   2.0000      -0.490398       -13.3444
  51   2.0000      -0.475338       -12.9346
  52   2.0000      -0.471100       -12.8193
  53   2.0000      -0.467400       -12.7186
  54   2.0000      -0.457130       -12.4391
  55   2.0000      -0.449838       -12.2407
  56   2.0000      -0.443074       -12.0566
  57   2.0000      -0.437786       -11.9128
  58   2.0000      -0.433728       -11.8023
  59   2.0000      -0.427970       -11.6457
  60   2.0000      -0.416872       -11.3437
  61   2.0000      -0.415051       -11.2941
  62   2.0000      -0.408714       -11.1217
  63   2.0000      -0.332664        -9.0522
  64   2.0000      -0.331436        -9.0188
  65   2.0000      -0.324897        -8.8409
  66   2.0000      -0.297102        -8.0846
  67   0.0000       0.040517         1.1025
  68   0.0000       0.062855         1.7104
  69   0.0000       0.108327         2.9477
  70   0.0000       0.119540         3.2529
  71   0.0000       0.131133         3.5683

MULLIKEN ATOMIC CHARGES
-----------------------
   0 S :    0.127726
   1 C :   -0.134253
   2 C :   -0.059847
   3 C :    0.032607
   4 C :   -0.149720
   5 H :   -0.014317
   6 C :    0.048807
   7 H :    0.049477
   8 H :    0.034140
   9 C :   -0.130687
  10 H :    0.032970
  11 H :    0.041875
  12 C :   -0.016635
  13 H :    0.027994
  14 H :    0.027515
  15 H :    0.030813
  16 S :    0.108568
  17 C :   -0.092703
  18 C :   -0.018120
  19 C :    0.003162
  20 C :   -0.189297
  21 H :    0.005686
  22 C :    0.046989
  23 H :    0.041065
  24 H :    0.033783
  25 C :   -0.046159
  26 H :    0.018094
  27 H :    0.020407
  28 C :   -0.067142
  29 H :    0.026029
  30 H :    0.030482
  31 H :    0.037352
  32 H :    0.041557
  33 H :    0.051786
Sum of atomic charges:   -0.0000000

LOEWDIN ATOMIC CHARGES
----------------------
   0 S :    0.438271
   1 C :   -0.200323
   2 C :   -0.061773
   3 C :   -0.062800
   4 C :   -0.212084
   5 H :    0.020785
   6 C :   -0.037118
   7 H :    0.042987
   8 H :    0.035606
   9 C :   -0.047571
  10 H :    0.027641
  11 H :    0.030505
  12 C :   -0.071441
  13 H :    0.031224
  14 H :    0.025791
  15 H :    0.020548
  16 S :    0.402675
  17 C :   -0.171307
  18 C :   -0.058992
  19 C :   -0.057590
  20 C :   -0.204105
  21 H :    0.021423
  22 C :   -0.031698
  23 H :    0.039494
  24 H :    0.025527
  25 C :   -0.037317
  26 H :    0.019379
  27 H :    0.021707
  28 C :   -0.076788
  29 H :    0.024648
  30 H :    0.027253
  31 H :    0.030229
  32 H :    0.022951
  33 H :    0.022262

  Mayer bond orders larger than 0.100000
B(  0-S ,  1-C ) :   1.1395 B(  0-S ,  4-C ) :   1.1770 B(  1-C ,  2-C ) :   1.6003
B(  1-C , 32-H ) :   0.9686 B(  2-C ,  3-C ) :   1.2243 B(  2-C ,  6-C ) :   1.0328
B(  3-C ,  4-C ) :   1.5788 B(  3-C ,  5-H ) :   1.0104 B(  4-C , 20-C ) :   1.0057
B(  6-C ,  7-H ) :   0.9392 B(  6-C ,  8-H ) :   0.9410 B(  6-C ,  9-C ) :   1.0483
B(  9-C , 10-H ) :   0.9583 B(  9-C , 11-H ) :   0.9555 B(  9-C , 12-C ) :   1.0860
B( 12-C , 13-H ) :   0.9709 B( 12-C , 14-H ) :   0.9706 B( 12-C , 15-H ) :   0.9736
B( 16-S , 17-C ) :   1.1527 B( 16-S , 20-C ) :   1.1362 B( 17-C , 18-C ) :   1.6087
B( 17-C , 33-H ) :   0.9753 B( 18-C , 19-C ) :   1.2053 B( 18-C , 21-H ) :   0.9920
B( 19-C , 20-C ) :   1.6406 B( 19-C , 22-C ) :   1.0321 B( 22-C , 23-H ) :   0.9206
B( 22-C , 24-H ) :   0.9460 B( 22-C , 25-C ) :   1.0813 B( 25-C , 26-H ) :   0.9490
B( 25-C , 27-H ) :   0.9541 B( 25-C , 28-C ) :   1.0736 B( 28-C , 29-H ) :   0.9735
B( 28-C , 30-H ) :   0.9739 B( 28-C , 31-H ) :   0.9739

Dispersion correction           -0.014384329
FINAL SINGLE POINT ENERGY     -1339.875638772228

DIPOLE MOMENT
-------------
                                X             Y             Z
Electronic contribution:     -2.79577       9.88864      -3.47153
Nuclear contribution   :      2.86798      -9.98897       3.56397
                        -----------------------------------------
Total Dipole Moment    :      0.07221      -0.10033       0.09245
                        -----------------------------------------
Magnitude (a.u.)       :      0.15436
Magnitude (Debye)      :      0.39236

Rotational constants in cm-1:     0.027488     0.007162     0.006160
Rotational constants in MHz :   824.082653   214.719622   184.673889

                             ****ORCA TERMINATED NORMALLY****
TOTAL RUN TIME: 0 days 0 hours 0 minutes 32 seconds 644 msec
