                         Program Version 4.2.1 -  RELEASE  -
|  1> ! wB97X-D3 SP def2-SVP
|  2> %pal
|  3> nprocs 16
|  4> end
|  5>
|  6> * xyz 0 1
|  7> S 	 -5.86108 	 -11.5703 	 83.42
|  8> C 	 -5.81883 	 -10.9729 	 81.7513
|  9> C 	 -6.24729 	 -9.67256 	 81.6173
| 10> C 	 -6.80682 	 -9.19645 	 82.8347
| 11> C 	 -6.79392 	 -10.1787 	 83.8792
| 12> H 	 -7.28332 	 -8.33751 	 83.1496
| 13> C 	 -6.00429 	 -8.81064 	 80.4111
| 14> H 	 -5.49839 	 -9.41028 	 79.6518
| 15> H 	 -5.28509 	 -8.08905 	 80.7631
| 16> C 	 -7.14545 	 -7.99544 	 79.8347
| 17> H 	 -8.01405 	 -8.54105 	 79.5325
| 18> H 	 -7.50396 	 -7.3657 	 80.6728
| 19> C 	 -6.73846 	 -7.08981 	 78.6573
| 20> H 	 -5.97424 	 -7.69618 	 78.1053
| 21> H 	 -7.55833 	 -6.92949 	 77.9753
| 22> H 	 -6.2077 	 -6.15894 	 78.8678
| 23> S 	 -6.26145 	 -10.341 	 86.5673
| 24> C 	 -7.64929 	 -10.209 	 87.7355
| 25> C 	 -8.80338 	 -9.94297 	 87.0449
| 26> C 	 -8.64443 	 -9.84717 	 85.6295
| 27> C 	 -7.36567 	 -10.093 	 85.2083
| 28> H 	 -9.72772 	 -9.89677 	 87.5711
| 29> C 	 -9.84448 	 -9.58372 	 84.7261
| 30> H 	 -9.57769 	 -9.90287 	 83.7419
| 31> H 	 -10.0584 	 -8.49052 	 84.7036
| 32> C 	 -11.1659 	 -10.1247 	 85.1879
| 33> H 	 -11.3163 	 -9.63753 	 86.2046
| 34> H 	 -11.0386 	 -11.212 	 85.3715
| 35> C 	 -12.3025 	 -9.75124 	 84.1946
| 36> H 	 -12.5616 	 -8.74819 	 84.3625
| 37> H 	 -13.2256 	 -10.302 	 84.2833
| 38> H 	 -12.0755 	 -9.8943 	 83.1643
| 39> H 	 -5.2561 	 -11.4619 	 80.9699
| 40> H 	 -7.57209 	 -10.2541 	 88.8187
| 41> *
| 42>
| 43>                          ****END OF INPUT****

CARTESIAN COORDINATES (ANGSTROEM)
---------------------------------
  S     -5.861080  -11.570300   83.420000
  C     -5.818830  -10.972900   81.751300
  C     -6.247290   -9.672560   81.617300
  C     -6.806820   -9.196450   82.834700
  C     -6.793920  -10.178700   83.879200
  H     -7.283320   -8.337510   83.149600
  C     -6.004290   -8.810640   80.411100
  H     -5.498390   -9.410280   79.651800
  H     -5.285090   -8.089050   80.763100
  C     -7.145450   -7.995440   79.834700
  H     -8.014050   -8.541050   79.532500
  H     -7.503960   -7.365700   80.672800
  C     -6.738460   -7.089810   78.657300
  H     -5.974240   -7.696180   78.105300
  H     -7.558330   -6.929490   77.975300
  H     -6.207700   -6.158940   78.867800
  S     -6.261450  -10.341000   86.567300
  C     -7.649290  -10.209000   87.735500
  C     -8.803380   -9.942970   87.044900
  C     -8.644430   -9.847170   85.629500
  C     -7.365670  -10.093000   85.208300
  H     -9.727720   -9.896770   87.571100
  C     -9.844480   -9.583720   84.726100
  H     -9.577690   -9.902870   83.741900
  H    -10.058400   -8.490520   84.703600
  C    -11.165900  -10.124700   85.187900
  H    -11.316300   -9.637530   86.204600
  H    -11.038600  -11.212000   85.371500
  C    -12.302500   -9.751240   84.194600
  H    -12.561600   -8.748190   84.362500
  H    -13.225600  -10.302000   84.283300
  H    -12.075500   -9.894300   83.164300
  H     -5.256100  -11.461900   80.969900
  H     -7.572090  -10.254100   88.818700

 Total Charge           Charge          ....    0
 Multiplicity           Mult            ....    1
 Number of Electrons    NEL             ....  134
 Basis Dimension        Dim             ....  322

ORBITAL ENERGIES
----------------

  NO   OCC          E(Eh)            E(eV)
   0   2.0000     -88.967654     -2420.9329
   1   2.0000     -88.963658     -2420.8242
   2   2.0000     -10.330428      -281.1052
   3   2.0000     -10.325900      -280.9820
   4   2.0000     -10.322989      -280.9028
   5   2.0000     -10.312361      -280.6136
   6   2.0000     -10.303980      -280.3855
   7   2.0000     -10.301776      -280.3256
   8   2.0000     -10.293841      -280.1097
   9   2.0000     -10.293154      -280.0910
  10   2.0000     -10.292555      -280.0747
  11   2.0000     -10.292360      -280.0694
  12   2.0000     -10.287381      -279.9339
  13   2.0000     -10.287054      -279.9250
  14   2.0000     -10.281967      -279.7866
  15   2.0000     -10.273947      -279.5683
  16   2.0000      -8.082145      -219.9263
  17   2.0000      -8.077329      -219.7953
  18   2.0000      -6.040558      -164.3719
  19   2.0000      -6.036795      -164.2695
  20   2.0000      -6.036099      -164.2506
  21   2.0000      -6.032913      -164.1639
  22   2.0000      -6.032031      -164.1399
  23   2.0000      -6.027828      -164.0255
  24   2.0000      -1.003806       -27.3149
  25   2.0000      -0.980155       -26.6714
  26   2.0000      -0.916788       -24.9471
  27   2.0000      -0.910864       -24.7859
  28   2.0000      -0.871960       -23.7273
  29   2.0000      -0.850332       -23.1387
  30   2.0000      -0.843920       -22.9642
  31   2.0000      -0.815146       -22.1812
  32   2.0000      -0.784748       -21.3541
  33   2.0000      -0.775662       -21.1068
  34   2.0000      -0.712206       -19.3801
  35   2.0000      -0.701056       -19.0767
  36   2.0000      -0.695681       -18.9304
  37   2.0000      -0.656982       -17.8774
  38   2.0000      -0.648995       -17.6601
  39   2.0000      -0.615320       -16.7437
  40   2.0000      -0.597659       -16.2631
  41   2.0000      -0.575794       -15.6682
  42   2.0000      -0.574530       -15.6338
  43   2.0000      -0.560680       -15.2569
  44   2.0000      -0.527797       -14.3621
  45   2.0000      -0.524259       -14.2658
  46   2.0000      -0.513866       -13.9830
  47   2.0000      -0.510774       -13.8989
  48   2.0000      -0.506610       -13.7856
  49   2.0000      -0.495253       -13.4765
  50   2.0000      -0.490714       -13.3530
  51   2.0000      -0.483827       -13.1656
  52   2.0000      -0.475933       -12.9508
  53   2.0000      -0.466486       -12.6937
  54   2.0000      -0.459388       -12.5006
  55   2.0000      -0.451541       -12.2871
  56   2.0000      -0.444057       -12.0834
  57   2.0000      -0.439530       -11.9602
  58   2.0000      -0.429063       -11.6754
  59   2.0000      -0.427266       -11.6265
  60   2.0000      -0.421312       -11.4645
  61   2.0000      -0.418504       -11.3881
  62   2.0000      -0.415643       -11.3102
  63   2.0000      -0.344531        -9.3752
  64   2.0000      -0.333233        -9.0677
  65   2.0000      -0.327986        -8.9250
  66   2.0000      -0.291890        -7.9427
  67   0.0000       0.027650         0.7524
  68   0.0000       0.065599         1.7850
  69   0.0000       0.102652         2.7933
  70   0.0000       0.122109         3.3228
  71   0.0000       0.130833         3.5601

MULLIKEN ATOMIC CHARGES
-----------------------
   0 S :    0.117863
   1 C :   -0.119151
   2 C :   -0.055859
   3 C :    0.069050
   4 C :   -0.203848
   5 H :   -0.020101
   6 C :    0.080556
   7 H :    0.012490
   8 H :    0.038167
   9 C :   -0.074981
  10 H :    0.026880
  11 H :    0.029058
  12 C :   -0.056036
  13 H :    0.021464
  14 H :    0.037505
  15 H :    0.040471
  16 S :    0.083186
  17 C :   -0.090713
  18 C :   -0.031410
  19 C :   -0.004927
  20 C :   -0.166072
  21 H :    0.013622
  22 C :    0.074891
  23 H :    0.024019
  24 H :    0.032922
  25 C :   -0.136941
  26 H :    0.040466
  27 H :    0.041114
  28 C :    0.005116
  29 H :    0.019543
  30 H :    0.026433
  31 H :    0.024183
  32 H :    0.041011
  33 H :    0.060029
Sum of atomic charges:    0.0000000

LOEWDIN ATOMIC CHARGES
----------------------
   0 S :    0.407786
   1 C :   -0.192510
   2 C :   -0.058309
   3 C :   -0.051911
   4 C :   -0.194086
   5 H :    0.017870
   6 C :   -0.031045
   7 H :    0.026451
   8 H :    0.039386
   9 C :   -0.042814
  10 H :    0.022303
  11 H :    0.026134
  12 C :   -0.067952
  13 H :    0.028411
  14 H :    0.026688
  15 H :    0.026149
  16 S :    0.362538
  17 C :   -0.158666
  18 C :   -0.068092
  19 C :   -0.056146
  20 C :   -0.195088
  21 H :    0.027919
  22 C :   -0.033703
  23 H :    0.023826
  24 H :    0.035900
  25 C :   -0.044324
  26 H :    0.027900
  27 H :    0.024632
  28 C :   -0.058773
  29 H :    0.021229
  30 H :    0.028120
  31 H :    0.024259
  32 H :    0.023659
  33 H :    0.032258

  Mayer bond orders larger than 0.100000
B(  0-S ,  1-C ) :   1.1326 B(  0-S ,  4-C ) :   1.1661 B(  1-C ,  2-C ) :   1.6206
B(  1-C ,  4-C ) :   0.1025 B(  1-C , 32-H ) :   0.9644 B(  2-C ,  3-C ) :   1.2054
B(  2-C ,  6-C ) :   1.0309 B(  3-C ,  4-C ) :   1.5521 B(  3-C ,  5-H ) :   1.0099
B(  4-C , 20-C ) :   1.0445 B(  6-C ,  7-H ) :   0.9328 B(  6-C ,  8-H ) :   0.9347
B(  6-C ,  9-C ) :   1.0616 B(  9-C , 10-H ) :   0.9603 B(  9-C , 11-H ) :   0.9522
B(  9-C , 12-C ) :   1.0762 B( 12-C , 13-H ) :   0.9744 B( 12-C , 14-H ) :   0.9770
B( 12-C , 15-H ) :   0.9759 B( 16-S , 17-C ) :   1.1231 B( 16-S , 20-C ) :   1.1223
B( 17-C , 18-C ) :   1.6447 B( 17-C , 33-H ) :   0.9660 B( 18-C , 19-C ) :   1.2100
B( 18-C , 21-H ) :   0.9879 B( 19-C , 20-C ) :   1.6351 B( 19-C , 22-C ) :   1.0380
B( 22-C , 23-H ) :   0.9317 B( 22-C , 24-H ) :   0.9309 B( 22-C , 25-C ) :   1.0630
B( 25-C , 26-H ) :   0.9471 B( 25-C , 27-H ) :   0.9631 B( 25-C , 28-C ) :   1.0712
B( 28-C , 29-H ) :   0.9729 B( 28-C , 30-H ) :   0.9734 B( 28-C , 31-H ) :   0.9759

Dispersion correction           -0.013309635
FINAL SINGLE POINT ENERGY     -1339.874801716056

DIPOLE MOMENT
-------------
                                X             Y             Z
Electronic contribution:     18.75066     -13.85196      19.12428
Nuclear contribution   :    -19.22110      14.28300     -19.42592
                        -----------------------------------------
Total Dipole Moment    :     -0.47044       0.43104      -0.30164
                        -----------------------------------------
Magnitude (a.u.)       :      0.70576
Magnitude (Debye)      :      1.79391

Rotational constants in cm-1:     0.016772     0.008286     0.006239
Rotational constants in MHz :   502.818495   248.399473   187.031434

                             ****ORCA TERMINATED NORMALLY****
TOTAL RUN TIME: 0 days 0 hours 0 minutes 33 seconds 284 msec
