                         Program Version 4.2.1 -  RELEASE  -
|  1> ! wB97X-D3 SP def2-SVP
|  2> %pal
|  3> nprocs 16
|  4> end
|  5>
|  6> * xyz 0 1
|  7> S 	 -1.49211 	 -9.33466 	 85.6576
|  8> C 	 -0.729147 	 -10.9489 	 85.7268
|  9> C 	 -1.54116 	 -11.9586 	 85.2308
| 10> C 	 -2.78749 	 -11.3791 	 84.6899
| 11> C 	 -2.98887 	 -10.0767 	 85.0447
| 12> H 	 -3.48762 	 -12.0166 	 84.1293
| 13> C 	 -1.26863 	 -13.4091 	 85.2343
| 14> H 	 -0.227724 	 -13.6357 	 85.273
| 15> H 	 -1.66373 	 -13.9553 	 84.3354
| 16> C 	 -1.94459 	 -14.1841 	 86.3933
| 17> H 	 -1.59456 	 -13.8287 	 87.3724
| 18> H 	 -2.97466 	 -14.0239 	 86.3299
| 19> C 	 -1.66728 	 -15.7226 	 86.3433
| 20> H 	 -2.04758 	 -15.9814 	 85.4097
| 21> H 	 -0.583516 	 -15.9751 	 86.3883
| 22> H 	 -2.23192 	 -16.3377 	 87.0182
| 23> S 	 -4.07257 	 -8.10843 	 83.6477
| 24> C 	 -5.85816 	 -7.95975 	 83.4578
| 25> C 	 -6.46449 	 -8.7599 	 84.3622
| 26> C 	 -5.53494 	 -9.62229 	 85.0722
| 27> C 	 -4.1889 	 -9.41286 	 84.7869
| 28> H 	 -7.53328 	 -8.7749 	 84.6304
| 29> C 	 -6.07331 	 -10.4929 	 86.2308
| 30> H 	 -6.74008 	 -9.88384 	 86.7575
| 31> H 	 -5.20685 	 -10.681 	 86.8883
| 32> C 	 -6.64997 	 -11.8145 	 85.7199
| 33> H 	 -5.96678 	 -12.2414 	 85.0426
| 34> H 	 -7.53936 	 -11.6046 	 85.1612
| 35> C 	 -7.03894 	 -12.7877 	 86.8256
| 36> H 	 -6.05679 	 -12.9855 	 87.2608
| 37> H 	 -7.56631 	 -13.716 	 86.6209
| 38> H 	 -7.58948 	 -12.2304 	 87.5284
| 39> H 	 0.299436 	 -11.0231 	 86.0156
| 40> H 	 -6.35184 	 -7.20398 	 82.8753
| 41> *
| 42>
| 43>                          ****END OF INPUT****

CARTESIAN COORDINATES (ANGSTROEM)
---------------------------------
  S     -1.492110   -9.334660   85.657600
  C     -0.729147  -10.948900   85.726800
  C     -1.541160  -11.958600   85.230800
  C     -2.787490  -11.379100   84.689900
  C     -2.988870  -10.076700   85.044700
  H     -3.487620  -12.016600   84.129300
  C     -1.268630  -13.409100   85.234300
  H     -0.227724  -13.635700   85.273000
  H     -1.663730  -13.955300   84.335400
  C     -1.944590  -14.184100   86.393300
  H     -1.594560  -13.828700   87.372400
  H     -2.974660  -14.023900   86.329900
  C     -1.667280  -15.722600   86.343300
  H     -2.047580  -15.981400   85.409700
  H     -0.583516  -15.975100   86.388300
  H     -2.231920  -16.337700   87.018200
  S     -4.072570   -8.108430   83.647700
  C     -5.858160   -7.959750   83.457800
  C     -6.464490   -8.759900   84.362200
  C     -5.534940   -9.622290   85.072200
  C     -4.188900   -9.412860   84.786900
  H     -7.533280   -8.774900   84.630400
  C     -6.073310  -10.492900   86.230800
  H     -6.740080   -9.883840   86.757500
  H     -5.206850  -10.681000   86.888300
  C     -6.649970  -11.814500   85.719900
  H     -5.966780  -12.241400   85.042600
  H     -7.539360  -11.604600   85.161200
  C     -7.038940  -12.787700   86.825600
  H     -6.056790  -12.985500   87.260800
  H     -7.566310  -13.716000   86.620900
  H     -7.589480  -12.230400   87.528400
  H      0.299436  -11.023100   86.015600
  H     -6.351840   -7.203980   82.875300

 Total Charge           Charge          ....    0
 Multiplicity           Mult            ....    1
 Number of Electrons    NEL             ....  134
 Basis Dimension        Dim             ....  322

ORBITAL ENERGIES
----------------

  NO   OCC          E(Eh)            E(eV)
   0   2.0000     -88.967350     -2420.9247
   1   2.0000     -88.958594     -2420.6864
   2   2.0000     -10.328989      -281.0661
   3   2.0000     -10.322815      -280.8981
   4   2.0000     -10.320407      -280.8326
   5   2.0000     -10.319744      -280.8145
   6   2.0000     -10.307829      -280.4903
   7   2.0000     -10.305284      -280.4210
   8   2.0000     -10.300528      -280.2916
   9   2.0000     -10.297290      -280.2035
  10   2.0000     -10.295261      -280.1483
  11   2.0000     -10.288303      -279.9589
  12   2.0000     -10.286027      -279.8970
  13   2.0000     -10.277742      -279.6716
  14   2.0000     -10.277122      -279.6547
  15   2.0000     -10.271827      -279.5106
  16   2.0000      -8.081344      -219.9045
  17   2.0000      -8.073523      -219.6917
  18   2.0000      -6.040048      -164.3581
  19   2.0000      -6.036197      -164.2533
  20   2.0000      -6.032217      -164.1450
  21   2.0000      -6.031686      -164.1305
  22   2.0000      -6.027958      -164.0291
  23   2.0000      -6.024085      -163.9237
  24   2.0000      -1.007402       -27.4128
  25   2.0000      -0.978705       -26.6319
  26   2.0000      -0.916010       -24.9259
  27   2.0000      -0.910541       -24.7771
  28   2.0000      -0.878926       -23.9168
  29   2.0000      -0.849094       -23.1050
  30   2.0000      -0.844597       -22.9826
  31   2.0000      -0.818383       -22.2693
  32   2.0000      -0.781042       -21.2532
  33   2.0000      -0.769493       -20.9390
  34   2.0000      -0.711763       -19.3681
  35   2.0000      -0.703577       -19.1453
  36   2.0000      -0.699251       -19.0276
  37   2.0000      -0.666974       -18.1493
  38   2.0000      -0.645735       -17.5713
  39   2.0000      -0.622811       -16.9475
  40   2.0000      -0.593713       -16.1557
  41   2.0000      -0.574015       -15.6198
  42   2.0000      -0.571948       -15.5635
  43   2.0000      -0.563118       -15.3232
  44   2.0000      -0.531693       -14.4681
  45   2.0000      -0.522956       -14.2304
  46   2.0000      -0.519659       -14.1406
  47   2.0000      -0.517427       -14.0799
  48   2.0000      -0.508292       -13.8313
  49   2.0000      -0.504251       -13.7214
  50   2.0000      -0.500299       -13.6138
  51   2.0000      -0.479691       -13.0531
  52   2.0000      -0.467839       -12.7305
  53   2.0000      -0.461634       -12.5617
  54   2.0000      -0.459565       -12.5054
  55   2.0000      -0.449713       -12.2373
  56   2.0000      -0.443434       -12.0665
  57   2.0000      -0.438154       -11.9228
  58   2.0000      -0.436051       -11.8655
  59   2.0000      -0.432887       -11.7795
  60   2.0000      -0.420710       -11.4481
  61   2.0000      -0.416508       -11.3338
  62   2.0000      -0.409577       -11.1452
  63   2.0000      -0.347914        -9.4672
  64   2.0000      -0.328309        -8.9337
  65   2.0000      -0.322267        -8.7693
  66   2.0000      -0.298785        -8.1303
  67   0.0000       0.028055         0.7634
  68   0.0000       0.065028         1.7695
  69   0.0000       0.102237         2.7820
  70   0.0000       0.112340         3.0569
  71   0.0000       0.121026         3.2933

MULLIKEN ATOMIC CHARGES
-----------------------
   0 S :    0.100456
   1 C :   -0.119654
   2 C :   -0.054417
   3 C :    0.018886
   4 C :   -0.131411
   5 H :    0.032362
   6 C :    0.045530
   7 H :    0.013731
   8 H :    0.027152
   9 C :   -0.068965
  10 H :    0.028562
  11 H :    0.015574
  12 C :   -0.023095
  13 H :    0.001689
  14 H :    0.039637
  15 H :    0.032974
  16 S :    0.076679
  17 C :   -0.077150
  18 C :   -0.014628
  19 C :   -0.079037
  20 C :   -0.142988
  21 H :    0.031735
  22 C :    0.061616
  23 H :    0.014258
  24 H :    0.028561
  25 C :   -0.051198
  26 H :    0.010262
  27 H :    0.011469
  28 C :   -0.009875
  29 H :    0.021459
  30 H :    0.042591
  31 H :    0.012511
  32 H :    0.047646
  33 H :    0.057075
Sum of atomic charges:   -0.0000000

LOEWDIN ATOMIC CHARGES
----------------------
   0 S :    0.370665
   1 C :   -0.174405
   2 C :   -0.056649
   3 C :   -0.046812
   4 C :   -0.194264
   5 H :    0.034967
   6 C :   -0.035520
   7 H :    0.025398
   8 H :    0.036203
   9 C :   -0.028052
  10 H :    0.021350
  11 H :    0.013334
  12 C :   -0.061136
  13 H :    0.013405
  14 H :    0.029946
  15 H :    0.025766
  16 S :    0.385511
  17 C :   -0.162571
  18 C :   -0.073001
  19 C :   -0.050509
  20 C :   -0.202007
  21 H :    0.037479
  22 C :   -0.020383
  23 H :    0.020932
  24 H :    0.032504
  25 C :   -0.034981
  26 H :    0.013847
  27 H :    0.016626
  28 C :   -0.061503
  29 H :    0.026310
  30 H :    0.027055
  31 H :    0.017869
  32 H :    0.023311
  33 H :    0.029315

  Mayer bond orders larger than 0.100000
B(  0-S ,  1-C ) :   1.1135 B(  0-S ,  4-C ) :   1.1097 B(  1-C ,  2-C ) :   1.6399
B(  1-C , 32-H ) :   0.9713 B(  2-C ,  3-C ) :   1.1941 B(  2-C ,  6-C ) :   1.0530
B(  3-C ,  4-C ) :   1.6053 B(  3-C ,  5-H ) :   0.9881 B(  4-C , 20-C ) :   1.0626
B(  6-C ,  7-H ) :   0.9383 B(  6-C ,  8-H ) :   0.9376 B(  6-C ,  9-C ) :   1.0530
B(  9-C , 10-H ) :   0.9572 B(  9-C , 11-H ) :   0.9587 B(  9-C , 12-C ) :   1.0758
B( 12-C , 13-H ) :   0.9718 B( 12-C , 14-H ) :   0.9772 B( 12-C , 15-H ) :   0.9748
B( 16-S , 17-C ) :   1.1374 B( 16-S , 20-C ) :   1.1227 B( 17-C , 18-C ) :   1.6166
B( 17-C , 33-H ) :   0.9703 B( 18-C , 19-C ) :   1.2335 B( 18-C , 21-H ) :   0.9806
B( 19-C , 20-C ) :   1.6154 B( 19-C , 22-C ) :   1.0342 B( 22-C , 23-H ) :   0.9394
B( 22-C , 24-H ) :   0.9432 B( 22-C , 25-C ) :   1.0561 B( 25-C , 26-H ) :   0.9592
B( 25-C , 27-H ) :   0.9525 B( 25-C , 28-C ) :   1.0746 B( 28-C , 29-H ) :   0.9760
B( 28-C , 30-H ) :   0.9762 B( 28-C , 31-H ) :   0.9702

Dispersion correction           -0.014246524
FINAL SINGLE POINT ENERGY     -1339.865302349479

DIPOLE MOMENT
-------------
                                X             Y             Z
Electronic contribution:      8.64900      30.13584     -10.32850
Nuclear contribution   :     -9.00383     -30.75280      10.47416
                        -----------------------------------------
Total Dipole Moment    :     -0.35483      -0.61696       0.14566
                        -----------------------------------------
Magnitude (a.u.)       :      0.72647
Magnitude (Debye)      :      1.84655

Rotational constants in cm-1:     0.016984     0.009624     0.006676
Rotational constants in MHz :   509.177197   288.521232   200.133563

                             ****ORCA TERMINATED NORMALLY****
TOTAL RUN TIME: 0 days 0 hours 0 minutes 34 seconds 394 msec
