                         Program Version 4.2.1 -  RELEASE  -
|  1> ! wB97X-D3 SP def2-SVP
|  2> %pal
|  3> nprocs 16
|  4> end
|  5>
|  6> * xyz 0 1
|  7> S 	 -37.74 	 55.0118 	 115.559
|  8> C 	 -38.2588 	 56.2928 	 116.5
|  9> C 	 -39.5932 	 56.1953 	 116.945
| 10> C 	 -40.1235 	 54.9465 	 116.559
| 11> C 	 -39.2872 	 54.2389 	 115.685
| 12> H 	 -41.1377 	 54.6167 	 116.832
| 13> C 	 -40.3072 	 57.1868 	 117.878
| 14> H 	 -39.6104 	 57.9606 	 118.149
| 15> H 	 -40.5231 	 56.6282 	 118.735
| 16> C 	 -41.543 	 57.7541 	 117.236
| 17> H 	 -42.337 	 57.0094 	 117.27
| 18> H 	 -41.9758 	 58.5324 	 117.828
| 19> C 	 -41.3226 	 58.4418 	 115.858
| 20> H 	 -40.987 	 59.495 	 115.958
| 21> H 	 -40.5118 	 57.921 	 115.287
| 22> H 	 -42.2805 	 58.3488 	 115.308
| 23> S 	 -38.3056 	 51.8256 	 115.107
| 24> C 	 -39.1521 	 50.6772 	 114.203
| 25> C 	 -40.2725 	 51.2121 	 113.655
| 26> C 	 -40.6024 	 52.5272 	 114.216
| 27> C 	 -39.6158 	 52.9549 	 115.051
| 28> H 	 -40.8558 	 50.6467 	 112.894
| 29> C 	 -41.822 	 53.2586 	 113.824
| 30> H 	 -42.1603 	 53.0003 	 112.794
| 31> H 	 -41.5051 	 54.278 	 113.669
| 32> C 	 -42.9752 	 53.2527 	 114.835
| 33> H 	 -42.6437 	 53.4901 	 115.788
| 34> H 	 -43.3703 	 52.1694 	 114.917
| 35> C 	 -44.0819 	 54.2379 	 114.4
| 36> H 	 -44.2403 	 54.0587 	 113.334
| 37> H 	 -43.7483 	 55.312 	 114.504
| 38> H 	 -45.0251 	 54.1417 	 114.988
| 39> H 	 -37.7421 	 57.2582 	 116.718
| 40> H 	 -38.7455 	 49.6865 	 113.762
| 41> *
| 42>
| 43>                          ****END OF INPUT****

CARTESIAN COORDINATES (ANGSTROEM)
---------------------------------
  S    -37.740000   55.011800  115.559000
  C    -38.258800   56.292800  116.500000
  C    -39.593200   56.195300  116.945000
  C    -40.123500   54.946500  116.559000
  C    -39.287200   54.238900  115.685000
  H    -41.137700   54.616700  116.832000
  C    -40.307200   57.186800  117.878000
  H    -39.610400   57.960600  118.149000
  H    -40.523100   56.628200  118.735000
  C    -41.543000   57.754100  117.236000
  H    -42.337000   57.009400  117.270000
  H    -41.975800   58.532400  117.828000
  C    -41.322600   58.441800  115.858000
  H    -40.987000   59.495000  115.958000
  H    -40.511800   57.921000  115.287000
  H    -42.280500   58.348800  115.308000
  S    -38.305600   51.825600  115.107000
  C    -39.152100   50.677200  114.203000
  C    -40.272500   51.212100  113.655000
  C    -40.602400   52.527200  114.216000
  C    -39.615800   52.954900  115.051000
  H    -40.855800   50.646700  112.894000
  C    -41.822000   53.258600  113.824000
  H    -42.160300   53.000300  112.794000
  H    -41.505100   54.278000  113.669000
  C    -42.975200   53.252700  114.835000
  H    -42.643700   53.490100  115.788000
  H    -43.370300   52.169400  114.917000
  C    -44.081900   54.237900  114.400000
  H    -44.240300   54.058700  113.334000
  H    -43.748300   55.312000  114.504000
  H    -45.025100   54.141700  114.988000
  H    -37.742100   57.258200  116.718000
  H    -38.745500   49.686500  113.762000

 Total Charge           Charge          ....    0
 Multiplicity           Mult            ....    1
 Number of Electrons    NEL             ....  134
 Basis Dimension        Dim             ....  322

ORBITAL ENERGIES
----------------

  NO   OCC          E(Eh)            E(eV)
   0   2.0000     -88.974079     -2421.1078
   1   2.0000     -88.959766     -2420.7183
   2   2.0000     -10.329233      -281.0727
   3   2.0000     -10.322067      -280.8777
   4   2.0000     -10.313848      -280.6541
   5   2.0000     -10.311375      -280.5868
   6   2.0000     -10.300944      -280.3029
   7   2.0000     -10.298489      -280.2361
   8   2.0000     -10.294652      -280.1317
   9   2.0000     -10.293514      -280.1007
  10   2.0000     -10.288747      -279.9710
  11   2.0000     -10.288231      -279.9570
  12   2.0000     -10.287714      -279.9429
  13   2.0000     -10.286032      -279.8972
  14   2.0000     -10.283578      -279.8304
  15   2.0000     -10.282920      -279.8125
  16   2.0000      -8.089780      -220.1341
  17   2.0000      -8.076439      -219.7711
  18   2.0000      -6.048057      -164.5760
  19   2.0000      -6.044132      -164.4692
  20   2.0000      -6.040739      -164.3769
  21   2.0000      -6.034960      -164.2196
  22   2.0000      -6.030667      -164.1028
  23   2.0000      -6.027073      -164.0050
  24   2.0000      -1.016621       -27.6637
  25   2.0000      -0.994330       -27.0571
  26   2.0000      -0.916347       -24.9351
  27   2.0000      -0.913145       -24.8479
  28   2.0000      -0.868687       -23.6382
  29   2.0000      -0.853063       -23.2130
  30   2.0000      -0.847579       -23.0638
  31   2.0000      -0.812002       -22.0957
  32   2.0000      -0.782796       -21.3010
  33   2.0000      -0.770778       -20.9739
  34   2.0000      -0.707347       -19.2479
  35   2.0000      -0.701265       -19.0824
  36   2.0000      -0.688055       -18.7229
  37   2.0000      -0.659652       -17.9501
  38   2.0000      -0.632798       -17.2193
  39   2.0000      -0.624213       -16.9857
  40   2.0000      -0.596127       -16.2215
  41   2.0000      -0.565767       -15.3953
  42   2.0000      -0.561821       -15.2879
  43   2.0000      -0.555443       -15.1144
  44   2.0000      -0.545798       -14.8519
  45   2.0000      -0.523621       -14.2485
  46   2.0000      -0.520186       -14.1550
  47   2.0000      -0.509097       -13.8532
  48   2.0000      -0.498959       -13.5774
  49   2.0000      -0.496432       -13.5086
  50   2.0000      -0.488217       -13.2851
  51   2.0000      -0.477908       -13.0045
  52   2.0000      -0.475281       -12.9331
  53   2.0000      -0.462058       -12.5732
  54   2.0000      -0.455444       -12.3933
  55   2.0000      -0.453506       -12.3405
  56   2.0000      -0.444082       -12.0841
  57   2.0000      -0.441209       -12.0059
  58   2.0000      -0.435791       -11.8585
  59   2.0000      -0.431456       -11.7405
  60   2.0000      -0.421380       -11.4663
  61   2.0000      -0.414436       -11.2774
  62   2.0000      -0.411044       -11.1851
  63   2.0000      -0.352080        -9.5806
  64   2.0000      -0.334954        -9.1146
  65   2.0000      -0.325673        -8.8620
  66   2.0000      -0.290323        -7.9001
  67   0.0000       0.034780         0.9464
  68   0.0000       0.073624         2.0034
  69   0.0000       0.115835         3.1520
  70   0.0000       0.118793         3.2325
  71   0.0000       0.127685         3.4745

MULLIKEN ATOMIC CHARGES
-----------------------
   0 S :    0.156898
   1 C :   -0.125306
   2 C :   -0.159937
   3 C :    0.016460
   4 C :   -0.143388
   5 H :    0.013165
   6 C :    0.147182
   7 H :    0.005689
   8 H :    0.024324
   9 C :   -0.076683
  10 H :    0.020784
  11 H :    0.020352
  12 C :   -0.087477
  13 H :    0.041299
  14 H :    0.052502
  15 H :    0.045373
  16 S :    0.095231
  17 C :   -0.098402
  18 C :   -0.062702
  19 C :   -0.033214
  20 C :   -0.156375
  21 H :    0.029960
  22 C :    0.049608
  23 H :    0.019546
  24 H :    0.017212
  25 C :   -0.038896
  26 H :    0.000337
  27 H :    0.036734
  28 C :   -0.066978
  29 H :    0.030963
  30 H :    0.039738
  31 H :    0.046457
  32 H :    0.056535
  33 H :    0.083010
Sum of atomic charges:   -0.0000000

LOEWDIN ATOMIC CHARGES
----------------------
   0 S :    0.457646
   1 C :   -0.241059
   2 C :   -0.064584
   3 C :   -0.063039
   4 C :   -0.207337
   5 H :    0.030761
   6 C :   -0.020194
   7 H :    0.026157
   8 H :    0.028740
   9 C :   -0.046692
  10 H :    0.020520
  11 H :    0.023026
  12 C :   -0.071668
  13 H :    0.028189
  14 H :    0.029945
  15 H :    0.032008
  16 S :    0.425561
  17 C :   -0.222989
  18 C :   -0.078430
  19 C :   -0.057066
  20 C :   -0.198761
  21 H :    0.036058
  22 C :   -0.038785
  23 H :    0.033332
  24 H :    0.030228
  25 C :   -0.033456
  26 H :    0.005806
  27 H :    0.032901
  28 C :   -0.070011
  29 H :    0.024128
  30 H :    0.030120
  31 H :    0.030213
  32 H :    0.037172
  33 H :    0.051560

  Mayer bond orders larger than 0.100000
B(  0-S ,  1-C ) :   1.1725 B(  0-S ,  4-C ) :   1.1710 B(  1-C ,  2-C ) :   1.5708
B(  1-C , 32-H ) :   0.9517 B(  2-C ,  3-C ) :   1.2904 B(  2-C ,  6-C ) :   1.0178
B(  3-C ,  4-C ) :   1.5306 B(  3-C ,  5-H ) :   0.9882 B(  4-C , 20-C ) :   1.0348
B(  6-C ,  7-H ) :   0.9362 B(  6-C ,  8-H ) :   0.9372 B(  6-C ,  9-C ) :   1.0797
B(  9-C , 10-H ) :   0.9589 B(  9-C , 11-H ) :   0.9537 B(  9-C , 12-C ) :   1.0587
B( 12-C , 13-H ) :   0.9760 B( 12-C , 14-H ) :   0.9772 B( 12-C , 15-H ) :   0.9747
B( 16-S , 17-C ) :   1.1553 B( 16-S , 20-C ) :   1.1371 B( 17-C , 18-C ) :   1.6370
B( 17-C , 33-H ) :   0.9506 B( 18-C , 19-C ) :   1.2224 B( 18-C , 21-H ) :   0.9850
B( 19-C , 20-C ) :   1.6161 B( 19-C , 22-C ) :   1.0557 B( 22-C , 23-H ) :   0.9305
B( 22-C , 24-H ) :   0.9238 B( 22-C , 25-C ) :   1.0616 B( 25-C , 26-H ) :   0.9555
B( 25-C , 27-H ) :   0.9499 B( 25-C , 28-C ) :   1.0744 B( 28-C , 29-H ) :   0.9741
B( 28-C , 30-H ) :   0.9740 B( 28-C , 31-H ) :   0.9744

Dispersion correction           -0.015188525
FINAL SINGLE POINT ENERGY     -1339.879310834021

DIPOLE MOMENT
-------------
                                X             Y             Z
Electronic contribution:     26.47982     -16.06293      -0.67132
Nuclear contribution   :    -26.99477      16.37700       0.62375
                        -----------------------------------------
Total Dipole Moment    :     -0.51496       0.31407      -0.04757
                        -----------------------------------------
Magnitude (a.u.)       :      0.60505
Magnitude (Debye)      :      1.53791

Rotational constants in cm-1:     0.018151     0.010490     0.007161
Rotational constants in MHz :   544.166296   314.488336   214.677653

                             ****ORCA TERMINATED NORMALLY****
TOTAL RUN TIME: 0 days 0 hours 0 minutes 31 seconds 499 msec
