                         Program Version 4.2.1 -  RELEASE  -
|  1> ! wB97X-D3 SP def2-SVP
|  2> %pal
|  3> nprocs 16
|  4> end
|  5>
|  6> * xyz 0 1
|  7> S 	 -38.3623 	 30.0818 	 94.0196
|  8> C 	 -39.1284 	 30.6239 	 95.4409
|  9> C 	 -40.4363 	 31.0387 	 95.1896
| 10> C 	 -40.744 	 30.8972 	 93.775
| 11> C 	 -39.6763 	 30.5028 	 93.0026
| 12> H 	 -41.6906 	 30.8968 	 93.3449
| 13> C 	 -41.347 	 31.6201 	 96.2313
| 14> H 	 -41.5095 	 30.8858 	 96.9957
| 15> H 	 -42.3852 	 31.8271 	 95.9336
| 16> C 	 -40.8646 	 33.0009 	 96.7072
| 17> H 	 -41.3229 	 33.268 	 97.7374
| 18> H 	 -39.8084 	 32.9582 	 96.9152
| 19> C 	 -41.2499 	 34.1125 	 95.7343
| 20> H 	 -41.1454 	 33.8913 	 94.675
| 21> H 	 -42.2877 	 34.2076 	 95.8968
| 22> H 	 -40.8202 	 35.0695 	 96.0411
| 23> S 	 -39.1991 	 31.3635 	 90.4416
| 24> C 	 -39.3429 	 30.2845 	 89.1312
| 25> C 	 -39.9715 	 29.1005 	 89.5094
| 26> C 	 -40.2143 	 28.9665 	 90.9606
| 27> C 	 -39.8199 	 30.1636 	 91.5812
| 28> H 	 -40.0443 	 28.2954 	 88.7707
| 29> C 	 -40.5936 	 27.6879 	 91.617
| 30> H 	 -40.8468 	 26.9071 	 90.9543
| 31> H 	 -41.5166 	 27.9152 	 92.1726
| 32> C 	 -39.5744 	 27.0771 	 92.661
| 33> H 	 -40.039 	 26.1617 	 93.0544
| 34> H 	 -39.4561 	 27.6878 	 93.6052
| 35> C 	 -38.3068 	 26.6248 	 91.9573
| 36> H 	 -37.714 	 27.4036 	 91.4872
| 37> H 	 -38.6204 	 25.9186 	 91.167
| 38> H 	 -37.6196 	 26.1171 	 92.634
| 39> H 	 -38.6317 	 30.7142 	 96.3733
| 40> H 	 -39.118 	 30.5885 	 88.088
| 41> *
| 42>
| 43>                          ****END OF INPUT****

CARTESIAN COORDINATES (ANGSTROEM)
---------------------------------
  S    -38.362300   30.081800   94.019600
  C    -39.128400   30.623900   95.440900
  C    -40.436300   31.038700   95.189600
  C    -40.744000   30.897200   93.775000
  C    -39.676300   30.502800   93.002600
  H    -41.690600   30.896800   93.344900
  C    -41.347000   31.620100   96.231300
  H    -41.509500   30.885800   96.995700
  H    -42.385200   31.827100   95.933600
  C    -40.864600   33.000900   96.707200
  H    -41.322900   33.268000   97.737400
  H    -39.808400   32.958200   96.915200
  C    -41.249900   34.112500   95.734300
  H    -41.145400   33.891300   94.675000
  H    -42.287700   34.207600   95.896800
  H    -40.820200   35.069500   96.041100
  S    -39.199100   31.363500   90.441600
  C    -39.342900   30.284500   89.131200
  C    -39.971500   29.100500   89.509400
  C    -40.214300   28.966500   90.960600
  C    -39.819900   30.163600   91.581200
  H    -40.044300   28.295400   88.770700
  C    -40.593600   27.687900   91.617000
  H    -40.846800   26.907100   90.954300
  H    -41.516600   27.915200   92.172600
  C    -39.574400   27.077100   92.661000
  H    -40.039000   26.161700   93.054400
  H    -39.456100   27.687800   93.605200
  C    -38.306800   26.624800   91.957300
  H    -37.714000   27.403600   91.487200
  H    -38.620400   25.918600   91.167000
  H    -37.619600   26.117100   92.634000
  H    -38.631700   30.714200   96.373300
  H    -39.118000   30.588500   88.088000

 Total Charge           Charge          ....    0
 Multiplicity           Mult            ....    1
 Number of Electrons    NEL             ....  134
 Basis Dimension        Dim             ....  322

ORBITAL ENERGIES
----------------

  NO   OCC          E(Eh)            E(eV)
   0   2.0000     -88.966533     -2420.9024
   1   2.0000     -88.963026     -2420.8070
   2   2.0000     -10.325681      -280.9761
   3   2.0000     -10.321145      -280.8526
   4   2.0000     -10.317505      -280.7536
   5   2.0000     -10.311220      -280.5826
   6   2.0000     -10.310692      -280.5682
   7   2.0000     -10.303259      -280.3659
   8   2.0000     -10.297485      -280.2088
   9   2.0000     -10.290911      -280.0299
  10   2.0000     -10.290054      -280.0066
  11   2.0000     -10.289921      -280.0030
  12   2.0000     -10.288767      -279.9716
  13   2.0000     -10.288088      -279.9531
  14   2.0000     -10.272705      -279.5345
  15   2.0000     -10.271106      -279.4910
  16   2.0000      -8.081943      -219.9209
  17   2.0000      -8.078463      -219.8262
  18   2.0000      -6.040328      -164.3657
  19   2.0000      -6.036897      -164.2723
  20   2.0000      -6.036191      -164.2531
  21   2.0000      -6.032923      -164.1642
  22   2.0000      -6.032740      -164.1592
  23   2.0000      -6.029404      -164.0684
  24   2.0000      -1.008792       -27.4506
  25   2.0000      -0.984678       -26.7944
  26   2.0000      -0.914103       -24.8740
  27   2.0000      -0.906538       -24.6682
  28   2.0000      -0.867562       -23.6075
  29   2.0000      -0.848131       -23.0788
  30   2.0000      -0.845471       -23.0064
  31   2.0000      -0.811523       -22.0827
  32   2.0000      -0.784192       -21.3389
  33   2.0000      -0.771628       -20.9971
  34   2.0000      -0.703491       -19.1430
  35   2.0000      -0.699600       -19.0371
  36   2.0000      -0.683093       -18.5879
  37   2.0000      -0.657130       -17.8814
  38   2.0000      -0.653151       -17.7731
  39   2.0000      -0.609461       -16.5843
  40   2.0000      -0.592155       -16.1134
  41   2.0000      -0.575459       -15.6590
  42   2.0000      -0.558857       -15.2073
  43   2.0000      -0.553611       -15.0645
  44   2.0000      -0.543668       -14.7940
  45   2.0000      -0.534368       -14.5409
  46   2.0000      -0.512591       -13.9483
  47   2.0000      -0.508380       -13.8337
  48   2.0000      -0.498161       -13.5556
  49   2.0000      -0.495975       -13.4962
  50   2.0000      -0.491381       -13.3712
  51   2.0000      -0.474599       -12.9145
  52   2.0000      -0.472259       -12.8508
  53   2.0000      -0.469111       -12.7651
  54   2.0000      -0.462104       -12.5745
  55   2.0000      -0.445306       -12.1174
  56   2.0000      -0.436162       -11.8686
  57   2.0000      -0.435279       -11.8445
  58   2.0000      -0.429490       -11.6870
  59   2.0000      -0.424767       -11.5585
  60   2.0000      -0.418753       -11.3949
  61   2.0000      -0.415040       -11.2938
  62   2.0000      -0.411842       -11.2068
  63   2.0000      -0.331135        -9.0106
  64   2.0000      -0.326070        -8.8728
  65   2.0000      -0.317640        -8.6434
  66   2.0000      -0.312569        -8.5054
  67   0.0000       0.045729         1.2443
  68   0.0000       0.055318         1.5053
  69   0.0000       0.112384         3.0581
  70   0.0000       0.123352         3.3566
  71   0.0000       0.126032         3.4295

MULLIKEN ATOMIC CHARGES
-----------------------
   0 S :    0.125517
   1 C :   -0.113415
   2 C :   -0.085280
   3 C :    0.060788
   4 C :   -0.153435
   5 H :   -0.005101
   6 C :    0.071499
   7 H :    0.029618
   8 H :    0.011218
   9 C :   -0.099073
  10 H :    0.031444
  11 H :    0.020426
  12 C :   -0.021948
  13 H :    0.045264
  14 H :    0.010561
  15 H :    0.035573
  16 S :    0.117449
  17 C :   -0.107606
  18 C :   -0.049401
  19 C :   -0.013186
  20 C :   -0.216341
  21 H :    0.024585
  22 C :    0.091699
  23 H :    0.007624
  24 H :    0.033343
  25 C :   -0.094196
  26 H :    0.022604
  27 H :    0.051609
  28 C :   -0.043106
  29 H :    0.039687
  30 H :    0.023408
  31 H :    0.032971
  32 H :    0.042188
  33 H :    0.073015
Sum of atomic charges:   -0.0000000

LOEWDIN ATOMIC CHARGES
----------------------
   0 S :    0.459070
   1 C :   -0.203589
   2 C :   -0.060329
   3 C :   -0.051236
   4 C :   -0.222380
   5 H :    0.021409
   6 C :   -0.038890
   7 H :    0.029846
   8 H :    0.030416
   9 C :   -0.039169
  10 H :    0.030046
  11 H :    0.012166
  12 C :   -0.062260
  13 H :    0.028155
  14 H :    0.019489
  15 H :    0.029522
  16 S :    0.421517
  17 C :   -0.205744
  18 C :   -0.079724
  19 C :   -0.045230
  20 C :   -0.201739
  21 H :    0.030179
  22 C :   -0.032086
  23 H :    0.024327
  24 H :    0.039956
  25 C :   -0.045581
  26 H :    0.024865
  27 H :    0.019911
  28 C :   -0.068770
  29 H :    0.023863
  30 H :    0.026855
  31 H :    0.025919
  32 H :    0.022365
  33 H :    0.036853

  Mayer bond orders larger than 0.100000
B(  0-S ,  1-C ) :   1.1690 B(  0-S ,  4-C ) :   1.1663 B(  1-C ,  2-C ) :   1.5699
B(  1-C , 32-H ) :   0.9737 B(  2-C ,  3-C ) :   1.2547 B(  2-C ,  6-C ) :   1.0286
B(  3-C ,  4-C ) :   1.5678 B(  3-C ,  5-H ) :   1.0034 B(  4-C , 20-C ) :   1.0053
B(  6-C ,  7-H ) :   0.9355 B(  6-C ,  8-H ) :   0.9473 B(  6-C ,  9-C ) :   1.0608
B(  9-C , 10-H ) :   0.9553 B(  9-C , 11-H ) :   0.9640 B(  9-C , 12-C ) :   1.0644
B( 12-C , 13-H ) :   0.9782 B( 12-C , 14-H ) :   0.9718 B( 12-C , 15-H ) :   0.9717
B( 16-S , 17-C ) :   1.1689 B( 16-S , 20-C ) :   1.1584 B( 17-C , 18-C ) :   1.6129
B( 17-C , 33-H ) :   0.9619 B( 18-C , 19-C ) :   1.2221 B( 18-C , 21-H ) :   0.9836
B( 19-C , 20-C ) :   1.5893 B( 19-C , 22-C ) :   1.0568 B( 22-C , 23-H ) :   0.9354
B( 22-C , 24-H ) :   0.9193 B( 22-C , 25-C ) :   1.0755 B( 25-C , 26-H ) :   0.9504
B( 25-C , 27-H ) :   0.9509 B( 25-C , 28-C ) :   1.0654 B( 28-C , 29-H ) :   0.9772
B( 28-C , 30-H ) :   0.9726 B( 28-C , 31-H ) :   0.9737

Dispersion correction           -0.015773273
FINAL SINGLE POINT ENERGY     -1339.879399000222

DIPOLE MOMENT
-------------
                                X             Y             Z
Electronic contribution:      7.95774       3.62439     -12.21613
Nuclear contribution   :     -8.28316      -3.90785      12.46187
                        -----------------------------------------
Total Dipole Moment    :     -0.32542      -0.28346       0.24573
                        -----------------------------------------
Magnitude (a.u.)       :      0.49662
Magnitude (Debye)      :      1.26230

Rotational constants in cm-1:     0.022409     0.008751     0.007294
Rotational constants in MHz :   671.799540   262.348047   218.672667

                             ****ORCA TERMINATED NORMALLY****
TOTAL RUN TIME: 0 days 0 hours 0 minutes 30 seconds 879 msec
