                         Program Version 4.2.1 -  RELEASE  -
|  1> ! wB97X-D3 SP def2-SVP
|  2> %pal
|  3> nprocs 16
|  4> end
|  5>
|  6> * xyz 0 1
|  7> S 	 -40.4733 	 -7.44035 	 98.7201
|  8> C 	 -41.8694 	 -8.13398 	 98.0266
|  9> C 	 -43.0139 	 -7.68785 	 98.723
| 10> C 	 -42.6638 	 -6.91764 	 99.8881
| 11> C 	 -41.3013 	 -6.73701 	 100.05
| 12> H 	 -43.416 	 -6.42243 	 100.558
| 13> C 	 -44.4845 	 -7.94431 	 98.3985
| 14> H 	 -44.5027 	 -7.82443 	 97.3091
| 15> H 	 -45.1351 	 -7.19086 	 98.8243
| 16> C 	 -44.8656 	 -9.3728 	 98.8673
| 17> H 	 -44.0784 	 -10.1363 	 98.7147
| 18> H 	 -44.901 	 -9.41707 	 99.9137
| 19> C 	 -46.1923 	 -9.84966 	 98.2881
| 20> H 	 -46.0809 	 -9.97553 	 97.1925
| 21> H 	 -46.4264 	 -10.8246 	 98.6892
| 22> H 	 -47.2057 	 -9.40797 	 98.4572
| 23> S 	 -39.4481 	 -4.6575 	 100.372
| 24> C 	 -38.8503 	 -4.32507 	 101.907
| 25> C 	 -39.5173 	 -5.00386 	 102.926
| 26> C 	 -40.4933 	 -5.96409 	 102.432
| 27> C 	 -40.5501 	 -5.92054 	 101.033
| 28> H 	 -39.2814 	 -4.65938 	 103.88
| 29> C 	 -41.3649 	 -6.79926 	 103.391
| 30> H 	 -40.755 	 -7.10651 	 104.204
| 31> H 	 -41.762 	 -7.72392 	 102.826
| 32> C 	 -42.6387 	 -6.15046 	 103.93
| 33> H 	 -43.2643 	 -5.87576 	 103.04
| 34> H 	 -42.4291 	 -5.14088 	 104.324
| 35> C 	 -43.3255 	 -7.03541 	 104.926
| 36> H 	 -44.2848 	 -6.6293 	 105.237
| 37> H 	 -42.65 	 -7.10622 	 105.753
| 38> H 	 -43.3868 	 -8.02527 	 104.424
| 39> H 	 -41.9031 	 -8.70604 	 97.1068
| 40> H 	 -38.2418 	 -3.45652 	 102.196
| 41> *
| 42>
| 43>                          ****END OF INPUT****

CARTESIAN COORDINATES (ANGSTROEM)
---------------------------------
  S    -40.473300   -7.440350   98.720100
  C    -41.869400   -8.133980   98.026600
  C    -43.013900   -7.687850   98.723000
  C    -42.663800   -6.917640   99.888100
  C    -41.301300   -6.737010  100.050000
  H    -43.416000   -6.422430  100.558000
  C    -44.484500   -7.944310   98.398500
  H    -44.502700   -7.824430   97.309100
  H    -45.135100   -7.190860   98.824300
  C    -44.865600   -9.372800   98.867300
  H    -44.078400  -10.136300   98.714700
  H    -44.901000   -9.417070   99.913700
  C    -46.192300   -9.849660   98.288100
  H    -46.080900   -9.975530   97.192500
  H    -46.426400  -10.824600   98.689200
  H    -47.205700   -9.407970   98.457200
  S    -39.448100   -4.657500  100.372000
  C    -38.850300   -4.325070  101.907000
  C    -39.517300   -5.003860  102.926000
  C    -40.493300   -5.964090  102.432000
  C    -40.550100   -5.920540  101.033000
  H    -39.281400   -4.659380  103.880000
  C    -41.364900   -6.799260  103.391000
  H    -40.755000   -7.106510  104.204000
  H    -41.762000   -7.723920  102.826000
  C    -42.638700   -6.150460  103.930000
  H    -43.264300   -5.875760  103.040000
  H    -42.429100   -5.140880  104.324000
  C    -43.325500   -7.035410  104.926000
  H    -44.284800   -6.629300  105.237000
  H    -42.650000   -7.106220  105.753000
  H    -43.386800   -8.025270  104.424000
  H    -41.903100   -8.706040   97.106800
  H    -38.241800   -3.456520  102.196000

 Total Charge           Charge          ....    0
 Multiplicity           Mult            ....    1
 Number of Electrons    NEL             ....  134
 Basis Dimension        Dim             ....  322

ORBITAL ENERGIES
----------------

  NO   OCC          E(Eh)            E(eV)
   0   2.0000     -88.966755     -2420.9085
   1   2.0000     -88.965273     -2420.8682
   2   2.0000     -10.333412      -281.1864
   3   2.0000     -10.327908      -281.0367
   4   2.0000     -10.313955      -280.6570
   5   2.0000     -10.313099      -280.6337
   6   2.0000     -10.312622      -280.6207
   7   2.0000     -10.303294      -280.3669
   8   2.0000     -10.296735      -280.1884
   9   2.0000     -10.296521      -280.1826
  10   2.0000     -10.294212      -280.1198
  11   2.0000     -10.290526      -280.0194
  12   2.0000     -10.287427      -279.9351
  13   2.0000     -10.286583      -279.9122
  14   2.0000     -10.279531      -279.7203
  15   2.0000     -10.279115      -279.7089
  16   2.0000      -8.081925      -219.9204
  17   2.0000      -8.081138      -219.8990
  18   2.0000      -6.040300      -164.3649
  19   2.0000      -6.039533      -164.3441
  20   2.0000      -6.036376      -164.2581
  21   2.0000      -6.035285      -164.2284
  22   2.0000      -6.032788      -164.1605
  23   2.0000      -6.032140      -164.1429
  24   2.0000      -1.007221       -27.4079
  25   2.0000      -0.985294       -26.8112
  26   2.0000      -0.914206       -24.8768
  27   2.0000      -0.910065       -24.7641
  28   2.0000      -0.865892       -23.5621
  29   2.0000      -0.854514       -23.2525
  30   2.0000      -0.846169       -23.0254
  31   2.0000      -0.812114       -22.0987
  32   2.0000      -0.783011       -21.3068
  33   2.0000      -0.770202       -20.9583
  34   2.0000      -0.708321       -19.2744
  35   2.0000      -0.700264       -19.0551
  36   2.0000      -0.688480       -18.7345
  37   2.0000      -0.658122       -17.9084
  38   2.0000      -0.640166       -17.4198
  39   2.0000      -0.618735       -16.8366
  40   2.0000      -0.595016       -16.1912
  41   2.0000      -0.572029       -15.5657
  42   2.0000      -0.566660       -15.4196
  43   2.0000      -0.555213       -15.1081
  44   2.0000      -0.529995       -14.4219
  45   2.0000      -0.523684       -14.2502
  46   2.0000      -0.519061       -14.1244
  47   2.0000      -0.508137       -13.8271
  48   2.0000      -0.503689       -13.7061
  49   2.0000      -0.502374       -13.6703
  50   2.0000      -0.496037       -13.4979
  51   2.0000      -0.474015       -12.8986
  52   2.0000      -0.470739       -12.8095
  53   2.0000      -0.466471       -12.6933
  54   2.0000      -0.458856       -12.4861
  55   2.0000      -0.450022       -12.2457
  56   2.0000      -0.444460       -12.0944
  57   2.0000      -0.438946       -11.9443
  58   2.0000      -0.436204       -11.8697
  59   2.0000      -0.425200       -11.5703
  60   2.0000      -0.422145       -11.4871
  61   2.0000      -0.411316       -11.1925
  62   2.0000      -0.409189       -11.1346
  63   2.0000      -0.345638        -9.4053
  64   2.0000      -0.332605        -9.0507
  65   2.0000      -0.324308        -8.8249
  66   2.0000      -0.293008        -7.9731
  67   0.0000       0.034776         0.9463
  68   0.0000       0.065971         1.7952
  69   0.0000       0.115488         3.1426
  70   0.0000       0.124433         3.3860
  71   0.0000       0.129167         3.5148

MULLIKEN ATOMIC CHARGES
-----------------------
   0 S :    0.124287
   1 C :   -0.115707
   2 C :   -0.138809
   3 C :    0.012755
   4 C :   -0.147625
   5 H :    0.030776
   6 C :    0.087348
   7 H :    0.028825
   8 H :    0.028112
   9 C :   -0.044230
  10 H :    0.032949
  11 H :    0.008267
  12 C :   -0.061257
  13 H :    0.033032
  14 H :    0.017354
  15 H :    0.037811
  16 S :    0.119382
  17 C :   -0.096800
  18 C :   -0.037513
  19 C :    0.004303
  20 C :   -0.177613
  21 H :   -0.005631
  22 C :    0.039216
  23 H :    0.017514
  24 H :    0.041658
  25 C :   -0.098415
  26 H :    0.021403
  27 H :    0.019435
  28 C :    0.004729
  29 H :    0.041486
  30 H :    0.024564
  31 H :    0.030928
  32 H :    0.051370
  33 H :    0.066092
Sum of atomic charges:    0.0000000

LOEWDIN ATOMIC CHARGES
----------------------
   0 S :    0.447133
   1 C :   -0.221150
   2 C :   -0.061016
   3 C :   -0.075814
   4 C :   -0.212321
   5 H :    0.037474
   6 C :   -0.026091
   7 H :    0.031444
   8 H :    0.030974
   9 C :   -0.038338
  10 H :    0.033637
  11 H :    0.018106
  12 C :   -0.081588
  13 H :    0.026519
  14 H :    0.023959
  15 H :    0.031339
  16 S :    0.415382
  17 C :   -0.211824
  18 C :   -0.070182
  19 C :   -0.045449
  20 C :   -0.187695
  21 H :    0.019676
  22 C :   -0.031869
  23 H :    0.023234
  24 H :    0.040442
  25 C :   -0.050092
  26 H :    0.021838
  27 H :    0.019442
  28 C :   -0.057683
  29 H :    0.028876
  30 H :    0.023415
  31 H :    0.031094
  32 H :    0.030504
  33 H :    0.036623

  Mayer bond orders larger than 0.100000
B(  0-S ,  1-C ) :   1.1627 B(  0-S ,  4-C ) :   1.1844 B(  1-C ,  2-C ) :   1.5623
B(  1-C ,  4-C ) :   0.1016 B(  1-C , 32-H ) :   0.9720 B(  2-C ,  3-C ) :   1.2867
B(  2-C ,  6-C ) :   1.0185 B(  3-C ,  4-C ) :   1.5372 B(  3-C ,  5-H ) :   0.9851
B(  4-C , 20-C ) :   1.0176 B(  6-C ,  7-H ) :   0.9444 B(  6-C ,  8-H ) :   0.9439
B(  6-C ,  9-C ) :   1.0533 B(  9-C , 10-H ) :   0.9561 B(  9-C , 11-H ) :   0.9513
B(  9-C , 12-C ) :   1.0773 B( 12-C , 13-H ) :   0.9771 B( 12-C , 14-H ) :   0.9695
B( 12-C , 15-H ) :   0.9753 B( 16-S , 17-C ) :   1.1689 B( 16-S , 20-C ) :   1.1429
B( 17-C , 18-C ) :   1.6253 B( 17-C , 33-H ) :   0.9573 B( 18-C , 19-C ) :   1.2145
B( 18-C , 21-H ) :   0.9982 B( 19-C , 20-C ) :   1.6038 B( 19-C , 22-C ) :   1.0471
B( 22-C , 23-H ) :   0.9355 B( 22-C , 24-H ) :   0.9287 B( 22-C , 25-C ) :   1.0660
B( 25-C , 26-H ) :   0.9481 B( 25-C , 27-H ) :   0.9509 B( 25-C , 28-C ) :   1.0768
B( 28-C , 29-H ) :   0.9705 B( 28-C , 30-H ) :   0.9730 B( 28-C , 31-H ) :   0.9701

Dispersion correction           -0.013686204
FINAL SINGLE POINT ENERGY     -1339.875742628750

DIPOLE MOMENT
-------------
                                X             Y             Z
Electronic contribution:     26.45299      12.64235     -11.01878
Nuclear contribution   :    -27.01171     -12.66239      11.37603
                        -----------------------------------------
Total Dipole Moment    :     -0.55872      -0.02005       0.35725
                        -----------------------------------------
Magnitude (a.u.)       :      0.66347
Magnitude (Debye)      :      1.68642

Rotational constants in cm-1:     0.017868     0.008525     0.006117
Rotational constants in MHz :   535.681211   255.565580   183.374763

                             ****ORCA TERMINATED NORMALLY****
TOTAL RUN TIME: 0 days 0 hours 0 minutes 28 seconds 892 msec
