                         Program Version 4.2.1 -  RELEASE  -
|  1> ! wB97X-D3 SP def2-SVP
|  2> %pal
|  3> nprocs 16
|  4> end
|  5>
|  6> * xyz 0 1
|  7> S 	 37.0082 	 16.0664 	 78.3002
|  8> C 	 36.3317 	 14.7365 	 77.3758
|  9> C 	 37.0465 	 14.3561 	 76.25
| 10> C 	 38.2229 	 15.1619 	 76.1878
| 11> C 	 38.3555 	 16.1218 	 77.152
| 12> H 	 38.9034 	 15.2921 	 75.3761
| 13> C 	 36.6245 	 13.3435 	 75.1882
| 14> H 	 36.976 	 13.7489 	 74.2395
| 15> H 	 35.4977 	 13.3585 	 75.1365
| 16> C 	 37.2948 	 11.9948 	 75.3732
| 17> H 	 38.3333 	 12.1099 	 75.0313
| 18> H 	 37.4152 	 11.6847 	 76.432
| 19> C 	 36.511 	 10.8436 	 74.6504
| 20> H 	 35.4387 	 10.7901 	 75.0455
| 21> H 	 36.4508 	 11.1508 	 73.6238
| 22> H 	 36.9764 	 9.86393 	 74.6287
| 23> S 	 38.6399 	 18.7304 	 76.932
| 24> C 	 40.1902 	 19.4491 	 76.9896
| 25> C 	 41.2105 	 18.5709 	 77.3071
| 26> C 	 40.7221 	 17.2278 	 77.43
| 27> C 	 39.3392 	 17.1392 	 77.2076
| 28> H 	 42.2737 	 18.828 	 77.3478
| 29> C 	 41.601 	 16.0932 	 77.6554
| 30> H 	 41.0299 	 15.43 	 78.3745
| 31> H 	 42.4885 	 16.4909 	 78.127
| 32> C 	 41.9864 	 15.2352 	 76.515
| 33> H 	 42.1756 	 15.8988 	 75.7019
| 34> H 	 41.1121 	 14.6302 	 76.2303
| 35> C 	 43.1182 	 14.2423 	 76.9318
| 36> H 	 42.9675 	 13.6861 	 77.8835
| 37> H 	 44.022 	 14.8624 	 77.0986
| 38> H 	 43.2603 	 13.4278 	 76.2231
| 39> H 	 35.5887 	 14.1508 	 77.7561
| 40> H 	 40.388 	 20.4724 	 76.8465
| 41> *
| 42>
| 43>                          ****END OF INPUT****

CARTESIAN COORDINATES (ANGSTROEM)
---------------------------------
  S     37.008200   16.066400   78.300200
  C     36.331700   14.736500   77.375800
  C     37.046500   14.356100   76.250000
  C     38.222900   15.161900   76.187800
  C     38.355500   16.121800   77.152000
  H     38.903400   15.292100   75.376100
  C     36.624500   13.343500   75.188200
  H     36.976000   13.748900   74.239500
  H     35.497700   13.358500   75.136500
  C     37.294800   11.994800   75.373200
  H     38.333300   12.109900   75.031300
  H     37.415200   11.684700   76.432000
  C     36.511000   10.843600   74.650400
  H     35.438700   10.790100   75.045500
  H     36.450800   11.150800   73.623800
  H     36.976400    9.863930   74.628700
  S     38.639900   18.730400   76.932000
  C     40.190200   19.449100   76.989600
  C     41.210500   18.570900   77.307100
  C     40.722100   17.227800   77.430000
  C     39.339200   17.139200   77.207600
  H     42.273700   18.828000   77.347800
  C     41.601000   16.093200   77.655400
  H     41.029900   15.430000   78.374500
  H     42.488500   16.490900   78.127000
  C     41.986400   15.235200   76.515000
  H     42.175600   15.898800   75.701900
  H     41.112100   14.630200   76.230300
  C     43.118200   14.242300   76.931800
  H     42.967500   13.686100   77.883500
  H     44.022000   14.862400   77.098600
  H     43.260300   13.427800   76.223100
  H     35.588700   14.150800   77.756100
  H     40.388000   20.472400   76.846500

 Total Charge           Charge          ....    0
 Multiplicity           Mult            ....    1
 Number of Electrons    NEL             ....  134
 Basis Dimension        Dim             ....  322

ORBITAL ENERGIES
----------------

  NO   OCC          E(Eh)            E(eV)
   0   2.0000     -88.966543     -2420.9027
   1   2.0000     -88.963568     -2420.8217
   2   2.0000     -10.323806      -280.9250
   3   2.0000     -10.319621      -280.8112
   4   2.0000     -10.310821      -280.5717
   5   2.0000     -10.307464      -280.4804
   6   2.0000     -10.303215      -280.3647
   7   2.0000     -10.300489      -280.2906
   8   2.0000     -10.299880      -280.2740
   9   2.0000     -10.293256      -280.0937
  10   2.0000     -10.292485      -280.0728
  11   2.0000     -10.289535      -279.9925
  12   2.0000     -10.285095      -279.8717
  13   2.0000     -10.284264      -279.8490
  14   2.0000     -10.282063      -279.7892
  15   2.0000     -10.281681      -279.7788
  16   2.0000      -8.081002      -219.8953
  17   2.0000      -8.079126      -219.8442
  18   2.0000      -6.039385      -164.3400
  19   2.0000      -6.037505      -164.2889
  20   2.0000      -6.035656      -164.2386
  21   2.0000      -6.033486      -164.1795
  22   2.0000      -6.031808      -164.1338
  23   2.0000      -6.029999      -164.0846
  24   2.0000      -1.009403       -27.4672
  25   2.0000      -0.983637       -26.7661
  26   2.0000      -0.920052       -25.0359
  27   2.0000      -0.912113       -24.8199
  28   2.0000      -0.872520       -23.7425
  29   2.0000      -0.851781       -23.1781
  30   2.0000      -0.847335       -23.0572
  31   2.0000      -0.813073       -22.1248
  32   2.0000      -0.782466       -21.2920
  33   2.0000      -0.770050       -20.9541
  34   2.0000      -0.711772       -19.3683
  35   2.0000      -0.701313       -19.0837
  36   2.0000      -0.693664       -18.8756
  37   2.0000      -0.667553       -18.1650
  38   2.0000      -0.651209       -17.7203
  39   2.0000      -0.615391       -16.7456
  40   2.0000      -0.596698       -16.2370
  41   2.0000      -0.572397       -15.5757
  42   2.0000      -0.570634       -15.5277
  43   2.0000      -0.554018       -15.0756
  44   2.0000      -0.528543       -14.3824
  45   2.0000      -0.523418       -14.2429
  46   2.0000      -0.515175       -14.0186
  47   2.0000      -0.509755       -13.8711
  48   2.0000      -0.505552       -13.7568
  49   2.0000      -0.498644       -13.5688
  50   2.0000      -0.495146       -13.4736
  51   2.0000      -0.479498       -13.0478
  52   2.0000      -0.471053       -12.8180
  53   2.0000      -0.465136       -12.6570
  54   2.0000      -0.459368       -12.5000
  55   2.0000      -0.448377       -12.2010
  56   2.0000      -0.443457       -12.0671
  57   2.0000      -0.440053       -11.9745
  58   2.0000      -0.436553       -11.8792
  59   2.0000      -0.430874       -11.7247
  60   2.0000      -0.423714       -11.5298
  61   2.0000      -0.414543       -11.2803
  62   2.0000      -0.410413       -11.1679
  63   2.0000      -0.343107        -9.3364
  64   2.0000      -0.330329        -8.9887
  65   2.0000      -0.327327        -8.9070
  66   2.0000      -0.292848        -7.9688
  67   0.0000       0.036785         1.0010
  68   0.0000       0.056815         1.5460
  69   0.0000       0.114667         3.1202
  70   0.0000       0.122911         3.3446
  71   0.0000       0.127931         3.4812

MULLIKEN ATOMIC CHARGES
-----------------------
   0 S :    0.118112
   1 C :   -0.089708
   2 C :   -0.083594
   3 C :    0.052510
   4 C :   -0.181990
   5 H :    0.008195
   6 C :    0.060768
   7 H :    0.028223
   8 H :    0.041190
   9 C :   -0.083152
  10 H :    0.031152
  11 H :    0.039015
  12 C :   -0.059178
  13 H :    0.046771
  14 H :    0.021863
  15 H :    0.042060
  16 S :    0.115648
  17 C :   -0.058240
  18 C :   -0.048491
  19 C :   -0.017755
  20 C :   -0.196072
  21 H :    0.022680
  22 C :    0.043747
  23 H :    0.037759
  24 H :    0.006196
  25 C :   -0.040522
  26 H :    0.020402
  27 H :    0.023510
  28 C :   -0.055725
  29 H :    0.033415
  30 H :    0.034808
  31 H :    0.036419
  32 H :    0.012691
  33 H :    0.037294
Sum of atomic charges:    0.0000000

LOEWDIN ATOMIC CHARGES
----------------------
   0 S :    0.393660
   1 C :   -0.177199
   2 C :   -0.056401
   3 C :   -0.059192
   4 C :   -0.198648
   5 H :    0.026736
   6 C :   -0.031012
   7 H :    0.033837
   8 H :    0.037206
   9 C :   -0.045005
  10 H :    0.026502
  11 H :    0.024794
  12 C :   -0.069797
  13 H :    0.034661
  14 H :    0.019918
  15 H :    0.025470
  16 S :    0.426120
  17 C :   -0.187273
  18 C :   -0.075451
  19 C :   -0.051724
  20 C :   -0.203422
  21 H :    0.034530
  22 C :   -0.041902
  23 H :    0.042136
  24 H :    0.025726
  25 C :   -0.038356
  26 H :    0.019661
  27 H :    0.024095
  28 C :   -0.067408
  29 H :    0.030900
  30 H :    0.027159
  31 H :    0.025306
  32 H :    0.005331
  33 H :    0.019043

  Mayer bond orders larger than 0.100000
B(  0-S ,  1-C ) :   1.1414 B(  0-S ,  4-C ) :   1.1282 B(  1-C ,  2-C ) :   1.6271
B(  1-C , 32-H ) :   0.9721 B(  2-C ,  3-C ) :   1.2236 B(  2-C ,  6-C ) :   1.0164
B(  3-C ,  4-C ) :   1.6216 B(  3-C ,  5-H ) :   0.9769 B(  4-C , 20-C ) :   1.0515
B(  6-C ,  7-H ) :   0.9358 B(  6-C ,  8-H ) :   0.9528 B(  6-C ,  9-C ) :   1.0384
B(  9-C , 10-H ) :   0.9536 B(  9-C , 11-H ) :   0.9673 B(  9-C , 12-C ) :   1.0690
B( 12-C , 13-H ) :   0.9775 B( 12-C , 14-H ) :   0.9740 B( 12-C , 15-H ) :   0.9765
B( 16-S , 17-C ) :   1.1733 B( 16-S , 20-C ) :   1.1437 B( 17-C , 18-C ) :   1.5924
B( 17-C , 20-C ) :   0.1007 B( 17-C , 33-H ) :   0.9697 B( 18-C , 19-C ) :   1.2466
B( 18-C , 21-H ) :   0.9878 B( 19-C , 20-C ) :   1.5726 B( 19-C , 22-C ) :   1.0689
B( 22-C , 23-H ) :   0.9146 B( 22-C , 24-H ) :   0.9284 B( 22-C , 25-C ) :   1.0787
B( 25-C , 26-H ) :   0.9561 B( 25-C , 27-H ) :   0.9420 B( 25-C , 28-C ) :   1.0722
B( 28-C , 29-H ) :   0.9732 B( 28-C , 30-H ) :   0.9765 B( 28-C , 31-H ) :   0.9756

Dispersion correction           -0.014105875
FINAL SINGLE POINT ENERGY     -1339.873610125380

DIPOLE MOMENT
-------------
                                X             Y             Z
Electronic contribution:    -10.85812      26.00802      10.62174
Nuclear contribution   :     11.16659     -26.41291     -10.98715
                        -----------------------------------------
Total Dipole Moment    :      0.30847      -0.40489      -0.36541
                        -----------------------------------------
Magnitude (a.u.)       :      0.62659
Magnitude (Debye)      :      1.59267

Rotational constants in cm-1:     0.018023     0.008668     0.006505
Rotational constants in MHz :   540.330415   259.859814   195.022433

                             ****ORCA TERMINATED NORMALLY****
TOTAL RUN TIME: 0 days 0 hours 0 minutes 29 seconds 967 msec
