                         Program Version 4.2.1 -  RELEASE  -
|  1> ! wB97X-D3 SP def2-SVP
|  2> %pal
|  3> nprocs 16
|  4> end
|  5>
|  6> * xyz 0 1
|  7> S 	 -7.42897 	 75.8881 	 49.4387
|  8> C 	 -6.31789 	 77.1864 	 49.9331
|  9> C 	 -5.48751 	 77.4667 	 48.876
| 10> C 	 -5.58322 	 76.5665 	 47.7579
| 11> C 	 -6.7448 	 75.7653 	 47.8458
| 12> H 	 -4.97382 	 76.6477 	 46.9298
| 13> C 	 -4.4294 	 78.4908 	 49.0352
| 14> H 	 -4.77044 	 79.2203 	 49.7687
| 15> H 	 -4.32913 	 79.044 	 48.0786
| 16> C 	 -3.04626 	 77.9581 	 49.434
| 17> H 	 -3.08351 	 77.2909 	 50.3045
| 18> H 	 -2.75647 	 77.1893 	 48.6726
| 19> C 	 -1.91235 	 78.974 	 49.5765
| 20> H 	 -2.17046 	 79.8154 	 50.2184
| 21> H 	 -1.0047 	 78.6292 	 50.021
| 22> H 	 -1.70108 	 79.4124 	 48.6138
| 23> S 	 -7.92964 	 73.1953 	 47.6116
| 24> C 	 -8.33431 	 72.6202 	 46.0078
| 25> C 	 -7.73317 	 73.4143 	 44.9929
| 26> C 	 -7.19617 	 74.6045 	 45.5469
| 27> C 	 -7.17553 	 74.7067 	 46.9233
| 28> H 	 -7.93082 	 73.1805 	 43.9356
| 29> C 	 -6.78354 	 75.6804 	 44.64
| 30> H 	 -6.49109 	 75.3326 	 43.6182
| 31> H 	 -5.7594 	 75.9406 	 44.9336
| 32> C 	 -7.80784 	 76.884 	 44.484
| 33> H 	 -7.9616 	 77.3935 	 45.3845
| 34> H 	 -8.73345 	 76.3814 	 44.2171
| 35> C 	 -7.57342 	 77.9379 	 43.4149
| 36> H 	 -8.28306 	 78.7899 	 43.5076
| 37> H 	 -7.66783 	 77.5528 	 42.4264
| 38> H 	 -6.64561 	 78.4286 	 43.4327
| 39> H 	 -6.41874 	 77.9593 	 50.6452
| 40> H 	 -8.76163 	 71.6341 	 45.7526
| 41> *
| 42>
| 43>                          ****END OF INPUT****

CARTESIAN COORDINATES (ANGSTROEM)
---------------------------------
  S     -7.428970   75.888100   49.438700
  C     -6.317890   77.186400   49.933100
  C     -5.487510   77.466700   48.876000
  C     -5.583220   76.566500   47.757900
  C     -6.744800   75.765300   47.845800
  H     -4.973820   76.647700   46.929800
  C     -4.429400   78.490800   49.035200
  H     -4.770440   79.220300   49.768700
  H     -4.329130   79.044000   48.078600
  C     -3.046260   77.958100   49.434000
  H     -3.083510   77.290900   50.304500
  H     -2.756470   77.189300   48.672600
  C     -1.912350   78.974000   49.576500
  H     -2.170460   79.815400   50.218400
  H     -1.004700   78.629200   50.021000
  H     -1.701080   79.412400   48.613800
  S     -7.929640   73.195300   47.611600
  C     -8.334310   72.620200   46.007800
  C     -7.733170   73.414300   44.992900
  C     -7.196170   74.604500   45.546900
  C     -7.175530   74.706700   46.923300
  H     -7.930820   73.180500   43.935600
  C     -6.783540   75.680400   44.640000
  H     -6.491090   75.332600   43.618200
  H     -5.759400   75.940600   44.933600
  C     -7.807840   76.884000   44.484000
  H     -7.961600   77.393500   45.384500
  H     -8.733450   76.381400   44.217100
  C     -7.573420   77.937900   43.414900
  H     -8.283060   78.789900   43.507600
  H     -7.667830   77.552800   42.426400
  H     -6.645610   78.428600   43.432700
  H     -6.418740   77.959300   50.645200
  H     -8.761630   71.634100   45.752600

 Total Charge           Charge          ....    0
 Multiplicity           Mult            ....    1
 Number of Electrons    NEL             ....  134
 Basis Dimension        Dim             ....  322

ORBITAL ENERGIES
----------------

  NO   OCC          E(Eh)            E(eV)
   0   2.0000     -88.970334     -2421.0059
   1   2.0000     -88.969193     -2420.9748
   2   2.0000     -10.340676      -281.3841
   3   2.0000     -10.334724      -281.2221
   4   2.0000     -10.326336      -280.9939
   5   2.0000     -10.309576      -280.5378
   6   2.0000     -10.303390      -280.3695
   7   2.0000     -10.300074      -280.2793
   8   2.0000     -10.298579      -280.2386
   9   2.0000     -10.294969      -280.1404
  10   2.0000     -10.293215      -280.0926
  11   2.0000     -10.292523      -280.0738
  12   2.0000     -10.289384      -279.9884
  13   2.0000     -10.283698      -279.8336
  14   2.0000     -10.275807      -279.6189
  15   2.0000     -10.272117      -279.5185
  16   2.0000      -8.083659      -219.9675
  17   2.0000      -8.083382      -219.9600
  18   2.0000      -6.042271      -164.4185
  19   2.0000      -6.042119      -164.4144
  20   2.0000      -6.038323      -164.3111
  21   2.0000      -6.037835      -164.2979
  22   2.0000      -6.034417      -164.2048
  23   2.0000      -6.034033      -164.1944
  24   2.0000      -1.004357       -27.3299
  25   2.0000      -0.982174       -26.7263
  26   2.0000      -0.914154       -24.8754
  27   2.0000      -0.905567       -24.6417
  28   2.0000      -0.868439       -23.6314
  29   2.0000      -0.857561       -23.3354
  30   2.0000      -0.844980       -22.9931
  31   2.0000      -0.816693       -22.2233
  32   2.0000      -0.784303       -21.3420
  33   2.0000      -0.773207       -21.0400
  34   2.0000      -0.715332       -19.4652
  35   2.0000      -0.703397       -19.1404
  36   2.0000      -0.697824       -18.9888
  37   2.0000      -0.664745       -18.0886
  38   2.0000      -0.639215       -17.3939
  39   2.0000      -0.624297       -16.9880
  40   2.0000      -0.592191       -16.1143
  41   2.0000      -0.572569       -15.5804
  42   2.0000      -0.563652       -15.3377
  43   2.0000      -0.554499       -15.0887
  44   2.0000      -0.528645       -14.3852
  45   2.0000      -0.525783       -14.3073
  46   2.0000      -0.516792       -14.0626
  47   2.0000      -0.510947       -13.9036
  48   2.0000      -0.508744       -13.8436
  49   2.0000      -0.504342       -13.7238
  50   2.0000      -0.496643       -13.5143
  51   2.0000      -0.482131       -13.1195
  52   2.0000      -0.472430       -12.8555
  53   2.0000      -0.460098       -12.5199
  54   2.0000      -0.459936       -12.5155
  55   2.0000      -0.453245       -12.3334
  56   2.0000      -0.447266       -12.1707
  57   2.0000      -0.439736       -11.9658
  58   2.0000      -0.427430       -11.6310
  59   2.0000      -0.426395       -11.6028
  60   2.0000      -0.420850       -11.4519
  61   2.0000      -0.410902       -11.1812
  62   2.0000      -0.407309       -11.0835
  63   2.0000      -0.355961        -9.6862
  64   2.0000      -0.333999        -9.0886
  65   2.0000      -0.330708        -8.9990
  66   2.0000      -0.285623        -7.7722
  67   0.0000       0.013805         0.3757
  68   0.0000       0.071113         1.9351
  69   0.0000       0.096743         2.6325
  70   0.0000       0.110943         3.0189
  71   0.0000       0.136524         3.7150

MULLIKEN ATOMIC CHARGES
-----------------------
   0 S :    0.099105
   1 C :   -0.076175
   2 C :   -0.129097
   3 C :    0.051694
   4 C :   -0.114331
   5 H :   -0.015551
   6 C :    0.061363
   7 H :    0.013670
   8 H :    0.024714
   9 C :   -0.083112
  10 H :    0.023962
  11 H :    0.022988
  12 C :   -0.010315
  13 H :    0.019871
  14 H :    0.030318
  15 H :    0.023224
  16 S :    0.100520
  17 C :   -0.108172
  18 C :   -0.041240
  19 C :   -0.045708
  20 C :   -0.121229
  21 H :    0.037999
  22 C :    0.036725
  23 H :    0.009492
  24 H :    0.011464
  25 C :   -0.023079
  26 H :    0.027552
  27 H :    0.025226
  28 C :   -0.030933
  29 H :    0.033481
  30 H :    0.019479
  31 H :    0.013582
  32 H :    0.039904
  33 H :    0.072608
Sum of atomic charges:   -0.0000000

LOEWDIN ATOMIC CHARGES
----------------------
   0 S :    0.404452
   1 C :   -0.196273
   2 C :   -0.056268
   3 C :   -0.055740
   4 C :   -0.180515
   5 H :    0.014649
   6 C :   -0.035022
   7 H :    0.027193
   8 H :    0.031494
   9 C :   -0.046547
  10 H :    0.024745
  11 H :    0.027249
  12 C :   -0.064338
  13 H :    0.024483
  14 H :    0.026202
  15 H :    0.023441
  16 S :    0.380469
  17 C :   -0.184311
  18 C :   -0.073738
  19 C :   -0.060708
  20 C :   -0.176693
  21 H :    0.038873
  22 C :   -0.041429
  23 H :    0.031917
  24 H :    0.026262
  25 C :   -0.027395
  26 H :    0.019144
  27 H :    0.028556
  28 C :   -0.063806
  29 H :    0.034962
  30 H :    0.019279
  31 H :    0.016436
  32 H :    0.026538
  33 H :    0.036441

  Mayer bond orders larger than 0.100000
B(  0-S ,  1-C ) :   1.1125 B(  0-S ,  4-C ) :   1.1649 B(  1-C ,  2-C ) :   1.6172
B(  1-C , 32-H ) :   0.9593 B(  2-C ,  3-C ) :   1.2480 B(  2-C ,  6-C ) :   1.0567
B(  3-C ,  4-C ) :   1.5234 B(  3-C ,  5-H ) :   0.9973 B(  4-C , 20-C ) :   1.0750
B(  6-C ,  7-H ) :   0.9349 B(  6-C ,  8-H ) :   0.9321 B(  6-C ,  9-C ) :   1.0558
B(  9-C , 10-H ) :   0.9547 B(  9-C , 11-H ) :   0.9528 B(  9-C , 12-C ) :   1.0790
B( 12-C , 13-H ) :   0.9740 B( 12-C , 14-H ) :   0.9737 B( 12-C , 15-H ) :   0.9738
B( 16-S , 17-C ) :   1.1705 B( 16-S , 20-C ) :   1.1057 B( 17-C , 18-C ) :   1.5916
B( 17-C , 20-C ) :   0.1001 B( 17-C , 33-H ) :   0.9590 B( 18-C , 19-C ) :   1.2580
B( 18-C , 21-H ) :   0.9842 B( 19-C , 20-C ) :   1.5952 B( 19-C , 22-C ) :   1.0631
B( 22-C , 23-H ) :   0.9319 B( 22-C , 24-H ) :   0.9244 B( 22-C , 25-C ) :   1.0359
B( 25-C , 26-H ) :   0.9602 B( 25-C , 27-H ) :   0.9545 B( 25-C , 28-C ) :   1.0923
B( 28-C , 29-H ) :   0.9719 B( 28-C , 30-H ) :   0.9747 B( 28-C , 31-H ) :   0.9735

Dispersion correction           -0.013866347
FINAL SINGLE POINT ENERGY     -1339.864230958166

DIPOLE MOMENT
-------------
                                X             Y             Z
Electronic contribution:    -16.17584     -21.53079      11.33204
Nuclear contribution   :     16.49770      21.94568     -11.85986
                        -----------------------------------------
Total Dipole Moment    :      0.32186       0.41489      -0.52783
                        -----------------------------------------
Magnitude (a.u.)       :      0.74454
Magnitude (Debye)      :      1.89246

Rotational constants in cm-1:     0.018274     0.008156     0.006472
Rotational constants in MHz :   547.840191   244.524904   194.019953

                             ****ORCA TERMINATED NORMALLY****
TOTAL RUN TIME: 0 days 0 hours 0 minutes 31 seconds 323 msec
