                         Program Version 4.2.1 -  RELEASE  -
|  1> ! wB97X-D3 SP def2-SVP
|  2> %pal
|  3> nprocs 16
|  4> end
|  5>
|  6> * xyz 0 1
|  7> S 	 0.994275 	 -20.3827 	 86.6648
|  8> C 	 2.05543 	 -21.1378 	 87.8413
|  9> C 	 3.00868 	 -20.2957 	 88.4028
| 10> C 	 2.96756 	 -19.0886 	 87.6499
| 11> C 	 2.02569 	 -18.9186 	 86.6605
| 12> H 	 3.75332 	 -18.3142 	 87.7299
| 13> C 	 3.85491 	 -20.5056 	 89.6846
| 14> H 	 3.82279 	 -21.5645 	 89.8743
| 15> H 	 3.30773 	 -19.9817 	 90.4987
| 16> C 	 5.23555 	 -20.063 	 89.5912
| 17> H 	 5.77554 	 -20.5607 	 88.815
| 18> H 	 5.31113 	 -19.074 	 89.2547
| 19> C 	 6.08195 	 -20.2488 	 90.9288
| 20> H 	 7.08291 	 -19.8459 	 90.7863
| 21> H 	 5.72787 	 -19.6501 	 91.8036
| 22> H 	 6.21615 	 -21.3193 	 91.1178
| 23> S 	 0.356613 	 -17.0177 	 85.8583
| 24> C 	 0.969537 	 -15.5337 	 85.197
| 25> C 	 2.20133 	 -15.7526 	 84.6887
| 26> C 	 2.78567 	 -16.9871 	 85.105
| 27> C 	 1.89489 	 -17.7188 	 85.8514
| 28> H 	 2.57761 	 -14.9185 	 84.1605
| 29> C 	 4.26549 	 -17.4358 	 84.8674
| 30> H 	 4.38012 	 -18.5343 	 84.6799
| 31> H 	 4.7811 	 -17.3386 	 85.8381
| 32> C 	 4.89529 	 -16.8638 	 83.621
| 33> H 	 4.76663 	 -15.752 	 83.6366
| 34> H 	 4.35853 	 -17.2184 	 82.6993
| 35> C 	 6.35404 	 -17.2629 	 83.5199
| 36> H 	 7.02336 	 -16.9759 	 84.2912
| 37> H 	 6.67041 	 -16.833 	 82.5342
| 38> H 	 6.42792 	 -18.371 	 83.402
| 39> H 	 1.78904 	 -22.0734 	 88.1837
| 40> H 	 0.351897 	 -14.7418 	 85.0461
| 41> *
| 42>
| 43>                          ****END OF INPUT****

CARTESIAN COORDINATES (ANGSTROEM)
---------------------------------
  S      0.994275  -20.382700   86.664800
  C      2.055430  -21.137800   87.841300
  C      3.008680  -20.295700   88.402800
  C      2.967560  -19.088600   87.649900
  C      2.025690  -18.918600   86.660500
  H      3.753320  -18.314200   87.729900
  C      3.854910  -20.505600   89.684600
  H      3.822790  -21.564500   89.874300
  H      3.307730  -19.981700   90.498700
  C      5.235550  -20.063000   89.591200
  H      5.775540  -20.560700   88.815000
  H      5.311130  -19.074000   89.254700
  C      6.081950  -20.248800   90.928800
  H      7.082910  -19.845900   90.786300
  H      5.727870  -19.650100   91.803600
  H      6.216150  -21.319300   91.117800
  S      0.356613  -17.017700   85.858300
  C      0.969537  -15.533700   85.197000
  C      2.201330  -15.752600   84.688700
  C      2.785670  -16.987100   85.105000
  C      1.894890  -17.718800   85.851400
  H      2.577610  -14.918500   84.160500
  C      4.265490  -17.435800   84.867400
  H      4.380120  -18.534300   84.679900
  H      4.781100  -17.338600   85.838100
  C      4.895290  -16.863800   83.621000
  H      4.766630  -15.752000   83.636600
  H      4.358530  -17.218400   82.699300
  C      6.354040  -17.262900   83.519900
  H      7.023360  -16.975900   84.291200
  H      6.670410  -16.833000   82.534200
  H      6.427920  -18.371000   83.402000
  H      1.789040  -22.073400   88.183700
  H      0.351897  -14.741800   85.046100

 Total Charge           Charge          ....    0
 Multiplicity           Mult            ....    1
 Number of Electrons    NEL             ....  134
 Basis Dimension        Dim             ....  322

ORBITAL ENERGIES
----------------

  NO   OCC          E(Eh)            E(eV)
   0   2.0000     -88.965939     -2420.8863
   1   2.0000     -88.956349     -2420.6253
   2   2.0000     -10.328725      -281.0589
   3   2.0000     -10.318816      -280.7893
   4   2.0000     -10.311363      -280.5864
   5   2.0000     -10.304793      -280.4077
   6   2.0000     -10.304385      -280.3966
   7   2.0000     -10.303907      -280.3836
   8   2.0000     -10.295788      -280.1626
   9   2.0000     -10.294977      -280.1406
  10   2.0000     -10.291759      -280.0530
  11   2.0000     -10.291083      -280.0346
  12   2.0000     -10.289882      -280.0019
  13   2.0000     -10.286967      -279.9226
  14   2.0000     -10.281114      -279.7633
  15   2.0000     -10.280688      -279.7518
  16   2.0000      -8.079962      -219.8669
  17   2.0000      -8.073435      -219.6893
  18   2.0000      -6.038557      -164.3175
  19   2.0000      -6.034683      -164.2121
  20   2.0000      -6.031725      -164.1316
  21   2.0000      -6.030576      -164.1003
  22   2.0000      -6.027739      -164.0231
  23   2.0000      -6.024144      -163.9253
  24   2.0000      -1.013709       -27.5844
  25   2.0000      -0.985515       -26.8172
  26   2.0000      -0.917781       -24.9741
  27   2.0000      -0.910450       -24.7746
  28   2.0000      -0.875869       -23.8336
  29   2.0000      -0.850401       -23.1406
  30   2.0000      -0.842017       -22.9125
  31   2.0000      -0.817161       -22.2361
  32   2.0000      -0.783533       -21.3210
  33   2.0000      -0.774349       -21.0711
  34   2.0000      -0.713616       -19.4185
  35   2.0000      -0.700743       -19.0682
  36   2.0000      -0.697069       -18.9682
  37   2.0000      -0.657727       -17.8977
  38   2.0000      -0.643951       -17.5228
  39   2.0000      -0.622344       -16.9348
  40   2.0000      -0.603869       -16.4321
  41   2.0000      -0.573267       -15.5994
  42   2.0000      -0.567937       -15.4543
  43   2.0000      -0.563630       -15.3371
  44   2.0000      -0.535028       -14.5589
  45   2.0000      -0.523741       -14.2517
  46   2.0000      -0.518555       -14.1106
  47   2.0000      -0.508138       -13.8271
  48   2.0000      -0.503642       -13.7048
  49   2.0000      -0.500704       -13.6249
  50   2.0000      -0.496426       -13.5084
  51   2.0000      -0.480874       -13.0852
  52   2.0000      -0.470622       -12.8063
  53   2.0000      -0.467225       -12.7138
  54   2.0000      -0.461898       -12.5689
  55   2.0000      -0.447674       -12.1818
  56   2.0000      -0.444587       -12.0978
  57   2.0000      -0.441817       -12.0224
  58   2.0000      -0.435910       -11.8617
  59   2.0000      -0.423640       -11.5278
  60   2.0000      -0.419006       -11.4017
  61   2.0000      -0.415575       -11.3084
  62   2.0000      -0.404596       -11.0096
  63   2.0000      -0.351172        -9.5559
  64   2.0000      -0.331325        -9.0158
  65   2.0000      -0.324953        -8.8424
  66   2.0000      -0.290986        -7.9181
  67   0.0000       0.034989         0.9521
  68   0.0000       0.065572         1.7843
  69   0.0000       0.113486         3.0881
  70   0.0000       0.125256         3.4084
  71   0.0000       0.132288         3.5997

MULLIKEN ATOMIC CHARGES
-----------------------
   0 S :    0.103393
   1 C :   -0.108581
   2 C :   -0.075144
   3 C :   -0.015621
   4 C :   -0.124787
   5 H :    0.014423
   6 C :    0.133621
   7 H :    0.010989
   8 H :    0.051577
   9 C :   -0.083818
  10 H :    0.018803
  11 H :    0.013906
  12 C :   -0.062552
  13 H :    0.027230
  14 H :    0.042950
  15 H :    0.040375
  16 S :    0.093995
  17 C :   -0.063456
  18 C :   -0.040441
  19 C :   -0.002145
  20 C :   -0.159630
  21 H :    0.008106
  22 C :    0.037009
  23 H :    0.033855
  24 H :    0.038512
  25 C :   -0.111933
  26 H :    0.033564
  27 H :    0.046215
  28 C :   -0.034877
  29 H :    0.034449
  30 H :    0.034934
  31 H :    0.031163
  32 H :    0.015507
  33 H :    0.018409
Sum of atomic charges:    0.0000000

LOEWDIN ATOMIC CHARGES
----------------------
   0 S :    0.381615
   1 C :   -0.173611
   2 C :   -0.060762
   3 C :   -0.066025
   4 C :   -0.188563
   5 H :    0.027524
   6 C :   -0.023512
   7 H :    0.028957
   8 H :    0.042591
   9 C :   -0.043134
  10 H :    0.025577
  11 H :    0.014994
  12 C :   -0.066249
  13 H :    0.025940
  14 H :    0.030208
  15 H :    0.026689
  16 S :    0.427043
  17 C :   -0.166053
  18 C :   -0.068778
  19 C :   -0.058242
  20 C :   -0.208562
  21 H :    0.027842
  22 C :   -0.040546
  23 H :    0.037130
  24 H :    0.030758
  25 C :   -0.049519
  26 H :    0.021469
  27 H :    0.035402
  28 C :   -0.064430
  29 H :    0.019477
  30 H :    0.033000
  31 H :    0.028830
  32 H :    0.005785
  33 H :    0.007157

  Mayer bond orders larger than 0.100000
B(  0-S ,  1-C ) :   1.1507 B(  0-S ,  4-C ) :   1.1156 B(  1-C ,  2-C ) :   1.6100
B(  1-C , 32-H ) :   0.9735 B(  2-C ,  3-C ) :   1.2390 B(  2-C ,  6-C ) :   1.0123
B(  3-C ,  4-C ) :   1.6105 B(  3-C ,  5-H ) :   0.9790 B(  4-C , 20-C ) :   1.0387
B(  6-C ,  7-H ) :   0.9334 B(  6-C ,  8-H ) :   0.9350 B(  6-C ,  9-C ) :   1.0730
B(  9-C , 10-H ) :   0.9510 B(  9-C , 11-H ) :   0.9505 B(  9-C , 12-C ) :   1.0850
B( 12-C , 13-H ) :   0.9741 B( 12-C , 14-H ) :   0.9759 B( 12-C , 15-H ) :   0.9768
B( 16-S , 17-C ) :   1.1612 B( 16-S , 20-C ) :   1.1623 B( 17-C , 18-C ) :   1.6130
B( 17-C , 33-H ) :   0.9819 B( 18-C , 19-C ) :   1.2075 B( 18-C , 21-H ) :   1.0031
B( 19-C , 20-C ) :   1.6053 B( 19-C , 22-C ) :   1.0172 B( 22-C , 23-H ) :   0.9390
B( 22-C , 24-H ) :   0.9383 B( 22-C , 25-C ) :   1.0624 B( 25-C , 26-H ) :   0.9491
B( 25-C , 27-H ) :   0.9547 B( 25-C , 28-C ) :   1.0882 B( 28-C , 29-H ) :   0.9767
B( 28-C , 30-H ) :   0.9718 B( 28-C , 31-H ) :   0.9703

Dispersion correction           -0.013369224
FINAL SINGLE POINT ENERGY     -1339.859321708496

DIPOLE MOMENT
-------------
                                X             Y             Z
Electronic contribution:    -30.36177       0.30510      -5.17746
Nuclear contribution   :     31.04822      -0.14260       5.33429
                        -----------------------------------------
Total Dipole Moment    :      0.68644       0.16251       0.15683
                        -----------------------------------------
Magnitude (a.u.)       :      0.72264
Magnitude (Debye)      :      1.83680

Rotational constants in cm-1:     0.015516     0.008718     0.006499
Rotational constants in MHz :   465.144250   261.371995   194.820401

                             ****ORCA TERMINATED NORMALLY****
TOTAL RUN TIME: 0 days 0 hours 0 minutes 33 seconds 112 msec
