                         Program Version 4.2.1 -  RELEASE  -
|  1> ! wB97X-D3 SP def2-SVP
|  2> %pal
|  3> nprocs 16
|  4> end
|  5>
|  6> * xyz 0 1
|  7> S 	 4.14761 	 14.1759 	 88.3303
|  8> C 	 2.95638 	 14.8266 	 87.1886
|  9> C 	 3.04941 	 14.1699 	 85.9795
| 10> C 	 4.19379 	 13.2189 	 85.9496
| 11> C 	 4.9398 	 13.137 	 87.1774
| 12> H 	 4.36943 	 12.6724 	 85.0304
| 13> C 	 2.2354 	 14.2725 	 84.7629
| 14> H 	 2.88028 	 14.3509 	 83.9411
| 15> H 	 1.56284 	 15.1216 	 84.9108
| 16> C 	 1.28189 	 13.0629 	 84.5106
| 17> H 	 1.81459 	 12.1401 	 84.5657
| 18> H 	 0.483786 	 13.0214 	 85.2851
| 19> C 	 0.589458 	 13.0473 	 83.1801
| 20> H 	 -0.251399 	 12.3717 	 83.1758
| 21> H 	 0.210225 	 14.1189 	 83.0141
| 22> H 	 1.31616 	 12.8006 	 82.364
| 23> S 	 5.82616 	 10.6285 	 87.2123
| 24> C 	 7.39551 	 10.2195 	 87.8656
| 25> C 	 8.14519 	 11.4069 	 88.1796
| 26> C 	 7.38664 	 12.6046 	 87.8446
| 27> C 	 6.07039 	 12.3183 	 87.5243
| 28> H 	 9.22913 	 11.2998 	 88.4371
| 29> C 	 8.176 	 13.9251 	 87.7869
| 30> H 	 9.2549 	 13.8009 	 88.0952
| 31> H 	 7.8186 	 14.6488 	 88.6549
| 32> C 	 8.12505 	 14.562 	 86.3858
| 33> H 	 7.15685 	 14.8582 	 86.1488
| 34> H 	 8.32163 	 13.6838 	 85.7924
| 35> C 	 9.27956 	 15.5842 	 86.1049
| 36> H 	 9.53475 	 15.6471 	 85.0651
| 37> H 	 10.1945 	 15.3236 	 86.6906
| 38> H 	 8.94683 	 16.4916 	 86.4848
| 39> H 	 2.13979 	 15.5175 	 87.4652
| 40> H 	 7.62435 	 9.2619 	 88.2873
| 41> *
| 42>
| 43>                          ****END OF INPUT****

CARTESIAN COORDINATES (ANGSTROEM)
---------------------------------
  S      4.147610   14.175900   88.330300
  C      2.956380   14.826600   87.188600
  C      3.049410   14.169900   85.979500
  C      4.193790   13.218900   85.949600
  C      4.939800   13.137000   87.177400
  H      4.369430   12.672400   85.030400
  C      2.235400   14.272500   84.762900
  H      2.880280   14.350900   83.941100
  H      1.562840   15.121600   84.910800
  C      1.281890   13.062900   84.510600
  H      1.814590   12.140100   84.565700
  H      0.483786   13.021400   85.285100
  C      0.589458   13.047300   83.180100
  H     -0.251399   12.371700   83.175800
  H      0.210225   14.118900   83.014100
  H      1.316160   12.800600   82.364000
  S      5.826160   10.628500   87.212300
  C      7.395510   10.219500   87.865600
  C      8.145190   11.406900   88.179600
  C      7.386640   12.604600   87.844600
  C      6.070390   12.318300   87.524300
  H      9.229130   11.299800   88.437100
  C      8.176000   13.925100   87.786900
  H      9.254900   13.800900   88.095200
  H      7.818600   14.648800   88.654900
  C      8.125050   14.562000   86.385800
  H      7.156850   14.858200   86.148800
  H      8.321630   13.683800   85.792400
  C      9.279560   15.584200   86.104900
  H      9.534750   15.647100   85.065100
  H     10.194500   15.323600   86.690600
  H      8.946830   16.491600   86.484800
  H      2.139790   15.517500   87.465200
  H      7.624350    9.261900   88.287300

 Total Charge           Charge          ....    0
 Multiplicity           Mult            ....    1
 Number of Electrons    NEL             ....  134
 Basis Dimension        Dim             ....  322

ORBITAL ENERGIES
----------------

  NO   OCC          E(Eh)            E(eV)
   0   2.0000     -88.968830     -2420.9649
   1   2.0000     -88.965246     -2420.8674
   2   2.0000     -10.337490      -281.2974
   3   2.0000     -10.328795      -281.0608
   4   2.0000     -10.321675      -280.8671
   5   2.0000     -10.318843      -280.7900
   6   2.0000     -10.312436      -280.6156
   7   2.0000     -10.306791      -280.4620
   8   2.0000     -10.304430      -280.3978
   9   2.0000     -10.302997      -280.3588
  10   2.0000     -10.301779      -280.3257
  11   2.0000     -10.289415      -279.9892
  12   2.0000     -10.284424      -279.8534
  13   2.0000     -10.284235      -279.8483
  14   2.0000     -10.277166      -279.6559
  15   2.0000     -10.274290      -279.5776
  16   2.0000      -8.083739      -219.9697
  17   2.0000      -8.079497      -219.8543
  18   2.0000      -6.042230      -164.4174
  19   2.0000      -6.038152      -164.3065
  20   2.0000      -6.038141      -164.3062
  21   2.0000      -6.034574      -164.2091
  22   2.0000      -6.033922      -164.1914
  23   2.0000      -6.030261      -164.0917
  24   2.0000      -1.004077       -27.3223
  25   2.0000      -0.977761       -26.6062
  26   2.0000      -0.916953       -24.9516
  27   2.0000      -0.903368       -24.5819
  28   2.0000      -0.870624       -23.6909
  29   2.0000      -0.849378       -23.1128
  30   2.0000      -0.843957       -22.9652
  31   2.0000      -0.804075       -21.8800
  32   2.0000      -0.781027       -21.2528
  33   2.0000      -0.770774       -20.9738
  34   2.0000      -0.709343       -19.3022
  35   2.0000      -0.694570       -18.9002
  36   2.0000      -0.690657       -18.7937
  37   2.0000      -0.665285       -18.1033
  38   2.0000      -0.635200       -17.2847
  39   2.0000      -0.618203       -16.8221
  40   2.0000      -0.589035       -16.0285
  41   2.0000      -0.574631       -15.6365
  42   2.0000      -0.562459       -15.3053
  43   2.0000      -0.560468       -15.2511
  44   2.0000      -0.528194       -14.3729
  45   2.0000      -0.521672       -14.1954
  46   2.0000      -0.518761       -14.1162
  47   2.0000      -0.517898       -14.0927
  48   2.0000      -0.508752       -13.8439
  49   2.0000      -0.505249       -13.7485
  50   2.0000      -0.490463       -13.3462
  51   2.0000      -0.478231       -13.0133
  52   2.0000      -0.468504       -12.7486
  53   2.0000      -0.459538       -12.5047
  54   2.0000      -0.452194       -12.3048
  55   2.0000      -0.450123       -12.2485
  56   2.0000      -0.442819       -12.0497
  57   2.0000      -0.431710       -11.7474
  58   2.0000      -0.429362       -11.6835
  59   2.0000      -0.426483       -11.6052
  60   2.0000      -0.420493       -11.4422
  61   2.0000      -0.415635       -11.3100
  62   2.0000      -0.404688       -11.0121
  63   2.0000      -0.341524        -9.2933
  64   2.0000      -0.330347        -8.9892
  65   2.0000      -0.322350        -8.7716
  66   2.0000      -0.294704        -8.0193
  67   0.0000       0.027440         0.7467
  68   0.0000       0.056927         1.5491
  69   0.0000       0.099983         2.7207
  70   0.0000       0.121592         3.3087
  71   0.0000       0.126584         3.4445

MULLIKEN ATOMIC CHARGES
-----------------------
   0 S :    0.108680
   1 C :   -0.135025
   2 C :   -0.099103
   3 C :    0.019997
   4 C :   -0.149103
   5 H :    0.012084
   6 C :    0.097925
   7 H :    0.019094
   8 H :    0.017216
   9 C :   -0.089529
  10 H :    0.019916
  11 H :    0.029101
  12 C :   -0.059782
  13 H :    0.041239
  14 H :    0.030402
  15 H :    0.039158
  16 S :    0.123100
  17 C :   -0.102651
  18 C :   -0.066634
  19 C :   -0.015535
  20 C :   -0.165102
  21 H :    0.052274
  22 C :    0.007408
  23 H :    0.021427
  24 H :    0.047963
  25 C :   -0.060150
  26 H :    0.032715
  27 H :    0.025114
  28 C :   -0.014989
  29 H :    0.038770
  30 H :    0.025559
  31 H :    0.021099
  32 H :    0.060819
  33 H :    0.066543
Sum of atomic charges:   -0.0000000

LOEWDIN ATOMIC CHARGES
----------------------
   0 S :    0.405879
   1 C :   -0.203013
   2 C :   -0.060670
   3 C :   -0.070151
   4 C :   -0.203218
   5 H :    0.024802
   6 C :   -0.028158
   7 H :    0.026190
   8 H :    0.032585
   9 C :   -0.041445
  10 H :    0.016527
  11 H :    0.026976
  12 C :   -0.068409
  13 H :    0.025853
  14 H :    0.029460
  15 H :    0.027506
  16 S :    0.430499
  17 C :   -0.192864
  18 C :   -0.071087
  19 C :   -0.052030
  20 C :   -0.212901
  21 H :    0.042039
  22 C :   -0.040091
  23 H :    0.030167
  24 H :    0.037480
  25 C :   -0.033937
  26 H :    0.017400
  27 H :    0.024466
  28 C :   -0.054566
  29 H :    0.025681
  30 H :    0.029292
  31 H :    0.016670
  32 H :    0.036867
  33 H :    0.026202

  Mayer bond orders larger than 0.100000
B(  0-S ,  1-C ) :   1.1226 B(  0-S ,  4-C ) :   1.1613 B(  1-C ,  2-C ) :   1.6190
B(  1-C , 32-H ) :   0.9638 B(  2-C ,  3-C ) :   1.2319 B(  2-C ,  6-C ) :   1.0530
B(  3-C ,  4-C ) :   1.5374 B(  3-C ,  5-H ) :   0.9901 B(  4-C , 20-C ) :   1.0496
B(  6-C ,  7-H ) :   0.9344 B(  6-C ,  8-H ) :   0.9311 B(  6-C ,  9-C ) :   1.0635
B(  9-C , 10-H ) :   0.9565 B(  9-C , 11-H ) :   0.9541 B(  9-C , 12-C ) :   1.0879
B( 12-C , 13-H ) :   0.9737 B( 12-C , 14-H ) :   0.9720 B( 12-C , 15-H ) :   0.9740
B( 16-S , 17-C ) :   1.1729 B( 16-S , 20-C ) :   1.1514 B( 17-C , 18-C ) :   1.5929
B( 17-C , 20-C ) :   0.1075 B( 17-C , 33-H ) :   0.9654 B( 18-C , 19-C ) :   1.2508
B( 18-C , 21-H ) :   0.9767 B( 19-C , 20-C ) :   1.5700 B( 19-C , 22-C ) :   1.0422
B( 22-C , 23-H ) :   0.9430 B( 22-C , 24-H ) :   0.9308 B( 22-C , 25-C ) :   1.0426
B( 25-C , 26-H ) :   0.9598 B( 25-C , 27-H ) :   0.9587 B( 25-C , 28-C ) :   1.0737
B( 28-C , 29-H ) :   0.9783 B( 28-C , 30-H ) :   0.9747 B( 28-C , 31-H ) :   0.9775

Dispersion correction           -0.014101386
FINAL SINGLE POINT ENERGY     -1339.854103943671

DIPOLE MOMENT
-------------
                                X             Y             Z
Electronic contribution:      0.82927     -10.47576      16.57244
Nuclear contribution   :     -0.76039      10.52422     -16.93074
                        -----------------------------------------
Total Dipole Moment    :      0.06888       0.04847      -0.35829
                        -----------------------------------------
Magnitude (a.u.)       :      0.36806
Magnitude (Debye)      :      0.93553

Rotational constants in cm-1:     0.018893     0.007826     0.006842
Rotational constants in MHz :   566.404131   234.624591   205.121681

                             ****ORCA TERMINATED NORMALLY****
TOTAL RUN TIME: 0 days 0 hours 0 minutes 35 seconds 967 msec
