                         Program Version 4.2.1 -  RELEASE  -
|  1> ! wB97X-D3 SP def2-SVP
|  2> %pal
|  3> nprocs 16
|  4> end
|  5>
|  6> * xyz 0 1
|  7> S 	 -38.5133 	 14.1643 	 78.7016
|  8> C 	 -37.2501 	 14.3365 	 77.4686
|  9> C 	 -37.6133 	 15.3646 	 76.6004
| 10> C 	 -38.8379 	 16.0141 	 77.0207
| 11> C 	 -39.3143 	 15.5857 	 78.2457
| 12> H 	 -39.2899 	 16.8405 	 76.51
| 13> C 	 -36.9425 	 15.8101 	 75.2852
| 14> H 	 -37.8097 	 16.1645 	 74.6523
| 15> H 	 -36.6173 	 14.8901 	 74.8214
| 16> C 	 -35.6171 	 16.5437 	 75.2192
| 17> H 	 -34.9792 	 15.9236 	 75.7591
| 18> H 	 -35.2384 	 16.6145 	 74.1947
| 19> C 	 -35.6529 	 18.0252 	 75.8588
| 20> H 	 -36.2194 	 18.1015 	 76.8025
| 21> H 	 -34.5847 	 18.3329 	 76.0019
| 22> H 	 -36.1695 	 18.7525 	 75.2421
| 23> S 	 -40.2634 	 16.6154 	 80.5205
| 24> C 	 -41.8271 	 17.2809 	 80.5632
| 25> C 	 -42.6346 	 16.8038 	 79.5765
| 26> C 	 -41.8696 	 16.1743 	 78.5446
| 27> C 	 -40.5308 	 16.1036 	 78.862
| 28> H 	 -43.7342 	 16.8992 	 79.5974
| 29> C 	 -42.4525 	 15.6415 	 77.2482
| 30> H 	 -41.8936 	 16.0337 	 76.3818
| 31> H 	 -43.4601 	 16.0297 	 77.0225
| 32> C 	 -42.6074 	 14.0905 	 77.226
| 33> H 	 -41.6876 	 13.6375 	 77.5966
| 34> H 	 -42.6661 	 13.6924 	 76.1435
| 35> C 	 -43.7723 	 13.4714 	 78.0907
| 36> H 	 -43.8966 	 12.3984 	 78.0662
| 37> H 	 -44.6797 	 13.9778 	 77.9637
| 38> H 	 -43.613 	 13.5311 	 79.1647
| 39> H 	 -36.4537 	 13.6144 	 77.3004
| 40> H 	 -42.2412 	 17.858 	 81.3797
| 41> *
| 42>
| 43>                          ****END OF INPUT****

CARTESIAN COORDINATES (ANGSTROEM)
---------------------------------
  S    -38.513300   14.164300   78.701600
  C    -37.250100   14.336500   77.468600
  C    -37.613300   15.364600   76.600400
  C    -38.837900   16.014100   77.020700
  C    -39.314300   15.585700   78.245700
  H    -39.289900   16.840500   76.510000
  C    -36.942500   15.810100   75.285200
  H    -37.809700   16.164500   74.652300
  H    -36.617300   14.890100   74.821400
  C    -35.617100   16.543700   75.219200
  H    -34.979200   15.923600   75.759100
  H    -35.238400   16.614500   74.194700
  C    -35.652900   18.025200   75.858800
  H    -36.219400   18.101500   76.802500
  H    -34.584700   18.332900   76.001900
  H    -36.169500   18.752500   75.242100
  S    -40.263400   16.615400   80.520500
  C    -41.827100   17.280900   80.563200
  C    -42.634600   16.803800   79.576500
  C    -41.869600   16.174300   78.544600
  C    -40.530800   16.103600   78.862000
  H    -43.734200   16.899200   79.597400
  C    -42.452500   15.641500   77.248200
  H    -41.893600   16.033700   76.381800
  H    -43.460100   16.029700   77.022500
  C    -42.607400   14.090500   77.226000
  H    -41.687600   13.637500   77.596600
  H    -42.666100   13.692400   76.143500
  C    -43.772300   13.471400   78.090700
  H    -43.896600   12.398400   78.066200
  H    -44.679700   13.977800   77.963700
  H    -43.613000   13.531100   79.164700
  H    -36.453700   13.614400   77.300400
  H    -42.241200   17.858000   81.379700

 Total Charge           Charge          ....    0
 Multiplicity           Mult            ....    1
 Number of Electrons    NEL             ....  134
 Basis Dimension        Dim             ....  322

ORBITAL ENERGIES
----------------

  NO   OCC          E(Eh)            E(eV)
   0   2.0000     -88.967550     -2420.9301
   1   2.0000     -88.962764     -2420.7999
   2   2.0000     -10.325746      -280.9778
   3   2.0000     -10.324236      -280.9367
   4   2.0000     -10.317983      -280.7666
   5   2.0000     -10.311558      -280.5918
   6   2.0000     -10.307094      -280.4703
   7   2.0000     -10.306021      -280.4411
   8   2.0000     -10.296886      -280.1925
   9   2.0000     -10.294689      -280.1327
  10   2.0000     -10.294304      -280.1223
  11   2.0000     -10.294102      -280.1168
  12   2.0000     -10.290444      -280.0172
  13   2.0000     -10.289862      -280.0014
  14   2.0000     -10.280198      -279.7384
  15   2.0000     -10.271869      -279.5118
  16   2.0000      -8.082568      -219.9378
  17   2.0000      -8.078858      -219.8369
  18   2.0000      -6.041146      -164.3879
  19   2.0000      -6.037190      -164.2803
  20   2.0000      -6.036929      -164.2732
  21   2.0000      -6.033380      -164.1766
  22   2.0000      -6.033326      -164.1752
  23   2.0000      -6.029504      -164.0711
  24   2.0000      -1.013777       -27.5863
  25   2.0000      -0.989535       -26.9266
  26   2.0000      -0.908189       -24.7131
  27   2.0000      -0.901009       -24.5177
  28   2.0000      -0.868365       -23.6294
  29   2.0000      -0.845957       -23.0197
  30   2.0000      -0.840613       -22.8742
  31   2.0000      -0.812093       -22.0982
  32   2.0000      -0.784598       -21.3500
  33   2.0000      -0.776209       -21.1217
  34   2.0000      -0.707351       -19.2480
  35   2.0000      -0.706188       -19.2164
  36   2.0000      -0.689637       -18.7660
  37   2.0000      -0.662995       -18.0410
  38   2.0000      -0.640114       -17.4184
  39   2.0000      -0.612502       -16.6670
  40   2.0000      -0.597115       -16.2483
  41   2.0000      -0.568893       -15.4804
  42   2.0000      -0.549198       -14.9444
  43   2.0000      -0.544272       -14.8104
  44   2.0000      -0.535513       -14.5721
  45   2.0000      -0.531594       -14.4654
  46   2.0000      -0.518775       -14.1166
  47   2.0000      -0.511626       -13.9221
  48   2.0000      -0.504910       -13.7393
  49   2.0000      -0.490437       -13.3455
  50   2.0000      -0.481647       -13.1063
  51   2.0000      -0.477890       -13.0041
  52   2.0000      -0.472811       -12.8658
  53   2.0000      -0.470694       -12.8082
  54   2.0000      -0.461301       -12.5526
  55   2.0000      -0.447996       -12.1906
  56   2.0000      -0.445782       -12.1303
  57   2.0000      -0.440779       -11.9942
  58   2.0000      -0.435988       -11.8638
  59   2.0000      -0.417980       -11.3738
  60   2.0000      -0.415388       -11.3033
  61   2.0000      -0.412183       -11.2161
  62   2.0000      -0.405857       -11.0439
  63   2.0000      -0.341702        -9.2982
  64   2.0000      -0.331520        -9.0211
  65   2.0000      -0.326609        -8.8875
  66   2.0000      -0.297672        -8.1001
  67   0.0000       0.036694         0.9985
  68   0.0000       0.058351         1.5878
  69   0.0000       0.104933         2.8554
  70   0.0000       0.114996         3.1292
  71   0.0000       0.133923         3.6442

MULLIKEN ATOMIC CHARGES
-----------------------
   0 S :    0.118050
   1 C :   -0.134372
   2 C :   -0.083065
   3 C :    0.015468
   4 C :   -0.116911
   5 H :    0.005980
   6 C :    0.039756
   7 H :    0.036415
   8 H :    0.015981
   9 C :   -0.017890
  10 H :    0.012390
  11 H :    0.038909
  12 C :   -0.087880
  13 H :    0.044021
  14 H :    0.043053
  15 H :    0.028051
  16 S :    0.112409
  17 C :   -0.072887
  18 C :   -0.051243
  19 C :   -0.014352
  20 C :   -0.202611
  21 H :    0.029508
  22 C :    0.073663
  23 H :    0.034417
  24 H :    0.014146
  25 C :   -0.086490
  26 H :    0.029166
  27 H :    0.041553
  28 C :   -0.037686
  29 H :    0.031622
  30 H :    0.014451
  31 H :    0.020520
  32 H :    0.053206
  33 H :    0.052652
Sum of atomic charges:    0.0000000

LOEWDIN ATOMIC CHARGES
----------------------
   0 S :    0.423238
   1 C :   -0.200750
   2 C :   -0.057876
   3 C :   -0.067412
   4 C :   -0.219645
   5 H :    0.025761
   6 C :   -0.041373
   7 H :    0.035413
   8 H :    0.032241
   9 C :   -0.027840
  10 H :    0.016506
  11 H :    0.030836
  12 C :   -0.076375
  13 H :    0.029035
  14 H :    0.029869
  15 H :    0.021004
  16 S :    0.424480
  17 C :   -0.193522
  18 C :   -0.075226
  19 C :   -0.052376
  20 C :   -0.193526
  21 H :    0.037727
  22 C :   -0.035485
  23 H :    0.036713
  24 H :    0.028730
  25 C :   -0.040282
  26 H :    0.020482
  27 H :    0.032194
  28 C :   -0.072407
  29 H :    0.029791
  30 H :    0.013435
  31 H :    0.027612
  32 H :    0.030355
  33 H :    0.028676

  Mayer bond orders larger than 0.100000
B(  0-S ,  1-C ) :   1.1295 B(  0-S ,  4-C ) :   1.1727 B(  1-C ,  2-C ) :   1.5948
B(  1-C , 32-H ) :   0.9729 B(  2-C ,  3-C ) :   1.2432 B(  2-C ,  6-C ) :   1.0105
B(  3-C ,  4-C ) :   1.5574 B(  3-C ,  5-H ) :   1.0035 B(  4-C , 20-C ) :   1.0133
B(  6-C ,  7-H ) :   0.9476 B(  6-C ,  8-H ) :   0.9329 B(  6-C ,  9-C ) :   1.0701
B(  9-C , 10-H ) :   0.9540 B(  9-C , 11-H ) :   0.9546 B(  9-C , 12-C ) :   1.0645
B( 12-C , 13-H ) :   0.9793 B( 12-C , 14-H ) :   0.9786 B( 12-C , 15-H ) :   0.9784
B( 16-S , 17-C ) :   1.1706 B( 16-S , 20-C ) :   1.1401 B( 17-C , 18-C ) :   1.6093
B( 17-C , 20-C ) :   0.1011 B( 17-C , 33-H ) :   0.9664 B( 18-C , 19-C ) :   1.2355
B( 18-C , 21-H ) :   0.9882 B( 19-C , 20-C ) :   1.6116 B( 19-C , 22-C ) :   1.0390
B( 22-C , 23-H ) :   0.9389 B( 22-C , 24-H ) :   0.9371 B( 22-C , 25-C ) :   1.0567
B( 25-C , 26-H ) :   0.9606 B( 25-C , 27-H ) :   0.9596 B( 25-C , 28-C ) :   1.0637
B( 28-C , 29-H ) :   0.9741 B( 28-C , 30-H ) :   0.9785 B( 28-C , 31-H ) :   0.9719

Dispersion correction           -0.014780921
FINAL SINGLE POINT ENERGY     -1339.860044144356

DIPOLE MOMENT
-------------
                                X             Y             Z
Electronic contribution:      0.81351      -0.79016      18.45433
Nuclear contribution   :     -1.00677       0.78992     -18.92484
                        -----------------------------------------
Total Dipole Moment    :     -0.19326      -0.00024      -0.47051
                        -----------------------------------------
Magnitude (a.u.)       :      0.50865
Magnitude (Debye)      :      1.29289

Rotational constants in cm-1:     0.021124     0.007925     0.007173
Rotational constants in MHz :   633.268931   237.578755   215.040053

                             ****ORCA TERMINATED NORMALLY****
TOTAL RUN TIME: 0 days 0 hours 0 minutes 29 seconds 920 msec
