                         Program Version 4.2.1 -  RELEASE  -
|  1> ! wB97X-D3 SP def2-SVP
|  2> %pal
|  3> nprocs 16
|  4> end
|  5>
|  6> * xyz 0 1
|  7> S 	 52.9793 	 13.2094 	 50.8514
|  8> C 	 54.1585 	 13.8218 	 52.0067
|  9> C 	 53.9371 	 15.0863 	 52.4664
| 10> C 	 52.8383 	 15.6492 	 51.7908
| 11> C 	 52.1591 	 14.773 	 50.9455
| 12> H 	 52.5288 	 16.6932 	 51.6317
| 13> C 	 54.9276 	 15.9515 	 53.1992
| 14> H 	 55.8963 	 15.3944 	 53.2627
| 15> H 	 54.6616 	 15.9788 	 54.2411
| 16> C 	 55.1963 	 17.306 	 52.6488
| 17> H 	 54.2488 	 17.9281 	 52.5869
| 18> H 	 55.8746 	 17.7431 	 53.3239
| 19> C 	 55.9074 	 17.449 	 51.2612
| 20> H 	 56.6093 	 16.6308 	 51.0808
| 21> H 	 55.2122 	 17.5248 	 50.375
| 22> H 	 56.4604 	 18.4224 	 51.142
| 23> S 	 51.0496 	 15.1646 	 48.4451
| 24> C 	 49.5882 	 15.9945 	 48.3084
| 25> C 	 49.0739 	 16.2989 	 49.5531
| 26> C 	 49.8296 	 15.8396 	 50.6933
| 27> C 	 50.9845 	 15.1826 	 50.22
| 28> H 	 48.1526 	 16.8435 	 49.5698
| 29> C 	 49.3911 	 16.0094 	 52.0851
| 30> H 	 48.5345 	 16.676 	 52.0944
| 31> H 	 50.1424 	 16.5368 	 52.6674
| 32> C 	 48.9262 	 14.6909 	 52.7955
| 33> H 	 49.7544 	 13.9916 	 52.8835
| 34> H 	 48.1855 	 14.2292 	 52.084
| 35> C 	 48.3458 	 14.8998 	 54.1838
| 36> H 	 47.6079 	 15.6614 	 54.1004
| 37> H 	 49.077 	 15.3718 	 54.9137
| 38> H 	 47.879 	 14.0249 	 54.4878
| 39> H 	 55.0279 	 13.2684 	 52.2725
| 40> H 	 49.0544 	 16.2359 	 47.381
| 41> *
| 42>
| 43>                          ****END OF INPUT****

CARTESIAN COORDINATES (ANGSTROEM)
---------------------------------
  S     52.979300   13.209400   50.851400
  C     54.158500   13.821800   52.006700
  C     53.937100   15.086300   52.466400
  C     52.838300   15.649200   51.790800
  C     52.159100   14.773000   50.945500
  H     52.528800   16.693200   51.631700
  C     54.927600   15.951500   53.199200
  H     55.896300   15.394400   53.262700
  H     54.661600   15.978800   54.241100
  C     55.196300   17.306000   52.648800
  H     54.248800   17.928100   52.586900
  H     55.874600   17.743100   53.323900
  C     55.907400   17.449000   51.261200
  H     56.609300   16.630800   51.080800
  H     55.212200   17.524800   50.375000
  H     56.460400   18.422400   51.142000
  S     51.049600   15.164600   48.445100
  C     49.588200   15.994500   48.308400
  C     49.073900   16.298900   49.553100
  C     49.829600   15.839600   50.693300
  C     50.984500   15.182600   50.220000
  H     48.152600   16.843500   49.569800
  C     49.391100   16.009400   52.085100
  H     48.534500   16.676000   52.094400
  H     50.142400   16.536800   52.667400
  C     48.926200   14.690900   52.795500
  H     49.754400   13.991600   52.883500
  H     48.185500   14.229200   52.084000
  C     48.345800   14.899800   54.183800
  H     47.607900   15.661400   54.100400
  H     49.077000   15.371800   54.913700
  H     47.879000   14.024900   54.487800
  H     55.027900   13.268400   52.272500
  H     49.054400   16.235900   47.381000

 Total Charge           Charge          ....    0
 Multiplicity           Mult            ....    1
 Number of Electrons    NEL             ....  134
 Basis Dimension        Dim             ....  322

ORBITAL ENERGIES
----------------

  NO   OCC          E(Eh)            E(eV)
   0   2.0000     -88.968136     -2420.9461
   1   2.0000     -88.963522     -2420.8205
   2   2.0000     -10.324413      -280.9416
   3   2.0000     -10.324181      -280.9352
   4   2.0000     -10.312876      -280.6276
   5   2.0000     -10.310651      -280.5671
   6   2.0000     -10.304972      -280.4125
   7   2.0000     -10.296127      -280.1719
   8   2.0000     -10.292567      -280.0750
   9   2.0000     -10.290494      -280.0186
  10   2.0000     -10.289679      -279.9964
  11   2.0000     -10.289263      -279.9851
  12   2.0000     -10.288413      -279.9619
  13   2.0000     -10.286002      -279.8963
  14   2.0000     -10.284990      -279.8688
  15   2.0000     -10.272094      -279.5179
  16   2.0000      -8.082314      -219.9309
  17   2.0000      -8.079125      -219.8442
  18   2.0000      -6.040701      -164.3758
  19   2.0000      -6.037480      -164.2882
  20   2.0000      -6.037082      -164.2774
  21   2.0000      -6.033415      -164.1776
  22   2.0000      -6.033070      -164.1682
  23   2.0000      -6.030094      -164.0872
  24   2.0000      -1.005742       -27.3676
  25   2.0000      -0.984996       -26.8031
  26   2.0000      -0.915211       -24.9042
  27   2.0000      -0.909958       -24.7612
  28   2.0000      -0.869238       -23.6532
  29   2.0000      -0.854406       -23.2496
  30   2.0000      -0.844309       -22.9748
  31   2.0000      -0.809789       -22.0355
  32   2.0000      -0.786594       -21.4043
  33   2.0000      -0.773796       -21.0561
  34   2.0000      -0.708821       -19.2880
  35   2.0000      -0.695920       -18.9369
  36   2.0000      -0.690028       -18.7766
  37   2.0000      -0.657190       -17.8830
  38   2.0000      -0.639050       -17.3894
  39   2.0000      -0.621974       -16.9248
  40   2.0000      -0.597174       -16.2499
  41   2.0000      -0.566208       -15.4073
  42   2.0000      -0.557693       -15.1756
  43   2.0000      -0.554892       -15.0994
  44   2.0000      -0.533568       -14.5191
  45   2.0000      -0.531023       -14.4499
  46   2.0000      -0.517784       -14.0896
  47   2.0000      -0.513033       -13.9603
  48   2.0000      -0.505196       -13.7471
  49   2.0000      -0.494156       -13.4467
  50   2.0000      -0.484326       -13.1792
  51   2.0000      -0.481046       -13.0899
  52   2.0000      -0.470877       -12.8132
  53   2.0000      -0.462511       -12.5856
  54   2.0000      -0.455880       -12.4051
  55   2.0000      -0.446855       -12.1596
  56   2.0000      -0.445543       -12.1238
  57   2.0000      -0.439950       -11.9717
  58   2.0000      -0.433290       -11.7904
  59   2.0000      -0.426079       -11.5942
  60   2.0000      -0.418984       -11.4011
  61   2.0000      -0.414244       -11.2721
  62   2.0000      -0.412219       -11.2170
  63   2.0000      -0.337988        -9.1971
  64   2.0000      -0.334318        -9.0972
  65   2.0000      -0.328808        -8.9473
  66   2.0000      -0.289992        -7.8911
  67   0.0000       0.028475         0.7748
  68   0.0000       0.072424         1.9708
  69   0.0000       0.115711         3.1486
  70   0.0000       0.127120         3.4591
  71   0.0000       0.131146         3.5687

MULLIKEN ATOMIC CHARGES
-----------------------
   0 S :    0.116636
   1 C :   -0.121175
   2 C :   -0.034518
   3 C :   -0.009519
   4 C :   -0.172483
   5 H :    0.036220
   6 C :    0.077726
   7 H :    0.013686
   8 H :    0.031354
   9 C :   -0.069996
  10 H :    0.043199
  11 H :    0.023978
  12 C :   -0.087062
  13 H :    0.034680
  14 H :    0.041918
  15 H :    0.039063
  16 S :    0.115179
  17 C :   -0.089119
  18 C :   -0.054052
  19 C :   -0.022838
  20 C :   -0.179323
  21 H :    0.005561
  22 C :    0.099011
  23 H :    0.003400
  24 H :    0.019594
  25 C :   -0.108707
  26 H :    0.039745
  27 H :    0.036238
  28 C :    0.004035
  29 H :    0.003990
  30 H :    0.038679
  31 H :    0.029085
  32 H :    0.032946
  33 H :    0.062869
Sum of atomic charges:   -0.0000000

LOEWDIN ATOMIC CHARGES
----------------------
   0 S :    0.391856
   1 C :   -0.180874
   2 C :   -0.069536
   3 C :   -0.060811
   4 C :   -0.197186
   5 H :    0.037533
   6 C :   -0.033466
   7 H :    0.033216
   8 H :    0.034243
   9 C :   -0.043850
  10 H :    0.031319
  11 H :    0.023993
  12 C :   -0.076384
  13 H :    0.023704
  14 H :    0.030495
  15 H :    0.032252
  16 S :    0.423228
  17 C :   -0.210455
  18 C :   -0.076881
  19 C :   -0.048549
  20 C :   -0.197536
  21 H :    0.024838
  22 C :   -0.035145
  23 H :    0.027892
  24 H :    0.029199
  25 C :   -0.034693
  26 H :    0.023243
  27 H :    0.030229
  28 C :   -0.060799
  29 H :    0.017067
  30 H :    0.035540
  31 H :    0.020266
  32 H :    0.018976
  33 H :    0.037077

  Mayer bond orders larger than 0.100000
B(  0-S ,  1-C ) :   1.1385 B(  0-S ,  4-C ) :   1.1307 B(  1-C ,  2-C ) :   1.6281
B(  1-C , 32-H ) :   0.9644 B(  2-C ,  3-C ) :   1.2275 B(  2-C ,  6-C ) :   1.0162
B(  3-C ,  4-C ) :   1.6013 B(  3-C ,  5-H ) :   0.9776 B(  4-C , 20-C ) :   1.0629
B(  6-C ,  7-H ) :   0.9388 B(  6-C ,  8-H ) :   0.9206 B(  6-C ,  9-C ) :   1.1017
B(  9-C , 10-H ) :   0.9477 B(  9-C , 11-H ) :   0.9481 B(  9-C , 12-C ) :   1.0631
B( 12-C , 13-H ) :   0.9770 B( 12-C , 14-H ) :   0.9761 B( 12-C , 15-H ) :   0.9773
B( 16-S , 17-C ) :   1.1706 B( 16-S , 20-C ) :   1.1500 B( 17-C , 18-C ) :   1.5963
B( 17-C , 33-H ) :   0.9635 B( 18-C , 19-C ) :   1.2499 B( 18-C , 21-H ) :   0.9917
B( 19-C , 20-C ) :   1.5439 B( 19-C , 22-C ) :   1.0708 B( 22-C , 23-H ) :   0.9244
B( 22-C , 24-H ) :   0.9160 B( 22-C , 25-C ) :   1.0566 B( 25-C , 26-H ) :   0.9564
B( 25-C , 27-H ) :   0.9539 B( 25-C , 28-C ) :   1.0886 B( 28-C , 29-H ) :   0.9709
B( 28-C , 30-H ) :   0.9706 B( 28-C , 31-H ) :   0.9718

Dispersion correction           -0.014708320
FINAL SINGLE POINT ENERGY     -1339.878888068979

DIPOLE MOMENT
-------------
                                X             Y             Z
Electronic contribution:     -1.18365     -12.50175     -18.19510
Nuclear contribution   :      1.19485      12.99725      18.55361
                        -----------------------------------------
Total Dipole Moment    :      0.01120       0.49550       0.35851
                        -----------------------------------------
Magnitude (a.u.)       :      0.61170
Magnitude (Debye)      :      1.55482

Rotational constants in cm-1:     0.016434     0.009377     0.007982
Rotational constants in MHz :   492.668098   281.129889   239.291471

                             ****ORCA TERMINATED NORMALLY****
TOTAL RUN TIME: 0 days 0 hours 0 minutes 30 seconds 836 msec
