                         Program Version 4.2.1 -  RELEASE  -
|  1> ! wB97X-D3 SP def2-SVP
|  2> %pal
|  3> nprocs 16
|  4> end
|  5>
|  6> * xyz 0 1
|  7> S 	 1.46909 	 -16.5331 	 83.1323
|  8> C 	 0.744051 	 -17.7811 	 84.0374
|  9> C 	 -0.488664 	 -17.3391 	 84.5099
| 10> C 	 -0.866932 	 -15.9961 	 84.1197
| 11> C 	 0.12278 	 -15.4377 	 83.3513
| 12> H 	 -1.85092 	 -15.5521 	 84.3019
| 13> C 	 -1.41736 	 -18.2863 	 85.1411
| 14> H 	 -2.04842 	 -17.7981 	 85.8572
| 15> H 	 -0.813145 	 -19.0629 	 85.6804
| 16> C 	 -2.3554 	 -19.0435 	 84.156
| 17> H 	 -1.60177 	 -19.733 	 83.6654
| 18> H 	 -2.96378 	 -19.722 	 84.7746
| 19> C 	 -3.23412 	 -18.3005 	 83.2132
| 20> H 	 -3.53061 	 -19.1138 	 82.499
| 21> H 	 -4.19387 	 -17.9138 	 83.6235
| 22> H 	 -2.74587 	 -17.4561 	 82.7986
| 23> S 	 0.773836 	 -14.0815 	 81.0659
| 24> C 	 0.118145 	 -12.4866 	 80.8022
| 25> C 	 -0.424174 	 -11.8905 	 81.9313
| 26> C 	 -0.571901 	 -12.901 	 83.0083
| 27> C 	 0.0216034 	 -14.1432 	 82.6862
| 28> H 	 -0.735824 	 -10.882 	 81.8092
| 29> C 	 -1.18761 	 -12.5719 	 84.3212
| 30> H 	 -0.691167 	 -11.7053 	 84.8084
| 31> H 	 -1.0041 	 -13.4038 	 84.9781
| 32> C 	 -2.67134 	 -12.3073 	 84.4011
| 33> H 	 -3.15602 	 -13.1367 	 83.9708
| 34> H 	 -3.06735 	 -11.5376 	 83.7061
| 35> C 	 -3.0107 	 -12.0577 	 85.8714
| 36> H 	 -2.8572 	 -12.9446 	 86.4408
| 37> H 	 -4.08721 	 -11.7252 	 85.7975
| 38> H 	 -2.61043 	 -11.1178 	 86.326
| 39> H 	 1.06289 	 -18.7532 	 84.3084
| 40> H 	 0.210857 	 -12.0726 	 79.8336
| 41> *
| 42>
| 43>                          ****END OF INPUT****

CARTESIAN COORDINATES (ANGSTROEM)
---------------------------------
  S      1.469090  -16.533100   83.132300
  C      0.744051  -17.781100   84.037400
  C     -0.488664  -17.339100   84.509900
  C     -0.866932  -15.996100   84.119700
  C      0.122780  -15.437700   83.351300
  H     -1.850920  -15.552100   84.301900
  C     -1.417360  -18.286300   85.141100
  H     -2.048420  -17.798100   85.857200
  H     -0.813145  -19.062900   85.680400
  C     -2.355400  -19.043500   84.156000
  H     -1.601770  -19.733000   83.665400
  H     -2.963780  -19.722000   84.774600
  C     -3.234120  -18.300500   83.213200
  H     -3.530610  -19.113800   82.499000
  H     -4.193870  -17.913800   83.623500
  H     -2.745870  -17.456100   82.798600
  S      0.773836  -14.081500   81.065900
  C      0.118145  -12.486600   80.802200
  C     -0.424174  -11.890500   81.931300
  C     -0.571901  -12.901000   83.008300
  C      0.021603  -14.143200   82.686200
  H     -0.735824  -10.882000   81.809200
  C     -1.187610  -12.571900   84.321200
  H     -0.691167  -11.705300   84.808400
  H     -1.004100  -13.403800   84.978100
  C     -2.671340  -12.307300   84.401100
  H     -3.156020  -13.136700   83.970800
  H     -3.067350  -11.537600   83.706100
  C     -3.010700  -12.057700   85.871400
  H     -2.857200  -12.944600   86.440800
  H     -4.087210  -11.725200   85.797500
  H     -2.610430  -11.117800   86.326000
  H      1.062890  -18.753200   84.308400
  H      0.210857  -12.072600   79.833600

 Total Charge           Charge          ....    0
 Multiplicity           Mult            ....    1
 Number of Electrons    NEL             ....  134
 Basis Dimension        Dim             ....  322

ORBITAL ENERGIES
----------------

  NO   OCC          E(Eh)            E(eV)
   0   2.0000     -88.970119     -2421.0000
   1   2.0000     -88.962092     -2420.7816
   2   2.0000     -10.333426      -281.1868
   3   2.0000     -10.332849      -281.1711
   4   2.0000     -10.316911      -280.7374
   5   2.0000     -10.314020      -280.6587
   6   2.0000     -10.308472      -280.5078
   7   2.0000     -10.300257      -280.2842
   8   2.0000     -10.296979      -280.1950
   9   2.0000     -10.296233      -280.1748
  10   2.0000     -10.287889      -279.9477
  11   2.0000     -10.285548      -279.8840
  12   2.0000     -10.285072      -279.8710
  13   2.0000     -10.284905      -279.8665
  14   2.0000     -10.283499      -279.8282
  15   2.0000     -10.276707      -279.6434
  16   2.0000      -8.085188      -220.0092
  17   2.0000      -8.076964      -219.7854
  18   2.0000      -6.043802      -164.4602
  19   2.0000      -6.039563      -164.3449
  20   2.0000      -6.035891      -164.2450
  21   2.0000      -6.035454      -164.2331
  22   2.0000      -6.031581      -164.1277
  23   2.0000      -6.027607      -164.0195
  24   2.0000      -1.008697       -27.4480
  25   2.0000      -0.981078       -26.6965
  26   2.0000      -0.917161       -24.9572
  27   2.0000      -0.913545       -24.8588
  28   2.0000      -0.872795       -23.7500
  29   2.0000      -0.853881       -23.2353
  30   2.0000      -0.846100       -23.0236
  31   2.0000      -0.820917       -22.3383
  32   2.0000      -0.782078       -21.2814
  33   2.0000      -0.769122       -20.9289
  34   2.0000      -0.710306       -19.3284
  35   2.0000      -0.700210       -19.0537
  36   2.0000      -0.693854       -18.8807
  37   2.0000      -0.663385       -18.0516
  38   2.0000      -0.638983       -17.3876
  39   2.0000      -0.617754       -16.8099
  40   2.0000      -0.599213       -16.3054
  41   2.0000      -0.574963       -15.6455
  42   2.0000      -0.570579       -15.5262
  43   2.0000      -0.552412       -15.0319
  44   2.0000      -0.542942       -14.7742
  45   2.0000      -0.527825       -14.3628
  46   2.0000      -0.518993       -14.1225
  47   2.0000      -0.515431       -14.0256
  48   2.0000      -0.506127       -13.7724
  49   2.0000      -0.502978       -13.6867
  50   2.0000      -0.493121       -13.4185
  51   2.0000      -0.483132       -13.1467
  52   2.0000      -0.474777       -12.9193
  53   2.0000      -0.465378       -12.6636
  54   2.0000      -0.457697       -12.4546
  55   2.0000      -0.455157       -12.3854
  56   2.0000      -0.442874       -12.0512
  57   2.0000      -0.439309       -11.9542
  58   2.0000      -0.428928       -11.6717
  59   2.0000      -0.421972       -11.4825
  60   2.0000      -0.415802       -11.3145
  61   2.0000      -0.410526       -11.1710
  62   2.0000      -0.402758       -10.9596
  63   2.0000      -0.360367        -9.8061
  64   2.0000      -0.330204        -8.9853
  65   2.0000      -0.324268        -8.8238
  66   2.0000      -0.284170        -7.7327
  67   0.0000       0.025634         0.6975
  68   0.0000       0.071182         1.9370
  69   0.0000       0.108461         2.9514
  70   0.0000       0.114905         3.1267
  71   0.0000       0.125967         3.4277

MULLIKEN ATOMIC CHARGES
-----------------------
   0 S :    0.126718
   1 C :   -0.080027
   2 C :   -0.114606
   3 C :   -0.002442
   4 C :   -0.112892
   5 H :    0.025959
   6 C :    0.046113
   7 H :    0.010108
   8 H :    0.024986
   9 C :   -0.087696
  10 H :    0.022678
  11 H :    0.025881
  12 C :   -0.038621
  13 H :    0.047423
  14 H :    0.029794
  15 H :    0.042300
  16 S :    0.080875
  17 C :   -0.090513
  18 C :    0.000839
  19 C :   -0.029302
  20 C :   -0.128848
  21 H :    0.016981
  22 C :    0.035485
  23 H :    0.032684
  24 H :    0.006399
  25 C :   -0.066489
  26 H :    0.005873
  27 H :    0.024083
  28 C :   -0.048338
  29 H :    0.043640
  30 H :    0.032602
  31 H :    0.042363
  32 H :    0.027308
  33 H :    0.048682
Sum of atomic charges:   -0.0000000

LOEWDIN ATOMIC CHARGES
----------------------
   0 S :    0.427315
   1 C :   -0.213460
   2 C :   -0.063537
   3 C :   -0.071090
   4 C :   -0.189907
   5 H :    0.035414
   6 C :   -0.041672
   7 H :    0.019680
   8 H :    0.034850
   9 C :   -0.044411
  10 H :    0.025250
  11 H :    0.023809
  12 C :   -0.070563
  13 H :    0.042353
  14 H :    0.027864
  15 H :    0.021643
  16 S :    0.380345
  17 C :   -0.168043
  18 C :   -0.064966
  19 C :   -0.046950
  20 C :   -0.181427
  21 H :    0.031143
  22 C :   -0.042718
  23 H :    0.036257
  24 H :    0.025850
  25 C :   -0.043332
  26 H :    0.015228
  27 H :    0.024977
  28 C :   -0.065800
  29 H :    0.023476
  30 H :    0.035186
  31 H :    0.033076
  32 H :    0.025980
  33 H :    0.018179

  Mayer bond orders larger than 0.100000
B(  0-S ,  1-C ) :   1.1240 B(  0-S ,  4-C ) :   1.1611 B(  1-C ,  2-C ) :   1.5968
B(  1-C , 32-H ) :   0.9719 B(  2-C ,  3-C ) :   1.2386 B(  2-C ,  6-C ) :   1.0593
B(  3-C ,  4-C ) :   1.5425 B(  3-C ,  5-H ) :   0.9914 B(  4-C , 20-C ) :   1.0638
B(  6-C ,  7-H ) :   0.9342 B(  6-C ,  8-H ) :   0.9388 B(  6-C ,  9-C ) :   1.0654
B(  9-C , 10-H ) :   0.9571 B(  9-C , 11-H ) :   0.9523 B(  9-C , 12-C ) :   1.0787
B( 12-C , 13-H ) :   0.9682 B( 12-C , 14-H ) :   0.9715 B( 12-C , 15-H ) :   0.9714
B( 16-S , 17-C ) :   1.1575 B( 16-S , 20-C ) :   1.1157 B( 17-C , 18-C ) :   1.6284
B( 17-C , 33-H ) :   0.9720 B( 18-C , 19-C ) :   1.1780 B( 18-C , 21-H ) :   0.9997
B( 19-C , 20-C ) :   1.6043 B( 19-C , 22-C ) :   1.0596 B( 22-C , 23-H ) :   0.9339
B( 22-C , 24-H ) :   0.9320 B( 22-C , 25-C ) :   1.0597 B( 25-C , 26-H ) :   0.9453
B( 25-C , 27-H ) :   0.9531 B( 25-C , 28-C ) :   1.0813 B( 28-C , 29-H ) :   0.9741
B( 28-C , 30-H ) :   0.9712 B( 28-C , 31-H ) :   0.9725

Dispersion correction           -0.014384020
FINAL SINGLE POINT ENERGY     -1339.865913261603

DIPOLE MOMENT
-------------
                                X             Y             Z
Electronic contribution:     23.91021       1.49826     -14.44279
Nuclear contribution   :    -24.54162      -1.38029      14.66068
                        -----------------------------------------
Total Dipole Moment    :     -0.63141       0.11797       0.21789
                        -----------------------------------------
Magnitude (a.u.)       :      0.67828
Magnitude (Debye)      :      1.72406

Rotational constants in cm-1:     0.016429     0.009852     0.007277
Rotational constants in MHz :   492.532018   295.340785   218.169192

                             ****ORCA TERMINATED NORMALLY****
TOTAL RUN TIME: 0 days 0 hours 0 minutes 34 seconds 404 msec
