                         Program Version 4.2.1 -  RELEASE  -
|  1> ! wB97X-D3 SP def2-SVP
|  2> %pal
|  3> nprocs 16
|  4> end
|  5>
|  6> * xyz 0 1
|  7> S 	 -47.8743 	 61.3173 	 131.482
|  8> C 	 -48.0048 	 59.5251 	 131.393
|  9> C 	 -46.7663 	 58.9786 	 131.784
| 10> C 	 -45.8538 	 59.9261 	 132.242
| 11> C 	 -46.3458 	 61.1752 	 132.342
| 12> H 	 -44.9515 	 59.723 	 132.704
| 13> C 	 -46.4442 	 57.4926 	 131.852
| 14> H 	 -45.4895 	 57.3628 	 132.459
| 15> H 	 -46.1685 	 57.163 	 130.858
| 16> C 	 -47.3972 	 56.4808 	 132.466
| 17> H 	 -46.7628 	 55.5652 	 132.65
| 18> H 	 -47.6596 	 56.6066 	 133.474
| 19> C 	 -48.6739 	 56.1914 	 131.735
| 20> H 	 -49.4371 	 56.945 	 131.871
| 21> H 	 -48.6292 	 56.0648 	 130.688
| 22> H 	 -49.194 	 55.2228 	 132.041
| 23> S 	 -45.4554 	 63.677 	 131.582
| 24> C 	 -44.1465 	 64.4355 	 132.409
| 25> C 	 -43.8913 	 63.7437 	 133.562
| 26> C 	 -44.7165 	 62.5733 	 133.751
| 27> C 	 -45.5935 	 62.3478 	 132.695
| 28> H 	 -43.1497 	 64.0828 	 134.329
| 29> C 	 -44.493 	 61.6711 	 135.035
| 30> H 	 -43.7598 	 62.1532 	 135.675
| 31> H 	 -43.9598 	 60.8042 	 134.719
| 32> C 	 -45.778 	 61.2751 	 135.723
| 33> H 	 -46.4993 	 61.0276 	 134.961
| 34> H 	 -46.1699 	 62.2153 	 136.198
| 35> C 	 -45.5974 	 60.077 	 136.709
| 36> H 	 -46.6122 	 59.8474 	 137.027
| 37> H 	 -45.1212 	 60.3293 	 137.701
| 38> H 	 -45.1848 	 59.1123 	 136.244
| 39> H 	 -48.8158 	 58.9027 	 130.996
| 40> H 	 -43.6871 	 65.3466 	 132.133
| 41> *
| 42>
| 43>                          ****END OF INPUT****

CARTESIAN COORDINATES (ANGSTROEM)
---------------------------------
  S    -47.874300   61.317300  131.482000
  C    -48.004800   59.525100  131.393000
  C    -46.766300   58.978600  131.784000
  C    -45.853800   59.926100  132.242000
  C    -46.345800   61.175200  132.342000
  H    -44.951500   59.723000  132.704000
  C    -46.444200   57.492600  131.852000
  H    -45.489500   57.362800  132.459000
  H    -46.168500   57.163000  130.858000
  C    -47.397200   56.480800  132.466000
  H    -46.762800   55.565200  132.650000
  H    -47.659600   56.606600  133.474000
  C    -48.673900   56.191400  131.735000
  H    -49.437100   56.945000  131.871000
  H    -48.629200   56.064800  130.688000
  H    -49.194000   55.222800  132.041000
  S    -45.455400   63.677000  131.582000
  C    -44.146500   64.435500  132.409000
  C    -43.891300   63.743700  133.562000
  C    -44.716500   62.573300  133.751000
  C    -45.593500   62.347800  132.695000
  H    -43.149700   64.082800  134.329000
  C    -44.493000   61.671100  135.035000
  H    -43.759800   62.153200  135.675000
  H    -43.959800   60.804200  134.719000
  C    -45.778000   61.275100  135.723000
  H    -46.499300   61.027600  134.961000
  H    -46.169900   62.215300  136.198000
  C    -45.597400   60.077000  136.709000
  H    -46.612200   59.847400  137.027000
  H    -45.121200   60.329300  137.701000
  H    -45.184800   59.112300  136.244000
  H    -48.815800   58.902700  130.996000
  H    -43.687100   65.346600  132.133000

 Total Charge           Charge          ....    0
 Multiplicity           Mult            ....    1
 Number of Electrons    NEL             ....  134
 Basis Dimension        Dim             ....  322

ORBITAL ENERGIES
----------------

  NO   OCC          E(Eh)            E(eV)
   0   2.0000     -88.967970     -2420.9416
   1   2.0000     -88.963336     -2420.8154
   2   2.0000     -10.327617      -281.0288
   3   2.0000     -10.325252      -280.9644
   4   2.0000     -10.321509      -280.8625
   5   2.0000     -10.313467      -280.6437
   6   2.0000     -10.305058      -280.4149
   7   2.0000     -10.302402      -280.3426
   8   2.0000     -10.298203      -280.2284
   9   2.0000     -10.295493      -280.1546
  10   2.0000     -10.289229      -279.9841
  11   2.0000     -10.288387      -279.9613
  12   2.0000     -10.288138      -279.9545
  13   2.0000     -10.285976      -279.8956
  14   2.0000     -10.284011      -279.8422
  15   2.0000     -10.279130      -279.7094
  16   2.0000      -8.081723      -219.9149
  17   2.0000      -8.078790      -219.8350
  18   2.0000      -6.040310      -164.3652
  19   2.0000      -6.037349      -164.2846
  20   2.0000      -6.036489      -164.2612
  21   2.0000      -6.033031      -164.1671
  22   2.0000      -6.032337      -164.1482
  23   2.0000      -6.029605      -164.0739
  24   2.0000      -1.011376       -27.5209
  25   2.0000      -0.985850       -26.8264
  26   2.0000      -0.914914       -24.8961
  27   2.0000      -0.904116       -24.6023
  28   2.0000      -0.872045       -23.7296
  29   2.0000      -0.854446       -23.2507
  30   2.0000      -0.840534       -22.8721
  31   2.0000      -0.815651       -22.1950
  32   2.0000      -0.786580       -21.4039
  33   2.0000      -0.774897       -21.0860
  34   2.0000      -0.711837       -19.3701
  35   2.0000      -0.708702       -19.2848
  36   2.0000      -0.691134       -18.8067
  37   2.0000      -0.661549       -18.0017
  38   2.0000      -0.642335       -17.4788
  39   2.0000      -0.622373       -16.9356
  40   2.0000      -0.594659       -16.1815
  41   2.0000      -0.571325       -15.5466
  42   2.0000      -0.559729       -15.2310
  43   2.0000      -0.547271       -14.8920
  44   2.0000      -0.536204       -14.5909
  45   2.0000      -0.524379       -14.2691
  46   2.0000      -0.516078       -14.0432
  47   2.0000      -0.514949       -14.0125
  48   2.0000      -0.507025       -13.7968
  49   2.0000      -0.495558       -13.4848
  50   2.0000      -0.492427       -13.3996
  51   2.0000      -0.491253       -13.3677
  52   2.0000      -0.481876       -13.1125
  53   2.0000      -0.469208       -12.7678
  54   2.0000      -0.459800       -12.5118
  55   2.0000      -0.445058       -12.1106
  56   2.0000      -0.443611       -12.0713
  57   2.0000      -0.437626       -11.9084
  58   2.0000      -0.432035       -11.7563
  59   2.0000      -0.423474       -11.5233
  60   2.0000      -0.416674       -11.3383
  61   2.0000      -0.409402       -11.1404
  62   2.0000      -0.405143       -11.0245
  63   2.0000      -0.351383        -9.5616
  64   2.0000      -0.334419        -9.1000
  65   2.0000      -0.327236        -8.9045
  66   2.0000      -0.291154        -7.9227
  67   0.0000       0.024728         0.6729
  68   0.0000       0.068960         1.8765
  69   0.0000       0.101457         2.7608
  70   0.0000       0.126648         3.4463
  71   0.0000       0.129865         3.5338

MULLIKEN ATOMIC CHARGES
-----------------------
   0 S :    0.092942
   1 C :   -0.120609
   2 C :   -0.062539
   3 C :    0.056775
   4 C :   -0.152398
   5 H :   -0.022066
   6 C :    0.044334
   7 H :    0.030114
   8 H :    0.038429
   9 C :   -0.039195
  10 H :    0.025625
  11 H :    0.014701
  12 C :   -0.067272
  13 H :    0.033229
  14 H :    0.016446
  15 H :    0.035612
  16 S :    0.104233
  17 C :   -0.075003
  18 C :   -0.049254
  19 C :   -0.077759
  20 C :   -0.130315
  21 H :    0.033509
  22 C :    0.105673
  23 H :    0.009136
  24 H :    0.013435
  25 C :   -0.092426
  26 H :    0.047643
  27 H :    0.039553
  28 C :   -0.072731
  29 H :    0.027169
  30 H :    0.044180
  31 H :    0.048134
  32 H :    0.053709
  33 H :    0.046986
Sum of atomic charges:    0.0000000

LOEWDIN ATOMIC CHARGES
----------------------
   0 S :    0.382877
   1 C :   -0.189265
   2 C :   -0.059566
   3 C :   -0.053713
   4 C :   -0.181592
   5 H :    0.021318
   6 C :   -0.033095
   7 H :    0.038909
   8 H :    0.033456
   9 C :   -0.047484
  10 H :    0.035412
  11 H :    0.021653
  12 C :   -0.074469
  13 H :    0.022186
  14 H :    0.016069
  15 H :    0.038326
  16 S :    0.420173
  17 C :   -0.188168
  18 C :   -0.080589
  19 C :   -0.056543
  20 C :   -0.208424
  21 H :    0.037389
  22 C :   -0.029086
  23 H :    0.025899
  24 H :    0.020851
  25 C :   -0.044566
  26 H :    0.026507
  27 H :    0.033762
  28 C :   -0.078574
  29 H :    0.026122
  30 H :    0.031380
  31 H :    0.034226
  32 H :    0.032673
  33 H :    0.025947

  Mayer bond orders larger than 0.100000
B(  0-S ,  1-C ) :   1.1239 B(  0-S ,  4-C ) :   1.1328 B(  1-C ,  2-C ) :   1.5995
B(  1-C ,  4-C ) :   0.1058 B(  1-C , 32-H ) :   0.9641 B(  2-C ,  3-C ) :   1.2620
B(  2-C ,  6-C ) :   1.0062 B(  3-C ,  4-C ) :   1.5759 B(  3-C ,  5-H ) :   0.9985
B(  4-C , 20-C ) :   1.0474 B(  6-C ,  7-H ) :   0.9478 B(  6-C ,  8-H ) :   0.9308
B(  6-C ,  9-C ) :   1.0803 B(  9-C , 10-H ) :   0.9503 B(  9-C , 11-H ) :   0.9524
B(  9-C , 12-C ) :   1.0769 B( 12-C , 13-H ) :   0.9692 B( 12-C , 14-H ) :   0.9773
B( 12-C , 15-H ) :   0.9669 B( 16-S , 17-C ) :   1.1647 B( 16-S , 20-C ) :   1.1404
B( 17-C , 18-C ) :   1.5840 B( 17-C , 33-H ) :   0.9753 B( 18-C , 19-C ) :   1.2778
B( 18-C , 21-H ) :   0.9816 B( 19-C , 20-C ) :   1.5817 B( 19-C , 22-C ) :   1.0228
B( 22-C , 23-H ) :   0.9350 B( 22-C , 24-H ) :   0.9333 B( 22-C , 25-C ) :   1.0554
B( 25-C , 26-H ) :   0.9591 B( 25-C , 27-H ) :   0.9521 B( 25-C , 28-C ) :   1.0773
B( 28-C , 29-H ) :   0.9733 B( 28-C , 30-H ) :   0.9744 B( 28-C , 31-H ) :   0.9721

Dispersion correction           -0.014607454
FINAL SINGLE POINT ENERGY     -1339.863392291362

DIPOLE MOMENT
-------------
                                X             Y             Z
Electronic contribution:      0.47658      25.12954     -15.73362
Nuclear contribution   :     -0.16742     -25.69437      16.11912
                        -----------------------------------------
Total Dipole Moment    :      0.30916      -0.56482       0.38550
                        -----------------------------------------
Magnitude (a.u.)       :      0.75048
Magnitude (Debye)      :      1.90757

Rotational constants in cm-1:     0.020431     0.008750     0.006788
Rotational constants in MHz :   612.508421   262.330714   203.505511

                             ****ORCA TERMINATED NORMALLY****
TOTAL RUN TIME: 0 days 0 hours 0 minutes 34 seconds 27 msec
