                         Program Version 4.2.1 -  RELEASE  -
|  1> ! wB97X-D3 SP def2-SVP
|  2> %pal
|  3> nprocs 16
|  4> end
|  5>
|  6> * xyz 0 1
|  7> S 	 0.152472 	 -1.99551 	 78.4019
|  8> C 	 -1.37765 	 -2.51816 	 79.0988
|  9> C 	 -1.9918 	 -1.56187 	 79.8735
| 10> C 	 -1.13314 	 -0.420279 	 79.9366
| 11> C 	 0.00973462 	 -0.410306 	 79.2383
| 12> H 	 -1.35173 	 0.434549 	 80.4998
| 13> C 	 -3.26659 	 -1.73647 	 80.6659
| 14> H 	 -3.15852 	 -1.28063 	 81.6878
| 15> H 	 -3.34445 	 -2.78373 	 80.9594
| 16> C 	 -4.64998 	 -1.19518 	 80.0959
| 17> H 	 -5.36586 	 -1.57431 	 80.8272
| 18> H 	 -4.68301 	 -0.0636186 	 80.0997
| 19> C 	 -5.17842 	 -1.83127 	 78.78
| 20> H 	 -6.14875 	 -1.44749 	 78.5369
| 21> H 	 -4.39583 	 -1.59224 	 77.9875
| 22> H 	 -5.19804 	 -2.90734 	 78.9124
| 23> S 	 2.40451 	 0.0704917 	 80.2296
| 24> C 	 3.24903 	 1.56936 	 79.961
| 25> C 	 2.40331 	 2.44339 	 79.3056
| 26> C 	 1.16189 	 1.91411 	 78.8586
| 27> C 	 1.07258 	 0.597873 	 79.2739
| 28> H 	 2.7614 	 3.51238 	 79.0864
| 29> C 	 0.0961906 	 2.67652 	 78.0218
| 30> H 	 -0.792245 	 2.06619 	 78.0163
| 31> H 	 0.494447 	 2.63907 	 76.9632
| 32> C 	 -0.284553 	 4.10981 	 78.4792
| 33> H 	 -1.17662 	 4.38341 	 77.9074
| 34> H 	 0.461773 	 4.8566 	 78.2173
| 35> C 	 -0.649866 	 4.24403 	 79.9413
| 36> H 	 0.11133 	 3.85184 	 80.5804
| 37> H 	 -1.57246 	 3.66199 	 80.189
| 38> H 	 -0.652109 	 5.2635 	 80.2209
| 39> H 	 -1.81073 	 -3.40761 	 78.8993
| 40> H 	 4.23363 	 1.83421 	 80.41
| 41> *
| 42>
| 43>                          ****END OF INPUT****

CARTESIAN COORDINATES (ANGSTROEM)
---------------------------------
  S      0.152472   -1.995510   78.401900
  C     -1.377650   -2.518160   79.098800
  C     -1.991800   -1.561870   79.873500
  C     -1.133140   -0.420279   79.936600
  C      0.009735   -0.410306   79.238300
  H     -1.351730    0.434549   80.499800
  C     -3.266590   -1.736470   80.665900
  H     -3.158520   -1.280630   81.687800
  H     -3.344450   -2.783730   80.959400
  C     -4.649980   -1.195180   80.095900
  H     -5.365860   -1.574310   80.827200
  H     -4.683010   -0.063619   80.099700
  C     -5.178420   -1.831270   78.780000
  H     -6.148750   -1.447490   78.536900
  H     -4.395830   -1.592240   77.987500
  H     -5.198040   -2.907340   78.912400
  S      2.404510    0.070492   80.229600
  C      3.249030    1.569360   79.961000
  C      2.403310    2.443390   79.305600
  C      1.161890    1.914110   78.858600
  C      1.072580    0.597873   79.273900
  H      2.761400    3.512380   79.086400
  C      0.096191    2.676520   78.021800
  H     -0.792245    2.066190   78.016300
  H      0.494447    2.639070   76.963200
  C     -0.284553    4.109810   78.479200
  H     -1.176620    4.383410   77.907400
  H      0.461773    4.856600   78.217300
  C     -0.649866    4.244030   79.941300
  H      0.111330    3.851840   80.580400
  H     -1.572460    3.661990   80.189000
  H     -0.652109    5.263500   80.220900
  H     -1.810730   -3.407610   78.899300
  H      4.233630    1.834210   80.410000

 Total Charge           Charge          ....    0
 Multiplicity           Mult            ....    1
 Number of Electrons    NEL             ....  134
 Basis Dimension        Dim             ....  322

ORBITAL ENERGIES
----------------

  NO   OCC          E(Eh)            E(eV)
   0   2.0000     -88.963538     -2420.8209
   1   2.0000     -88.962392     -2420.7897
   2   2.0000     -10.325208      -280.9632
   3   2.0000     -10.323127      -280.9066
   4   2.0000     -10.318491      -280.7804
   5   2.0000     -10.308501      -280.5086
   6   2.0000     -10.306015      -280.4409
   7   2.0000     -10.301429      -280.3161
   8   2.0000     -10.299650      -280.2677
   9   2.0000     -10.299542      -280.2648
  10   2.0000     -10.298704      -280.2420
  11   2.0000     -10.297325      -280.2045
  12   2.0000     -10.288644      -279.9682
  13   2.0000     -10.284412      -279.8531
  14   2.0000     -10.282027      -279.7882
  15   2.0000     -10.272370      -279.5254
  16   2.0000      -8.079045      -219.8420
  17   2.0000      -8.076497      -219.7727
  18   2.0000      -6.037455      -164.2875
  19   2.0000      -6.035070      -164.2226
  20   2.0000      -6.033397      -164.1771
  21   2.0000      -6.031187      -164.1169
  22   2.0000      -6.029887      -164.0816
  23   2.0000      -6.027128      -164.0065
  24   2.0000      -1.008588       -27.4451
  25   2.0000      -0.984244       -26.7826
  26   2.0000      -0.907019       -24.6812
  27   2.0000      -0.901857       -24.5408
  28   2.0000      -0.869019       -23.6472
  29   2.0000      -0.850547       -23.1446
  30   2.0000      -0.844652       -22.9842
  31   2.0000      -0.815828       -22.1998
  32   2.0000      -0.784609       -21.3503
  33   2.0000      -0.775599       -21.1051
  34   2.0000      -0.706186       -19.2163
  35   2.0000      -0.695241       -18.9185
  36   2.0000      -0.693811       -18.8795
  37   2.0000      -0.653082       -17.7713
  38   2.0000      -0.647622       -17.6227
  39   2.0000      -0.619084       -16.8461
  40   2.0000      -0.594030       -16.1644
  41   2.0000      -0.565774       -15.3955
  42   2.0000      -0.557955       -15.1827
  43   2.0000      -0.543771       -14.7968
  44   2.0000      -0.539182       -14.6719
  45   2.0000      -0.538142       -14.6436
  46   2.0000      -0.519092       -14.1252
  47   2.0000      -0.513818       -13.9817
  48   2.0000      -0.497157       -13.5283
  49   2.0000      -0.492685       -13.4066
  50   2.0000      -0.490814       -13.3557
  51   2.0000      -0.479110       -13.0372
  52   2.0000      -0.471113       -12.8196
  53   2.0000      -0.468071       -12.7369
  54   2.0000      -0.462693       -12.5905
  55   2.0000      -0.441724       -12.0199
  56   2.0000      -0.437672       -11.9097
  57   2.0000      -0.434117       -11.8129
  58   2.0000      -0.432343       -11.7646
  59   2.0000      -0.426853       -11.6152
  60   2.0000      -0.425722       -11.5845
  61   2.0000      -0.416171       -11.3246
  62   2.0000      -0.410961       -11.1828
  63   2.0000      -0.341471        -9.2919
  64   2.0000      -0.329300        -8.9607
  65   2.0000      -0.325582        -8.8595
  66   2.0000      -0.305352        -8.3091
  67   0.0000       0.041735         1.1357
  68   0.0000       0.062596         1.7033
  69   0.0000       0.118491         3.2243
  70   0.0000       0.123984         3.3738
  71   0.0000       0.126965         3.4549

MULLIKEN ATOMIC CHARGES
-----------------------
   0 S :    0.096543
   1 C :   -0.072595
   2 C :   -0.056721
   3 C :    0.069737
   4 C :   -0.169655
   5 H :   -0.020690
   6 C :    0.028713
   7 H :    0.036161
   8 H :    0.022188
   9 C :   -0.095236
  10 H :    0.029980
  11 H :    0.045027
  12 C :   -0.053207
  13 H :    0.041287
  14 H :    0.048129
  15 H :    0.027443
  16 S :    0.121133
  17 C :   -0.104560
  18 C :   -0.077680
  19 C :   -0.027564
  20 C :   -0.197731
  21 H :    0.040717
  22 C :    0.083093
  23 H :    0.021386
  24 H :    0.055646
  25 C :   -0.081004
  26 H :    0.033542
  27 H :    0.028925
  28 C :   -0.033170
  29 H :    0.025877
  30 H :    0.037637
  31 H :    0.025142
  32 H :   -0.001496
  33 H :    0.073004
Sum of atomic charges:   -0.0000000

LOEWDIN ATOMIC CHARGES
----------------------
   0 S :    0.372596
   1 C :   -0.161069
   2 C :   -0.069459
   3 C :   -0.051981
   4 C :   -0.190849
   5 H :    0.020906
   6 C :   -0.039897
   7 H :    0.040827
   8 H :    0.031210
   9 C :   -0.043666
  10 H :    0.024661
  11 H :    0.027866
  12 C :   -0.067408
  13 H :    0.024327
  14 H :    0.032946
  15 H :    0.022643
  16 S :    0.430395
  17 C :   -0.200992
  18 C :   -0.083966
  19 C :   -0.060339
  20 C :   -0.207420
  21 H :    0.040385
  22 C :   -0.028328
  23 H :    0.028336
  24 H :    0.045230
  25 C :   -0.043785
  26 H :    0.029901
  27 H :    0.022027
  28 C :   -0.064937
  29 H :    0.022406
  30 H :    0.030872
  31 H :    0.023991
  32 H :    0.003066
  33 H :    0.039506

  Mayer bond orders larger than 0.100000
B(  0-S ,  1-C ) :   1.1442 B(  0-S ,  4-C ) :   1.1087 B(  1-C ,  2-C ) :   1.6212
B(  1-C , 32-H ) :   0.9757 B(  2-C ,  3-C ) :   1.2140 B(  2-C ,  6-C ) :   1.0208
B(  3-C ,  4-C ) :   1.6368 B(  3-C ,  5-H ) :   1.0020 B(  4-C , 20-C ) :   0.9950
B(  6-C ,  7-H ) :   0.9415 B(  6-C ,  8-H ) :   0.9428 B(  6-C ,  9-C ) :   1.0642
B(  9-C , 10-H ) :   0.9546 B(  9-C , 11-H ) :   0.9597 B(  9-C , 12-C ) :   1.0710
B( 12-C , 13-H ) :   0.9748 B( 12-C , 14-H ) :   0.9768 B( 12-C , 15-H ) :   0.9752
B( 16-S , 17-C ) :   1.1509 B( 16-S , 20-C ) :   1.1847 B( 17-C , 18-C ) :   1.6065
B( 17-C , 20-C ) :   0.1008 B( 17-C , 33-H ) :   0.9653 B( 18-C , 19-C ) :   1.2429
B( 18-C , 21-H ) :   0.9749 B( 19-C , 20-C ) :   1.5931 B( 19-C , 22-C ) :   1.0262
B( 22-C , 23-H ) :   0.9338 B( 22-C , 24-H ) :   0.9365 B( 22-C , 25-C ) :   1.0682
B( 25-C , 26-H ) :   0.9554 B( 25-C , 27-H ) :   0.9538 B( 25-C , 28-C ) :   1.0868
B( 28-C , 29-H ) :   0.9690 B( 28-C , 30-H ) :   0.9738 B( 28-C , 31-H ) :   0.9705

Dispersion correction           -0.014518973
FINAL SINGLE POINT ENERGY     -1339.878777254440

DIPOLE MOMENT
-------------
                                X             Y             Z
Electronic contribution:     24.08331     -12.59115      -0.89716
Nuclear contribution   :    -24.57108      13.02764       1.12124
                        -----------------------------------------
Total Dipole Moment    :     -0.48777       0.43649       0.22408
                        -----------------------------------------
Magnitude (a.u.)       :      0.69185
Magnitude (Debye)      :      1.75854

Rotational constants in cm-1:     0.019121     0.008550     0.006675
Rotational constants in MHz :   573.235889   256.332651   200.099560

                             ****ORCA TERMINATED NORMALLY****
TOTAL RUN TIME: 0 days 0 hours 0 minutes 34 seconds 198 msec
