                         Program Version 4.2.1 -  RELEASE  -
|  1> ! wB97X-D3 SP def2-SVP
|  2> %pal
|  3> nprocs 16
|  4> end
|  5>
|  6> * xyz 0 1
|  7> S 	 6.54216 	 -21.5584 	 85.2649
|  8> C 	 6.93891 	 -22.2229 	 86.7803
|  9> C 	 7.17623 	 -21.2652 	 87.7743
| 10> C 	 6.82666 	 -19.9572 	 87.3069
| 11> C 	 6.36064 	 -20.0299 	 85.9827
| 12> H 	 6.66147 	 -18.9494 	 87.8717
| 13> C 	 7.33771 	 -21.5576 	 89.2728
| 14> H 	 8.00257 	 -20.8385 	 89.7501
| 15> H 	 7.69906 	 -22.5501 	 89.3635
| 16> C 	 6.02902 	 -21.4912 	 90.0355
| 17> H 	 6.18746 	 -21.814 	 91.0731
| 18> H 	 5.69821 	 -20.454 	 90.2798
| 19> C 	 4.8745 	 -22.2049 	 89.4126
| 20> H 	 4.4533 	 -21.4443 	 88.7327
| 21> H 	 5.25137 	 -23.1653 	 88.9434
| 22> H 	 4.0217 	 -22.2866 	 90.0814
| 23> S 	 6.95468 	 -18.7471 	 83.6422
| 24> C 	 6.19415 	 -17.2776 	 83.2791
| 25> C 	 5.28715 	 -16.7664 	 84.2299
| 26> C 	 5.24844 	 -17.7535 	 85.2867
| 27> C 	 6.03667 	 -18.8769 	 85.1213
| 28> H 	 4.78502 	 -15.8813 	 83.9727
| 29> C 	 4.36215 	 -17.631 	 86.4609
| 30> H 	 4.82918 	 -17.7255 	 87.3995
| 31> H 	 3.56501 	 -18.4134 	 86.5055
| 32> C 	 3.4497 	 -16.4445 	 86.4802
| 33> H 	 2.4561 	 -16.7233 	 86.8529
| 34> H 	 3.25578 	 -16.1734 	 85.5013
| 35> C 	 3.9964 	 -15.1907 	 87.2529
| 36> H 	 5.06453 	 -15.0136 	 86.8905
| 37> H 	 3.97721 	 -15.3835 	 88.3024
| 38> H 	 3.34414 	 -14.3306 	 87.2381
| 39> H 	 7.12914 	 -23.279 	 86.9724
| 40> H 	 6.4848 	 -16.7227 	 82.4306
| 41> *
| 42>
| 43>                          ****END OF INPUT****

CARTESIAN COORDINATES (ANGSTROEM)
---------------------------------
  S      6.542160  -21.558400   85.264900
  C      6.938910  -22.222900   86.780300
  C      7.176230  -21.265200   87.774300
  C      6.826660  -19.957200   87.306900
  C      6.360640  -20.029900   85.982700
  H      6.661470  -18.949400   87.871700
  C      7.337710  -21.557600   89.272800
  H      8.002570  -20.838500   89.750100
  H      7.699060  -22.550100   89.363500
  C      6.029020  -21.491200   90.035500
  H      6.187460  -21.814000   91.073100
  H      5.698210  -20.454000   90.279800
  C      4.874500  -22.204900   89.412600
  H      4.453300  -21.444300   88.732700
  H      5.251370  -23.165300   88.943400
  H      4.021700  -22.286600   90.081400
  S      6.954680  -18.747100   83.642200
  C      6.194150  -17.277600   83.279100
  C      5.287150  -16.766400   84.229900
  C      5.248440  -17.753500   85.286700
  C      6.036670  -18.876900   85.121300
  H      4.785020  -15.881300   83.972700
  C      4.362150  -17.631000   86.460900
  H      4.829180  -17.725500   87.399500
  H      3.565010  -18.413400   86.505500
  C      3.449700  -16.444500   86.480200
  H      2.456100  -16.723300   86.852900
  H      3.255780  -16.173400   85.501300
  C      3.996400  -15.190700   87.252900
  H      5.064530  -15.013600   86.890500
  H      3.977210  -15.383500   88.302400
  H      3.344140  -14.330600   87.238100
  H      7.129140  -23.279000   86.972400
  H      6.484800  -16.722700   82.430600

 Total Charge           Charge          ....    0
 Multiplicity           Mult            ....    1
 Number of Electrons    NEL             ....  134
 Basis Dimension        Dim             ....  322

ORBITAL ENERGIES
----------------

  NO   OCC          E(Eh)            E(eV)
   0   2.0000     -88.971755     -2421.0445
   1   2.0000     -88.965623     -2420.8777
   2   2.0000     -10.327093      -281.0145
   3   2.0000     -10.320492      -280.8349
   4   2.0000     -10.312356      -280.6135
   5   2.0000     -10.311267      -280.5838
   6   2.0000     -10.303816      -280.3811
   7   2.0000     -10.303808      -280.3809
   8   2.0000     -10.302867      -280.3553
   9   2.0000     -10.297045      -280.1968
  10   2.0000     -10.290858      -280.0285
  11   2.0000     -10.282187      -279.7925
  12   2.0000     -10.279715      -279.7253
  13   2.0000     -10.278623      -279.6956
  14   2.0000     -10.276318      -279.6328
  15   2.0000     -10.275813      -279.6191
  16   2.0000      -8.088011      -220.0860
  17   2.0000      -8.081606      -219.9117
  18   2.0000      -6.046234      -164.5264
  19   2.0000      -6.042341      -164.4204
  20   2.0000      -6.039793      -164.3511
  21   2.0000      -6.038959      -164.3284
  22   2.0000      -6.035929      -164.2460
  23   2.0000      -6.032655      -164.1569
  24   2.0000      -1.014771       -27.6133
  25   2.0000      -0.991009       -26.9667
  26   2.0000      -0.918916       -25.0050
  27   2.0000      -0.916311       -24.9341
  28   2.0000      -0.867295       -23.6003
  29   2.0000      -0.852867       -23.2077
  30   2.0000      -0.844993       -22.9934
  31   2.0000      -0.812354       -22.1053
  32   2.0000      -0.788290       -21.4505
  33   2.0000      -0.775890       -21.1130
  34   2.0000      -0.709612       -19.3095
  35   2.0000      -0.696666       -18.9572
  36   2.0000      -0.687103       -18.6970
  37   2.0000      -0.656275       -17.8581
  38   2.0000      -0.637502       -17.3473
  39   2.0000      -0.622343       -16.9348
  40   2.0000      -0.608036       -16.5455
  41   2.0000      -0.570326       -15.5194
  42   2.0000      -0.563747       -15.3403
  43   2.0000      -0.555741       -15.1225
  44   2.0000      -0.542487       -14.7618
  45   2.0000      -0.528234       -14.3740
  46   2.0000      -0.518476       -14.1085
  47   2.0000      -0.511332       -13.9140
  48   2.0000      -0.503384       -13.6978
  49   2.0000      -0.493110       -13.4182
  50   2.0000      -0.488637       -13.2965
  51   2.0000      -0.475531       -12.9398
  52   2.0000      -0.472579       -12.8595
  53   2.0000      -0.462975       -12.5982
  54   2.0000      -0.458944       -12.4885
  55   2.0000      -0.456300       -12.4166
  56   2.0000      -0.450848       -12.2682
  57   2.0000      -0.442235       -12.0338
  58   2.0000      -0.428296       -11.6545
  59   2.0000      -0.427672       -11.6375
  60   2.0000      -0.419912       -11.4264
  61   2.0000      -0.411398       -11.1947
  62   2.0000      -0.398563       -10.8454
  63   2.0000      -0.346758        -9.4358
  64   2.0000      -0.332919        -9.0592
  65   2.0000      -0.330405        -8.9908
  66   2.0000      -0.287103        -7.8125
  67   0.0000       0.033228         0.9042
  68   0.0000       0.066568         1.8114
  69   0.0000       0.111962         3.0466
  70   0.0000       0.116252         3.1634
  71   0.0000       0.131093         3.5672

MULLIKEN ATOMIC CHARGES
-----------------------
   0 S :    0.138987
   1 C :   -0.111365
   2 C :   -0.102024
   3 C :   -0.002666
   4 C :   -0.177754
   5 H :    0.058540
   6 C :    0.107123
   7 H :    0.032875
   8 H :    0.013166
   9 C :   -0.112438
  10 H :    0.020439
  11 H :    0.012677
  12 C :   -0.027392
  13 H :    0.035267
  14 H :    0.042523
  15 H :    0.025763
  16 S :    0.117364
  17 C :   -0.078400
  18 C :   -0.034403
  19 C :   -0.030779
  20 C :   -0.129863
  21 H :    0.014427
  22 C :    0.067015
  23 H :    0.001516
  24 H :    0.039371
  25 C :   -0.060621
  26 H :    0.017195
  27 H :   -0.000564
  28 C :   -0.057794
  29 H :    0.047882
  30 H :    0.019365
  31 H :    0.029009
  32 H :    0.048436
  33 H :    0.037123
Sum of atomic charges:   -0.0000000

LOEWDIN ATOMIC CHARGES
----------------------
   0 S :    0.455741
   1 C :   -0.217889
   2 C :   -0.061467
   3 C :   -0.072561
   4 C :   -0.212596
   5 H :    0.051194
   6 C :   -0.024217
   7 H :    0.036093
   8 H :    0.023265
   9 C :   -0.053173
  10 H :    0.020756
  11 H :    0.021133
  12 C :   -0.072105
  13 H :    0.033719
  14 H :    0.031429
  15 H :    0.026028
  16 S :    0.432672
  17 C :   -0.186930
  18 C :   -0.070961
  19 C :   -0.055161
  20 C :   -0.207671
  21 H :    0.030274
  22 C :   -0.039919
  23 H :    0.019300
  24 H :    0.047495
  25 C :   -0.035573
  26 H :    0.023513
  27 H :    0.010052
  28 C :   -0.070762
  29 H :    0.034670
  30 H :    0.018438
  31 H :    0.023284
  32 H :    0.026717
  33 H :    0.015211

  Mayer bond orders larger than 0.100000
B(  0-S ,  1-C ) :   1.1586 B(  0-S ,  4-C ) :   1.1836 B(  1-C ,  2-C ) :   1.5865
B(  1-C , 32-H ) :   0.9622 B(  2-C ,  3-C ) :   1.2526 B(  2-C ,  6-C ) :   1.0441
B(  3-C ,  4-C ) :   1.5533 B(  3-C ,  5-H ) :   0.9713 B(  4-C , 20-C ) :   1.0190
B(  6-C ,  7-H ) :   0.9368 B(  6-C ,  8-H ) :   0.9369 B(  6-C ,  9-C ) :   1.0752
B(  9-C , 10-H ) :   0.9531 B(  9-C , 11-H ) :   0.9504 B(  9-C , 12-C ) :   1.0842
B( 12-C , 13-H ) :   0.9659 B( 12-C , 14-H ) :   0.9730 B( 12-C , 15-H ) :   0.9668
B( 16-S , 17-C ) :   1.2015 B( 16-S , 20-C ) :   1.1387 B( 17-C , 18-C ) :   1.5872
B( 17-C , 33-H ) :   0.9636 B( 18-C , 19-C ) :   1.2186 B( 18-C , 21-H ) :   1.0042
B( 19-C , 20-C ) :   1.6185 B( 19-C , 22-C ) :   1.0492 B( 22-C , 23-H ) :   0.9280
B( 22-C , 24-H ) :   0.9275 B( 22-C , 25-C ) :   1.0786 B( 25-C , 26-H ) :   0.9579
B( 25-C , 27-H ) :   0.9465 B( 25-C , 28-C ) :   1.0769 B( 28-C , 29-H ) :   0.9754
B( 28-C , 30-H ) :   0.9741 B( 28-C , 31-H ) :   0.9749

Dispersion correction           -0.014875677
FINAL SINGLE POINT ENERGY     -1339.850949674892

DIPOLE MOMENT
-------------
                                X             Y             Z
Electronic contribution:     13.04500      -7.73944     -23.93656
Nuclear contribution   :    -13.30824       7.93012      24.38943
                        -----------------------------------------
Total Dipole Moment    :     -0.26324       0.19068       0.45287
                        -----------------------------------------
Magnitude (a.u.)       :      0.55744
Magnitude (Debye)      :      1.41691

Rotational constants in cm-1:     0.018714     0.009553     0.006879
Rotational constants in MHz :   561.040766   286.394045   206.234523

                             ****ORCA TERMINATED NORMALLY****
TOTAL RUN TIME: 0 days 0 hours 0 minutes 35 seconds 602 msec
