                         Program Version 4.2.1 -  RELEASE  -
|  1> ! wB97X-D3 SP def2-SVP
|  2> %pal
|  3> nprocs 16
|  4> end
|  5>
|  6> * xyz 0 1
|  7> S 	 -73.9317 	 57.2845 	 122.375
|  8> C 	 -74.0345 	 58.9672 	 122.236
|  9> C 	 -74.3069 	 59.5955 	 123.453
| 10> C 	 -74.6432 	 58.6422 	 124.503
| 11> C 	 -74.4247 	 57.3138 	 124.084
| 12> H 	 -74.8008 	 58.8454 	 125.532
| 13> C 	 -74.3794 	 61.1731 	 123.574
| 14> H 	 -73.4903 	 61.5226 	 123.109
| 15> H 	 -74.2996 	 61.4861 	 124.612
| 16> C 	 -75.7019 	 61.7498 	 122.984
| 17> H 	 -75.735 	 61.7724 	 121.844
| 18> H 	 -76.5494 	 61.2139 	 123.347
| 19> C 	 -75.9465 	 63.2328 	 123.291
| 20> H 	 -75.7275 	 63.3574 	 124.345
| 21> H 	 -75.3575 	 63.9119 	 122.748
| 22> H 	 -77.0252 	 63.39 	 123.094
| 23> S 	 -75.6002 	 55.6041 	 125.971
| 24> C 	 -74.5655 	 54.2743 	 126.711
| 25> C 	 -73.2919 	 54.3171 	 126.272
| 26> C 	 -73.0997 	 55.3347 	 125.286
| 27> C 	 -74.2036 	 56.1709 	 125.046
| 28> H 	 -72.5398 	 53.542 	 126.509
| 29> C 	 -71.7836 	 55.5418 	 124.498
| 30> H 	 -70.9232 	 55.5901 	 125.212
| 31> H 	 -71.7852 	 56.4496 	 123.855
| 32> C 	 -71.3522 	 54.3151 	 123.65
| 33> H 	 -72.0918 	 54.0811 	 122.829
| 34> H 	 -71.4043 	 53.4658 	 124.29
| 35> C 	 -69.979 	 54.5478 	 122.946
| 36> H 	 -69.9042 	 55.5749 	 122.646
| 37> H 	 -69.7951 	 53.7253 	 122.189
| 38> H 	 -69.1113 	 54.369 	 123.651
| 39> H 	 -73.8211 	 59.4821 	 121.371
| 40> H 	 -74.9576 	 53.5294 	 127.378
| 41> *
| 42>
| 43>                          ****END OF INPUT****

CARTESIAN COORDINATES (ANGSTROEM)
---------------------------------
  S    -73.931700   57.284500  122.375000
  C    -74.034500   58.967200  122.236000
  C    -74.306900   59.595500  123.453000
  C    -74.643200   58.642200  124.503000
  C    -74.424700   57.313800  124.084000
  H    -74.800800   58.845400  125.532000
  C    -74.379400   61.173100  123.574000
  H    -73.490300   61.522600  123.109000
  H    -74.299600   61.486100  124.612000
  C    -75.701900   61.749800  122.984000
  H    -75.735000   61.772400  121.844000
  H    -76.549400   61.213900  123.347000
  C    -75.946500   63.232800  123.291000
  H    -75.727500   63.357400  124.345000
  H    -75.357500   63.911900  122.748000
  H    -77.025200   63.390000  123.094000
  S    -75.600200   55.604100  125.971000
  C    -74.565500   54.274300  126.711000
  C    -73.291900   54.317100  126.272000
  C    -73.099700   55.334700  125.286000
  C    -74.203600   56.170900  125.046000
  H    -72.539800   53.542000  126.509000
  C    -71.783600   55.541800  124.498000
  H    -70.923200   55.590100  125.212000
  H    -71.785200   56.449600  123.855000
  C    -71.352200   54.315100  123.650000
  H    -72.091800   54.081100  122.829000
  H    -71.404300   53.465800  124.290000
  C    -69.979000   54.547800  122.946000
  H    -69.904200   55.574900  122.646000
  H    -69.795100   53.725300  122.189000
  H    -69.111300   54.369000  123.651000
  H    -73.821100   59.482100  121.371000
  H    -74.957600   53.529400  127.378000

 Total Charge           Charge          ....    0
 Multiplicity           Mult            ....    1
 Number of Electrons    NEL             ....  134
 Basis Dimension        Dim             ....  322

ORBITAL ENERGIES
----------------

  NO   OCC          E(Eh)            E(eV)
   0   2.0000     -88.971811     -2421.0461
   1   2.0000     -88.964287     -2420.8413
   2   2.0000     -10.337549      -281.2990
   3   2.0000     -10.333768      -281.1961
   4   2.0000     -10.322221      -280.8819
   5   2.0000     -10.309909      -280.5469
   6   2.0000     -10.309388      -280.5327
   7   2.0000     -10.306965      -280.4668
   8   2.0000     -10.301541      -280.3192
   9   2.0000     -10.299027      -280.2508
  10   2.0000     -10.297304      -280.2039
  11   2.0000     -10.293967      -280.1131
  12   2.0000     -10.289694      -279.9968
  13   2.0000     -10.285839      -279.8919
  14   2.0000     -10.285147      -279.8731
  15   2.0000     -10.273797      -279.5642
  16   2.0000      -8.086320      -220.0399
  17   2.0000      -8.077519      -219.8005
  18   2.0000      -6.044735      -164.4856
  19   2.0000      -6.040719      -164.3763
  20   2.0000      -6.037328      -164.2840
  21   2.0000      -6.036202      -164.2534
  22   2.0000      -6.032340      -164.1483
  23   2.0000      -6.028081      -164.0324
  24   2.0000      -0.999504       -27.1979
  25   2.0000      -0.978948       -26.6385
  26   2.0000      -0.904380       -24.6094
  27   2.0000      -0.897575       -24.4243
  28   2.0000      -0.870069       -23.6758
  29   2.0000      -0.849986       -23.1293
  30   2.0000      -0.837777       -22.7971
  31   2.0000      -0.818544       -22.2737
  32   2.0000      -0.777363       -21.1531
  33   2.0000      -0.762537       -20.7497
  34   2.0000      -0.698670       -19.0118
  35   2.0000      -0.696108       -18.9421
  36   2.0000      -0.691204       -18.8086
  37   2.0000      -0.662222       -18.0200
  38   2.0000      -0.648315       -17.6415
  39   2.0000      -0.609789       -16.5932
  40   2.0000      -0.595057       -16.1923
  41   2.0000      -0.571893       -15.5620
  42   2.0000      -0.562917       -15.3178
  43   2.0000      -0.555917       -15.1273
  44   2.0000      -0.530447       -14.4342
  45   2.0000      -0.525239       -14.2925
  46   2.0000      -0.513721       -13.9791
  47   2.0000      -0.507608       -13.8127
  48   2.0000      -0.504064       -13.7163
  49   2.0000      -0.500468       -13.6184
  50   2.0000      -0.490204       -13.3391
  51   2.0000      -0.475691       -12.9442
  52   2.0000      -0.470815       -12.8115
  53   2.0000      -0.463569       -12.6144
  54   2.0000      -0.455708       -12.4005
  55   2.0000      -0.447817       -12.1857
  56   2.0000      -0.439042       -11.9469
  57   2.0000      -0.438727       -11.9384
  58   2.0000      -0.433768       -11.8034
  59   2.0000      -0.425106       -11.5677
  60   2.0000      -0.414330       -11.2745
  61   2.0000      -0.413257       -11.2453
  62   2.0000      -0.407384       -11.0855
  63   2.0000      -0.351824        -9.5736
  64   2.0000      -0.335515        -9.1298
  65   2.0000      -0.321923        -8.7600
  66   2.0000      -0.294099        -8.0028
  67   0.0000       0.031763         0.8643
  68   0.0000       0.063572         1.7299
  69   0.0000       0.105621         2.8741
  70   0.0000       0.111905         3.0451
  71   0.0000       0.128811         3.5051

MULLIKEN ATOMIC CHARGES
-----------------------
   0 S :    0.120999
   1 C :   -0.076972
   2 C :   -0.124617
   3 C :    0.063233
   4 C :   -0.152961
   5 H :    0.012986
   6 C :    0.094230
   7 H :    0.022050
   8 H :    0.016042
   9 C :   -0.097638
  10 H :    0.035421
  11 H :    0.033813
  12 C :   -0.032858
  13 H :    0.018416
  14 H :    0.025720
  15 H :    0.039661
  16 S :    0.078738
  17 C :   -0.092174
  18 C :   -0.009757
  19 C :   -0.035729
  20 C :   -0.156954
  21 H :    0.039637
  22 C :    0.020133
  23 H :    0.028547
  24 H :    0.042381
  25 C :   -0.090747
  26 H :    0.032900
  27 H :    0.013976
  28 C :   -0.060826
  29 H :    0.038377
  30 H :    0.048598
  31 H :    0.028819
  32 H :    0.021763
  33 H :    0.054792
Sum of atomic charges:   -0.0000000

LOEWDIN ATOMIC CHARGES
----------------------
   0 S :    0.437989
   1 C :   -0.201020
   2 C :   -0.057843
   3 C :   -0.048590
   4 C :   -0.194813
   5 H :    0.028066
   6 C :   -0.025568
   7 H :    0.025623
   8 H :    0.027191
   9 C :   -0.041721
  10 H :    0.030081
  11 H :    0.022696
  12 C :   -0.061118
  13 H :    0.019162
  14 H :    0.014969
  15 H :    0.033349
  16 S :    0.357687
  17 C :   -0.148437
  18 C :   -0.072398
  19 C :   -0.059056
  20 C :   -0.189953
  21 H :    0.042586
  22 C :   -0.039725
  23 H :    0.032536
  24 H :    0.021703
  25 C :   -0.045600
  26 H :    0.025006
  27 H :    0.012505
  28 C :   -0.072476
  29 H :    0.023868
  30 H :    0.035835
  31 H :    0.027197
  32 H :    0.013171
  33 H :    0.027095

  Mayer bond orders larger than 0.100000
B(  0-S ,  1-C ) :   1.1638 B(  0-S ,  4-C ) :   1.1561 B(  1-C ,  2-C ) :   1.5834
B(  1-C , 32-H ) :   0.9792 B(  2-C ,  3-C ) :   1.2704 B(  2-C ,  6-C ) :   1.0184
B(  3-C ,  4-C ) :   1.5535 B(  3-C ,  5-H ) :   0.9902 B(  4-C , 20-C ) :   1.0017
B(  6-C ,  7-H ) :   0.9414 B(  6-C ,  8-H ) :   0.9454 B(  6-C ,  9-C ) :   1.0600
B(  9-C , 10-H ) :   0.9575 B(  9-C , 11-H ) :   0.9619 B(  9-C , 12-C ) :   1.0794
B( 12-C , 13-H ) :   0.9749 B( 12-C , 14-H ) :   0.9790 B( 12-C , 15-H ) :   0.9758
B( 16-S , 17-C ) :   1.1278 B( 16-S , 20-C ) :   1.1233 B( 17-C , 18-C ) :   1.6455
B( 17-C , 33-H ) :   0.9673 B( 18-C , 19-C ) :   1.2208 B( 18-C , 21-H ) :   0.9793
B( 19-C , 20-C ) :   1.6310 B( 19-C , 22-C ) :   1.0366 B( 22-C , 23-H ) :   0.9385
B( 22-C , 24-H ) :   0.9405 B( 22-C , 25-C ) :   1.0483 B( 25-C , 26-H ) :   0.9555
B( 25-C , 27-H ) :   0.9590 B( 25-C , 28-C ) :   1.0717 B( 28-C , 29-H ) :   0.9751
B( 28-C , 30-H ) :   0.9749 B( 28-C , 31-H ) :   0.9740

Dispersion correction           -0.013813803
FINAL SINGLE POINT ENERGY     -1339.866885335342

DIPOLE MOMENT
-------------
                                X             Y             Z
Electronic contribution:    -10.51407     -13.19157       5.79381
Nuclear contribution   :     10.92224      13.44147      -5.79436
                        -----------------------------------------
Total Dipole Moment    :      0.40817       0.24990      -0.00055
                        -----------------------------------------
Magnitude (a.u.)       :      0.47860
Magnitude (Debye)      :      1.21650

Rotational constants in cm-1:     0.021045     0.007289     0.005849
Rotational constants in MHz :   630.901281   218.508713   175.361042

                             ****ORCA TERMINATED NORMALLY****
TOTAL RUN TIME: 0 days 0 hours 0 minutes 32 seconds 354 msec
