                         Program Version 4.2.1 -  RELEASE  -
|  1> ! wB97X-D3 SP def2-SVP
|  2> %pal
|  3> nprocs 16
|  4> end
|  5>
|  6> * xyz 0 1
|  7> S 	 14.7242 	 13.7985 	 86.1292
|  8> C 	 16.0934 	 13.3954 	 85.1902
|  9> C 	 15.7199 	 12.6678 	 84.0528
| 10> C 	 14.2811 	 12.4051 	 84.0412
| 11> C 	 13.5944 	 13.0586 	 85.0348
| 12> H 	 13.7434 	 11.8481 	 83.2043
| 13> C 	 16.6264 	 12.175 	 82.9319
| 14> H 	 16.4044 	 11.0797 	 82.8046
| 15> H 	 17.6841 	 12.0855 	 83.2582
| 16> C 	 16.4717 	 12.8404 	 81.5968
| 17> H 	 16.4774 	 13.9094 	 81.8055
| 18> H 	 17.3623 	 12.7415 	 81.0431
| 19> C 	 15.281 	 12.5231 	 80.7537
| 20> H 	 14.4236 	 13.0612 	 81.1248
| 21> H 	 15.4254 	 12.9024 	 79.7345
| 22> H 	 15.097 	 11.4623 	 80.6628
| 23> S 	 11.4336 	 14.7345 	 85.1081
| 24> C 	 9.82115 	 14.1279 	 85.2407
| 25> C 	 9.8232 	 12.7356 	 85.178
| 26> C 	 11.1252 	 12.1579 	 85.1573
| 27> C 	 12.1158 	 13.1339 	 85.2192
| 28> H 	 8.91837 	 12.2553 	 85.0865
| 29> C 	 11.4904 	 10.6691 	 85.1601
| 30> H 	 11.6607 	 10.4678 	 86.1643
| 31> H 	 12.441 	 10.6155 	 84.6342
| 32> C 	 10.2976 	 9.82738 	 84.5907
| 33> H 	 9.48576 	 10.0377 	 85.2667
| 34> H 	 10.6749 	 8.78205 	 84.6454
| 35> C 	 10.0133 	 10.0494 	 83.1439
| 36> H 	 9.26145 	 9.36934 	 82.9067
| 37> H 	 10.8948 	 9.9544 	 82.5282
| 38> H 	 9.59639 	 11.0919 	 83.0594
| 39> H 	 17.1515 	 13.6046 	 85.3496
| 40> H 	 8.90009 	 14.6511 	 85.1652
| 41> *
| 42>
| 43>                          ****END OF INPUT****

CARTESIAN COORDINATES (ANGSTROEM)
---------------------------------
  S     14.724200   13.798500   86.129200
  C     16.093400   13.395400   85.190200
  C     15.719900   12.667800   84.052800
  C     14.281100   12.405100   84.041200
  C     13.594400   13.058600   85.034800
  H     13.743400   11.848100   83.204300
  C     16.626400   12.175000   82.931900
  H     16.404400   11.079700   82.804600
  H     17.684100   12.085500   83.258200
  C     16.471700   12.840400   81.596800
  H     16.477400   13.909400   81.805500
  H     17.362300   12.741500   81.043100
  C     15.281000   12.523100   80.753700
  H     14.423600   13.061200   81.124800
  H     15.425400   12.902400   79.734500
  H     15.097000   11.462300   80.662800
  S     11.433600   14.734500   85.108100
  C      9.821150   14.127900   85.240700
  C      9.823200   12.735600   85.178000
  C     11.125200   12.157900   85.157300
  C     12.115800   13.133900   85.219200
  H      8.918370   12.255300   85.086500
  C     11.490400   10.669100   85.160100
  H     11.660700   10.467800   86.164300
  H     12.441000   10.615500   84.634200
  C     10.297600    9.827380   84.590700
  H      9.485760   10.037700   85.266700
  H     10.674900    8.782050   84.645400
  C     10.013300   10.049400   83.143900
  H      9.261450    9.369340   82.906700
  H     10.894800    9.954400   82.528200
  H      9.596390   11.091900   83.059400
  H     17.151500   13.604600   85.349600
  H      8.900090   14.651100   85.165200

 Total Charge           Charge          ....    0
 Multiplicity           Mult            ....    1
 Number of Electrons    NEL             ....  134
 Basis Dimension        Dim             ....  322

ORBITAL ENERGIES
----------------

  NO   OCC          E(Eh)            E(eV)
   0   2.0000     -88.967195     -2420.9205
   1   2.0000     -88.965335     -2420.8698
   2   2.0000     -10.330491      -281.1070
   3   2.0000     -10.324250      -280.9371
   4   2.0000     -10.314006      -280.6584
   5   2.0000     -10.313920      -280.6560
   6   2.0000     -10.304269      -280.3934
   7   2.0000     -10.301943      -280.3301
   8   2.0000     -10.300005      -280.2774
   9   2.0000     -10.295212      -280.1470
  10   2.0000     -10.288813      -279.9728
  11   2.0000     -10.286605      -279.9127
  12   2.0000     -10.284099      -279.8446
  13   2.0000     -10.276114      -279.6273
  14   2.0000     -10.273880      -279.5665
  15   2.0000     -10.272649      -279.5330
  16   2.0000      -8.082493      -219.9358
  17   2.0000      -8.080329      -219.8769
  18   2.0000      -6.041074      -164.3860
  19   2.0000      -6.038779      -164.3235
  20   2.0000      -6.036736      -164.2679
  21   2.0000      -6.034727      -164.2133
  22   2.0000      -6.033317      -164.1749
  23   2.0000      -6.031207      -164.1175
  24   2.0000      -1.007566       -27.4173
  25   2.0000      -0.986713       -26.8498
  26   2.0000      -0.916313       -24.9341
  27   2.0000      -0.913160       -24.8484
  28   2.0000      -0.869884       -23.6708
  29   2.0000      -0.852002       -23.1841
  30   2.0000      -0.844650       -22.9841
  31   2.0000      -0.818227       -22.2651
  32   2.0000      -0.787083       -21.4176
  33   2.0000      -0.775503       -21.1025
  34   2.0000      -0.703086       -19.1319
  35   2.0000      -0.697891       -18.9906
  36   2.0000      -0.696552       -18.9542
  37   2.0000      -0.655991       -17.8504
  38   2.0000      -0.638138       -17.3646
  39   2.0000      -0.617580       -16.8052
  40   2.0000      -0.596792       -16.2395
  41   2.0000      -0.576580       -15.6896
  42   2.0000      -0.561945       -15.2913
  43   2.0000      -0.549247       -14.9458
  44   2.0000      -0.546079       -14.8596
  45   2.0000      -0.539658       -14.6848
  46   2.0000      -0.526040       -14.3143
  47   2.0000      -0.512025       -13.9329
  48   2.0000      -0.501710       -13.6522
  49   2.0000      -0.500827       -13.6282
  50   2.0000      -0.494979       -13.4691
  51   2.0000      -0.482570       -13.1314
  52   2.0000      -0.470804       -12.8112
  53   2.0000      -0.468258       -12.7419
  54   2.0000      -0.463271       -12.6062
  55   2.0000      -0.450929       -12.2704
  56   2.0000      -0.440453       -11.9853
  57   2.0000      -0.436176       -11.8689
  58   2.0000      -0.432855       -11.7786
  59   2.0000      -0.427731       -11.6391
  60   2.0000      -0.422512       -11.4971
  61   2.0000      -0.410449       -11.1689
  62   2.0000      -0.403337       -10.9754
  63   2.0000      -0.345898        -9.4124
  64   2.0000      -0.329578        -8.9683
  65   2.0000      -0.325881        -8.8677
  66   2.0000      -0.296153        -8.0587
  67   0.0000       0.036349         0.9891
  68   0.0000       0.068893         1.8747
  69   0.0000       0.113960         3.1010
  70   0.0000       0.121362         3.3024
  71   0.0000       0.137628         3.7450

MULLIKEN ATOMIC CHARGES
-----------------------
   0 S :    0.127360
   1 C :   -0.102659
   2 C :   -0.123416
   3 C :    0.015305
   4 C :   -0.178178
   5 H :    0.046190
   6 C :    0.031731
   7 H :    0.025964
   8 H :    0.021915
   9 C :   -0.034674
  10 H :    0.019039
  11 H :    0.012634
  12 C :   -0.034682
  13 H :    0.039591
  14 H :    0.030507
  15 H :    0.025047
  16 S :    0.117142
  17 C :   -0.064704
  18 C :   -0.050856
  19 C :   -0.068053
  20 C :   -0.154709
  21 H :   -0.012265
  22 C :    0.140221
  23 H :    0.029346
  24 H :    0.009129
  25 C :   -0.114184
  26 H :    0.037124
  27 H :    0.033100
  28 C :   -0.007403
  29 H :    0.027158
  30 H :    0.033118
  31 H :    0.031861
  32 H :    0.048225
  33 H :    0.044079
Sum of atomic charges:   -0.0000000

LOEWDIN ATOMIC CHARGES
----------------------
   0 S :    0.431751
   1 C :   -0.218018
   2 C :   -0.064720
   3 C :   -0.074777
   4 C :   -0.207510
   5 H :    0.041653
   6 C :   -0.041578
   7 H :    0.033578
   8 H :    0.033405
   9 C :   -0.047204
  10 H :    0.028659
  11 H :    0.020092
  12 C :   -0.062784
  13 H :    0.026483
  14 H :    0.032131
  15 H :    0.020904
  16 S :    0.426481
  17 C :   -0.187902
  18 C :   -0.071394
  19 C :   -0.051195
  20 C :   -0.209217
  21 H :    0.014844
  22 C :   -0.021247
  23 H :    0.028352
  24 H :    0.028070
  25 C :   -0.040215
  26 H :    0.022649
  27 H :    0.029110
  28 C :   -0.058680
  29 H :    0.020120
  30 H :    0.026373
  31 H :    0.030453
  32 H :    0.035085
  33 H :    0.026249

  Mayer bond orders larger than 0.100000
B(  0-S ,  1-C ) :   1.1443 B(  0-S ,  4-C ) :   1.1640 B(  1-C ,  2-C ) :   1.6121
B(  1-C , 32-H ) :   0.9659 B(  2-C ,  3-C ) :   1.2480 B(  2-C ,  6-C ) :   1.0285
B(  3-C ,  4-C ) :   1.5830 B(  3-C ,  5-H ) :   0.9675 B(  4-C , 20-C ) :   0.9932
B(  6-C ,  7-H ) :   0.9398 B(  6-C ,  8-H ) :   0.9409 B(  6-C ,  9-C ) :   1.0691
B(  9-C , 10-H ) :   0.9458 B(  9-C , 11-H ) :   0.9517 B(  9-C , 12-C ) :   1.0934
B( 12-C , 13-H ) :   0.9699 B( 12-C , 14-H ) :   0.9662 B( 12-C , 15-H ) :   0.9736
B( 16-S , 17-C ) :   1.1714 B( 16-S , 20-C ) :   1.1638 B( 17-C , 18-C ) :   1.5886
B( 17-C , 20-C ) :   0.1049 B( 17-C , 33-H ) :   0.9676 B( 18-C , 19-C ) :   1.2514
B( 18-C , 21-H ) :   0.9995 B( 19-C , 20-C ) :   1.5862 B( 19-C , 22-C ) :   1.0051
B( 22-C , 23-H ) :   0.9305 B( 22-C , 24-H ) :   0.9282 B( 22-C , 25-C ) :   1.0782
B( 25-C , 26-H ) :   0.9472 B( 25-C , 27-H ) :   0.9550 B( 25-C , 28-C ) :   1.0897
B( 28-C , 29-H ) :   0.9710 B( 28-C , 30-H ) :   0.9714 B( 28-C , 31-H ) :   0.9682

Dispersion correction           -0.014693788
FINAL SINGLE POINT ENERGY     -1339.874323924040

DIPOLE MOMENT
-------------
                                X             Y             Z
Electronic contribution:     -0.44908      17.74948      19.39145
Nuclear contribution   :      0.44129     -18.23075     -19.91069
                        -----------------------------------------
Total Dipole Moment    :     -0.00779      -0.48126      -0.51924
                        -----------------------------------------
Magnitude (a.u.)       :      0.70802
Magnitude (Debye)      :      1.79964

Rotational constants in cm-1:     0.017818     0.009187     0.007450
Rotational constants in MHz :   534.156496   275.429216   223.356788

                             ****ORCA TERMINATED NORMALLY****
TOTAL RUN TIME: 0 days 0 hours 0 minutes 36 seconds 482 msec
