                         Program Version 4.2.1 -  RELEASE  -
|  1> ! wB97X-D3 SP def2-SVP
|  2> %pal
|  3> nprocs 16
|  4> end
|  5>
|  6> * xyz 0 1
|  7> S 	 -30.0902 	 70.2927 	 107.08
|  8> C 	 -31.7414 	 70.5988 	 106.521
|  9> C 	 -32.5886 	 70.4837 	 107.623
| 10> C 	 -31.9262 	 70.4354 	 108.871
| 11> C 	 -30.5291 	 70.4747 	 108.735
| 12> H 	 -32.2712 	 70.4349 	 109.908
| 13> C 	 -34.1271 	 70.4596 	 107.668
| 14> H 	 -34.5712 	 71.0018 	 106.879
| 15> H 	 -34.5039 	 71.0109 	 108.542
| 16> C 	 -34.7173 	 69.0424 	 107.867
| 17> H 	 -34.3728 	 68.4324 	 107.022
| 18> H 	 -34.2027 	 68.5088 	 108.733
| 19> C 	 -36.1968 	 69.0096 	 107.679
| 20> H 	 -36.4991 	 68.02 	 107.635
| 21> H 	 -36.7225 	 69.5987 	 108.418
| 22> H 	 -36.4982 	 69.3583 	 106.673
| 23> S 	 -29.2493 	 68.6913 	 110.301
| 24> C 	 -28.4055 	 69.2977 	 111.718
| 25> C 	 -28.4361 	 70.6545 	 111.867
| 26> C 	 -29.1813 	 71.2428 	 110.82
| 27> C 	 -29.6371 	 70.3234 	 109.877
| 28> H 	 -27.9137 	 71.1499 	 112.725
| 29> C 	 -29.529 	 72.6863 	 110.721
| 30> H 	 -29.5712 	 73.1802 	 111.706
| 31> H 	 -30.5739 	 72.87 	 110.265
| 32> C 	 -28.3874 	 73.4756 	 109.975
| 33> H 	 -28.1131 	 73.0584 	 109.007
| 34> H 	 -27.4949 	 73.3479 	 110.528
| 35> C 	 -28.791 	 74.992 	 109.883
| 36> H 	 -28.117 	 75.6604 	 109.356
| 37> H 	 -28.8413 	 75.4326 	 110.914
| 38> H 	 -29.8432 	 75.0614 	 109.539
| 39> H 	 -31.9948 	 70.6954 	 105.479
| 40> H 	 -28.0646 	 68.7131 	 112.521
| 41> *
| 42>
| 43>                          ****END OF INPUT****

CARTESIAN COORDINATES (ANGSTROEM)
---------------------------------
  S    -30.090200   70.292700  107.080000
  C    -31.741400   70.598800  106.521000
  C    -32.588600   70.483700  107.623000
  C    -31.926200   70.435400  108.871000
  C    -30.529100   70.474700  108.735000
  H    -32.271200   70.434900  109.908000
  C    -34.127100   70.459600  107.668000
  H    -34.571200   71.001800  106.879000
  H    -34.503900   71.010900  108.542000
  C    -34.717300   69.042400  107.867000
  H    -34.372800   68.432400  107.022000
  H    -34.202700   68.508800  108.733000
  C    -36.196800   69.009600  107.679000
  H    -36.499100   68.020000  107.635000
  H    -36.722500   69.598700  108.418000
  H    -36.498200   69.358300  106.673000
  S    -29.249300   68.691300  110.301000
  C    -28.405500   69.297700  111.718000
  C    -28.436100   70.654500  111.867000
  C    -29.181300   71.242800  110.820000
  C    -29.637100   70.323400  109.877000
  H    -27.913700   71.149900  112.725000
  C    -29.529000   72.686300  110.721000
  H    -29.571200   73.180200  111.706000
  H    -30.573900   72.870000  110.265000
  C    -28.387400   73.475600  109.975000
  H    -28.113100   73.058400  109.007000
  H    -27.494900   73.347900  110.528000
  C    -28.791000   74.992000  109.883000
  H    -28.117000   75.660400  109.356000
  H    -28.841300   75.432600  110.914000
  H    -29.843200   75.061400  109.539000
  H    -31.994800   70.695400  105.479000
  H    -28.064600   68.713100  112.521000

 Total Charge           Charge          ....    0
 Multiplicity           Mult            ....    1
 Number of Electrons    NEL             ....  134
 Basis Dimension        Dim             ....  322

ORBITAL ENERGIES
----------------

  NO   OCC          E(Eh)            E(eV)
   0   2.0000     -88.966590     -2420.9040
   1   2.0000     -88.966094     -2420.8905
   2   2.0000     -10.324902      -280.9549
   3   2.0000     -10.320768      -280.8424
   4   2.0000     -10.318667      -280.7852
   5   2.0000     -10.311178      -280.5814
   6   2.0000     -10.305515      -280.4273
   7   2.0000     -10.300980      -280.3039
   8   2.0000     -10.295929      -280.1665
   9   2.0000     -10.295383      -280.1516
  10   2.0000     -10.292402      -280.0705
  11   2.0000     -10.288214      -279.9565
  12   2.0000     -10.287486      -279.9367
  13   2.0000     -10.283483      -279.8278
  14   2.0000     -10.280622      -279.7500
  15   2.0000     -10.272790      -279.5368
  16   2.0000      -8.081623      -219.9121
  17   2.0000      -8.080832      -219.8906
  18   2.0000      -6.039995      -164.3566
  19   2.0000      -6.039273      -164.3370
  20   2.0000      -6.036152      -164.2520
  21   2.0000      -6.035313      -164.2292
  22   2.0000      -6.032440      -164.1510
  23   2.0000      -6.031693      -164.1307
  24   2.0000      -1.009416       -27.4676
  25   2.0000      -0.985713       -26.8226
  26   2.0000      -0.911707       -24.8088
  27   2.0000      -0.901990       -24.5444
  28   2.0000      -0.872784       -23.7497
  29   2.0000      -0.850680       -23.1482
  30   2.0000      -0.845233       -23.0000
  31   2.0000      -0.812060       -22.0973
  32   2.0000      -0.781342       -21.2614
  33   2.0000      -0.763868       -20.7859
  34   2.0000      -0.704748       -19.1772
  35   2.0000      -0.696732       -18.9590
  36   2.0000      -0.696002       -18.9392
  37   2.0000      -0.661025       -17.9874
  38   2.0000      -0.648545       -17.6478
  39   2.0000      -0.614797       -16.7295
  40   2.0000      -0.596180       -16.2229
  41   2.0000      -0.571424       -15.5492
  42   2.0000      -0.558651       -15.2017
  43   2.0000      -0.550074       -14.9683
  44   2.0000      -0.524568       -14.2742
  45   2.0000      -0.521795       -14.1988
  46   2.0000      -0.515575       -14.0295
  47   2.0000      -0.511991       -13.9320
  48   2.0000      -0.505354       -13.7514
  49   2.0000      -0.499739       -13.5986
  50   2.0000      -0.494788       -13.4639
  51   2.0000      -0.476100       -12.9553
  52   2.0000      -0.470248       -12.7961
  53   2.0000      -0.464923       -12.6512
  54   2.0000      -0.455474       -12.3941
  55   2.0000      -0.444380       -12.0922
  56   2.0000      -0.442936       -12.0529
  57   2.0000      -0.440441       -11.9850
  58   2.0000      -0.434967       -11.8360
  59   2.0000      -0.426503       -11.6057
  60   2.0000      -0.419395       -11.4123
  61   2.0000      -0.414722       -11.2852
  62   2.0000      -0.404601       -11.0098
  63   2.0000      -0.341203        -9.2846
  64   2.0000      -0.327409        -8.9092
  65   2.0000      -0.319465        -8.6931
  66   2.0000      -0.303614        -8.2618
  67   0.0000       0.043470         1.1829
  68   0.0000       0.050469         1.3733
  69   0.0000       0.115927         3.1545
  70   0.0000       0.118957         3.2370
  71   0.0000       0.129404         3.5213

MULLIKEN ATOMIC CHARGES
-----------------------
   0 S :    0.110656
   1 C :   -0.123142
   2 C :   -0.045632
   3 C :    0.027927
   4 C :   -0.169748
   5 H :    0.025320
   6 C :    0.070360
   7 H :    0.002972
   8 H :    0.019205
   9 C :   -0.110594
  10 H :    0.018122
  11 H :    0.044262
  12 C :    0.011625
  13 H :    0.017298
  14 H :    0.028897
  15 H :    0.022712
  16 S :    0.124638
  17 C :   -0.068769
  18 C :   -0.055992
  19 C :   -0.001663
  20 C :   -0.191684
  21 H :    0.039749
  22 C :    0.013871
  23 H :    0.018670
  24 H :    0.049814
  25 C :   -0.052995
  26 H :    0.030160
  27 H :    0.013712
  28 C :   -0.050533
  29 H :    0.040299
  30 H :    0.021538
  31 H :    0.033930
  32 H :    0.050117
  33 H :    0.034898
Sum of atomic charges:   -0.0000000

LOEWDIN ATOMIC CHARGES
----------------------
   0 S :    0.414223
   1 C :   -0.192683
   2 C :   -0.057847
   3 C :   -0.063454
   4 C :   -0.212174
   5 H :    0.037385
   6 C :   -0.030693
   7 H :    0.019217
   8 H :    0.029509
   9 C :   -0.049745
  10 H :    0.024205
  11 H :    0.033157
  12 C :   -0.057655
  13 H :    0.020222
  14 H :    0.021008
  15 H :    0.031394
  16 S :    0.417369
  17 C :   -0.175689
  18 C :   -0.074143
  19 C :   -0.056826
  20 C :   -0.211737
  21 H :    0.044998
  22 C :   -0.037228
  23 H :    0.029416
  24 H :    0.039273
  25 C :   -0.032169
  26 H :    0.022473
  27 H :    0.016441
  28 C :   -0.072923
  29 H :    0.023516
  30 H :    0.026151
  31 H :    0.028130
  32 H :    0.028337
  33 H :    0.018542

  Mayer bond orders larger than 0.100000
B(  0-S ,  1-C ) :   1.1390 B(  0-S ,  4-C ) :   1.1734 B(  1-C ,  2-C ) :   1.5754
B(  1-C ,  4-C ) :   0.1085 B(  1-C , 32-H ) :   0.9816 B(  2-C ,  3-C ) :   1.2413
B(  2-C ,  6-C ) :   1.0247 B(  3-C ,  4-C ) :   1.5515 B(  3-C ,  5-H ) :   0.9950
B(  4-C , 20-C ) :   1.0131 B(  6-C ,  7-H ) :   0.9458 B(  6-C ,  8-H ) :   0.9437
B(  6-C ,  9-C ) :   1.0529 B(  9-C , 10-H ) :   0.9521 B(  9-C , 11-H ) :   0.9554
B(  9-C , 12-C ) :   1.0849 B( 12-C , 13-H ) :   0.9698 B( 12-C , 14-H ) :   0.9744
B( 12-C , 15-H ) :   0.9674 B( 16-S , 17-C ) :   1.1567 B( 16-S , 20-C ) :   1.1507
B( 17-C , 18-C ) :   1.6286 B( 17-C , 33-H ) :   0.9654 B( 18-C , 19-C ) :   1.2406
B( 18-C , 21-H ) :   0.9835 B( 19-C , 20-C ) :   1.6084 B( 19-C , 22-C ) :   1.0546
B( 22-C , 23-H ) :   0.9358 B( 22-C , 24-H ) :   0.9348 B( 22-C , 25-C ) :   1.0449
B( 25-C , 26-H ) :   0.9606 B( 25-C , 27-H ) :   0.9568 B( 25-C , 28-C ) :   1.0695
B( 28-C , 29-H ) :   0.9764 B( 28-C , 30-H ) :   0.9730 B( 28-C , 31-H ) :   0.9756

Dispersion correction           -0.014039071
FINAL SINGLE POINT ENERGY     -1339.866354857663

DIPOLE MOMENT
-------------
                                X             Y             Z
Electronic contribution:     15.84222     -13.63913      -1.34958
Nuclear contribution   :    -16.24535      13.80907       1.61525
                        -----------------------------------------
Total Dipole Moment    :     -0.40312       0.16994       0.26568
                        -----------------------------------------
Magnitude (a.u.)       :      0.51183
Magnitude (Debye)      :      1.30097

Rotational constants in cm-1:     0.018871     0.007890     0.006844
Rotational constants in MHz :   565.732155   236.533269   205.169072

                             ****ORCA TERMINATED NORMALLY****
TOTAL RUN TIME: 0 days 0 hours 0 minutes 29 seconds 710 msec
