                         Program Version 4.2.1 -  RELEASE  -
|  1> ! wB97X-D3 SP def2-SVP
|  2> %pal
|  3> nprocs 16
|  4> end
|  5>
|  6> * xyz 0 1
|  7> S 	 0.0414803 	 -17.9112 	 83.7862
|  8> C 	 -0.799311 	 -19.1756 	 84.6314
|  9> C 	 -2.08183 	 -18.7779 	 84.9913
| 10> C 	 -2.35973 	 -17.4545 	 84.5921
| 11> C 	 -1.34342 	 -16.8481 	 83.9119
| 12> H 	 -3.28021 	 -16.887 	 84.6635
| 13> C 	 -3.13486 	 -19.6103 	 85.601
| 14> H 	 -3.74149 	 -19.0589 	 86.3472
| 15> H 	 -2.56793 	 -20.4168 	 86.1982
| 16> C 	 -4.23222 	 -20.144 	 84.6631
| 17> H 	 -4.98885 	 -20.7132 	 85.2074
| 18> H 	 -4.77238 	 -19.2804 	 84.3017
| 19> C 	 -3.62933 	 -21.123 	 83.6246
| 20> H 	 -2.74809 	 -20.7478 	 82.9892
| 21> H 	 -3.2349 	 -21.9926 	 84.1425
| 22> H 	 -4.45687 	 -21.568 	 83.0801
| 23> S 	 -1.29434 	 -15.1576 	 81.7629
| 24> C 	 -0.830007 	 -13.4349 	 81.9702
| 25> C 	 -0.526882 	 -13.2241 	 83.2641
| 26> C 	 -0.64042 	 -14.3544 	 84.1624
| 27> C 	 -1.208 	 -15.4578 	 83.5233
| 28> H 	 -0.168727 	 -12.2625 	 83.6274
| 29> C 	 -0.30052 	 -14.3664 	 85.6139
| 30> H 	 0.451272 	 -13.6207 	 85.6603
| 31> H 	 0.33028 	 -15.2695 	 85.728
| 32> C 	 -1.45969 	 -14.2416 	 86.6766
| 33> H 	 -2.31038 	 -14.7632 	 86.2591
| 34> H 	 -1.87103 	 -13.2221 	 86.6289
| 35> C 	 -1.08064 	 -14.6737 	 88.1228
| 36> H 	 -0.43362 	 -15.506 	 88.1371
| 37> H 	 -2.04127 	 -14.9739 	 88.6102
| 38> H 	 -0.514388 	 -13.9239 	 88.7568
| 39> H 	 -0.371899 	 -20.1256 	 84.8038
| 40> H 	 -1.09014 	 -12.6637 	 81.2508
| 41> *
| 42>
| 43>                          ****END OF INPUT****

CARTESIAN COORDINATES (ANGSTROEM)
---------------------------------
  S      0.041480  -17.911200   83.786200
  C     -0.799311  -19.175600   84.631400
  C     -2.081830  -18.777900   84.991300
  C     -2.359730  -17.454500   84.592100
  C     -1.343420  -16.848100   83.911900
  H     -3.280210  -16.887000   84.663500
  C     -3.134860  -19.610300   85.601000
  H     -3.741490  -19.058900   86.347200
  H     -2.567930  -20.416800   86.198200
  C     -4.232220  -20.144000   84.663100
  H     -4.988850  -20.713200   85.207400
  H     -4.772380  -19.280400   84.301700
  C     -3.629330  -21.123000   83.624600
  H     -2.748090  -20.747800   82.989200
  H     -3.234900  -21.992600   84.142500
  H     -4.456870  -21.568000   83.080100
  S     -1.294340  -15.157600   81.762900
  C     -0.830007  -13.434900   81.970200
  C     -0.526882  -13.224100   83.264100
  C     -0.640420  -14.354400   84.162400
  C     -1.208000  -15.457800   83.523300
  H     -0.168727  -12.262500   83.627400
  C     -0.300520  -14.366400   85.613900
  H      0.451272  -13.620700   85.660300
  H      0.330280  -15.269500   85.728000
  C     -1.459690  -14.241600   86.676600
  H     -2.310380  -14.763200   86.259100
  H     -1.871030  -13.222100   86.628900
  C     -1.080640  -14.673700   88.122800
  H     -0.433620  -15.506000   88.137100
  H     -2.041270  -14.973900   88.610200
  H     -0.514388  -13.923900   88.756800
  H     -0.371899  -20.125600   84.803800
  H     -1.090140  -12.663700   81.250800

 Total Charge           Charge          ....    0
 Multiplicity           Mult            ....    1
 Number of Electrons    NEL             ....  134
 Basis Dimension        Dim             ....  322

ORBITAL ENERGIES
----------------

  NO   OCC          E(Eh)            E(eV)
   0   2.0000     -88.966385     -2420.8984
   1   2.0000     -88.957807     -2420.6650
   2   2.0000     -10.325749      -280.9779
   3   2.0000     -10.324557      -280.9455
   4   2.0000     -10.318309      -280.7755
   5   2.0000     -10.314169      -280.6628
   6   2.0000     -10.304659      -280.4040
   7   2.0000     -10.299228      -280.2562
   8   2.0000     -10.294982      -280.1407
   9   2.0000     -10.294909      -280.1387
  10   2.0000     -10.292883      -280.0836
  11   2.0000     -10.291106      -280.0352
  12   2.0000     -10.289542      -279.9927
  13   2.0000     -10.288044      -279.9519
  14   2.0000     -10.284470      -279.8547
  15   2.0000     -10.279483      -279.7190
  16   2.0000      -8.081244      -219.9018
  17   2.0000      -8.071807      -219.6450
  18   2.0000      -6.039643      -164.3470
  19   2.0000      -6.035637      -164.2380
  20   2.0000      -6.032195      -164.1444
  21   2.0000      -6.030524      -164.0989
  22   2.0000      -6.026379      -163.9861
  23   2.0000      -6.022417      -163.8783
  24   2.0000      -1.007616       -27.4186
  25   2.0000      -0.981581       -26.7102
  26   2.0000      -0.912989       -24.8437
  27   2.0000      -0.900347       -24.4997
  28   2.0000      -0.870183       -23.6789
  29   2.0000      -0.849189       -23.1076
  30   2.0000      -0.844715       -22.9859
  31   2.0000      -0.816721       -22.2241
  32   2.0000      -0.779851       -21.2208
  33   2.0000      -0.768761       -20.9191
  34   2.0000      -0.714244       -19.4356
  35   2.0000      -0.704248       -19.1636
  36   2.0000      -0.694764       -18.9055
  37   2.0000      -0.660903       -17.9841
  38   2.0000      -0.648204       -17.6385
  39   2.0000      -0.616364       -16.7721
  40   2.0000      -0.589719       -16.0471
  41   2.0000      -0.566334       -15.4107
  42   2.0000      -0.549221       -14.9451
  43   2.0000      -0.548734       -14.9318
  44   2.0000      -0.541002       -14.7214
  45   2.0000      -0.527826       -14.3629
  46   2.0000      -0.515658       -14.0318
  47   2.0000      -0.510575       -13.8935
  48   2.0000      -0.508960       -13.8495
  49   2.0000      -0.499075       -13.5805
  50   2.0000      -0.491008       -13.3610
  51   2.0000      -0.475927       -12.9506
  52   2.0000      -0.471268       -12.8239
  53   2.0000      -0.458733       -12.4828
  54   2.0000      -0.454695       -12.3729
  55   2.0000      -0.451005       -12.2725
  56   2.0000      -0.445039       -12.1101
  57   2.0000      -0.435840       -11.8598
  58   2.0000      -0.431626       -11.7451
  59   2.0000      -0.421657       -11.4739
  60   2.0000      -0.417907       -11.3718
  61   2.0000      -0.412512       -11.2250
  62   2.0000      -0.409209       -11.1352
  63   2.0000      -0.337248        -9.1770
  64   2.0000      -0.330369        -8.9898
  65   2.0000      -0.321844        -8.7578
  66   2.0000      -0.307924        -8.3790
  67   0.0000       0.041905         1.1403
  68   0.0000       0.047568         1.2944
  69   0.0000       0.113145         3.0788
  70   0.0000       0.119284         3.2459
  71   0.0000       0.126790         3.4501

MULLIKEN ATOMIC CHARGES
-----------------------
   0 S :    0.123995
   1 C :   -0.111553
   2 C :   -0.051325
   3 C :    0.035718
   4 C :   -0.160712
   5 H :    0.017068
   6 C :    0.013923
   7 H :    0.027702
   8 H :    0.031125
   9 C :   -0.046158
  10 H :    0.028258
  11 H :    0.028086
  12 C :   -0.069562
  13 H :    0.065768
  14 H :    0.015293
  15 H :    0.031353
  16 S :    0.068265
  17 C :   -0.083654
  18 C :   -0.021371
  19 C :   -0.082978
  20 C :   -0.184545
  21 H :    0.017659
  22 C :    0.104850
  23 H :   -0.002079
  24 H :    0.024533
  25 C :   -0.029418
  26 H :    0.017074
  27 H :    0.024049
  28 C :   -0.051702
  29 H :    0.024857
  30 H :    0.043781
  31 H :    0.046048
  32 H :    0.033226
  33 H :    0.072425
Sum of atomic charges:    0.0000000

LOEWDIN ATOMIC CHARGES
----------------------
   0 S :    0.417606
   1 C :   -0.189607
   2 C :   -0.068822
   3 C :   -0.056136
   4 C :   -0.201442
   5 H :    0.034769
   6 C :   -0.042522
   7 H :    0.032685
   8 H :    0.034602
   9 C :   -0.036330
  10 H :    0.027403
  11 H :    0.021790
  12 C :   -0.077017
  13 H :    0.038013
  14 H :    0.022516
  15 H :    0.025352
  16 S :    0.362025
  17 C :   -0.171260
  18 C :   -0.070967
  19 C :   -0.052905
  20 C :   -0.190735
  21 H :    0.031149
  22 C :   -0.038467
  23 H :    0.022508
  24 H :    0.035708
  25 C :   -0.036141
  26 H :    0.022714
  27 H :    0.028085
  28 C :   -0.068533
  29 H :    0.018703
  30 H :    0.035635
  31 H :    0.033899
  32 H :    0.019353
  33 H :    0.036373

  Mayer bond orders larger than 0.100000
B(  0-S ,  1-C ) :   1.1501 B(  0-S ,  4-C ) :   1.1520 B(  1-C ,  2-C ) :   1.5828
B(  1-C , 32-H ) :   0.9771 B(  2-C ,  3-C ) :   1.2297 B(  2-C ,  6-C ) :   1.0403
B(  3-C ,  4-C ) :   1.6043 B(  3-C ,  5-H ) :   0.9917 B(  4-C , 20-C ) :   1.0081
B(  6-C ,  7-H ) :   0.9376 B(  6-C ,  8-H ) :   0.9420 B(  6-C ,  9-C ) :   1.0730
B(  9-C , 10-H ) :   0.9533 B(  9-C , 11-H ) :   0.9542 B(  9-C , 12-C ) :   1.0688
B( 12-C , 13-H ) :   0.9747 B( 12-C , 14-H ) :   0.9712 B( 12-C , 15-H ) :   0.9737
B( 16-S , 17-C ) :   1.1308 B( 16-S , 20-C ) :   1.1363 B( 17-C , 18-C ) :   1.6351
B( 17-C , 33-H ) :   0.9616 B( 18-C , 19-C ) :   1.2340 B( 18-C , 21-H ) :   0.9828
B( 19-C , 20-C ) :   1.6002 B( 19-C , 22-C ) :   1.0473 B( 22-C , 23-H ) :   0.9212
B( 22-C , 24-H ) :   0.9183 B( 22-C , 25-C ) :   1.0446 B( 25-C , 26-H ) :   0.9604
B( 25-C , 27-H ) :   0.9509 B( 25-C , 28-C ) :   1.0651 B( 28-C , 29-H ) :   0.9788
B( 28-C , 30-H ) :   0.9752 B( 28-C , 31-H ) :   0.9767

Dispersion correction           -0.015051139
FINAL SINGLE POINT ENERGY     -1339.873546270773

DIPOLE MOMENT
-------------
                                X             Y             Z
Electronic contribution:     10.82849       7.06572     -18.47038
Nuclear contribution   :    -11.10448      -7.02784      19.03719
                        -----------------------------------------
Total Dipole Moment    :     -0.27599       0.03787       0.56681
                        -----------------------------------------
Magnitude (a.u.)       :      0.63157
Magnitude (Debye)      :      1.60531

Rotational constants in cm-1:     0.018788     0.009038     0.007238
Rotational constants in MHz :   563.246038   270.966454   216.985657

                             ****ORCA TERMINATED NORMALLY****
TOTAL RUN TIME: 0 days 0 hours 0 minutes 35 seconds 459 msec
