                         Program Version 4.2.1 -  RELEASE  -
|  1> ! wB97X-D3 SP def2-SVP
|  2> %pal
|  3> nprocs 16
|  4> end
|  5>
|  6> * xyz 0 1
|  7> S 	 44.1885 	 19.2916 	 88.0132
|  8> C 	 45.3852 	 20.1677 	 89.0178
|  9> C 	 45.2997 	 19.8304 	 90.4129
| 10> C 	 44.5373 	 18.6259 	 90.5124
| 11> C 	 43.9187 	 18.1814 	 89.3745
| 12> H 	 44.4834 	 18.0785 	 91.3502
| 13> C 	 46.0265 	 20.4527 	 91.5543
| 14> H 	 46.7744 	 21.0978 	 91.145
| 15> H 	 46.6417 	 19.7471 	 92.0789
| 16> C 	 45.1641 	 21.0502 	 92.5879
| 17> H 	 44.6761 	 21.8932 	 92.1007
| 18> H 	 44.3451 	 20.2933 	 92.8267
| 19> C 	 45.8177 	 21.4873 	 93.9077
| 20> H 	 46.3109 	 20.6737 	 94.3894
| 21> H 	 46.6227 	 22.2327 	 93.858
| 22> H 	 45.1195 	 21.9509 	 94.5902
| 23> S 	 42.0289 	 16.7462 	 90.7421
| 24> C 	 41.4716 	 15.2426 	 90.0621
| 25> C 	 41.8407 	 15.1158 	 88.7704
| 26> C 	 42.7989 	 16.0398 	 88.3322
| 27> C 	 42.9928 	 17.0688 	 89.2914
| 28> H 	 41.6509 	 14.1797 	 88.2871
| 29> C 	 43.3945 	 15.9679 	 86.9458
| 30> H 	 43.8559 	 16.9544 	 86.7342
| 31> H 	 42.5857 	 15.9735 	 86.2257
| 32> C 	 44.4134 	 14.8396 	 86.9375
| 33> H 	 44.7253 	 14.7012 	 85.9121
| 34> H 	 43.9792 	 13.8828 	 87.2839
| 35> C 	 45.6781 	 15.2185 	 87.8281
| 36> H 	 46.4403 	 14.3811 	 87.8151
| 37> H 	 45.3856 	 15.3731 	 88.8668
| 38> H 	 46.1015 	 16.0916 	 87.3811
| 39> H 	 45.945 	 20.9989 	 88.5208
| 40> H 	 40.8612 	 14.498 	 90.5804
| 41> *
| 42>
| 43>                          ****END OF INPUT****

CARTESIAN COORDINATES (ANGSTROEM)
---------------------------------
  S     44.188500   19.291600   88.013200
  C     45.385200   20.167700   89.017800
  C     45.299700   19.830400   90.412900
  C     44.537300   18.625900   90.512400
  C     43.918700   18.181400   89.374500
  H     44.483400   18.078500   91.350200
  C     46.026500   20.452700   91.554300
  H     46.774400   21.097800   91.145000
  H     46.641700   19.747100   92.078900
  C     45.164100   21.050200   92.587900
  H     44.676100   21.893200   92.100700
  H     44.345100   20.293300   92.826700
  C     45.817700   21.487300   93.907700
  H     46.310900   20.673700   94.389400
  H     46.622700   22.232700   93.858000
  H     45.119500   21.950900   94.590200
  S     42.028900   16.746200   90.742100
  C     41.471600   15.242600   90.062100
  C     41.840700   15.115800   88.770400
  C     42.798900   16.039800   88.332200
  C     42.992800   17.068800   89.291400
  H     41.650900   14.179700   88.287100
  C     43.394500   15.967900   86.945800
  H     43.855900   16.954400   86.734200
  H     42.585700   15.973500   86.225700
  C     44.413400   14.839600   86.937500
  H     44.725300   14.701200   85.912100
  H     43.979200   13.882800   87.283900
  C     45.678100   15.218500   87.828100
  H     46.440300   14.381100   87.815100
  H     45.385600   15.373100   88.866800
  H     46.101500   16.091600   87.381100
  H     45.945000   20.998900   88.520800
  H     40.861200   14.498000   90.580400

 Total Charge           Charge          ....    0
 Multiplicity           Mult            ....    1
 Number of Electrons    NEL             ....  134
 Basis Dimension        Dim             ....  322

ORBITAL ENERGIES
----------------

  NO   OCC          E(Eh)            E(eV)
   0   2.0000     -88.968139     -2420.9461
   1   2.0000     -88.964976     -2420.8601
   2   2.0000     -10.328796      -281.0608
   3   2.0000     -10.327081      -281.0141
   4   2.0000     -10.326737      -281.0048
   5   2.0000     -10.314151      -280.6623
   6   2.0000     -10.309939      -280.5477
   7   2.0000     -10.301468      -280.3172
   8   2.0000     -10.289014      -279.9783
   9   2.0000     -10.288947      -279.9765
  10   2.0000     -10.287930      -279.9488
  11   2.0000     -10.284997      -279.8690
  12   2.0000     -10.284267      -279.8491
  13   2.0000     -10.284098      -279.8445
  14   2.0000     -10.277923      -279.6765
  15   2.0000     -10.276598      -279.6405
  16   2.0000      -8.081505      -219.9089
  17   2.0000      -8.079454      -219.8531
  18   2.0000      -6.039962      -164.3557
  19   2.0000      -6.037880      -164.2991
  20   2.0000      -6.036394      -164.2586
  21   2.0000      -6.034017      -164.1940
  22   2.0000      -6.032225      -164.1452
  23   2.0000      -6.030302      -164.0929
  24   2.0000      -1.004156       -27.3245
  25   2.0000      -0.980278       -26.6747
  26   2.0000      -0.921209       -25.0674
  27   2.0000      -0.908837       -24.7307
  28   2.0000      -0.868876       -23.6433
  29   2.0000      -0.851574       -23.1725
  30   2.0000      -0.838032       -22.8040
  31   2.0000      -0.813706       -22.1421
  32   2.0000      -0.785858       -21.3843
  33   2.0000      -0.769787       -20.9470
  34   2.0000      -0.708265       -19.2729
  35   2.0000      -0.700289       -19.0558
  36   2.0000      -0.689680       -18.7672
  37   2.0000      -0.663732       -18.0611
  38   2.0000      -0.640718       -17.4348
  39   2.0000      -0.624870       -17.0036
  40   2.0000      -0.601425       -16.3656
  41   2.0000      -0.576371       -15.6839
  42   2.0000      -0.557586       -15.1727
  43   2.0000      -0.549387       -14.9496
  44   2.0000      -0.538553       -14.6548
  45   2.0000      -0.527495       -14.3539
  46   2.0000      -0.520077       -14.1520
  47   2.0000      -0.508761       -13.8441
  48   2.0000      -0.505503       -13.7554
  49   2.0000      -0.497072       -13.5260
  50   2.0000      -0.482043       -13.1170
  51   2.0000      -0.471343       -12.8259
  52   2.0000      -0.466236       -12.6869
  53   2.0000      -0.463526       -12.6132
  54   2.0000      -0.459746       -12.5103
  55   2.0000      -0.450231       -12.2514
  56   2.0000      -0.445549       -12.1240
  57   2.0000      -0.440231       -11.9793
  58   2.0000      -0.435393       -11.8476
  59   2.0000      -0.432600       -11.7716
  60   2.0000      -0.416763       -11.3407
  61   2.0000      -0.413294       -11.2463
  62   2.0000      -0.411490       -11.1972
  63   2.0000      -0.347299        -9.4505
  64   2.0000      -0.334617        -9.1054
  65   2.0000      -0.329754        -8.9731
  66   2.0000      -0.283434        -7.7126
  67   0.0000       0.019842         0.5399
  68   0.0000       0.076172         2.0728
  69   0.0000       0.100576         2.7368
  70   0.0000       0.114500         3.1157
  71   0.0000       0.124272         3.3816

MULLIKEN ATOMIC CHARGES
-----------------------
   0 S :    0.090820
   1 C :   -0.152253
   2 C :   -0.069092
   3 C :    0.025189
   4 C :   -0.099026
   5 H :   -0.034954
   6 C :    0.119729
   7 H :    0.005714
   8 H :    0.009124
   9 C :   -0.103136
  10 H :    0.027056
  11 H :    0.041454
  12 C :   -0.021688
  13 H :    0.020471
  14 H :    0.021642
  15 H :    0.036211
  16 S :    0.098121
  17 C :   -0.103585
  18 C :   -0.002204
  19 C :   -0.089003
  20 C :   -0.144490
  21 H :    0.013820
  22 C :    0.084991
  23 H :    0.010493
  24 H :    0.034359
  25 C :   -0.069697
  26 H :    0.025967
  27 H :    0.032291
  28 C :   -0.064898
  29 H :    0.040420
  30 H :    0.053254
  31 H :    0.034024
  32 H :    0.068791
  33 H :    0.060084
Sum of atomic charges:   -0.0000000

LOEWDIN ATOMIC CHARGES
----------------------
   0 S :    0.382439
   1 C :   -0.188545
   2 C :   -0.045434
   3 C :   -0.055372
   4 C :   -0.178928
   5 H :    0.005251
   6 C :   -0.037232
   7 H :    0.028179
   8 H :    0.028461
   9 C :   -0.042941
  10 H :    0.025052
  11 H :    0.034366
  12 C :   -0.066215
  13 H :    0.020756
  14 H :    0.025873
  15 H :    0.029644
  16 S :    0.403856
  17 C :   -0.183205
  18 C :   -0.076245
  19 C :   -0.050115
  20 C :   -0.195859
  21 H :    0.029130
  22 C :   -0.036974
  23 H :    0.019603
  24 H :    0.032242
  25 C :   -0.035025
  26 H :    0.020188
  27 H :    0.022384
  28 C :   -0.059533
  29 H :    0.030395
  30 H :    0.027728
  31 H :    0.021680
  32 H :    0.030856
  33 H :    0.033539

  Mayer bond orders larger than 0.100000
B(  0-S ,  1-C ) :   1.1436 B(  0-S ,  4-C ) :   1.1202 B(  1-C ,  2-C ) :   1.5819
B(  1-C , 32-H ) :   0.9638 B(  2-C ,  3-C ) :   1.2232 B(  2-C ,  6-C ) :   1.0459
B(  3-C ,  4-C ) :   1.5817 B(  3-C ,  5-H ) :   1.0072 B(  4-C , 20-C ) :   1.0772
B(  6-C ,  7-H ) :   0.9287 B(  6-C ,  8-H ) :   0.9329 B(  6-C ,  9-C ) :   1.0535
B(  9-C , 10-H ) :   0.9509 B(  9-C , 11-H ) :   0.9565 B(  9-C , 12-C ) :   1.0833
B( 12-C , 13-H ) :   0.9712 B( 12-C , 14-H ) :   0.9725 B( 12-C , 15-H ) :   0.9738
B( 16-S , 17-C ) :   1.1556 B( 16-S , 20-C ) :   1.1377 B( 17-C , 18-C ) :   1.6154
B( 17-C , 33-H ) :   0.9627 B( 18-C , 19-C ) :   1.2674 B( 18-C , 21-H ) :   0.9796
B( 19-C , 20-C ) :   1.5416 B( 19-C , 22-C ) :   1.0291 B( 22-C , 23-H ) :   0.9315
B( 22-C , 24-H ) :   0.9388 B( 22-C , 25-C ) :   1.0546 B( 25-C , 26-H ) :   0.9567
B( 25-C , 27-H ) :   0.9633 B( 25-C , 28-C ) :   1.0588 B( 28-C , 29-H ) :   0.9764
B( 28-C , 30-H ) :   0.9767 B( 28-C , 31-H ) :   0.9774

Dispersion correction           -0.014905759
FINAL SINGLE POINT ENERGY     -1339.873077786855

DIPOLE MOMENT
-------------
                                X             Y             Z
Electronic contribution:    -14.01858      -1.36551      -6.13619
Nuclear contribution   :     14.30642       1.23697       6.27523
                        -----------------------------------------
Total Dipole Moment    :      0.28784      -0.12854       0.13904
                        -----------------------------------------
Magnitude (a.u.)       :      0.34454
Magnitude (Debye)      :      0.87575

Rotational constants in cm-1:     0.022243     0.008099     0.006800
Rotational constants in MHz :   666.828450   242.812633   203.859106

                             ****ORCA TERMINATED NORMALLY****
TOTAL RUN TIME: 0 days 0 hours 0 minutes 28 seconds 739 msec
