                         Program Version 4.2.1 -  RELEASE  -
|  1> ! wB97X-D3 SP def2-SVP
|  2> %pal
|  3> nprocs 16
|  4> end
|  5>
|  6> * xyz 0 1
|  7> S 	 46.2978 	 13.2163 	 48.888
|  8> C 	 44.7847 	 12.2878 	 48.9163
|  9> C 	 44.0997 	 12.5283 	 50.136
| 10> C 	 44.8362 	 13.4318 	 50.9988
| 11> C 	 46.023 	 13.9383 	 50.476
| 12> H 	 44.6733 	 13.7853 	 52.0407
| 13> C 	 42.7867 	 11.9722 	 50.5513
| 14> H 	 42.7547 	 11.6899 	 51.6638
| 15> H 	 42.6562 	 11.0467 	 49.9853
| 16> C 	 41.6935 	 12.9159 	 50.3031
| 17> H 	 41.7119 	 13.7036 	 51.0235
| 18> H 	 41.8225 	 13.32 	 49.3269
| 19> C 	 40.2577 	 12.4386 	 50.4483
| 20> H 	 39.5935 	 13.2795 	 50.6979
| 21> H 	 39.9038 	 11.9456 	 49.623
| 22> H 	 40.268 	 11.6779 	 51.2967
| 23> S 	 47.1831 	 16.4297 	 50.1875
| 24> C 	 48.3959 	 16.8815 	 51.4147
| 25> C 	 48.6231 	 15.8846 	 52.3287
| 26> C 	 47.8172 	 14.7148 	 52.0826
| 27> C 	 46.9487 	 14.8994 	 51.0314
| 28> H 	 49.5161 	 16.1259 	 53.0244
| 29> C 	 47.8721 	 13.449 	 52.9251
| 30> H 	 48.8711 	 13.3584 	 53.2001
| 31> H 	 47.5911 	 12.5751 	 52.263
| 32> C 	 47.2609 	 13.5559 	 54.3352
| 33> H 	 46.2163 	 13.7236 	 54.2518
| 34> H 	 47.6137 	 14.4427 	 54.8919
| 35> C 	 47.4832 	 12.2526 	 55.1653
| 36> H 	 48.4565 	 12.2794 	 55.67
| 37> H 	 47.417 	 11.3527 	 54.5729
| 38> H 	 46.6628 	 12.1281 	 55.9357
| 39> H 	 44.5367 	 11.4532 	 48.1917
| 40> H 	 48.9828 	 17.7832 	 51.4003
| 41> *
| 42>
| 43>                          ****END OF INPUT****

CARTESIAN COORDINATES (ANGSTROEM)
---------------------------------
  S     46.297800   13.216300   48.888000
  C     44.784700   12.287800   48.916300
  C     44.099700   12.528300   50.136000
  C     44.836200   13.431800   50.998800
  C     46.023000   13.938300   50.476000
  H     44.673300   13.785300   52.040700
  C     42.786700   11.972200   50.551300
  H     42.754700   11.689900   51.663800
  H     42.656200   11.046700   49.985300
  C     41.693500   12.915900   50.303100
  H     41.711900   13.703600   51.023500
  H     41.822500   13.320000   49.326900
  C     40.257700   12.438600   50.448300
  H     39.593500   13.279500   50.697900
  H     39.903800   11.945600   49.623000
  H     40.268000   11.677900   51.296700
  S     47.183100   16.429700   50.187500
  C     48.395900   16.881500   51.414700
  C     48.623100   15.884600   52.328700
  C     47.817200   14.714800   52.082600
  C     46.948700   14.899400   51.031400
  H     49.516100   16.125900   53.024400
  C     47.872100   13.449000   52.925100
  H     48.871100   13.358400   53.200100
  H     47.591100   12.575100   52.263000
  C     47.260900   13.555900   54.335200
  H     46.216300   13.723600   54.251800
  H     47.613700   14.442700   54.891900
  C     47.483200   12.252600   55.165300
  H     48.456500   12.279400   55.670000
  H     47.417000   11.352700   54.572900
  H     46.662800   12.128100   55.935700
  H     44.536700   11.453200   48.191700
  H     48.982800   17.783200   51.400300

 Total Charge           Charge          ....    0
 Multiplicity           Mult            ....    1
 Number of Electrons    NEL             ....  134
 Basis Dimension        Dim             ....  322

ORBITAL ENERGIES
----------------

  NO   OCC          E(Eh)            E(eV)
   0   2.0000     -88.966397     -2420.8987
   1   2.0000     -88.964945     -2420.8592
   2   2.0000     -10.328923      -281.0643
   3   2.0000     -10.326397      -280.9956
   4   2.0000     -10.325146      -280.9615
   5   2.0000     -10.318652      -280.7848
   6   2.0000     -10.309578      -280.5379
   7   2.0000     -10.307227      -280.4739
   8   2.0000     -10.302971      -280.3581
   9   2.0000     -10.299317      -280.2587
  10   2.0000     -10.291996      -280.0595
  11   2.0000     -10.289724      -279.9976
  12   2.0000     -10.288231      -279.9570
  13   2.0000     -10.283590      -279.8307
  14   2.0000     -10.274181      -279.5747
  15   2.0000     -10.271440      -279.5001
  16   2.0000      -8.080535      -219.8825
  17   2.0000      -8.078864      -219.8371
  18   2.0000      -6.039119      -164.3328
  19   2.0000      -6.037423      -164.2866
  20   2.0000      -6.035258      -164.2277
  21   2.0000      -6.033336      -164.1754
  22   2.0000      -6.031111      -164.1149
  23   2.0000      -6.029756      -164.0780
  24   2.0000      -1.002506       -27.2796
  25   2.0000      -0.977736       -26.6055
  26   2.0000      -0.922666       -25.1070
  27   2.0000      -0.907070       -24.6826
  28   2.0000      -0.870255       -23.6808
  29   2.0000      -0.847946       -23.0738
  30   2.0000      -0.844058       -22.9680
  31   2.0000      -0.814989       -22.1770
  32   2.0000      -0.782183       -21.2843
  33   2.0000      -0.769779       -20.9468
  34   2.0000      -0.706362       -19.2211
  35   2.0000      -0.698808       -19.0155
  36   2.0000      -0.692416       -18.8416
  37   2.0000      -0.655793       -17.8450
  38   2.0000      -0.644159       -17.5284
  39   2.0000      -0.611764       -16.6469
  40   2.0000      -0.589932       -16.0529
  41   2.0000      -0.580988       -15.8095
  42   2.0000      -0.566870       -15.4253
  43   2.0000      -0.558109       -15.1869
  44   2.0000      -0.526979       -14.3398
  45   2.0000      -0.523872       -14.2553
  46   2.0000      -0.513142       -13.9633
  47   2.0000      -0.509162       -13.8550
  48   2.0000      -0.505468       -13.7545
  49   2.0000      -0.501746       -13.6532
  50   2.0000      -0.492377       -13.3983
  51   2.0000      -0.474199       -12.9036
  52   2.0000      -0.470698       -12.8083
  53   2.0000      -0.467152       -12.7119
  54   2.0000      -0.452394       -12.3103
  55   2.0000      -0.447533       -12.1780
  56   2.0000      -0.443318       -12.0633
  57   2.0000      -0.441631       -12.0174
  58   2.0000      -0.427014       -11.6197
  59   2.0000      -0.423471       -11.5232
  60   2.0000      -0.416879       -11.3439
  61   2.0000      -0.416070       -11.3219
  62   2.0000      -0.414784       -11.2868
  63   2.0000      -0.340471        -9.2647
  64   2.0000      -0.329884        -8.9766
  65   2.0000      -0.327266        -8.9054
  66   2.0000      -0.300187        -8.1685
  67   0.0000       0.036046         0.9809
  68   0.0000       0.057751         1.5715
  69   0.0000       0.112184         3.0527
  70   0.0000       0.114488         3.1154
  71   0.0000       0.129330         3.5192

MULLIKEN ATOMIC CHARGES
-----------------------
   0 S :    0.104823
   1 C :   -0.144024
   2 C :   -0.097789
   3 C :    0.038736
   4 C :   -0.196464
   5 H :    0.024410
   6 C :    0.067975
   7 H :    0.035737
   8 H :    0.013278
   9 C :   -0.057741
  10 H :    0.017626
  11 H :    0.020390
  12 C :   -0.025974
  13 H :    0.041058
  14 H :    0.016093
  15 H :    0.022499
  16 S :    0.109879
  17 C :   -0.099546
  18 C :   -0.060565
  19 C :   -0.028632
  20 C :   -0.171114
  21 H :    0.054810
  22 C :    0.100686
  23 H :   -0.002369
  24 H :    0.056201
  25 C :   -0.070580
  26 H :    0.011944
  27 H :    0.035348
  28 C :   -0.063505
  29 H :    0.041829
  30 H :    0.031279
  31 H :    0.040012
  32 H :    0.081660
  33 H :    0.052029
Sum of atomic charges:   -0.0000000

LOEWDIN ATOMIC CHARGES
----------------------
   0 S :    0.390200
   1 C :   -0.207239
   2 C :   -0.057996
   3 C :   -0.065544
   4 C :   -0.194066
   5 H :    0.038789
   6 C :   -0.039523
   7 H :    0.038935
   8 H :    0.027567
   9 C :   -0.044191
  10 H :    0.023166
  11 H :    0.021554
  12 C :   -0.056506
  13 H :    0.031569
  14 H :    0.008685
  15 H :    0.029651
  16 S :    0.385018
  17 C :   -0.171428
  18 C :   -0.084831
  19 C :   -0.048479
  20 C :   -0.204249
  21 H :    0.052502
  22 C :   -0.032502
  23 H :    0.022838
  24 H :    0.043445
  25 C :   -0.036793
  26 H :    0.012187
  27 H :    0.029918
  28 C :   -0.068456
  29 H :    0.026252
  30 H :    0.023325
  31 H :    0.033666
  32 H :    0.045284
  33 H :    0.027254

  Mayer bond orders larger than 0.100000
B(  0-S ,  1-C ) :   1.1397 B(  0-S ,  4-C ) :   1.1441 B(  1-C ,  2-C ) :   1.5929
B(  1-C ,  4-C ) :   0.1039 B(  1-C , 32-H ) :   0.9596 B(  2-C ,  3-C ) :   1.2177
B(  2-C ,  6-C ) :   1.0468 B(  3-C ,  4-C ) :   1.5987 B(  3-C ,  5-H ) :   0.9856
B(  4-C , 20-C ) :   1.0373 B(  6-C ,  7-H ) :   0.9280 B(  6-C ,  8-H ) :   0.9340
B(  6-C ,  9-C ) :   1.0829 B(  9-C , 10-H ) :   0.9528 B(  9-C , 11-H ) :   0.9507
B(  9-C , 12-C ) :   1.0839 B( 12-C , 13-H ) :   0.9767 B( 12-C , 14-H ) :   0.9766
B( 12-C , 15-H ) :   0.9702 B( 16-S , 17-C ) :   1.1348 B( 16-S , 20-C ) :   1.1232
B( 17-C , 18-C ) :   1.6710 B( 17-C , 33-H ) :   0.9645 B( 18-C , 19-C ) :   1.1944
B( 18-C , 21-H ) :   0.9714 B( 19-C , 20-C ) :   1.6312 B( 19-C , 22-C ) :   1.0548
B( 22-C , 23-H ) :   0.9214 B( 22-C , 24-H ) :   0.9268 B( 22-C , 25-C ) :   1.0543
B( 25-C , 26-H ) :   0.9577 B( 25-C , 27-H ) :   0.9551 B( 25-C , 28-C ) :   1.0717
B( 28-C , 29-H ) :   0.9781 B( 28-C , 30-H ) :   0.9761 B( 28-C , 31-H ) :   0.9770

Dispersion correction           -0.013895282
FINAL SINGLE POINT ENERGY     -1339.866547146075

DIPOLE MOMENT
-------------
                                X             Y             Z
Electronic contribution:     15.37230      13.64309     -18.44005
Nuclear contribution   :    -15.42523     -13.89325      18.97531
                        -----------------------------------------
Total Dipole Moment    :     -0.05293      -0.25016       0.53526
                        -----------------------------------------
Magnitude (a.u.)       :      0.59319
Magnitude (Debye)      :      1.50778

Rotational constants in cm-1:     0.017335     0.008228     0.006647
Rotational constants in MHz :   519.693283   246.664278   199.281083

                             ****ORCA TERMINATED NORMALLY****
TOTAL RUN TIME: 0 days 0 hours 0 minutes 31 seconds 734 msec
