                         Program Version 4.2.1 -  RELEASE  -
|  1> ! wB97X-D3 SP def2-SVP
|  2> %pal
|  3> nprocs 16
|  4> end
|  5>
|  6> * xyz 0 1
|  7> S 	 1.84614 	 -2.08988 	 82.218
|  8> C 	 1.99016 	 -2.352 	 84.0194
|  9> C 	 1.69877 	 -3.6431 	 84.3662
| 10> C 	 1.3194 	 -4.35074 	 83.2226
| 11> C 	 1.30283 	 -3.69496 	 82.0258
| 12> H 	 1.04328 	 -5.41951 	 83.2421
| 13> C 	 1.91718 	 -4.31566 	 85.6352
| 14> H 	 0.949493 	 -4.7864 	 85.9079
| 15> H 	 2.07259 	 -3.46505 	 86.2882
| 16> C 	 3.17794 	 -5.23248 	 85.5897
| 17> H 	 3.42066 	 -5.46446 	 86.6224
| 18> H 	 2.96734 	 -6.1547 	 85.1062
| 19> C 	 4.34222 	 -4.5266 	 84.889
| 20> H 	 4.10842 	 -4.34796 	 83.8599
| 21> H 	 4.58546 	 -3.52464 	 85.2878
| 22> H 	 5.29396 	 -4.99672 	 85.1001
| 23> S 	 -0.1212 	 -3.29475 	 79.6532
| 24> C 	 0.179869 	 -4.40775 	 78.335
| 25> C 	 1.20453 	 -5.32047 	 78.6671
| 26> C 	 1.68509 	 -5.19676 	 79.9496
| 27> C 	 1.03755 	 -4.17048 	 80.6559
| 28> H 	 1.53379 	 -6.15255 	 78.1024
| 29> C 	 2.82359 	 -5.96398 	 80.5247
| 30> H 	 3.36376 	 -5.35035 	 81.1817
| 31> H 	 3.45297 	 -6.27962 	 79.6449
| 32> C 	 2.34911 	 -7.30424 	 81.2418
| 33> H 	 1.48175 	 -7.13406 	 81.9346
| 34> H 	 3.10837 	 -7.72314 	 81.9237
| 35> C 	 1.6503 	 -8.29785 	 80.242
| 36> H 	 1.28028 	 -9.15927 	 80.8369
| 37> H 	 2.27975 	 -8.64222 	 79.4264
| 38> H 	 0.866825 	 -7.77225 	 79.6732
| 39> H 	 2.47346 	 -1.61937 	 84.6369
| 40> H 	 -0.235915 	 -4.50913 	 77.4354
| 41> *
| 42>
| 43>                          ****END OF INPUT****

CARTESIAN COORDINATES (ANGSTROEM)
---------------------------------
  S      1.846140   -2.089880   82.218000
  C      1.990160   -2.352000   84.019400
  C      1.698770   -3.643100   84.366200
  C      1.319400   -4.350740   83.222600
  C      1.302830   -3.694960   82.025800
  H      1.043280   -5.419510   83.242100
  C      1.917180   -4.315660   85.635200
  H      0.949493   -4.786400   85.907900
  H      2.072590   -3.465050   86.288200
  C      3.177940   -5.232480   85.589700
  H      3.420660   -5.464460   86.622400
  H      2.967340   -6.154700   85.106200
  C      4.342220   -4.526600   84.889000
  H      4.108420   -4.347960   83.859900
  H      4.585460   -3.524640   85.287800
  H      5.293960   -4.996720   85.100100
  S     -0.121200   -3.294750   79.653200
  C      0.179869   -4.407750   78.335000
  C      1.204530   -5.320470   78.667100
  C      1.685090   -5.196760   79.949600
  C      1.037550   -4.170480   80.655900
  H      1.533790   -6.152550   78.102400
  C      2.823590   -5.963980   80.524700
  H      3.363760   -5.350350   81.181700
  H      3.452970   -6.279620   79.644900
  C      2.349110   -7.304240   81.241800
  H      1.481750   -7.134060   81.934600
  H      3.108370   -7.723140   81.923700
  C      1.650300   -8.297850   80.242000
  H      1.280280   -9.159270   80.836900
  H      2.279750   -8.642220   79.426400
  H      0.866825   -7.772250   79.673200
  H      2.473460   -1.619370   84.636900
  H     -0.235915   -4.509130   77.435400

 Total Charge           Charge          ....    0
 Multiplicity           Mult            ....    1
 Number of Electrons    NEL             ....  134
 Basis Dimension        Dim             ....  322

ORBITAL ENERGIES
----------------

  NO   OCC          E(Eh)            E(eV)
   0   2.0000     -88.974626     -2421.1227
   1   2.0000     -88.962835     -2420.8018
   2   2.0000     -10.327088      -281.0144
   3   2.0000     -10.324763      -280.9511
   4   2.0000     -10.313957      -280.6570
   5   2.0000     -10.313862      -280.6545
   6   2.0000     -10.297917      -280.2206
   7   2.0000     -10.295997      -280.1683
   8   2.0000     -10.294268      -280.1213
   9   2.0000     -10.292782      -280.0808
  10   2.0000     -10.292077      -280.0617
  11   2.0000     -10.290557      -280.0203
  12   2.0000     -10.289026      -279.9786
  13   2.0000     -10.286060      -279.8979
  14   2.0000     -10.283620      -279.8315
  15   2.0000     -10.275798      -279.6187
  16   2.0000      -8.088338      -220.0949
  17   2.0000      -8.077584      -219.8022
  18   2.0000      -6.046822      -164.5424
  19   2.0000      -6.042843      -164.4341
  20   2.0000      -6.039337      -164.3387
  21   2.0000      -6.036009      -164.2481
  22   2.0000      -6.032189      -164.1442
  23   2.0000      -6.028309      -164.0386
  24   2.0000      -1.009657       -27.4742
  25   2.0000      -0.987752       -26.8781
  26   2.0000      -0.922596       -25.1051
  27   2.0000      -0.906274       -24.6610
  28   2.0000      -0.866948       -23.5909
  29   2.0000      -0.849032       -23.1033
  30   2.0000      -0.842341       -22.9213
  31   2.0000      -0.813929       -22.1481
  32   2.0000      -0.788874       -21.4664
  33   2.0000      -0.774814       -21.0838
  34   2.0000      -0.716467       -19.4961
  35   2.0000      -0.706264       -19.2184
  36   2.0000      -0.696406       -18.9502
  37   2.0000      -0.667832       -18.1726
  38   2.0000      -0.642161       -17.4741
  39   2.0000      -0.621455       -16.9107
  40   2.0000      -0.595273       -16.1982
  41   2.0000      -0.571997       -15.5648
  42   2.0000      -0.554839       -15.0979
  43   2.0000      -0.551191       -14.9987
  44   2.0000      -0.547906       -14.9093
  45   2.0000      -0.539156       -14.6712
  46   2.0000      -0.521197       -14.1825
  47   2.0000      -0.514998       -14.0138
  48   2.0000      -0.498475       -13.5642
  49   2.0000      -0.492977       -13.4146
  50   2.0000      -0.488864       -13.3027
  51   2.0000      -0.478405       -13.0180
  52   2.0000      -0.471496       -12.8300
  53   2.0000      -0.464657       -12.6440
  54   2.0000      -0.459931       -12.5153
  55   2.0000      -0.448296       -12.1988
  56   2.0000      -0.443420       -12.0661
  57   2.0000      -0.438054       -11.9201
  58   2.0000      -0.435586       -11.8529
  59   2.0000      -0.434368       -11.8198
  60   2.0000      -0.424068       -11.5395
  61   2.0000      -0.421180       -11.4609
  62   2.0000      -0.410117       -11.1599
  63   2.0000      -0.339858        -9.2480
  64   2.0000      -0.337896        -9.1946
  65   2.0000      -0.329340        -8.9618
  66   2.0000      -0.292880        -7.9697
  67   0.0000       0.031331         0.8525
  68   0.0000       0.062322         1.6959
  69   0.0000       0.105602         2.8736
  70   0.0000       0.120998         3.2925
  71   0.0000       0.126758         3.4493

MULLIKEN ATOMIC CHARGES
-----------------------
   0 S :    0.093920
   1 C :   -0.143018
   2 C :   -0.107729
   3 C :    0.001274
   4 C :   -0.140006
   5 H :    0.001755
   6 C :    0.095190
   7 H :    0.044873
   8 H :    0.011821
   9 C :   -0.043780
  10 H :    0.031306
  11 H :    0.028320
  12 C :   -0.046093
  13 H :    0.053037
  14 H :    0.013778
  15 H :    0.031552
  16 S :    0.136948
  17 C :   -0.020942
  18 C :   -0.040026
  19 C :   -0.033007
  20 C :   -0.185399
  21 H :   -0.000394
  22 C :    0.102655
  23 H :    0.024895
  24 H :    0.034173
  25 C :   -0.096035
  26 H :    0.035622
  27 H :    0.039772
  28 C :   -0.081195
  29 H :    0.049049
  30 H :    0.023113
  31 H :    0.043834
  32 H :    0.039925
  33 H :    0.000811
Sum of atomic charges:   -0.0000000

LOEWDIN ATOMIC CHARGES
----------------------
   0 S :    0.390924
   1 C :   -0.173184
   2 C :   -0.070113
   3 C :   -0.074283
   4 C :   -0.203042
   5 H :    0.029144
   6 C :   -0.031228
   7 H :    0.039569
   8 H :    0.030431
   9 C :   -0.027226
  10 H :    0.026216
  11 H :    0.020031
  12 C :   -0.065327
  13 H :    0.026060
  14 H :    0.026293
  15 H :    0.027025
  16 S :    0.420594
  17 C :   -0.168931
  18 C :   -0.064460
  19 C :   -0.058077
  20 C :   -0.200637
  21 H :    0.023597
  22 C :   -0.022791
  23 H :    0.023833
  24 H :    0.037880
  25 C :   -0.041960
  26 H :    0.025786
  27 H :    0.023847
  28 C :   -0.072119
  29 H :    0.032659
  30 H :    0.016783
  31 H :    0.029540
  32 H :    0.019412
  33 H :    0.003751

  Mayer bond orders larger than 0.100000
B(  0-S ,  1-C ) :   1.1246 B(  0-S ,  4-C ) :   1.1627 B(  1-C ,  2-C ) :   1.6015
B(  1-C , 32-H ) :   0.9678 B(  2-C ,  3-C ) :   1.2301 B(  2-C ,  6-C ) :   1.0283
B(  3-C ,  4-C ) :   1.5935 B(  3-C ,  5-H ) :   0.9972 B(  4-C , 20-C ) :   1.0059
B(  6-C ,  7-H ) :   0.9345 B(  6-C ,  8-H ) :   0.9314 B(  6-C ,  9-C ) :   1.0572
B(  9-C , 10-H ) :   0.9583 B(  9-C , 11-H ) :   0.9548 B(  9-C , 12-C ) :   1.0808
B( 12-C , 13-H ) :   0.9647 B( 12-C , 14-H ) :   0.9711 B( 12-C , 15-H ) :   0.9707
B( 16-S , 17-C ) :   1.1636 B( 16-S , 20-C ) :   1.1597 B( 17-C , 18-C ) :   1.5533
B( 17-C , 20-C ) :   0.1186 B( 17-C , 33-H ) :   0.9801 B( 18-C , 19-C ) :   1.3144
B( 18-C , 21-H ) :   0.9786 B( 19-C , 20-C ) :   1.5419 B( 19-C , 22-C ) :   1.0414
B( 22-C , 23-H ) :   0.9252 B( 22-C , 24-H ) :   0.9414 B( 22-C , 25-C ) :   1.0540
B( 25-C , 26-H ) :   0.9549 B( 25-C , 27-H ) :   0.9622 B( 25-C , 28-C ) :   1.0555
B( 28-C , 29-H ) :   0.9748 B( 28-C , 30-H ) :   0.9772 B( 28-C , 31-H ) :   0.9712

Dispersion correction           -0.016593287
FINAL SINGLE POINT ENERGY     -1339.865428202702

DIPOLE MOMENT
-------------
                                X             Y             Z
Electronic contribution:    -12.67277      21.35271     -12.14836
Nuclear contribution   :     13.03807     -21.94660      12.43503
                        -----------------------------------------
Total Dipole Moment    :      0.36531      -0.59390       0.28667
                        -----------------------------------------
Magnitude (a.u.)       :      0.75388
Magnitude (Debye)      :      1.91622

Rotational constants in cm-1:     0.019795     0.010468     0.007581
Rotational constants in MHz :   593.432269   313.830568   227.275678

                             ****ORCA TERMINATED NORMALLY****
TOTAL RUN TIME: 0 days 0 hours 0 minutes 40 seconds 112 msec
