                         Program Version 4.2.1 -  RELEASE  -
|  1> ! wB97X-D3 SP def2-SVP
|  2> %pal
|  3> nprocs 16
|  4> end
|  5>
|  6> * xyz 0 1
|  7> S 	 -3.21122 	 35.7752 	 48.4269
|  8> C 	 -1.64346 	 35.041 	 48.9035
|  9> C 	 -1.86123 	 33.8819 	 49.5906
| 10> C 	 -3.23961 	 33.4126 	 49.5197
| 11> C 	 -4.07776 	 34.302 	 48.8803
| 12> H 	 -3.64282 	 32.596 	 50.0696
| 13> C 	 -0.780332 	 32.9655 	 50.1238
| 14> H 	 -0.127256 	 32.6743 	 49.3564
| 15> H 	 -1.21557 	 32.0129 	 50.4713
| 16> C 	 0.114329 	 33.5428 	 51.2616
| 17> H 	 0.731485 	 34.3699 	 50.9129
| 18> H 	 -0.517531 	 33.9705 	 52.0444
| 19> C 	 1.10526 	 32.5068 	 51.756
| 20> H 	 1.61791 	 32.8775 	 52.5962
| 21> H 	 0.649138 	 31.5705 	 52.0312
| 22> H 	 1.8277 	 32.2811 	 50.9809
| 23> S 	 -6.48108 	 35.6272 	 49.3382
| 24> C 	 -7.89363 	 34.9844 	 48.689
| 25> C 	 -7.74475 	 33.6413 	 48.3492
| 26> C 	 -6.35725 	 33.2312 	 48.3564
| 27> C 	 -5.56255 	 34.243 	 48.7313
| 28> H 	 -8.49508 	 32.9609 	 47.921
| 29> C 	 -5.92205 	 31.8976 	 47.7339
| 30> H 	 -6.63409 	 31.1494 	 48.0336
| 31> H 	 -5.00153 	 31.4446 	 48.0896
| 32> C 	 -5.64683 	 31.9002 	 46.1902
| 33> H 	 -6.61634 	 32.1634 	 45.7133
| 34> H 	 -5.25442 	 30.9429 	 45.8909
| 35> C 	 -4.54238 	 32.9323 	 45.8573
| 36> H 	 -4.17334 	 32.8264 	 44.8193
| 37> H 	 -3.63488 	 32.8628 	 46.412
| 38> H 	 -4.94172 	 33.9679 	 45.8061
| 39> H 	 -0.678208 	 35.427 	 48.657
| 40> H 	 -8.82292 	 35.5724 	 48.5231
| 41> *
| 42>
| 43>                          ****END OF INPUT****

CARTESIAN COORDINATES (ANGSTROEM)
---------------------------------
  S     -3.211220   35.775200   48.426900
  C     -1.643460   35.041000   48.903500
  C     -1.861230   33.881900   49.590600
  C     -3.239610   33.412600   49.519700
  C     -4.077760   34.302000   48.880300
  H     -3.642820   32.596000   50.069600
  C     -0.780332   32.965500   50.123800
  H     -0.127256   32.674300   49.356400
  H     -1.215570   32.012900   50.471300
  C      0.114329   33.542800   51.261600
  H      0.731485   34.369900   50.912900
  H     -0.517531   33.970500   52.044400
  C      1.105260   32.506800   51.756000
  H      1.617910   32.877500   52.596200
  H      0.649138   31.570500   52.031200
  H      1.827700   32.281100   50.980900
  S     -6.481080   35.627200   49.338200
  C     -7.893630   34.984400   48.689000
  C     -7.744750   33.641300   48.349200
  C     -6.357250   33.231200   48.356400
  C     -5.562550   34.243000   48.731300
  H     -8.495080   32.960900   47.921000
  C     -5.922050   31.897600   47.733900
  H     -6.634090   31.149400   48.033600
  H     -5.001530   31.444600   48.089600
  C     -5.646830   31.900200   46.190200
  H     -6.616340   32.163400   45.713300
  H     -5.254420   30.942900   45.890900
  C     -4.542380   32.932300   45.857300
  H     -4.173340   32.826400   44.819300
  H     -3.634880   32.862800   46.412000
  H     -4.941720   33.967900   45.806100
  H     -0.678208   35.427000   48.657000
  H     -8.822920   35.572400   48.523100

 Total Charge           Charge          ....    0
 Multiplicity           Mult            ....    1
 Number of Electrons    NEL             ....  134
 Basis Dimension        Dim             ....  322

ORBITAL ENERGIES
----------------

  NO   OCC          E(Eh)            E(eV)
   0   2.0000     -88.964320     -2420.8422
   1   2.0000     -88.963771     -2420.8273
   2   2.0000     -10.332600      -281.1643
   3   2.0000     -10.323377      -280.9134
   4   2.0000     -10.317810      -280.7619
   5   2.0000     -10.314438      -280.6701
   6   2.0000     -10.302035      -280.3326
   7   2.0000     -10.300228      -280.2834
   8   2.0000     -10.296736      -280.1884
   9   2.0000     -10.293208      -280.0924
  10   2.0000     -10.290525      -280.0194
  11   2.0000     -10.289497      -279.9914
  12   2.0000     -10.288611      -279.9673
  13   2.0000     -10.285146      -279.8730
  14   2.0000     -10.271257      -279.4951
  15   2.0000     -10.269329      -279.4426
  16   2.0000      -8.079896      -219.8652
  17   2.0000      -8.078052      -219.8150
  18   2.0000      -6.038337      -164.3115
  19   2.0000      -6.036781      -164.2692
  20   2.0000      -6.034334      -164.2026
  21   2.0000      -6.032743      -164.1593
  22   2.0000      -6.030509      -164.0985
  23   2.0000      -6.028595      -164.0464
  24   2.0000      -1.008217       -27.4350
  25   2.0000      -0.982234       -26.7279
  26   2.0000      -0.910218       -24.7683
  27   2.0000      -0.904719       -24.6186
  28   2.0000      -0.865824       -23.5603
  29   2.0000      -0.849819       -23.1247
  30   2.0000      -0.841449       -22.8970
  31   2.0000      -0.810708       -22.0605
  32   2.0000      -0.783028       -21.3073
  33   2.0000      -0.773653       -21.0522
  34   2.0000      -0.704657       -19.1747
  35   2.0000      -0.697939       -18.9919
  36   2.0000      -0.688220       -18.7274
  37   2.0000      -0.662615       -18.0307
  38   2.0000      -0.641985       -17.4693
  39   2.0000      -0.616746       -16.7825
  40   2.0000      -0.601684       -16.3727
  41   2.0000      -0.566629       -15.4188
  42   2.0000      -0.560599       -15.2547
  43   2.0000      -0.550198       -14.9716
  44   2.0000      -0.541046       -14.7226
  45   2.0000      -0.525732       -14.3059
  46   2.0000      -0.518925       -14.1207
  47   2.0000      -0.502971       -13.6865
  48   2.0000      -0.500653       -13.6235
  49   2.0000      -0.496495       -13.5103
  50   2.0000      -0.489925       -13.3315
  51   2.0000      -0.478768       -13.0279
  52   2.0000      -0.470824       -12.8118
  53   2.0000      -0.463663       -12.6169
  54   2.0000      -0.455662       -12.3992
  55   2.0000      -0.449764       -12.2387
  56   2.0000      -0.442467       -12.0401
  57   2.0000      -0.435672       -11.8552
  58   2.0000      -0.427823       -11.6417
  59   2.0000      -0.423997       -11.5375
  60   2.0000      -0.420199       -11.4342
  61   2.0000      -0.415473       -11.3056
  62   2.0000      -0.412998       -11.2382
  63   2.0000      -0.346430        -9.4268
  64   2.0000      -0.331433        -9.0187
  65   2.0000      -0.326373        -8.8811
  66   2.0000      -0.294452        -8.0125
  67   0.0000       0.028496         0.7754
  68   0.0000       0.070215         1.9106
  69   0.0000       0.103864         2.8263
  70   0.0000       0.115967         3.1556
  71   0.0000       0.132665         3.6100

MULLIKEN ATOMIC CHARGES
-----------------------
   0 S :    0.090466
   1 C :   -0.114331
   2 C :   -0.055376
   3 C :    0.036621
   4 C :   -0.144429
   5 H :    0.013270
   6 C :    0.055427
   7 H :    0.019999
   8 H :    0.015250
   9 C :   -0.094436
  10 H :    0.024941
  11 H :    0.034230
  12 C :   -0.014468
  13 H :    0.025302
  14 H :    0.020587
  15 H :    0.024779
  16 S :    0.118567
  17 C :   -0.101106
  18 C :   -0.039334
  19 C :   -0.036519
  20 C :   -0.158397
  21 H :    0.025333
  22 C :    0.054273
  23 H :    0.017852
  24 H :    0.010155
  25 C :   -0.040720
  26 H :    0.032677
  27 H :    0.029798
  28 C :   -0.072455
  29 H :    0.021173
  30 H :    0.038714
  31 H :    0.044422
  32 H :    0.040990
  33 H :    0.076743
Sum of atomic charges:   -0.0000000

LOEWDIN ATOMIC CHARGES
----------------------
   0 S :    0.374717
   1 C :   -0.176626
   2 C :   -0.058934
   3 C :   -0.063045
   4 C :   -0.173645
   5 H :    0.028411
   6 C :   -0.030665
   7 H :    0.025090
   8 H :    0.029320
   9 C :   -0.038165
  10 H :    0.022329
  11 H :    0.023983
  12 C :   -0.058680
  13 H :    0.022075
  14 H :    0.020514
  15 H :    0.025364
  16 S :    0.418326
  17 C :   -0.207533
  18 C :   -0.072875
  19 C :   -0.061090
  20 C :   -0.189195
  21 H :    0.032736
  22 C :   -0.034833
  23 H :    0.026200
  24 H :    0.026313
  25 C :   -0.028303
  26 H :    0.025249
  27 H :    0.022394
  28 C :   -0.074423
  29 H :    0.026524
  30 H :    0.022513
  31 H :    0.031509
  32 H :    0.025167
  33 H :    0.039281

  Mayer bond orders larger than 0.100000
B(  0-S ,  1-C ) :   1.1107 B(  0-S ,  4-C ) :   1.1413 B(  1-C ,  2-C ) :   1.6364
B(  1-C , 32-H ) :   0.9765 B(  2-C ,  3-C ) :   1.2081 B(  2-C ,  6-C ) :   1.0213
B(  3-C ,  4-C ) :   1.6056 B(  3-C ,  5-H ) :   0.9929 B(  4-C , 20-C ) :   1.0065
B(  6-C ,  7-H ) :   0.9406 B(  6-C ,  8-H ) :   0.9487 B(  6-C ,  9-C ) :   1.0553
B(  9-C , 10-H ) :   0.9540 B(  9-C , 11-H ) :   0.9610 B(  9-C , 12-C ) :   1.0885
B( 12-C , 13-H ) :   0.9721 B( 12-C , 14-H ) :   0.9746 B( 12-C , 15-H ) :   0.9724
B( 16-S , 17-C ) :   1.1629 B( 16-S , 20-C ) :   1.1376 B( 17-C , 18-C ) :   1.5979
B( 17-C , 33-H ) :   0.9644 B( 18-C , 19-C ) :   1.2287 B( 18-C , 21-H ) :   0.9849
B( 19-C , 20-C ) :   1.6571 B( 19-C , 22-C ) :   1.0447 B( 22-C , 23-H ) :   0.9329
B( 22-C , 24-H ) :   0.9398 B( 22-C , 25-C ) :   1.0673 B( 25-C , 26-H ) :   0.9570
B( 25-C , 27-H ) :   0.9579 B( 25-C , 28-C ) :   1.0790 B( 28-C , 29-H ) :   0.9713
B( 28-C , 30-H ) :   0.9729 B( 28-C , 31-H ) :   0.9717

Dispersion correction           -0.015196006
FINAL SINGLE POINT ENERGY     -1339.877079691541

DIPOLE MOMENT
-------------
                                X             Y             Z
Electronic contribution:    -16.71808      18.49239       0.97073
Nuclear contribution   :     16.98174     -19.05681      -1.02206
                        -----------------------------------------
Total Dipole Moment    :      0.26366      -0.56442      -0.05133
                        -----------------------------------------
Magnitude (a.u.)       :      0.62508
Magnitude (Debye)      :      1.58882

Rotational constants in cm-1:     0.022872     0.007638     0.006846
Rotational constants in MHz :   685.672861   228.990192   205.232339

                             ****ORCA TERMINATED NORMALLY****
TOTAL RUN TIME: 0 days 0 hours 0 minutes 33 seconds 470 msec
