                         Program Version 4.2.1 -  RELEASE  -
|  1> ! wB97X-D3 SP def2-SVP
|  2> %pal
|  3> nprocs 16
|  4> end
|  5>
|  6> * xyz 0 1
|  7> S 	 -91.597 	 51.5823 	 125.514
|  8> C 	 -90.9399 	 50.9133 	 127.01
|  9> C 	 -91.1926 	 49.5222 	 127.188
| 10> C 	 -91.9302 	 49.0505 	 126.065
| 11> C 	 -92.2505 	 50.0408 	 125.16
| 12> H 	 -92.1246 	 48.0825 	 125.894
| 13> C 	 -90.6462 	 48.6827 	 128.294
| 14> H 	 -90.5828 	 49.3785 	 129.15
| 15> H 	 -89.6735 	 48.2472 	 127.962
| 16> C 	 -91.4462 	 47.3891 	 128.707
| 17> H 	 -92.5085 	 47.4916 	 128.683
| 18> H 	 -91.2126 	 46.6941 	 127.863
| 19> C 	 -90.8845 	 47.03 	 130.105
| 20> H 	 -91.0299 	 47.7434 	 130.918
| 21> H 	 -91.5529 	 46.2354 	 130.337
| 22> H 	 -89.8609 	 46.6577 	 130.078
| 23> S 	 -92.1794 	 50.1197 	 122.452
| 24> C 	 -93.6721 	 50.1187 	 121.64
| 25> C 	 -94.7827 	 49.8657 	 122.508
| 26> C 	 -94.3306 	 49.6944 	 123.88
| 27> C 	 -92.9862 	 49.879 	 123.965
| 28> H 	 -95.7875 	 49.9507 	 122.032
| 29> C 	 -95.26 	 49.6988 	 125.053
| 30> H 	 -94.6725 	 49.5272 	 125.936
| 31> H 	 -95.8207 	 48.7366 	 124.968
| 32> C 	 -96.2514 	 50.8209 	 125.225
| 33> H 	 -96.7993 	 50.5863 	 126.149
| 34> H 	 -97.1593 	 50.7593 	 124.566
| 35> C 	 -95.6221 	 52.231 	 125.169
| 36> H 	 -94.7134 	 52.1596 	 125.752
| 37> H 	 -96.2137 	 52.9351 	 125.623
| 38> H 	 -95.4844 	 52.5603 	 124.144
| 39> H 	 -90.3178 	 51.4525 	 127.715
| 40> H 	 -93.8507 	 50.2442 	 120.541
| 41> *
| 42>
| 43>                          ****END OF INPUT****

CARTESIAN COORDINATES (ANGSTROEM)
---------------------------------
  S    -91.597000   51.582300  125.514000
  C    -90.939900   50.913300  127.010000
  C    -91.192600   49.522200  127.188000
  C    -91.930200   49.050500  126.065000
  C    -92.250500   50.040800  125.160000
  H    -92.124600   48.082500  125.894000
  C    -90.646200   48.682700  128.294000
  H    -90.582800   49.378500  129.150000
  H    -89.673500   48.247200  127.962000
  C    -91.446200   47.389100  128.707000
  H    -92.508500   47.491600  128.683000
  H    -91.212600   46.694100  127.863000
  C    -90.884500   47.030000  130.105000
  H    -91.029900   47.743400  130.918000
  H    -91.552900   46.235400  130.337000
  H    -89.860900   46.657700  130.078000
  S    -92.179400   50.119700  122.452000
  C    -93.672100   50.118700  121.640000
  C    -94.782700   49.865700  122.508000
  C    -94.330600   49.694400  123.880000
  C    -92.986200   49.879000  123.965000
  H    -95.787500   49.950700  122.032000
  C    -95.260000   49.698800  125.053000
  H    -94.672500   49.527200  125.936000
  H    -95.820700   48.736600  124.968000
  C    -96.251400   50.820900  125.225000
  H    -96.799300   50.586300  126.149000
  H    -97.159300   50.759300  124.566000
  C    -95.622100   52.231000  125.169000
  H    -94.713400   52.159600  125.752000
  H    -96.213700   52.935100  125.623000
  H    -95.484400   52.560300  124.144000
  H    -90.317800   51.452500  127.715000
  H    -93.850700   50.244200  120.541000

 Total Charge           Charge          ....    0
 Multiplicity           Mult            ....    1
 Number of Electrons    NEL             ....  134
 Basis Dimension        Dim             ....  322

ORBITAL ENERGIES
----------------

  NO   OCC          E(Eh)            E(eV)
   0   2.0000     -88.969172     -2420.9742
   1   2.0000     -88.965423     -2420.8722
   2   2.0000     -10.317492      -280.7532
   3   2.0000     -10.316114      -280.7157
   4   2.0000     -10.311998      -280.6037
   5   2.0000     -10.310337      -280.5585
   6   2.0000     -10.299295      -280.2581
   7   2.0000     -10.298403      -280.2338
   8   2.0000     -10.298108      -280.2258
   9   2.0000     -10.295003      -280.1413
  10   2.0000     -10.294422      -280.1255
  11   2.0000     -10.285084      -279.8714
  12   2.0000     -10.283837      -279.8374
  13   2.0000     -10.281273      -279.7677
  14   2.0000     -10.280657      -279.7509
  15   2.0000     -10.262901      -279.2677
  16   2.0000      -8.083739      -219.9697
  17   2.0000      -8.081321      -219.9039
  18   2.0000      -6.042000      -164.4112
  19   2.0000      -6.039659      -164.3475
  20   2.0000      -6.038296      -164.3104
  21   2.0000      -6.035702      -164.2398
  22   2.0000      -6.034733      -164.2134
  23   2.0000      -6.032168      -164.1436
  24   2.0000      -1.012177       -27.5427
  25   2.0000      -0.981211       -26.7001
  26   2.0000      -0.912267       -24.8240
  27   2.0000      -0.909293       -24.7431
  28   2.0000      -0.867760       -23.6130
  29   2.0000      -0.853849       -23.2344
  30   2.0000      -0.844108       -22.9694
  31   2.0000      -0.808457       -21.9992
  32   2.0000      -0.786418       -21.3995
  33   2.0000      -0.768379       -20.9087
  34   2.0000      -0.713084       -19.4040
  35   2.0000      -0.698737       -19.0136
  36   2.0000      -0.687220       -18.7002
  37   2.0000      -0.651791       -17.7361
  38   2.0000      -0.642205       -17.4753
  39   2.0000      -0.622903       -16.9501
  40   2.0000      -0.589437       -16.0394
  41   2.0000      -0.577041       -15.7021
  42   2.0000      -0.556770       -15.1505
  43   2.0000      -0.554486       -15.0883
  44   2.0000      -0.536805       -14.6072
  45   2.0000      -0.523766       -14.2524
  46   2.0000      -0.516105       -14.0439
  47   2.0000      -0.508705       -13.8426
  48   2.0000      -0.501144       -13.6368
  49   2.0000      -0.488091       -13.2816
  50   2.0000      -0.487033       -13.2528
  51   2.0000      -0.481436       -13.1005
  52   2.0000      -0.472365       -12.8537
  53   2.0000      -0.463969       -12.6252
  54   2.0000      -0.459917       -12.5150
  55   2.0000      -0.452227       -12.3057
  56   2.0000      -0.443606       -12.0711
  57   2.0000      -0.440150       -11.9771
  58   2.0000      -0.436915       -11.8891
  59   2.0000      -0.432221       -11.7613
  60   2.0000      -0.420525       -11.4431
  61   2.0000      -0.405742       -11.0408
  62   2.0000      -0.402148       -10.9430
  63   2.0000      -0.335553        -9.1309
  64   2.0000      -0.329953        -8.9785
  65   2.0000      -0.321545        -8.7497
  66   2.0000      -0.292851        -7.9689
  67   0.0000       0.040391         1.0991
  68   0.0000       0.065617         1.7855
  69   0.0000       0.118509         3.2248
  70   0.0000       0.122322         3.3286
  71   0.0000       0.125407         3.4125

MULLIKEN ATOMIC CHARGES
-----------------------
   0 S :    0.138539
   1 C :   -0.128093
   2 C :   -0.073951
   3 C :    0.087459
   4 C :   -0.184381
   5 H :   -0.045091
   6 C :    0.024981
   7 H :    0.032795
   8 H :    0.055236
   9 C :   -0.117375
  10 H :    0.030977
  11 H :    0.043402
  12 C :   -0.022409
  13 H :    0.043294
  14 H :    0.021273
  15 H :    0.041178
  16 S :    0.139456
  17 C :   -0.127063
  18 C :   -0.073131
  19 C :   -0.008598
  20 C :   -0.193566
  21 H :    0.036301
  22 C :    0.086372
  23 H :    0.018223
  24 H :    0.025389
  25 C :   -0.084302
  26 H :    0.021512
  27 H :    0.018549
  28 C :    0.013019
  29 H :    0.023901
  30 H :    0.009085
  31 H :    0.040091
  32 H :    0.035399
  33 H :    0.071528
Sum of atomic charges:   -0.0000000

LOEWDIN ATOMIC CHARGES
----------------------
   0 S :    0.431856
   1 C :   -0.204828
   2 C :   -0.057710
   3 C :   -0.050009
   4 C :   -0.204906
   5 H :    0.008755
   6 C :   -0.039543
   7 H :    0.031850
   8 H :    0.042607
   9 C :   -0.037782
  10 H :    0.017288
  11 H :    0.030295
  12 C :   -0.061243
  13 H :    0.029741
  14 H :    0.024451
  15 H :    0.029491
  16 S :    0.433124
  17 C :   -0.214838
  18 C :   -0.077554
  19 C :   -0.052127
  20 C :   -0.220547
  21 H :    0.038282
  22 C :   -0.038415
  23 H :    0.027449
  24 H :    0.040041
  25 C :   -0.047502
  26 H :    0.027642
  27 H :    0.023133
  28 C :   -0.055260
  29 H :    0.023208
  30 H :    0.014150
  31 H :    0.030240
  32 H :    0.020730
  33 H :    0.037930

  Mayer bond orders larger than 0.100000
B(  0-S ,  1-C ) :   1.1396 B(  0-S ,  4-C ) :   1.1725 B(  1-C ,  2-C ) :   1.5971
B(  1-C , 32-H ) :   0.9684 B(  2-C ,  3-C ) :   1.2478 B(  2-C ,  6-C ) :   1.0220
B(  3-C ,  4-C ) :   1.5541 B(  3-C ,  5-H ) :   1.0136 B(  4-C , 20-C ) :   1.0266
B(  6-C ,  7-H ) :   0.9487 B(  6-C ,  8-H ) :   0.9339 B(  6-C ,  9-C ) :   1.0549
B(  9-C , 10-H ) :   0.9682 B(  9-C , 11-H ) :   0.9500 B(  9-C , 12-C ) :   1.0744
B( 12-C , 13-H ) :   0.9766 B( 12-C , 14-H ) :   0.9732 B( 12-C , 15-H ) :   0.9727
B( 16-S , 17-C ) :   1.1642 B( 16-S , 20-C ) :   1.1498 B( 17-C , 18-C ) :   1.6164
B( 17-C , 33-H ) :   0.9607 B( 18-C , 19-C ) :   1.2082 B( 18-C , 21-H ) :   0.9870
B( 19-C , 20-C ) :   1.6016 B( 19-C , 22-C ) :   1.0573 B( 22-C , 23-H ) :   0.9196
B( 22-C , 24-H ) :   0.9150 B( 22-C , 25-C ) :   1.0913 B( 25-C , 26-H ) :   0.9483
B( 25-C , 27-H ) :   0.9475 B( 25-C , 28-C ) :   1.0672 B( 28-C , 29-H ) :   0.9747
B( 28-C , 30-H ) :   0.9705 B( 28-C , 31-H ) :   0.9712

Dispersion correction           -0.015268980
FINAL SINGLE POINT ENERGY     -1339.857077702686

DIPOLE MOMENT
-------------
                                X             Y             Z
Electronic contribution:      9.15324       8.52130     -20.63535
Nuclear contribution   :     -9.36762      -8.81949      21.03723
                        -----------------------------------------
Total Dipole Moment    :     -0.21438      -0.29819       0.40188
                        -----------------------------------------
Magnitude (a.u.)       :      0.54441
Magnitude (Debye)      :      1.38379

Rotational constants in cm-1:     0.021254     0.008057     0.007421
Rotational constants in MHz :   637.192827   241.557183   222.481945

                             ****ORCA TERMINATED NORMALLY****
TOTAL RUN TIME: 0 days 0 hours 0 minutes 34 seconds 364 msec
