                         Program Version 4.2.1 -  RELEASE  -
|  1> ! wB97X-D3 SP def2-SVP
|  2> %pal
|  3> nprocs 16
|  4> end
|  5>
|  6> * xyz 0 1
|  7> S 	 16.5839 	 8.99612 	 87.7871
|  8> C 	 17.2888 	 9.04977 	 86.131
|  9> C 	 17.4927 	 10.4052 	 85.7914
| 10> C 	 17.3207 	 11.3281 	 86.838
| 11> C 	 16.6584 	 10.7561 	 87.9307
| 12> H 	 17.5352 	 12.3933 	 86.8796
| 13> C 	 17.9953 	 10.8007 	 84.3824
| 14> H 	 17.9879 	 11.8833 	 84.3276
| 15> H 	 17.2652 	 10.4189 	 83.6786
| 16> C 	 19.3303 	 10.2372 	 84.0813
| 17> H 	 19.2848 	 9.17427 	 84.1463
| 18> H 	 19.5696 	 10.4806 	 83.0809
| 19> C 	 20.4778 	 10.6095 	 85.0509
| 20> H 	 21.4638 	 10.421 	 84.6059
| 21> H 	 20.4284 	 11.6603 	 85.206
| 22> H 	 20.4278 	 10.3011 	 86.0794
| 23> S 	 16.9451 	 12.9406 	 89.5647
| 24> C 	 15.6111 	 13.4088 	 90.6129
| 25> C 	 14.6144 	 12.4713 	 90.6612
| 26> C 	 14.7986 	 11.3983 	 89.7299
| 27> C 	 16.0345 	 11.51 	 89.0186
| 28> H 	 13.7742 	 12.5372 	 91.3141
| 29> C 	 13.7857 	 10.2319 	 89.6731
| 30> H 	 14.0363 	 9.42579 	 90.4186
| 31> H 	 13.8882 	 9.72587 	 88.7136
| 32> C 	 12.2792 	 10.6063 	 89.7289
| 33> H 	 12.0545 	 11.274 	 90.4995
| 34> H 	 11.6392 	 9.69463 	 89.8811
| 35> C 	 11.7107 	 11.3972 	 88.5395
| 36> H 	 10.6368 	 11.5578 	 88.5513
| 37> H 	 11.9201 	 11.0676 	 87.5554
| 38> H 	 12.1752 	 12.3984 	 88.4592
| 39> H 	 17.3831 	 8.20435 	 85.476
| 40> H 	 15.5143 	 14.2133 	 91.2812
| 41> *
| 42>
| 43>                          ****END OF INPUT****

CARTESIAN COORDINATES (ANGSTROEM)
---------------------------------
  S     16.583900    8.996120   87.787100
  C     17.288800    9.049770   86.131000
  C     17.492700   10.405200   85.791400
  C     17.320700   11.328100   86.838000
  C     16.658400   10.756100   87.930700
  H     17.535200   12.393300   86.879600
  C     17.995300   10.800700   84.382400
  H     17.987900   11.883300   84.327600
  H     17.265200   10.418900   83.678600
  C     19.330300   10.237200   84.081300
  H     19.284800    9.174270   84.146300
  H     19.569600   10.480600   83.080900
  C     20.477800   10.609500   85.050900
  H     21.463800   10.421000   84.605900
  H     20.428400   11.660300   85.206000
  H     20.427800   10.301100   86.079400
  S     16.945100   12.940600   89.564700
  C     15.611100   13.408800   90.612900
  C     14.614400   12.471300   90.661200
  C     14.798600   11.398300   89.729900
  C     16.034500   11.510000   89.018600
  H     13.774200   12.537200   91.314100
  C     13.785700   10.231900   89.673100
  H     14.036300    9.425790   90.418600
  H     13.888200    9.725870   88.713600
  C     12.279200   10.606300   89.728900
  H     12.054500   11.274000   90.499500
  H     11.639200    9.694630   89.881100
  C     11.710700   11.397200   88.539500
  H     10.636800   11.557800   88.551300
  H     11.920100   11.067600   87.555400
  H     12.175200   12.398400   88.459200
  H     17.383100    8.204350   85.476000
  H     15.514300   14.213300   91.281200

 Total Charge           Charge          ....    0
 Multiplicity           Mult            ....    1
 Number of Electrons    NEL             ....  134
 Basis Dimension        Dim             ....  322

ORBITAL ENERGIES
----------------

  NO   OCC          E(Eh)            E(eV)
   0   2.0000     -88.971744     -2421.0442
   1   2.0000     -88.970850     -2421.0199
   2   2.0000     -10.336997      -281.2840
   3   2.0000     -10.336188      -281.2620
   4   2.0000     -10.318817      -280.7893
   5   2.0000     -10.315354      -280.6950
   6   2.0000     -10.312129      -280.6073
   7   2.0000     -10.305763      -280.4341
   8   2.0000     -10.299264      -280.2572
   9   2.0000     -10.296161      -280.1728
  10   2.0000     -10.292259      -280.0666
  11   2.0000     -10.288382      -279.9611
  12   2.0000     -10.288324      -279.9595
  13   2.0000     -10.277629      -279.6685
  14   2.0000     -10.270294      -279.4689
  15   2.0000     -10.269433      -279.4455
  16   2.0000      -8.085373      -220.0142
  17   2.0000      -8.083771      -219.9706
  18   2.0000      -6.044020      -164.4661
  19   2.0000      -6.042344      -164.4205
  20   2.0000      -6.040119      -164.3600
  21   2.0000      -6.038456      -164.3147
  22   2.0000      -6.035987      -164.2476
  23   2.0000      -6.034648      -164.2111
  24   2.0000      -1.000261       -27.2185
  25   2.0000      -0.978167       -26.6173
  26   2.0000      -0.916165       -24.9301
  27   2.0000      -0.903106       -24.5748
  28   2.0000      -0.867424       -23.6038
  29   2.0000      -0.849221       -23.1085
  30   2.0000      -0.840918       -22.8825
  31   2.0000      -0.813214       -22.1287
  32   2.0000      -0.786575       -21.4038
  33   2.0000      -0.772943       -21.0329
  34   2.0000      -0.710729       -19.3399
  35   2.0000      -0.705009       -19.1843
  36   2.0000      -0.697415       -18.9776
  37   2.0000      -0.662665       -18.0320
  38   2.0000      -0.636597       -17.3227
  39   2.0000      -0.609031       -16.5726
  40   2.0000      -0.598620       -16.2893
  41   2.0000      -0.577126       -15.7044
  42   2.0000      -0.552366       -15.0306
  43   2.0000      -0.546518       -14.8715
  44   2.0000      -0.544179       -14.8079
  45   2.0000      -0.533189       -14.5088
  46   2.0000      -0.516966       -14.0673
  47   2.0000      -0.513880       -13.9834
  48   2.0000      -0.503683       -13.7059
  49   2.0000      -0.495766       -13.4905
  50   2.0000      -0.489837       -13.3291
  51   2.0000      -0.480628       -13.0785
  52   2.0000      -0.469353       -12.7717
  53   2.0000      -0.463599       -12.6152
  54   2.0000      -0.458826       -12.4853
  55   2.0000      -0.447533       -12.1780
  56   2.0000      -0.443676       -12.0730
  57   2.0000      -0.440531       -11.9875
  58   2.0000      -0.435358       -11.8467
  59   2.0000      -0.421241       -11.4626
  60   2.0000      -0.417830       -11.3697
  61   2.0000      -0.413757       -11.2589
  62   2.0000      -0.409807       -11.1514
  63   2.0000      -0.351497        -9.5647
  64   2.0000      -0.335163        -9.1202
  65   2.0000      -0.332245        -9.0409
  66   2.0000      -0.282078        -7.6757
  67   0.0000       0.015631         0.4253
  68   0.0000       0.075106         2.0437
  69   0.0000       0.102227         2.7818
  70   0.0000       0.112846         3.0707
  71   0.0000       0.129083         3.5125

MULLIKEN ATOMIC CHARGES
-----------------------
   0 S :    0.106899
   1 C :   -0.128976
   2 C :   -0.112171
   3 C :    0.011735
   4 C :   -0.131545
   5 H :    0.024267
   6 C :    0.091768
   7 H :    0.016059
   8 H :    0.033981
   9 C :   -0.037481
  10 H :    0.015818
  11 H :    0.018202
  12 C :   -0.041578
  13 H :    0.036913
  14 H :    0.000745
  15 H :    0.039585
  16 S :    0.099393
  17 C :   -0.048139
  18 C :   -0.037682
  19 C :   -0.047122
  20 C :   -0.151327
  21 H :    0.013683
  22 C :    0.051951
  23 H :    0.060396
  24 H :    0.024106
  25 C :   -0.062901
  26 H :    0.015491
  27 H :    0.040404
  28 C :   -0.064135
  29 H :    0.033723
  30 H :    0.012512
  31 H :    0.027806
  32 H :    0.054035
  33 H :    0.033585
Sum of atomic charges:    0.0000000

LOEWDIN ATOMIC CHARGES
----------------------
   0 S :    0.393777
   1 C :   -0.193918
   2 C :   -0.051735
   3 C :   -0.074072
   4 C :   -0.183475
   5 H :    0.029583
   6 C :   -0.025570
   7 H :    0.025487
   8 H :    0.035104
   9 C :   -0.035503
  10 H :    0.018628
  11 H :    0.020383
  12 C :   -0.066242
  13 H :    0.030064
  14 H :    0.017101
  15 H :    0.027955
  16 S :    0.398632
  17 C :   -0.176378
  18 C :   -0.064915
  19 C :   -0.054656
  20 C :   -0.183676
  21 H :    0.028253
  22 C :   -0.038581
  23 H :    0.043117
  24 H :    0.025169
  25 C :   -0.040531
  26 H :    0.013080
  27 H :    0.033448
  28 C :   -0.071863
  29 H :    0.027208
  30 H :    0.015876
  31 H :    0.029480
  32 H :    0.025872
  33 H :    0.022896

  Mayer bond orders larger than 0.100000
B(  0-S ,  1-C ) :   1.1227 B(  0-S ,  4-C ) :   1.1591 B(  1-C ,  2-C ) :   1.5789
B(  1-C ,  4-C ) :   0.1069 B(  1-C , 32-H ) :   0.9743 B(  2-C ,  3-C ) :   1.2736
B(  2-C ,  6-C ) :   1.0114 B(  3-C ,  4-C ) :   1.5276 B(  3-C ,  5-H ) :   0.9834
B(  4-C , 20-C ) :   1.0593 B(  6-C ,  7-H ) :   0.9418 B(  6-C ,  8-H ) :   0.9342
B(  6-C ,  9-C ) :   1.0954 B(  9-C , 10-H ) :   0.9524 B(  9-C , 11-H ) :   0.9518
B(  9-C , 12-C ) :   1.0686 B( 12-C , 13-H ) :   0.9749 B( 12-C , 14-H ) :   0.9740
B( 12-C , 15-H ) :   0.9711 B( 16-S , 17-C ) :   1.1364 B( 16-S , 20-C ) :   1.1344
B( 17-C , 18-C ) :   1.6305 B( 17-C , 33-H ) :   0.9665 B( 18-C , 19-C ) :   1.2448
B( 18-C , 21-H ) :   0.9876 B( 19-C , 20-C ) :   1.5695 B( 19-C , 22-C ) :   1.0285
B( 22-C , 23-H ) :   0.9416 B( 22-C , 24-H ) :   0.9338 B( 22-C , 25-C ) :   1.0641
B( 25-C , 26-H ) :   0.9580 B( 25-C , 27-H ) :   0.9560 B( 25-C , 28-C ) :   1.0694
B( 28-C , 29-H ) :   0.9758 B( 28-C , 30-H ) :   0.9752 B( 28-C , 31-H ) :   0.9719

Dispersion correction           -0.014420808
FINAL SINGLE POINT ENERGY     -1339.867747759312

DIPOLE MOMENT
-------------
                                X             Y             Z
Electronic contribution:      5.09199       1.13538      11.68636
Nuclear contribution   :     -5.35108      -1.04856     -11.91175
                        -----------------------------------------
Total Dipole Moment    :     -0.25909       0.08683      -0.22538
                        -----------------------------------------
Magnitude (a.u.)       :      0.35421
Magnitude (Debye)      :      0.90033

Rotational constants in cm-1:     0.023004     0.007698     0.006545
Rotational constants in MHz :   689.649431   230.791439   196.212813

                             ****ORCA TERMINATED NORMALLY****
TOTAL RUN TIME: 0 days 0 hours 0 minutes 35 seconds 911 msec
