                         Program Version 4.2.1 -  RELEASE  -
|  1> ! wB97X-D3 SP def2-SVP
|  2> %pal
|  3> nprocs 16
|  4> end
|  5>
|  6> * xyz 0 1
|  7> S 	 -26.0558 	 -8.56859 	 91.2743
|  8> C 	 -27.0132 	 -9.90608 	 90.7674
|  9> C 	 -26.6151 	 -10.3632 	 89.5432
| 10> C 	 -25.4726 	 -9.73287 	 88.9862
| 11> C 	 -25.0936 	 -8.67171 	 89.8216
| 12> H 	 -25.1269 	 -9.93083 	 88.0196
| 13> C 	 -27.2317 	 -11.5587 	 88.8151
| 14> H 	 -27.2806 	 -11.5037 	 87.7126
| 15> H 	 -28.263 	 -11.6661 	 89.0993
| 16> C 	 -26.6698 	 -12.9588 	 89.2243
| 17> H 	 -26.69 	 -12.9464 	 90.3054
| 18> H 	 -27.3702 	 -13.7983 	 88.964
| 19> C 	 -25.1867 	 -13.1451 	 88.7286
| 20> H 	 -25.1779 	 -13.2159 	 87.646
| 21> H 	 -24.508 	 -12.3612 	 89.0803
| 22> H 	 -24.7682 	 -14.1177 	 89.1196
| 23> S 	 -23.2721 	 -6.8771 	 90.8207
| 24> C 	 -22.4009 	 -5.98918 	 89.6026
| 25> C 	 -22.8518 	 -6.21482 	 88.284
| 26> C 	 -23.8755 	 -7.1963 	 88.1791
| 27> C 	 -24.1689 	 -7.60671 	 89.492
| 28> H 	 -22.3973 	 -5.66904 	 87.4725
| 29> C 	 -24.7067 	 -7.335 	 86.9036
| 30> H 	 -25.3952 	 -8.11939 	 86.8838
| 31> H 	 -24.0679 	 -7.63354 	 86.0708
| 32> C 	 -25.3536 	 -6.06497 	 86.3763
| 33> H 	 -24.6312 	 -5.27226 	 86.3983
| 34> H 	 -26.0924 	 -5.63709 	 87.1043
| 35> C 	 -25.8926 	 -6.10876 	 84.9781
| 36> H 	 -26.1937 	 -5.15038 	 84.5416
| 37> H 	 -26.7278 	 -6.8245 	 84.9023
| 38> H 	 -25.2119 	 -6.51487 	 84.2993
| 39> H 	 -27.9893 	 -10.0964 	 91.1542
| 40> H 	 -21.6807 	 -5.25087 	 89.8134
| 41> *
| 42>
| 43>                          ****END OF INPUT****

CARTESIAN COORDINATES (ANGSTROEM)
---------------------------------
  S    -26.055800   -8.568590   91.274300
  C    -27.013200   -9.906080   90.767400
  C    -26.615100  -10.363200   89.543200
  C    -25.472600   -9.732870   88.986200
  C    -25.093600   -8.671710   89.821600
  H    -25.126900   -9.930830   88.019600
  C    -27.231700  -11.558700   88.815100
  H    -27.280600  -11.503700   87.712600
  H    -28.263000  -11.666100   89.099300
  C    -26.669800  -12.958800   89.224300
  H    -26.690000  -12.946400   90.305400
  H    -27.370200  -13.798300   88.964000
  C    -25.186700  -13.145100   88.728600
  H    -25.177900  -13.215900   87.646000
  H    -24.508000  -12.361200   89.080300
  H    -24.768200  -14.117700   89.119600
  S    -23.272100   -6.877100   90.820700
  C    -22.400900   -5.989180   89.602600
  C    -22.851800   -6.214820   88.284000
  C    -23.875500   -7.196300   88.179100
  C    -24.168900   -7.606710   89.492000
  H    -22.397300   -5.669040   87.472500
  C    -24.706700   -7.335000   86.903600
  H    -25.395200   -8.119390   86.883800
  H    -24.067900   -7.633540   86.070800
  C    -25.353600   -6.064970   86.376300
  H    -24.631200   -5.272260   86.398300
  H    -26.092400   -5.637090   87.104300
  C    -25.892600   -6.108760   84.978100
  H    -26.193700   -5.150380   84.541600
  H    -26.727800   -6.824500   84.902300
  H    -25.211900   -6.514870   84.299300
  H    -27.989300  -10.096400   91.154200
  H    -21.680700   -5.250870   89.813400

 Total Charge           Charge          ....    0
 Multiplicity           Mult            ....    1
 Number of Electrons    NEL             ....  134
 Basis Dimension        Dim             ....  322

ORBITAL ENERGIES
----------------

  NO   OCC          E(Eh)            E(eV)
   0   2.0000     -88.974745     -2421.1259
   1   2.0000     -88.967311     -2420.9236
   2   2.0000     -10.329604      -281.0828
   3   2.0000     -10.328668      -281.0573
   4   2.0000     -10.315564      -280.7008
   5   2.0000     -10.308759      -280.5156
   6   2.0000     -10.305539      -280.4280
   7   2.0000     -10.297973      -280.2221
   8   2.0000     -10.296675      -280.1868
   9   2.0000     -10.293147      -280.0908
  10   2.0000     -10.289785      -279.9993
  11   2.0000     -10.289664      -279.9960
  12   2.0000     -10.289463      -279.9905
  13   2.0000     -10.284430      -279.8536
  14   2.0000     -10.279090      -279.7083
  15   2.0000     -10.275835      -279.6197
  16   2.0000      -8.089265      -220.1201
  17   2.0000      -8.082767      -219.9433
  18   2.0000      -6.047521      -164.5614
  19   2.0000      -6.044099      -164.4683
  20   2.0000      -6.041147      -164.3880
  21   2.0000      -6.040021      -164.3573
  22   2.0000      -6.037227      -164.2813
  23   2.0000      -6.033588      -164.1823
  24   2.0000      -1.010168       -27.4881
  25   2.0000      -0.985307       -26.8116
  26   2.0000      -0.917462       -24.9654
  27   2.0000      -0.903193       -24.5771
  28   2.0000      -0.866393       -23.5758
  29   2.0000      -0.860606       -23.4183
  30   2.0000      -0.844075       -22.9685
  31   2.0000      -0.809068       -22.0159
  32   2.0000      -0.790430       -21.5087
  33   2.0000      -0.770707       -20.9720
  34   2.0000      -0.708721       -19.2853
  35   2.0000      -0.701091       -19.0777
  36   2.0000      -0.694080       -18.8869
  37   2.0000      -0.665101       -18.0983
  38   2.0000      -0.640817       -17.4375
  39   2.0000      -0.623590       -16.9687
  40   2.0000      -0.605413       -16.4741
  41   2.0000      -0.564912       -15.3720
  42   2.0000      -0.561042       -15.2667
  43   2.0000      -0.540304       -14.7024
  44   2.0000      -0.534612       -14.5475
  45   2.0000      -0.527926       -14.3656
  46   2.0000      -0.518226       -14.1016
  47   2.0000      -0.512030       -13.9330
  48   2.0000      -0.507176       -13.8010
  49   2.0000      -0.495467       -13.4823
  50   2.0000      -0.491179       -13.3657
  51   2.0000      -0.478354       -13.0167
  52   2.0000      -0.467505       -12.7215
  53   2.0000      -0.465101       -12.6561
  54   2.0000      -0.462172       -12.5763
  55   2.0000      -0.456190       -12.4136
  56   2.0000      -0.451496       -12.2858
  57   2.0000      -0.438047       -11.9199
  58   2.0000      -0.436996       -11.8913
  59   2.0000      -0.428140       -11.6503
  60   2.0000      -0.418140       -11.3782
  61   2.0000      -0.413966       -11.2646
  62   2.0000      -0.409393       -11.1402
  63   2.0000      -0.353419        -9.6170
  64   2.0000      -0.339106        -9.2275
  65   2.0000      -0.333836        -9.0841
  66   2.0000      -0.278001        -7.5648
  67   0.0000       0.018791         0.5113
  68   0.0000       0.074001         2.0137
  69   0.0000       0.094843         2.5808
  70   0.0000       0.115728         3.1491
  71   0.0000       0.135068         3.6754

MULLIKEN ATOMIC CHARGES
-----------------------
   0 S :    0.102055
   1 C :   -0.094368
   2 C :   -0.108318
   3 C :    0.043840
   4 C :   -0.115943
   5 H :   -0.001078
   6 C :    0.043436
   7 H :    0.027495
   8 H :    0.007164
   9 C :   -0.077066
  10 H :    0.020368
  11 H :    0.040164
  12 C :   -0.078098
  13 H :    0.028368
  14 H :    0.054384
  15 H :    0.036885
  16 S :    0.126188
  17 C :   -0.073555
  18 C :   -0.047580
  19 C :   -0.018721
  20 C :   -0.144514
  21 H :    0.018152
  22 C :    0.097628
  23 H :   -0.001473
  24 H :    0.010863
  25 C :   -0.069741
  26 H :    0.007669
  27 H :    0.035909
  28 C :   -0.024967
  29 H :    0.040408
  30 H :    0.024602
  31 H :    0.006483
  32 H :    0.046203
  33 H :    0.037160
Sum of atomic charges:    0.0000000

LOEWDIN ATOMIC CHARGES
----------------------
   0 S :    0.415953
   1 C :   -0.212799
   2 C :   -0.057080
   3 C :   -0.058771
   4 C :   -0.181709
   5 H :    0.022483
   6 C :   -0.036895
   7 H :    0.026893
   8 H :    0.025380
   9 C :   -0.039361
  10 H :    0.019626
  11 H :    0.028606
  12 C :   -0.073745
  13 H :    0.019973
  14 H :    0.029579
  15 H :    0.030202
  16 S :    0.409618
  17 C :   -0.187042
  18 C :   -0.057804
  19 C :   -0.052607
  20 C :   -0.187389
  21 H :    0.029203
  22 C :   -0.025450
  23 H :    0.017947
  24 H :    0.034141
  25 C :   -0.043179
  26 H :    0.018085
  27 H :    0.030874
  28 C :   -0.062634
  29 H :    0.032918
  30 H :    0.026514
  31 H :    0.015569
  32 H :    0.026091
  33 H :    0.016808

  Mayer bond orders larger than 0.100000
B(  0-S ,  1-C ) :   1.1265 B(  0-S ,  4-C ) :   1.1749 B(  1-C ,  2-C ) :   1.6199
B(  1-C , 32-H ) :   0.9638 B(  2-C ,  3-C ) :   1.2540 B(  2-C ,  6-C ) :   1.0346
B(  3-C ,  4-C ) :   1.5246 B(  3-C ,  5-H ) :   1.0000 B(  4-C , 20-C ) :   1.0592
B(  6-C ,  7-H ) :   0.9498 B(  6-C ,  8-H ) :   0.9347 B(  6-C ,  9-C ) :   1.0637
B(  9-C , 10-H ) :   0.9544 B(  9-C , 11-H ) :   0.9590 B(  9-C , 12-C ) :   1.0700
B( 12-C , 13-H ) :   0.9786 B( 12-C , 14-H ) :   0.9722 B( 12-C , 15-H ) :   0.9748
B( 16-S , 17-C ) :   1.1393 B( 16-S , 20-C ) :   1.1501 B( 17-C , 18-C ) :   1.6167
B( 17-C , 20-C ) :   0.1023 B( 17-C , 33-H ) :   0.9729 B( 18-C , 19-C ) :   1.2302
B( 18-C , 21-H ) :   0.9855 B( 19-C , 20-C ) :   1.5821 B( 19-C , 22-C ) :   1.0480
B( 22-C , 23-H ) :   0.9359 B( 22-C , 24-H ) :   0.9204 B( 22-C , 25-C ) :   1.0636
B( 25-C , 26-H ) :   0.9479 B( 25-C , 27-H ) :   0.9495 B( 25-C , 28-C ) :   1.0882
B( 28-C , 29-H ) :   0.9717 B( 28-C , 30-H ) :   0.9732 B( 28-C , 31-H ) :   0.9687

Dispersion correction           -0.014227540
FINAL SINGLE POINT ENERGY     -1339.870585170809

DIPOLE MOMENT
-------------
                                X             Y             Z
Electronic contribution:      7.56717      11.40604      23.58925
Nuclear contribution   :     -7.75514     -11.34629     -24.23714
                        -----------------------------------------
Total Dipole Moment    :     -0.18797       0.05975      -0.64789
                        -----------------------------------------
Magnitude (a.u.)       :      0.67725
Magnitude (Debye)      :      1.72142

Rotational constants in cm-1:     0.017049     0.009099     0.007113
Rotational constants in MHz :   511.130208   272.788382   213.249757

                             ****ORCA TERMINATED NORMALLY****
TOTAL RUN TIME: 0 days 0 hours 0 minutes 31 seconds 726 msec
