                         Program Version 4.2.1 -  RELEASE  -
|  1> ! wB97X-D3 SP def2-SVP
|  2> %pal
|  3> nprocs 16
|  4> end
|  5>
|  6> * xyz 0 1
|  7> S 	 -46.3924 	 63.8824 	 143.266
|  8> C 	 -45.5542 	 62.3258 	 143.333
|  9> C 	 -45.8195 	 61.5478 	 142.251
| 10> C 	 -46.7128 	 62.1957 	 141.382
| 11> C 	 -47.0116 	 63.4978 	 141.714
| 12> H 	 -47.1235 	 61.8302 	 140.453
| 13> C 	 -45.4334 	 60.05 	 142.073
| 14> H 	 -45.2239 	 59.6916 	 143.091
| 15> H 	 -44.496 	 59.9317 	 141.399
| 16> C 	 -46.6722 	 59.2384 	 141.518
| 17> H 	 -47.6127 	 59.5967 	 141.942
| 18> H 	 -46.687 	 59.3285 	 140.363
| 19> C 	 -46.7201 	 57.7739 	 141.861
| 20> H 	 -47.5804 	 57.207 	 141.382
| 21> H 	 -45.8041 	 57.2512 	 141.592
| 22> H 	 -46.7428 	 57.7231 	 142.928
| 23> S 	 -49.1603 	 65.2707 	 141.934
| 24> C 	 -49.6469 	 66.0912 	 140.482
| 25> C 	 -49.0369 	 65.6294 	 139.339
| 26> C 	 -48.0836 	 64.6485 	 139.633
| 27> C 	 -47.9516 	 64.3393 	 141.023
| 28> H 	 -49.2776 	 66.0065 	 138.314
| 29> C 	 -47.2511 	 64.1937 	 138.471
| 30> H 	 -46.2508 	 63.8676 	 138.847
| 31> H 	 -47.0785 	 65.0593 	 137.897
| 32> C 	 -47.8624 	 63.1098 	 137.624
| 33> H 	 -48.9352 	 63.3629 	 137.387
| 34> H 	 -47.7349 	 62.1384 	 138.091
| 35> C 	 -47.043 	 63.0909 	 136.272
| 36> H 	 -46.9062 	 64.098 	 135.824
| 37> H 	 -47.4551 	 62.2874 	 135.628
| 38> H 	 -46.0312 	 62.8544 	 136.437
| 39> H 	 -44.8565 	 62.0532 	 144.143
| 40> H 	 -50.4906 	 66.7805 	 140.524
| 41> *
| 42>
| 43>                          ****END OF INPUT****

CARTESIAN COORDINATES (ANGSTROEM)
---------------------------------
  S    -46.392400   63.882400  143.266000
  C    -45.554200   62.325800  143.333000
  C    -45.819500   61.547800  142.251000
  C    -46.712800   62.195700  141.382000
  C    -47.011600   63.497800  141.714000
  H    -47.123500   61.830200  140.453000
  C    -45.433400   60.050000  142.073000
  H    -45.223900   59.691600  143.091000
  H    -44.496000   59.931700  141.399000
  C    -46.672200   59.238400  141.518000
  H    -47.612700   59.596700  141.942000
  H    -46.687000   59.328500  140.363000
  C    -46.720100   57.773900  141.861000
  H    -47.580400   57.207000  141.382000
  H    -45.804100   57.251200  141.592000
  H    -46.742800   57.723100  142.928000
  S    -49.160300   65.270700  141.934000
  C    -49.646900   66.091200  140.482000
  C    -49.036900   65.629400  139.339000
  C    -48.083600   64.648500  139.633000
  C    -47.951600   64.339300  141.023000
  H    -49.277600   66.006500  138.314000
  C    -47.251100   64.193700  138.471000
  H    -46.250800   63.867600  138.847000
  H    -47.078500   65.059300  137.897000
  C    -47.862400   63.109800  137.624000
  H    -48.935200   63.362900  137.387000
  H    -47.734900   62.138400  138.091000
  C    -47.043000   63.090900  136.272000
  H    -46.906200   64.098000  135.824000
  H    -47.455100   62.287400  135.628000
  H    -46.031200   62.854400  136.437000
  H    -44.856500   62.053200  144.143000
  H    -50.490600   66.780500  140.524000

 Total Charge           Charge          ....    0
 Multiplicity           Mult            ....    1
 Number of Electrons    NEL             ....  134
 Basis Dimension        Dim             ....  322

ORBITAL ENERGIES
----------------

  NO   OCC          E(Eh)            E(eV)
   0   2.0000     -88.967016     -2420.9156
   1   2.0000     -88.965731     -2420.8806
   2   2.0000     -10.328895      -281.0635
   3   2.0000     -10.323021      -280.9037
   4   2.0000     -10.316537      -280.7272
   5   2.0000     -10.314153      -280.6624
   6   2.0000     -10.310129      -280.5529
   7   2.0000     -10.300148      -280.2813
   8   2.0000     -10.299905      -280.2747
   9   2.0000     -10.296005      -280.1685
  10   2.0000     -10.293835      -280.1095
  11   2.0000     -10.292650      -280.0772
  12   2.0000     -10.286707      -279.9155
  13   2.0000     -10.284457      -279.8543
  14   2.0000     -10.279936      -279.7313
  15   2.0000     -10.279343      -279.7152
  16   2.0000      -8.081518      -219.9093
  17   2.0000      -8.080919      -219.8930
  18   2.0000      -6.039933      -164.3549
  19   2.0000      -6.039384      -164.3400
  20   2.0000      -6.036036      -164.2489
  21   2.0000      -6.035427      -164.2323
  22   2.0000      -6.032436      -164.1509
  23   2.0000      -6.031632      -164.1290
  24   2.0000      -1.009961       -27.4824
  25   2.0000      -0.986209       -26.8361
  26   2.0000      -0.914628       -24.8883
  27   2.0000      -0.907884       -24.7048
  28   2.0000      -0.872353       -23.7379
  29   2.0000      -0.851616       -23.1737
  30   2.0000      -0.847178       -23.0529
  31   2.0000      -0.810283       -22.0489
  32   2.0000      -0.781079       -21.2542
  33   2.0000      -0.768631       -20.9155
  34   2.0000      -0.709381       -19.3032
  35   2.0000      -0.697120       -18.9696
  36   2.0000      -0.685468       -18.6525
  37   2.0000      -0.660192       -17.9648
  38   2.0000      -0.639790       -17.4096
  39   2.0000      -0.618374       -16.8268
  40   2.0000      -0.597752       -16.2657
  41   2.0000      -0.570938       -15.5360
  42   2.0000      -0.567526       -15.4432
  43   2.0000      -0.558821       -15.2063
  44   2.0000      -0.529451       -14.4071
  45   2.0000      -0.522653       -14.2221
  46   2.0000      -0.513442       -13.9715
  47   2.0000      -0.505072       -13.7437
  48   2.0000      -0.504662       -13.7326
  49   2.0000      -0.497562       -13.5394
  50   2.0000      -0.495008       -13.4699
  51   2.0000      -0.480111       -13.0645
  52   2.0000      -0.470868       -12.8130
  53   2.0000      -0.461839       -12.5673
  54   2.0000      -0.455949       -12.4070
  55   2.0000      -0.453388       -12.3373
  56   2.0000      -0.449520       -12.2321
  57   2.0000      -0.440199       -11.9784
  58   2.0000      -0.428008       -11.6467
  59   2.0000      -0.424123       -11.5410
  60   2.0000      -0.421681       -11.4745
  61   2.0000      -0.418174       -11.3791
  62   2.0000      -0.412270       -11.2184
  63   2.0000      -0.351456        -9.5636
  64   2.0000      -0.335134        -9.1195
  65   2.0000      -0.333047        -9.0627
  66   2.0000      -0.282999        -7.7008
  67   0.0000       0.025991         0.7073
  68   0.0000       0.076391         2.0787
  69   0.0000       0.108845         2.9618
  70   0.0000       0.124992         3.4012
  71   0.0000       0.128891         3.5073

MULLIKEN ATOMIC CHARGES
-----------------------
   0 S :    0.107349
   1 C :   -0.153036
   2 C :   -0.054360
   3 C :    0.009938
   4 C :   -0.138181
   5 H :   -0.006923
   6 C :    0.061490
   7 H :    0.021847
   8 H :    0.064699
   9 C :   -0.132827
  10 H :    0.046652
  11 H :    0.044725
  12 C :   -0.041575
  13 H :    0.051916
  14 H :    0.021552
  15 H :    0.022924
  16 S :    0.104885
  17 C :   -0.098725
  18 C :   -0.038312
  19 C :   -0.025420
  20 C :   -0.149199
  21 H :    0.037644
  22 C :    0.038615
  23 H :    0.029613
  24 H :    0.009636
  25 C :   -0.072796
  26 H :    0.042825
  27 H :    0.040564
  28 C :   -0.045898
  29 H :    0.030551
  30 H :    0.044615
  31 H :    0.009986
  32 H :    0.055394
  33 H :    0.059833
Sum of atomic charges:    0.0000000

LOEWDIN ATOMIC CHARGES
----------------------
   0 S :    0.409410
   1 C :   -0.194459
   2 C :   -0.069271
   3 C :   -0.063875
   4 C :   -0.203931
   5 H :    0.026792
   6 C :   -0.028991
   7 H :    0.027573
   8 H :    0.044972
   9 C :   -0.050473
  10 H :    0.029320
  11 H :    0.029660
  12 C :   -0.070409
  13 H :    0.037548
  14 H :    0.020129
  15 H :    0.019733
  16 S :    0.400620
  17 C :   -0.184188
  18 C :   -0.077707
  19 C :   -0.053763
  20 C :   -0.195969
  21 H :    0.042360
  22 C :   -0.035654
  23 H :    0.033727
  24 H :    0.022746
  25 C :   -0.033286
  26 H :    0.029487
  27 H :    0.023528
  28 C :   -0.069294
  29 H :    0.028171
  30 H :    0.029758
  31 H :    0.016328
  32 H :    0.032502
  33 H :    0.026910

  Mayer bond orders larger than 0.100000
B(  0-S ,  1-C ) :   1.1332 B(  0-S ,  4-C ) :   1.1502 B(  1-C ,  2-C ) :   1.6276
B(  1-C , 32-H ) :   0.9632 B(  2-C ,  3-C ) :   1.2423 B(  2-C ,  6-C ) :   1.0016
B(  3-C ,  4-C ) :   1.5545 B(  3-C ,  5-H ) :   0.9980 B(  4-C , 20-C ) :   1.0806
B(  6-C ,  7-H ) :   0.9515 B(  6-C ,  8-H ) :   0.9335 B(  6-C ,  9-C ) :   1.0603
B(  9-C , 10-H ) :   0.9623 B(  9-C , 11-H ) :   0.9466 B(  9-C , 12-C ) :   1.0870
B( 12-C , 13-H ) :   0.9725 B( 12-C , 14-H ) :   0.9717 B( 12-C , 15-H ) :   0.9732
B( 16-S , 17-C ) :   1.1696 B( 16-S , 20-C ) :   1.1337 B( 17-C , 18-C ) :   1.5758
B( 17-C , 20-C ) :   0.1031 B( 17-C , 33-H ) :   0.9645 B( 18-C , 19-C ) :   1.2777
B( 18-C , 21-H ) :   0.9840 B( 19-C , 20-C ) :   1.5512 B( 19-C , 22-C ) :   1.0396
B( 22-C , 23-H ) :   0.9256 B( 22-C , 24-H ) :   0.9440 B( 22-C , 25-C ) :   1.0683
B( 25-C , 26-H ) :   0.9580 B( 25-C , 27-H ) :   0.9493 B( 25-C , 28-C ) :   1.0742
B( 28-C , 29-H ) :   0.9753 B( 28-C , 30-H ) :   0.9745 B( 28-C , 31-H ) :   0.9703

Dispersion correction           -0.013824376
FINAL SINGLE POINT ENERGY     -1339.877786108275

DIPOLE MOMENT
-------------
                                X             Y             Z
Electronic contribution:     -5.31616      22.96730      19.79373
Nuclear contribution   :      5.40014     -23.40057     -20.25646
                        -----------------------------------------
Total Dipole Moment    :      0.08398      -0.43327      -0.46274
                        -----------------------------------------
Magnitude (a.u.)       :      0.63945
Magnitude (Debye)      :      1.62536

Rotational constants in cm-1:     0.015952     0.009346     0.006719
Rotational constants in MHz :   478.219311   280.197114   201.443810

                             ****ORCA TERMINATED NORMALLY****
TOTAL RUN TIME: 0 days 0 hours 0 minutes 34 seconds 533 msec
