                         Program Version 4.2.1 -  RELEASE  -
|  1> ! wB97X-D3 SP def2-SVP
|  2> %pal
|  3> nprocs 16
|  4> end
|  5>
|  6> * xyz 0 1
|  7> S 	 -39.2866 	 38.6678 	 79.2817
|  8> C 	 -37.8779 	 38.5131 	 78.2518
|  9> C 	 -37.0913 	 37.4243 	 78.5529
| 10> C 	 -37.6834 	 36.7454 	 79.7542
| 11> C 	 -38.9007 	 37.3046 	 80.2431
| 12> H 	 -37.2047 	 35.8368 	 80.1474
| 13> C 	 -35.8767 	 37.0469 	 77.7686
| 14> H 	 -35.081 	 37.6753 	 78.1251
| 15> H 	 -35.9828 	 37.3234 	 76.6549
| 16> C 	 -35.4044 	 35.5923 	 78.017
| 17> H 	 -34.9096 	 35.6066 	 78.9896
| 18> H 	 -36.3026 	 34.9365 	 78.1087
| 19> C 	 -34.4679 	 34.9988 	 76.9688
| 20> H 	 -34.7852 	 35.0681 	 75.8874
| 21> H 	 -33.3457 	 35.3016 	 77.0723
| 22> H 	 -34.3544 	 33.9121 	 77.1216
| 23> S 	 -41.3466 	 37.2325 	 81.4284
| 24> C 	 -41.5465 	 36.6353 	 83.0905
| 25> C 	 -40.3072 	 36.2816 	 83.6485
| 26> C 	 -39.1924 	 36.4785 	 82.7535
| 27> C 	 -39.5726 	 37.0342 	 81.5241
| 28> H 	 -40.2973 	 35.8929 	 84.6661
| 29> C 	 -37.7507 	 36.1067 	 83.1168
| 30> H 	 -37.5017 	 35.4389 	 82.3516
| 31> H 	 -37.7723 	 35.5003 	 84.0815
| 32> C 	 -36.7399 	 37.2142 	 83.1981
| 33> H 	 -37.2702 	 37.9606 	 83.8167
| 34> H 	 -36.5617 	 37.7266 	 82.2443
| 35> C 	 -35.5061 	 36.6258 	 83.8756
| 36> H 	 -34.665 	 37.324 	 83.9116
| 37> H 	 -35.0449 	 35.8581 	 83.2654
| 38> H 	 -35.7198 	 36.2554 	 84.8871
| 39> H 	 -37.6357 	 39.2878 	 77.4918
| 40> H 	 -42.5226 	 36.5315 	 83.5715
| 41> *
| 42>
| 43>                          ****END OF INPUT****

CARTESIAN COORDINATES (ANGSTROEM)
---------------------------------
  S    -39.286600   38.667800   79.281700
  C    -37.877900   38.513100   78.251800
  C    -37.091300   37.424300   78.552900
  C    -37.683400   36.745400   79.754200
  C    -38.900700   37.304600   80.243100
  H    -37.204700   35.836800   80.147400
  C    -35.876700   37.046900   77.768600
  H    -35.081000   37.675300   78.125100
  H    -35.982800   37.323400   76.654900
  C    -35.404400   35.592300   78.017000
  H    -34.909600   35.606600   78.989600
  H    -36.302600   34.936500   78.108700
  C    -34.467900   34.998800   76.968800
  H    -34.785200   35.068100   75.887400
  H    -33.345700   35.301600   77.072300
  H    -34.354400   33.912100   77.121600
  S    -41.346600   37.232500   81.428400
  C    -41.546500   36.635300   83.090500
  C    -40.307200   36.281600   83.648500
  C    -39.192400   36.478500   82.753500
  C    -39.572600   37.034200   81.524100
  H    -40.297300   35.892900   84.666100
  C    -37.750700   36.106700   83.116800
  H    -37.501700   35.438900   82.351600
  H    -37.772300   35.500300   84.081500
  C    -36.739900   37.214200   83.198100
  H    -37.270200   37.960600   83.816700
  H    -36.561700   37.726600   82.244300
  C    -35.506100   36.625800   83.875600
  H    -34.665000   37.324000   83.911600
  H    -35.044900   35.858100   83.265400
  H    -35.719800   36.255400   84.887100
  H    -37.635700   39.287800   77.491800
  H    -42.522600   36.531500   83.571500

 Total Charge           Charge          ....    0
 Multiplicity           Mult            ....    1
 Number of Electrons    NEL             ....  134
 Basis Dimension        Dim             ....  322

ORBITAL ENERGIES
----------------

  NO   OCC          E(Eh)            E(eV)
   0   2.0000     -88.966165     -2420.8924
   1   2.0000     -88.964851     -2420.8567
   2   2.0000     -10.335981      -281.2563
   3   2.0000     -10.333912      -281.2000
   4   2.0000     -10.324341      -280.9396
   5   2.0000     -10.315575      -280.7011
   6   2.0000     -10.309853      -280.5454
   7   2.0000     -10.308754      -280.5155
   8   2.0000     -10.306459      -280.4530
   9   2.0000     -10.301188      -280.3096
  10   2.0000     -10.300589      -280.2933
  11   2.0000     -10.296622      -280.1853
  12   2.0000     -10.294155      -280.1182
  13   2.0000     -10.289625      -279.9949
  14   2.0000     -10.283903      -279.8392
  15   2.0000     -10.279219      -279.7118
  16   2.0000      -8.081473      -219.9081
  17   2.0000      -8.078703      -219.8327
  18   2.0000      -6.039993      -164.3566
  19   2.0000      -6.037262      -164.2822
  20   2.0000      -6.035793      -164.2423
  21   2.0000      -6.033342      -164.1756
  22   2.0000      -6.032282      -164.1467
  23   2.0000      -6.029468      -164.0702
  24   2.0000      -1.001350       -27.2481
  25   2.0000      -0.976415       -26.5696
  26   2.0000      -0.914938       -24.8967
  27   2.0000      -0.912543       -24.8316
  28   2.0000      -0.867791       -23.6138
  29   2.0000      -0.848542       -23.0900
  30   2.0000      -0.839870       -22.8540
  31   2.0000      -0.809491       -22.0274
  32   2.0000      -0.781735       -21.2721
  33   2.0000      -0.771460       -20.9925
  34   2.0000      -0.712423       -19.3860
  35   2.0000      -0.699744       -19.0410
  36   2.0000      -0.683286       -18.5932
  37   2.0000      -0.662193       -18.0192
  38   2.0000      -0.634596       -17.2682
  39   2.0000      -0.618602       -16.8330
  40   2.0000      -0.591122       -16.0852
  41   2.0000      -0.573574       -15.6078
  42   2.0000      -0.570941       -15.5361
  43   2.0000      -0.561407       -15.2767
  44   2.0000      -0.521662       -14.1952
  45   2.0000      -0.516943       -14.0667
  46   2.0000      -0.514541       -14.0014
  47   2.0000      -0.513543       -13.9742
  48   2.0000      -0.501824       -13.6553
  49   2.0000      -0.495913       -13.4945
  50   2.0000      -0.494189       -13.4476
  51   2.0000      -0.481516       -13.1027
  52   2.0000      -0.469499       -12.7757
  53   2.0000      -0.468629       -12.7521
  54   2.0000      -0.456383       -12.4188
  55   2.0000      -0.451996       -12.2994
  56   2.0000      -0.446321       -12.1450
  57   2.0000      -0.436769       -11.8851
  58   2.0000      -0.429125       -11.6771
  59   2.0000      -0.423143       -11.5143
  60   2.0000      -0.418654       -11.3922
  61   2.0000      -0.415116       -11.2959
  62   2.0000      -0.413422       -11.2498
  63   2.0000      -0.353029        -9.6064
  64   2.0000      -0.330763        -9.0005
  65   2.0000      -0.325582        -8.8595
  66   2.0000      -0.284963        -7.7542
  67   0.0000       0.021492         0.5848
  68   0.0000       0.074383         2.0241
  69   0.0000       0.100096         2.7237
  70   0.0000       0.115560         3.1446
  71   0.0000       0.132119         3.5951

MULLIKEN ATOMIC CHARGES
-----------------------
   0 S :    0.109881
   1 C :   -0.149637
   2 C :   -0.096785
   3 C :   -0.035017
   4 C :   -0.086365
   5 H :    0.019961
   6 C :    0.062666
   7 H :    0.038398
   8 H :    0.046843
   9 C :   -0.111215
  10 H :    0.037953
  11 H :    0.050066
  12 C :   -0.080553
  13 H :    0.048803
  14 H :    0.042971
  15 H :    0.031780
  16 S :    0.078359
  17 C :   -0.098674
  18 C :   -0.039027
  19 C :   -0.056655
  20 C :   -0.128380
  21 H :    0.025105
  22 C :    0.053230
  23 H :    0.012175
  24 H :    0.023107
  25 C :   -0.057186
  26 H :    0.031394
  27 H :    0.047672
  28 C :   -0.036074
  29 H :    0.025441
  30 H :    0.020415
  31 H :    0.038644
  32 H :    0.062657
  33 H :    0.068049
Sum of atomic charges:   -0.0000000

LOEWDIN ATOMIC CHARGES
----------------------
   0 S :    0.422440
   1 C :   -0.203685
   2 C :   -0.062841
   3 C :   -0.074833
   4 C :   -0.213332
   5 H :    0.026212
   6 C :   -0.039319
   7 H :    0.034908
   8 H :    0.041902
   9 C :   -0.048705
  10 H :    0.028476
  11 H :    0.029984
  12 C :   -0.084138
  13 H :    0.031919
  14 H :    0.035032
  15 H :    0.028774
  16 S :    0.377448
  17 C :   -0.176451
  18 C :   -0.073520
  19 C :   -0.052513
  20 C :   -0.183374
  21 H :    0.034935
  22 C :   -0.031648
  23 H :    0.019021
  24 H :    0.036529
  25 C :   -0.042611
  26 H :    0.028556
  27 H :    0.029901
  28 C :   -0.064761
  29 H :    0.025173
  30 H :    0.024239
  31 H :    0.028206
  32 H :    0.035318
  33 H :    0.032760

  Mayer bond orders larger than 0.100000
B(  0-S ,  1-C ) :   1.1447 B(  0-S ,  4-C ) :   1.1643 B(  1-C ,  2-C ) :   1.6166
B(  1-C , 32-H ) :   0.9638 B(  2-C ,  3-C ) :   1.2451 B(  2-C ,  6-C ) :   1.0235
B(  3-C ,  4-C ) :   1.5360 B(  3-C ,  5-H ) :   0.9870 B(  4-C , 20-C ) :   1.0353
B(  6-C ,  7-H ) :   0.9265 B(  6-C ,  8-H ) :   0.9484 B(  6-C ,  9-C ) :   1.0611
B(  9-C , 10-H ) :   0.9451 B(  9-C , 11-H ) :   0.9629 B(  9-C , 12-C ) :   1.0871
B( 12-C , 13-H ) :   0.9741 B( 12-C , 14-H ) :   0.9718 B( 12-C , 15-H ) :   0.9712
B( 16-S , 17-C ) :   1.1552 B( 16-S , 20-C ) :   1.1261 B( 17-C , 18-C ) :   1.6009
B( 17-C , 20-C ) :   0.1042 B( 17-C , 33-H ) :   0.9666 B( 18-C , 19-C ) :   1.2397
B( 18-C , 21-H ) :   0.9905 B( 19-C , 20-C ) :   1.5975 B( 19-C , 22-C ) :   1.0209
B( 22-C , 23-H ) :   0.9240 B( 22-C , 24-H ) :   0.9400 B( 22-C , 25-C ) :   1.0617
B( 25-C , 26-H ) :   0.9550 B( 25-C , 27-H ) :   0.9475 B( 25-C , 28-C ) :   1.0838
B( 28-C , 29-H ) :   0.9720 B( 28-C , 30-H ) :   0.9711 B( 28-C , 31-H ) :   0.9741

Dispersion correction           -0.014055918
FINAL SINGLE POINT ENERGY     -1339.875655120758

DIPOLE MOMENT
-------------
                                X             Y             Z
Electronic contribution:    -29.63933      11.52842      -0.42330
Nuclear contribution   :     30.36050     -11.85765       0.54990
                        -----------------------------------------
Total Dipole Moment    :      0.72118      -0.32923       0.12660
                        -----------------------------------------
Magnitude (a.u.)       :      0.80282
Magnitude (Debye)      :      2.04060

Rotational constants in cm-1:     0.017729     0.008811     0.006695
Rotational constants in MHz :   531.495698   264.146580   200.709955

                             ****ORCA TERMINATED NORMALLY****
TOTAL RUN TIME: 0 days 0 hours 0 minutes 30 seconds 398 msec
