                         Program Version 4.2.1 -  RELEASE  -
|  1> ! wB97X-D3 SP def2-SVP
|  2> %pal
|  3> nprocs 16
|  4> end
|  5>
|  6> * xyz 0 1
|  7> S 	 -10.1927 	 50.096 	 30.5046
|  8> C 	 -9.75379 	 48.6268 	 29.5814
|  9> C 	 -8.42066 	 48.6331 	 29.1696
| 10> C 	 -7.72263 	 49.6812 	 29.8079
| 11> C 	 -8.49555 	 50.5925 	 30.5576
| 12> H 	 -6.65434 	 49.7797 	 29.8387
| 13> C 	 -7.74959 	 47.5592 	 28.4526
| 14> H 	 -8.1933 	 46.5245 	 28.7614
| 15> H 	 -6.818 	 47.3647 	 28.9701
| 16> C 	 -7.62588 	 47.7893 	 26.9519
| 17> H 	 -8.61614 	 47.8283 	 26.5032
| 18> H 	 -7.15487 	 48.7005 	 26.8627
| 19> C 	 -6.64183 	 46.7129 	 26.4449
| 20> H 	 -5.63055 	 47.0755 	 26.7969
| 21> H 	 -6.87764 	 45.6919 	 26.8723
| 22> H 	 -6.60833 	 46.6296 	 25.3387
| 23> S 	 -8.44126 	 53.2813 	 30.919
| 24> C 	 -7.33259 	 54.0597 	 32.0237
| 25> C 	 -6.75832 	 53.0992 	 32.8024
| 26> C 	 -7.04275 	 51.7938 	 32.395
| 27> C 	 -7.8929 	 51.7065 	 31.2948
| 28> H 	 -6.1208 	 53.3699 	 33.6351
| 29> C 	 -6.47859 	 50.6968 	 33.087
| 30> H 	 -5.80856 	 51.0015 	 33.8926
| 31> H 	 -5.83904 	 50.1386 	 32.3957
| 32> C 	 -7.57308 	 49.7456 	 33.828
| 33> H 	 -6.94892 	 49.0472 	 34.4695
| 34> H 	 -8.12379 	 49.2136 	 33.0719
| 35> C 	 -8.61247 	 50.5048 	 34.626
| 36> H 	 -9.27347 	 49.8363 	 35.2053
| 37> H 	 -9.3014 	 51.0345 	 33.9932
| 38> H 	 -8.28364 	 51.2013 	 35.3734
| 39> H 	 -10.5097 	 48.0086 	 29.0861
| 40> H 	 -7.39689 	 55.1322 	 32.213
| 41> *
| 42>
| 43>                          ****END OF INPUT****

CARTESIAN COORDINATES (ANGSTROEM)
---------------------------------
  S    -10.192700   50.096000   30.504600
  C     -9.753790   48.626800   29.581400
  C     -8.420660   48.633100   29.169600
  C     -7.722630   49.681200   29.807900
  C     -8.495550   50.592500   30.557600
  H     -6.654340   49.779700   29.838700
  C     -7.749590   47.559200   28.452600
  H     -8.193300   46.524500   28.761400
  H     -6.818000   47.364700   28.970100
  C     -7.625880   47.789300   26.951900
  H     -8.616140   47.828300   26.503200
  H     -7.154870   48.700500   26.862700
  C     -6.641830   46.712900   26.444900
  H     -5.630550   47.075500   26.796900
  H     -6.877640   45.691900   26.872300
  H     -6.608330   46.629600   25.338700
  S     -8.441260   53.281300   30.919000
  C     -7.332590   54.059700   32.023700
  C     -6.758320   53.099200   32.802400
  C     -7.042750   51.793800   32.395000
  C     -7.892900   51.706500   31.294800
  H     -6.120800   53.369900   33.635100
  C     -6.478590   50.696800   33.087000
  H     -5.808560   51.001500   33.892600
  H     -5.839040   50.138600   32.395700
  C     -7.573080   49.745600   33.828000
  H     -6.948920   49.047200   34.469500
  H     -8.123790   49.213600   33.071900
  C     -8.612470   50.504800   34.626000
  H     -9.273470   49.836300   35.205300
  H     -9.301400   51.034500   33.993200
  H     -8.283640   51.201300   35.373400
  H    -10.509700   48.008600   29.086100
  H     -7.396890   55.132200   32.213000

 Total Charge           Charge          ....    0
 Multiplicity           Mult            ....    1
 Number of Electrons    NEL             ....  134
 Basis Dimension        Dim             ....  322

ORBITAL ENERGIES
----------------

  NO   OCC          E(Eh)            E(eV)
   0   2.0000     -88.972579     -2421.0670
   1   2.0000     -88.960029     -2420.7255
   2   2.0000     -10.334832      -281.2251
   3   2.0000     -10.322228      -280.8821
   4   2.0000     -10.319384      -280.8047
   5   2.0000     -10.314725      -280.6779
   6   2.0000     -10.298900      -280.2473
   7   2.0000     -10.293687      -280.1055
   8   2.0000     -10.293248      -280.0935
   9   2.0000     -10.292015      -280.0600
  10   2.0000     -10.291112      -280.0354
  11   2.0000     -10.289442      -279.9899
  12   2.0000     -10.288155      -279.9549
  13   2.0000     -10.284176      -279.8467
  14   2.0000     -10.283881      -279.8386
  15   2.0000     -10.268080      -279.4087
  16   2.0000      -8.085777      -220.0252
  17   2.0000      -8.075864      -219.7554
  18   2.0000      -6.044353      -164.4752
  19   2.0000      -6.040449      -164.3690
  20   2.0000      -6.036610      -164.2645
  21   2.0000      -6.034183      -164.1985
  22   2.0000      -6.030086      -164.0870
  23   2.0000      -6.026895      -164.0002
  24   2.0000      -1.011046       -27.5120
  25   2.0000      -0.985789       -26.8247
  26   2.0000      -0.920719       -25.0540
  27   2.0000      -0.907351       -24.6903
  28   2.0000      -0.871531       -23.7156
  29   2.0000      -0.850420       -23.1411
  30   2.0000      -0.848348       -23.0847
  31   2.0000      -0.813496       -22.1363
  32   2.0000      -0.777226       -21.1494
  33   2.0000      -0.767059       -20.8727
  34   2.0000      -0.709068       -19.2947
  35   2.0000      -0.707872       -19.2622
  36   2.0000      -0.688923       -18.7466
  37   2.0000      -0.667461       -18.1625
  38   2.0000      -0.640273       -17.4227
  39   2.0000      -0.619083       -16.8461
  40   2.0000      -0.594295       -16.1716
  41   2.0000      -0.574795       -15.6410
  42   2.0000      -0.565470       -15.3872
  43   2.0000      -0.553227       -15.0541
  44   2.0000      -0.539572       -14.6825
  45   2.0000      -0.526079       -14.3153
  46   2.0000      -0.516301       -14.0493
  47   2.0000      -0.508326       -13.8323
  48   2.0000      -0.502832       -13.6828
  49   2.0000      -0.500349       -13.6152
  50   2.0000      -0.491496       -13.3743
  51   2.0000      -0.473414       -12.8823
  52   2.0000      -0.472811       -12.8658
  53   2.0000      -0.460933       -12.5426
  54   2.0000      -0.455860       -12.4046
  55   2.0000      -0.448407       -12.2018
  56   2.0000      -0.446480       -12.1493
  57   2.0000      -0.440348       -11.9825
  58   2.0000      -0.433687       -11.8012
  59   2.0000      -0.426283       -11.5997
  60   2.0000      -0.417829       -11.3697
  61   2.0000      -0.411669       -11.2021
  62   2.0000      -0.405893       -11.0449
  63   2.0000      -0.341283        -9.2868
  64   2.0000      -0.334311        -9.0971
  65   2.0000      -0.323311        -8.7977
  66   2.0000      -0.295517        -8.0414
  67   0.0000       0.029804         0.8110
  68   0.0000       0.056152         1.5280
  69   0.0000       0.112713         3.0671
  70   0.0000       0.116935         3.1820
  71   0.0000       0.128618         3.4999

MULLIKEN ATOMIC CHARGES
-----------------------
   0 S :    0.116673
   1 C :   -0.124767
   2 C :   -0.048353
   3 C :    0.028169
   4 C :   -0.145820
   5 H :    0.006064
   6 C :   -0.032262
   7 H :    0.032932
   8 H :    0.016149
   9 C :    0.009724
  10 H :    0.037070
  11 H :    0.013583
  12 C :   -0.079758
  13 H :    0.040861
  14 H :    0.042358
  15 H :    0.042606
  16 S :    0.095350
  17 C :   -0.095416
  18 C :   -0.037746
  19 C :   -0.018663
  20 C :   -0.176355
  21 H :    0.018576
  22 C :    0.053995
  23 H :    0.010164
  24 H :    0.032243
  25 C :   -0.081731
  26 H :    0.038797
  27 H :    0.043403
  28 C :   -0.036834
  29 H :    0.027942
  30 H :    0.028331
  31 H :    0.017566
  32 H :    0.058912
  33 H :    0.066237
Sum of atomic charges:   -0.0000000

LOEWDIN ATOMIC CHARGES
----------------------
   0 S :    0.389227
   1 C :   -0.186407
   2 C :   -0.067486
   3 C :   -0.054118
   4 C :   -0.196611
   5 H :    0.026651
   6 C :   -0.046002
   7 H :    0.039810
   8 H :    0.029827
   9 C :   -0.028572
  10 H :    0.026800
  11 H :    0.017694
  12 C :   -0.068761
  13 H :    0.032948
  14 H :    0.028686
  15 H :    0.025296
  16 S :    0.427406
  17 C :   -0.185824
  18 C :   -0.071045
  19 C :   -0.067864
  20 C :   -0.214848
  21 H :    0.033495
  22 C :   -0.037359
  23 H :    0.028131
  24 H :    0.033918
  25 C :   -0.030292
  26 H :    0.028004
  27 H :    0.022926
  28 C :   -0.071393
  29 H :    0.031025
  30 H :    0.024000
  31 H :    0.018734
  32 H :    0.029890
  33 H :    0.032115

  Mayer bond orders larger than 0.100000
B(  0-S ,  1-C ) :   1.1364 B(  0-S ,  4-C ) :   1.1415 B(  1-C ,  2-C ) :   1.5960
B(  1-C ,  4-C ) :   0.1073 B(  1-C , 32-H ) :   0.9578 B(  2-C ,  3-C ) :   1.2561
B(  2-C ,  6-C ) :   1.0226 B(  3-C ,  4-C ) :   1.5590 B(  3-C ,  5-H ) :   0.9931
B(  4-C , 20-C ) :   1.0490 B(  6-C ,  7-H ) :   0.9419 B(  6-C ,  8-H ) :   0.9468
B(  6-C ,  9-C ) :   1.0402 B(  9-C , 10-H ) :   0.9568 B(  9-C , 11-H ) :   0.9558
B(  9-C , 12-C ) :   1.0660 B( 12-C , 13-H ) :   0.9771 B( 12-C , 14-H ) :   0.9742
B( 12-C , 15-H ) :   0.9754 B( 16-S , 17-C ) :   1.1789 B( 16-S , 20-C ) :   1.1591
B( 17-C , 18-C ) :   1.5557 B( 17-C , 20-C ) :   0.1069 B( 17-C , 33-H ) :   0.9675
B( 18-C , 19-C ) :   1.2876 B( 18-C , 21-H ) :   0.9933 B( 19-C , 20-C ) :   1.5232
B( 19-C , 22-C ) :   1.0810 B( 22-C , 23-H ) :   0.9299 B( 22-C , 24-H ) :   0.9282
B( 22-C , 25-C ) :   1.0463 B( 25-C , 26-H ) :   0.9622 B( 25-C , 27-H ) :   0.9559
B( 25-C , 28-C ) :   1.0809 B( 28-C , 29-H ) :   0.9703 B( 28-C , 30-H ) :   0.9661
B( 28-C , 31-H ) :   0.9770

Dispersion correction           -0.015359380
FINAL SINGLE POINT ENERGY     -1339.865439321615

DIPOLE MOMENT
-------------
                                X             Y             Z
Electronic contribution:    -10.76341      18.81316       0.50763
Nuclear contribution   :     11.16939     -19.15640      -0.44685
                        -----------------------------------------
Total Dipole Moment    :      0.40599      -0.34324       0.06078
                        -----------------------------------------
Magnitude (a.u.)       :      0.53510
Magnitude (Debye)      :      1.36012

Rotational constants in cm-1:     0.022163     0.007652     0.007324
Rotational constants in MHz :   664.436809   229.403671   219.555048

                             ****ORCA TERMINATED NORMALLY****
TOTAL RUN TIME: 0 days 0 hours 0 minutes 35 seconds 425 msec
