                         Program Version 4.2.1 -  RELEASE  -
|  1> ! wB97X-D3 SP def2-SVP
|  2> %pal
|  3> nprocs 16
|  4> end
|  5>
|  6> * xyz 0 1
|  7> S 	 12.1745 	 -7.45497 	 86.2874
|  8> C 	 13.197 	 -6.7021 	 87.5404
|  9> C 	 12.7423 	 -7.18 	 88.7732
| 10> C 	 11.3749 	 -7.65798 	 88.6385
| 11> C 	 10.8872 	 -7.78413 	 87.3569
| 12> H 	 10.6203 	 -7.84771 	 89.5134
| 13> C 	 13.4213 	 -6.91706 	 90.1323
| 14> H 	 14.3812 	 -6.45427 	 89.938
| 15> H 	 13.638 	 -7.88196 	 90.5358
| 16> C 	 12.6803 	 -5.9854 	 91.0911
| 17> H 	 12.8282 	 -4.93474 	 90.8751
| 18> H 	 11.5662 	 -6.19095 	 90.9096
| 19> C 	 12.9623 	 -6.21015 	 92.559
| 20> H 	 12.477 	 -5.5848 	 93.2987
| 21> H 	 12.9075 	 -7.2454 	 92.8643
| 22> H 	 14.0178 	 -5.98607 	 92.6264
| 23> S 	 9.52192 	 -10.1453 	 86.8757
| 24> C 	 7.82022 	 -10.0465 	 86.4716
| 25> C 	 7.30653 	 -8.78038 	 86.6523
| 26> C 	 8.33404 	 -7.81741 	 86.9563
| 27> C 	 9.58837 	 -8.39105 	 86.9785
| 28> H 	 6.32992 	 -8.47043 	 86.4677
| 29> C 	 8.02024 	 -6.38367 	 87.1212
| 30> H 	 8.07303 	 -5.97124 	 86.1184
| 31> H 	 8.83243 	 -6.06211 	 87.8202
| 32> C 	 6.573 	 -6.097 	 87.7496
| 33> H 	 6.37684 	 -6.70995 	 88.6419
| 34> H 	 5.91095 	 -6.45976 	 87.0274
| 35> C 	 6.36455 	 -4.72221 	 88.1784
| 36> H 	 6.60178 	 -4.04462 	 87.3213
| 37> H 	 7.02573 	 -4.39642 	 88.9966
| 38> H 	 5.35648 	 -4.54917 	 88.5503
| 39> H 	 14.2903 	 -6.51752 	 87.3627
| 40> H 	 7.26332 	 -10.8288 	 86.0496
| 41> *
| 42>
| 43>                          ****END OF INPUT****

CARTESIAN COORDINATES (ANGSTROEM)
---------------------------------
  S     12.174500   -7.454970   86.287400
  C     13.197000   -6.702100   87.540400
  C     12.742300   -7.180000   88.773200
  C     11.374900   -7.657980   88.638500
  C     10.887200   -7.784130   87.356900
  H     10.620300   -7.847710   89.513400
  C     13.421300   -6.917060   90.132300
  H     14.381200   -6.454270   89.938000
  H     13.638000   -7.881960   90.535800
  C     12.680300   -5.985400   91.091100
  H     12.828200   -4.934740   90.875100
  H     11.566200   -6.190950   90.909600
  C     12.962300   -6.210150   92.559000
  H     12.477000   -5.584800   93.298700
  H     12.907500   -7.245400   92.864300
  H     14.017800   -5.986070   92.626400
  S      9.521920  -10.145300   86.875700
  C      7.820220  -10.046500   86.471600
  C      7.306530   -8.780380   86.652300
  C      8.334040   -7.817410   86.956300
  C      9.588370   -8.391050   86.978500
  H      6.329920   -8.470430   86.467700
  C      8.020240   -6.383670   87.121200
  H      8.073030   -5.971240   86.118400
  H      8.832430   -6.062110   87.820200
  C      6.573000   -6.097000   87.749600
  H      6.376840   -6.709950   88.641900
  H      5.910950   -6.459760   87.027400
  C      6.364550   -4.722210   88.178400
  H      6.601780   -4.044620   87.321300
  H      7.025730   -4.396420   88.996600
  H      5.356480   -4.549170   88.550300
  H     14.290300   -6.517520   87.362700
  H      7.263320  -10.828800   86.049600

 Total Charge           Charge          ....    0
 Multiplicity           Mult            ....    1
 Number of Electrons    NEL             ....  134
 Basis Dimension        Dim             ....  322

ORBITAL ENERGIES
----------------

  NO   OCC          E(Eh)            E(eV)
   0   2.0000     -88.964928     -2420.8588
   1   2.0000     -88.960669     -2420.7429
   2   2.0000     -10.326931      -281.0101
   3   2.0000     -10.323594      -280.9193
   4   2.0000     -10.320463      -280.8341
   5   2.0000     -10.315034      -280.6863
   6   2.0000     -10.310347      -280.5588
   7   2.0000     -10.301408      -280.3156
   8   2.0000     -10.299032      -280.2509
   9   2.0000     -10.294214      -280.1198
  10   2.0000     -10.292939      -280.0851
  11   2.0000     -10.290147      -280.0091
  12   2.0000     -10.288532      -279.9652
  13   2.0000     -10.284494      -279.8553
  14   2.0000     -10.277900      -279.6759
  15   2.0000     -10.274719      -279.5893
  16   2.0000      -8.079602      -219.8572
  17   2.0000      -8.075929      -219.7572
  18   2.0000      -6.038192      -164.3076
  19   2.0000      -6.034446      -164.2056
  20   2.0000      -6.034257      -164.2005
  21   2.0000      -6.030396      -164.0954
  22   2.0000      -6.030157      -164.0889
  23   2.0000      -6.026571      -163.9913
  24   2.0000      -1.006179       -27.3795
  25   2.0000      -0.984423       -26.7875
  26   2.0000      -0.913973       -24.8705
  27   2.0000      -0.912815       -24.8390
  28   2.0000      -0.869538       -23.6613
  29   2.0000      -0.859536       -23.3892
  30   2.0000      -0.842008       -22.9122
  31   2.0000      -0.812474       -22.1085
  32   2.0000      -0.783956       -21.3325
  33   2.0000      -0.770269       -20.9601
  34   2.0000      -0.707974       -19.2650
  35   2.0000      -0.702494       -19.1158
  36   2.0000      -0.691597       -18.8193
  37   2.0000      -0.659016       -17.9327
  38   2.0000      -0.636262       -17.3136
  39   2.0000      -0.610908       -16.6237
  40   2.0000      -0.595727       -16.2105
  41   2.0000      -0.574573       -15.6349
  42   2.0000      -0.566211       -15.4074
  43   2.0000      -0.559465       -15.2238
  44   2.0000      -0.531110       -14.4522
  45   2.0000      -0.527667       -14.3585
  46   2.0000      -0.524998       -14.2859
  47   2.0000      -0.513189       -13.9646
  48   2.0000      -0.511300       -13.9132
  49   2.0000      -0.495745       -13.4899
  50   2.0000      -0.489248       -13.3131
  51   2.0000      -0.482659       -13.1338
  52   2.0000      -0.475104       -12.9282
  53   2.0000      -0.465883       -12.6773
  54   2.0000      -0.457592       -12.4517
  55   2.0000      -0.454977       -12.3805
  56   2.0000      -0.445284       -12.1168
  57   2.0000      -0.441106       -12.0031
  58   2.0000      -0.429695       -11.6926
  59   2.0000      -0.419894       -11.4259
  60   2.0000      -0.414014       -11.2659
  61   2.0000      -0.412200       -11.2165
  62   2.0000      -0.403365       -10.9761
  63   2.0000      -0.333336        -9.0705
  64   2.0000      -0.324888        -8.8406
  65   2.0000      -0.321764        -8.7556
  66   2.0000      -0.313552        -8.5322
  67   0.0000       0.040869         1.1121
  68   0.0000       0.051142         1.3917
  69   0.0000       0.102312         2.7841
  70   0.0000       0.120409         3.2765
  71   0.0000       0.132360         3.6017

MULLIKEN ATOMIC CHARGES
-----------------------
   0 S :    0.096080
   1 C :   -0.119782
   2 C :   -0.127459
   3 C :   -0.005578
   4 C :   -0.184766
   5 H :    0.052298
   6 C :    0.097679
   7 H :    0.012520
   8 H :    0.030041
   9 C :   -0.092399
  10 H :    0.035340
  11 H :    0.032082
  12 C :   -0.035241
  13 H :    0.039648
  14 H :    0.025953
  15 H :    0.014300
  16 S :    0.115473
  17 C :   -0.059787
  18 C :   -0.001593
  19 C :   -0.058747
  20 C :   -0.166686
  21 H :   -0.009338
  22 C :    0.065694
  23 H :    0.052891
  24 H :    0.044083
  25 C :   -0.097246
  26 H :    0.030529
  27 H :    0.021954
  28 C :   -0.020327
  29 H :    0.027808
  30 H :    0.032632
  31 H :    0.033627
  32 H :    0.078751
  33 H :    0.039565
Sum of atomic charges:   -0.0000000

LOEWDIN ATOMIC CHARGES
----------------------
   0 S :    0.408047
   1 C :   -0.203356
   2 C :   -0.057860
   3 C :   -0.082062
   4 C :   -0.217810
   5 H :    0.044685
   6 C :   -0.026797
   7 H :    0.028931
   8 H :    0.030883
   9 C :   -0.043970
  10 H :    0.026222
  11 H :    0.025597
  12 C :   -0.066849
  13 H :    0.027746
  14 H :    0.022660
  15 H :    0.023390
  16 S :    0.402712
  17 C :   -0.167331
  18 C :   -0.062815
  19 C :   -0.050979
  20 C :   -0.207377
  21 H :    0.018906
  22 C :   -0.029972
  23 H :    0.040241
  24 H :    0.039745
  25 C :   -0.041925
  26 H :    0.028566
  27 H :    0.013322
  28 C :   -0.066500
  29 H :    0.028340
  30 H :    0.028765
  31 H :    0.027860
  32 H :    0.039685
  33 H :    0.019299

  Mayer bond orders larger than 0.100000
B(  0-S ,  1-C ) :   1.1339 B(  0-S ,  4-C ) :   1.1633 B(  1-C ,  2-C ) :   1.6118
B(  1-C , 32-H ) :   0.9539 B(  2-C ,  3-C ) :   1.2242 B(  2-C ,  6-C ) :   1.0336
B(  3-C ,  4-C ) :   1.5974 B(  3-C ,  5-H ) :   0.9708 B(  4-C , 20-C ) :   1.0016
B(  6-C ,  7-H ) :   0.9375 B(  6-C ,  8-H ) :   0.9387 B(  6-C ,  9-C ) :   1.0475
B(  9-C , 10-H ) :   0.9572 B(  9-C , 11-H ) :   0.9625 B(  9-C , 12-C ) :   1.0746
B( 12-C , 13-H ) :   0.9737 B( 12-C , 14-H ) :   0.9769 B( 12-C , 15-H ) :   0.9717
B( 16-S , 17-C ) :   1.1552 B( 16-S , 20-C ) :   1.1339 B( 17-C , 18-C ) :   1.6082
B( 17-C , 33-H ) :   0.9698 B( 18-C , 19-C ) :   1.2320 B( 18-C , 21-H ) :   0.9970
B( 19-C , 20-C ) :   1.6334 B( 19-C , 22-C ) :   1.0394 B( 22-C , 23-H ) :   0.9244
B( 22-C , 24-H ) :   0.9312 B( 22-C , 25-C ) :   1.0628 B( 25-C , 26-H ) :   0.9583
B( 25-C , 27-H ) :   0.9449 B( 25-C , 28-C ) :   1.1086 B( 28-C , 29-H ) :   0.9667
B( 28-C , 30-H ) :   0.9707 B( 28-C , 31-H ) :   0.9680

Dispersion correction           -0.013526311
FINAL SINGLE POINT ENERGY     -1339.853955129564

DIPOLE MOMENT
-------------
                                X             Y             Z
Electronic contribution:      5.79865     -18.35853     -20.54029
Nuclear contribution   :     -6.03942      18.60662      21.01202
                        -----------------------------------------
Total Dipole Moment    :     -0.24077       0.24809       0.47174
                        -----------------------------------------
Magnitude (a.u.)       :      0.58486
Magnitude (Debye)      :      1.48659

Rotational constants in cm-1:     0.016065     0.008302     0.006684
Rotational constants in MHz :   481.629511   248.877233   200.393520

                             ****ORCA TERMINATED NORMALLY****
TOTAL RUN TIME: 0 days 0 hours 0 minutes 32 seconds 471 msec
