                         Program Version 4.2.1 -  RELEASE  -
|  1> ! wB97X-D3 SP def2-SVP
|  2> %pal
|  3> nprocs 16
|  4> end
|  5>
|  6> * xyz 0 1
|  7> S 	 -38.2844 	 51.6579 	 106.677
|  8> C 	 -37.523 	 52.4958 	 107.968
|  9> C 	 -37.8397 	 51.9559 	 109.202
| 10> C 	 -38.5634 	 50.7292 	 109.046
| 11> C 	 -38.8359 	 50.4212 	 107.724
| 12> H 	 -38.7441 	 50.0061 	 109.839
| 13> C 	 -37.3823 	 52.5877 	 110.586
| 14> H 	 -36.5732 	 53.3189 	 110.39
| 15> H 	 -36.8743 	 51.8399 	 111.121
| 16> C 	 -38.4752 	 53.1052 	 111.559
| 17> H 	 -39.2349 	 52.3022 	 111.7
| 18> H 	 -38.1152 	 53.2731 	 112.593
| 19> C 	 -39.221 	 54.2914 	 110.965
| 20> H 	 -38.622 	 55.0834 	 110.482
| 21> H 	 -39.8364 	 53.9775 	 110.111
| 22> H 	 -39.9758 	 54.5709 	 111.699
| 23> S 	 -38.8917 	 48.2847 	 105.931
| 24> C 	 -39.9184 	 46.9707 	 106.357
| 25> C 	 -41.034 	 47.4115 	 107.022
| 26> C 	 -40.8141 	 48.6973 	 107.614
| 27> C 	 -39.5855 	 49.2364 	 107.243
| 28> H 	 -41.9588 	 46.7716 	 107.143
| 29> C 	 -41.8362 	 49.457 	 108.465
| 30> H 	 -41.7489 	 50.4819 	 108.173
| 31> H 	 -41.5385 	 49.4572 	 109.5
| 32> C 	 -43.3013 	 48.9167 	 108.458
| 33> H 	 -43.2665 	 47.8753 	 108.81
| 34> H 	 -43.826 	 48.9663 	 107.466
| 35> C 	 -44.2134 	 49.7769 	 109.355
| 36> H 	 -45.1332 	 49.2889 	 109.274
| 37> H 	 -44.2897 	 50.7111 	 108.83
| 38> H 	 -43.878 	 49.8772 	 110.362
| 39> H 	 -36.944 	 53.4112 	 107.822
| 40> H 	 -40.0295 	 46.1031 	 105.677
| 41> *
| 42>
| 43>                          ****END OF INPUT****

CARTESIAN COORDINATES (ANGSTROEM)
---------------------------------
  S    -38.284400   51.657900  106.677000
  C    -37.523000   52.495800  107.968000
  C    -37.839700   51.955900  109.202000
  C    -38.563400   50.729200  109.046000
  C    -38.835900   50.421200  107.724000
  H    -38.744100   50.006100  109.839000
  C    -37.382300   52.587700  110.586000
  H    -36.573200   53.318900  110.390000
  H    -36.874300   51.839900  111.121000
  C    -38.475200   53.105200  111.559000
  H    -39.234900   52.302200  111.700000
  H    -38.115200   53.273100  112.593000
  C    -39.221000   54.291400  110.965000
  H    -38.622000   55.083400  110.482000
  H    -39.836400   53.977500  110.111000
  H    -39.975800   54.570900  111.699000
  S    -38.891700   48.284700  105.931000
  C    -39.918400   46.970700  106.357000
  C    -41.034000   47.411500  107.022000
  C    -40.814100   48.697300  107.614000
  C    -39.585500   49.236400  107.243000
  H    -41.958800   46.771600  107.143000
  C    -41.836200   49.457000  108.465000
  H    -41.748900   50.481900  108.173000
  H    -41.538500   49.457200  109.500000
  C    -43.301300   48.916700  108.458000
  H    -43.266500   47.875300  108.810000
  H    -43.826000   48.966300  107.466000
  C    -44.213400   49.776900  109.355000
  H    -45.133200   49.288900  109.274000
  H    -44.289700   50.711100  108.830000
  H    -43.878000   49.877200  110.362000
  H    -36.944000   53.411200  107.822000
  H    -40.029500   46.103100  105.677000

 Total Charge           Charge          ....    0
 Multiplicity           Mult            ....    1
 Number of Electrons    NEL             ....  134
 Basis Dimension        Dim             ....  322

ORBITAL ENERGIES
----------------

  NO   OCC          E(Eh)            E(eV)
   0   2.0000     -88.967248     -2420.9219
   1   2.0000     -88.961749     -2420.7723
   2   2.0000     -10.328255      -281.0461
   3   2.0000     -10.326188      -280.9899
   4   2.0000     -10.313139      -280.6348
   5   2.0000     -10.312637      -280.6211
   6   2.0000     -10.306638      -280.4579
   7   2.0000     -10.305244      -280.4199
   8   2.0000     -10.298354      -280.2325
   9   2.0000     -10.295933      -280.1666
  10   2.0000     -10.294761      -280.1347
  11   2.0000     -10.293546      -280.1016
  12   2.0000     -10.293540      -280.1015
  13   2.0000     -10.289281      -279.9856
  14   2.0000     -10.275169      -279.6016
  15   2.0000     -10.271009      -279.4884
  16   2.0000      -8.083276      -219.9571
  17   2.0000      -8.077221      -219.7924
  18   2.0000      -6.041642      -164.4014
  19   2.0000      -6.037591      -164.2912
  20   2.0000      -6.035676      -164.2391
  21   2.0000      -6.034131      -164.1971
  22   2.0000      -6.031983      -164.1386
  23   2.0000      -6.027625      -164.0200
  24   2.0000      -1.010692       -27.5023
  25   2.0000      -0.989942       -26.9377
  26   2.0000      -0.907407       -24.6918
  27   2.0000      -0.904920       -24.6241
  28   2.0000      -0.867146       -23.5963
  29   2.0000      -0.853579       -23.2271
  30   2.0000      -0.845458       -23.0061
  31   2.0000      -0.813142       -22.1267
  32   2.0000      -0.784423       -21.3452
  33   2.0000      -0.773537       -21.0490
  34   2.0000      -0.703078       -19.1317
  35   2.0000      -0.698351       -19.0031
  36   2.0000      -0.688762       -18.7422
  37   2.0000      -0.648926       -17.6582
  38   2.0000      -0.638953       -17.3868
  39   2.0000      -0.618223       -16.8227
  40   2.0000      -0.595698       -16.2098
  41   2.0000      -0.573631       -15.6093
  42   2.0000      -0.561711       -15.2849
  43   2.0000      -0.550098       -14.9689
  44   2.0000      -0.537868       -14.6361
  45   2.0000      -0.528970       -14.3940
  46   2.0000      -0.518038       -14.0965
  47   2.0000      -0.515182       -14.0188
  48   2.0000      -0.498942       -13.5769
  49   2.0000      -0.495747       -13.4900
  50   2.0000      -0.485951       -13.2234
  51   2.0000      -0.479900       -13.0588
  52   2.0000      -0.469691       -12.7810
  53   2.0000      -0.462397       -12.5825
  54   2.0000      -0.459077       -12.4921
  55   2.0000      -0.453884       -12.3508
  56   2.0000      -0.447862       -12.1869
  57   2.0000      -0.433763       -11.8033
  58   2.0000      -0.432500       -11.7689
  59   2.0000      -0.427394       -11.6300
  60   2.0000      -0.426821       -11.6144
  61   2.0000      -0.415594       -11.3089
  62   2.0000      -0.409811       -11.1515
  63   2.0000      -0.345194        -9.3932
  64   2.0000      -0.332640        -9.0516
  65   2.0000      -0.325421        -8.8552
  66   2.0000      -0.293089        -7.9754
  67   0.0000       0.027284         0.7424
  68   0.0000       0.066052         1.7974
  69   0.0000       0.107212         2.9174
  70   0.0000       0.126061         3.4303
  71   0.0000       0.134446         3.6585

MULLIKEN ATOMIC CHARGES
-----------------------
   0 S :    0.122546
   1 C :   -0.132989
   2 C :   -0.088688
   3 C :    0.009738
   4 C :   -0.147538
   5 H :    0.021122
   6 C :    0.081539
   7 H :    0.024610
   8 H :    0.014188
   9 C :   -0.083444
  10 H :    0.027478
  11 H :    0.039214
  12 C :   -0.054904
  13 H :    0.035918
  14 H :    0.030697
  15 H :    0.033315
  16 S :    0.104126
  17 C :   -0.076389
  18 C :   -0.088989
  19 C :   -0.024113
  20 C :   -0.176128
  21 H :    0.048288
  22 C :    0.094400
  23 H :    0.026517
  24 H :    0.021016
  25 C :   -0.150687
  26 H :    0.037428
  27 H :    0.040890
  28 C :    0.013067
  29 H :    0.020772
  30 H :    0.027597
  31 H :    0.030505
  32 H :    0.053346
  33 H :    0.065550
Sum of atomic charges:    0.0000000

LOEWDIN ATOMIC CHARGES
----------------------
   0 S :    0.433047
   1 C :   -0.210944
   2 C :   -0.060527
   3 C :   -0.068285
   4 C :   -0.206897
   5 H :    0.033787
   6 C :   -0.027281
   7 H :    0.031080
   8 H :    0.022896
   9 C :   -0.045178
  10 H :    0.028334
  11 H :    0.027441
  12 C :   -0.076197
  13 H :    0.026788
  14 H :    0.029080
  15 H :    0.027415
  16 S :    0.406162
  17 C :   -0.202079
  18 C :   -0.078260
  19 C :   -0.052271
  20 C :   -0.197703
  21 H :    0.042924
  22 C :   -0.031699
  23 H :    0.029280
  24 H :    0.030661
  25 C :   -0.041098
  26 H :    0.020833
  27 H :    0.029337
  28 C :   -0.050710
  29 H :    0.021285
  30 H :    0.026472
  31 H :    0.019643
  32 H :    0.029980
  33 H :    0.032684

  Mayer bond orders larger than 0.100000
B(  0-S ,  1-C ) :   1.1498 B(  0-S ,  4-C ) :   1.1733 B(  1-C ,  2-C ) :   1.6042
B(  1-C , 32-H ) :   0.9669 B(  2-C ,  3-C ) :   1.2512 B(  2-C ,  6-C ) :   1.0069
B(  3-C ,  4-C ) :   1.5696 B(  3-C ,  5-H ) :   0.9961 B(  4-C , 20-C ) :   1.0271
B(  6-C ,  7-H ) :   0.9493 B(  6-C ,  8-H ) :   0.9392 B(  6-C ,  9-C ) :   1.0687
B(  9-C , 10-H ) :   0.9525 B(  9-C , 11-H ) :   0.9588 B(  9-C , 12-C ) :   1.0722
B( 12-C , 13-H ) :   0.9777 B( 12-C , 14-H ) :   0.9711 B( 12-C , 15-H ) :   0.9725
B( 16-S , 17-C ) :   1.1667 B( 16-S , 20-C ) :   1.1385 B( 17-C , 18-C ) :   1.6007
B( 17-C , 20-C ) :   0.1034 B( 17-C , 33-H ) :   0.9530 B( 18-C , 19-C ) :   1.2527
B( 18-C , 21-H ) :   0.9763 B( 19-C , 20-C ) :   1.5886 B( 19-C , 22-C ) :   1.0228
B( 22-C , 23-H ) :   0.9353 B( 22-C , 24-H ) :   0.9259 B( 22-C , 25-C ) :   1.0753
B( 25-C , 26-H ) :   0.9481 B( 25-C , 27-H ) :   0.9590 B( 25-C , 28-C ) :   1.0832
B( 28-C , 29-H ) :   0.9723 B( 28-C , 30-H ) :   0.9756 B( 28-C , 31-H ) :   0.9759

Dispersion correction           -0.013916703
FINAL SINGLE POINT ENERGY     -1339.867866652686

DIPOLE MOMENT
-------------
                                X             Y             Z
Electronic contribution:     16.07888     -10.22181     -22.68967
Nuclear contribution   :    -16.55887      10.31172      23.18128
                        -----------------------------------------
Total Dipole Moment    :     -0.47998       0.08991       0.49161
                        -----------------------------------------
Magnitude (a.u.)       :      0.69292
Magnitude (Debye)      :      1.76127

Rotational constants in cm-1:     0.016776     0.009033     0.006499
Rotational constants in MHz :   502.934792   270.794145   194.821256

                             ****ORCA TERMINATED NORMALLY****
TOTAL RUN TIME: 0 days 0 hours 0 minutes 29 seconds 445 msec
