                         Program Version 4.2.1 -  RELEASE  -
|  1> ! wB97X-D3 SP def2-SVP
|  2> %pal
|  3> nprocs 16
|  4> end
|  5>
|  6> * xyz 0 1
|  7> S 	 -45.2217 	 18.0021 	 77.7291
|  8> C 	 -44.2657 	 19.4696 	 77.7144
|  9> C 	 -43.0075 	 19.3042 	 77.1606
| 10> C 	 -42.8794 	 17.8898 	 76.7379
| 11> C 	 -43.9509 	 17.0654 	 76.9273
| 12> H 	 -42.0038 	 17.5045 	 76.3326
| 13> C 	 -41.9186 	 20.3401 	 77.1042
| 14> H 	 -42.4709 	 21.1411 	 77.6057
| 15> H 	 -41.7291 	 20.6131 	 76.1367
| 16> C 	 -40.6157 	 20.0584 	 77.8181
| 17> H 	 -40.7883 	 19.8864 	 78.8099
| 18> H 	 -40.1464 	 19.2312 	 77.3787
| 19> C 	 -39.6714 	 21.2722 	 77.8419
| 20> H 	 -40.1718 	 22.1274 	 78.2735
| 21> H 	 -38.6444 	 21.1476 	 78.24
| 22> H 	 -39.6702 	 21.6625 	 76.8168
| 23> S 	 -45.5062 	 15.1182 	 75.8238
| 24> C 	 -45.0675 	 13.4416 	 75.7704
| 25> C 	 -43.7216 	 13.3422 	 76.2135
| 26> C 	 -43.1724 	 14.608 	 76.72
| 27> C 	 -44.0636 	 15.6859 	 76.629
| 28> H 	 -43.1734 	 12.3939 	 76.1735
| 29> C 	 -41.725 	 14.6906 	 77.1951
| 30> H 	 -41.5244 	 13.9939 	 77.9759
| 31> H 	 -41.6846 	 15.5727 	 77.7608
| 32> C 	 -40.6924 	 14.5331 	 76.1006
| 33> H 	 -41.036 	 15.2016 	 75.2942
| 34> H 	 -40.7574 	 13.5427 	 75.7329
| 35> C 	 -39.26 	 14.8861 	 76.6185
| 36> H 	 -39.0171 	 14.4119 	 77.5706
| 37> H 	 -39.2311 	 15.897 	 76.9075
| 38> H 	 -38.5226 	 14.6951 	 75.8514
| 39> H 	 -44.5068 	 20.4339 	 78.181
| 40> H 	 -45.7083 	 12.7278 	 75.2555
| 41> *
| 42>
| 43>                          ****END OF INPUT****

CARTESIAN COORDINATES (ANGSTROEM)
---------------------------------
  S    -45.221700   18.002100   77.729100
  C    -44.265700   19.469600   77.714400
  C    -43.007500   19.304200   77.160600
  C    -42.879400   17.889800   76.737900
  C    -43.950900   17.065400   76.927300
  H    -42.003800   17.504500   76.332600
  C    -41.918600   20.340100   77.104200
  H    -42.470900   21.141100   77.605700
  H    -41.729100   20.613100   76.136700
  C    -40.615700   20.058400   77.818100
  H    -40.788300   19.886400   78.809900
  H    -40.146400   19.231200   77.378700
  C    -39.671400   21.272200   77.841900
  H    -40.171800   22.127400   78.273500
  H    -38.644400   21.147600   78.240000
  H    -39.670200   21.662500   76.816800
  S    -45.506200   15.118200   75.823800
  C    -45.067500   13.441600   75.770400
  C    -43.721600   13.342200   76.213500
  C    -43.172400   14.608000   76.720000
  C    -44.063600   15.685900   76.629000
  H    -43.173400   12.393900   76.173500
  C    -41.725000   14.690600   77.195100
  H    -41.524400   13.993900   77.975900
  H    -41.684600   15.572700   77.760800
  C    -40.692400   14.533100   76.100600
  H    -41.036000   15.201600   75.294200
  H    -40.757400   13.542700   75.732900
  C    -39.260000   14.886100   76.618500
  H    -39.017100   14.411900   77.570600
  H    -39.231100   15.897000   76.907500
  H    -38.522600   14.695100   75.851400
  H    -44.506800   20.433900   78.181000
  H    -45.708300   12.727800   75.255500

 Total Charge           Charge          ....    0
 Multiplicity           Mult            ....    1
 Number of Electrons    NEL             ....  134
 Basis Dimension        Dim             ....  322

ORBITAL ENERGIES
----------------

  NO   OCC          E(Eh)            E(eV)
   0   2.0000     -88.966716     -2420.9074
   1   2.0000     -88.962639     -2420.7965
   2   2.0000     -10.329803      -281.0882
   3   2.0000     -10.328627      -281.0562
   4   2.0000     -10.324563      -280.9456
   5   2.0000     -10.318683      -280.7856
   6   2.0000     -10.309536      -280.5367
   7   2.0000     -10.306012      -280.4408
   8   2.0000     -10.304303      -280.3943
   9   2.0000     -10.292159      -280.0639
  10   2.0000     -10.289337      -279.9871
  11   2.0000     -10.286666      -279.9144
  12   2.0000     -10.281212      -279.7660
  13   2.0000     -10.280845      -279.7560
  14   2.0000     -10.278138      -279.6824
  15   2.0000     -10.278013      -279.6790
  16   2.0000      -8.081057      -219.8967
  17   2.0000      -8.077878      -219.8102
  18   2.0000      -6.039811      -164.3516
  19   2.0000      -6.036359      -164.2577
  20   2.0000      -6.035624      -164.2377
  21   2.0000      -6.032116      -164.1422
  22   2.0000      -6.031545      -164.1267
  23   2.0000      -6.028814      -164.0524
  24   2.0000      -1.006310       -27.3831
  25   2.0000      -0.980709       -26.6865
  26   2.0000      -0.922783       -25.1102
  27   2.0000      -0.912906       -24.8414
  28   2.0000      -0.877095       -23.8670
  29   2.0000      -0.850491       -23.1430
  30   2.0000      -0.842254       -22.9189
  31   2.0000      -0.816835       -22.2272
  32   2.0000      -0.784118       -21.3369
  33   2.0000      -0.775363       -21.0987
  34   2.0000      -0.718900       -19.5623
  35   2.0000      -0.710536       -19.3347
  36   2.0000      -0.699658       -19.0387
  37   2.0000      -0.664460       -18.0809
  38   2.0000      -0.641252       -17.4493
  39   2.0000      -0.622191       -16.9307
  40   2.0000      -0.597088       -16.2476
  41   2.0000      -0.588450       -16.0125
  42   2.0000      -0.566607       -15.4182
  43   2.0000      -0.562873       -15.3166
  44   2.0000      -0.535726       -14.5778
  45   2.0000      -0.533469       -14.5164
  46   2.0000      -0.519725       -14.1424
  47   2.0000      -0.514416       -13.9980
  48   2.0000      -0.505767       -13.7626
  49   2.0000      -0.503381       -13.6977
  50   2.0000      -0.494337       -13.4516
  51   2.0000      -0.485840       -13.2204
  52   2.0000      -0.469261       -12.7693
  53   2.0000      -0.464962       -12.6523
  54   2.0000      -0.460178       -12.5221
  55   2.0000      -0.451820       -12.2946
  56   2.0000      -0.447114       -12.1666
  57   2.0000      -0.442275       -12.0349
  58   2.0000      -0.435116       -11.8401
  59   2.0000      -0.425423       -11.5763
  60   2.0000      -0.421990       -11.4829
  61   2.0000      -0.418511       -11.3883
  62   2.0000      -0.412586       -11.2270
  63   2.0000      -0.355648        -9.6777
  64   2.0000      -0.328780        -8.9466
  65   2.0000      -0.325211        -8.8495
  66   2.0000      -0.293446        -7.9851
  67   0.0000       0.026875         0.7313
  68   0.0000       0.072622         1.9762
  69   0.0000       0.112553         3.0627
  70   0.0000       0.116871         3.1802
  71   0.0000       0.125809         3.4234

MULLIKEN ATOMIC CHARGES
-----------------------
   0 S :    0.114602
   1 C :   -0.117805
   2 C :   -0.121498
   3 C :    0.040774
   4 C :   -0.130653
   5 H :   -0.029024
   6 C :    0.106653
   7 H :    0.002593
   8 H :    0.016199
   9 C :   -0.012346
  10 H :    0.011172
  11 H :    0.021854
  12 C :   -0.050898
  13 H :    0.015020
  14 H :    0.056740
  15 H :    0.009106
  16 S :    0.095928
  17 C :   -0.103622
  18 C :   -0.038552
  19 C :   -0.069189
  20 C :   -0.131120
  21 H :    0.031829
  22 C :    0.082063
  23 H :    0.009845
  24 H :   -0.002375
  25 C :   -0.060238
  26 H :    0.035112
  27 H :    0.021112
  28 C :   -0.010475
  29 H :    0.024513
  30 H :    0.011043
  31 H :    0.042541
  32 H :    0.053141
  33 H :    0.075953
Sum of atomic charges:   -0.0000000

LOEWDIN ATOMIC CHARGES
----------------------
   0 S :    0.395274
   1 C :   -0.197767
   2 C :   -0.057755
   3 C :   -0.051440
   4 C :   -0.190467
   5 H :    0.014069
   6 C :   -0.021572
   7 H :    0.033565
   8 H :    0.020361
   9 C :   -0.025827
  10 H :    0.015331
  11 H :    0.017368
  12 C :   -0.068590
  13 H :    0.023682
  14 H :    0.033446
  15 H :    0.023549
  16 S :    0.417410
  17 C :   -0.193408
  18 C :   -0.073187
  19 C :   -0.048984
  20 C :   -0.204820
  21 H :    0.032376
  22 C :   -0.035186
  23 H :    0.026326
  24 H :    0.020744
  25 C :   -0.031373
  26 H :    0.026483
  27 H :    0.018147
  28 C :   -0.058758
  29 H :    0.027443
  30 H :    0.018747
  31 H :    0.027488
  32 H :    0.033351
  33 H :    0.033975

  Mayer bond orders larger than 0.100000
B(  0-S ,  1-C ) :   1.1314 B(  0-S ,  4-C ) :   1.1155 B(  1-C ,  2-C ) :   1.6520
B(  1-C , 32-H ) :   0.9524 B(  2-C ,  3-C ) :   1.1997 B(  2-C ,  6-C ) :   1.0267
B(  3-C ,  4-C ) :   1.6033 B(  3-C ,  5-H ) :   1.0064 B(  4-C , 20-C ) :   1.0713
B(  6-C ,  7-H ) :   0.9321 B(  6-C ,  8-H ) :   0.9262 B(  6-C ,  9-C ) :   1.0734
B(  9-C , 10-H ) :   0.9534 B(  9-C , 11-H ) :   0.9524 B(  9-C , 12-C ) :   1.0852
B( 12-C , 13-H ) :   0.9706 B( 12-C , 14-H ) :   0.9742 B( 12-C , 15-H ) :   0.9694
B( 16-S , 17-C ) :   1.1761 B( 16-S , 20-C ) :   1.1462 B( 17-C , 18-C ) :   1.5517
B( 17-C , 20-C ) :   0.1048 B( 17-C , 33-H ) :   0.9717 B( 18-C , 19-C ) :   1.2578
B( 18-C , 21-H ) :   0.9892 B( 19-C , 20-C ) :   1.5600 B( 19-C , 22-C ) :   1.0527
B( 22-C , 23-H ) :   0.9226 B( 22-C , 24-H ) :   0.9310 B( 22-C , 25-C ) :   1.0535
B( 25-C , 26-H ) :   0.9572 B( 25-C , 27-H ) :   0.9532 B( 25-C , 28-C ) :   1.0777
B( 28-C , 29-H ) :   0.9715 B( 28-C , 30-H ) :   0.9740 B( 28-C , 31-H ) :   0.9754

Dispersion correction           -0.014027893
FINAL SINGLE POINT ENERGY     -1339.865843898193

DIPOLE MOMENT
-------------
                                X             Y             Z
Electronic contribution:    -31.98198      -8.37833      -2.40539
Nuclear contribution   :     32.78548       8.44429       2.40417
                        -----------------------------------------
Total Dipole Moment    :      0.80349       0.06596      -0.00121
                        -----------------------------------------
Magnitude (a.u.)       :      0.80620
Magnitude (Debye)      :      2.04919

Rotational constants in cm-1:     0.017566     0.009165     0.006274
Rotational constants in MHz :   526.616278   274.755118   188.104486

                             ****ORCA TERMINATED NORMALLY****
TOTAL RUN TIME: 0 days 0 hours 0 minutes 28 seconds 866 msec
