                         Program Version 4.2.1 -  RELEASE  -
|  1> ! wB97X-D3 SP def2-SVP
|  2> %pal
|  3> nprocs 16
|  4> end
|  5>
|  6> * xyz 0 1
|  7> S 	 46.4876 	 6.35673 	 101.862
|  8> C 	 46.2986 	 7.83879 	 102.659
|  9> C 	 47.0845 	 8.84376 	 102.284
| 10> C 	 47.7295 	 8.48687 	 101.024
| 11> C 	 47.1398 	 7.33838 	 100.539
| 12> H 	 48.35 	 9.21008 	 100.535
| 13> C 	 47.2171 	 10.1829 	 102.827
| 14> H 	 46.1948 	 10.6002 	 103.134
| 15> H 	 47.5346 	 10.8619 	 102.082
| 16> C 	 48.3022 	 10.3412 	 103.907
| 17> H 	 47.952 	 9.91066 	 104.854
| 18> H 	 49.2442 	 9.94338 	 103.563
| 19> C 	 48.3422 	 11.8084 	 104.384
| 20> H 	 47.5099 	 12.2073 	 104.975
| 21> H 	 49.2428 	 12.038 	 104.882
| 22> H 	 48.3697 	 12.4604 	 103.529
| 23> S 	 48.2208 	 5.61901 	 98.753
| 24> C 	 47.8934 	 5.72133 	 97.0903
| 25> C 	 47.1838 	 6.89787 	 96.8182
| 26> C 	 46.9491 	 7.6642 	 97.9894
| 27> C 	 47.2112 	 6.94116 	 99.1603
| 28> H 	 46.8722 	 7.20993 	 95.7751
| 29> C 	 46.3539 	 9.00763 	 97.8574
| 30> H 	 46.7241 	 9.45889 	 96.9824
| 31> H 	 46.692 	 9.63113 	 98.6549
| 32> C 	 44.8294 	 9.15475 	 97.9602
| 33> H 	 44.3466 	 8.65435 	 97.158
| 34> H 	 44.4235 	 10.134 	 97.621
| 35> C 	 44.1386 	 8.67996 	 99.2811
| 36> H 	 44.3152 	 7.67648 	 99.5411
| 37> H 	 43.093 	 8.87783 	 99.142
| 38> H 	 44.5343 	 9.35611 	 99.9825
| 39> H 	 45.6527 	 7.96223 	 103.579
| 40> H 	 47.913 	 4.93992 	 96.3633
| 41> *
| 42>
| 43>                          ****END OF INPUT****

CARTESIAN COORDINATES (ANGSTROEM)
---------------------------------
  S     46.487600    6.356730  101.862000
  C     46.298600    7.838790  102.659000
  C     47.084500    8.843760  102.284000
  C     47.729500    8.486870  101.024000
  C     47.139800    7.338380  100.539000
  H     48.350000    9.210080  100.535000
  C     47.217100   10.182900  102.827000
  H     46.194800   10.600200  103.134000
  H     47.534600   10.861900  102.082000
  C     48.302200   10.341200  103.907000
  H     47.952000    9.910660  104.854000
  H     49.244200    9.943380  103.563000
  C     48.342200   11.808400  104.384000
  H     47.509900   12.207300  104.975000
  H     49.242800   12.038000  104.882000
  H     48.369700   12.460400  103.529000
  S     48.220800    5.619010   98.753000
  C     47.893400    5.721330   97.090300
  C     47.183800    6.897870   96.818200
  C     46.949100    7.664200   97.989400
  C     47.211200    6.941160   99.160300
  H     46.872200    7.209930   95.775100
  C     46.353900    9.007630   97.857400
  H     46.724100    9.458890   96.982400
  H     46.692000    9.631130   98.654900
  C     44.829400    9.154750   97.960200
  H     44.346600    8.654350   97.158000
  H     44.423500   10.134000   97.621000
  C     44.138600    8.679960   99.281100
  H     44.315200    7.676480   99.541100
  H     43.093000    8.877830   99.142000
  H     44.534300    9.356110   99.982500
  H     45.652700    7.962230  103.579000
  H     47.913000    4.939920   96.363300

 Total Charge           Charge          ....    0
 Multiplicity           Mult            ....    1
 Number of Electrons    NEL             ....  134
 Basis Dimension        Dim             ....  322

ORBITAL ENERGIES
----------------

  NO   OCC          E(Eh)            E(eV)
   0   2.0000     -88.965554     -2420.8758
   1   2.0000     -88.961120     -2420.7552
   2   2.0000     -10.327444      -281.0240
   3   2.0000     -10.318687      -280.7857
   4   2.0000     -10.308728      -280.5147
   5   2.0000     -10.305808      -280.4353
   6   2.0000     -10.298366      -280.2328
   7   2.0000     -10.296100      -280.1711
   8   2.0000     -10.294875      -280.1378
   9   2.0000     -10.291364      -280.0422
  10   2.0000     -10.289869      -280.0016
  11   2.0000     -10.289636      -279.9952
  12   2.0000     -10.279545      -279.7206
  13   2.0000     -10.279261      -279.7129
  14   2.0000     -10.274038      -279.5708
  15   2.0000     -10.262978      -279.2698
  16   2.0000      -8.081566      -219.9106
  17   2.0000      -8.077489      -219.7996
  18   2.0000      -6.039986      -164.3564
  19   2.0000      -6.036691      -164.2667
  20   2.0000      -6.035929      -164.2460
  21   2.0000      -6.031660      -164.1298
  22   2.0000      -6.031524      -164.1261
  23   2.0000      -6.028340      -164.0395
  24   2.0000      -1.016918       -27.6718
  25   2.0000      -0.995263       -27.0825
  26   2.0000      -0.919330       -25.0162
  27   2.0000      -0.909079       -24.7373
  28   2.0000      -0.872279       -23.7359
  29   2.0000      -0.857553       -23.3352
  30   2.0000      -0.847723       -23.0677
  31   2.0000      -0.810878       -22.0651
  32   2.0000      -0.785699       -21.3800
  33   2.0000      -0.774430       -21.0733
  34   2.0000      -0.708157       -19.2699
  35   2.0000      -0.706014       -19.2116
  36   2.0000      -0.695764       -18.9327
  37   2.0000      -0.660633       -17.9767
  38   2.0000      -0.635512       -17.2932
  39   2.0000      -0.623983       -16.9794
  40   2.0000      -0.597149       -16.2493
  41   2.0000      -0.577262       -15.7081
  42   2.0000      -0.562617       -15.3096
  43   2.0000      -0.552120       -15.0239
  44   2.0000      -0.538684       -14.6583
  45   2.0000      -0.527431       -14.3521
  46   2.0000      -0.523280       -14.2392
  47   2.0000      -0.513995       -13.9865
  48   2.0000      -0.510448       -13.8900
  49   2.0000      -0.494956       -13.4684
  50   2.0000      -0.490199       -13.3390
  51   2.0000      -0.477437       -12.9917
  52   2.0000      -0.470791       -12.8109
  53   2.0000      -0.468346       -12.7443
  54   2.0000      -0.460064       -12.5190
  55   2.0000      -0.455621       -12.3981
  56   2.0000      -0.443624       -12.0716
  57   2.0000      -0.439207       -11.9514
  58   2.0000      -0.435023       -11.8376
  59   2.0000      -0.429555       -11.6888
  60   2.0000      -0.419143       -11.4055
  61   2.0000      -0.413032       -11.2392
  62   2.0000      -0.398651       -10.8478
  63   2.0000      -0.337041        -9.1714
  64   2.0000      -0.326306        -8.8792
  65   2.0000      -0.322327        -8.7710
  66   2.0000      -0.291774        -7.9396
  67   0.0000       0.021066         0.5732
  68   0.0000       0.061285         1.6677
  69   0.0000       0.104214         2.8358
  70   0.0000       0.117280         3.1914
  71   0.0000       0.129253         3.5172

MULLIKEN ATOMIC CHARGES
-----------------------
   0 S :    0.128626
   1 C :   -0.117953
   2 C :   -0.075829
   3 C :    0.070342
   4 C :   -0.186749
   5 H :    0.015526
   6 C :    0.036856
   7 H :    0.039170
   8 H :   -0.003173
   9 C :   -0.055925
  10 H :    0.033972
  11 H :    0.035688
  12 C :   -0.031491
  13 H :    0.037215
  14 H :    0.023393
  15 H :    0.001890
  16 S :    0.112315
  17 C :   -0.070516
  18 C :   -0.077656
  19 C :   -0.062387
  20 C :   -0.137908
  21 H :    0.039630
  22 C :    0.138389
  23 H :    0.005155
  24 H :   -0.002723
  25 C :   -0.088564
  26 H :   -0.007093
  27 H :    0.013465
  28 C :    0.001120
  29 H :    0.039136
  30 H :    0.027395
  31 H :    0.018252
  32 H :    0.048030
  33 H :    0.052399
Sum of atomic charges:    0.0000000

LOEWDIN ATOMIC CHARGES
----------------------
   0 S :    0.402298
   1 C :   -0.206406
   2 C :   -0.074478
   3 C :   -0.032663
   4 C :   -0.185509
   5 H :    0.027055
   6 C :   -0.038186
   7 H :    0.042218
   8 H :    0.020198
   9 C :   -0.029801
  10 H :    0.028783
  11 H :    0.025803
  12 C :   -0.066428
  13 H :    0.029289
  14 H :    0.021076
  15 H :    0.015702
  16 S :    0.443702
  17 C :   -0.210674
  18 C :   -0.072777
  19 C :   -0.055851
  20 C :   -0.216940
  21 H :    0.040500
  22 C :   -0.031850
  23 H :    0.027829
  24 H :    0.024318
  25 C :   -0.042190
  26 H :    0.010667
  27 H :    0.026848
  28 C :   -0.048404
  29 H :    0.019374
  30 H :    0.027258
  31 H :    0.018476
  32 H :    0.033673
  33 H :    0.027089

  Mayer bond orders larger than 0.100000
B(  0-S ,  1-C ) :   1.1141 B(  0-S ,  4-C ) :   1.1167 B(  1-C ,  2-C ) :   1.6924
B(  1-C , 32-H ) :   0.9519 B(  2-C ,  3-C ) :   1.1694 B(  2-C ,  6-C ) :   1.0423
B(  3-C ,  4-C ) :   1.5998 B(  3-C ,  5-H ) :   0.9975 B(  4-C , 20-C ) :   1.0523
B(  6-C ,  7-H ) :   0.9427 B(  6-C ,  8-H ) :   0.9307 B(  6-C ,  9-C ) :   1.0609
B(  9-C , 10-H ) :   0.9594 B(  9-C , 11-H ) :   0.9566 B(  9-C , 12-C ) :   1.0722
B( 12-C , 13-H ) :   0.9769 B( 12-C , 14-H ) :   0.9726 B( 12-C , 15-H ) :   0.9694
B( 16-S , 17-C ) :   1.1798 B( 16-S , 20-C ) :   1.1701 B( 17-C , 18-C ) :   1.5689
B( 17-C , 20-C ) :   0.1108 B( 17-C , 33-H ) :   0.9666 B( 18-C , 19-C ) :   1.2768
B( 18-C , 21-H ) :   0.9804 B( 19-C , 20-C ) :   1.5385 B( 19-C , 22-C ) :   1.0660
B( 22-C , 23-H ) :   0.9204 B( 22-C , 24-H ) :   0.9211 B( 22-C , 25-C ) :   1.0726
B( 25-C , 26-H ) :   0.9484 B( 25-C , 27-H ) :   0.9515 B( 25-C , 28-C ) :   1.0727
B( 28-C , 29-H ) :   0.9736 B( 28-C , 30-H ) :   0.9711 B( 28-C , 31-H ) :   0.9778

Dispersion correction           -0.015686150
FINAL SINGLE POINT ENERGY     -1339.822627348877

DIPOLE MOMENT
-------------
                                X             Y             Z
Electronic contribution:      6.50299     -26.07476      -6.36842
Nuclear contribution   :     -6.59976      26.82894       6.35793
                        -----------------------------------------
Total Dipole Moment    :     -0.09676       0.75418      -0.01048
                        -----------------------------------------
Magnitude (a.u.)       :      0.76043
Magnitude (Debye)      :      1.93287

Rotational constants in cm-1:     0.021398     0.008359     0.007434
Rotational constants in MHz :   641.505725   250.591167   222.852438

                             ****ORCA TERMINATED NORMALLY****
TOTAL RUN TIME: 0 days 0 hours 0 minutes 33 seconds 46 msec
