                         Program Version 4.2.1 -  RELEASE  -
|  1> ! wB97X-D3 SP def2-SVP
|  2> %pal
|  3> nprocs 16
|  4> end
|  5>
|  6> * xyz 0 1
|  7> S 	 -101.024 	 42.2355 	 123.732
|  8> C 	 -99.7147 	 41.0985 	 124.289
|  9> C 	 -99.4633 	 41.2633 	 125.627
| 10> C 	 -100.307 	 42.2146 	 126.244
| 11> C 	 -101.169 	 42.9334 	 125.41
| 12> H 	 -100.336 	 42.6103 	 127.286
| 13> C 	 -98.3217 	 40.5134 	 126.41
| 14> H 	 -98.6898 	 39.5504 	 126.319
| 15> H 	 -98.3543 	 40.8949 	 127.504
| 16> C 	 -96.8904 	 40.7808 	 126.027
| 17> H 	 -96.6818 	 40.4642 	 125.037
| 18> H 	 -96.7312 	 41.8623 	 125.934
| 19> C 	 -95.8662 	 40.0604 	 126.978
| 20> H 	 -95.9303 	 39.0084 	 127.096
| 21> H 	 -94.8586 	 40.2802 	 126.696
| 22> H 	 -95.7781 	 40.4611 	 128.065
| 23> S 	 -103.844 	 43.6041 	 125.54
| 24> C 	 -104.244 	 45.2825 	 125.781
| 25> C 	 -103.174 	 45.9989 	 126.227
| 26> C 	 -101.953 	 45.24 	 126.138
| 27> C 	 -102.149 	 43.9399 	 125.74
| 28> H 	 -103.187 	 46.9794 	 126.594
| 29> C 	 -100.617 	 45.8607 	 126.495
| 30> H 	 -100.201 	 45.3463 	 127.329
| 31> H 	 -100.828 	 46.8492 	 126.921
| 32> C 	 -99.569 	 45.9481 	 125.411
| 33> H 	 -99.9647 	 46.6174 	 124.607
| 34> H 	 -99.4556 	 44.9609 	 124.97
| 35> C 	 -98.2781 	 46.4694 	 125.935
| 36> H 	 -98.3092 	 47.4862 	 126.235
| 37> H 	 -97.4935 	 46.519 	 125.152
| 38> H 	 -97.7825 	 45.7703 	 126.683
| 39> H 	 -99.1232 	 40.4203 	 123.689
| 40> H 	 -105.192 	 45.7315 	 126.091
| 41> *
| 42>
| 43>                          ****END OF INPUT****

CARTESIAN COORDINATES (ANGSTROEM)
---------------------------------
  S    -101.024000   42.235500  123.732000
  C    -99.714700   41.098500  124.289000
  C    -99.463300   41.263300  125.627000
  C    -100.307000   42.214600  126.244000
  C    -101.169000   42.933400  125.410000
  H    -100.336000   42.610300  127.286000
  C    -98.321700   40.513400  126.410000
  H    -98.689800   39.550400  126.319000
  H    -98.354300   40.894900  127.504000
  C    -96.890400   40.780800  126.027000
  H    -96.681800   40.464200  125.037000
  H    -96.731200   41.862300  125.934000
  C    -95.866200   40.060400  126.978000
  H    -95.930300   39.008400  127.096000
  H    -94.858600   40.280200  126.696000
  H    -95.778100   40.461100  128.065000
  S    -103.844000   43.604100  125.540000
  C    -104.244000   45.282500  125.781000
  C    -103.174000   45.998900  126.227000
  C    -101.953000   45.240000  126.138000
  C    -102.149000   43.939900  125.740000
  H    -103.187000   46.979400  126.594000
  C    -100.617000   45.860700  126.495000
  H    -100.201000   45.346300  127.329000
  H    -100.828000   46.849200  126.921000
  C    -99.569000   45.948100  125.411000
  H    -99.964700   46.617400  124.607000
  H    -99.455600   44.960900  124.970000
  C    -98.278100   46.469400  125.935000
  H    -98.309200   47.486200  126.235000
  H    -97.493500   46.519000  125.152000
  H    -97.782500   45.770300  126.683000
  H    -99.123200   40.420300  123.689000
  H    -105.192000   45.731500  126.091000

 Total Charge           Charge          ....    0
 Multiplicity           Mult            ....    1
 Number of Electrons    NEL             ....  134
 Basis Dimension        Dim             ....  322

ORBITAL ENERGIES
----------------

  NO   OCC          E(Eh)            E(eV)
   0   2.0000     -88.967490     -2420.9285
   1   2.0000     -88.966662     -2420.9059
   2   2.0000     -10.335695      -281.2486
   3   2.0000     -10.323515      -280.9171
   4   2.0000     -10.320577      -280.8372
   5   2.0000     -10.315144      -280.6893
   6   2.0000     -10.304632      -280.4033
   7   2.0000     -10.300519      -280.2914
   8   2.0000     -10.299651      -280.2677
   9   2.0000     -10.297267      -280.2029
  10   2.0000     -10.292671      -280.0778
  11   2.0000     -10.289638      -279.9953
  12   2.0000     -10.285800      -279.8908
  13   2.0000     -10.284263      -279.8490
  14   2.0000     -10.280035      -279.7340
  15   2.0000     -10.277090      -279.6538
  16   2.0000      -8.082471      -219.9352
  17   2.0000      -8.078977      -219.8401
  18   2.0000      -6.041115      -164.3871
  19   2.0000      -6.037668      -164.2933
  20   2.0000      -6.036985      -164.2747
  21   2.0000      -6.033865      -164.1898
  22   2.0000      -6.032997      -164.1662
  23   2.0000      -6.029611      -164.0740
  24   2.0000      -1.006660       -27.3926
  25   2.0000      -0.977508       -26.5993
  26   2.0000      -0.914113       -24.8743
  27   2.0000      -0.908828       -24.7305
  28   2.0000      -0.872388       -23.7389
  29   2.0000      -0.853087       -23.2137
  30   2.0000      -0.839641       -22.8478
  31   2.0000      -0.816674       -22.2228
  32   2.0000      -0.784246       -21.3404
  33   2.0000      -0.772500       -21.0208
  34   2.0000      -0.711914       -19.3722
  35   2.0000      -0.711055       -19.3488
  36   2.0000      -0.691013       -18.8034
  37   2.0000      -0.665820       -18.1179
  38   2.0000      -0.640027       -17.4160
  39   2.0000      -0.610116       -16.6021
  40   2.0000      -0.595059       -16.1924
  41   2.0000      -0.573186       -15.5972
  42   2.0000      -0.569915       -15.5082
  43   2.0000      -0.561754       -15.2861
  44   2.0000      -0.528867       -14.3912
  45   2.0000      -0.520969       -14.1763
  46   2.0000      -0.516803       -14.0629
  47   2.0000      -0.508513       -13.8373
  48   2.0000      -0.504971       -13.7410
  49   2.0000      -0.498258       -13.5583
  50   2.0000      -0.489967       -13.3327
  51   2.0000      -0.482930       -13.1412
  52   2.0000      -0.467782       -12.7290
  53   2.0000      -0.464628       -12.6432
  54   2.0000      -0.459838       -12.5128
  55   2.0000      -0.452649       -12.3172
  56   2.0000      -0.447195       -12.1688
  57   2.0000      -0.436316       -11.8728
  58   2.0000      -0.425595       -11.5810
  59   2.0000      -0.421020       -11.4565
  60   2.0000      -0.416637       -11.3373
  61   2.0000      -0.415595       -11.3089
  62   2.0000      -0.411287       -11.1917
  63   2.0000      -0.341228        -9.2853
  64   2.0000      -0.333457        -9.0738
  65   2.0000      -0.329509        -8.9664
  66   2.0000      -0.301371        -8.2007
  67   0.0000       0.029647         0.8067
  68   0.0000       0.054836         1.4922
  69   0.0000       0.107590         2.9277
  70   0.0000       0.113101         3.0776
  71   0.0000       0.136308         3.7091

MULLIKEN ATOMIC CHARGES
-----------------------
   0 S :    0.096053
   1 C :   -0.121920
   2 C :   -0.076356
   3 C :    0.031948
   4 C :   -0.198345
   5 H :    0.028141
   6 C :    0.059411
   7 H :    0.031695
   8 H :    0.037948
   9 C :   -0.029087
  10 H :    0.012673
  11 H :    0.033264
  12 C :   -0.066413
  13 H :    0.034292
  14 H :    0.021856
  15 H :    0.031699
  16 S :    0.124904
  17 C :   -0.060986
  18 C :   -0.037435
  19 C :   -0.041046
  20 C :   -0.177599
  21 H :    0.001395
  22 C :    0.101990
  23 H :    0.008254
  24 H :   -0.001109
  25 C :   -0.071893
  26 H :    0.031648
  27 H :    0.045748
  28 C :   -0.043556
  29 H :    0.023625
  30 H :    0.024101
  31 H :    0.036535
  32 H :    0.044993
  33 H :    0.063570
Sum of atomic charges:    0.0000000

LOEWDIN ATOMIC CHARGES
----------------------
   0 S :    0.349106
   1 C :   -0.174176
   2 C :   -0.067415
   3 C :   -0.068106
   4 C :   -0.172351
   5 H :    0.039846
   6 C :   -0.025846
   7 H :    0.022900
   8 H :    0.041500
   9 C :   -0.038053
  10 H :    0.016679
  11 H :    0.032231
  12 C :   -0.071831
  13 H :    0.021239
  14 H :    0.023356
  15 H :    0.034448
  16 S :    0.420655
  17 C :   -0.194849
  18 C :   -0.061417
  19 C :   -0.047458
  20 C :   -0.213785
  21 H :    0.023083
  22 C :   -0.032392
  23 H :    0.023802
  24 H :    0.026418
  25 C :   -0.043150
  26 H :    0.030028
  27 H :    0.027208
  28 C :   -0.070484
  29 H :    0.019883
  30 H :    0.029189
  31 H :    0.032256
  32 H :    0.029181
  33 H :    0.038306

  Mayer bond orders larger than 0.100000
B(  0-S ,  1-C ) :   1.1198 B(  0-S ,  4-C ) :   1.1117 B(  1-C ,  2-C ) :   1.6397
B(  1-C ,  4-C ) :   0.1068 B(  1-C , 32-H ) :   0.9692 B(  2-C ,  3-C ) :   1.2256
B(  2-C ,  6-C ) :   0.9797 B(  3-C ,  4-C ) :   1.6137 B(  3-C ,  5-H ) :   0.9811
B(  4-C , 20-C ) :   1.0485 B(  6-C ,  7-H ) :   0.9413 B(  6-C ,  8-H ) :   0.9526
B(  6-C ,  9-C ) :   1.0671 B(  9-C , 10-H ) :   0.9514 B(  9-C , 11-H ) :   0.9546
B(  9-C , 12-C ) :   1.0731 B( 12-C , 13-H ) :   0.9793 B( 12-C , 14-H ) :   0.9741
B( 12-C , 15-H ) :   0.9738 B( 16-S , 17-C ) :   1.1520 B( 16-S , 20-C ) :   1.1385
B( 17-C , 18-C ) :   1.6107 B( 17-C , 33-H ) :   0.9519 B( 18-C , 19-C ) :   1.2644
B( 18-C , 21-H ) :   0.9906 B( 19-C , 20-C ) :   1.5987 B( 19-C , 22-C ) :   1.0344
B( 22-C , 23-H ) :   0.9275 B( 22-C , 24-H ) :   0.9267 B( 22-C , 25-C ) :   1.0644
B( 25-C , 26-H ) :   0.9483 B( 25-C , 27-H ) :   0.9513 B( 25-C , 28-C ) :   1.1021
B( 28-C , 29-H ) :   0.9705 B( 28-C , 30-H ) :   0.9685 B( 28-C , 31-H ) :   0.9693

Dispersion correction           -0.014457176
FINAL SINGLE POINT ENERGY     -1339.858450498208

DIPOLE MOMENT
-------------
                                X             Y             Z
Electronic contribution:    -29.75215      -2.44175     -10.16960
Nuclear contribution   :     30.38386       2.62688      10.65913
                        -----------------------------------------
Total Dipole Moment    :      0.63170       0.18513       0.48954
                        -----------------------------------------
Magnitude (a.u.)       :      0.82035
Magnitude (Debye)      :      2.08516

Rotational constants in cm-1:     0.020197     0.008175     0.006639
Rotational constants in MHz :   605.485022   245.084000   199.036770

                             ****ORCA TERMINATED NORMALLY****
TOTAL RUN TIME: 0 days 0 hours 0 minutes 34 seconds 468 msec
