                         Program Version 4.2.1 -  RELEASE  -
|  1> ! wB97X-D3 SP def2-SVP
|  2> %pal
|  3> nprocs 16
|  4> end
|  5>
|  6> * xyz 0 1
|  7> S 	 -14.7997 	 40.7352 	 33.168
|  8> C 	 -13.6001 	 39.5099 	 33.0166
|  9> C 	 -13.2709 	 39.2751 	 31.6669
| 10> C 	 -14.1781 	 39.9309 	 30.7754
| 11> C 	 -15.0514 	 40.7756 	 31.4326
| 12> H 	 -14.1934 	 40.0479 	 29.6846
| 13> C 	 -12.0871 	 38.6001 	 31.0611
| 14> H 	 -11.3604 	 38.6684 	 31.8186
| 15> H 	 -11.7441 	 39.2036 	 30.1725
| 16> C 	 -12.3121 	 37.1011 	 30.6486
| 17> H 	 -13.1806 	 36.8751 	 29.9783
| 18> H 	 -11.3891 	 36.8577 	 30.1262
| 19> C 	 -12.333 	 35.9717 	 31.6322
| 20> H 	 -12.2269 	 35.0934 	 30.9743
| 21> H 	 -11.4404 	 35.9879 	 32.2906
| 22> H 	 -13.2643 	 35.8817 	 32.2401
| 23> S 	 -17.569 	 41.7977 	 31.871
| 24> C 	 -18.3328 	 42.5674 	 30.5185
| 25> C 	 -17.46 	 42.8722 	 29.5142
| 26> C 	 -16.1541 	 42.389 	 29.7766
| 27> C 	 -16.0987 	 41.6237 	 30.8978
| 28> H 	 -17.8486 	 43.5091 	 28.7372
| 29> C 	 -15.0047 	 42.477 	 28.8382
| 30> H 	 -15.0111 	 41.6294 	 28.1898
| 31> H 	 -14.0999 	 42.6669 	 29.408
| 32> C 	 -15.0876 	 43.6621 	 27.842
| 33> H 	 -15.0681 	 44.4884 	 28.4628
| 34> H 	 -16.0304 	 43.7014 	 27.2139
| 35> C 	 -13.8815 	 43.7536 	 26.9403
| 36> H 	 -14.0689 	 44.5945 	 26.2285
| 37> H 	 -13.7162 	 42.8332 	 26.3681
| 38> H 	 -12.8907 	 43.8636 	 27.54
| 39> H 	 -13.0578 	 39.0634 	 33.8304
| 40> H 	 -19.3076 	 43.0581 	 30.5901
| 41> *
| 42>
| 43>                          ****END OF INPUT****

CARTESIAN COORDINATES (ANGSTROEM)
---------------------------------
  S    -14.799700   40.735200   33.168000
  C    -13.600100   39.509900   33.016600
  C    -13.270900   39.275100   31.666900
  C    -14.178100   39.930900   30.775400
  C    -15.051400   40.775600   31.432600
  H    -14.193400   40.047900   29.684600
  C    -12.087100   38.600100   31.061100
  H    -11.360400   38.668400   31.818600
  H    -11.744100   39.203600   30.172500
  C    -12.312100   37.101100   30.648600
  H    -13.180600   36.875100   29.978300
  H    -11.389100   36.857700   30.126200
  C    -12.333000   35.971700   31.632200
  H    -12.226900   35.093400   30.974300
  H    -11.440400   35.987900   32.290600
  H    -13.264300   35.881700   32.240100
  S    -17.569000   41.797700   31.871000
  C    -18.332800   42.567400   30.518500
  C    -17.460000   42.872200   29.514200
  C    -16.154100   42.389000   29.776600
  C    -16.098700   41.623700   30.897800
  H    -17.848600   43.509100   28.737200
  C    -15.004700   42.477000   28.838200
  H    -15.011100   41.629400   28.189800
  H    -14.099900   42.666900   29.408000
  C    -15.087600   43.662100   27.842000
  H    -15.068100   44.488400   28.462800
  H    -16.030400   43.701400   27.213900
  C    -13.881500   43.753600   26.940300
  H    -14.068900   44.594500   26.228500
  H    -13.716200   42.833200   26.368100
  H    -12.890700   43.863600   27.540000
  H    -13.057800   39.063400   33.830400
  H    -19.307600   43.058100   30.590100

 Total Charge           Charge          ....    0
 Multiplicity           Mult            ....    1
 Number of Electrons    NEL             ....  134
 Basis Dimension        Dim             ....  322

ORBITAL ENERGIES
----------------

  NO   OCC          E(Eh)            E(eV)
   0   2.0000     -88.965456     -2420.8731
   1   2.0000     -88.962222     -2420.7851
   2   2.0000     -10.325179      -280.9624
   3   2.0000     -10.321205      -280.8543
   4   2.0000     -10.312773      -280.6248
   5   2.0000     -10.312338      -280.6130
   6   2.0000     -10.300904      -280.3019
   7   2.0000     -10.297505      -280.2094
   8   2.0000     -10.293870      -280.1105
   9   2.0000     -10.291049      -280.0337
  10   2.0000     -10.290215      -280.0110
  11   2.0000     -10.288398      -279.9615
  12   2.0000     -10.288167      -279.9553
  13   2.0000     -10.288046      -279.9520
  14   2.0000     -10.283317      -279.8233
  15   2.0000     -10.280462      -279.7456
  16   2.0000      -8.080520      -219.8821
  17   2.0000      -8.077299      -219.7945
  18   2.0000      -6.038975      -164.3289
  19   2.0000      -6.035773      -164.2417
  20   2.0000      -6.035011      -164.2210
  21   2.0000      -6.031960      -164.1380
  22   2.0000      -6.031319      -164.1205
  23   2.0000      -6.027874      -164.0268
  24   2.0000      -1.010728       -27.5033
  25   2.0000      -0.986420       -26.8419
  26   2.0000      -0.916906       -24.9503
  27   2.0000      -0.910570       -24.7779
  28   2.0000      -0.871782       -23.7224
  29   2.0000      -0.858886       -23.3715
  30   2.0000      -0.849066       -23.1043
  31   2.0000      -0.816929       -22.2298
  32   2.0000      -0.783216       -21.3124
  33   2.0000      -0.770701       -20.9718
  34   2.0000      -0.702602       -19.1188
  35   2.0000      -0.698789       -19.0150
  36   2.0000      -0.689009       -18.7489
  37   2.0000      -0.653843       -17.7920
  38   2.0000      -0.640657       -17.4332
  39   2.0000      -0.617953       -16.8154
  40   2.0000      -0.599363       -16.3095
  41   2.0000      -0.584111       -15.8945
  42   2.0000      -0.567554       -15.4439
  43   2.0000      -0.544196       -14.8083
  44   2.0000      -0.540170       -14.6988
  45   2.0000      -0.532214       -14.4823
  46   2.0000      -0.520986       -14.1768
  47   2.0000      -0.516591       -14.0572
  48   2.0000      -0.497919       -13.5491
  49   2.0000      -0.496546       -13.5117
  50   2.0000      -0.491087       -13.3631
  51   2.0000      -0.481147       -13.0927
  52   2.0000      -0.474824       -12.9206
  53   2.0000      -0.464178       -12.6309
  54   2.0000      -0.457758       -12.4562
  55   2.0000      -0.453224       -12.3328
  56   2.0000      -0.442048       -12.0287
  57   2.0000      -0.436027       -11.8649
  58   2.0000      -0.428274       -11.6539
  59   2.0000      -0.427290       -11.6272
  60   2.0000      -0.421817       -11.4782
  61   2.0000      -0.412906       -11.2358
  62   2.0000      -0.409468       -11.1422
  63   2.0000      -0.351846        -9.5742
  64   2.0000      -0.333065        -9.0631
  65   2.0000      -0.325297        -8.8518
  66   2.0000      -0.284447        -7.7402
  67   0.0000       0.025443         0.6923
  68   0.0000       0.076021         2.0686
  69   0.0000       0.094986         2.5847
  70   0.0000       0.125980         3.4281
  71   0.0000       0.136933         3.7261

MULLIKEN ATOMIC CHARGES
-----------------------
   0 S :    0.109505
   1 C :   -0.107137
   2 C :   -0.093253
   3 C :    0.011242
   4 C :   -0.163034
   5 H :    0.015882
   6 C :    0.093759
   7 H :    0.002542
   8 H :    0.044473
   9 C :   -0.094699
  10 H :    0.041085
  11 H :    0.024170
  12 C :   -0.066311
  13 H :    0.035935
  14 H :    0.026700
  15 H :    0.047492
  16 S :    0.099574
  17 C :   -0.083080
  18 C :   -0.052125
  19 C :   -0.020048
  20 C :   -0.137851
  21 H :    0.017866
  22 C :    0.051619
  23 H :    0.044322
  24 H :    0.040318
  25 C :   -0.100185
  26 H :    0.013199
  27 H :    0.042628
  28 C :   -0.058798
  29 H :    0.047267
  30 H :    0.026189
  31 H :    0.039826
  32 H :    0.042150
  33 H :    0.058778
Sum of atomic charges:    0.0000000

LOEWDIN ATOMIC CHARGES
----------------------
   0 S :    0.411285
   1 C :   -0.211066
   2 C :   -0.061996
   3 C :   -0.067543
   4 C :   -0.187347
   5 H :    0.036055
   6 C :   -0.030591
   7 H :    0.023062
   8 H :    0.043510
   9 C :   -0.048707
  10 H :    0.031492
  11 H :    0.025406
  12 C :   -0.070188
  13 H :    0.032863
  14 H :    0.022365
  15 H :    0.025818
  16 S :    0.393677
  17 C :   -0.185852
  18 C :   -0.074100
  19 C :   -0.061183
  20 C :   -0.187398
  21 H :    0.032710
  22 C :   -0.028956
  23 H :    0.028269
  24 H :    0.037585
  25 C :   -0.044280
  26 H :    0.013751
  27 H :    0.028655
  28 C :   -0.072184
  29 H :    0.033417
  30 H :    0.020602
  31 H :    0.034091
  32 H :    0.025659
  33 H :    0.031118

  Mayer bond orders larger than 0.100000
B(  0-S ,  1-C ) :   1.1428 B(  0-S ,  4-C ) :   1.1495 B(  1-C ,  2-C ) :   1.5925
B(  1-C , 32-H ) :   0.9699 B(  2-C ,  3-C ) :   1.2278 B(  2-C ,  6-C ) :   1.0233
B(  3-C ,  4-C ) :   1.5864 B(  3-C ,  5-H ) :   0.9839 B(  4-C , 20-C ) :   1.0647
B(  6-C ,  7-H ) :   0.9323 B(  6-C ,  8-H ) :   0.9456 B(  6-C ,  9-C ) :   1.0585
B(  9-C , 10-H ) :   0.9601 B(  9-C , 11-H ) :   0.9573 B(  9-C , 12-C ) :   1.0829
B( 12-C , 13-H ) :   0.9738 B( 12-C , 14-H ) :   0.9730 B( 12-C , 15-H ) :   0.9736
B( 16-S , 17-C ) :   1.1516 B( 16-S , 20-C ) :   1.1226 B( 17-C , 18-C ) :   1.6340
B( 17-C , 33-H ) :   0.9578 B( 18-C , 19-C ) :   1.2109 B( 18-C , 21-H ) :   0.9934
B( 19-C , 20-C ) :   1.6095 B( 19-C , 22-C ) :   1.0583 B( 22-C , 23-H ) :   0.9255
B( 22-C , 24-H ) :   0.9271 B( 22-C , 25-C ) :   1.0772 B( 25-C , 26-H ) :   0.9558
B( 25-C , 27-H ) :   0.9451 B( 25-C , 28-C ) :   1.0934 B( 28-C , 29-H ) :   0.9715
B( 28-C , 30-H ) :   0.9726 B( 28-C , 31-H ) :   0.9697

Dispersion correction           -0.013505776
FINAL SINGLE POINT ENERGY     -1339.865148545013

DIPOLE MOMENT
-------------
                                X             Y             Z
Electronic contribution:    -18.08171       7.11229      19.44310
Nuclear contribution   :     18.51380      -7.02972     -20.03413
                        -----------------------------------------
Total Dipole Moment    :      0.43209       0.08257      -0.59104
                        -----------------------------------------
Magnitude (a.u.)       :      0.73678
Magnitude (Debye)      :      1.87275

Rotational constants in cm-1:     0.018164     0.008288     0.006304
Rotational constants in MHz :   544.528765   248.482972   188.991339

                             ****ORCA TERMINATED NORMALLY****
TOTAL RUN TIME: 0 days 0 hours 0 minutes 30 seconds 804 msec
