                         Program Version 4.2.1 -  RELEASE  -
|  1> ! wB97X-D3 SP def2-SVP
|  2> %pal
|  3> nprocs 16
|  4> end
|  5>
|  6> * xyz 0 1
|  7> S 	 -12.5926 	 -12.1891 	 86.5209
|  8> C 	 -14.1665 	 -12.9723 	 86.2574
|  9> C 	 -15.1794 	 -12.0136 	 86.2259
| 10> C 	 -14.6721 	 -10.6741 	 86.4156
| 11> C 	 -13.3593 	 -10.6294 	 86.859
| 12> H 	 -15.2528 	 -9.74893 	 86.4277
| 13> C 	 -16.6362 	 -12.2836 	 85.9662
| 14> H 	 -16.7255 	 -13.3339 	 85.6066
| 15> H 	 -17.0118 	 -11.6833 	 85.1036
| 16> C 	 -17.5897 	 -12.1069 	 87.21
| 17> H 	 -17.2296 	 -12.6749 	 88.1157
| 18> H 	 -17.6085 	 -11.0271 	 87.3901
| 19> C 	 -19 	 -12.7094 	 86.9368
| 20> H 	 -19.6086 	 -12.7128 	 87.8194
| 21> H 	 -19.5678 	 -12.2115 	 86.1567
| 22> H 	 -18.9161 	 -13.7484 	 86.5534
| 23> S 	 -10.9243 	 -9.76175 	 87.7767
| 24> C 	 -10.4584 	 -8.08703 	 87.5236
| 25> C 	 -11.4286 	 -7.4015 	 86.8004
| 26> C 	 -12.5869 	 -8.19754 	 86.4637
| 27> C 	 -12.4783 	 -9.47802 	 86.9992
| 28> H 	 -11.1961 	 -6.40303 	 86.5596
| 29> C 	 -13.6624 	 -7.59522 	 85.5322
| 30> H 	 -14.6401 	 -7.83287 	 86.024
| 31> H 	 -13.6489 	 -8.21713 	 84.6679
| 32> C 	 -13.5521 	 -6.1716 	 85.1678
| 33> H 	 -12.7447 	 -5.99408 	 84.4162
| 34> H 	 -13.3737 	 -5.55983 	 86.1214
| 35> C 	 -14.8327 	 -5.71703 	 84.4511
| 36> H 	 -15.6098 	 -5.64945 	 85.2461
| 37> H 	 -15.2901 	 -6.43835 	 83.6838
| 38> H 	 -14.8093 	 -4.68486 	 84.0588
| 39> H 	 -14.4752 	 -14.0318 	 86.2264
| 40> H 	 -9.61021 	 -7.57399 	 87.7956
| 41> *
| 42>
| 43>                          ****END OF INPUT****

CARTESIAN COORDINATES (ANGSTROEM)
---------------------------------
  S    -12.592600  -12.189100   86.520900
  C    -14.166500  -12.972300   86.257400
  C    -15.179400  -12.013600   86.225900
  C    -14.672100  -10.674100   86.415600
  C    -13.359300  -10.629400   86.859000
  H    -15.252800   -9.748930   86.427700
  C    -16.636200  -12.283600   85.966200
  H    -16.725500  -13.333900   85.606600
  H    -17.011800  -11.683300   85.103600
  C    -17.589700  -12.106900   87.210000
  H    -17.229600  -12.674900   88.115700
  H    -17.608500  -11.027100   87.390100
  C    -19.000000  -12.709400   86.936800
  H    -19.608600  -12.712800   87.819400
  H    -19.567800  -12.211500   86.156700
  H    -18.916100  -13.748400   86.553400
  S    -10.924300   -9.761750   87.776700
  C    -10.458400   -8.087030   87.523600
  C    -11.428600   -7.401500   86.800400
  C    -12.586900   -8.197540   86.463700
  C    -12.478300   -9.478020   86.999200
  H    -11.196100   -6.403030   86.559600
  C    -13.662400   -7.595220   85.532200
  H    -14.640100   -7.832870   86.024000
  H    -13.648900   -8.217130   84.667900
  C    -13.552100   -6.171600   85.167800
  H    -12.744700   -5.994080   84.416200
  H    -13.373700   -5.559830   86.121400
  C    -14.832700   -5.717030   84.451100
  H    -15.609800   -5.649450   85.246100
  H    -15.290100   -6.438350   83.683800
  H    -14.809300   -4.684860   84.058800
  H    -14.475200  -14.031800   86.226400
  H     -9.610210   -7.573990   87.795600

 Total Charge           Charge          ....    0
 Multiplicity           Mult            ....    1
 Number of Electrons    NEL             ....  134
 Basis Dimension        Dim             ....  322

ORBITAL ENERGIES
----------------

  NO   OCC          E(Eh)            E(eV)
   0   2.0000     -88.969048     -2420.9709
   1   2.0000     -88.965032     -2420.8616
   2   2.0000     -10.331316      -281.1294
   3   2.0000     -10.329055      -281.0679
   4   2.0000     -10.317442      -280.7519
   5   2.0000     -10.313370      -280.6411
   6   2.0000     -10.309508      -280.5360
   7   2.0000     -10.303357      -280.3686
   8   2.0000     -10.298861      -280.2462
   9   2.0000     -10.298848      -280.2459
  10   2.0000     -10.296903      -280.1930
  11   2.0000     -10.296089      -280.1708
  12   2.0000     -10.296050      -280.1698
  13   2.0000     -10.291810      -280.0544
  14   2.0000     -10.291476      -280.0453
  15   2.0000     -10.280214      -279.7389
  16   2.0000      -8.083224      -219.9557
  17   2.0000      -8.078903      -219.8381
  18   2.0000      -6.041877      -164.4078
  19   2.0000      -6.037804      -164.2970
  20   2.0000      -6.037717      -164.2946
  21   2.0000      -6.033879      -164.1902
  22   2.0000      -6.033637      -164.1836
  23   2.0000      -6.029260      -164.0645
  24   2.0000      -1.004008       -27.3204
  25   2.0000      -0.978058       -26.6143
  26   2.0000      -0.919694       -25.0261
  27   2.0000      -0.904644       -24.6166
  28   2.0000      -0.868255       -23.6264
  29   2.0000      -0.852283       -23.1918
  30   2.0000      -0.839518       -22.8444
  31   2.0000      -0.815465       -22.1899
  32   2.0000      -0.781596       -21.2683
  33   2.0000      -0.770380       -20.9631
  34   2.0000      -0.709068       -19.2947
  35   2.0000      -0.702841       -19.1253
  36   2.0000      -0.694851       -18.9079
  37   2.0000      -0.654396       -17.8070
  38   2.0000      -0.635866       -17.3028
  39   2.0000      -0.618268       -16.8239
  40   2.0000      -0.598285       -16.2802
  41   2.0000      -0.577453       -15.7133
  42   2.0000      -0.567970       -15.4553
  43   2.0000      -0.556743       -15.1498
  44   2.0000      -0.530760       -14.4427
  45   2.0000      -0.522942       -14.2300
  46   2.0000      -0.514861       -14.0101
  47   2.0000      -0.508568       -13.8388
  48   2.0000      -0.505273       -13.7492
  49   2.0000      -0.501183       -13.6379
  50   2.0000      -0.489168       -13.3109
  51   2.0000      -0.478689       -13.0258
  52   2.0000      -0.466544       -12.6953
  53   2.0000      -0.462394       -12.5824
  54   2.0000      -0.457086       -12.4379
  55   2.0000      -0.452359       -12.3093
  56   2.0000      -0.445584       -12.1249
  57   2.0000      -0.436356       -11.8739
  58   2.0000      -0.433977       -11.8091
  59   2.0000      -0.425921       -11.5899
  60   2.0000      -0.424609       -11.5542
  61   2.0000      -0.417547       -11.3620
  62   2.0000      -0.414108       -11.2685
  63   2.0000      -0.353758        -9.6262
  64   2.0000      -0.332757        -9.0548
  65   2.0000      -0.327001        -8.8981
  66   2.0000      -0.284503        -7.7417
  67   0.0000       0.019100         0.5197
  68   0.0000       0.075857         2.0642
  69   0.0000       0.099071         2.6959
  70   0.0000       0.118499         3.2245
  71   0.0000       0.134050         3.6477

MULLIKEN ATOMIC CHARGES
-----------------------
   0 S :    0.081888
   1 C :   -0.099684
   2 C :   -0.090426
   3 C :   -0.021620
   4 C :   -0.079944
   5 H :    0.015221
   6 C :    0.025029
   7 H :    0.011214
   8 H :    0.042749
   9 C :   -0.082993
  10 H :    0.047807
  11 H :    0.038135
  12 C :   -0.052805
  13 H :    0.037625
  14 H :    0.024503
  15 H :    0.029901
  16 S :    0.109196
  17 C :   -0.031679
  18 C :   -0.057352
  19 C :   -0.042644
  20 C :   -0.158624
  21 H :    0.004297
  22 C :    0.054562
  23 H :    0.035660
  24 H :    0.034707
  25 C :   -0.088506
  26 H :    0.045455
  27 H :    0.054070
  28 C :   -0.074156
  29 H :    0.025482
  30 H :    0.049053
  31 H :    0.042323
  32 H :    0.053345
  33 H :    0.018211
Sum of atomic charges:    0.0000000

LOEWDIN ATOMIC CHARGES
----------------------
   0 S :    0.381120
   1 C :   -0.200080
   2 C :   -0.062635
   3 C :   -0.070713
   4 C :   -0.176195
   5 H :    0.028294
   6 C :   -0.040463
   7 H :    0.027060
   8 H :    0.037117
   9 C :   -0.038251
  10 H :    0.034228
  11 H :    0.023421
  12 C :   -0.070382
  13 H :    0.024061
  14 H :    0.021494
  15 H :    0.028005
  16 S :    0.402015
  17 C :   -0.170581
  18 C :   -0.066708
  19 C :   -0.047105
  20 C :   -0.201846
  21 H :    0.023373
  22 C :   -0.034984
  23 H :    0.033209
  24 H :    0.034548
  25 C :   -0.052719
  26 H :    0.031232
  27 H :    0.037132
  28 C :   -0.076110
  29 H :    0.025019
  30 H :    0.035702
  31 H :    0.028428
  32 H :    0.037995
  33 H :    0.015319

  Mayer bond orders larger than 0.100000
B(  0-S ,  1-C ) :   1.1170 B(  0-S ,  4-C ) :   1.1332 B(  1-C ,  2-C ) :   1.6359
B(  1-C , 32-H ) :   0.9566 B(  2-C ,  3-C ) :   1.2190 B(  2-C ,  6-C ) :   1.0391
B(  3-C ,  4-C ) :   1.5911 B(  3-C ,  5-H ) :   0.9874 B(  4-C , 20-C ) :   1.0705
B(  6-C ,  7-H ) :   0.9416 B(  6-C ,  8-H ) :   0.9408 B(  6-C ,  9-C ) :   1.0469
B(  9-C , 10-H ) :   0.9595 B(  9-C , 11-H ) :   0.9576 B(  9-C , 12-C ) :   1.0769
B( 12-C , 13-H ) :   0.9772 B( 12-C , 14-H ) :   0.9751 B( 12-C , 15-H ) :   0.9741
B( 16-S , 17-C ) :   1.1420 B( 16-S , 20-C ) :   1.1297 B( 17-C , 18-C ) :   1.6273
B( 17-C , 33-H ) :   0.9683 B( 18-C , 19-C ) :   1.2402 B( 18-C , 21-H ) :   0.9886
B( 19-C , 20-C ) :   1.5966 B( 19-C , 22-C ) :   1.0044 B( 22-C , 23-H ) :   0.9358
B( 22-C , 24-H ) :   0.9158 B( 22-C , 25-C ) :   1.0986 B( 25-C , 26-H ) :   0.9402
B( 25-C , 27-H ) :   0.9469 B( 25-C , 28-C ) :   1.0736 B( 28-C , 29-H ) :   0.9727
B( 28-C , 30-H ) :   0.9720 B( 28-C , 31-H ) :   0.9723

Dispersion correction           -0.013307288
FINAL SINGLE POINT ENERGY     -1339.871277343591

DIPOLE MOMENT
-------------
                                X             Y             Z
Electronic contribution:     28.34143      -9.68015       8.58426
Nuclear contribution   :    -28.91935      10.17776      -8.92211
                        -----------------------------------------
Total Dipole Moment    :     -0.57792       0.49760      -0.33785
                        -----------------------------------------
Magnitude (a.u.)       :      0.83411
Magnitude (Debye)      :      2.12015

Rotational constants in cm-1:     0.016950     0.008325     0.005997
Rotational constants in MHz :   508.137232   249.583055   179.797449

                             ****ORCA TERMINATED NORMALLY****
TOTAL RUN TIME: 0 days 0 hours 0 minutes 32 seconds 604 msec
