                         Program Version 4.2.1 -  RELEASE  -
|  1> ! wB97X-D3 SP def2-SVP
|  2> %pal
|  3> nprocs 16
|  4> end
|  5>
|  6> * xyz 0 1
|  7> S 	 -94.9887 	 42.7974 	 126.031
|  8> C 	 -93.5797 	 42.0944 	 125.241
|  9> C 	 -93.9732 	 40.9702 	 124.518
| 10> C 	 -95.3645 	 40.7772 	 124.531
| 11> C 	 -96.1074 	 41.7344 	 125.222
| 12> H 	 -95.8475 	 39.9255 	 124.043
| 13> C 	 -93.0173 	 39.8951 	 123.86
| 14> H 	 -92.4236 	 40.3168 	 123.117
| 15> H 	 -93.59 	 39.1369 	 123.362
| 16> C 	 -92.0346 	 39.1896 	 124.832
| 17> H 	 -91.3791 	 39.9566 	 125.18
| 18> H 	 -92.5663 	 38.7036 	 125.662
| 19> C 	 -91.1731 	 38.2299 	 124.062
| 20> H 	 -90.61 	 38.6973 	 123.279
| 21> H 	 -90.4446 	 37.7291 	 124.625
| 22> H 	 -91.7516 	 37.4786 	 123.549
| 23> S 	 -98.2728 	 42.0827 	 126.735
| 24> C 	 -99.886 	 41.9669 	 126.085
| 25> C 	 -99.7829 	 41.7002 	 124.699
| 26> C 	 -98.4585 	 41.6205 	 124.187
| 27> C 	 -97.5288 	 41.8415 	 125.163
| 28> H 	 -100.677 	 41.7644 	 124.12
| 29> C 	 -98.1986 	 41.3358 	 122.778
| 30> H 	 -98.3254 	 40.2938 	 122.629
| 31> H 	 -97.1286 	 41.697 	 122.55
| 32> C 	 -99.0708 	 41.9817 	 121.659
| 33> H 	 -99.1047 	 43.0159 	 122.018
| 34> H 	 -100.039 	 41.5128 	 121.576
| 35> C 	 -98.3924 	 42.0241 	 120.303
| 36> H 	 -98.2558 	 41.0161 	 119.87
| 37> H 	 -97.4533 	 42.5913 	 120.128
| 38> H 	 -99.0264 	 42.4992 	 119.633
| 39> H 	 -92.4927 	 42.3833 	 125.393
| 40> H 	 -100.734 	 42.0529 	 126.73
| 41> *
| 42>
| 43>                          ****END OF INPUT****

CARTESIAN COORDINATES (ANGSTROEM)
---------------------------------
  S    -94.988700   42.797400  126.031000
  C    -93.579700   42.094400  125.241000
  C    -93.973200   40.970200  124.518000
  C    -95.364500   40.777200  124.531000
  C    -96.107400   41.734400  125.222000
  H    -95.847500   39.925500  124.043000
  C    -93.017300   39.895100  123.860000
  H    -92.423600   40.316800  123.117000
  H    -93.590000   39.136900  123.362000
  C    -92.034600   39.189600  124.832000
  H    -91.379100   39.956600  125.180000
  H    -92.566300   38.703600  125.662000
  C    -91.173100   38.229900  124.062000
  H    -90.610000   38.697300  123.279000
  H    -90.444600   37.729100  124.625000
  H    -91.751600   37.478600  123.549000
  S    -98.272800   42.082700  126.735000
  C    -99.886000   41.966900  126.085000
  C    -99.782900   41.700200  124.699000
  C    -98.458500   41.620500  124.187000
  C    -97.528800   41.841500  125.163000
  H    -100.677000   41.764400  124.120000
  C    -98.198600   41.335800  122.778000
  H    -98.325400   40.293800  122.629000
  H    -97.128600   41.697000  122.550000
  C    -99.070800   41.981700  121.659000
  H    -99.104700   43.015900  122.018000
  H    -100.039000   41.512800  121.576000
  C    -98.392400   42.024100  120.303000
  H    -98.255800   41.016100  119.870000
  H    -97.453300   42.591300  120.128000
  H    -99.026400   42.499200  119.633000
  H    -92.492700   42.383300  125.393000
  H    -100.734000   42.052900  126.730000

 Total Charge           Charge          ....    0
 Multiplicity           Mult            ....    1
 Number of Electrons    NEL             ....  134
 Basis Dimension        Dim             ....  322

ORBITAL ENERGIES
----------------

  NO   OCC          E(Eh)            E(eV)
   0   2.0000     -88.968712     -2420.9617
   1   2.0000     -88.961067     -2420.7537
   2   2.0000     -10.326687      -281.0034
   3   2.0000     -10.323267      -280.9104
   4   2.0000     -10.320899      -280.8460
   5   2.0000     -10.320472      -280.8343
   6   2.0000     -10.301941      -280.3301
   7   2.0000     -10.300291      -280.2852
   8   2.0000     -10.294562      -280.1293
   9   2.0000     -10.290012      -280.0055
  10   2.0000     -10.289069      -279.9798
  11   2.0000     -10.288715      -279.9702
  12   2.0000     -10.288320      -279.9594
  13   2.0000     -10.283483      -279.8278
  14   2.0000     -10.275717      -279.6165
  15   2.0000     -10.268310      -279.4149
  16   2.0000      -8.082956      -219.9484
  17   2.0000      -8.076337      -219.7683
  18   2.0000      -6.041604      -164.4004
  19   2.0000      -6.037405      -164.2861
  20   2.0000      -6.034804      -164.2154
  21   2.0000      -6.033716      -164.1858
  22   2.0000      -6.030647      -164.1022
  23   2.0000      -6.027246      -164.0097
  24   2.0000      -1.009475       -27.4692
  25   2.0000      -0.983667       -26.7669
  26   2.0000      -0.913630       -24.8611
  27   2.0000      -0.911471       -24.8024
  28   2.0000      -0.872171       -23.7330
  29   2.0000      -0.858777       -23.3685
  30   2.0000      -0.846130       -23.0244
  31   2.0000      -0.808112       -21.9898
  32   2.0000      -0.784148       -21.3377
  33   2.0000      -0.775528       -21.1032
  34   2.0000      -0.707650       -19.2561
  35   2.0000      -0.705730       -19.2039
  36   2.0000      -0.696604       -18.9556
  37   2.0000      -0.663598       -18.0574
  38   2.0000      -0.634384       -17.2625
  39   2.0000      -0.618433       -16.8284
  40   2.0000      -0.598802       -16.2942
  41   2.0000      -0.581109       -15.8128
  42   2.0000      -0.573455       -15.6045
  43   2.0000      -0.561811       -15.2877
  44   2.0000      -0.528645       -14.3852
  45   2.0000      -0.522884       -14.2284
  46   2.0000      -0.518128       -14.0990
  47   2.0000      -0.516002       -14.0411
  48   2.0000      -0.503437       -13.6992
  49   2.0000      -0.498637       -13.5686
  50   2.0000      -0.489638       -13.3237
  51   2.0000      -0.486145       -13.2287
  52   2.0000      -0.474419       -12.9096
  53   2.0000      -0.471180       -12.8215
  54   2.0000      -0.456892       -12.4327
  55   2.0000      -0.447834       -12.1862
  56   2.0000      -0.440025       -11.9737
  57   2.0000      -0.434630       -11.8269
  58   2.0000      -0.434485       -11.8229
  59   2.0000      -0.425866       -11.5884
  60   2.0000      -0.424396       -11.5484
  61   2.0000      -0.417142       -11.3510
  62   2.0000      -0.407978       -11.1016
  63   2.0000      -0.349601        -9.5131
  64   2.0000      -0.332218        -9.0401
  65   2.0000      -0.329108        -8.9555
  66   2.0000      -0.285655        -7.7731
  67   0.0000       0.024530         0.6675
  68   0.0000       0.071924         1.9571
  69   0.0000       0.109543         2.9808
  70   0.0000       0.122933         3.3452
  71   0.0000       0.140632         3.8268

MULLIKEN ATOMIC CHARGES
-----------------------
   0 S :    0.120012
   1 C :   -0.155146
   2 C :   -0.064777
   3 C :   -0.005843
   4 C :   -0.127682
   5 H :    0.018073
   6 C :    0.079855
   7 H :    0.009813
   8 H :    0.006898
   9 C :   -0.061854
  10 H :    0.018162
  11 H :    0.042713
  12 C :   -0.013291
  13 H :    0.011569
  14 H :    0.020380
  15 H :    0.016157
  16 S :    0.084984
  17 C :   -0.091360
  18 C :   -0.035136
  19 C :   -0.014050
  20 C :   -0.149475
  21 H :    0.016953
  22 C :    0.022174
  23 H :    0.031359
  24 H :    0.052241
  25 C :   -0.077443
  26 H :    0.034075
  27 H :    0.036629
  28 C :   -0.037041
  29 H :    0.025678
  30 H :    0.039670
  31 H :    0.011919
  32 H :    0.074586
  33 H :    0.059198
Sum of atomic charges:   -0.0000000

LOEWDIN ATOMIC CHARGES
----------------------
   0 S :    0.412030
   1 C :   -0.208949
   2 C :   -0.065216
   3 C :   -0.067653
   4 C :   -0.206986
   5 H :    0.032754
   6 C :   -0.018186
   7 H :    0.020605
   8 H :    0.022818
   9 C :   -0.032902
  10 H :    0.018959
  11 H :    0.028452
  12 C :   -0.060743
  13 H :    0.022574
  14 H :    0.020103
  15 H :    0.021945
  16 S :    0.404429
  17 C :   -0.178311
  18 C :   -0.068348
  19 C :   -0.061617
  20 C :   -0.189746
  21 H :    0.026446
  22 C :   -0.039589
  23 H :    0.027586
  24 H :    0.045735
  25 C :   -0.037246
  26 H :    0.029139
  27 H :    0.023241
  28 C :   -0.068832
  29 H :    0.025955
  30 H :    0.032752
  31 H :    0.018872
  32 H :    0.044741
  33 H :    0.025190

  Mayer bond orders larger than 0.100000
B(  0-S ,  1-C ) :   1.1435 B(  0-S ,  4-C ) :   1.1549 B(  1-C ,  2-C ) :   1.5767
B(  1-C ,  4-C ) :   0.1068 B(  1-C , 32-H ) :   0.9621 B(  2-C ,  3-C ) :   1.2959
B(  2-C ,  6-C ) :   1.0026 B(  3-C ,  4-C ) :   1.5150 B(  3-C ,  5-H ) :   0.9956
B(  4-C , 20-C ) :   1.0530 B(  6-C ,  7-H ) :   0.9396 B(  6-C ,  8-H ) :   0.9508
B(  6-C ,  9-C ) :   1.0652 B(  9-C , 10-H ) :   0.9523 B(  9-C , 11-H ) :   0.9592
B(  9-C , 12-C ) :   1.0901 B( 12-C , 13-H ) :   0.9696 B( 12-C , 14-H ) :   0.9709
B( 12-C , 15-H ) :   0.9731 B( 16-S , 17-C ) :   1.1708 B( 16-S , 20-C ) :   1.1389
B( 17-C , 18-C ) :   1.5679 B( 17-C , 20-C ) :   0.1058 B( 17-C , 33-H ) :   0.9768
B( 18-C , 19-C ) :   1.2364 B( 18-C , 21-H ) :   0.9934 B( 19-C , 20-C ) :   1.5954
B( 19-C , 22-C ) :   1.0599 B( 22-C , 23-H ) :   0.9156 B( 22-C , 24-H ) :   0.9397
B( 22-C , 25-C ) :   1.0603 B( 25-C , 26-H ) :   0.9596 B( 25-C , 27-H ) :   0.9453
B( 25-C , 28-C ) :   1.1035 B( 28-C , 29-H ) :   0.9711 B( 28-C , 30-H ) :   0.9704
B( 28-C , 31-H ) :   0.9682

Dispersion correction           -0.013329232
FINAL SINGLE POINT ENERGY     -1339.869161426282

DIPOLE MOMENT
-------------
                                X             Y             Z
Electronic contribution:    -10.13902      13.29531      23.35944
Nuclear contribution   :     10.18076     -13.68007     -23.97955
                        -----------------------------------------
Total Dipole Moment    :      0.04174      -0.38476      -0.62011
                        -----------------------------------------
Magnitude (a.u.)       :      0.73098
Magnitude (Debye)      :      1.85800

Rotational constants in cm-1:     0.017938     0.007800     0.006127
Rotational constants in MHz :   537.780228   233.829441   183.689893

                             ****ORCA TERMINATED NORMALLY****
TOTAL RUN TIME: 0 days 0 hours 0 minutes 31 seconds 18 msec
