                         Program Version 4.2.1 -  RELEASE  -
|  1> ! wB97X-D3 SP def2-SVP
|  2> %pal
|  3> nprocs 16
|  4> end
|  5>
|  6> * xyz 0 1
|  7> S 	 -43.9637 	 20.8321 	 87.4216
|  8> C 	 -44.2165 	 19.1732 	 87.888
|  9> C 	 -43.1616 	 18.6433 	 88.6496
| 10> C 	 -42.161 	 19.5975 	 88.8997
| 11> C 	 -42.4145 	 20.807 	 88.3184
| 12> H 	 -41.2026 	 19.3907 	 89.2866
| 13> C 	 -43.1097 	 17.2357 	 89.1498
| 14> H 	 -42.03 	 17.0274 	 89.2379
| 15> H 	 -43.3889 	 16.5285 	 88.439
| 16> C 	 -43.7977 	 16.98 	 90.4438
| 17> H 	 -43.6048 	 16.0243 	 90.8631
| 18> H 	 -43.2976 	 17.5614 	 91.2372
| 19> C 	 -45.2724 	 17.2596 	 90.5237
| 20> H 	 -45.7583 	 17.0003 	 91.4524
| 21> H 	 -45.5671 	 18.3079 	 90.3629
| 22> H 	 -45.8089 	 16.7536 	 89.7112
| 23> S 	 -42.0442 	 23.4031 	 89.1752
| 24> C 	 -40.6118 	 24.2377 	 88.7526
| 25> C 	 -39.6791 	 23.3614 	 88.2258
| 26> C 	 -40.1851 	 22.016 	 88.0583
| 27> C 	 -41.5338 	 21.9743 	 88.3486
| 28> H 	 -38.6047 	 23.6748 	 87.9886
| 29> C 	 -39.2807 	 20.9423 	 87.4519
| 30> H 	 -38.7735 	 21.2643 	 86.5205
| 31> H 	 -39.7948 	 20.0534 	 87.1358
| 32> C 	 -38.1715 	 20.3442 	 88.4335
| 33> H 	 -37.5326 	 19.6833 	 87.8636
| 34> H 	 -38.717 	 19.7965 	 89.1952
| 35> C 	 -37.3839 	 21.286 	 89.2683
| 36> H 	 -37.9326 	 22.0134 	 89.7839
| 37> H 	 -36.6846 	 21.8323 	 88.6105
| 38> H 	 -36.7767 	 20.8592 	 90.0663
| 39> H 	 -45.0846 	 18.5548 	 87.5567
| 40> H 	 -40.4574 	 25.2861 	 89.0155
| 41> *
| 42>
| 43>                          ****END OF INPUT****

CARTESIAN COORDINATES (ANGSTROEM)
---------------------------------
  S    -43.963700   20.832100   87.421600
  C    -44.216500   19.173200   87.888000
  C    -43.161600   18.643300   88.649600
  C    -42.161000   19.597500   88.899700
  C    -42.414500   20.807000   88.318400
  H    -41.202600   19.390700   89.286600
  C    -43.109700   17.235700   89.149800
  H    -42.030000   17.027400   89.237900
  H    -43.388900   16.528500   88.439000
  C    -43.797700   16.980000   90.443800
  H    -43.604800   16.024300   90.863100
  H    -43.297600   17.561400   91.237200
  C    -45.272400   17.259600   90.523700
  H    -45.758300   17.000300   91.452400
  H    -45.567100   18.307900   90.362900
  H    -45.808900   16.753600   89.711200
  S    -42.044200   23.403100   89.175200
  C    -40.611800   24.237700   88.752600
  C    -39.679100   23.361400   88.225800
  C    -40.185100   22.016000   88.058300
  C    -41.533800   21.974300   88.348600
  H    -38.604700   23.674800   87.988600
  C    -39.280700   20.942300   87.451900
  H    -38.773500   21.264300   86.520500
  H    -39.794800   20.053400   87.135800
  C    -38.171500   20.344200   88.433500
  H    -37.532600   19.683300   87.863600
  H    -38.717000   19.796500   89.195200
  C    -37.383900   21.286000   89.268300
  H    -37.932600   22.013400   89.783900
  H    -36.684600   21.832300   88.610500
  H    -36.776700   20.859200   90.066300
  H    -45.084600   18.554800   87.556700
  H    -40.457400   25.286100   89.015500

 Total Charge           Charge          ....    0
 Multiplicity           Mult            ....    1
 Number of Electrons    NEL             ....  134
 Basis Dimension        Dim             ....  322

ORBITAL ENERGIES
----------------

  NO   OCC          E(Eh)            E(eV)
   0   2.0000     -88.969184     -2420.9746
   1   2.0000     -88.963536     -2420.8209
   2   2.0000     -10.327403      -281.0229
   3   2.0000     -10.323173      -280.9078
   4   2.0000     -10.317366      -280.7498
   5   2.0000     -10.315425      -280.6970
   6   2.0000     -10.305422      -280.4248
   7   2.0000     -10.299754      -280.2705
   8   2.0000     -10.298175      -280.2276
   9   2.0000     -10.296886      -280.1925
  10   2.0000     -10.289104      -279.9808
  11   2.0000     -10.287341      -279.9328
  12   2.0000     -10.284940      -279.8674
  13   2.0000     -10.279357      -279.7155
  14   2.0000     -10.272578      -279.5311
  15   2.0000     -10.268684      -279.4251
  16   2.0000      -8.083291      -219.9575
  17   2.0000      -8.079629      -219.8579
  18   2.0000      -6.041659      -164.4019
  19   2.0000      -6.038056      -164.3039
  20   2.0000      -6.037982      -164.3018
  21   2.0000      -6.034143      -164.1974
  22   2.0000      -6.033985      -164.1931
  23   2.0000      -6.030354      -164.0943
  24   2.0000      -1.009258       -27.4633
  25   2.0000      -0.986320       -26.8391
  26   2.0000      -0.918640       -24.9975
  27   2.0000      -0.907506       -24.6945
  28   2.0000      -0.867405       -23.6033
  29   2.0000      -0.854743       -23.2587
  30   2.0000      -0.848699       -23.0943
  31   2.0000      -0.812914       -22.1205
  32   2.0000      -0.789461       -21.4823
  33   2.0000      -0.776253       -21.1229
  34   2.0000      -0.707562       -19.2537
  35   2.0000      -0.699131       -19.0243
  36   2.0000      -0.689315       -18.7572
  37   2.0000      -0.659379       -17.9426
  38   2.0000      -0.641673       -17.4608
  39   2.0000      -0.623227       -16.9589
  40   2.0000      -0.599126       -16.3030
  41   2.0000      -0.568138       -15.4598
  42   2.0000      -0.564059       -15.3488
  43   2.0000      -0.550377       -14.9765
  44   2.0000      -0.545463       -14.8428
  45   2.0000      -0.533610       -14.5203
  46   2.0000      -0.519025       -14.1234
  47   2.0000      -0.504911       -13.7393
  48   2.0000      -0.497471       -13.5369
  49   2.0000      -0.495432       -13.4814
  50   2.0000      -0.489635       -13.3237
  51   2.0000      -0.485461       -13.2101
  52   2.0000      -0.474915       -12.9231
  53   2.0000      -0.467093       -12.7102
  54   2.0000      -0.461516       -12.5585
  55   2.0000      -0.449064       -12.2196
  56   2.0000      -0.447360       -12.1733
  57   2.0000      -0.442573       -12.0430
  58   2.0000      -0.435498       -11.8505
  59   2.0000      -0.421295       -11.4640
  60   2.0000      -0.419589       -11.4176
  61   2.0000      -0.410512       -11.1706
  62   2.0000      -0.405877       -11.0445
  63   2.0000      -0.344817        -9.3829
  64   2.0000      -0.332327        -9.0431
  65   2.0000      -0.327880        -8.9221
  66   2.0000      -0.295838        -8.0502
  67   0.0000       0.033914         0.9228
  68   0.0000       0.066904         1.8206
  69   0.0000       0.109059         2.9676
  70   0.0000       0.114729         3.1219
  71   0.0000       0.129842         3.5332

MULLIKEN ATOMIC CHARGES
-----------------------
   0 S :    0.122499
   1 C :   -0.132899
   2 C :   -0.106953
   3 C :    0.072856
   4 C :   -0.178193
   5 H :   -0.012274
   6 C :    0.102192
   7 H :    0.013174
   8 H :    0.010455
   9 C :   -0.024888
  10 H :    0.013091
  11 H :    0.012065
  12 C :   -0.055295
  13 H :    0.031251
  14 H :    0.036709
  15 H :    0.014045
  16 S :    0.119293
  17 C :   -0.099684
  18 C :   -0.060539
  19 C :   -0.018722
  20 C :   -0.158115
  21 H :    0.046833
  22 C :    0.048607
  23 H :    0.038374
  24 H :    0.023878
  25 C :   -0.064920
  26 H :    0.032770
  27 H :    0.020719
  28 C :   -0.046824
  29 H :    0.027865
  30 H :    0.016731
  31 H :    0.029351
  32 H :    0.061762
  33 H :    0.064785
Sum of atomic charges:    0.0000000

LOEWDIN ATOMIC CHARGES
----------------------
   0 S :    0.399728
   1 C :   -0.202881
   2 C :   -0.062166
   3 C :   -0.051082
   4 C :   -0.181219
   5 H :    0.026238
   6 C :   -0.030251
   7 H :    0.036876
   8 H :    0.022197
   9 C :   -0.044079
  10 H :    0.021700
  11 H :    0.027021
  12 C :   -0.069531
  13 H :    0.026592
  14 H :    0.027375
  15 H :    0.020673
  16 S :    0.430021
  17 C :   -0.203135
  18 C :   -0.076870
  19 C :   -0.058654
  20 C :   -0.209276
  21 H :    0.042584
  22 C :   -0.030256
  23 H :    0.033835
  24 H :    0.028573
  25 C :   -0.034723
  26 H :    0.024635
  27 H :    0.019956
  28 C :   -0.069615
  29 H :    0.018608
  30 H :    0.021259
  31 H :    0.028749
  32 H :    0.034924
  33 H :    0.032193

  Mayer bond orders larger than 0.100000
B(  0-S ,  1-C ) :   1.1469 B(  0-S ,  4-C ) :   1.1500 B(  1-C ,  2-C ) :   1.5977
B(  1-C , 32-H ) :   0.9610 B(  2-C ,  3-C ) :   1.2561 B(  2-C ,  6-C ) :   1.0228
B(  3-C ,  4-C ) :   1.5834 B(  3-C ,  5-H ) :   0.9970 B(  4-C , 20-C ) :   1.0159
B(  6-C ,  7-H ) :   0.9289 B(  6-C ,  8-H ) :   0.9369 B(  6-C ,  9-C ) :   1.0853
B(  9-C , 10-H ) :   0.9492 B(  9-C , 11-H ) :   0.9437 B(  9-C , 12-C ) :   1.0855
B( 12-C , 13-H ) :   0.9714 B( 12-C , 14-H ) :   0.9694 B( 12-C , 15-H ) :   0.9724
B( 16-S , 17-C ) :   1.1598 B( 16-S , 20-C ) :   1.1671 B( 17-C , 18-C ) :   1.5907
B( 17-C , 33-H ) :   0.9702 B( 18-C , 19-C ) :   1.2365 B( 18-C , 21-H ) :   0.9775
B( 19-C , 20-C ) :   1.5930 B( 19-C , 22-C ) :   1.0396 B( 22-C , 23-H ) :   0.9455
B( 22-C , 24-H ) :   0.9364 B( 22-C , 25-C ) :   1.0609 B( 25-C , 26-H ) :   0.9567
B( 25-C , 27-H ) :   0.9522 B( 25-C , 28-C ) :   1.0973 B( 28-C , 29-H ) :   0.9630
B( 28-C , 30-H ) :   0.9723 B( 28-C , 31-H ) :   0.9699

Dispersion correction           -0.015099043
FINAL SINGLE POINT ENERGY     -1339.879729146300

DIPOLE MOMENT
-------------
                                X             Y             Z
Electronic contribution:    -11.29962      19.19849      -7.86063
Nuclear contribution   :     11.75921     -19.66305       7.98557
                        -----------------------------------------
Total Dipole Moment    :      0.45959      -0.46457       0.12493
                        -----------------------------------------
Magnitude (a.u.)       :      0.66532
Magnitude (Debye)      :      1.69112

Rotational constants in cm-1:     0.020825     0.008365     0.006857
Rotational constants in MHz :   624.310844   250.776566   205.582331

                             ****ORCA TERMINATED NORMALLY****
TOTAL RUN TIME: 0 days 0 hours 0 minutes 30 seconds 367 msec
