                         Program Version 4.2.1 -  RELEASE  -
|  1> ! wB97X-D3 SP def2-SVP
|  2> %pal
|  3> nprocs 16
|  4> end
|  5>
|  6> * xyz 0 1
|  7> S 	 -36.9076 	 35.9754 	 84.4196
|  8> C 	 -38.1922 	 35.7423 	 83.2311
|  9> C 	 -38.8454 	 34.5217 	 83.4629
| 10> C 	 -38.4914 	 33.9575 	 84.7541
| 11> C 	 -37.5732 	 34.6992 	 85.4882
| 12> H 	 -38.8424 	 33.0548 	 85.2186
| 13> C 	 -39.8064 	 33.9382 	 82.4657
| 14> H 	 -40.4463 	 34.7194 	 82.0617
| 15> H 	 -40.4438 	 33.3566 	 83.0957
| 16> C 	 -39.1743 	 33.0267 	 81.3882
| 17> H 	 -39.9114 	 32.6605 	 80.5836
| 18> H 	 -38.3892 	 33.5756 	 80.8439
| 19> C 	 -38.5141 	 31.7895 	 82.0938
| 20> H 	 -37.8446 	 32.127 	 82.9118
| 21> H 	 -39.2324 	 31.1424 	 82.5436
| 22> H 	 -37.9642 	 31.196 	 81.4473
| 23> S 	 -36.8861 	 35.8092 	 87.869
| 24> C 	 -36.558 	 34.7898 	 89.2191
| 25> C 	 -36.4002 	 33.4497 	 88.8953
| 26> C 	 -36.7323 	 33.269 	 87.4579
| 27> C 	 -36.9536 	 34.4617 	 86.7583
| 28> H 	 -36.1198 	 32.623 	 89.5316
| 29> C 	 -36.6321 	 31.8494 	 86.916
| 30> H 	 -37.6792 	 31.6231 	 86.6601
| 31> H 	 -36.4025 	 31.2142 	 87.7891
| 32> C 	 -35.6956 	 31.5759 	 85.7355
| 33> H 	 -34.6642 	 31.7661 	 86.0023
| 34> H 	 -35.9825 	 32.3392 	 84.9456
| 35> C 	 -35.8432 	 30.0992 	 85.2177
| 36> H 	 -36.8513 	 29.838 	 84.9465
| 37> H 	 -35.5677 	 29.4367 	 86.0586
| 38> H 	 -35.0844 	 29.9202 	 84.4098
| 39> H 	 -38.1837 	 36.2963 	 82.2992
| 40> H 	 -36.5179 	 35.1863 	 90.2635
| 41> *
| 42>
| 43>                          ****END OF INPUT****

CARTESIAN COORDINATES (ANGSTROEM)
---------------------------------
  S    -36.907600   35.975400   84.419600
  C    -38.192200   35.742300   83.231100
  C    -38.845400   34.521700   83.462900
  C    -38.491400   33.957500   84.754100
  C    -37.573200   34.699200   85.488200
  H    -38.842400   33.054800   85.218600
  C    -39.806400   33.938200   82.465700
  H    -40.446300   34.719400   82.061700
  H    -40.443800   33.356600   83.095700
  C    -39.174300   33.026700   81.388200
  H    -39.911400   32.660500   80.583600
  H    -38.389200   33.575600   80.843900
  C    -38.514100   31.789500   82.093800
  H    -37.844600   32.127000   82.911800
  H    -39.232400   31.142400   82.543600
  H    -37.964200   31.196000   81.447300
  S    -36.886100   35.809200   87.869000
  C    -36.558000   34.789800   89.219100
  C    -36.400200   33.449700   88.895300
  C    -36.732300   33.269000   87.457900
  C    -36.953600   34.461700   86.758300
  H    -36.119800   32.623000   89.531600
  C    -36.632100   31.849400   86.916000
  H    -37.679200   31.623100   86.660100
  H    -36.402500   31.214200   87.789100
  C    -35.695600   31.575900   85.735500
  H    -34.664200   31.766100   86.002300
  H    -35.982500   32.339200   84.945600
  C    -35.843200   30.099200   85.217700
  H    -36.851300   29.838000   84.946500
  H    -35.567700   29.436700   86.058600
  H    -35.084400   29.920200   84.409800
  H    -38.183700   36.296300   82.299200
  H    -36.517900   35.186300   90.263500

 Total Charge           Charge          ....    0
 Multiplicity           Mult            ....    1
 Number of Electrons    NEL             ....  134
 Basis Dimension        Dim             ....  322

ORBITAL ENERGIES
----------------

  NO   OCC          E(Eh)            E(eV)
   0   2.0000     -88.967277     -2420.9227
   1   2.0000     -88.961057     -2420.7534
   2   2.0000     -10.333694      -281.1941
   3   2.0000     -10.326489      -280.9980
   4   2.0000     -10.325519      -280.9717
   5   2.0000     -10.315978      -280.7120
   6   2.0000     -10.311506      -280.5903
   7   2.0000     -10.307633      -280.4850
   8   2.0000     -10.302220      -280.3377
   9   2.0000     -10.299320      -280.2588
  10   2.0000     -10.298416      -280.2341
  11   2.0000     -10.295741      -280.1614
  12   2.0000     -10.291994      -280.0594
  13   2.0000     -10.289974      -280.0044
  14   2.0000     -10.285362      -279.8789
  15   2.0000     -10.271451      -279.5004
  16   2.0000      -8.082675      -219.9408
  17   2.0000      -8.075215      -219.7378
  18   2.0000      -6.041265      -164.3912
  19   2.0000      -6.036947      -164.2737
  20   2.0000      -6.033741      -164.1864
  21   2.0000      -6.033425      -164.1778
  22   2.0000      -6.029951      -164.0833
  23   2.0000      -6.025847      -163.9716
  24   2.0000      -1.004727       -27.3400
  25   2.0000      -0.978606       -26.6292
  26   2.0000      -0.909531       -24.7496
  27   2.0000      -0.906674       -24.6719
  28   2.0000      -0.868885       -23.6436
  29   2.0000      -0.848687       -23.0940
  30   2.0000      -0.838246       -22.8098
  31   2.0000      -0.815687       -22.1960
  32   2.0000      -0.781934       -21.2775
  33   2.0000      -0.767831       -20.8937
  34   2.0000      -0.707763       -19.2592
  35   2.0000      -0.704405       -19.1678
  36   2.0000      -0.688504       -18.7352
  37   2.0000      -0.668596       -18.1934
  38   2.0000      -0.641626       -17.4595
  39   2.0000      -0.612448       -16.6656
  40   2.0000      -0.591384       -16.0924
  41   2.0000      -0.568168       -15.4606
  42   2.0000      -0.563872       -15.3437
  43   2.0000      -0.551523       -15.0077
  44   2.0000      -0.537016       -14.6130
  45   2.0000      -0.525451       -14.2983
  46   2.0000      -0.513541       -13.9742
  47   2.0000      -0.509002       -13.8506
  48   2.0000      -0.503328       -13.6962
  49   2.0000      -0.498171       -13.5559
  50   2.0000      -0.491566       -13.3762
  51   2.0000      -0.479880       -13.0582
  52   2.0000      -0.474052       -12.8996
  53   2.0000      -0.464897       -12.6505
  54   2.0000      -0.456188       -12.4135
  55   2.0000      -0.448398       -12.2015
  56   2.0000      -0.445255       -12.1160
  57   2.0000      -0.440683       -11.9916
  58   2.0000      -0.433229       -11.7888
  59   2.0000      -0.427039       -11.6203
  60   2.0000      -0.417817       -11.3694
  61   2.0000      -0.413324       -11.2471
  62   2.0000      -0.413046       -11.2396
  63   2.0000      -0.352731        -9.5983
  64   2.0000      -0.328531        -8.9398
  65   2.0000      -0.326147        -8.8749
  66   2.0000      -0.288528        -7.8512
  67   0.0000       0.021795         0.5931
  68   0.0000       0.065969         1.7951
  69   0.0000       0.100443         2.7332
  70   0.0000       0.117556         3.1989
  71   0.0000       0.128544         3.4979

MULLIKEN ATOMIC CHARGES
-----------------------
   0 S :    0.078485
   1 C :   -0.103604
   2 C :   -0.132790
   3 C :    0.029151
   4 C :   -0.141266
   5 H :   -0.003083
   6 C :    0.096273
   7 H :    0.034082
   8 H :    0.008123
   9 C :   -0.077553
  10 H :    0.047225
  11 H :    0.031693
  12 C :   -0.046973
  13 H :    0.044520
  14 H :    0.018370
  15 H :    0.017278
  16 S :    0.117119
  17 C :   -0.099525
  18 C :   -0.018389
  19 C :   -0.102523
  20 C :   -0.112224
  21 H :    0.025986
  22 C :    0.048014
  23 H :    0.027954
  24 H :    0.011356
  25 C :   -0.076023
  26 H :    0.033519
  27 H :    0.053518
  28 C :   -0.054562
  29 H :    0.031781
  30 H :    0.028722
  31 H :    0.049334
  32 H :    0.057605
  33 H :    0.078408
Sum of atomic charges:    0.0000000

LOEWDIN ATOMIC CHARGES
----------------------
   0 S :    0.371880
   1 C :   -0.190040
   2 C :   -0.058355
   3 C :   -0.068650
   4 C :   -0.174639
   5 H :    0.026260
   6 C :   -0.033942
   7 H :    0.033834
   8 H :    0.025419
   9 C :   -0.037622
  10 H :    0.032665
  11 H :    0.022934
  12 C :   -0.062496
  13 H :    0.031761
  14 H :    0.019270
  15 H :    0.014906
  16 S :    0.428032
  17 C :   -0.190106
  18 C :   -0.074696
  19 C :   -0.042038
  20 C :   -0.223010
  21 H :    0.032702
  22 C :   -0.039543
  23 H :    0.030724
  24 H :    0.027472
  25 C :   -0.040709
  26 H :    0.024424
  27 H :    0.031810
  28 C :   -0.066115
  29 H :    0.020194
  30 H :    0.026320
  31 H :    0.034082
  32 H :    0.028000
  33 H :    0.039274

  Mayer bond orders larger than 0.100000
B(  0-S ,  1-C ) :   1.1319 B(  0-S ,  4-C ) :   1.1400 B(  1-C ,  2-C ) :   1.6082
B(  1-C ,  4-C ) :   0.1014 B(  1-C , 32-H ) :   0.9694 B(  2-C ,  3-C ) :   1.2200
B(  2-C ,  6-C ) :   1.0188 B(  3-C ,  4-C ) :   1.5900 B(  3-C ,  5-H ) :   0.9960
B(  4-C , 20-C ) :   1.0439 B(  6-C ,  7-H ) :   0.9435 B(  6-C ,  8-H ) :   0.9396
B(  6-C ,  9-C ) :   1.0534 B(  9-C , 10-H ) :   0.9581 B(  9-C , 11-H ) :   0.9593
B(  9-C , 12-C ) :   1.0686 B( 12-C , 13-H ) :   0.9735 B( 12-C , 14-H ) :   0.9743
B( 12-C , 15-H ) :   0.9721 B( 16-S , 17-C ) :   1.1862 B( 16-S , 20-C ) :   1.1158
B( 17-C , 18-C ) :   1.5802 B( 17-C , 33-H ) :   0.9586 B( 18-C , 19-C ) :   1.2498
B( 18-C , 21-H ) :   0.9891 B( 19-C , 20-C ) :   1.5868 B( 19-C , 22-C ) :   1.0381
B( 22-C , 23-H ) :   0.9266 B( 22-C , 24-H ) :   0.9332 B( 22-C , 25-C ) :   1.0597
B( 25-C , 26-H ) :   0.9553 B( 25-C , 27-H ) :   0.9510 B( 25-C , 28-C ) :   1.0738
B( 28-C , 29-H ) :   0.9769 B( 28-C , 30-H ) :   0.9742 B( 28-C , 31-H ) :   0.9753

Dispersion correction           -0.015686568
FINAL SINGLE POINT ENERGY     -1339.880513455171

DIPOLE MOMENT
-------------
                                X             Y             Z
Electronic contribution:      3.16591      26.45722      14.76595
Nuclear contribution   :     -3.28285     -27.18349     -14.78723
                        -----------------------------------------
Total Dipole Moment    :     -0.11694      -0.72626      -0.02129
                        -----------------------------------------
Magnitude (a.u.)       :      0.73593
Magnitude (Debye)      :      1.87058

Rotational constants in cm-1:     0.018433     0.010118     0.007212
Rotational constants in MHz :   552.621887   303.315609   216.207953

                             ****ORCA TERMINATED NORMALLY****
TOTAL RUN TIME: 0 days 0 hours 0 minutes 32 seconds 151 msec
