                         Program Version 4.2.1 -  RELEASE  -
|  1> ! wB97X-D3 SP def2-SVP
|  2> %pal
|  3> nprocs 16
|  4> end
|  5>
|  6> * xyz 0 1
|  7> S 	 -58.3455 	 52.3067 	 134.276
|  8> C 	 -58.376 	 50.9582 	 135.342
|  9> C 	 -59.689 	 50.8296 	 135.92
| 10> C 	 -60.5656 	 51.8477 	 135.458
| 11> C 	 -59.9489 	 52.8418 	 134.723
| 12> H 	 -61.6793 	 51.9101 	 135.679
| 13> C 	 -60.2363 	 49.6363 	 136.751
| 14> H 	 -59.5968 	 48.7376 	 136.516
| 15> H 	 -61.2631 	 49.4724 	 136.339
| 16> C 	 -60.2074 	 49.7742 	 138.324
| 17> H 	 -60.6607 	 50.7237 	 138.492
| 18> H 	 -60.8309 	 48.9851 	 138.787
| 19> C 	 -58.8182 	 49.4869 	 138.86
| 20> H 	 -58.1058 	 50.0976 	 138.372
| 21> H 	 -58.7606 	 49.6035 	 139.968
| 22> H 	 -58.4414 	 48.4324 	 138.631
| 23> S 	 -60.5362 	 54.199 	 132.466
| 24> C 	 -61.2166 	 55.7937 	 132.611
| 25> C 	 -61.4038 	 56.2102 	 133.923
| 26> C 	 -61.0746 	 55.1838 	 134.83
| 27> C 	 -60.542 	 54.0207 	 134.177
| 28> H 	 -61.6393 	 57.2464 	 134.112
| 29> C 	 -61.3018 	 55.3516 	 136.352
| 30> H 	 -61.9335 	 54.5051 	 136.676
| 31> H 	 -61.7868 	 56.3291 	 136.544
| 32> C 	 -60.0906 	 55.3458 	 137.301
| 33> H 	 -59.5122 	 56.2454 	 137.115
| 34> H 	 -59.3514 	 54.5272 	 137.064
| 35> C 	 -60.4685 	 55.2234 	 138.854
| 36> H 	 -61.1377 	 54.3178 	 139.081
| 37> H 	 -61.0778 	 56.0291 	 139.246
| 38> H 	 -59.5656 	 54.9496 	 139.407
| 39> H 	 -57.6145 	 50.1408 	 135.355
| 40> H 	 -61.6533 	 56.2424 	 131.755
| 41> *
| 42>
| 43>                          ****END OF INPUT****

CARTESIAN COORDINATES (ANGSTROEM)
---------------------------------
  S    -58.345500   52.306700  134.276000
  C    -58.376000   50.958200  135.342000
  C    -59.689000   50.829600  135.920000
  C    -60.565600   51.847700  135.458000
  C    -59.948900   52.841800  134.723000
  H    -61.679300   51.910100  135.679000
  C    -60.236300   49.636300  136.751000
  H    -59.596800   48.737600  136.516000
  H    -61.263100   49.472400  136.339000
  C    -60.207400   49.774200  138.324000
  H    -60.660700   50.723700  138.492000
  H    -60.830900   48.985100  138.787000
  C    -58.818200   49.486900  138.860000
  H    -58.105800   50.097600  138.372000
  H    -58.760600   49.603500  139.968000
  H    -58.441400   48.432400  138.631000
  S    -60.536200   54.199000  132.466000
  C    -61.216600   55.793700  132.611000
  C    -61.403800   56.210200  133.923000
  C    -61.074600   55.183800  134.830000
  C    -60.542000   54.020700  134.177000
  H    -61.639300   57.246400  134.112000
  C    -61.301800   55.351600  136.352000
  H    -61.933500   54.505100  136.676000
  H    -61.786800   56.329100  136.544000
  C    -60.090600   55.345800  137.301000
  H    -59.512200   56.245400  137.115000
  H    -59.351400   54.527200  137.064000
  C    -60.468500   55.223400  138.854000
  H    -61.137700   54.317800  139.081000
  H    -61.077800   56.029100  139.246000
  H    -59.565600   54.949600  139.407000
  H    -57.614500   50.140800  135.355000
  H    -61.653300   56.242400  131.755000

 Total Charge           Charge          ....    0
 Multiplicity           Mult            ....    1
 Number of Electrons    NEL             ....  134
 Basis Dimension        Dim             ....  322

ORBITAL ENERGIES
----------------

  NO   OCC          E(Eh)            E(eV)
   0   2.0000     -88.970278     -2421.0043
   1   2.0000     -88.968754     -2420.9629
   2   2.0000     -10.326856      -281.0080
   3   2.0000     -10.326155      -280.9890
   4   2.0000     -10.321549      -280.8636
   5   2.0000     -10.314260      -280.6653
   6   2.0000     -10.311250      -280.5834
   7   2.0000     -10.308206      -280.5005
   8   2.0000     -10.301520      -280.3186
   9   2.0000     -10.297790      -280.2171
  10   2.0000     -10.296584      -280.1843
  11   2.0000     -10.296094      -280.1710
  12   2.0000     -10.289849      -280.0010
  13   2.0000     -10.288426      -279.9623
  14   2.0000     -10.286433      -279.9081
  15   2.0000     -10.281137      -279.7639
  16   2.0000      -8.085619      -220.0209
  17   2.0000      -8.083689      -219.9683
  18   2.0000      -6.043811      -164.4605
  19   2.0000      -6.042087      -164.4136
  20   2.0000      -6.039952      -164.3555
  21   2.0000      -6.038005      -164.3025
  22   2.0000      -6.036778      -164.2691
  23   2.0000      -6.034718      -164.2130
  24   2.0000      -1.010279       -27.4911
  25   2.0000      -0.984973       -26.8025
  26   2.0000      -0.904803       -24.6209
  27   2.0000      -0.898254       -24.4427
  28   2.0000      -0.872002       -23.7284
  29   2.0000      -0.849628       -23.1196
  30   2.0000      -0.845051       -22.9950
  31   2.0000      -0.808108       -21.9897
  32   2.0000      -0.777777       -21.1644
  33   2.0000      -0.765480       -20.8298
  34   2.0000      -0.707067       -19.2403
  35   2.0000      -0.696144       -18.9431
  36   2.0000      -0.687717       -18.7137
  37   2.0000      -0.663786       -18.0625
  38   2.0000      -0.636652       -17.3242
  39   2.0000      -0.617537       -16.8040
  40   2.0000      -0.594455       -16.1759
  41   2.0000      -0.566125       -15.4051
  42   2.0000      -0.559715       -15.2306
  43   2.0000      -0.546532       -14.8719
  44   2.0000      -0.538317       -14.6484
  45   2.0000      -0.524594       -14.2749
  46   2.0000      -0.511497       -13.9185
  47   2.0000      -0.505368       -13.7518
  48   2.0000      -0.500072       -13.6077
  49   2.0000      -0.491169       -13.3654
  50   2.0000      -0.489088       -13.3088
  51   2.0000      -0.479102       -13.0370
  52   2.0000      -0.473916       -12.8959
  53   2.0000      -0.468811       -12.7570
  54   2.0000      -0.455007       -12.3814
  55   2.0000      -0.449619       -12.2348
  56   2.0000      -0.440695       -11.9919
  57   2.0000      -0.435432       -11.8487
  58   2.0000      -0.429610       -11.6903
  59   2.0000      -0.425466       -11.5775
  60   2.0000      -0.422455       -11.4956
  61   2.0000      -0.414147       -11.2695
  62   2.0000      -0.408949       -11.1281
  63   2.0000      -0.346517        -9.4292
  64   2.0000      -0.334798        -9.1103
  65   2.0000      -0.326725        -8.8906
  66   2.0000      -0.287550        -7.8246
  67   0.0000       0.026108         0.7104
  68   0.0000       0.058179         1.5831
  69   0.0000       0.109503         2.9797
  70   0.0000       0.119492         3.2515
  71   0.0000       0.123467         3.3597

MULLIKEN ATOMIC CHARGES
-----------------------
   0 S :    0.124467
   1 C :   -0.131630
   2 C :   -0.098785
   3 C :    0.006804
   4 C :   -0.167536
   5 H :    0.043351
   6 C :   -0.003179
   7 H :    0.024019
   8 H :    0.042090
   9 C :   -0.025150
  10 H :    0.026169
  11 H :    0.035509
  12 C :   -0.071656
  13 H :    0.023208
  14 H :    0.046374
  15 H :    0.032201
  16 S :    0.126695
  17 C :   -0.098713
  18 C :   -0.041846
  19 C :   -0.005110
  20 C :   -0.181881
  21 H :    0.027740
  22 C :    0.068381
  23 H :    0.031704
  24 H :    0.025411
  25 C :   -0.096585
  26 H :    0.028369
  27 H :    0.049909
  28 C :   -0.077164
  29 H :    0.027048
  30 H :    0.039180
  31 H :    0.045343
  32 H :    0.071732
  33 H :    0.053531
Sum of atomic charges:   -0.0000000

LOEWDIN ATOMIC CHARGES
----------------------
   0 S :    0.427249
   1 C :   -0.226255
   2 C :   -0.067677
   3 C :   -0.074076
   4 C :   -0.207240
   5 H :    0.043537
   6 C :   -0.035114
   7 H :    0.029364
   8 H :    0.035318
   9 C :   -0.038973
  10 H :    0.019465
  11 H :    0.028894
  12 C :   -0.070326
  13 H :    0.015855
  14 H :    0.031171
  15 H :    0.031959
  16 S :    0.438032
  17 C :   -0.185896
  18 C :   -0.069770
  19 C :   -0.045802
  20 C :   -0.219720
  21 H :    0.036283
  22 C :   -0.036180
  23 H :    0.033156
  24 H :    0.033195
  25 C :   -0.044670
  26 H :    0.020955
  27 H :    0.031536
  28 C :   -0.075562
  29 H :    0.029719
  30 H :    0.022324
  31 H :    0.031041
  32 H :    0.038316
  33 H :    0.019893

  Mayer bond orders larger than 0.100000
B(  0-S ,  1-C ) :   1.1654 B(  0-S ,  4-C ) :   1.1581 B(  1-C ,  2-C ) :   1.5504
B(  1-C ,  4-C ) :   0.1096 B(  1-C , 32-H ) :   0.9619 B(  2-C ,  3-C ) :   1.2897
B(  2-C ,  6-C ) :   1.0120 B(  3-C ,  4-C ) :   1.5458 B(  3-C ,  5-H ) :   0.9782
B(  4-C , 20-C ) :   1.0643 B(  6-C ,  7-H ) :   0.9478 B(  6-C ,  8-H ) :   0.9494
B(  6-C ,  9-C ) :   1.0540 B(  9-C , 10-H ) :   0.9585 B(  9-C , 11-H ) :   0.9565
B(  9-C , 12-C ) :   1.0717 B( 12-C , 13-H ) :   0.9778 B( 12-C , 14-H ) :   0.9735
B( 12-C , 15-H ) :   0.9713 B( 16-S , 17-C ) :   1.1825 B( 16-S , 20-C ) :   1.1780
B( 17-C , 18-C ) :   1.5615 B( 17-C , 20-C ) :   0.1145 B( 17-C , 33-H ) :   0.9682
B( 18-C , 19-C ) :   1.2962 B( 18-C , 21-H ) :   0.9920 B( 19-C , 20-C ) :   1.5212
B( 19-C , 22-C ) :   1.0347 B( 22-C , 23-H ) :   0.9370 B( 22-C , 24-H ) :   0.9393
B( 22-C , 25-C ) :   1.0573 B( 25-C , 26-H ) :   0.9555 B( 25-C , 27-H ) :   0.9594
B( 25-C , 28-C ) :   1.0654 B( 28-C , 29-H ) :   0.9744 B( 28-C , 30-H ) :   0.9776
B( 28-C , 31-H ) :   0.9759

Dispersion correction           -0.014631044
FINAL SINGLE POINT ENERGY     -1339.869865868910

DIPOLE MOMENT
-------------
                                X             Y             Z
Electronic contribution:      2.94712       6.26543     -30.01019
Nuclear contribution   :     -3.27537      -6.30244      30.34445
                        -----------------------------------------
Total Dipole Moment    :     -0.32825      -0.03701       0.33426
                        -----------------------------------------
Magnitude (a.u.)       :      0.46994
Magnitude (Debye)      :      1.19450

Rotational constants in cm-1:     0.019310     0.009088     0.006948
Rotational constants in MHz :   578.893035   272.441030   208.293190

                             ****ORCA TERMINATED NORMALLY****
TOTAL RUN TIME: 0 days 0 hours 0 minutes 33 seconds 919 msec
