                         Program Version 4.2.1 -  RELEASE  -
|  1> ! wB97X-D3 SP def2-SVP
|  2> %pal
|  3> nprocs 16
|  4> end
|  5>
|  6> * xyz 0 1
|  7> S 	 30.0543 	 -9.14122 	 80.358
|  8> C 	 31.2286 	 -8.9426 	 79.0116
|  9> C 	 31.5387 	 -7.6085 	 78.8342
| 10> C 	 30.857 	 -6.69867 	 79.7107
| 11> C 	 29.966 	 -7.43946 	 80.5416
| 12> H 	 30.991 	 -5.59878 	 79.8293
| 13> C 	 32.5793 	 -7.16044 	 77.7069
| 14> H 	 33.2029 	 -7.92057 	 77.3405
| 15> H 	 33.2635 	 -6.46852 	 78.2075
| 16> C 	 31.9709 	 -6.33705 	 76.6093
| 17> H 	 30.9413 	 -6.72329 	 76.3658
| 18> H 	 31.6626 	 -5.36611 	 76.8674
| 19> C 	 32.7768 	 -6.24512 	 75.2762
| 20> H 	 32.9233 	 -7.29594 	 74.9886
| 21> H 	 32.1128 	 -5.77845 	 74.4925
| 22> H 	 33.7259 	 -5.8017 	 75.3345
| 23> S 	 29.6966 	 -6.95248 	 83.1704
| 24> C 	 28.35 	 -5.9328 	 83.7417
| 25> C 	 27.4921 	 -5.56713 	 82.7392
| 26> C 	 27.9626 	 -6.0037 	 81.4173
| 27> C 	 29.0636 	 -6.84658 	 81.5382
| 28> H 	 26.7116 	 -4.79501 	 82.9542
| 29> C 	 27.263 	 -5.61806 	 80.1363
| 30> H 	 26.2166 	 -5.51566 	 80.2514
| 31> H 	 27.3751 	 -6.53011 	 79.5132
| 32> C 	 27.6866 	 -4.27997 	 79.4783
| 33> H 	 27.1836 	 -4.16293 	 78.4914
| 34> H 	 28.7966 	 -4.31826 	 79.3465
| 35> C 	 27.219 	 -3.11694 	 80.3478
| 36> H 	 27.3439 	 -2.24913 	 79.7952
| 37> H 	 27.814 	 -2.9958 	 81.2974
| 38> H 	 26.1568 	 -3.21171 	 80.4569
| 39> H 	 31.7329 	 -9.81511 	 78.5829
| 40> H 	 28.1797 	 -5.57946 	 84.7976
| 41> *
| 42>
| 43>                          ****END OF INPUT****

CARTESIAN COORDINATES (ANGSTROEM)
---------------------------------
  S     30.054300   -9.141220   80.358000
  C     31.228600   -8.942600   79.011600
  C     31.538700   -7.608500   78.834200
  C     30.857000   -6.698670   79.710700
  C     29.966000   -7.439460   80.541600
  H     30.991000   -5.598780   79.829300
  C     32.579300   -7.160440   77.706900
  H     33.202900   -7.920570   77.340500
  H     33.263500   -6.468520   78.207500
  C     31.970900   -6.337050   76.609300
  H     30.941300   -6.723290   76.365800
  H     31.662600   -5.366110   76.867400
  C     32.776800   -6.245120   75.276200
  H     32.923300   -7.295940   74.988600
  H     32.112800   -5.778450   74.492500
  H     33.725900   -5.801700   75.334500
  S     29.696600   -6.952480   83.170400
  C     28.350000   -5.932800   83.741700
  C     27.492100   -5.567130   82.739200
  C     27.962600   -6.003700   81.417300
  C     29.063600   -6.846580   81.538200
  H     26.711600   -4.795010   82.954200
  C     27.263000   -5.618060   80.136300
  H     26.216600   -5.515660   80.251400
  H     27.375100   -6.530110   79.513200
  C     27.686600   -4.279970   79.478300
  H     27.183600   -4.162930   78.491400
  H     28.796600   -4.318260   79.346500
  C     27.219000   -3.116940   80.347800
  H     27.343900   -2.249130   79.795200
  H     27.814000   -2.995800   81.297400
  H     26.156800   -3.211710   80.456900
  H     31.732900   -9.815110   78.582900
  H     28.179700   -5.579460   84.797600

 Total Charge           Charge          ....    0
 Multiplicity           Mult            ....    1
 Number of Electrons    NEL             ....  134
 Basis Dimension        Dim             ....  322

ORBITAL ENERGIES
----------------

  NO   OCC          E(Eh)            E(eV)
   0   2.0000     -88.968720     -2420.9620
   1   2.0000     -88.964984     -2420.8603
   2   2.0000     -10.332509      -281.1619
   3   2.0000     -10.325378      -280.9678
   4   2.0000     -10.321220      -280.8547
   5   2.0000     -10.317640      -280.7573
   6   2.0000     -10.311113      -280.5797
   7   2.0000     -10.308264      -280.5021
   8   2.0000     -10.305360      -280.4231
   9   2.0000     -10.297894      -280.2199
  10   2.0000     -10.292847      -280.0826
  11   2.0000     -10.291906      -280.0570
  12   2.0000     -10.286607      -279.9128
  13   2.0000     -10.282131      -279.7910
  14   2.0000     -10.280653      -279.7508
  15   2.0000     -10.273989      -279.5695
  16   2.0000      -8.083330      -219.9586
  17   2.0000      -8.079262      -219.8479
  18   2.0000      -6.041665      -164.4021
  19   2.0000      -6.037926      -164.3003
  20   2.0000      -6.037836      -164.2979
  21   2.0000      -6.034294      -164.2015
  22   2.0000      -6.033901      -164.1908
  23   2.0000      -6.029813      -164.0796
  24   2.0000      -1.002148       -27.2698
  25   2.0000      -0.976602       -26.5747
  26   2.0000      -0.909612       -24.7518
  27   2.0000      -0.907653       -24.6985
  28   2.0000      -0.865742       -23.5580
  29   2.0000      -0.846658       -23.0387
  30   2.0000      -0.843680       -22.9577
  31   2.0000      -0.810468       -22.0540
  32   2.0000      -0.784658       -21.3516
  33   2.0000      -0.771280       -20.9876
  34   2.0000      -0.705952       -19.2099
  35   2.0000      -0.697254       -18.9732
  36   2.0000      -0.683714       -18.6048
  37   2.0000      -0.654963       -17.8225
  38   2.0000      -0.643215       -17.5028
  39   2.0000      -0.613686       -16.6992
  40   2.0000      -0.592756       -16.1297
  41   2.0000      -0.562743       -15.3130
  42   2.0000      -0.557444       -15.1688
  43   2.0000      -0.549097       -14.9417
  44   2.0000      -0.547725       -14.9043
  45   2.0000      -0.524842       -14.2817
  46   2.0000      -0.514427       -13.9983
  47   2.0000      -0.511690       -13.9238
  48   2.0000      -0.499921       -13.6035
  49   2.0000      -0.492932       -13.4134
  50   2.0000      -0.488741       -13.2993
  51   2.0000      -0.478614       -13.0237
  52   2.0000      -0.472487       -12.8570
  53   2.0000      -0.465893       -12.6776
  54   2.0000      -0.457770       -12.4566
  55   2.0000      -0.446851       -12.1594
  56   2.0000      -0.444123       -12.0852
  57   2.0000      -0.441126       -12.0036
  58   2.0000      -0.432940       -11.7809
  59   2.0000      -0.425296       -11.5729
  60   2.0000      -0.419653       -11.4193
  61   2.0000      -0.415435       -11.3046
  62   2.0000      -0.401155       -10.9160
  63   2.0000      -0.338448        -9.2096
  64   2.0000      -0.333661        -9.0794
  65   2.0000      -0.319602        -8.6968
  66   2.0000      -0.305624        -8.3164
  67   0.0000       0.039142         1.0651
  68   0.0000       0.058541         1.5930
  69   0.0000       0.110637         3.0106
  70   0.0000       0.115787         3.1507
  71   0.0000       0.123410         3.3581

MULLIKEN ATOMIC CHARGES
-----------------------
   0 S :    0.117036
   1 C :   -0.142693
   2 C :   -0.076367
   3 C :    0.037060
   4 C :   -0.189652
   5 H :    0.045461
   6 C :    0.116739
   7 H :    0.004770
   8 H :    0.023878
   9 C :   -0.091344
  10 H :    0.025441
  11 H :    0.008415
  12 C :   -0.052906
  13 H :    0.026806
  14 H :    0.045793
  15 H :    0.031498
  16 S :    0.107131
  17 C :   -0.114469
  18 C :   -0.039588
  19 C :   -0.042299
  20 C :   -0.173965
  21 H :    0.042774
  22 C :    0.068571
  23 H :    0.005373
  24 H :    0.039202
  25 C :   -0.082322
  26 H :    0.039132
  27 H :    0.028518
  28 C :   -0.030561
  29 H :    0.013669
  30 H :    0.056565
  31 H :    0.019414
  32 H :    0.060688
  33 H :    0.072232
Sum of atomic charges:   -0.0000000

LOEWDIN ATOMIC CHARGES
----------------------
   0 S :    0.410215
   1 C :   -0.195076
   2 C :   -0.051660
   3 C :   -0.068144
   4 C :   -0.208543
   5 H :    0.042627
   6 C :   -0.022907
   7 H :    0.020130
   8 H :    0.033513
   9 C :   -0.050005
  10 H :    0.028457
  11 H :    0.012335
  12 C :   -0.061473
  13 H :    0.024938
  14 H :    0.036563
  15 H :    0.015150
  16 S :    0.390538
  17 C :   -0.185359
  18 C :   -0.079845
  19 C :   -0.049098
  20 C :   -0.205217
  21 H :    0.041134
  22 C :   -0.037696
  23 H :    0.021966
  24 H :    0.037764
  25 C :   -0.035648
  26 H :    0.029915
  27 H :    0.022551
  28 C :   -0.064308
  29 H :    0.016785
  30 H :    0.035939
  31 H :    0.022327
  32 H :    0.031457
  33 H :    0.040675

  Mayer bond orders larger than 0.100000
B(  0-S ,  1-C ) :   1.1191 B(  0-S ,  4-C ) :   1.1948 B(  1-C ,  2-C ) :   1.6187
B(  1-C ,  4-C ) :   0.1008 B(  1-C , 32-H ) :   0.9710 B(  2-C ,  3-C ) :   1.2361
B(  2-C ,  6-C ) :   1.0146 B(  3-C ,  4-C ) :   1.5502 B(  3-C ,  5-H ) :   0.9849
B(  4-C , 20-C ) :   0.9913 B(  6-C ,  7-H ) :   0.9533 B(  6-C ,  8-H ) :   0.9356
B(  6-C ,  9-C ) :   1.0500 B(  9-C , 10-H ) :   0.9566 B(  9-C , 11-H ) :   0.9520
B(  9-C , 12-C ) :   1.0816 B( 12-C , 13-H ) :   0.9776 B( 12-C , 14-H ) :   0.9744
B( 12-C , 15-H ) :   0.9787 B( 16-S , 17-C ) :   1.1315 B( 16-S , 20-C ) :   1.1406
B( 17-C , 18-C ) :   1.6709 B( 17-C , 33-H ) :   0.9558 B( 18-C , 19-C ) :   1.1951
B( 18-C , 21-H ) :   0.9737 B( 19-C , 20-C ) :   1.6466 B( 19-C , 22-C ) :   1.0447
B( 22-C , 23-H ) :   0.9386 B( 22-C , 24-H ) :   0.9322 B( 22-C , 25-C ) :   1.0633
B( 25-C , 26-H ) :   0.9542 B( 25-C , 27-H ) :   0.9535 B( 25-C , 28-C ) :   1.0815
B( 28-C , 29-H ) :   0.9691 B( 28-C , 30-H ) :   0.9700 B( 28-C , 31-H ) :   0.9709

Dispersion correction           -0.014562404
FINAL SINGLE POINT ENERGY     -1339.866925124368

DIPOLE MOMENT
-------------
                                X             Y             Z
Electronic contribution:     -0.60685     -18.28338      23.31902
Nuclear contribution   :      0.61875      18.85700     -23.70989
                        -----------------------------------------
Total Dipole Moment    :      0.01190       0.57362      -0.39087
                        -----------------------------------------
Magnitude (a.u.)       :      0.69423
Magnitude (Debye)      :      1.76460

Rotational constants in cm-1:     0.018592     0.008635     0.006568
Rotational constants in MHz :   557.381868   258.873924   196.903839

                             ****ORCA TERMINATED NORMALLY****
TOTAL RUN TIME: 0 days 0 hours 0 minutes 30 seconds 358 msec
