                         Program Version 4.2.1 -  RELEASE  -
|  1> ! wB97X-D3 SP def2-SVP
|  2> %pal
|  3> nprocs 16
|  4> end
|  5>
|  6> * xyz 0 1
|  7> S 	 -49.6143 	 59.5975 	 130.507
|  8> C 	 -48.6395 	 59.56 	 129.046
|  9> C 	 -48.3174 	 60.7995 	 128.559
| 10> C 	 -48.6269 	 61.7724 	 129.497
| 11> C 	 -49.2861 	 61.3785 	 130.655
| 12> H 	 -48.4598 	 62.8127 	 129.285
| 13> C 	 -47.9044 	 61.0196 	 127.128
| 14> H 	 -48.7587 	 61.6592 	 126.745
| 15> H 	 -48.0486 	 60.0941 	 126.605
| 16> C 	 -46.5275 	 61.681 	 126.99
| 17> H 	 -46.5143 	 62.6907 	 127.476
| 18> H 	 -45.7639 	 61.0203 	 127.54
| 19> C 	 -46.1641 	 61.6948 	 125.541
| 20> H 	 -45.1936 	 62.0638 	 125.318
| 21> H 	 -46.2687 	 60.6846 	 125.162
| 22> H 	 -46.9564 	 62.1964 	 124.971
| 23> S 	 -51.7719 	 61.9178 	 131.716
| 24> C 	 -52.0438 	 63.4323 	 132.599
| 25> C 	 -50.8472 	 64.1195 	 132.657
| 26> C 	 -49.7554 	 63.4501 	 132.102
| 27> C 	 -50.0564 	 62.24 	 131.534
| 28> H 	 -50.7701 	 65.1155 	 132.931
| 29> C 	 -48.5137 	 64.2039 	 131.943
| 30> H 	 -48.8484 	 65.1989 	 132.088
| 31> H 	 -47.9417 	 64.1102 	 130.95
| 32> C 	 -47.4301 	 63.9471 	 132.994
| 33> H 	 -47.9568 	 63.6609 	 133.935
| 34> H 	 -46.8844 	 64.8737 	 132.957
| 35> C 	 -46.4088 	 62.8607 	 132.589
| 36> H 	 -46.6832 	 61.8151 	 132.494
| 37> H 	 -45.6599 	 62.8816 	 133.385
| 38> H 	 -45.8453 	 63.1327 	 131.655
| 39> H 	 -48.5249 	 58.6374 	 128.403
| 40> H 	 -52.9765 	 63.8755 	 132.982
| 41> *
| 42>
| 43>                          ****END OF INPUT****

CARTESIAN COORDINATES (ANGSTROEM)
---------------------------------
  S    -49.614300   59.597500  130.507000
  C    -48.639500   59.560000  129.046000
  C    -48.317400   60.799500  128.559000
  C    -48.626900   61.772400  129.497000
  C    -49.286100   61.378500  130.655000
  H    -48.459800   62.812700  129.285000
  C    -47.904400   61.019600  127.128000
  H    -48.758700   61.659200  126.745000
  H    -48.048600   60.094100  126.605000
  C    -46.527500   61.681000  126.990000
  H    -46.514300   62.690700  127.476000
  H    -45.763900   61.020300  127.540000
  C    -46.164100   61.694800  125.541000
  H    -45.193600   62.063800  125.318000
  H    -46.268700   60.684600  125.162000
  H    -46.956400   62.196400  124.971000
  S    -51.771900   61.917800  131.716000
  C    -52.043800   63.432300  132.599000
  C    -50.847200   64.119500  132.657000
  C    -49.755400   63.450100  132.102000
  C    -50.056400   62.240000  131.534000
  H    -50.770100   65.115500  132.931000
  C    -48.513700   64.203900  131.943000
  H    -48.848400   65.198900  132.088000
  H    -47.941700   64.110200  130.950000
  C    -47.430100   63.947100  132.994000
  H    -47.956800   63.660900  133.935000
  H    -46.884400   64.873700  132.957000
  C    -46.408800   62.860700  132.589000
  H    -46.683200   61.815100  132.494000
  H    -45.659900   62.881600  133.385000
  H    -45.845300   63.132700  131.655000
  H    -48.524900   58.637400  128.403000
  H    -52.976500   63.875500  132.982000

 Total Charge           Charge          ....    0
 Multiplicity           Mult            ....    1
 Number of Electrons    NEL             ....  134
 Basis Dimension        Dim             ....  322

ORBITAL ENERGIES
----------------

  NO   OCC          E(Eh)            E(eV)
   0   2.0000     -88.967913     -2420.9400
   1   2.0000     -88.966100     -2420.8907
   2   2.0000     -10.334914      -281.2273
   3   2.0000     -10.325212      -280.9633
   4   2.0000     -10.320030      -280.8223
   5   2.0000     -10.315996      -280.7125
   6   2.0000     -10.298382      -280.2332
   7   2.0000     -10.297139      -280.1994
   8   2.0000     -10.294300      -280.1221
   9   2.0000     -10.292806      -280.0815
  10   2.0000     -10.288929      -279.9760
  11   2.0000     -10.284754      -279.8624
  12   2.0000     -10.284229      -279.8481
  13   2.0000     -10.283338      -279.8239
  14   2.0000     -10.275025      -279.5976
  15   2.0000     -10.274386      -279.5803
  16   2.0000      -8.081414      -219.9064
  17   2.0000      -8.080178      -219.8728
  18   2.0000      -6.039948      -164.3554
  19   2.0000      -6.038830      -164.3249
  20   2.0000      -6.036273      -164.2553
  21   2.0000      -6.034712      -164.2129
  22   2.0000      -6.032039      -164.1401
  23   2.0000      -6.030860      -164.1081
  24   2.0000      -1.007866       -27.4254
  25   2.0000      -0.986411       -26.8416
  26   2.0000      -0.918622       -24.9970
  27   2.0000      -0.911881       -24.8135
  28   2.0000      -0.874031       -23.7836
  29   2.0000      -0.852332       -23.1931
  30   2.0000      -0.848801       -23.0970
  31   2.0000      -0.815759       -22.1979
  32   2.0000      -0.780713       -21.2443
  33   2.0000      -0.769893       -20.9499
  34   2.0000      -0.711951       -19.3732
  35   2.0000      -0.696178       -18.9440
  36   2.0000      -0.685874       -18.6636
  37   2.0000      -0.671727       -18.2786
  38   2.0000      -0.636771       -17.3274
  39   2.0000      -0.625572       -17.0227
  40   2.0000      -0.599636       -16.3169
  41   2.0000      -0.570669       -15.5287
  42   2.0000      -0.563578       -15.3357
  43   2.0000      -0.550491       -14.9796
  44   2.0000      -0.543269       -14.7831
  45   2.0000      -0.533166       -14.5082
  46   2.0000      -0.512224       -13.9383
  47   2.0000      -0.510250       -13.8846
  48   2.0000      -0.503569       -13.7028
  49   2.0000      -0.497822       -13.5464
  50   2.0000      -0.488114       -13.2823
  51   2.0000      -0.478051       -13.0084
  52   2.0000      -0.474361       -12.9080
  53   2.0000      -0.467741       -12.7279
  54   2.0000      -0.454171       -12.3586
  55   2.0000      -0.452542       -12.3143
  56   2.0000      -0.442810       -12.0495
  57   2.0000      -0.439346       -11.9552
  58   2.0000      -0.429532       -11.6882
  59   2.0000      -0.424197       -11.5430
  60   2.0000      -0.421200       -11.4614
  61   2.0000      -0.414192       -11.2707
  62   2.0000      -0.408564       -11.1176
  63   2.0000      -0.353249        -9.6124
  64   2.0000      -0.332652        -9.0519
  65   2.0000      -0.328109        -8.9283
  66   2.0000      -0.284205        -7.7336
  67   0.0000       0.022568         0.6141
  68   0.0000       0.067469         1.8359
  69   0.0000       0.098400         2.6776
  70   0.0000       0.120451         3.2776
  71   0.0000       0.127230         3.4621

MULLIKEN ATOMIC CHARGES
-----------------------
   0 S :    0.090623
   1 C :   -0.141879
   2 C :   -0.088186
   3 C :    0.031813
   4 C :   -0.131020
   5 H :    0.002272
   6 C :    0.046072
   7 H :    0.049255
   8 H :    0.008529
   9 C :   -0.107098
  10 H :    0.044118
  11 H :    0.045615
  12 C :    0.012789
  13 H :    0.034401
  14 H :    0.014178
  15 H :    0.017974
  16 S :    0.099440
  17 C :   -0.093858
  18 C :   -0.016617
  19 C :   -0.039337
  20 C :   -0.127618
  21 H :   -0.005525
  22 C :    0.046142
  23 H :   -0.000418
  24 H :    0.029332
  25 C :   -0.048513
  26 H :    0.040586
  27 H :    0.026603
  28 C :   -0.073168
  29 H :    0.049670
  30 H :    0.026581
  31 H :    0.027002
  32 H :    0.065125
  33 H :    0.065117
Sum of atomic charges:    0.0000000

LOEWDIN ATOMIC CHARGES
----------------------
   0 S :    0.373807
   1 C :   -0.198629
   2 C :   -0.073259
   3 C :   -0.050710
   4 C :   -0.174078
   5 H :    0.025101
   6 C :   -0.029244
   7 H :    0.044194
   8 H :    0.025975
   9 C :   -0.046240
  10 H :    0.028248
  11 H :    0.034554
  12 C :   -0.064460
  13 H :    0.020729
  14 H :    0.025432
  15 H :    0.026552
  16 S :    0.399145
  17 C :   -0.184290
  18 C :   -0.063993
  19 C :   -0.072118
  20 C :   -0.190423
  21 H :    0.019722
  22 C :   -0.037916
  23 H :    0.023289
  24 H :    0.035083
  25 C :   -0.033361
  26 H :    0.030837
  27 H :    0.026265
  28 C :   -0.074141
  29 H :    0.026067
  30 H :    0.025323
  31 H :    0.026413
  32 H :    0.036861
  33 H :    0.039264

  Mayer bond orders larger than 0.100000
B(  0-S ,  1-C ) :   1.1415 B(  0-S ,  4-C ) :   1.1273 B(  1-C ,  2-C ) :   1.6049
B(  1-C , 32-H ) :   0.9525 B(  2-C ,  3-C ) :   1.2879 B(  2-C ,  6-C ) :   1.0160
B(  3-C ,  4-C ) :   1.5472 B(  3-C ,  5-H ) :   0.9845 B(  4-C , 20-C ) :   1.0645
B(  6-C ,  7-H ) :   0.9331 B(  6-C ,  8-H ) :   0.9424 B(  6-C ,  9-C ) :   1.0467
B(  9-C , 10-H ) :   0.9531 B(  9-C , 11-H ) :   0.9560 B(  9-C , 12-C ) :   1.0905
B( 12-C , 13-H ) :   0.9726 B( 12-C , 14-H ) :   0.9684 B( 12-C , 15-H ) :   0.9664
B( 16-S , 17-C ) :   1.1491 B( 16-S , 20-C ) :   1.1319 B( 17-C , 18-C ) :   1.5895
B( 17-C , 33-H ) :   0.9645 B( 18-C , 19-C ) :   1.2812 B( 18-C , 21-H ) :   0.9892
B( 19-C , 20-C ) :   1.5778 B( 19-C , 22-C ) :   1.0524 B( 22-C , 23-H ) :   0.9265
B( 22-C , 24-H ) :   0.9317 B( 22-C , 25-C ) :   1.0662 B( 25-C , 26-H ) :   0.9540
B( 25-C , 27-H ) :   0.9520 B( 25-C , 28-C ) :   1.0880 B( 28-C , 29-H ) :   0.9769
B( 28-C , 30-H ) :   0.9728 B( 28-C , 31-H ) :   0.9700

Dispersion correction           -0.014429798
FINAL SINGLE POINT ENERGY     -1339.858951262674

DIPOLE MOMENT
-------------
                                X             Y             Z
Electronic contribution:    -23.52773     -10.68080      11.83506
Nuclear contribution   :     23.81386      11.22781     -12.40367
                        -----------------------------------------
Total Dipole Moment    :      0.28613       0.54701      -0.56861
                        -----------------------------------------
Magnitude (a.u.)       :      0.83929
Magnitude (Debye)      :      2.13331

Rotational constants in cm-1:     0.019018     0.008630     0.007115
Rotational constants in MHz :   570.150183   258.731181   213.292152

                             ****ORCA TERMINATED NORMALLY****
TOTAL RUN TIME: 0 days 0 hours 0 minutes 34 seconds 993 msec
