                         Program Version 4.2.1 -  RELEASE  -
|  1> ! wB97X-D3 SP def2-SVP
|  2> %pal
|  3> nprocs 16
|  4> end
|  5>
|  6> * xyz 0 1
|  7> S 	 51.0075 	 5.84277 	 84.7714
|  8> C 	 51.7162 	 6.69404 	 83.4655
|  9> C 	 51.1774 	 6.27036 	 82.2012
| 10> C 	 50.203 	 5.2361 	 82.4012
| 11> C 	 49.9731 	 4.93333 	 83.7009
| 12> H 	 49.7058 	 4.66172 	 81.6535
| 13> C 	 51.599 	 6.68733 	 80.8122
| 14> H 	 51.6424 	 7.78525 	 80.6295
| 15> H 	 50.8276 	 6.32126 	 80.077
| 16> C 	 52.989 	 6.21396 	 80.4188
| 17> H 	 53.7136 	 6.42349 	 81.1573
| 18> H 	 52.993 	 5.10503 	 80.296
| 19> C 	 53.3426 	 6.87873 	 79.1603
| 20> H 	 52.4685 	 6.76177 	 78.4952
| 21> H 	 53.6455 	 7.965 	 79.2957
| 22> H 	 54.2513 	 6.35605 	 78.6679
| 23> S 	 47.804 	 4.6312 	 85.3069
| 24> C 	 46.8278 	 3.16818 	 85.1572
| 25> C 	 47.4011 	 2.27788 	 84.3191
| 26> C 	 48.6232 	 2.70487 	 83.6974
| 27> C 	 49.0032 	 3.91873 	 84.1422
| 28> H 	 46.8481 	 1.37153 	 84.1337
| 29> C 	 49.3161 	 1.85201 	 82.6294
| 30> H 	 49.7986 	 2.38258 	 81.7422
| 31> H 	 48.4347 	 1.43768 	 82.1482
| 32> C 	 50.3266 	 0.748961 	 83.1701
| 33> H 	 49.8216 	 0.0694997 	 83.8168
| 34> H 	 51.1397 	 1.20943 	 83.8112
| 35> C 	 51.0178 	 -0.0588362 	 82.1585
| 36> H 	 52.0218 	 -0.394158 	 82.5394
| 37> H 	 51.069 	 0.398744 	 81.1869
| 38> H 	 50.4181 	 -0.964008 	 82.0582
| 39> H 	 52.4435 	 7.52648 	 83.5945
| 40> H 	 45.8269 	 3.06715 	 85.5258
| 41> *
| 42>
| 43>                          ****END OF INPUT****

CARTESIAN COORDINATES (ANGSTROEM)
---------------------------------
  S     51.007500    5.842770   84.771400
  C     51.716200    6.694040   83.465500
  C     51.177400    6.270360   82.201200
  C     50.203000    5.236100   82.401200
  C     49.973100    4.933330   83.700900
  H     49.705800    4.661720   81.653500
  C     51.599000    6.687330   80.812200
  H     51.642400    7.785250   80.629500
  H     50.827600    6.321260   80.077000
  C     52.989000    6.213960   80.418800
  H     53.713600    6.423490   81.157300
  H     52.993000    5.105030   80.296000
  C     53.342600    6.878730   79.160300
  H     52.468500    6.761770   78.495200
  H     53.645500    7.965000   79.295700
  H     54.251300    6.356050   78.667900
  S     47.804000    4.631200   85.306900
  C     46.827800    3.168180   85.157200
  C     47.401100    2.277880   84.319100
  C     48.623200    2.704870   83.697400
  C     49.003200    3.918730   84.142200
  H     46.848100    1.371530   84.133700
  C     49.316100    1.852010   82.629400
  H     49.798600    2.382580   81.742200
  H     48.434700    1.437680   82.148200
  C     50.326600    0.748961   83.170100
  H     49.821600    0.069500   83.816800
  H     51.139700    1.209430   83.811200
  C     51.017800   -0.058836   82.158500
  H     52.021800   -0.394158   82.539400
  H     51.069000    0.398744   81.186900
  H     50.418100   -0.964008   82.058200
  H     52.443500    7.526480   83.594500
  H     45.826900    3.067150   85.525800

 Total Charge           Charge          ....    0
 Multiplicity           Mult            ....    1
 Number of Electrons    NEL             ....  134
 Basis Dimension        Dim             ....  322

ORBITAL ENERGIES
----------------

  NO   OCC          E(Eh)            E(eV)
   0   2.0000     -88.968975     -2420.9689
   1   2.0000     -88.959094     -2420.7000
   2   2.0000     -10.328312      -281.0477
   3   2.0000     -10.323720      -280.9227
   4   2.0000     -10.318960      -280.7932
   5   2.0000     -10.314001      -280.6582
   6   2.0000     -10.306032      -280.4414
   7   2.0000     -10.305919      -280.4383
   8   2.0000     -10.304713      -280.4055
   9   2.0000     -10.295891      -280.1654
  10   2.0000     -10.291562      -280.0476
  11   2.0000     -10.287302      -279.9317
  12   2.0000     -10.286005      -279.8964
  13   2.0000     -10.285709      -279.8884
  14   2.0000     -10.278377      -279.6888
  15   2.0000     -10.275032      -279.5978
  16   2.0000      -8.084067      -219.9786
  17   2.0000      -8.073318      -219.6862
  18   2.0000      -6.042469      -164.4239
  19   2.0000      -6.038432      -164.3141
  20   2.0000      -6.035024      -164.2213
  21   2.0000      -6.031927      -164.1371
  22   2.0000      -6.028039      -164.0313
  23   2.0000      -6.023850      -163.9173
  24   2.0000      -1.006249       -27.3814
  25   2.0000      -0.983098       -26.7515
  26   2.0000      -0.921412       -25.0729
  27   2.0000      -0.906735       -24.6735
  28   2.0000      -0.870656       -23.6917
  29   2.0000      -0.858413       -23.3586
  30   2.0000      -0.851960       -23.1830
  31   2.0000      -0.813138       -22.1266
  32   2.0000      -0.779361       -21.2075
  33   2.0000      -0.764883       -20.8135
  34   2.0000      -0.699261       -19.0279
  35   2.0000      -0.695595       -18.9281
  36   2.0000      -0.689321       -18.7574
  37   2.0000      -0.665150       -18.0997
  38   2.0000      -0.645360       -17.5611
  39   2.0000      -0.620786       -16.8925
  40   2.0000      -0.597526       -16.2595
  41   2.0000      -0.575990       -15.6735
  42   2.0000      -0.563090       -15.3225
  43   2.0000      -0.556981       -15.1562
  44   2.0000      -0.532592       -14.4926
  45   2.0000      -0.522765       -14.2252
  46   2.0000      -0.520391       -14.1606
  47   2.0000      -0.513531       -13.9739
  48   2.0000      -0.501908       -13.6576
  49   2.0000      -0.499998       -13.6056
  50   2.0000      -0.489163       -13.3108
  51   2.0000      -0.478936       -13.0325
  52   2.0000      -0.469643       -12.7796
  53   2.0000      -0.461763       -12.5652
  54   2.0000      -0.453835       -12.3495
  55   2.0000      -0.450919       -12.2701
  56   2.0000      -0.445796       -12.1307
  57   2.0000      -0.434585       -11.8257
  58   2.0000      -0.433118       -11.7857
  59   2.0000      -0.428424       -11.6580
  60   2.0000      -0.420280       -11.4364
  61   2.0000      -0.414639       -11.2829
  62   2.0000      -0.403541       -10.9809
  63   2.0000      -0.350392        -9.5346
  64   2.0000      -0.331498        -9.0205
  65   2.0000      -0.328524        -8.9396
  66   2.0000      -0.291621        -7.9354
  67   0.0000       0.035220         0.9584
  68   0.0000       0.067371         1.8333
  69   0.0000       0.108610         2.9554
  70   0.0000       0.118932         3.2363
  71   0.0000       0.128822         3.5054

MULLIKEN ATOMIC CHARGES
-----------------------
   0 S :    0.130324
   1 C :   -0.137731
   2 C :   -0.066554
   3 C :    0.026300
   4 C :   -0.133360
   5 H :   -0.002605
   6 C :    0.006377
   7 H :    0.031284
   8 H :    0.032959
   9 C :   -0.039314
  10 H :    0.018299
  11 H :    0.029117
  12 C :   -0.086961
  13 H :    0.033012
  14 H :    0.048574
  15 H :    0.042198
  16 S :    0.069775
  17 C :   -0.077964
  18 C :   -0.040617
  19 C :   -0.019628
  20 C :   -0.136942
  21 H :    0.014752
  22 C :    0.028841
  23 H :    0.035396
  24 H :    0.020087
  25 C :   -0.065029
  26 H :    0.017706
  27 H :    0.043016
  28 C :   -0.033510
  29 H :    0.041977
  30 H :    0.027360
  31 H :    0.023439
  32 H :    0.066109
  33 H :    0.053311
Sum of atomic charges:    0.0000000

LOEWDIN ATOMIC CHARGES
----------------------
   0 S :    0.430214
   1 C :   -0.220362
   2 C :   -0.059229
   3 C :   -0.059752
   4 C :   -0.204408
   5 H :    0.026343
   6 C :   -0.040766
   7 H :    0.033522
   8 H :    0.034962
   9 C :   -0.046405
  10 H :    0.017699
  11 H :    0.028081
  12 C :   -0.074983
  13 H :    0.025539
  14 H :    0.031373
  15 H :    0.033411
  16 S :    0.358317
  17 C :   -0.170758
  18 C :   -0.071986
  19 C :   -0.060468
  20 C :   -0.158822
  21 H :    0.031082
  22 C :   -0.033629
  23 H :    0.034087
  24 H :    0.029762
  25 C :   -0.044563
  26 H :    0.019566
  27 H :    0.033438
  28 C :   -0.068597
  29 H :    0.036046
  30 H :    0.020827
  31 H :    0.026034
  32 H :    0.035522
  33 H :    0.028903

  Mayer bond orders larger than 0.100000
B(  0-S ,  1-C ) :   1.1614 B(  0-S ,  4-C ) :   1.1567 B(  1-C ,  2-C ) :   1.5636
B(  1-C , 32-H ) :   0.9664 B(  2-C ,  3-C ) :   1.2604 B(  2-C ,  6-C ) :   1.0279
B(  3-C ,  4-C ) :   1.5818 B(  3-C ,  5-H ) :   0.9967 B(  4-C , 20-C ) :   0.9997
B(  6-C ,  7-H ) :   0.9427 B(  6-C ,  8-H ) :   0.9385 B(  6-C ,  9-C ) :   1.0630
B(  9-C , 10-H ) :   0.9531 B(  9-C , 11-H ) :   0.9479 B(  9-C , 12-C ) :   1.0901
B( 12-C , 13-H ) :   0.9688 B( 12-C , 14-H ) :   0.9700 B( 12-C , 15-H ) :   0.9703
B( 16-S , 17-C ) :   1.1289 B( 16-S , 20-C ) :   1.1138 B( 17-C , 18-C ) :   1.6734
B( 17-C , 33-H ) :   0.9662 B( 18-C , 19-C ) :   1.1843 B( 18-C , 21-H ) :   0.9881
B( 19-C , 20-C ) :   1.6857 B( 19-C , 22-C ) :   1.0191 B( 22-C , 23-H ) :   0.9437
B( 22-C , 24-H ) :   0.9332 B( 22-C , 25-C ) :   1.0527 B( 25-C , 26-H ) :   0.9587
B( 25-C , 27-H ) :   0.9628 B( 25-C , 28-C ) :   1.0832 B( 28-C , 29-H ) :   0.9733
B( 28-C , 30-H ) :   0.9736 B( 28-C , 31-H ) :   0.9778

Dispersion correction           -0.013381217
FINAL SINGLE POINT ENERGY     -1339.869373644721

DIPOLE MOMENT
-------------
                                X             Y             Z
Electronic contribution:    -14.54947      10.18635      24.75583
Nuclear contribution   :     14.61499     -10.56394     -25.38827
                        -----------------------------------------
Total Dipole Moment    :      0.06553      -0.37759      -0.63245
                        -----------------------------------------
Magnitude (a.u.)       :      0.73950
Magnitude (Debye)      :      1.87965

Rotational constants in cm-1:     0.017334     0.008475     0.006413
Rotational constants in MHz :   519.673319   254.086706   192.265670

                             ****ORCA TERMINATED NORMALLY****
TOTAL RUN TIME: 0 days 0 hours 0 minutes 27 seconds 658 msec
