                         Program Version 4.2.1 -  RELEASE  -
|  1> ! wB97X-D3 SP def2-SVP
|  2> %pal
|  3> nprocs 16
|  4> end
|  5>
|  6> * xyz 0 1
|  7> S 	 -9.64627 	 44.6704 	 39.8056
|  8> C 	 -10.3446 	 45.8304 	 38.6396
|  9> C 	 -9.41019 	 46.77 	 38.2799
| 10> C 	 -8.1707 	 46.6142 	 38.9046
| 11> C 	 -8.13788 	 45.5928 	 39.8222
| 12> H 	 -7.32653 	 47.2497 	 38.6967
| 13> C 	 -9.66615 	 47.9489 	 37.4094
| 14> H 	 -10.4929 	 47.6005 	 36.8102
| 15> H 	 -8.84555 	 48.1209 	 36.6866
| 16> C 	 -9.94227 	 49.2288 	 38.2477
| 17> H 	 -10.5297 	 49.9192 	 37.6661
| 18> H 	 -10.4693 	 49.0328 	 39.1361
| 19> C 	 -8.67562 	 50.0798 	 38.6707
| 20> H 	 -8.01693 	 49.5291 	 39.341
| 21> H 	 -8.10677 	 50.3077 	 37.7769
| 22> H 	 -8.91735 	 51.084 	 38.9678
| 23> S 	 -7.11417 	 44.9149 	 42.3262
| 24> C 	 -5.48681 	 44.4194 	 42.4423
| 25> C 	 -4.84499 	 44.2998 	 41.2776
| 26> C 	 -5.68327 	 44.7471 	 40.1657
| 27> C 	 -6.98621 	 45.1172 	 40.5617
| 28> H 	 -3.85602 	 44.0787 	 41.2652
| 29> C 	 -5.02082 	 44.7462 	 38.8338
| 30> H 	 -5.77284 	 44.5799 	 38.0742
| 31> H 	 -4.27032 	 43.9282 	 38.8848
| 32> C 	 -4.32028 	 46.0099 	 38.4827
| 33> H 	 -3.52804 	 46.2305 	 39.1482
| 34> H 	 -4.98935 	 46.8432 	 38.5988
| 35> C 	 -3.74047 	 45.9641 	 37.0313
| 36> H 	 -4.48594 	 45.7972 	 36.3655
| 37> H 	 -2.91557 	 45.3075 	 36.8122
| 38> H 	 -3.3302 	 46.8996 	 36.6186
| 39> H 	 -11.3366 	 46.0597 	 38.2603
| 40> H 	 -5.00188 	 44.1721 	 43.357
| 41> *
| 42>
| 43>                          ****END OF INPUT****

CARTESIAN COORDINATES (ANGSTROEM)
---------------------------------
  S     -9.646270   44.670400   39.805600
  C    -10.344600   45.830400   38.639600
  C     -9.410190   46.770000   38.279900
  C     -8.170700   46.614200   38.904600
  C     -8.137880   45.592800   39.822200
  H     -7.326530   47.249700   38.696700
  C     -9.666150   47.948900   37.409400
  H    -10.492900   47.600500   36.810200
  H     -8.845550   48.120900   36.686600
  C     -9.942270   49.228800   38.247700
  H    -10.529700   49.919200   37.666100
  H    -10.469300   49.032800   39.136100
  C     -8.675620   50.079800   38.670700
  H     -8.016930   49.529100   39.341000
  H     -8.106770   50.307700   37.776900
  H     -8.917350   51.084000   38.967800
  S     -7.114170   44.914900   42.326200
  C     -5.486810   44.419400   42.442300
  C     -4.844990   44.299800   41.277600
  C     -5.683270   44.747100   40.165700
  C     -6.986210   45.117200   40.561700
  H     -3.856020   44.078700   41.265200
  C     -5.020820   44.746200   38.833800
  H     -5.772840   44.579900   38.074200
  H     -4.270320   43.928200   38.884800
  C     -4.320280   46.009900   38.482700
  H     -3.528040   46.230500   39.148200
  H     -4.989350   46.843200   38.598800
  C     -3.740470   45.964100   37.031300
  H     -4.485940   45.797200   36.365500
  H     -2.915570   45.307500   36.812200
  H     -3.330200   46.899600   36.618600
  H    -11.336600   46.059700   38.260300
  H     -5.001880   44.172100   43.357000

 Total Charge           Charge          ....    0
 Multiplicity           Mult            ....    1
 Number of Electrons    NEL             ....  134
 Basis Dimension        Dim             ....  322

ORBITAL ENERGIES
----------------

  NO   OCC          E(Eh)            E(eV)
   0   2.0000     -88.970222     -2421.0028
   1   2.0000     -88.962870     -2420.8028
   2   2.0000     -10.330811      -281.1157
   3   2.0000     -10.329322      -281.0751
   4   2.0000     -10.313007      -280.6312
   5   2.0000     -10.308643      -280.5124
   6   2.0000     -10.307207      -280.4734
   7   2.0000     -10.292824      -280.0820
   8   2.0000     -10.290802      -280.0270
   9   2.0000     -10.288493      -279.9641
  10   2.0000     -10.287017      -279.9240
  11   2.0000     -10.286651      -279.9140
  12   2.0000     -10.283009      -279.8149
  13   2.0000     -10.282021      -279.7880
  14   2.0000     -10.278478      -279.6916
  15   2.0000     -10.270870      -279.4846
  16   2.0000      -8.083657      -219.9675
  17   2.0000      -8.078294      -219.8216
  18   2.0000      -6.042415      -164.4225
  19   2.0000      -6.038392      -164.3130
  20   2.0000      -6.036802      -164.2697
  21   2.0000      -6.034160      -164.1978
  22   2.0000      -6.032730      -164.1589
  23   2.0000      -6.028991      -164.0572
  24   2.0000      -1.006392       -27.3853
  25   2.0000      -0.986714       -26.8499
  26   2.0000      -0.918491       -24.9934
  27   2.0000      -0.911812       -24.8117
  28   2.0000      -0.870251       -23.6807
  29   2.0000      -0.851082       -23.1591
  30   2.0000      -0.845397       -23.0044
  31   2.0000      -0.821134       -22.3442
  32   2.0000      -0.787764       -21.4362
  33   2.0000      -0.773484       -21.0476
  34   2.0000      -0.717976       -19.5371
  35   2.0000      -0.707427       -19.2501
  36   2.0000      -0.699990       -19.0477
  37   2.0000      -0.665853       -18.1188
  38   2.0000      -0.635241       -17.2858
  39   2.0000      -0.623876       -16.9765
  40   2.0000      -0.600821       -16.3492
  41   2.0000      -0.579944       -15.7811
  42   2.0000      -0.570901       -15.5350
  43   2.0000      -0.550373       -14.9764
  44   2.0000      -0.540782       -14.7154
  45   2.0000      -0.520526       -14.1642
  46   2.0000      -0.516792       -14.0626
  47   2.0000      -0.510399       -13.8887
  48   2.0000      -0.508159       -13.8277
  49   2.0000      -0.501026       -13.6336
  50   2.0000      -0.496972       -13.5233
  51   2.0000      -0.474476       -12.9112
  52   2.0000      -0.473893       -12.8953
  53   2.0000      -0.465238       -12.6598
  54   2.0000      -0.459507       -12.5038
  55   2.0000      -0.453293       -12.3347
  56   2.0000      -0.447890       -12.1877
  57   2.0000      -0.437967       -11.9177
  58   2.0000      -0.435242       -11.8435
  59   2.0000      -0.427016       -11.6197
  60   2.0000      -0.422255       -11.4901
  61   2.0000      -0.420426       -11.4404
  62   2.0000      -0.415501       -11.3064
  63   2.0000      -0.344195        -9.3660
  64   2.0000      -0.334687        -9.1073
  65   2.0000      -0.327706        -8.9173
  66   2.0000      -0.296711        -8.0739
  67   0.0000       0.031374         0.8537
  68   0.0000       0.068865         1.8739
  69   0.0000       0.110971         3.0197
  70   0.0000       0.121764         3.3134
  71   0.0000       0.128891         3.5073

MULLIKEN ATOMIC CHARGES
-----------------------
   0 S :    0.119798
   1 C :   -0.093465
   2 C :   -0.135750
   3 C :    0.029972
   4 C :   -0.128691
   5 H :    0.000256
   6 C :    0.074000
   7 H :    0.014233
   8 H :    0.030435
   9 C :   -0.038241
  10 H :    0.024603
  11 H :    0.028736
  12 C :   -0.058704
  13 H :    0.044927
  14 H :    0.011916
  15 H :    0.031855
  16 S :    0.104852
  17 C :   -0.057093
  18 C :   -0.002604
  19 C :   -0.031629
  20 C :   -0.174198
  21 H :   -0.019929
  22 C :    0.073623
  23 H :    0.022056
  24 H :    0.027757
  25 C :   -0.031164
  26 H :    0.010481
  27 H :    0.014345
  28 C :   -0.015017
  29 H :    0.001891
  30 H :    0.027058
  31 H :    0.017867
  32 H :    0.034007
  33 H :    0.041813
Sum of atomic charges:   -0.0000000

LOEWDIN ATOMIC CHARGES
----------------------
   0 S :    0.392863
   1 C :   -0.198439
   2 C :   -0.067575
   3 C :   -0.062195
   4 C :   -0.183727
   5 H :    0.027832
   6 C :   -0.031668
   7 H :    0.028654
   8 H :    0.034078
   9 C :   -0.027515
  10 H :    0.023030
  11 H :    0.019760
  12 C :   -0.065375
  13 H :    0.023479
  14 H :    0.020754
  15 H :    0.026535
  16 S :    0.405817
  17 C :   -0.179170
  18 C :   -0.066427
  19 C :   -0.036017
  20 C :   -0.204020
  21 H :    0.015715
  22 C :   -0.033020
  23 H :    0.030394
  24 H :    0.036680
  25 C :   -0.028976
  26 H :    0.017805
  27 H :    0.020248
  28 C :   -0.063154
  29 H :    0.010000
  30 H :    0.025197
  31 H :    0.029968
  32 H :    0.033113
  33 H :    0.025359

  Mayer bond orders larger than 0.100000
B(  0-S ,  1-C ) :   1.1115 B(  0-S ,  4-C ) :   1.1467 B(  1-C ,  2-C ) :   1.6428
B(  1-C ,  4-C ) :   0.1004 B(  1-C , 32-H ) :   0.9541 B(  2-C ,  3-C ) :   1.2409
B(  2-C ,  6-C ) :   1.0355 B(  3-C ,  4-C ) :   1.5674 B(  3-C ,  5-H ) :   0.9994
B(  4-C , 20-C ) :   1.0451 B(  6-C ,  7-H ) :   0.9332 B(  6-C ,  8-H ) :   0.9406
B(  6-C ,  9-C ) :   1.0480 B(  9-C , 10-H ) :   0.9579 B(  9-C , 11-H ) :   0.9606
B(  9-C , 12-C ) :   1.0765 B( 12-C , 13-H ) :   0.9750 B( 12-C , 14-H ) :   0.9742
B( 12-C , 15-H ) :   0.9731 B( 16-S , 17-C ) :   1.1614 B( 16-S , 20-C ) :   1.1173
B( 17-C , 18-C ) :   1.6414 B( 17-C , 33-H ) :   0.9616 B( 18-C , 19-C ) :   1.2103
B( 18-C , 21-H ) :   1.0034 B( 19-C , 20-C ) :   1.5974 B( 19-C , 22-C ) :   1.0607
B( 22-C , 23-H ) :   0.9238 B( 22-C , 24-H ) :   0.9300 B( 22-C , 25-C ) :   1.0802
B( 25-C , 26-H ) :   0.9486 B( 25-C , 27-H ) :   0.9502 B( 25-C , 28-C ) :   1.0755
B( 28-C , 29-H ) :   0.9732 B( 28-C , 30-H ) :   0.9766 B( 28-C , 31-H ) :   0.9712

Dispersion correction           -0.014590249
FINAL SINGLE POINT ENERGY     -1339.863428398711

DIPOLE MOMENT
-------------
                                X             Y             Z
Electronic contribution:    -10.85442     -18.41872      19.12726
Nuclear contribution   :     11.30400      18.86583     -19.55575
                        -----------------------------------------
Total Dipole Moment    :      0.44958       0.44711      -0.42850
                        -----------------------------------------
Magnitude (a.u.)       :      0.76527
Magnitude (Debye)      :      1.94517

Rotational constants in cm-1:     0.016304     0.009626     0.007442
Rotational constants in MHz :   488.778067   288.590586   223.110906

                             ****ORCA TERMINATED NORMALLY****
TOTAL RUN TIME: 0 days 0 hours 0 minutes 34 seconds 852 msec
