                         Program Version 4.2.1 -  RELEASE  -
|  1> ! wB97X-D3 SP def2-SVP
|  2> %pal
|  3> nprocs 16
|  4> end
|  5>
|  6> * xyz 0 1
|  7> S 	 -15.4213 	 -6.69952 	 84.2225
|  8> C 	 -16.6537 	 -7.99793 	 84.0139
|  9> C 	 -16.0757 	 -9.23979 	 83.7884
| 10> C 	 -14.6616 	 -9.20614 	 84.1448
| 11> C 	 -14.1671 	 -7.92355 	 84.3783
| 12> H 	 -13.9147 	 -10.0548 	 84.2505
| 13> C 	 -16.7248 	 -10.5786 	 83.4892
| 14> H 	 -17.3621 	 -10.8861 	 84.3556
| 15> H 	 -15.9887 	 -11.3815 	 83.4326
| 16> C 	 -17.4993 	 -10.6877 	 82.1303
| 17> H 	 -18.3651 	 -9.95735 	 82.0661
| 18> H 	 -16.6639 	 -10.3611 	 81.4397
| 19> C 	 -18.1193 	 -12.0851 	 82.0691
| 20> H 	 -17.5174 	 -12.8433 	 81.6868
| 21> H 	 -18.447 	 -12.3659 	 83.046
| 22> H 	 -18.9408 	 -12.0964 	 81.399
| 23> S 	 -12.6374 	 -7.4091 	 86.5914
| 24> C 	 -10.9354 	 -7.20781 	 86.4636
| 25> C 	 -10.5542 	 -7.20392 	 85.1444
| 26> C 	 -11.6317 	 -7.31924 	 84.223
| 27> C 	 -12.8313 	 -7.59472 	 84.8667
| 28> H 	 -9.52316 	 -7.10546 	 84.8026
| 29> C 	 -11.4625 	 -7.4257 	 82.7083
| 30> H 	 -11.9998 	 -8.28825 	 82.3598
| 31> H 	 -10.3782 	 -7.69188 	 82.7134
| 32> C 	 -11.6887 	 -6.0881 	 81.8761
| 33> H 	 -10.926 	 -5.39483 	 82.2003
| 34> H 	 -12.6394 	 -5.71012 	 82.0761
| 35> C 	 -11.5077 	 -6.41284 	 80.3909
| 36> H 	 -10.4074 	 -6.42148 	 80.1381
| 37> H 	 -11.8631 	 -5.50539 	 79.8931
| 38> H 	 -12.1214 	 -7.22897 	 80.0608
| 39> H 	 -17.6325 	 -7.78479 	 83.6168
| 40> H 	 -10.248 	 -7.12046 	 87.2266
| 41> *
| 42>
| 43>                          ****END OF INPUT****

CARTESIAN COORDINATES (ANGSTROEM)
---------------------------------
  S    -15.421300   -6.699520   84.222500
  C    -16.653700   -7.997930   84.013900
  C    -16.075700   -9.239790   83.788400
  C    -14.661600   -9.206140   84.144800
  C    -14.167100   -7.923550   84.378300
  H    -13.914700  -10.054800   84.250500
  C    -16.724800  -10.578600   83.489200
  H    -17.362100  -10.886100   84.355600
  H    -15.988700  -11.381500   83.432600
  C    -17.499300  -10.687700   82.130300
  H    -18.365100   -9.957350   82.066100
  H    -16.663900  -10.361100   81.439700
  C    -18.119300  -12.085100   82.069100
  H    -17.517400  -12.843300   81.686800
  H    -18.447000  -12.365900   83.046000
  H    -18.940800  -12.096400   81.399000
  S    -12.637400   -7.409100   86.591400
  C    -10.935400   -7.207810   86.463600
  C    -10.554200   -7.203920   85.144400
  C    -11.631700   -7.319240   84.223000
  C    -12.831300   -7.594720   84.866700
  H     -9.523160   -7.105460   84.802600
  C    -11.462500   -7.425700   82.708300
  H    -11.999800   -8.288250   82.359800
  H    -10.378200   -7.691880   82.713400
  C    -11.688700   -6.088100   81.876100
  H    -10.926000   -5.394830   82.200300
  H    -12.639400   -5.710120   82.076100
  C    -11.507700   -6.412840   80.390900
  H    -10.407400   -6.421480   80.138100
  H    -11.863100   -5.505390   79.893100
  H    -12.121400   -7.228970   80.060800
  H    -17.632500   -7.784790   83.616800
  H    -10.248000   -7.120460   87.226600

 Total Charge           Charge          ....    0
 Multiplicity           Mult            ....    1
 Number of Electrons    NEL             ....  134
 Basis Dimension        Dim             ....  322

ORBITAL ENERGIES
----------------

  NO   OCC          E(Eh)            E(eV)
   0   2.0000     -88.967467     -2420.9279
   1   2.0000     -88.961882     -2420.7759
   2   2.0000     -10.330182      -281.0985
   3   2.0000     -10.319928      -280.8195
   4   2.0000     -10.318029      -280.7679
   5   2.0000     -10.309277      -280.5297
   6   2.0000     -10.308722      -280.5146
   7   2.0000     -10.302872      -280.3554
   8   2.0000     -10.299442      -280.2621
   9   2.0000     -10.298014      -280.2232
  10   2.0000     -10.297762      -280.2164
  11   2.0000     -10.289883      -280.0020
  12   2.0000     -10.289791      -279.9995
  13   2.0000     -10.282354      -279.7971
  14   2.0000     -10.277918      -279.6764
  15   2.0000     -10.271607      -279.5046
  16   2.0000      -8.081126      -219.8986
  17   2.0000      -8.077321      -219.7951
  18   2.0000      -6.039762      -164.3503
  19   2.0000      -6.035852      -164.2439
  20   2.0000      -6.035747      -164.2410
  21   2.0000      -6.031744      -164.1321
  22   2.0000      -6.031626      -164.1289
  23   2.0000      -6.028221      -164.0362
  24   2.0000      -1.004461       -27.3328
  25   2.0000      -0.979388       -26.6505
  26   2.0000      -0.910565       -24.7777
  27   2.0000      -0.902114       -24.5478
  28   2.0000      -0.868883       -23.6435
  29   2.0000      -0.851536       -23.1715
  30   2.0000      -0.845625       -23.0106
  31   2.0000      -0.810364       -22.0511
  32   2.0000      -0.781823       -21.2745
  33   2.0000      -0.768090       -20.9008
  34   2.0000      -0.706110       -19.2142
  35   2.0000      -0.701826       -19.0977
  36   2.0000      -0.693868       -18.8811
  37   2.0000      -0.661288       -17.9946
  38   2.0000      -0.639013       -17.3884
  39   2.0000      -0.606874       -16.5139
  40   2.0000      -0.592280       -16.1167
  41   2.0000      -0.570537       -15.5251
  42   2.0000      -0.567004       -15.4290
  43   2.0000      -0.566161       -15.4060
  44   2.0000      -0.523598       -14.2478
  45   2.0000      -0.521516       -14.1912
  46   2.0000      -0.514852       -14.0098
  47   2.0000      -0.513229       -13.9657
  48   2.0000      -0.501500       -13.6465
  49   2.0000      -0.498043       -13.5524
  50   2.0000      -0.492729       -13.4078
  51   2.0000      -0.471958       -12.8426
  52   2.0000      -0.470887       -12.8135
  53   2.0000      -0.466492       -12.6939
  54   2.0000      -0.456752       -12.4288
  55   2.0000      -0.448302       -12.1989
  56   2.0000      -0.443916       -12.0796
  57   2.0000      -0.440505       -11.9867
  58   2.0000      -0.433882       -11.8065
  59   2.0000      -0.421352       -11.4656
  60   2.0000      -0.420837       -11.4516
  61   2.0000      -0.418722       -11.3940
  62   2.0000      -0.407809       -11.0971
  63   2.0000      -0.335246        -9.1225
  64   2.0000      -0.325363        -8.8536
  65   2.0000      -0.320821        -8.7300
  66   2.0000      -0.311285        -8.4705
  67   0.0000       0.040421         1.0999
  68   0.0000       0.052045         1.4162
  69   0.0000       0.103240         2.8093
  70   0.0000       0.121851         3.3157
  71   0.0000       0.130316         3.5461

MULLIKEN ATOMIC CHARGES
-----------------------
   0 S :    0.106607
   1 C :   -0.106752
   2 C :   -0.074047
   3 C :    0.019007
   4 C :   -0.171032
   5 H :    0.041806
   6 C :    0.013101
   7 H :    0.049430
   8 H :    0.022837
   9 C :   -0.129324
  10 H :    0.042289
  11 H :    0.052401
  12 C :    0.019241
  13 H :    0.020672
  14 H :    0.021161
  15 H :    0.018686
  16 S :    0.123365
  17 C :   -0.044667
  18 C :   -0.047847
  19 C :   -0.024039
  20 C :   -0.201250
  21 H :    0.016273
  22 C :    0.038978
  23 H :    0.026445
  24 H :    0.013432
  25 C :   -0.035530
  26 H :    0.026642
  27 H :    0.019512
  28 C :   -0.041752
  29 H :    0.041902
  30 H :    0.026286
  31 H :    0.039755
  32 H :    0.052525
  33 H :    0.023887
Sum of atomic charges:    0.0000000

LOEWDIN ATOMIC CHARGES
----------------------
   0 S :    0.382736
   1 C :   -0.182983
   2 C :   -0.059525
   3 C :   -0.063648
   4 C :   -0.198424
   5 H :    0.044325
   6 C :   -0.040127
   7 H :    0.035564
   8 H :    0.028890
   9 C :   -0.044676
  10 H :    0.026527
  11 H :    0.034818
  12 C :   -0.056886
  13 H :    0.019829
  14 H :    0.025163
  15 H :    0.024131
  16 S :    0.427622
  17 C :   -0.183166
  18 C :   -0.077501
  19 C :   -0.058264
  20 C :   -0.213440
  21 H :    0.030355
  22 C :   -0.030998
  23 H :    0.025773
  24 H :    0.031768
  25 C :   -0.024308
  26 H :    0.025738
  27 H :    0.012685
  28 C :   -0.066333
  29 H :    0.033796
  30 H :    0.027066
  31 H :    0.023640
  32 H :    0.023833
  33 H :    0.016018

  Mayer bond orders larger than 0.100000
B(  0-S ,  1-C ) :   1.1226 B(  0-S ,  4-C ) :   1.1436 B(  1-C ,  2-C ) :   1.6450
B(  1-C , 32-H ) :   0.9595 B(  2-C ,  3-C ) :   1.2008 B(  2-C ,  6-C ) :   1.0177
B(  3-C ,  4-C ) :   1.6260 B(  3-C ,  5-H ) :   0.9753 B(  4-C , 20-C ) :   1.0103
B(  6-C ,  7-H ) :   0.9390 B(  6-C ,  8-H ) :   0.9527 B(  6-C ,  9-C ) :   1.0404
B(  9-C , 10-H ) :   0.9620 B(  9-C , 11-H ) :   0.9616 B(  9-C , 12-C ) :   1.0662
B( 12-C , 13-H ) :   0.9725 B( 12-C , 14-H ) :   0.9710 B( 12-C , 15-H ) :   0.9724
B( 16-S , 17-C ) :   1.1671 B( 16-S , 20-C ) :   1.1569 B( 17-C , 18-C ) :   1.5887
B( 17-C , 33-H ) :   0.9761 B( 18-C , 19-C ) :   1.2766 B( 18-C , 21-H ) :   0.9819
B( 19-C , 20-C ) :   1.5824 B( 19-C , 22-C ) :   1.0213 B( 22-C , 23-H ) :   0.9426
B( 22-C , 24-H ) :   0.9404 B( 22-C , 25-C ) :   1.0517 B( 25-C , 26-H ) :   0.9535
B( 25-C , 27-H ) :   0.9609 B( 25-C , 28-C ) :   1.0899 B( 28-C , 29-H ) :   0.9756
B( 28-C , 30-H ) :   0.9731 B( 28-C , 31-H ) :   0.9748

Dispersion correction           -0.013676839
FINAL SINGLE POINT ENERGY     -1339.862793628085

DIPOLE MOMENT
-------------
                                X             Y             Z
Electronic contribution:      3.72332      12.03493      22.54609
Nuclear contribution   :     -3.63004     -12.47570     -23.01478
                        -----------------------------------------
Total Dipole Moment    :      0.09328      -0.44077      -0.46868
                        -----------------------------------------
Magnitude (a.u.)       :      0.65011
Magnitude (Debye)      :      1.65245

Rotational constants in cm-1:     0.018677     0.007607     0.006409
Rotational constants in MHz :   559.928883   228.046325   192.122451

                             ****ORCA TERMINATED NORMALLY****
TOTAL RUN TIME: 0 days 0 hours 0 minutes 32 seconds 99 msec
