                         Program Version 4.2.1 -  RELEASE  -
|  1> ! wB97X-D3 SP def2-SVP
|  2> %pal
|  3> nprocs 16
|  4> end
|  5>
|  6> * xyz 0 1
|  7> S 	 -59.7292 	 51.4041 	 127.44
|  8> C 	 -60.8206 	 50.0846 	 127.605
|  9> C 	 -61.2583 	 49.7172 	 126.319
| 10> C 	 -60.7398 	 50.5406 	 125.283
| 11> C 	 -59.9123 	 51.5253 	 125.745
| 12> H 	 -61.0024 	 50.4141 	 124.25
| 13> C 	 -62.0976 	 48.5205 	 125.978
| 14> H 	 -61.4551 	 47.9442 	 125.344
| 15> H 	 -62.8965 	 48.8601 	 125.377
| 16> C 	 -62.6014 	 47.5194 	 127.095
| 17> H 	 -61.6946 	 46.9597 	 127.323
| 18> H 	 -63.0145 	 48.0397 	 127.978
| 19> C 	 -63.6333 	 46.5081 	 126.551
| 20> H 	 -64.4577 	 46.9113 	 126.116
| 21> H 	 -63.1828 	 45.8317 	 125.833
| 22> H 	 -64.0288 	 45.8382 	 127.38
| 23> S 	 -60.0476 	 53.0315 	 123.472
| 24> C 	 -58.9339 	 54.3499 	 123.158
| 25> C 	 -57.8684 	 54.2791 	 124.036
| 26> C 	 -58.0623 	 53.2914 	 125.069
| 27> C 	 -59.2401 	 52.5692 	 124.955
| 28> H 	 -56.9658 	 54.8079 	 123.865
| 29> C 	 -57.0863 	 53.1853 	 126.216
| 30> H 	 -57.1024 	 52.201 	 126.584
| 31> H 	 -57.3805 	 53.9267 	 127.024
| 32> C 	 -55.5814 	 53.4969 	 125.937
| 33> H 	 -55.1169 	 53.7202 	 126.922
| 34> H 	 -55.6524 	 54.5249 	 125.425
| 35> C 	 -54.8752 	 52.4243 	 125.145
| 36> H 	 -54.0756 	 52.8421 	 124.526
| 37> H 	 -55.5234 	 51.8599 	 124.494
| 38> H 	 -54.5445 	 51.6453 	 125.828
| 39> H 	 -61.045 	 49.5603 	 128.547
| 40> H 	 -58.9121 	 55.0165 	 122.285
| 41> *
| 42>
| 43>                          ****END OF INPUT****

CARTESIAN COORDINATES (ANGSTROEM)
---------------------------------
  S    -59.729200   51.404100  127.440000
  C    -60.820600   50.084600  127.605000
  C    -61.258300   49.717200  126.319000
  C    -60.739800   50.540600  125.283000
  C    -59.912300   51.525300  125.745000
  H    -61.002400   50.414100  124.250000
  C    -62.097600   48.520500  125.978000
  H    -61.455100   47.944200  125.344000
  H    -62.896500   48.860100  125.377000
  C    -62.601400   47.519400  127.095000
  H    -61.694600   46.959700  127.323000
  H    -63.014500   48.039700  127.978000
  C    -63.633300   46.508100  126.551000
  H    -64.457700   46.911300  126.116000
  H    -63.182800   45.831700  125.833000
  H    -64.028800   45.838200  127.380000
  S    -60.047600   53.031500  123.472000
  C    -58.933900   54.349900  123.158000
  C    -57.868400   54.279100  124.036000
  C    -58.062300   53.291400  125.069000
  C    -59.240100   52.569200  124.955000
  H    -56.965800   54.807900  123.865000
  C    -57.086300   53.185300  126.216000
  H    -57.102400   52.201000  126.584000
  H    -57.380500   53.926700  127.024000
  C    -55.581400   53.496900  125.937000
  H    -55.116900   53.720200  126.922000
  H    -55.652400   54.524900  125.425000
  C    -54.875200   52.424300  125.145000
  H    -54.075600   52.842100  124.526000
  H    -55.523400   51.859900  124.494000
  H    -54.544500   51.645300  125.828000
  H    -61.045000   49.560300  128.547000
  H    -58.912100   55.016500  122.285000

 Total Charge           Charge          ....    0
 Multiplicity           Mult            ....    1
 Number of Electrons    NEL             ....  134
 Basis Dimension        Dim             ....  322

ORBITAL ENERGIES
----------------

  NO   OCC          E(Eh)            E(eV)
   0   2.0000     -88.965235     -2420.8671
   1   2.0000     -88.964372     -2420.8436
   2   2.0000     -10.329824      -281.0888
   3   2.0000     -10.329632      -281.0836
   4   2.0000     -10.320716      -280.8410
   5   2.0000     -10.313395      -280.6417
   6   2.0000     -10.303701      -280.3780
   7   2.0000     -10.301573      -280.3201
   8   2.0000     -10.294474      -280.1269
   9   2.0000     -10.293105      -280.0896
  10   2.0000     -10.292607      -280.0761
  11   2.0000     -10.288958      -279.9768
  12   2.0000     -10.288430      -279.9624
  13   2.0000     -10.286736      -279.9163
  14   2.0000     -10.277016      -279.6518
  15   2.0000     -10.274971      -279.5962
  16   2.0000      -8.080647      -219.8856
  17   2.0000      -8.078989      -219.8405
  18   2.0000      -6.039112      -164.3326
  19   2.0000      -6.037650      -164.2928
  20   2.0000      -6.034850      -164.2166
  21   2.0000      -6.033521      -164.1805
  22   2.0000      -6.031624      -164.1288
  23   2.0000      -6.029599      -164.0737
  24   2.0000      -1.011998       -27.5379
  25   2.0000      -0.987476       -26.8706
  26   2.0000      -0.909071       -24.7371
  27   2.0000      -0.907551       -24.6957
  28   2.0000      -0.869958       -23.6728
  29   2.0000      -0.856521       -23.3071
  30   2.0000      -0.844480       -22.9795
  31   2.0000      -0.815943       -22.2029
  32   2.0000      -0.783206       -21.3121
  33   2.0000      -0.771536       -20.9946
  34   2.0000      -0.713963       -19.4279
  35   2.0000      -0.700425       -19.0595
  36   2.0000      -0.691729       -18.8229
  37   2.0000      -0.660769       -17.9804
  38   2.0000      -0.639665       -17.4062
  39   2.0000      -0.610136       -16.6027
  40   2.0000      -0.596535       -16.2325
  41   2.0000      -0.576542       -15.6885
  42   2.0000      -0.569578       -15.4990
  43   2.0000      -0.552316       -15.0293
  44   2.0000      -0.533800       -14.5254
  45   2.0000      -0.525285       -14.2937
  46   2.0000      -0.520035       -14.1509
  47   2.0000      -0.516535       -14.0556
  48   2.0000      -0.506794       -13.7906
  49   2.0000      -0.503427       -13.6990
  50   2.0000      -0.496571       -13.5124
  51   2.0000      -0.480986       -13.0883
  52   2.0000      -0.474149       -12.9022
  53   2.0000      -0.468417       -12.7463
  54   2.0000      -0.461557       -12.5596
  55   2.0000      -0.450008       -12.2453
  56   2.0000      -0.445145       -12.1130
  57   2.0000      -0.437679       -11.9099
  58   2.0000      -0.436298       -11.8723
  59   2.0000      -0.425005       -11.5650
  60   2.0000      -0.418520       -11.3885
  61   2.0000      -0.410123       -11.1600
  62   2.0000      -0.402645       -10.9565
  63   2.0000      -0.359964        -9.7951
  64   2.0000      -0.327724        -8.9178
  65   2.0000      -0.326868        -8.8945
  66   2.0000      -0.286374        -7.7926
  67   0.0000       0.026602         0.7239
  68   0.0000       0.082795         2.2530
  69   0.0000       0.107762         2.9323
  70   0.0000       0.132425         3.6035
  71   0.0000       0.133522         3.6333

MULLIKEN ATOMIC CHARGES
-----------------------
   0 S :    0.111189
   1 C :   -0.137823
   2 C :   -0.079223
   3 C :   -0.016452
   4 C :   -0.104251
   5 H :    0.009568
   6 C :    0.047449
   7 H :    0.028655
   8 H :    0.022228
   9 C :   -0.081894
  10 H :    0.036086
  11 H :    0.043186
  12 C :   -0.033658
  13 H :    0.013960
  14 H :    0.026270
  15 H :    0.038201
  16 S :    0.086247
  17 C :   -0.081111
  18 C :   -0.031497
  19 C :   -0.059263
  20 C :   -0.113975
  21 H :    0.013604
  22 C :    0.030110
  23 H :    0.011738
  24 H :    0.057911
  25 C :   -0.117035
  26 H :    0.037889
  27 H :    0.030461
  28 C :   -0.019058
  29 H :    0.042135
  30 H :    0.029268
  31 H :    0.031584
  32 H :    0.062283
  33 H :    0.065220
Sum of atomic charges:   -0.0000000

LOEWDIN ATOMIC CHARGES
----------------------
   0 S :    0.445190
   1 C :   -0.226244
   2 C :   -0.056584
   3 C :   -0.076385
   4 C :   -0.198237
   5 H :    0.026888
   6 C :   -0.032597
   7 H :    0.033440
   8 H :    0.024336
   9 C :   -0.037265
  10 H :    0.027800
  11 H :    0.024420
  12 C :   -0.059764
  13 H :    0.008433
  14 H :    0.025042
  15 H :    0.036231
  16 S :    0.405191
  17 C :   -0.183342
  18 C :   -0.069356
  19 C :   -0.063401
  20 C :   -0.190297
  21 H :    0.025243
  22 C :   -0.039715
  23 H :    0.011787
  24 H :    0.043549
  25 C :   -0.048549
  26 H :    0.028806
  27 H :    0.024475
  28 C :   -0.069805
  29 H :    0.031100
  30 H :    0.026388
  31 H :    0.030882
  32 H :    0.035610
  33 H :    0.036731

  Mayer bond orders larger than 0.100000
B(  0-S ,  1-C ) :   1.1387 B(  0-S ,  4-C ) :   1.1759 B(  1-C ,  2-C ) :   1.5734
B(  1-C , 32-H ) :   0.9666 B(  2-C ,  3-C ) :   1.2854 B(  2-C ,  6-C ) :   1.0108
B(  3-C ,  4-C ) :   1.5236 B(  3-C ,  5-H ) :   0.9982 B(  4-C , 20-C ) :   1.0405
B(  6-C ,  7-H ) :   0.9434 B(  6-C ,  8-H ) :   0.9403 B(  6-C ,  9-C ) :   1.0619
B(  9-C , 10-H ) :   0.9564 B(  9-C , 11-H ) :   0.9586 B(  9-C , 12-C ) :   1.0862
B( 12-C , 13-H ) :   0.9784 B( 12-C , 14-H ) :   0.9752 B( 12-C , 15-H ) :   0.9731
B( 16-S , 17-C ) :   1.1535 B( 16-S , 20-C ) :   1.1334 B( 17-C , 18-C ) :   1.6133
B( 17-C , 33-H ) :   0.9620 B( 18-C , 19-C ) :   1.2364 B( 18-C , 21-H ) :   0.9893
B( 19-C , 20-C ) :   1.5885 B( 19-C , 22-C ) :   1.0411 B( 22-C , 23-H ) :   0.9324
B( 22-C , 24-H ) :   0.9352 B( 22-C , 25-C ) :   1.0785 B( 25-C , 26-H ) :   0.9561
B( 25-C , 27-H ) :   0.9539 B( 25-C , 28-C ) :   1.0627 B( 28-C , 29-H ) :   0.9746
B( 28-C , 30-H ) :   0.9780 B( 28-C , 31-H ) :   0.9694

Dispersion correction           -0.013527047
FINAL SINGLE POINT ENERGY     -1339.880334622376

DIPOLE MOMENT
-------------
                                X             Y             Z
Electronic contribution:     -3.85633      14.41231      -3.88833
Nuclear contribution   :      4.02972     -14.73330       3.81401
                        -----------------------------------------
Total Dipole Moment    :      0.17339      -0.32099      -0.07432
                        -----------------------------------------
Magnitude (a.u.)       :      0.37232
Magnitude (Debye)      :      0.94636

Rotational constants in cm-1:     0.025657     0.006638     0.005759
Rotational constants in MHz :   769.167524   199.002584   172.644964

                             ****ORCA TERMINATED NORMALLY****
TOTAL RUN TIME: 0 days 0 hours 0 minutes 33 seconds 758 msec
