                         Program Version 4.2.1 -  RELEASE  -
|  1> ! wB97X-D3 SP def2-SVP
|  2> %pal
|  3> nprocs 16
|  4> end
|  5>
|  6> * xyz 0 1
|  7> S 	 -31.5719 	 33.8652 	 37.899
|  8> C 	 -31.1519 	 35.4909 	 37.3336
|  9> C 	 -30.0465 	 35.91 	 38.0725
| 10> C 	 -29.713 	 35.0765 	 39.201
| 11> C 	 -30.5001 	 33.9611 	 39.3003
| 12> H 	 -28.9475 	 35.0381 	 40.0136
| 13> C 	 -29.4596 	 37.3265 	 37.8343
| 14> H 	 -30.3154 	 38.0303 	 37.7715
| 15> H 	 -28.9779 	 37.5072 	 36.8446
| 16> C 	 -28.4994 	 37.8521 	 38.943
| 17> H 	 -28.5444 	 38.9729 	 38.7217
| 18> H 	 -28.9027 	 37.7346 	 39.9821
| 19> C 	 -27.0617 	 37.3139 	 38.7958
| 20> H 	 -26.7601 	 37.4773 	 37.8086
| 21> H 	 -26.4519 	 37.8581 	 39.5391
| 22> H 	 -27.0146 	 36.2635 	 39.0426
| 23> S 	 -30.7919 	 31.1672 	 39.3958
| 24> C 	 -30.3191 	 30.3653 	 40.9489
| 25> C 	 -30.013 	 31.2628 	 41.8975
| 26> C 	 -30.0491 	 32.6399 	 41.4863
| 27> C 	 -30.3588 	 32.7555 	 40.1322
| 28> H 	 -29.6362 	 30.982 	 42.8854
| 29> C 	 -29.9915 	 33.6833 	 42.5747
| 30> H 	 -30.7435 	 33.4147 	 43.276
| 31> H 	 -30.2178 	 34.6415 	 42.0813
| 32> C 	 -28.7078 	 33.9368 	 43.3866
| 33> H 	 -28.4317 	 32.9218 	 43.8495
| 34> H 	 -28.976 	 34.6286 	 44.136
| 35> C 	 -27.4842 	 34.375 	 42.5664
| 36> H 	 -26.5931 	 34.4927 	 43.2286
| 37> H 	 -27.6257 	 35.237 	 41.9639
| 38> H 	 -27.0661 	 33.6054 	 41.9073
| 39> H 	 -31.4153 	 35.9202 	 36.3058
| 40> H 	 -30.3721 	 29.285 	 41.1815
| 41> *
| 42>
| 43>                          ****END OF INPUT****

CARTESIAN COORDINATES (ANGSTROEM)
---------------------------------
  S    -31.571900   33.865200   37.899000
  C    -31.151900   35.490900   37.333600
  C    -30.046500   35.910000   38.072500
  C    -29.713000   35.076500   39.201000
  C    -30.500100   33.961100   39.300300
  H    -28.947500   35.038100   40.013600
  C    -29.459600   37.326500   37.834300
  H    -30.315400   38.030300   37.771500
  H    -28.977900   37.507200   36.844600
  C    -28.499400   37.852100   38.943000
  H    -28.544400   38.972900   38.721700
  H    -28.902700   37.734600   39.982100
  C    -27.061700   37.313900   38.795800
  H    -26.760100   37.477300   37.808600
  H    -26.451900   37.858100   39.539100
  H    -27.014600   36.263500   39.042600
  S    -30.791900   31.167200   39.395800
  C    -30.319100   30.365300   40.948900
  C    -30.013000   31.262800   41.897500
  C    -30.049100   32.639900   41.486300
  C    -30.358800   32.755500   40.132200
  H    -29.636200   30.982000   42.885400
  C    -29.991500   33.683300   42.574700
  H    -30.743500   33.414700   43.276000
  H    -30.217800   34.641500   42.081300
  C    -28.707800   33.936800   43.386600
  H    -28.431700   32.921800   43.849500
  H    -28.976000   34.628600   44.136000
  C    -27.484200   34.375000   42.566400
  H    -26.593100   34.492700   43.228600
  H    -27.625700   35.237000   41.963900
  H    -27.066100   33.605400   41.907300
  H    -31.415300   35.920200   36.305800
  H    -30.372100   29.285000   41.181500

 Total Charge           Charge          ....    0
 Multiplicity           Mult            ....    1
 Number of Electrons    NEL             ....  134
 Basis Dimension        Dim             ....  322

ORBITAL ENERGIES
----------------

  NO   OCC          E(Eh)            E(eV)
   0   2.0000     -88.968691     -2420.9612
   1   2.0000     -88.961759     -2420.7725
   2   2.0000     -10.336774      -281.2779
   3   2.0000     -10.331505      -281.1345
   4   2.0000     -10.322252      -280.8827
   5   2.0000     -10.321570      -280.8642
   6   2.0000     -10.311298      -280.5847
   7   2.0000     -10.305495      -280.4268
   8   2.0000     -10.301111      -280.3075
   9   2.0000     -10.298243      -280.2294
  10   2.0000     -10.296289      -280.1763
  11   2.0000     -10.295264      -280.1484
  12   2.0000     -10.292814      -280.0817
  13   2.0000     -10.292251      -280.0664
  14   2.0000     -10.281924      -279.7854
  15   2.0000     -10.275066      -279.5988
  16   2.0000      -8.081676      -219.9136
  17   2.0000      -8.076096      -219.7617
  18   2.0000      -6.040595      -164.3730
  19   2.0000      -6.036660      -164.2659
  20   2.0000      -6.034698      -164.2125
  21   2.0000      -6.031865      -164.1354
  22   2.0000      -6.030646      -164.1022
  23   2.0000      -6.026783      -163.9971
  24   2.0000      -1.002272       -27.2732
  25   2.0000      -0.978624       -26.6297
  26   2.0000      -0.911130       -24.7931
  27   2.0000      -0.903820       -24.5942
  28   2.0000      -0.870001       -23.6739
  29   2.0000      -0.850339       -23.1389
  30   2.0000      -0.837042       -22.7771
  31   2.0000      -0.820773       -22.3344
  32   2.0000      -0.786135       -21.3918
  33   2.0000      -0.773548       -21.0493
  34   2.0000      -0.711946       -19.3730
  35   2.0000      -0.694725       -18.9044
  36   2.0000      -0.686186       -18.6721
  37   2.0000      -0.655485       -17.8367
  38   2.0000      -0.644235       -17.5305
  39   2.0000      -0.613245       -16.6872
  40   2.0000      -0.594819       -16.1858
  41   2.0000      -0.566050       -15.4030
  42   2.0000      -0.559055       -15.2127
  43   2.0000      -0.546685       -14.8760
  44   2.0000      -0.540174       -14.6989
  45   2.0000      -0.524210       -14.2645
  46   2.0000      -0.522102       -14.2071
  47   2.0000      -0.511357       -13.9147
  48   2.0000      -0.506024       -13.7696
  49   2.0000      -0.496092       -13.4994
  50   2.0000      -0.491410       -13.3719
  51   2.0000      -0.489609       -13.3229
  52   2.0000      -0.468641       -12.7524
  53   2.0000      -0.467524       -12.7220
  54   2.0000      -0.457911       -12.4604
  55   2.0000      -0.451192       -12.2776
  56   2.0000      -0.440650       -11.9907
  57   2.0000      -0.435858       -11.8603
  58   2.0000      -0.431695       -11.7470
  59   2.0000      -0.427198       -11.6246
  60   2.0000      -0.420118       -11.4320
  61   2.0000      -0.414380       -11.2758
  62   2.0000      -0.400682       -10.9031
  63   2.0000      -0.357978        -9.7411
  64   2.0000      -0.334861        -9.1120
  65   2.0000      -0.325203        -8.8492
  66   2.0000      -0.288601        -7.8532
  67   0.0000       0.018595         0.5060
  68   0.0000       0.070562         1.9201
  69   0.0000       0.093803         2.5525
  70   0.0000       0.115171         3.1340
  71   0.0000       0.124579         3.3900

MULLIKEN ATOMIC CHARGES
-----------------------
   0 S :    0.072031
   1 C :   -0.130251
   2 C :   -0.059033
   3 C :    0.016355
   4 C :   -0.137482
   5 H :    0.004359
   6 C :    0.005641
   7 H :    0.040267
   8 H :    0.034309
   9 C :   -0.131467
  10 H :    0.036423
  11 H :    0.040682
  12 C :   -0.005085
  13 H :    0.019811
  14 H :    0.038742
  15 H :    0.032430
  16 S :    0.088677
  17 C :   -0.086736
  18 C :   -0.030817
  19 C :   -0.052366
  20 C :   -0.134108
  21 H :    0.023776
  22 C :    0.052065
  23 H :    0.037255
  24 H :    0.019521
  25 C :   -0.059418
  26 H :    0.030096
  27 H :    0.035148
  28 C :   -0.067638
  29 H :    0.035946
  30 H :    0.037282
  31 H :    0.037693
  32 H :    0.088879
  33 H :    0.067013
Sum of atomic charges:   -0.0000000

LOEWDIN ATOMIC CHARGES
----------------------
   0 S :    0.379994
   1 C :   -0.208001
   2 C :   -0.061155
   3 C :   -0.081697
   4 C :   -0.175714
   5 H :    0.040718
   6 C :   -0.042784
   7 H :    0.035537
   8 H :    0.032457
   9 C :   -0.051242
  10 H :    0.031884
  11 H :    0.025204
  12 C :   -0.057420
  13 H :    0.017244
  14 H :    0.031082
  15 H :    0.022816
  16 S :    0.352817
  17 C :   -0.164988
  18 C :   -0.071884
  19 C :   -0.059940
  20 C :   -0.175052
  21 H :    0.032801
  22 C :   -0.031302
  23 H :    0.034215
  24 H :    0.029141
  25 C :   -0.034460
  26 H :    0.028897
  27 H :    0.022271
  28 C :   -0.074979
  29 H :    0.035109
  30 H :    0.015357
  31 H :    0.031482
  32 H :    0.051635
  33 H :    0.039956

  Mayer bond orders larger than 0.100000
B(  0-S ,  1-C ) :   1.1266 B(  0-S ,  4-C ) :   1.1389 B(  1-C ,  2-C ) :   1.6230
B(  1-C , 32-H ) :   0.9601 B(  2-C ,  3-C ) :   1.2116 B(  2-C ,  6-C ) :   0.9972
B(  3-C ,  4-C ) :   1.5998 B(  3-C ,  5-H ) :   0.9774 B(  4-C , 20-C ) :   1.0559
B(  6-C ,  7-H ) :   0.9532 B(  6-C ,  8-H ) :   0.9398 B(  6-C ,  9-C ) :   1.0842
B(  9-C , 10-H ) :   0.9557 B(  9-C , 11-H ) :   0.9526 B(  9-C , 12-C ) :   1.0687
B( 12-C , 13-H ) :   0.9731 B( 12-C , 14-H ) :   0.9736 B( 12-C , 15-H ) :   0.9779
B( 16-S , 17-C ) :   1.1052 B( 16-S , 20-C ) :   1.1080 B( 17-C , 18-C ) :   1.6829
B( 17-C , 33-H ) :   0.9596 B( 18-C , 19-C ) :   1.1990 B( 18-C , 21-H ) :   0.9804
B( 19-C , 20-C ) :   1.6287 B( 19-C , 22-C ) :   1.0387 B( 22-C , 23-H ) :   0.9373
B( 22-C , 24-H ) :   0.9297 B( 22-C , 25-C ) :   1.0795 B( 25-C , 26-H ) :   0.9519
B( 25-C , 27-H ) :   0.9546 B( 25-C , 28-C ) :   1.0807 B( 28-C , 29-H ) :   0.9684
B( 28-C , 30-H ) :   0.9685 B( 28-C , 31-H ) :   0.9711

Dispersion correction           -0.014964432
FINAL SINGLE POINT ENERGY     -1339.863389863746

DIPOLE MOMENT
-------------
                                X             Y             Z
Electronic contribution:    -19.37248     -20.47767     -12.60535
Nuclear contribution   :     19.82513      20.83640      13.08421
                        -----------------------------------------
Total Dipole Moment    :      0.45265       0.35873       0.47886
                        -----------------------------------------
Magnitude (a.u.)       :      0.75026
Magnitude (Debye)      :      1.90700

Rotational constants in cm-1:     0.017105     0.010429     0.007014
Rotational constants in MHz :   512.807159   312.651672   210.276882

                             ****ORCA TERMINATED NORMALLY****
TOTAL RUN TIME: 0 days 0 hours 0 minutes 33 seconds 255 msec
