                         Program Version 4.2.1 -  RELEASE  -
|  1> ! wB97X-D3 SP def2-SVP
|  2> %pal
|  3> nprocs 16
|  4> end
|  5>
|  6> * xyz 0 1
|  7> S 	 12.766 	 0.555187 	 85.6343
|  8> C 	 13.7494 	 1.80206 	 84.9446
|  9> C 	 13.0382 	 2.80389 	 84.3433
| 10> C 	 11.6372 	 2.54623 	 84.3415
| 11> C 	 11.3636 	 1.39222 	 84.9902
| 12> H 	 10.8898 	 3.13944 	 83.8929
| 13> C 	 13.6683 	 3.98223 	 83.7648
| 14> H 	 14.7492 	 4.03763 	 84.1242
| 15> H 	 13.1353 	 4.79843 	 84.25
| 16> C 	 13.6474 	 4.18998 	 82.2543
| 17> H 	 12.645 	 4.32641 	 81.8905
| 18> H 	 14.0683 	 5.22863 	 82.0641
| 19> C 	 14.4532 	 3.15194 	 81.3933
| 20> H 	 15.5012 	 3.16073 	 81.665
| 21> H 	 14.0107 	 2.21328 	 81.6559
| 22> H 	 14.3671 	 3.40838 	 80.3123
| 23> S 	 9.55794 	 0.0783747 	 86.6881
| 24> C 	 7.90749 	 -0.0730052 	 86.2946
| 25> C 	 7.74234 	 0.412951 	 84.9962
| 26> C 	 8.93138 	 0.807082 	 84.3136
| 27> C 	 10.0612 	 0.754701 	 85.0946
| 28> H 	 6.7385 	 0.43933 	 84.5627
| 29> C 	 8.8775 	 1.29931 	 82.8481
| 30> H 	 8.53842 	 0.481561 	 82.2632
| 31> H 	 9.8943 	 1.45664 	 82.4858
| 32> C 	 8.05033 	 2.55245 	 82.6978
| 33> H 	 8.65686 	 3.38514 	 83.0788
| 34> H 	 7.188 	 2.51453 	 83.3605
| 35> C 	 7.59244 	 2.77444 	 81.2705
| 36> H 	 8.45198 	 3.11672 	 80.6235
| 37> H 	 6.94078 	 3.56949 	 81.3332
| 38> H 	 6.96066 	 1.90232 	 80.8721
| 39> H 	 14.8473 	 1.76405 	 84.6695
| 40> H 	 7.05371 	 -0.260051 	 86.9391
| 41> *
| 42>
| 43>                          ****END OF INPUT****

CARTESIAN COORDINATES (ANGSTROEM)
---------------------------------
  S     12.766000    0.555187   85.634300
  C     13.749400    1.802060   84.944600
  C     13.038200    2.803890   84.343300
  C     11.637200    2.546230   84.341500
  C     11.363600    1.392220   84.990200
  H     10.889800    3.139440   83.892900
  C     13.668300    3.982230   83.764800
  H     14.749200    4.037630   84.124200
  H     13.135300    4.798430   84.250000
  C     13.647400    4.189980   82.254300
  H     12.645000    4.326410   81.890500
  H     14.068300    5.228630   82.064100
  C     14.453200    3.151940   81.393300
  H     15.501200    3.160730   81.665000
  H     14.010700    2.213280   81.655900
  H     14.367100    3.408380   80.312300
  S      9.557940    0.078375   86.688100
  C      7.907490   -0.073005   86.294600
  C      7.742340    0.412951   84.996200
  C      8.931380    0.807082   84.313600
  C     10.061200    0.754701   85.094600
  H      6.738500    0.439330   84.562700
  C      8.877500    1.299310   82.848100
  H      8.538420    0.481561   82.263200
  H      9.894300    1.456640   82.485800
  C      8.050330    2.552450   82.697800
  H      8.656860    3.385140   83.078800
  H      7.188000    2.514530   83.360500
  C      7.592440    2.774440   81.270500
  H      8.451980    3.116720   80.623500
  H      6.940780    3.569490   81.333200
  H      6.960660    1.902320   80.872100
  H     14.847300    1.764050   84.669500
  H      7.053710   -0.260051   86.939100

 Total Charge           Charge          ....    0
 Multiplicity           Mult            ....    1
 Number of Electrons    NEL             ....  134
 Basis Dimension        Dim             ....  322

ORBITAL ENERGIES
----------------

  NO   OCC          E(Eh)            E(eV)
   0   2.0000     -88.968483     -2420.9555
   1   2.0000     -88.961256     -2420.7589
   2   2.0000     -10.329910      -281.0911
   3   2.0000     -10.327226      -281.0181
   4   2.0000     -10.317560      -280.7551
   5   2.0000     -10.310424      -280.5609
   6   2.0000     -10.302250      -280.3385
   7   2.0000     -10.294049      -280.1153
   8   2.0000     -10.293221      -280.0928
   9   2.0000     -10.292684      -280.0782
  10   2.0000     -10.292233      -280.0659
  11   2.0000     -10.290834      -280.0278
  12   2.0000     -10.286517      -279.9103
  13   2.0000     -10.286077      -279.8984
  14   2.0000     -10.282719      -279.8070
  15   2.0000     -10.281850      -279.7834
  16   2.0000      -8.083536      -219.9642
  17   2.0000      -8.076193      -219.7644
  18   2.0000      -6.042043      -164.4123
  19   2.0000      -6.038213      -164.3081
  20   2.0000      -6.034697      -164.2125
  21   2.0000      -6.034059      -164.1951
  22   2.0000      -6.030552      -164.0997
  23   2.0000      -6.027036      -164.0040
  24   2.0000      -1.011735       -27.5307
  25   2.0000      -0.988128       -26.8883
  26   2.0000      -0.916180       -24.9305
  27   2.0000      -0.915270       -24.9058
  28   2.0000      -0.871201       -23.7066
  29   2.0000      -0.855421       -23.2772
  30   2.0000      -0.846140       -23.0246
  31   2.0000      -0.816369       -22.2145
  32   2.0000      -0.785125       -21.3643
  33   2.0000      -0.775765       -21.1096
  34   2.0000      -0.711361       -19.3571
  35   2.0000      -0.698843       -19.0165
  36   2.0000      -0.694993       -18.9117
  37   2.0000      -0.660417       -17.9709
  38   2.0000      -0.635992       -17.3062
  39   2.0000      -0.625347       -17.0166
  40   2.0000      -0.597996       -16.2723
  41   2.0000      -0.567965       -15.4551
  42   2.0000      -0.564894       -15.3715
  43   2.0000      -0.553674       -15.0662
  44   2.0000      -0.542698       -14.7676
  45   2.0000      -0.531489       -14.4625
  46   2.0000      -0.517325       -14.0771
  47   2.0000      -0.513920       -13.9845
  48   2.0000      -0.510341       -13.8871
  49   2.0000      -0.496678       -13.5153
  50   2.0000      -0.492726       -13.4078
  51   2.0000      -0.479865       -13.0578
  52   2.0000      -0.474221       -12.9042
  53   2.0000      -0.465753       -12.6738
  54   2.0000      -0.462585       -12.5876
  55   2.0000      -0.450454       -12.2575
  56   2.0000      -0.447225       -12.1696
  57   2.0000      -0.442837       -12.0502
  58   2.0000      -0.437138       -11.8951
  59   2.0000      -0.425490       -11.5782
  60   2.0000      -0.421745       -11.4763
  61   2.0000      -0.413477       -11.2513
  62   2.0000      -0.405190       -11.0258
  63   2.0000      -0.357021        -9.7150
  64   2.0000      -0.334662        -9.1066
  65   2.0000      -0.327968        -8.9245
  66   2.0000      -0.285633        -7.7725
  67   0.0000       0.028093         0.7645
  68   0.0000       0.070244         1.9114
  69   0.0000       0.108669         2.9570
  70   0.0000       0.118920         3.2360
  71   0.0000       0.125108         3.4044

MULLIKEN ATOMIC CHARGES
-----------------------
   0 S :    0.120441
   1 C :   -0.126052
   2 C :   -0.103575
   3 C :    0.030089
   4 C :   -0.114662
   5 H :   -0.021171
   6 C :    0.044334
   7 H :    0.027940
   8 H :    0.034664
   9 C :   -0.087081
  10 H :    0.016854
  11 H :    0.028099
  12 C :   -0.043420
  13 H :    0.029619
  14 H :    0.040116
  15 H :    0.048820
  16 S :    0.083322
  17 C :   -0.077843
  18 C :   -0.071284
  19 C :   -0.066574
  20 C :   -0.112546
  21 H :    0.022995
  22 C :    0.091582
  23 H :    0.019957
  24 H :    0.018822
  25 C :   -0.096277
  26 H :    0.025495
  27 H :    0.024122
  28 C :   -0.025558
  29 H :    0.044354
  30 H :    0.011585
  31 H :    0.047617
  32 H :    0.066646
  33 H :    0.068571
Sum of atomic charges:    0.0000000

LOEWDIN ATOMIC CHARGES
----------------------
   0 S :    0.408314
   1 C :   -0.219651
   2 C :   -0.069246
   3 C :   -0.054858
   4 C :   -0.174627
   5 H :    0.025269
   6 C :   -0.041103
   7 H :    0.037313
   8 H :    0.039283
   9 C :   -0.045064
  10 H :    0.016083
  11 H :    0.028368
  12 C :   -0.062475
  13 H :    0.023023
  14 H :    0.023477
  15 H :    0.034073
  16 S :    0.397550
  17 C :   -0.202207
  18 C :   -0.081093
  19 C :   -0.058599
  20 C :   -0.185506
  21 H :    0.029091
  22 C :   -0.027362
  23 H :    0.026032
  24 H :    0.027674
  25 C :   -0.042797
  26 H :    0.024341
  27 H :    0.022020
  28 C :   -0.065447
  29 H :    0.034075
  30 H :    0.013977
  31 H :    0.037253
  32 H :    0.043415
  33 H :    0.039408

  Mayer bond orders larger than 0.100000
B(  0-S ,  1-C ) :   1.1184 B(  0-S ,  4-C ) :   1.1452 B(  1-C ,  2-C ) :   1.6521
B(  1-C , 32-H ) :   0.9474 B(  2-C ,  3-C ) :   1.2010 B(  2-C ,  6-C ) :   1.0362
B(  3-C ,  4-C ) :   1.5973 B(  3-C ,  5-H ) :   1.0059 B(  4-C , 20-C ) :   1.0233
B(  6-C ,  7-H ) :   0.9414 B(  6-C ,  8-H ) :   0.9251 B(  6-C ,  9-C ) :   1.0790
B(  9-C , 10-H ) :   0.9554 B(  9-C , 11-H ) :   0.9528 B(  9-C , 12-C ) :   1.0605
B( 12-C , 13-H ) :   0.9759 B( 12-C , 14-H ) :   0.9791 B( 12-C , 15-H ) :   0.9754
B( 16-S , 17-C ) :   1.1699 B( 16-S , 20-C ) :   1.1207 B( 17-C , 18-C ) :   1.5881
B( 17-C , 33-H ) :   0.9665 B( 18-C , 19-C ) :   1.2572 B( 18-C , 21-H ) :   0.9851
B( 19-C , 20-C ) :   1.6117 B( 19-C , 22-C ) :   1.0242 B( 22-C , 23-H ) :   0.9377
B( 22-C , 24-H ) :   0.9348 B( 22-C , 25-C ) :   1.0578 B( 25-C , 26-H ) :   0.9450
B( 25-C , 27-H ) :   0.9589 B( 25-C , 28-C ) :   1.0894 B( 28-C , 29-H ) :   0.9706
B( 28-C , 30-H ) :   0.9701 B( 28-C , 31-H ) :   0.9724

Dispersion correction           -0.014479525
FINAL SINGLE POINT ENERGY     -1339.874548064944

DIPOLE MOMENT
-------------
                                X             Y             Z
Electronic contribution:      0.70012     -17.49180      25.93119
Nuclear contribution   :     -0.98689      18.07011     -26.57023
                        -----------------------------------------
Total Dipole Moment    :     -0.28677       0.57832      -0.63905
                        -----------------------------------------
Magnitude (a.u.)       :      0.90833
Magnitude (Debye)      :      2.30879

Rotational constants in cm-1:     0.017221     0.009841     0.006660
Rotational constants in MHz :   516.284939   295.017165   199.671630

                             ****ORCA TERMINATED NORMALLY****
TOTAL RUN TIME: 0 days 0 hours 0 minutes 34 seconds 613 msec
