                         Program Version 4.2.1 -  RELEASE  -
|  1> ! wB97X-D3 SP def2-SVP
|  2> %pal
|  3> nprocs 16
|  4> end
|  5>
|  6> * xyz 0 1
|  7> S 	 -24.1147 	 49.9017 	 65.8516
|  8> C 	 -23.5696 	 50.8195 	 64.411
|  9> C 	 -22.4906 	 51.5906 	 64.8022
| 10> C 	 -22.149 	 51.4451 	 66.1823
| 11> C 	 -22.9515 	 50.6108 	 66.8577
| 12> H 	 -21.4834 	 52.1842 	 66.7857
| 13> C 	 -21.7907 	 52.4461 	 63.799
| 14> H 	 -22.3045 	 53.4475 	 63.7814
| 15> H 	 -21.9964 	 51.9521 	 62.8585
| 16> C 	 -20.2693 	 52.6664 	 64.058
| 17> H 	 -19.8263 	 53.2381 	 63.1833
| 18> H 	 -20.1004 	 53.2451 	 64.9827
| 19> C 	 -19.5367 	 51.2858 	 64.1542
| 20> H 	 -19.828 	 50.6021 	 64.9164
| 21> H 	 -19.6306 	 50.6826 	 63.2541
| 22> H 	 -18.4699 	 51.4444 	 64.3072
| 23> S 	 -24.2403 	 50.6775 	 69.2007
| 24> C 	 -23.4046 	 50.5648 	 70.7683
| 25> C 	 -22.0544 	 50.3927 	 70.5456
| 26> C 	 -21.6961 	 50.4549 	 69.1647
| 27> C 	 -22.8007 	 50.434 	 68.2986
| 28> H 	 -21.2537 	 50.2332 	 71.3046
| 29> C 	 -20.2928 	 50.4138 	 68.755
| 30> H 	 -19.6273 	 50.7107 	 69.591
| 31> H 	 -20.3118 	 51.3036 	 68.0624
| 32> C 	 -19.7768 	 49.1619 	 68.0198
| 33> H 	 -20.3998 	 48.9686 	 67.1217
| 34> H 	 -20.007 	 48.2982 	 68.6824
| 35> C 	 -18.3366 	 49.2011 	 67.7366
| 36> H 	 -17.7572 	 49.35 	 68.6165
| 37> H 	 -18.1852 	 49.9879 	 66.9631
| 38> H 	 -17.9734 	 48.2897 	 67.3134
| 39> H 	 -23.9865 	 50.7337 	 63.392
| 40> H 	 -23.8936 	 50.8286 	 71.66
| 41> *
| 42>
| 43>                          ****END OF INPUT****

CARTESIAN COORDINATES (ANGSTROEM)
---------------------------------
  S    -24.114700   49.901700   65.851600
  C    -23.569600   50.819500   64.411000
  C    -22.490600   51.590600   64.802200
  C    -22.149000   51.445100   66.182300
  C    -22.951500   50.610800   66.857700
  H    -21.483400   52.184200   66.785700
  C    -21.790700   52.446100   63.799000
  H    -22.304500   53.447500   63.781400
  H    -21.996400   51.952100   62.858500
  C    -20.269300   52.666400   64.058000
  H    -19.826300   53.238100   63.183300
  H    -20.100400   53.245100   64.982700
  C    -19.536700   51.285800   64.154200
  H    -19.828000   50.602100   64.916400
  H    -19.630600   50.682600   63.254100
  H    -18.469900   51.444400   64.307200
  S    -24.240300   50.677500   69.200700
  C    -23.404600   50.564800   70.768300
  C    -22.054400   50.392700   70.545600
  C    -21.696100   50.454900   69.164700
  C    -22.800700   50.434000   68.298600
  H    -21.253700   50.233200   71.304600
  C    -20.292800   50.413800   68.755000
  H    -19.627300   50.710700   69.591000
  H    -20.311800   51.303600   68.062400
  C    -19.776800   49.161900   68.019800
  H    -20.399800   48.968600   67.121700
  H    -20.007000   48.298200   68.682400
  C    -18.336600   49.201100   67.736600
  H    -17.757200   49.350000   68.616500
  H    -18.185200   49.987900   66.963100
  H    -17.973400   48.289700   67.313400
  H    -23.986500   50.733700   63.392000
  H    -23.893600   50.828600   71.660000

 Total Charge           Charge          ....    0
 Multiplicity           Mult            ....    1
 Number of Electrons    NEL             ....  134
 Basis Dimension        Dim             ....  322

ORBITAL ENERGIES
----------------

  NO   OCC          E(Eh)            E(eV)
   0   2.0000     -88.966775     -2420.9090
   1   2.0000     -88.963069     -2420.8082
   2   2.0000     -10.325408      -280.9686
   3   2.0000     -10.325122      -280.9608
   4   2.0000     -10.317610      -280.7564
   5   2.0000     -10.317327      -280.7487
   6   2.0000     -10.300929      -280.3025
   7   2.0000     -10.300586      -280.2932
   8   2.0000     -10.300513      -280.2912
   9   2.0000     -10.298546      -280.2377
  10   2.0000     -10.294140      -280.1178
  11   2.0000     -10.293547      -280.1017
  12   2.0000     -10.290397      -280.0159
  13   2.0000     -10.284012      -279.8422
  14   2.0000     -10.274127      -279.5732
  15   2.0000     -10.271028      -279.4889
  16   2.0000      -8.081766      -219.9160
  17   2.0000      -8.078140      -219.8174
  18   2.0000      -6.040370      -164.3668
  19   2.0000      -6.036648      -164.2656
  20   2.0000      -6.036138      -164.2517
  21   2.0000      -6.032490      -164.1524
  22   2.0000      -6.032432      -164.1508
  23   2.0000      -6.029041      -164.0586
  24   2.0000      -1.015135       -27.6232
  25   2.0000      -0.987944       -26.8833
  26   2.0000      -0.915519       -24.9125
  27   2.0000      -0.911655       -24.8074
  28   2.0000      -0.871058       -23.7027
  29   2.0000      -0.859215       -23.3804
  30   2.0000      -0.840988       -22.8844
  31   2.0000      -0.819885       -22.3102
  32   2.0000      -0.780972       -21.2513
  33   2.0000      -0.769512       -20.9395
  34   2.0000      -0.711826       -19.3698
  35   2.0000      -0.699218       -19.0267
  36   2.0000      -0.691710       -18.8224
  37   2.0000      -0.666518       -18.1369
  38   2.0000      -0.634774       -17.2731
  39   2.0000      -0.619583       -16.8597
  40   2.0000      -0.595644       -16.2083
  41   2.0000      -0.568484       -15.4692
  42   2.0000      -0.561691       -15.2844
  43   2.0000      -0.552381       -15.0311
  44   2.0000      -0.536241       -14.5919
  45   2.0000      -0.528021       -14.3682
  46   2.0000      -0.525011       -14.2863
  47   2.0000      -0.519750       -14.1431
  48   2.0000      -0.504417       -13.7259
  49   2.0000      -0.497179       -13.5289
  50   2.0000      -0.493203       -13.4207
  51   2.0000      -0.486686       -13.2434
  52   2.0000      -0.474540       -12.9129
  53   2.0000      -0.463846       -12.6219
  54   2.0000      -0.456409       -12.4195
  55   2.0000      -0.451096       -12.2749
  56   2.0000      -0.440122       -11.9763
  57   2.0000      -0.433600       -11.7989
  58   2.0000      -0.430446       -11.7130
  59   2.0000      -0.428565       -11.6618
  60   2.0000      -0.422964       -11.5094
  61   2.0000      -0.414096       -11.2681
  62   2.0000      -0.404989       -11.0203
  63   2.0000      -0.353568        -9.6211
  64   2.0000      -0.329939        -8.9781
  65   2.0000      -0.325805        -8.8656
  66   2.0000      -0.290293        -7.8993
  67   0.0000       0.028090         0.7644
  68   0.0000       0.074971         2.0401
  69   0.0000       0.110965         3.0195
  70   0.0000       0.115910         3.1541
  71   0.0000       0.126798         3.4503

MULLIKEN ATOMIC CHARGES
-----------------------
   0 S :    0.108581
   1 C :   -0.152739
   2 C :   -0.102523
   3 C :   -0.045461
   4 C :   -0.110484
   5 H :    0.067065
   6 C :    0.075090
   7 H :    0.053424
   8 H :    0.017448
   9 C :   -0.091337
  10 H :    0.047762
  11 H :    0.040626
  12 C :   -0.062506
  13 H :    0.035948
  14 H :    0.024764
  15 H :    0.032166
  16 S :    0.090315
  17 C :   -0.082082
  18 C :   -0.017666
  19 C :   -0.084260
  20 C :   -0.127970
  21 H :    0.032544
  22 C :    0.043909
  23 H :    0.015098
  24 H :    0.008392
  25 C :   -0.070449
  26 H :    0.042743
  27 H :    0.023471
  28 C :    0.001065
  29 H :    0.021183
  30 H :    0.027863
  31 H :    0.024101
  32 H :    0.063131
  33 H :    0.050786
Sum of atomic charges:   -0.0000000

LOEWDIN ATOMIC CHARGES
----------------------
   0 S :    0.410033
   1 C :   -0.197858
   2 C :   -0.061286
   3 C :   -0.089443
   4 C :   -0.213358
   5 H :    0.049128
   6 C :   -0.037001
   7 H :    0.041221
   8 H :    0.028651
   9 C :   -0.040790
  10 H :    0.035418
  11 H :    0.025367
  12 C :   -0.071618
  13 H :    0.020517
  14 H :    0.026248
  15 H :    0.025179
  16 S :    0.415006
  17 C :   -0.172505
  18 C :   -0.070050
  19 C :   -0.062654
  20 C :   -0.204571
  21 H :    0.039505
  22 C :   -0.043724
  23 H :    0.030346
  24 H :    0.033510
  25 C :   -0.043516
  26 H :    0.029303
  27 H :    0.025437
  28 C :   -0.061190
  29 H :    0.021473
  30 H :    0.029882
  31 H :    0.025066
  32 H :    0.037816
  33 H :    0.020458

  Mayer bond orders larger than 0.100000
B(  0-S ,  1-C ) :   1.1096 B(  0-S ,  4-C ) :   1.1653 B(  1-C ,  2-C ) :   1.6199
B(  1-C , 32-H ) :   0.9702 B(  2-C ,  3-C ) :   1.2413 B(  2-C ,  6-C ) :   1.0152
B(  3-C ,  4-C ) :   1.5910 B(  3-C ,  5-H ) :   0.9597 B(  4-C , 20-C ) :   1.0095
B(  6-C ,  7-H ) :   0.9314 B(  6-C ,  8-H ) :   0.9428 B(  6-C ,  9-C ) :   1.0775
B(  9-C , 10-H ) :   0.9574 B(  9-C , 11-H ) :   0.9506 B(  9-C , 12-C ) :   1.0694
B( 12-C , 13-H ) :   0.9725 B( 12-C , 14-H ) :   0.9717 B( 12-C , 15-H ) :   0.9749
B( 16-S , 17-C ) :   1.1653 B( 16-S , 20-C ) :   1.1589 B( 17-C , 18-C ) :   1.5518
B( 17-C , 20-C ) :   0.1064 B( 17-C , 33-H ) :   0.9789 B( 18-C , 19-C ) :   1.2880
B( 18-C , 21-H ) :   0.9814 B( 19-C , 20-C ) :   1.5514 B( 19-C , 22-C ) :   1.0547
B( 22-C , 23-H ) :   0.9282 B( 22-C , 24-H ) :   0.9128 B( 22-C , 25-C ) :   1.0632
B( 25-C , 26-H ) :   0.9453 B( 25-C , 27-H ) :   0.9502 B( 25-C , 28-C ) :   1.1001
B( 28-C , 29-H ) :   0.9687 B( 28-C , 30-H ) :   0.9699 B( 28-C , 31-H ) :   0.9676

Dispersion correction           -0.016054743
FINAL SINGLE POINT ENERGY     -1339.876026593369

DIPOLE MOMENT
-------------
                                X             Y             Z
Electronic contribution:    -28.53513      -2.63608       9.83736
Nuclear contribution   :     29.16742       2.95462      -9.96545
                        -----------------------------------------
Total Dipole Moment    :      0.63228       0.31854      -0.12809
                        -----------------------------------------
Magnitude (a.u.)       :      0.71948
Magnitude (Debye)      :      1.82878

Rotational constants in cm-1:     0.017480     0.011052     0.007743
Rotational constants in MHz :   524.031300   331.326087   232.141122

                             ****ORCA TERMINATED NORMALLY****
TOTAL RUN TIME: 0 days 0 hours 0 minutes 35 seconds 530 msec
