                         Program Version 4.2.1 -  RELEASE  -
|  1> ! wB97X-D3 SP def2-SVP
|  2> %pal
|  3> nprocs 16
|  4> end
|  5>
|  6> * xyz 0 1
|  7> S 	 -19.1058 	 34.8232 	 44.4825
|  8> C 	 -18.2196 	 33.85 	 45.5148
|  9> C 	 -18.6888 	 32.5358 	 45.5282
| 10> C 	 -19.9446 	 32.3679 	 44.8763
| 11> C 	 -20.3178 	 33.5252 	 44.2532
| 12> H 	 -20.5708 	 31.5036 	 44.9465
| 13> C 	 -17.8585 	 31.3985 	 46.089
| 14> H 	 -18.1439 	 31.2784 	 47.1208
| 15> H 	 -16.7801 	 31.6283 	 45.9033
| 16> C 	 -18.0099 	 30.111 	 45.2964
| 17> H 	 -18.9646 	 29.6553 	 45.2551
| 18> H 	 -17.8466 	 30.3097 	 44.2018
| 19> C 	 -17.2322 	 28.9509 	 46.0371
| 20> H 	 -17.688 	 28.8589 	 46.973
| 21> H 	 -17.4037 	 28.0662 	 45.424
| 22> H 	 -16.1601 	 29.0256 	 46.1786
| 23> S 	 -21.0935 	 34.7098 	 41.8759
| 24> C 	 -22.6977 	 34.5018 	 41.236
| 25> C 	 -23.3713 	 33.5898 	 42.0051
| 26> C 	 -22.6606 	 33.1247 	 43.1069
| 27> C 	 -21.4159 	 33.69 	 43.268
| 28> H 	 -24.4148 	 33.3186 	 41.7252
| 29> C 	 -23.2748 	 32.051 	 44.0511
| 30> H 	 -24.3222 	 32.1857 	 44.0564
| 31> H 	 -23.023 	 32.2055 	 45.1075
| 32> C 	 -22.9699 	 30.5824 	 43.6998
| 33> H 	 -21.8985 	 30.5065 	 43.6898
| 34> H 	 -23.21 	 30.3008 	 42.7085
| 35> C 	 -23.7322 	 29.6182 	 44.6306
| 36> H 	 -23.2807 	 28.5443 	 44.4805
| 37> H 	 -24.7472 	 29.643 	 44.43
| 38> H 	 -23.5985 	 29.8995 	 45.6806
| 39> H 	 -17.2407 	 34.1566 	 45.8357
| 40> H 	 -23.1077 	 35.0331 	 40.3697
| 41> *
| 42>
| 43>                          ****END OF INPUT****

CARTESIAN COORDINATES (ANGSTROEM)
---------------------------------
  S    -19.105800   34.823200   44.482500
  C    -18.219600   33.850000   45.514800
  C    -18.688800   32.535800   45.528200
  C    -19.944600   32.367900   44.876300
  C    -20.317800   33.525200   44.253200
  H    -20.570800   31.503600   44.946500
  C    -17.858500   31.398500   46.089000
  H    -18.143900   31.278400   47.120800
  H    -16.780100   31.628300   45.903300
  C    -18.009900   30.111000   45.296400
  H    -18.964600   29.655300   45.255100
  H    -17.846600   30.309700   44.201800
  C    -17.232200   28.950900   46.037100
  H    -17.688000   28.858900   46.973000
  H    -17.403700   28.066200   45.424000
  H    -16.160100   29.025600   46.178600
  S    -21.093500   34.709800   41.875900
  C    -22.697700   34.501800   41.236000
  C    -23.371300   33.589800   42.005100
  C    -22.660600   33.124700   43.106900
  C    -21.415900   33.690000   43.268000
  H    -24.414800   33.318600   41.725200
  C    -23.274800   32.051000   44.051100
  H    -24.322200   32.185700   44.056400
  H    -23.023000   32.205500   45.107500
  C    -22.969900   30.582400   43.699800
  H    -21.898500   30.506500   43.689800
  H    -23.210000   30.300800   42.708500
  C    -23.732200   29.618200   44.630600
  H    -23.280700   28.544300   44.480500
  H    -24.747200   29.643000   44.430000
  H    -23.598500   29.899500   45.680600
  H    -17.240700   34.156600   45.835700
  H    -23.107700   35.033100   40.369700

 Total Charge           Charge          ....    0
 Multiplicity           Mult            ....    1
 Number of Electrons    NEL             ....  134
 Basis Dimension        Dim             ....  322

ORBITAL ENERGIES
----------------

  NO   OCC          E(Eh)            E(eV)
   0   2.0000     -88.966516     -2420.9020
   1   2.0000     -88.962844     -2420.8021
   2   2.0000     -10.333972      -281.2017
   3   2.0000     -10.328150      -281.0433
   4   2.0000     -10.314847      -280.6813
   5   2.0000     -10.307391      -280.4784
   6   2.0000     -10.299627      -280.2671
   7   2.0000     -10.298946      -280.2486
   8   2.0000     -10.294381      -280.1244
   9   2.0000     -10.291702      -280.0515
  10   2.0000     -10.291615      -280.0491
  11   2.0000     -10.290195      -280.0104
  12   2.0000     -10.288016      -279.9512
  13   2.0000     -10.284962      -279.8681
  14   2.0000     -10.282825      -279.8099
  15   2.0000     -10.276748      -279.6445
  16   2.0000      -8.082108      -219.9253
  17   2.0000      -8.077784      -219.8077
  18   2.0000      -6.040450      -164.3690
  19   2.0000      -6.036523      -164.2621
  20   2.0000      -6.036283      -164.2556
  21   2.0000      -6.032966      -164.1653
  22   2.0000      -6.032201      -164.1445
  23   2.0000      -6.028606      -164.0467
  24   2.0000      -1.010898       -27.5079
  25   2.0000      -0.991076       -26.9685
  26   2.0000      -0.912444       -24.8289
  27   2.0000      -0.908488       -24.7212
  28   2.0000      -0.871606       -23.7176
  29   2.0000      -0.854932       -23.2639
  30   2.0000      -0.847238       -23.0545
  31   2.0000      -0.817717       -22.2512
  32   2.0000      -0.779578       -21.2134
  33   2.0000      -0.768623       -20.9153
  34   2.0000      -0.711338       -19.3565
  35   2.0000      -0.706006       -19.2114
  36   2.0000      -0.690253       -18.7827
  37   2.0000      -0.663425       -18.0527
  38   2.0000      -0.642985       -17.4965
  39   2.0000      -0.625976       -17.0337
  40   2.0000      -0.597698       -16.2642
  41   2.0000      -0.575144       -15.6505
  42   2.0000      -0.564939       -15.3728
  43   2.0000      -0.563461       -15.3326
  44   2.0000      -0.525127       -14.2894
  45   2.0000      -0.523475       -14.2445
  46   2.0000      -0.514000       -13.9866
  47   2.0000      -0.512942       -13.9579
  48   2.0000      -0.506391       -13.7796
  49   2.0000      -0.502832       -13.6828
  50   2.0000      -0.497864       -13.5476
  51   2.0000      -0.479503       -13.0479
  52   2.0000      -0.474312       -12.9067
  53   2.0000      -0.471650       -12.8342
  54   2.0000      -0.462309       -12.5801
  55   2.0000      -0.449344       -12.2273
  56   2.0000      -0.446720       -12.1559
  57   2.0000      -0.439581       -11.9616
  58   2.0000      -0.438945       -11.9443
  59   2.0000      -0.421478       -11.4690
  60   2.0000      -0.419153       -11.4057
  61   2.0000      -0.413570       -11.2538
  62   2.0000      -0.408674       -11.1206
  63   2.0000      -0.361340        -9.8326
  64   2.0000      -0.334173        -9.0933
  65   2.0000      -0.328020        -8.9259
  66   2.0000      -0.284328        -7.7369
  67   0.0000       0.025097         0.6829
  68   0.0000       0.078567         2.1379
  69   0.0000       0.110768         3.0141
  70   0.0000       0.122950         3.3456
  71   0.0000       0.129595         3.5265

MULLIKEN ATOMIC CHARGES
-----------------------
   0 S :    0.112181
   1 C :   -0.098561
   2 C :   -0.113493
   3 C :    0.019871
   4 C :   -0.109400
   5 H :    0.004857
   6 C :    0.084608
   7 H :    0.038751
   8 H :    0.041562
   9 C :   -0.132216
  10 H :    0.018110
  11 H :    0.043181
  12 C :   -0.027065
  13 H :    0.020958
  14 H :    0.032685
  15 H :    0.032024
  16 S :    0.088196
  17 C :   -0.100741
  18 C :   -0.045999
  19 C :   -0.033748
  20 C :   -0.130372
  21 H :    0.028857
  22 C :    0.044839
  23 H :   -0.000145
  24 H :    0.025613
  25 C :   -0.036017
  26 H :    0.009798
  27 H :    0.010551
  28 C :   -0.045308
  29 H :    0.050859
  30 H :    0.027634
  31 H :    0.028020
  32 H :    0.045048
  33 H :    0.064864
Sum of atomic charges:    0.0000000

LOEWDIN ATOMIC CHARGES
----------------------
   0 S :    0.422224
   1 C :   -0.219932
   2 C :   -0.064331
   3 C :   -0.057710
   4 C :   -0.173087
   5 H :    0.030249
   6 C :   -0.033483
   7 H :    0.030736
   8 H :    0.041317
   9 C :   -0.046800
  10 H :    0.014820
  11 H :    0.030933
  12 C :   -0.055068
  13 H :    0.018637
  14 H :    0.028282
  15 H :    0.020847
  16 S :    0.402833
  17 C :   -0.193181
  18 C :   -0.078634
  19 C :   -0.068098
  20 C :   -0.187338
  21 H :    0.038907
  22 C :   -0.027891
  23 H :    0.019984
  24 H :    0.029547
  25 C :   -0.038345
  26 H :    0.015509
  27 H :    0.019320
  28 C :   -0.060241
  29 H :    0.041172
  30 H :    0.015377
  31 H :    0.023013
  32 H :    0.024509
  33 H :    0.035923

  Mayer bond orders larger than 0.100000
B(  0-S ,  1-C ) :   1.1568 B(  0-S ,  4-C ) :   1.1586 B(  1-C ,  2-C ) :   1.5977
B(  1-C , 32-H ) :   0.9695 B(  2-C ,  3-C ) :   1.2590 B(  2-C ,  6-C ) :   1.0102
B(  3-C ,  4-C ) :   1.5510 B(  3-C ,  5-H ) :   0.9912 B(  4-C , 20-C ) :   1.0403
B(  6-C ,  7-H ) :   0.9314 B(  6-C ,  8-H ) :   0.9526 B(  6-C ,  9-C ) :   1.0791
B(  9-C , 10-H ) :   0.9484 B(  9-C , 11-H ) :   0.9600 B(  9-C , 12-C ) :   1.0616
B( 12-C , 13-H ) :   0.9756 B( 12-C , 14-H ) :   0.9767 B( 12-C , 15-H ) :   0.9800
B( 16-S , 17-C ) :   1.1571 B( 16-S , 20-C ) :   1.1443 B( 17-C , 18-C ) :   1.5861
B( 17-C , 20-C ) :   0.1031 B( 17-C , 33-H ) :   0.9673 B( 18-C , 19-C ) :   1.2747
B( 18-C , 21-H ) :   0.9864 B( 19-C , 20-C ) :   1.5909 B( 19-C , 22-C ) :   1.0324
B( 22-C , 23-H ) :   0.9352 B( 22-C , 24-H ) :   0.9386 B( 22-C , 25-C ) :   1.0598
B( 25-C , 26-H ) :   0.9534 B( 25-C , 27-H ) :   0.9477 B( 25-C , 28-C ) :   1.0704
B( 28-C , 29-H ) :   0.9735 B( 28-C , 30-H ) :   0.9768 B( 28-C , 31-H ) :   0.9754

Dispersion correction           -0.014102082
FINAL SINGLE POINT ENERGY     -1339.869400912417

DIPOLE MOMENT
-------------
                                X             Y             Z
Electronic contribution:      1.82540      30.27035     -11.08964
Nuclear contribution   :     -1.96933     -30.91748      11.20557
                        -----------------------------------------
Total Dipole Moment    :     -0.14393      -0.64713       0.11594
                        -----------------------------------------
Magnitude (a.u.)       :      0.67300
Magnitude (Debye)      :      1.71064

Rotational constants in cm-1:     0.016417     0.009793     0.006690
Rotational constants in MHz :   492.169575   293.574909   200.566330

                             ****ORCA TERMINATED NORMALLY****
TOTAL RUN TIME: 0 days 0 hours 0 minutes 26 seconds 193 msec
