                         Program Version 4.2.1 -  RELEASE  -
|  1> ! wB97X-D3 SP def2-SVP
|  2> %pal
|  3> nprocs 16
|  4> end
|  5>
|  6> * xyz 0 1
|  7> S 	 -58.6253 	 51.0981 	 136.042
|  8> C 	 -56.9649 	 51.4861 	 136.289
|  9> C 	 -56.1561 	 50.4594 	 135.919
| 10> C 	 -56.9384 	 49.3168 	 135.527
| 11> C 	 -58.3016 	 49.504 	 135.481
| 12> H 	 -56.4855 	 48.4005 	 135.089
| 13> C 	 -54.6537 	 50.5191 	 135.799
| 14> H 	 -54.2733 	 49.483 	 135.99
| 15> H 	 -54.2772 	 51.117 	 136.654
| 16> C 	 -54.2211 	 50.8404 	 134.377
| 17> H 	 -54.7566 	 51.6467 	 133.842
| 18> H 	 -53.1387 	 50.9825 	 134.288
| 19> C 	 -54.5049 	 49.7522 	 133.416
| 20> H 	 -53.9959 	 49.7777 	 132.483
| 21> H 	 -54.2859 	 48.8091 	 133.83
| 22> H 	 -55.5507 	 49.9177 	 133.066
| 23> S 	 -58.877 	 47.7592 	 133.561
| 24> C 	 -60.3145 	 46.8203 	 133.72
| 25> C 	 -61.1121 	 47.2511 	 134.733
| 26> C 	 -60.5562 	 48.2332 	 135.529
| 27> C 	 -59.3765 	 48.6281 	 134.966
| 28> H 	 -62.0726 	 46.7799 	 134.944
| 29> C 	 -61.2707 	 48.7731 	 136.693
| 30> H 	 -62.301 	 48.7921 	 136.34
| 31> H 	 -60.972 	 49.8008 	 136.681
| 32> C 	 -60.7975 	 48.213 	 138.056
| 33> H 	 -59.9811 	 48.8099 	 138.366
| 34> H 	 -60.3138 	 47.2871 	 138.021
| 35> C 	 -61.8358 	 48.3427 	 139.173
| 36> H 	 -62.7411 	 47.7494 	 138.89
| 37> H 	 -62.1101 	 49.3997 	 139.195
| 38> H 	 -61.4264 	 47.9408 	 140.132
| 39> H 	 -56.5303 	 52.4269 	 136.563
| 40> H 	 -60.4199 	 45.9675 	 133.029
| 41> *
| 42>
| 43>                          ****END OF INPUT****

CARTESIAN COORDINATES (ANGSTROEM)
---------------------------------
  S    -58.625300   51.098100  136.042000
  C    -56.964900   51.486100  136.289000
  C    -56.156100   50.459400  135.919000
  C    -56.938400   49.316800  135.527000
  C    -58.301600   49.504000  135.481000
  H    -56.485500   48.400500  135.089000
  C    -54.653700   50.519100  135.799000
  H    -54.273300   49.483000  135.990000
  H    -54.277200   51.117000  136.654000
  C    -54.221100   50.840400  134.377000
  H    -54.756600   51.646700  133.842000
  H    -53.138700   50.982500  134.288000
  C    -54.504900   49.752200  133.416000
  H    -53.995900   49.777700  132.483000
  H    -54.285900   48.809100  133.830000
  H    -55.550700   49.917700  133.066000
  S    -58.877000   47.759200  133.561000
  C    -60.314500   46.820300  133.720000
  C    -61.112100   47.251100  134.733000
  C    -60.556200   48.233200  135.529000
  C    -59.376500   48.628100  134.966000
  H    -62.072600   46.779900  134.944000
  C    -61.270700   48.773100  136.693000
  H    -62.301000   48.792100  136.340000
  H    -60.972000   49.800800  136.681000
  C    -60.797500   48.213000  138.056000
  H    -59.981100   48.809900  138.366000
  H    -60.313800   47.287100  138.021000
  C    -61.835800   48.342700  139.173000
  H    -62.741100   47.749400  138.890000
  H    -62.110100   49.399700  139.195000
  H    -61.426400   47.940800  140.132000
  H    -56.530300   52.426900  136.563000
  H    -60.419900   45.967500  133.029000

 Total Charge           Charge          ....    0
 Multiplicity           Mult            ....    1
 Number of Electrons    NEL             ....  134
 Basis Dimension        Dim             ....  322

ORBITAL ENERGIES
----------------

  NO   OCC          E(Eh)            E(eV)
   0   2.0000     -88.965592     -2420.8768
   1   2.0000     -88.961718     -2420.7714
   2   2.0000     -10.324720      -280.9499
   3   2.0000     -10.320048      -280.8228
   4   2.0000     -10.313301      -280.6392
   5   2.0000     -10.305263      -280.4205
   6   2.0000     -10.298027      -280.2236
   7   2.0000     -10.294473      -280.1269
   8   2.0000     -10.292130      -280.0631
   9   2.0000     -10.290180      -280.0100
  10   2.0000     -10.286224      -279.9024
  11   2.0000     -10.286055      -279.8978
  12   2.0000     -10.282949      -279.8133
  13   2.0000     -10.281660      -279.7782
  14   2.0000     -10.276532      -279.6387
  15   2.0000     -10.265791      -279.3464
  16   2.0000      -8.081467      -219.9079
  17   2.0000      -8.077202      -219.7918
  18   2.0000      -6.039627      -164.3466
  19   2.0000      -6.035962      -164.2469
  20   2.0000      -6.035717      -164.2402
  21   2.0000      -6.032387      -164.1496
  22   2.0000      -6.031493      -164.1253
  23   2.0000      -6.028052      -164.0316
  24   2.0000      -1.017628       -27.6911
  25   2.0000      -0.994764       -27.0689
  26   2.0000      -0.921368       -25.0717
  27   2.0000      -0.916431       -24.9374
  28   2.0000      -0.872901       -23.7528
  29   2.0000      -0.861247       -23.4357
  30   2.0000      -0.844812       -22.9885
  31   2.0000      -0.813248       -22.1296
  32   2.0000      -0.786752       -21.4086
  33   2.0000      -0.773735       -21.0544
  34   2.0000      -0.709647       -19.3105
  35   2.0000      -0.695819       -18.9342
  36   2.0000      -0.691430       -18.8148
  37   2.0000      -0.671055       -18.2603
  38   2.0000      -0.634317       -17.2606
  39   2.0000      -0.616238       -16.7687
  40   2.0000      -0.602113       -16.3843
  41   2.0000      -0.580941       -15.8082
  42   2.0000      -0.557120       -15.1600
  43   2.0000      -0.553015       -15.0483
  44   2.0000      -0.544405       -14.8140
  45   2.0000      -0.537001       -14.6125
  46   2.0000      -0.525947       -14.3117
  47   2.0000      -0.511604       -13.9215
  48   2.0000      -0.508342       -13.8327
  49   2.0000      -0.494687       -13.4611
  50   2.0000      -0.484311       -13.1788
  51   2.0000      -0.476284       -12.9603
  52   2.0000      -0.469574       -12.7778
  53   2.0000      -0.464031       -12.6269
  54   2.0000      -0.459290       -12.4979
  55   2.0000      -0.451373       -12.2825
  56   2.0000      -0.449516       -12.2320
  57   2.0000      -0.443251       -12.0615
  58   2.0000      -0.433258       -11.7895
  59   2.0000      -0.424513       -11.5516
  60   2.0000      -0.415280       -11.3003
  61   2.0000      -0.407652       -11.0928
  62   2.0000      -0.405557       -11.0358
  63   2.0000      -0.346573        -9.4307
  64   2.0000      -0.337676        -9.1886
  65   2.0000      -0.327664        -8.9162
  66   2.0000      -0.291127        -7.9220
  67   0.0000       0.034421         0.9366
  68   0.0000       0.081855         2.2274
  69   0.0000       0.109697         2.9850
  70   0.0000       0.125639         3.4188
  71   0.0000       0.132483         3.6050

MULLIKEN ATOMIC CHARGES
-----------------------
   0 S :    0.095383
   1 C :   -0.091465
   2 C :   -0.136598
   3 C :    0.008025
   4 C :   -0.153478
   5 H :    0.018620
   6 C :    0.071064
   7 H :    0.026664
   8 H :    0.036910
   9 C :   -0.042862
  10 H :    0.030661
  11 H :    0.031319
  12 C :   -0.057659
  13 H :    0.021087
  14 H :    0.012396
  15 H :    0.041047
  16 S :    0.114152
  17 C :   -0.111632
  18 C :   -0.022203
  19 C :   -0.066423
  20 C :   -0.143641
  21 H :    0.014691
  22 C :    0.104496
  23 H :    0.029187
  24 H :    0.005660
  25 C :   -0.022249
  26 H :    0.015935
  27 H :    0.017433
  28 C :   -0.057489
  29 H :    0.035163
  30 H :    0.036617
  31 H :    0.045189
  32 H :    0.031220
  33 H :    0.062779
Sum of atomic charges:    0.0000000

LOEWDIN ATOMIC CHARGES
----------------------
   0 S :    0.424431
   1 C :   -0.204532
   2 C :   -0.068922
   3 C :   -0.082201
   4 C :   -0.205806
   5 H :    0.028198
   6 C :   -0.032384
   7 H :    0.035467
   8 H :    0.035287
   9 C :   -0.046137
  10 H :    0.031561
  11 H :    0.024761
  12 C :   -0.063337
  13 H :    0.023318
  14 H :    0.011238
  15 H :    0.032079
  16 S :    0.435463
  17 C :   -0.190493
  18 C :   -0.072225
  19 C :   -0.059014
  20 C :   -0.202923
  21 H :    0.033250
  22 C :   -0.031751
  23 H :    0.036589
  24 H :    0.023785
  25 C :   -0.033236
  26 H :    0.024770
  27 H :    0.016507
  28 C :   -0.063168
  29 H :    0.025265
  30 H :    0.026829
  31 H :    0.031316
  32 H :    0.026746
  33 H :    0.029266

  Mayer bond orders larger than 0.100000
B(  0-S ,  1-C ) :   1.1381 B(  0-S ,  4-C ) :   1.1643 B(  1-C ,  2-C ) :   1.6330
B(  1-C , 32-H ) :   0.9662 B(  2-C ,  3-C ) :   1.2522 B(  2-C ,  6-C ) :   1.0168
B(  3-C ,  4-C ) :   1.5855 B(  3-C ,  5-H ) :   0.9770 B(  4-C , 20-C ) :   0.9977
B(  6-C ,  7-H ) :   0.9418 B(  6-C ,  8-H ) :   0.9433 B(  6-C ,  9-C ) :   1.0575
B(  9-C , 10-H ) :   0.9597 B(  9-C , 11-H ) :   0.9575 B(  9-C , 12-C ) :   1.0829
B( 12-C , 13-H ) :   0.9672 B( 12-C , 14-H ) :   0.9699 B( 12-C , 15-H ) :   0.9731
B( 16-S , 17-C ) :   1.1697 B( 16-S , 20-C ) :   1.1606 B( 17-C , 18-C ) :   1.5741
B( 17-C , 33-H ) :   0.9689 B( 18-C , 19-C ) :   1.2670 B( 18-C , 21-H ) :   0.9909
B( 19-C , 20-C ) :   1.5776 B( 19-C , 22-C ) :   1.0289 B( 22-C , 23-H ) :   0.9439
B( 22-C , 24-H ) :   0.9159 B( 22-C , 25-C ) :   1.0256 B( 25-C , 26-H ) :   0.9431
B( 25-C , 27-H ) :   0.9649 B( 25-C , 28-C ) :   1.0834 B( 28-C , 29-H ) :   0.9814
B( 28-C , 30-H ) :   0.9725 B( 28-C , 31-H ) :   0.9735

Dispersion correction           -0.014892756
FINAL SINGLE POINT ENERGY     -1339.862602368856

DIPOLE MOMENT
-------------
                                X             Y             Z
Electronic contribution:     -5.69864       0.73639      -8.19418
Nuclear contribution   :      5.89890      -0.91078       8.20298
                        -----------------------------------------
Total Dipole Moment    :      0.20025      -0.17439       0.00880
                        -----------------------------------------
Magnitude (a.u.)       :      0.26569
Magnitude (Debye)      :      0.67533

Rotational constants in cm-1:     0.021133     0.009087     0.006958
Rotational constants in MHz :   633.555889   272.428547   208.609114

                             ****ORCA TERMINATED NORMALLY****
TOTAL RUN TIME: 0 days 0 hours 0 minutes 35 seconds 804 msec
