                         Program Version 4.2.1 -  RELEASE  -
|  1> ! wB97X-D3 SP def2-SVP
|  2> %pal
|  3> nprocs 16
|  4> end
|  5>
|  6> * xyz 0 1
|  7> S 	 10.6868 	 -15.6364 	 86.6904
|  8> C 	 12.0334 	 -16.0443 	 85.5591
|  9> C 	 12.9206 	 -14.95 	 85.5968
| 10> C 	 12.5079 	 -13.8715 	 86.4009
| 11> C 	 11.2637 	 -13.9935 	 86.9672
| 12> H 	 13.1171 	 -12.9874 	 86.6987
| 13> C 	 14.2246 	 -14.8899 	 84.9424
| 14> H 	 14.099 	 -13.9929 	 84.2444
| 15> H 	 14.2216 	 -15.7341 	 84.2761
| 16> C 	 15.4444 	 -14.9051 	 85.9295
| 17> H 	 16.3429 	 -14.7973 	 85.2952
| 18> H 	 15.5167 	 -14.0378 	 86.5078
| 19> C 	 15.5109 	 -16.0774 	 86.8542
| 20> H 	 15.4964 	 -17.0099 	 86.3783
| 21> H 	 16.4759 	 -15.973 	 87.4245
| 22> H 	 14.7371 	 -16.0996 	 87.5612
| 23> S 	 10.0891 	 -13.9871 	 89.4516
| 24> C 	 9.94387 	 -12.4312 	 90.1838
| 25> C 	 10.0007 	 -11.4009 	 89.2416
| 26> C 	 10.5996 	 -11.8137 	 88.0533
| 27> C 	 10.6912 	 -13.2037 	 87.9977
| 28> H 	 9.72654 	 -10.3496 	 89.5335
| 29> C 	 11.0703 	 -10.8573 	 87.003
| 30> H 	 10.2296 	 -10.1931 	 86.7088
| 31> H 	 11.3796 	 -11.3035 	 86.0981
| 32> C 	 12.2076 	 -9.89066 	 87.432
| 33> H 	 13.0659 	 -10.4265 	 87.8588
| 34> H 	 11.8673 	 -9.24712 	 88.3067
| 35> C 	 12.4846 	 -9.01347 	 86.1662
| 36> H 	 13.1936 	 -9.48991 	 85.4231
| 37> H 	 13.0119 	 -8.127 	 86.4711
| 38> H 	 11.5892 	 -8.57781 	 85.728
| 39> H 	 12.1007 	 -17.0073 	 85.0133
| 40> H 	 9.51442 	 -12.2461 	 91.1546
| 41> *
| 42>
| 43>                          ****END OF INPUT****

CARTESIAN COORDINATES (ANGSTROEM)
---------------------------------
  S     10.686800  -15.636400   86.690400
  C     12.033400  -16.044300   85.559100
  C     12.920600  -14.950000   85.596800
  C     12.507900  -13.871500   86.400900
  C     11.263700  -13.993500   86.967200
  H     13.117100  -12.987400   86.698700
  C     14.224600  -14.889900   84.942400
  H     14.099000  -13.992900   84.244400
  H     14.221600  -15.734100   84.276100
  C     15.444400  -14.905100   85.929500
  H     16.342900  -14.797300   85.295200
  H     15.516700  -14.037800   86.507800
  C     15.510900  -16.077400   86.854200
  H     15.496400  -17.009900   86.378300
  H     16.475900  -15.973000   87.424500
  H     14.737100  -16.099600   87.561200
  S     10.089100  -13.987100   89.451600
  C      9.943870  -12.431200   90.183800
  C     10.000700  -11.400900   89.241600
  C     10.599600  -11.813700   88.053300
  C     10.691200  -13.203700   87.997700
  H      9.726540  -10.349600   89.533500
  C     11.070300  -10.857300   87.003000
  H     10.229600  -10.193100   86.708800
  H     11.379600  -11.303500   86.098100
  C     12.207600   -9.890660   87.432000
  H     13.065900  -10.426500   87.858800
  H     11.867300   -9.247120   88.306700
  C     12.484600   -9.013470   86.166200
  H     13.193600   -9.489910   85.423100
  H     13.011900   -8.127000   86.471100
  H     11.589200   -8.577810   85.728000
  H     12.100700  -17.007300   85.013300
  H      9.514420  -12.246100   91.154600

 Total Charge           Charge          ....    0
 Multiplicity           Mult            ....    1
 Number of Electrons    NEL             ....  134
 Basis Dimension        Dim             ....  322

ORBITAL ENERGIES
----------------

  NO   OCC          E(Eh)            E(eV)
   0   2.0000     -88.969680     -2420.9881
   1   2.0000     -88.959488     -2420.7107
   2   2.0000     -10.325239      -280.9640
   3   2.0000     -10.322699      -280.8949
   4   2.0000     -10.321928      -280.8739
   5   2.0000     -10.315326      -280.6943
   6   2.0000     -10.299772      -280.2710
   7   2.0000     -10.298020      -280.2234
   8   2.0000     -10.297780      -280.2168
   9   2.0000     -10.296841      -280.1913
  10   2.0000     -10.290344      -280.0145
  11   2.0000     -10.289431      -279.9896
  12   2.0000     -10.288895      -279.9751
  13   2.0000     -10.285521      -279.8832
  14   2.0000     -10.285426      -279.8807
  15   2.0000     -10.268957      -279.4325
  16   2.0000      -8.084569      -219.9923
  17   2.0000      -8.073516      -219.6915
  18   2.0000      -6.042965      -164.4374
  19   2.0000      -6.039275      -164.3370
  20   2.0000      -6.035196      -164.2260
  21   2.0000      -6.032147      -164.1431
  22   2.0000      -6.028170      -164.0348
  23   2.0000      -6.024142      -163.9252
  24   2.0000      -1.010499       -27.4971
  25   2.0000      -0.982647       -26.7392
  26   2.0000      -0.915079       -24.9006
  27   2.0000      -0.910602       -24.7787
  28   2.0000      -0.870752       -23.6944
  29   2.0000      -0.855136       -23.2694
  30   2.0000      -0.844152       -22.9706
  31   2.0000      -0.811943       -22.0941
  32   2.0000      -0.782449       -21.2915
  33   2.0000      -0.768332       -20.9074
  34   2.0000      -0.713351       -19.4113
  35   2.0000      -0.702554       -19.1175
  36   2.0000      -0.699790       -19.0423
  37   2.0000      -0.656784       -17.8720
  38   2.0000      -0.637671       -17.3519
  39   2.0000      -0.619036       -16.8448
  40   2.0000      -0.603180       -16.4134
  41   2.0000      -0.563640       -15.3374
  42   2.0000      -0.556673       -15.1478
  43   2.0000      -0.553688       -15.0666
  44   2.0000      -0.533446       -14.5158
  45   2.0000      -0.525180       -14.2909
  46   2.0000      -0.521345       -14.1865
  47   2.0000      -0.512153       -13.9364
  48   2.0000      -0.504942       -13.7402
  49   2.0000      -0.500527       -13.6200
  50   2.0000      -0.487835       -13.2747
  51   2.0000      -0.479457       -13.0467
  52   2.0000      -0.466727       -12.7003
  53   2.0000      -0.464878       -12.6500
  54   2.0000      -0.459522       -12.5042
  55   2.0000      -0.456450       -12.4206
  56   2.0000      -0.444651       -12.0996
  57   2.0000      -0.437725       -11.9111
  58   2.0000      -0.435294       -11.8450
  59   2.0000      -0.428130       -11.6500
  60   2.0000      -0.423030       -11.5112
  61   2.0000      -0.416520       -11.3341
  62   2.0000      -0.405554       -11.0357
  63   2.0000      -0.351988        -9.5781
  64   2.0000      -0.334359        -9.0984
  65   2.0000      -0.322792        -8.7836
  66   2.0000      -0.280087        -7.6215
  67   0.0000       0.022665         0.6167
  68   0.0000       0.065605         1.7852
  69   0.0000       0.107401         2.9225
  70   0.0000       0.118415         3.2222
  71   0.0000       0.125779         3.4226

MULLIKEN ATOMIC CHARGES
-----------------------
   0 S :    0.060367
   1 C :   -0.141350
   2 C :   -0.099674
   3 C :   -0.011295
   4 C :   -0.126583
   5 H :    0.029127
   6 C :    0.062382
   7 H :    0.046315
   8 H :    0.002829
   9 C :   -0.046914
  10 H :    0.027340
  11 H :    0.011638
  12 C :   -0.013911
  13 H :    0.016307
  14 H :    0.035605
  15 H :    0.032915
  16 S :    0.129570
  17 C :   -0.095848
  18 C :   -0.057445
  19 C :   -0.007171
  20 C :   -0.135592
  21 H :    0.037577
  22 C :    0.056651
  23 H :    0.030545
  24 H :    0.013407
  25 C :   -0.112235
  26 H :    0.037227
  27 H :    0.035590
  28 C :   -0.047881
  29 H :    0.052401
  30 H :    0.020863
  31 H :    0.033895
  32 H :    0.069585
  33 H :    0.053764
Sum of atomic charges:    0.0000000

LOEWDIN ATOMIC CHARGES
----------------------
   0 S :    0.365151
   1 C :   -0.196522
   2 C :   -0.068361
   3 C :   -0.075483
   4 C :   -0.177719
   5 H :    0.038098
   6 C :   -0.039011
   7 H :    0.043688
   8 H :    0.023618
   9 C :   -0.034459
  10 H :    0.028260
  11 H :    0.015910
  12 C :   -0.054156
  13 H :    0.016894
  14 H :    0.037589
  15 H :    0.022048
  16 S :    0.418827
  17 C :   -0.194012
  18 C :   -0.068932
  19 C :   -0.056011
  20 C :   -0.198300
  21 H :    0.039479
  22 C :   -0.033695
  23 H :    0.037414
  24 H :    0.021099
  25 C :   -0.039846
  26 H :    0.023103
  27 H :    0.027016
  28 C :   -0.071959
  29 H :    0.035719
  30 H :    0.022796
  31 H :    0.027700
  32 H :    0.038761
  33 H :    0.025298

  Mayer bond orders larger than 0.100000
B(  0-S ,  1-C ) :   1.1149 B(  0-S ,  4-C ) :   1.1386 B(  1-C ,  2-C ) :   1.5699
B(  1-C ,  4-C ) :   0.1021 B(  1-C , 32-H ) :   0.9706 B(  2-C ,  3-C ) :   1.2495
B(  2-C ,  6-C ) :   1.0311 B(  3-C ,  4-C ) :   1.5550 B(  3-C ,  5-H ) :   0.9840
B(  4-C , 20-C ) :   1.0885 B(  6-C ,  7-H ) :   0.9405 B(  6-C ,  8-H ) :   0.9379
B(  6-C ,  9-C ) :   1.0520 B(  9-C , 10-H ) :   0.9554 B(  9-C , 11-H ) :   0.9557
B(  9-C , 12-C ) :   1.0784 B( 12-C , 13-H ) :   0.9768 B( 12-C , 14-H ) :   0.9692
B( 12-C , 15-H ) :   0.9710 B( 16-S , 17-C ) :   1.1654 B( 16-S , 20-C ) :   1.1329
B( 17-C , 18-C ) :   1.5937 B( 17-C , 20-C ) :   0.1029 B( 17-C , 33-H ) :   0.9650
B( 18-C , 19-C ) :   1.2586 B( 18-C , 21-H ) :   0.9800 B( 19-C , 20-C ) :   1.5629
B( 19-C , 22-C ) :   1.0549 B( 22-C , 23-H ) :   0.9288 B( 22-C , 24-H ) :   0.9359
B( 22-C , 25-C ) :   1.0491 B( 25-C , 26-H ) :   0.9574 B( 25-C , 27-H ) :   0.9557
B( 25-C , 28-C ) :   1.0725 B( 28-C , 29-H ) :   0.9746 B( 28-C , 30-H ) :   0.9727
B( 28-C , 31-H ) :   0.9712

Dispersion correction           -0.014629462
FINAL SINGLE POINT ENERGY     -1339.864068365008

DIPOLE MOMENT
-------------
                                X             Y             Z
Electronic contribution:    -21.32401     -14.01389       9.51236
Nuclear contribution   :     21.83123      14.56663      -9.57044
                        -----------------------------------------
Total Dipole Moment    :      0.50722       0.55273      -0.05808
                        -----------------------------------------
Magnitude (a.u.)       :      0.75244
Magnitude (Debye)      :      1.91254

Rotational constants in cm-1:     0.016599     0.009941     0.007358
Rotational constants in MHz :   497.629355   298.021208   220.584288

                             ****ORCA TERMINATED NORMALLY****
TOTAL RUN TIME: 0 days 0 hours 0 minutes 34 seconds 434 msec
