                         Program Version 4.2.1 -  RELEASE  -
|  1> ! wB97X-D3 SP def2-SVP
|  2> %pal
|  3> nprocs 16
|  4> end
|  5>
|  6> * xyz 0 1
|  7> S 	 -98.6804 	 55.514 	 114.111
|  8> C 	 -98.6146 	 54.1132 	 113.127
|  9> C 	 -99.8714 	 53.7173 	 112.745
| 10> C 	 -100.891 	 54.415 	 113.453
| 11> C 	 -100.414 	 55.3956 	 114.274
| 12> H 	 -101.902 	 54.0883 	 113.318
| 13> C 	 -100.219 	 52.5861 	 111.766
| 14> H 	 -99.7478 	 52.9203 	 110.871
| 15> H 	 -101.318 	 52.6571 	 111.521
| 16> C 	 -99.6935 	 51.1847 	 112.114
| 17> H 	 -99.8119 	 50.5697 	 111.229
| 18> H 	 -98.6043 	 51.2223 	 112.305
| 19> C 	 -100.513 	 50.6508 	 113.305
| 20> H 	 -100.323 	 49.5543 	 113.348
| 21> H 	 -100.353 	 51.0481 	 114.299
| 22> H 	 -101.551 	 50.839 	 113.073
| 23> S 	 -100.674 	 57.9547 	 114.977
| 24> C 	 -102.106 	 58.4621 	 115.874
| 25> C 	 -102.736 	 57.3873 	 116.484
| 26> C 	 -102.249 	 56.1405 	 115.876
| 27> C 	 -101.232 	 56.3531 	 114.991
| 28> H 	 -103.468 	 57.5338 	 117.291
| 29> C 	 -103.02 	 54.8848 	 116.277
| 30> H 	 -102.941 	 54.8622 	 117.337
| 31> H 	 -102.407 	 54.0171 	 115.897
| 32> C 	 -104.504 	 54.7921 	 115.904
| 33> H 	 -104.935 	 55.5536 	 116.462
| 34> H 	 -104.867 	 53.8693 	 116.394
| 35> C 	 -104.799 	 54.8774 	 114.425
| 36> H 	 -104.302 	 54.0279 	 113.986
| 37> H 	 -104.39 	 55.7568 	 113.949
| 38> H 	 -105.835 	 55.0554 	 114.208
| 39> H 	 -97.7176 	 53.8251 	 112.635
| 40> H 	 -102.129 	 59.4309 	 116.334
| 41> *
| 42>
| 43>                          ****END OF INPUT****

CARTESIAN COORDINATES (ANGSTROEM)
---------------------------------
  S    -98.680400   55.514000  114.111000
  C    -98.614600   54.113200  113.127000
  C    -99.871400   53.717300  112.745000
  C    -100.891000   54.415000  113.453000
  C    -100.414000   55.395600  114.274000
  H    -101.902000   54.088300  113.318000
  C    -100.219000   52.586100  111.766000
  H    -99.747800   52.920300  110.871000
  H    -101.318000   52.657100  111.521000
  C    -99.693500   51.184700  112.114000
  H    -99.811900   50.569700  111.229000
  H    -98.604300   51.222300  112.305000
  C    -100.513000   50.650800  113.305000
  H    -100.323000   49.554300  113.348000
  H    -100.353000   51.048100  114.299000
  H    -101.551000   50.839000  113.073000
  S    -100.674000   57.954700  114.977000
  C    -102.106000   58.462100  115.874000
  C    -102.736000   57.387300  116.484000
  C    -102.249000   56.140500  115.876000
  C    -101.232000   56.353100  114.991000
  H    -103.468000   57.533800  117.291000
  C    -103.020000   54.884800  116.277000
  H    -102.941000   54.862200  117.337000
  H    -102.407000   54.017100  115.897000
  C    -104.504000   54.792100  115.904000
  H    -104.935000   55.553600  116.462000
  H    -104.867000   53.869300  116.394000
  C    -104.799000   54.877400  114.425000
  H    -104.302000   54.027900  113.986000
  H    -104.390000   55.756800  113.949000
  H    -105.835000   55.055400  114.208000
  H    -97.717600   53.825100  112.635000
  H    -102.129000   59.430900  116.334000

 Total Charge           Charge          ....    0
 Multiplicity           Mult            ....    1
 Number of Electrons    NEL             ....  134
 Basis Dimension        Dim             ....  322

ORBITAL ENERGIES
----------------

  NO   OCC          E(Eh)            E(eV)
   0   2.0000     -88.965810     -2420.8828
   1   2.0000     -88.962406     -2420.7901
   2   2.0000     -10.325192      -280.9628
   3   2.0000     -10.320733      -280.8414
   4   2.0000     -10.313146      -280.6350
   5   2.0000     -10.306037      -280.4415
   6   2.0000     -10.301778      -280.3256
   7   2.0000     -10.300384      -280.2877
   8   2.0000     -10.295787      -280.1626
   9   2.0000     -10.291990      -280.0593
  10   2.0000     -10.291596      -280.0486
  11   2.0000     -10.289556      -279.9931
  12   2.0000     -10.286699      -279.9153
  13   2.0000     -10.282116      -279.7906
  14   2.0000     -10.277202      -279.6569
  15   2.0000     -10.272328      -279.5243
  16   2.0000      -8.081329      -219.9041
  17   2.0000      -8.078397      -219.8244
  18   2.0000      -6.039846      -164.3526
  19   2.0000      -6.036917      -164.2729
  20   2.0000      -6.035726      -164.2405
  21   2.0000      -6.033029      -164.1671
  22   2.0000      -6.032048      -164.1404
  23   2.0000      -6.028764      -164.0510
  24   2.0000      -1.014567       -27.6078
  25   2.0000      -0.989203       -26.9176
  26   2.0000      -0.913187       -24.8491
  27   2.0000      -0.909853       -24.7584
  28   2.0000      -0.871766       -23.7219
  29   2.0000      -0.852708       -23.2034
  30   2.0000      -0.845066       -22.9954
  31   2.0000      -0.815187       -22.1824
  32   2.0000      -0.783836       -21.3293
  33   2.0000      -0.774665       -21.0797
  34   2.0000      -0.709350       -19.3024
  35   2.0000      -0.706269       -19.2185
  36   2.0000      -0.691528       -18.8174
  37   2.0000      -0.665647       -18.1132
  38   2.0000      -0.640503       -17.4290
  39   2.0000      -0.617648       -16.8071
  40   2.0000      -0.590043       -16.0559
  41   2.0000      -0.570775       -15.5316
  42   2.0000      -0.560826       -15.2609
  43   2.0000      -0.551503       -15.0072
  44   2.0000      -0.545704       -14.8494
  45   2.0000      -0.538628       -14.6568
  46   2.0000      -0.514994       -14.0137
  47   2.0000      -0.507711       -13.8155
  48   2.0000      -0.503668       -13.7055
  49   2.0000      -0.499752       -13.5989
  50   2.0000      -0.496324       -13.5057
  51   2.0000      -0.474732       -12.9181
  52   2.0000      -0.470346       -12.7988
  53   2.0000      -0.467095       -12.7103
  54   2.0000      -0.457234       -12.4420
  55   2.0000      -0.455104       -12.3840
  56   2.0000      -0.444083       -12.0841
  57   2.0000      -0.436667       -11.8823
  58   2.0000      -0.430604       -11.7173
  59   2.0000      -0.425963       -11.5910
  60   2.0000      -0.423064       -11.5122
  61   2.0000      -0.416488       -11.3332
  62   2.0000      -0.408721       -11.1219
  63   2.0000      -0.355038        -9.6611
  64   2.0000      -0.331471        -9.0198
  65   2.0000      -0.323889        -8.8135
  66   2.0000      -0.290842        -7.9142
  67   0.0000       0.031050         0.8449
  68   0.0000       0.066905         1.8206
  69   0.0000       0.108354         2.9485
  70   0.0000       0.117486         3.1970
  71   0.0000       0.131313         3.5732

MULLIKEN ATOMIC CHARGES
-----------------------
   0 S :    0.109045
   1 C :   -0.115335
   2 C :   -0.102066
   3 C :    0.028099
   4 C :   -0.116994
   5 H :   -0.020307
   6 C :    0.040008
   7 H :    0.019706
   8 H :    0.028873
   9 C :   -0.046360
  10 H :    0.030962
  11 H :    0.034230
  12 C :   -0.050793
  13 H :    0.036385
  14 H :    0.047269
  15 H :    0.018647
  16 S :    0.089857
  17 C :   -0.077134
  18 C :   -0.060038
  19 C :   -0.071142
  20 C :   -0.128788
  21 H :    0.041161
  22 C :    0.044363
  23 H :    0.021089
  24 H :    0.025967
  25 C :   -0.027454
  26 H :   -0.001148
  27 H :    0.031192
  28 C :   -0.021114
  29 H :    0.037151
  30 H :    0.031574
  31 H :    0.030667
  32 H :    0.038589
  33 H :    0.053841
Sum of atomic charges:   -0.0000000

LOEWDIN ATOMIC CHARGES
----------------------
   0 S :    0.419446
   1 C :   -0.208345
   2 C :   -0.060177
   3 C :   -0.064748
   4 C :   -0.191746
   5 H :    0.024452
   6 C :   -0.036217
   7 H :    0.026661
   8 H :    0.032825
   9 C :   -0.036084
  10 H :    0.025568
  11 H :    0.027021
  12 C :   -0.065916
  13 H :    0.029533
  14 H :    0.027597
  15 H :    0.021305
  16 S :    0.412631
  17 C :   -0.186557
  18 C :   -0.059198
  19 C :   -0.059401
  20 C :   -0.209385
  21 H :    0.037286
  22 C :   -0.033250
  23 H :    0.029176
  24 H :    0.029051
  25 C :   -0.034236
  26 H :    0.010355
  27 H :    0.030300
  28 C :   -0.063386
  29 H :    0.024604
  30 H :    0.029606
  31 H :    0.028338
  32 H :    0.021087
  33 H :    0.021802

  Mayer bond orders larger than 0.100000
B(  0-S ,  1-C ) :   1.1438 B(  0-S ,  4-C ) :   1.1551 B(  1-C ,  2-C ) :   1.6019
B(  1-C , 32-H ) :   0.9699 B(  2-C ,  3-C ) :   1.2741 B(  2-C ,  6-C ) :   1.0041
B(  3-C ,  4-C ) :   1.5393 B(  3-C ,  5-H ) :   1.0027 B(  4-C , 20-C ) :   1.0479
B(  6-C ,  7-H ) :   0.9279 B(  6-C ,  8-H ) :   0.9477 B(  6-C ,  9-C ) :   1.0866
B(  9-C , 10-H ) :   0.9535 B(  9-C , 11-H ) :   0.9528 B(  9-C , 12-C ) :   1.0624
B( 12-C , 13-H ) :   0.9757 B( 12-C , 14-H ) :   0.9781 B( 12-C , 15-H ) :   0.9761
B( 16-S , 17-C ) :   1.1394 B( 16-S , 20-C ) :   1.1367 B( 17-C , 18-C ) :   1.6429
B( 17-C , 33-H ) :   0.9626 B( 18-C , 19-C ) :   1.2017 B( 18-C , 21-H ) :   0.9847
B( 19-C , 20-C ) :   1.6174 B( 19-C , 22-C ) :   1.0391 B( 22-C , 23-H ) :   0.9293
B( 22-C , 24-H ) :   0.9335 B( 22-C , 25-C ) :   1.0778 B( 25-C , 26-H ) :   0.9471
B( 25-C , 27-H ) :   0.9511 B( 25-C , 28-C ) :   1.0794 B( 28-C , 29-H ) :   0.9710
B( 28-C , 30-H ) :   0.9699 B( 28-C , 31-H ) :   0.9689

Dispersion correction           -0.015154155
FINAL SINGLE POINT ENERGY     -1339.870861999776

DIPOLE MOMENT
-------------
                                X             Y             Z
Electronic contribution:     16.05207      23.24426       3.97259
Nuclear contribution   :    -16.42971     -23.67267      -3.96224
                        -----------------------------------------
Total Dipole Moment    :     -0.37764      -0.42840       0.01035
                        -----------------------------------------
Magnitude (a.u.)       :      0.57118
Magnitude (Debye)      :      1.45183

Rotational constants in cm-1:     0.019562     0.009582     0.006979
Rotational constants in MHz :   586.440456   287.264413   209.236462

                             ****ORCA TERMINATED NORMALLY****
TOTAL RUN TIME: 0 days 0 hours 0 minutes 36 seconds 78 msec
