                         Program Version 4.2.1 -  RELEASE  -
|  1> ! wB97X-D3 SP def2-SVP
|  2> %pal
|  3> nprocs 16
|  4> end
|  5>
|  6> * xyz 0 1
|  7> S 	 -43.0059 	 22.6073 	 75.7349
|  8> C 	 -43.9993 	 23.5106 	 76.8966
|  9> C 	 -43.2147 	 24.2157 	 77.8438
| 10> C 	 -41.8405 	 24.0805 	 77.5701
| 11> C 	 -41.5923 	 23.3953 	 76.3964
| 12> H 	 -40.9918 	 24.4913 	 78.1841
| 13> C 	 -43.7952 	 25.1175 	 78.9039
| 14> H 	 -44.5987 	 25.7034 	 78.4015
| 15> H 	 -43.0778 	 25.7607 	 79.2577
| 16> C 	 -44.2262 	 24.324 	 80.1837
| 17> H 	 -44.8733 	 24.973 	 80.698
| 18> H 	 -44.8604 	 23.5369 	 79.8544
| 19> C 	 -43.0383 	 23.9158 	 81.0185
| 20> H 	 -42.6696 	 24.8538 	 81.4407
| 21> H 	 -43.3812 	 23.3011 	 81.8102
| 22> H 	 -42.2486 	 23.5273 	 80.3978
| 23> S 	 -39.7297 	 21.3546 	 75.896
| 24> C 	 -38.1348 	 21.8043 	 75.2164
| 25> C 	 -38.0154 	 23.1447 	 75.131
| 26> C 	 -39.2278 	 23.8781 	 75.461
| 27> C 	 -40.3092 	 23.0136 	 75.8156
| 28> H 	 -37.1017 	 23.6624 	 74.7296
| 29> C 	 -39.2915 	 25.4646 	 75.505
| 30> H 	 -40.3452 	 25.7597 	 75.6523
| 31> H 	 -39.064 	 25.7094 	 74.5003
| 32> C 	 -38.3379 	 26.1884 	 76.4737
| 33> H 	 -37.2772 	 25.9765 	 76.2722
| 34> H 	 -38.3859 	 25.7217 	 77.4312
| 35> C 	 -38.5441 	 27.7315 	 76.4534
| 36> H 	 -37.6877 	 28.1411 	 76.8461
| 37> H 	 -39.4914 	 28.0828 	 76.992
| 38> H 	 -38.6735 	 28.0523 	 75.3986
| 39> H 	 -45.0264 	 23.7649 	 76.6949
| 40> H 	 -37.4031 	 21.0803 	 74.8468
| 41> *
| 42>
| 43>                          ****END OF INPUT****

CARTESIAN COORDINATES (ANGSTROEM)
---------------------------------
  S    -43.005900   22.607300   75.734900
  C    -43.999300   23.510600   76.896600
  C    -43.214700   24.215700   77.843800
  C    -41.840500   24.080500   77.570100
  C    -41.592300   23.395300   76.396400
  H    -40.991800   24.491300   78.184100
  C    -43.795200   25.117500   78.903900
  H    -44.598700   25.703400   78.401500
  H    -43.077800   25.760700   79.257700
  C    -44.226200   24.324000   80.183700
  H    -44.873300   24.973000   80.698000
  H    -44.860400   23.536900   79.854400
  C    -43.038300   23.915800   81.018500
  H    -42.669600   24.853800   81.440700
  H    -43.381200   23.301100   81.810200
  H    -42.248600   23.527300   80.397800
  S    -39.729700   21.354600   75.896000
  C    -38.134800   21.804300   75.216400
  C    -38.015400   23.144700   75.131000
  C    -39.227800   23.878100   75.461000
  C    -40.309200   23.013600   75.815600
  H    -37.101700   23.662400   74.729600
  C    -39.291500   25.464600   75.505000
  H    -40.345200   25.759700   75.652300
  H    -39.064000   25.709400   74.500300
  C    -38.337900   26.188400   76.473700
  H    -37.277200   25.976500   76.272200
  H    -38.385900   25.721700   77.431200
  C    -38.544100   27.731500   76.453400
  H    -37.687700   28.141100   76.846100
  H    -39.491400   28.082800   76.992000
  H    -38.673500   28.052300   75.398600
  H    -45.026400   23.764900   76.694900
  H    -37.403100   21.080300   74.846800

 Total Charge           Charge          ....    0
 Multiplicity           Mult            ....    1
 Number of Electrons    NEL             ....  134
 Basis Dimension        Dim             ....  322

ORBITAL ENERGIES
----------------

  NO   OCC          E(Eh)            E(eV)
   0   2.0000     -88.967979     -2420.9418
   1   2.0000     -88.963127     -2420.8098
   2   2.0000     -10.329129      -281.0699
   3   2.0000     -10.327686      -281.0306
   4   2.0000     -10.319159      -280.7986
   5   2.0000     -10.315277      -280.6930
   6   2.0000     -10.309504      -280.5359
   7   2.0000     -10.303585      -280.3748
   8   2.0000     -10.299743      -280.2703
   9   2.0000     -10.298069      -280.2247
  10   2.0000     -10.292662      -280.0776
  11   2.0000     -10.288147      -279.9547
  12   2.0000     -10.288146      -279.9547
  13   2.0000     -10.283429      -279.8263
  14   2.0000     -10.276936      -279.6496
  15   2.0000     -10.273665      -279.5606
  16   2.0000      -8.082390      -219.9330
  17   2.0000      -8.077124      -219.7897
  18   2.0000      -6.040740      -164.3769
  19   2.0000      -6.037010      -164.2754
  20   2.0000      -6.035873      -164.2444
  21   2.0000      -6.033262      -164.1734
  22   2.0000      -6.031774      -164.1329
  23   2.0000      -6.027631      -164.0202
  24   2.0000      -1.001566       -27.2540
  25   2.0000      -0.976456       -26.5707
  26   2.0000      -0.916666       -24.9437
  27   2.0000      -0.900628       -24.5073
  28   2.0000      -0.867746       -23.6126
  29   2.0000      -0.850185       -23.1347
  30   2.0000      -0.840161       -22.8619
  31   2.0000      -0.814227       -22.1562
  32   2.0000      -0.783358       -21.3163
  33   2.0000      -0.766682       -20.8625
  34   2.0000      -0.707815       -19.2606
  35   2.0000      -0.705582       -19.1999
  36   2.0000      -0.695919       -18.9369
  37   2.0000      -0.650961       -17.7135
  38   2.0000      -0.638975       -17.3874
  39   2.0000      -0.613091       -16.6831
  40   2.0000      -0.592090       -16.1116
  41   2.0000      -0.574618       -15.6361
  42   2.0000      -0.559058       -15.2127
  43   2.0000      -0.555272       -15.1097
  44   2.0000      -0.538841       -14.6626
  45   2.0000      -0.531919       -14.4743
  46   2.0000      -0.517542       -14.0830
  47   2.0000      -0.508086       -13.8257
  48   2.0000      -0.505757       -13.7624
  49   2.0000      -0.490821       -13.3559
  50   2.0000      -0.486012       -13.2251
  51   2.0000      -0.477152       -12.9840
  52   2.0000      -0.472536       -12.8584
  53   2.0000      -0.464546       -12.6409
  54   2.0000      -0.453326       -12.3356
  55   2.0000      -0.448700       -12.2097
  56   2.0000      -0.443505       -12.0684
  57   2.0000      -0.442780       -12.0486
  58   2.0000      -0.436026       -11.8649
  59   2.0000      -0.428781       -11.6677
  60   2.0000      -0.421629       -11.4731
  61   2.0000      -0.416087       -11.3223
  62   2.0000      -0.411703       -11.2030
  63   2.0000      -0.344780        -9.3819
  64   2.0000      -0.332722        -9.0538
  65   2.0000      -0.322406        -8.7731
  66   2.0000      -0.292049        -7.9471
  67   0.0000       0.027549         0.7497
  68   0.0000       0.058703         1.5974
  69   0.0000       0.109122         2.9694
  70   0.0000       0.119770         3.2591
  71   0.0000       0.124779         3.3954

MULLIKEN ATOMIC CHARGES
-----------------------
   0 S :    0.112466
   1 C :   -0.110282
   2 C :   -0.123188
   3 C :    0.036969
   4 C :   -0.195220
   5 H :    0.038685
   6 C :    0.068813
   7 H :    0.040146
   8 H :   -0.011121
   9 C :   -0.041968
  10 H :    0.012203
  11 H :    0.016737
  12 C :   -0.015194
  13 H :    0.019524
  14 H :    0.038358
  15 H :    0.037621
  16 S :    0.094663
  17 C :   -0.105520
  18 C :   -0.030608
  19 C :   -0.077502
  20 C :   -0.128827
  21 H :    0.039993
  22 C :    0.076765
  23 H :    0.033934
  24 H :    0.017790
  25 C :   -0.073363
  26 H :    0.018521
  27 H :    0.018180
  28 C :   -0.033275
  29 H :    0.024040
  30 H :    0.048055
  31 H :    0.031816
  32 H :    0.052787
  33 H :    0.068001
Sum of atomic charges:   -0.0000000

LOEWDIN ATOMIC CHARGES
----------------------
   0 S :    0.406376
   1 C :   -0.195787
   2 C :   -0.056547
   3 C :   -0.066864
   4 C :   -0.192411
   5 H :    0.043449
   6 C :   -0.023884
   7 H :    0.038336
   8 H :    0.013246
   9 C :   -0.028820
  10 H :    0.015631
  11 H :    0.015862
  12 C :   -0.054043
  13 H :    0.026924
  14 H :    0.026450
  15 H :    0.026287
  16 S :    0.379286
  17 C :   -0.175640
  18 C :   -0.080593
  19 C :   -0.053545
  20 C :   -0.210878
  21 H :    0.040974
  22 C :   -0.028908
  23 H :    0.032291
  24 H :    0.023587
  25 C :   -0.043537
  26 H :    0.024534
  27 H :    0.018296
  28 C :   -0.058487
  29 H :    0.014524
  30 H :    0.034779
  31 H :    0.029801
  32 H :    0.023538
  33 H :    0.035774

  Mayer bond orders larger than 0.100000
B(  0-S ,  1-C ) :   1.1426 B(  0-S ,  4-C ) :   1.1680 B(  1-C ,  2-C ) :   1.5901
B(  1-C ,  4-C ) :   0.1125 B(  1-C , 32-H ) :   0.9641 B(  2-C ,  3-C ) :   1.2555
B(  2-C ,  6-C ) :   1.0284 B(  3-C ,  4-C ) :   1.5615 B(  3-C ,  5-H ) :   0.9807
B(  4-C , 20-C ) :   1.0137 B(  6-C ,  7-H ) :   0.9421 B(  6-C ,  8-H ) :   0.9380
B(  6-C ,  9-C ) :   1.0607 B(  9-C , 10-H ) :   0.9548 B(  9-C , 11-H ) :   0.9590
B(  9-C , 12-C ) :   1.0713 B( 12-C , 13-H ) :   0.9712 B( 12-C , 14-H ) :   0.9711
B( 12-C , 15-H ) :   0.9783 B( 16-S , 17-C ) :   1.1314 B( 16-S , 20-C ) :   1.1349
B( 17-C , 18-C ) :   1.6306 B( 17-C , 33-H ) :   0.9654 B( 18-C , 19-C ) :   1.2370
B( 18-C , 21-H ) :   0.9776 B( 19-C , 20-C ) :   1.6027 B( 19-C , 22-C ) :   1.0287
B( 22-C , 23-H ) :   0.9426 B( 22-C , 24-H ) :   0.9312 B( 22-C , 25-C ) :   1.0578
B( 25-C , 26-H ) :   0.9517 B( 25-C , 27-H ) :   0.9562 B( 25-C , 28-C ) :   1.0729
B( 28-C , 29-H ) :   0.9759 B( 28-C , 30-H ) :   0.9764 B( 28-C , 31-H ) :   0.9753

Dispersion correction           -0.014287621
FINAL SINGLE POINT ENERGY     -1339.863603673513

DIPOLE MOMENT
-------------
                                X             Y             Z
Electronic contribution:     -1.81505     -22.54933     -15.84178
Nuclear contribution   :      1.99019      23.25692      16.14260
                        -----------------------------------------
Total Dipole Moment    :      0.17514       0.70759       0.30082
                        -----------------------------------------
Magnitude (a.u.)       :      0.78857
Magnitude (Debye)      :      2.00440

Rotational constants in cm-1:     0.016412     0.009081     0.007019
Rotational constants in MHz :   492.022759   272.251378   210.422484

                             ****ORCA TERMINATED NORMALLY****
TOTAL RUN TIME: 0 days 0 hours 0 minutes 30 seconds 449 msec
