                         Program Version 4.2.1 -  RELEASE  -
|  1> ! wB97X-D3 SP def2-SVP
|  2> %pal
|  3> nprocs 16
|  4> end
|  5>
|  6> * xyz 0 1
|  7> S 	 -0.320623 	 -14.1424 	 85.0022
|  8> C 	 -0.345194 	 -15.6109 	 85.9143
|  9> C 	 -0.920875 	 -15.4127 	 87.1541
| 10> C 	 -1.43885 	 -14.0842 	 87.2862
| 11> C 	 -1.13012 	 -13.2434 	 86.2726
| 12> H 	 -2.11135 	 -13.856 	 88.1154
| 13> C 	 -1.10892 	 -16.5157 	 88.1926
| 14> H 	 -0.324906 	 -16.4653 	 88.9657
| 15> H 	 -0.938917 	 -17.4627 	 87.7192
| 16> C 	 -2.50641 	 -16.4964 	 88.991
| 17> H 	 -2.68014 	 -15.5099 	 89.5016
| 18> H 	 -3.3801 	 -16.563 	 88.3208
| 19> C 	 -2.65884 	 -17.5117 	 90.0812
| 20> H 	 -2.25207 	 -17.0995 	 91.039
| 21> H 	 -3.61297 	 -17.9979 	 90.0594
| 22> H 	 -1.97446 	 -18.3218 	 89.7667
| 23> S 	 -0.753827 	 -10.6883 	 85.2735
| 24> C 	 -1.83811 	 -9.46002 	 85.7498
| 25> C 	 -2.92388 	 -9.96114 	 86.4608
| 26> C 	 -2.88688 	 -11.3539 	 86.53
| 27> C 	 -1.66298 	 -11.89 	 86.1217
| 28> H 	 -3.70405 	 -9.32327 	 86.7797
| 29> C 	 -3.95188 	 -12.1504 	 87.1853
| 30> H 	 -3.76674 	 -13.2345 	 86.884
| 31> H 	 -4.85553 	 -11.9184 	 86.6895
| 32> C 	 -4.15542 	 -12.0427 	 88.7119
| 33> H 	 -4.12408 	 -11.0067 	 89.1287
| 34> H 	 -3.26046 	 -12.5179 	 89.2041
| 35> C 	 -5.51177 	 -12.6489 	 89.1246
| 36> H 	 -5.69503 	 -12.8521 	 90.1434
| 37> H 	 -5.6474 	 -13.6774 	 88.7503
| 38> H 	 -6.30856 	 -12.0931 	 88.6495
| 39> H 	 0.14728 	 -16.5058 	 85.6742
| 40> H 	 -1.52038 	 -8.43532 	 85.6009
| 41> *
| 42>
| 43>                          ****END OF INPUT****

CARTESIAN COORDINATES (ANGSTROEM)
---------------------------------
  S     -0.320623  -14.142400   85.002200
  C     -0.345194  -15.610900   85.914300
  C     -0.920875  -15.412700   87.154100
  C     -1.438850  -14.084200   87.286200
  C     -1.130120  -13.243400   86.272600
  H     -2.111350  -13.856000   88.115400
  C     -1.108920  -16.515700   88.192600
  H     -0.324906  -16.465300   88.965700
  H     -0.938917  -17.462700   87.719200
  C     -2.506410  -16.496400   88.991000
  H     -2.680140  -15.509900   89.501600
  H     -3.380100  -16.563000   88.320800
  C     -2.658840  -17.511700   90.081200
  H     -2.252070  -17.099500   91.039000
  H     -3.612970  -17.997900   90.059400
  H     -1.974460  -18.321800   89.766700
  S     -0.753827  -10.688300   85.273500
  C     -1.838110   -9.460020   85.749800
  C     -2.923880   -9.961140   86.460800
  C     -2.886880  -11.353900   86.530000
  C     -1.662980  -11.890000   86.121700
  H     -3.704050   -9.323270   86.779700
  C     -3.951880  -12.150400   87.185300
  H     -3.766740  -13.234500   86.884000
  H     -4.855530  -11.918400   86.689500
  C     -4.155420  -12.042700   88.711900
  H     -4.124080  -11.006700   89.128700
  H     -3.260460  -12.517900   89.204100
  C     -5.511770  -12.648900   89.124600
  H     -5.695030  -12.852100   90.143400
  H     -5.647400  -13.677400   88.750300
  H     -6.308560  -12.093100   88.649500
  H      0.147280  -16.505800   85.674200
  H     -1.520380   -8.435320   85.600900

 Total Charge           Charge          ....    0
 Multiplicity           Mult            ....    1
 Number of Electrons    NEL             ....  134
 Basis Dimension        Dim             ....  322

ORBITAL ENERGIES
----------------

  NO   OCC          E(Eh)            E(eV)
   0   2.0000     -88.965089     -2420.8632
   1   2.0000     -88.963989     -2420.8332
   2   2.0000     -10.326961      -281.0109
   3   2.0000     -10.323582      -280.9189
   4   2.0000     -10.314685      -280.6769
   5   2.0000     -10.309127      -280.5256
   6   2.0000     -10.300620      -280.2941
   7   2.0000     -10.299758      -280.2707
   8   2.0000     -10.298161      -280.2272
   9   2.0000     -10.297485      -280.2088
  10   2.0000     -10.294310      -280.1224
  11   2.0000     -10.290255      -280.0121
  12   2.0000     -10.288681      -279.9692
  13   2.0000     -10.288613      -279.9674
  14   2.0000     -10.280624      -279.7500
  15   2.0000     -10.277863      -279.6749
  16   2.0000      -8.080220      -219.8740
  17   2.0000      -8.080155      -219.8722
  18   2.0000      -6.038820      -164.3246
  19   2.0000      -6.038463      -164.3149
  20   2.0000      -6.034631      -164.2106
  21   2.0000      -6.034435      -164.2053
  22   2.0000      -6.031271      -164.1192
  23   2.0000      -6.030724      -164.1043
  24   2.0000      -1.013330       -27.5741
  25   2.0000      -0.991173       -26.9712
  26   2.0000      -0.911627       -24.8066
  27   2.0000      -0.906704       -24.6727
  28   2.0000      -0.873290       -23.7634
  29   2.0000      -0.857765       -23.3410
  30   2.0000      -0.849467       -23.1152
  31   2.0000      -0.817527       -22.2460
  32   2.0000      -0.783917       -21.3315
  33   2.0000      -0.770015       -20.9532
  34   2.0000      -0.710767       -19.3409
  35   2.0000      -0.702837       -19.1252
  36   2.0000      -0.691406       -18.8141
  37   2.0000      -0.666227       -18.1290
  38   2.0000      -0.638952       -17.3868
  39   2.0000      -0.626690       -17.0531
  40   2.0000      -0.601735       -16.3741
  41   2.0000      -0.571916       -15.5626
  42   2.0000      -0.567337       -15.4380
  43   2.0000      -0.560385       -15.2489
  44   2.0000      -0.529259       -14.4019
  45   2.0000      -0.525185       -14.2910
  46   2.0000      -0.521353       -14.1867
  47   2.0000      -0.511311       -13.9135
  48   2.0000      -0.504258       -13.7216
  49   2.0000      -0.502156       -13.6643
  50   2.0000      -0.496320       -13.5056
  51   2.0000      -0.483874       -13.1669
  52   2.0000      -0.468264       -12.7421
  53   2.0000      -0.466110       -12.6835
  54   2.0000      -0.460665       -12.5353
  55   2.0000      -0.454156       -12.3582
  56   2.0000      -0.445467       -12.1218
  57   2.0000      -0.441091       -12.0027
  58   2.0000      -0.429427       -11.6853
  59   2.0000      -0.426045       -11.5933
  60   2.0000      -0.420262       -11.4359
  61   2.0000      -0.415053       -11.2942
  62   2.0000      -0.412789       -11.2326
  63   2.0000      -0.354199        -9.6382
  64   2.0000      -0.334241        -9.0952
  65   2.0000      -0.328108        -8.9283
  66   2.0000      -0.286086        -7.7848
  67   0.0000       0.028649         0.7796
  68   0.0000       0.076786         2.0894
  69   0.0000       0.113352         3.0845
  70   0.0000       0.120826         3.2878
  71   0.0000       0.127185         3.4609

MULLIKEN ATOMIC CHARGES
-----------------------
   0 S :    0.107068
   1 C :   -0.101996
   2 C :   -0.089318
   3 C :   -0.008763
   4 C :   -0.070446
   5 H :   -0.017258
   6 C :    0.092128
   7 H :    0.038622
   8 H :    0.013336
   9 C :   -0.149315
  10 H :    0.039745
  11 H :    0.034601
  12 C :   -0.028910
  13 H :    0.049772
  14 H :    0.038138
  15 H :    0.017010
  16 S :    0.112034
  17 C :   -0.095158
  18 C :   -0.017135
  19 C :   -0.025810
  20 C :   -0.164608
  21 H :    0.007522
  22 C :    0.030492
  23 H :    0.045384
  24 H :    0.009230
  25 C :   -0.075217
  26 H :    0.036538
  27 H :    0.034668
  28 C :   -0.026886
  29 H :    0.027029
  30 H :    0.015697
  31 H :    0.032564
  32 H :    0.027002
  33 H :    0.062240
Sum of atomic charges:   -0.0000000

LOEWDIN ATOMIC CHARGES
----------------------
   0 S :    0.407487
   1 C :   -0.195371
   2 C :   -0.063040
   3 C :   -0.066678
   4 C :   -0.190521
   5 H :    0.028717
   6 C :   -0.028083
   7 H :    0.034429
   8 H :    0.024868
   9 C :   -0.052383
  10 H :    0.025041
  11 H :    0.024083
  12 C :   -0.071521
  13 H :    0.034219
  14 H :    0.028978
  15 H :    0.027482
  16 S :    0.433537
  17 C :   -0.192269
  18 C :   -0.064642
  19 C :   -0.058746
  20 C :   -0.203687
  21 H :    0.027837
  22 C :   -0.039459
  23 H :    0.042335
  24 H :    0.024376
  25 C :   -0.042345
  26 H :    0.028489
  27 H :    0.023706
  28 C :   -0.067972
  29 H :    0.021489
  30 H :    0.027066
  31 H :    0.026601
  32 H :    0.019481
  33 H :    0.026495

  Mayer bond orders larger than 0.100000
B(  0-S ,  1-C ) :   1.1386 B(  0-S ,  4-C ) :   1.1395 B(  1-C ,  2-C ) :   1.6152
B(  1-C , 32-H ) :   0.9692 B(  2-C ,  3-C ) :   1.2523 B(  2-C ,  6-C ) :   1.0231
B(  3-C ,  4-C ) :   1.5660 B(  3-C ,  5-H ) :   0.9915 B(  4-C , 20-C ) :   1.0489
B(  6-C ,  7-H ) :   0.9350 B(  6-C ,  8-H ) :   0.9393 B(  6-C ,  9-C ) :   1.0521
B(  9-C , 10-H ) :   0.9543 B(  9-C , 11-H ) :   0.9636 B(  9-C , 12-C ) :   1.0798
B( 12-C , 13-H ) :   0.9756 B( 12-C , 14-H ) :   0.9721 B( 12-C , 15-H ) :   0.9736
B( 16-S , 17-C ) :   1.1900 B( 16-S , 20-C ) :   1.1569 B( 17-C , 18-C ) :   1.5518
B( 17-C , 20-C ) :   0.1046 B( 17-C , 33-H ) :   0.9700 B( 18-C , 19-C ) :   1.2700
B( 18-C , 21-H ) :   1.0049 B( 19-C , 20-C ) :   1.5416 B( 19-C , 22-C ) :   1.0536
B( 22-C , 23-H ) :   0.9281 B( 22-C , 24-H ) :   0.9246 B( 22-C , 25-C ) :   1.0502
B( 25-C , 26-H ) :   0.9551 B( 25-C , 27-H ) :   0.9474 B( 25-C , 28-C ) :   1.0700
B( 28-C , 29-H ) :   0.9741 B( 28-C , 30-H ) :   0.9709 B( 28-C , 31-H ) :   0.9749

Dispersion correction           -0.014671313
FINAL SINGLE POINT ENERGY     -1339.876182798933

DIPOLE MOMENT
-------------
                                X             Y             Z
Electronic contribution:     19.25166      15.29738     -24.66603
Nuclear contribution   :    -19.73693     -15.54199      25.22366
                        -----------------------------------------
Total Dipole Moment    :     -0.48527      -0.24461       0.55763
                        -----------------------------------------
Magnitude (a.u.)       :      0.77864
Magnitude (Debye)      :      1.97913

Rotational constants in cm-1:     0.017269     0.010031     0.006618
Rotational constants in MHz :   517.705796   300.718311   198.390826

                             ****ORCA TERMINATED NORMALLY****
TOTAL RUN TIME: 0 days 0 hours 0 minutes 34 seconds 788 msec
