                         Program Version 4.2.1 -  RELEASE  -
|  1> ! wB97X-D3 SP def2-SVP
|  2> %pal
|  3> nprocs 16
|  4> end
|  5>
|  6> * xyz 0 1
|  7> S 	 -114.772 	 50.9944 	 132.88
|  8> C 	 -115.421 	 50.4119 	 131.307
|  9> C 	 -116.684 	 50.8622 	 131.042
| 10> C 	 -117.219 	 51.6182 	 132.18
| 11> C 	 -116.311 	 51.7019 	 133.207
| 12> H 	 -118.124 	 52.1469 	 132.292
| 13> C 	 -117.451 	 50.7404 	 129.786
| 14> H 	 -116.702 	 50.8227 	 128.922
| 15> H 	 -118.219 	 51.5181 	 129.697
| 16> C 	 -118.161 	 49.3284 	 129.735
| 17> H 	 -118.789 	 49.4042 	 128.861
| 18> H 	 -117.394 	 48.5152 	 129.693
| 19> C 	 -119.149 	 49.1934 	 130.888
| 20> H 	 -119.882 	 49.9686 	 130.72
| 21> H 	 -119.776 	 48.3295 	 130.685
| 22> H 	 -118.717 	 49.1512 	 131.961
| 23> S 	 -116.21 	 51.3048 	 135.845
| 24> C 	 -116.338 	 52.5974 	 136.934
| 25> C 	 -116.585 	 53.7882 	 136.286
| 26> C 	 -116.699 	 53.7292 	 134.865
| 27> C 	 -116.48 	 52.3865 	 134.496
| 28> H 	 -116.739 	 54.7101 	 136.864
| 29> C 	 -116.907 	 54.9556 	 134.022
| 30> H 	 -116.925 	 55.8798 	 134.568
| 31> H 	 -117.88 	 54.9414 	 133.507
| 32> C 	 -115.805 	 55.2744 	 132.978
| 33> H 	 -115.718 	 54.4426 	 132.283
| 34> H 	 -114.838 	 55.218 	 133.394
| 35> C 	 -115.819 	 56.6383 	 132.246
| 36> H 	 -115.035 	 56.6296 	 131.542
| 37> H 	 -115.625 	 57.5537 	 132.833
| 38> H 	 -116.645 	 56.7194 	 131.562
| 39> H 	 -114.802 	 49.9635 	 130.528
| 40> H 	 -116.26 	 52.4038 	 138.07
| 41> *
| 42>
| 43>                          ****END OF INPUT****

CARTESIAN COORDINATES (ANGSTROEM)
---------------------------------
  S    -114.772000   50.994400  132.880000
  C    -115.421000   50.411900  131.307000
  C    -116.684000   50.862200  131.042000
  C    -117.219000   51.618200  132.180000
  C    -116.311000   51.701900  133.207000
  H    -118.124000   52.146900  132.292000
  C    -117.451000   50.740400  129.786000
  H    -116.702000   50.822700  128.922000
  H    -118.219000   51.518100  129.697000
  C    -118.161000   49.328400  129.735000
  H    -118.789000   49.404200  128.861000
  H    -117.394000   48.515200  129.693000
  C    -119.149000   49.193400  130.888000
  H    -119.882000   49.968600  130.720000
  H    -119.776000   48.329500  130.685000
  H    -118.717000   49.151200  131.961000
  S    -116.210000   51.304800  135.845000
  C    -116.338000   52.597400  136.934000
  C    -116.585000   53.788200  136.286000
  C    -116.699000   53.729200  134.865000
  C    -116.480000   52.386500  134.496000
  H    -116.739000   54.710100  136.864000
  C    -116.907000   54.955600  134.022000
  H    -116.925000   55.879800  134.568000
  H    -117.880000   54.941400  133.507000
  C    -115.805000   55.274400  132.978000
  H    -115.718000   54.442600  132.283000
  H    -114.838000   55.218000  133.394000
  C    -115.819000   56.638300  132.246000
  H    -115.035000   56.629600  131.542000
  H    -115.625000   57.553700  132.833000
  H    -116.645000   56.719400  131.562000
  H    -114.802000   49.963500  130.528000
  H    -116.260000   52.403800  138.070000

 Total Charge           Charge          ....    0
 Multiplicity           Mult            ....    1
 Number of Electrons    NEL             ....  134
 Basis Dimension        Dim             ....  322

ORBITAL ENERGIES
----------------

  NO   OCC          E(Eh)            E(eV)
   0   2.0000     -88.964990     -2420.8605
   1   2.0000     -88.964782     -2420.8548
   2   2.0000     -10.325628      -280.9746
   3   2.0000     -10.323342      -280.9124
   4   2.0000     -10.317037      -280.7408
   5   2.0000     -10.311664      -280.5946
   6   2.0000     -10.308284      -280.5027
   7   2.0000     -10.300563      -280.2926
   8   2.0000     -10.297597      -280.2119
   9   2.0000     -10.293291      -280.0947
  10   2.0000     -10.292270      -280.0669
  11   2.0000     -10.291094      -280.0349
  12   2.0000     -10.289080      -279.9801
  13   2.0000     -10.279149      -279.7099
  14   2.0000     -10.278925      -279.7038
  15   2.0000     -10.274716      -279.5892
  16   2.0000      -8.080702      -219.8871
  17   2.0000      -8.079403      -219.8517
  18   2.0000      -6.038982      -164.3291
  19   2.0000      -6.037941      -164.3007
  20   2.0000      -6.034937      -164.2190
  21   2.0000      -6.034118      -164.1967
  22   2.0000      -6.031732      -164.1318
  23   2.0000      -6.029968      -164.0838
  24   2.0000      -1.008332       -27.4381
  25   2.0000      -0.982561       -26.7368
  26   2.0000      -0.913826       -24.8665
  27   2.0000      -0.906973       -24.6800
  28   2.0000      -0.864199       -23.5160
  29   2.0000      -0.854597       -23.2548
  30   2.0000      -0.841625       -22.9018
  31   2.0000      -0.810338       -22.0504
  32   2.0000      -0.787561       -21.4306
  33   2.0000      -0.770502       -20.9664
  34   2.0000      -0.707476       -19.2514
  35   2.0000      -0.696649       -18.9568
  36   2.0000      -0.685449       -18.6520
  37   2.0000      -0.657845       -17.9009
  38   2.0000      -0.638093       -17.3634
  39   2.0000      -0.611916       -16.6511
  40   2.0000      -0.598085       -16.2747
  41   2.0000      -0.575842       -15.6695
  42   2.0000      -0.560202       -15.2439
  43   2.0000      -0.542757       -14.7692
  44   2.0000      -0.537477       -14.6255
  45   2.0000      -0.519489       -14.1360
  46   2.0000      -0.514144       -13.9906
  47   2.0000      -0.509036       -13.8516
  48   2.0000      -0.504386       -13.7251
  49   2.0000      -0.489698       -13.3254
  50   2.0000      -0.487476       -13.2649
  51   2.0000      -0.481532       -13.1032
  52   2.0000      -0.464697       -12.6450
  53   2.0000      -0.463047       -12.6002
  54   2.0000      -0.459121       -12.4933
  55   2.0000      -0.451696       -12.2913
  56   2.0000      -0.447178       -12.1683
  57   2.0000      -0.436772       -11.8852
  58   2.0000      -0.430289       -11.7088
  59   2.0000      -0.427019       -11.6198
  60   2.0000      -0.423369       -11.5204
  61   2.0000      -0.416015       -11.3204
  62   2.0000      -0.407775       -11.0961
  63   2.0000      -0.336963        -9.1692
  64   2.0000      -0.334730        -9.1085
  65   2.0000      -0.324039        -8.8176
  66   2.0000      -0.295016        -8.0278
  67   0.0000       0.039110         1.0642
  68   0.0000       0.066076         1.7980
  69   0.0000       0.102957         2.8016
  70   0.0000       0.120064         3.2671
  71   0.0000       0.137684         3.7466

MULLIKEN ATOMIC CHARGES
-----------------------
   0 S :    0.115114
   1 C :   -0.129894
   2 C :   -0.070588
   3 C :    0.050659
   4 C :   -0.161845
   5 H :   -0.007396
   6 C :    0.027348
   7 H :    0.042360
   8 H :    0.027806
   9 C :   -0.066817
  10 H :    0.025423
  11 H :    0.044630
  12 C :   -0.068222
  13 H :    0.013553
  14 H :    0.027037
  15 H :    0.079317
  16 S :    0.121565
  17 C :   -0.119599
  18 C :   -0.055526
  19 C :    0.023323
  20 C :   -0.215602
  21 H :    0.020191
  22 C :    0.107442
  23 H :    0.005944
  24 H :    0.033145
  25 C :   -0.091012
  26 H :    0.028742
  27 H :    0.013071
  28 C :   -0.025033
  29 H :    0.010636
  30 H :    0.042450
  31 H :    0.019569
  32 H :    0.044370
  33 H :    0.087838
Sum of atomic charges:   -0.0000000

LOEWDIN ATOMIC CHARGES
----------------------
   0 S :    0.393036
   1 C :   -0.193891
   2 C :   -0.056930
   3 C :   -0.061874
   4 C :   -0.202724
   5 H :    0.025105
   6 C :   -0.037357
   7 H :    0.038236
   8 H :    0.029108
   9 C :   -0.033341
  10 H :    0.022521
  11 H :    0.026397
  12 C :   -0.077132
  13 H :    0.022145
  14 H :    0.026080
  15 H :    0.042300
  16 S :    0.436167
  17 C :   -0.221293
  18 C :   -0.077249
  19 C :   -0.051525
  20 C :   -0.200981
  21 H :    0.032214
  22 C :   -0.031383
  23 H :    0.028911
  24 H :    0.034940
  25 C :   -0.040459
  26 H :    0.024616
  27 H :    0.019880
  28 C :   -0.066831
  29 H :    0.025472
  30 H :    0.029885
  31 H :    0.021930
  32 H :    0.026987
  33 H :    0.047037

  Mayer bond orders larger than 0.100000
B(  0-S ,  1-C ) :   1.1035 B(  0-S ,  4-C ) :   1.1544 B(  1-C ,  2-C ) :   1.6681
B(  1-C , 32-H ) :   0.9613 B(  2-C ,  3-C ) :   1.1687 B(  2-C ,  6-C ) :   1.0257
B(  3-C ,  4-C ) :   1.6262 B(  3-C ,  5-H ) :   1.0039 B(  4-C , 20-C ) :   1.0014
B(  6-C ,  7-H ) :   0.9406 B(  6-C ,  8-H ) :   0.9446 B(  6-C ,  9-C ) :   1.0668
B(  9-C , 10-H ) :   0.9569 B(  9-C , 11-H ) :   0.9586 B(  9-C , 12-C ) :   1.0791
B( 12-C , 13-H ) :   0.9702 B( 12-C , 14-H ) :   0.9697 B( 12-C , 15-H ) :   0.9664
B( 16-S , 17-C ) :   1.1658 B( 16-S , 20-C ) :   1.1831 B( 17-C , 18-C ) :   1.5850
B( 17-C , 33-H ) :   0.9571 B( 18-C , 19-C ) :   1.2647 B( 18-C , 21-H ) :   0.9850
B( 19-C , 20-C ) :   1.5512 B( 19-C , 22-C ) :   1.0509 B( 22-C , 23-H ) :   0.9340
B( 22-C , 24-H ) :   0.9272 B( 22-C , 25-C ) :   1.0520 B( 25-C , 26-H ) :   0.9522
B( 25-C , 27-H ) :   0.9544 B( 25-C , 28-C ) :   1.0953 B( 28-C , 29-H ) :   0.9661
B( 28-C , 30-H ) :   0.9737 B( 28-C , 31-H ) :   0.9722

Dispersion correction           -0.014782689
FINAL SINGLE POINT ENERGY     -1339.871310445260

DIPOLE MOMENT
-------------
                                X             Y             Z
Electronic contribution:     10.51017      -9.85806      17.86354
Nuclear contribution   :    -10.78988      10.21761     -18.25575
                        -----------------------------------------
Total Dipole Moment    :     -0.27971       0.35956      -0.39220
                        -----------------------------------------
Magnitude (a.u.)       :      0.60112
Magnitude (Debye)      :      1.52793

Rotational constants in cm-1:     0.017853     0.009158     0.007438
Rotational constants in MHz :   535.224336   274.563976   222.982885

                             ****ORCA TERMINATED NORMALLY****
TOTAL RUN TIME: 0 days 0 hours 0 minutes 34 seconds 229 msec
