                         Program Version 4.2.1 -  RELEASE  -
|  1> ! wB97X-D3 SP def2-SVP
|  2> %pal
|  3> nprocs 16
|  4> end
|  5>
|  6> * xyz 0 1
|  7> S 	 -45.3603 	 27.7007 	 89.6682
|  8> C 	 -45.8304 	 26.7624 	 91.0792
|  9> C 	 -47.065 	 27.1811 	 91.6177
| 10> C 	 -47.5612 	 28.2965 	 90.8898
| 11> C 	 -46.8392 	 28.6529 	 89.7365
| 12> H 	 -48.4179 	 28.916 	 91.1204
| 13> C 	 -47.7464 	 26.535 	 92.7928
| 14> H 	 -47.333 	 25.5624 	 92.8627
| 15> H 	 -48.8066 	 26.4523 	 92.497
| 16> C 	 -47.4265 	 27.2516 	 94.1491
| 17> H 	 -46.4005 	 27.2549 	 94.5042
| 18> H 	 -47.591 	 28.2717 	 93.8815
| 19> C 	 -48.5283 	 26.9512 	 95.2124
| 20> H 	 -49.2323 	 27.8063 	 95.1853
| 21> H 	 -49.1412 	 26.1124 	 94.9122
| 22> H 	 -48.2572 	 26.809 	 96.2623
| 23> S 	 -47.0689 	 29.1704 	 87.0869
| 24> C 	 -47.2671 	 30.8003 	 86.4973
| 25> C 	 -47.3997 	 31.6618 	 87.576
| 26> C 	 -47.3743 	 31.0489 	 88.8122
| 27> C 	 -47.1429 	 29.6648 	 88.7068
| 28> H 	 -47.5801 	 32.7198 	 87.4517
| 29> C 	 -47.4714 	 31.8573 	 90.1588
| 30> H 	 -47.9238 	 31.1624 	 90.88
| 31> H 	 -47.9846 	 32.7545 	 89.9979
| 32> C 	 -46.1003 	 32.3598 	 90.6918
| 33> H 	 -45.7527 	 33.1726 	 90.0676
| 34> H 	 -45.3173 	 31.5842 	 90.6027
| 35> C 	 -46.2176 	 32.9108 	 92.1206
| 36> H 	 -46.9815 	 33.7201 	 92.133
| 37> H 	 -45.3003 	 33.4237 	 92.474
| 38> H 	 -46.524 	 32.0576 	 92.8306
| 39> H 	 -45.2441 	 25.9484 	 91.524
| 40> H 	 -47.1809 	 31.0501 	 85.4533
| 41> *
| 42>
| 43>                          ****END OF INPUT****

CARTESIAN COORDINATES (ANGSTROEM)
---------------------------------
  S    -45.360300   27.700700   89.668200
  C    -45.830400   26.762400   91.079200
  C    -47.065000   27.181100   91.617700
  C    -47.561200   28.296500   90.889800
  C    -46.839200   28.652900   89.736500
  H    -48.417900   28.916000   91.120400
  C    -47.746400   26.535000   92.792800
  H    -47.333000   25.562400   92.862700
  H    -48.806600   26.452300   92.497000
  C    -47.426500   27.251600   94.149100
  H    -46.400500   27.254900   94.504200
  H    -47.591000   28.271700   93.881500
  C    -48.528300   26.951200   95.212400
  H    -49.232300   27.806300   95.185300
  H    -49.141200   26.112400   94.912200
  H    -48.257200   26.809000   96.262300
  S    -47.068900   29.170400   87.086900
  C    -47.267100   30.800300   86.497300
  C    -47.399700   31.661800   87.576000
  C    -47.374300   31.048900   88.812200
  C    -47.142900   29.664800   88.706800
  H    -47.580100   32.719800   87.451700
  C    -47.471400   31.857300   90.158800
  H    -47.923800   31.162400   90.880000
  H    -47.984600   32.754500   89.997900
  C    -46.100300   32.359800   90.691800
  H    -45.752700   33.172600   90.067600
  H    -45.317300   31.584200   90.602700
  C    -46.217600   32.910800   92.120600
  H    -46.981500   33.720100   92.133000
  H    -45.300300   33.423700   92.474000
  H    -46.524000   32.057600   92.830600
  H    -45.244100   25.948400   91.524000
  H    -47.180900   31.050100   85.453300

 Total Charge           Charge          ....    0
 Multiplicity           Mult            ....    1
 Number of Electrons    NEL             ....  134
 Basis Dimension        Dim             ....  322

ORBITAL ENERGIES
----------------

  NO   OCC          E(Eh)            E(eV)
   0   2.0000     -88.968808     -2420.9643
   1   2.0000     -88.967944     -2420.9408
   2   2.0000     -10.332981      -281.1747
   3   2.0000     -10.325089      -280.9599
   4   2.0000     -10.317597      -280.7561
   5   2.0000     -10.316161      -280.7170
   6   2.0000     -10.303030      -280.3597
   7   2.0000     -10.301437      -280.3164
   8   2.0000     -10.295918      -280.1662
   9   2.0000     -10.294250      -280.1208
  10   2.0000     -10.293467      -280.0995
  11   2.0000     -10.290650      -280.0228
  12   2.0000     -10.288864      -279.9742
  13   2.0000     -10.287449      -279.9357
  14   2.0000     -10.284500      -279.8555
  15   2.0000     -10.280604      -279.7495
  16   2.0000      -8.083586      -219.9656
  17   2.0000      -8.082838      -219.9452
  18   2.0000      -6.041850      -164.4071
  19   2.0000      -6.041280      -164.3916
  20   2.0000      -6.037768      -164.2960
  21   2.0000      -6.037360      -164.2849
  22   2.0000      -6.034744      -164.2137
  23   2.0000      -6.033789      -164.1878
  24   2.0000      -1.010048       -27.4848
  25   2.0000      -0.983728       -26.7686
  26   2.0000      -0.910639       -24.7797
  27   2.0000      -0.904530       -24.6135
  28   2.0000      -0.866950       -23.5909
  29   2.0000      -0.849872       -23.1262
  30   2.0000      -0.845691       -23.0124
  31   2.0000      -0.812095       -22.0982
  32   2.0000      -0.779531       -21.2121
  33   2.0000      -0.767713       -20.8905
  34   2.0000      -0.709593       -19.3090
  35   2.0000      -0.697952       -18.9922
  36   2.0000      -0.690006       -18.7760
  37   2.0000      -0.665813       -18.1177
  38   2.0000      -0.641290       -17.4504
  39   2.0000      -0.619044       -16.8450
  40   2.0000      -0.596643       -16.2355
  41   2.0000      -0.570180       -15.5154
  42   2.0000      -0.567046       -15.4301
  43   2.0000      -0.556339       -15.1387
  44   2.0000      -0.524135       -14.2624
  45   2.0000      -0.521125       -14.1805
  46   2.0000      -0.516205       -14.0466
  47   2.0000      -0.507337       -13.8053
  48   2.0000      -0.500785       -13.6271
  49   2.0000      -0.496171       -13.5015
  50   2.0000      -0.493279       -13.4228
  51   2.0000      -0.482047       -13.1172
  52   2.0000      -0.473625       -12.8880
  53   2.0000      -0.463999       -12.6261
  54   2.0000      -0.462309       -12.5801
  55   2.0000      -0.450919       -12.2701
  56   2.0000      -0.444669       -12.1000
  57   2.0000      -0.442893       -12.0517
  58   2.0000      -0.430206       -11.7065
  59   2.0000      -0.424308       -11.5460
  60   2.0000      -0.421280       -11.4636
  61   2.0000      -0.419492       -11.4149
  62   2.0000      -0.407982       -11.1018
  63   2.0000      -0.344550        -9.3757
  64   2.0000      -0.333856        -9.0847
  65   2.0000      -0.330897        -9.0042
  66   2.0000      -0.289081        -7.8663
  67   0.0000       0.028936         0.7874
  68   0.0000       0.067540         1.8379
  69   0.0000       0.117329         3.1927
  70   0.0000       0.120589         3.2814
  71   0.0000       0.128623         3.5000

MULLIKEN ATOMIC CHARGES
-----------------------
   0 S :    0.121004
   1 C :   -0.127282
   2 C :   -0.116970
   3 C :    0.034312
   4 C :   -0.167101
   5 H :    0.011885
   6 C :    0.081958
   7 H :    0.012797
   8 H :    0.045703
   9 C :   -0.052615
  10 H :    0.037660
  11 H :    0.014684
  12 C :   -0.058047
  13 H :    0.029956
  14 H :    0.028094
  15 H :    0.041733
  16 S :    0.125227
  17 C :   -0.101681
  18 C :   -0.034399
  19 C :   -0.026753
  20 C :   -0.185951
  21 H :    0.014353
  22 C :    0.110856
  23 H :    0.017910
  24 H :    0.007226
  25 C :   -0.075758
  26 H :    0.019455
  27 H :    0.037967
  28 C :   -0.079892
  29 H :    0.027396
  30 H :    0.043118
  31 H :    0.050493
  32 H :    0.054103
  33 H :    0.058557
Sum of atomic charges:   -0.0000000

LOEWDIN ATOMIC CHARGES
----------------------
   0 S :    0.405655
   1 C :   -0.202233
   2 C :   -0.064125
   3 C :   -0.067386
   4 C :   -0.195100
   5 H :    0.027480
   6 C :   -0.026219
   7 H :    0.025060
   8 H :    0.039416
   9 C :   -0.037786
  10 H :    0.028062
  11 H :    0.020009
  12 C :   -0.071379
  13 H :    0.030113
  14 H :    0.022500
  15 H :    0.026545
  16 S :    0.447812
  17 C :   -0.192168
  18 C :   -0.071708
  19 C :   -0.057708
  20 C :   -0.225296
  21 H :    0.031370
  22 C :   -0.017294
  23 H :    0.028630
  24 H :    0.021912
  25 C :   -0.042308
  26 H :    0.020066
  27 H :    0.025067
  28 C :   -0.074837
  29 H :    0.024052
  30 H :    0.028982
  31 H :    0.033753
  32 H :    0.031259
  33 H :    0.027807

  Mayer bond orders larger than 0.100000
B(  0-S ,  1-C ) :   1.1489 B(  0-S ,  4-C ) :   1.1581 B(  1-C ,  2-C ) :   1.5881
B(  1-C ,  4-C ) :   0.1080 B(  1-C , 32-H ) :   0.9628 B(  2-C ,  3-C ) :   1.2559
B(  2-C ,  6-C ) :   1.0271 B(  3-C ,  4-C ) :   1.5645 B(  3-C ,  5-H ) :   0.9886
B(  4-C , 20-C ) :   1.0269 B(  6-C ,  7-H ) :   0.9280 B(  6-C ,  8-H ) :   0.9471
B(  6-C ,  9-C ) :   1.0462 B(  9-C , 10-H ) :   0.9618 B(  9-C , 11-H ) :   0.9720
B(  9-C , 12-C ) :   1.0479 B( 12-C , 13-H ) :   0.9828 B( 12-C , 14-H ) :   0.9788
B( 12-C , 15-H ) :   0.9792 B( 16-S , 17-C ) :   1.1762 B( 16-S , 20-C ) :   1.1935
B( 17-C , 18-C ) :   1.5354 B( 17-C , 20-C ) :   0.1134 B( 17-C , 33-H ) :   0.9744
B( 18-C , 19-C ) :   1.3257 B( 18-C , 21-H ) :   0.9891 B( 19-C , 20-C ) :   1.5183
B( 19-C , 22-C ) :   1.0383 B( 22-C , 23-H ) :   0.9372 B( 22-C , 24-H ) :   0.9303
B( 22-C , 25-C ) :   1.0609 B( 25-C , 26-H ) :   0.9533 B( 25-C , 27-H ) :   0.9594
B( 25-C , 28-C ) :   1.0801 B( 28-C , 29-H ) :   0.9717 B( 28-C , 30-H ) :   0.9733
B( 28-C , 31-H ) :   0.9752

Dispersion correction           -0.013968140
FINAL SINGLE POINT ENERGY     -1339.878906835667

DIPOLE MOMENT
-------------
                                X             Y             Z
Electronic contribution:      6.01367      -8.48761     -28.70621
Nuclear contribution   :     -6.16466       8.79752      29.13247
                        -----------------------------------------
Total Dipole Moment    :     -0.15099       0.30991       0.42626
                        -----------------------------------------
Magnitude (a.u.)       :      0.54822
Magnitude (Debye)      :      1.39346

Rotational constants in cm-1:     0.018269     0.008503     0.006646
Rotational constants in MHz :   547.685651   254.902447   199.256366

                             ****ORCA TERMINATED NORMALLY****
TOTAL RUN TIME: 0 days 0 hours 0 minutes 29 seconds 714 msec
