                         Program Version 4.2.1 -  RELEASE  -
|  1> ! wB97X-D3 SP def2-SVP
|  2> %pal
|  3> nprocs 16
|  4> end
|  5>
|  6> * xyz 0 1
|  7> S 	 -50.432 	 58.4978 	 128.503
|  8> C 	 -50.3386 	 57.1172 	 129.607
|  9> C 	 -50.0156 	 57.5099 	 130.878
| 10> C 	 -49.8009 	 58.9518 	 130.923
| 11> C 	 -50.0933 	 59.6258 	 129.773
| 12> H 	 -49.4031 	 59.4393 	 131.841
| 13> C 	 -49.64 	 56.5773 	 131.962
| 14> H 	 -50.2758 	 55.7093 	 132.109
| 15> H 	 -49.7268 	 57.093 	 132.877
| 16> C 	 -48.1483 	 56.1088 	 132.016
| 17> H 	 -47.986 	 55.537 	 132.911
| 18> H 	 -48.0964 	 55.5 	 131.139
| 19> C 	 -47.1275 	 57.3003 	 132.045
| 20> H 	 -46.1084 	 56.824 	 132.175
| 21> H 	 -47.1076 	 57.736 	 131.047
| 22> H 	 -47.4283 	 58.0926 	 132.741
| 23> S 	 -48.3044 	 61.4204 	 128.522
| 24> C 	 -48.5775 	 63.1428 	 128.716
| 25> C 	 -49.767 	 63.3728 	 129.369
| 26> C 	 -50.4248 	 62.2196 	 129.948
| 27> C 	 -49.7862 	 61.0334 	 129.459
| 28> H 	 -50.1537 	 64.3705 	 129.452
| 29> C 	 -51.6085 	 62.3952 	 130.895
| 30> H 	 -52.0629 	 61.2963 	 130.96
| 31> H 	 -52.3792 	 62.9868 	 130.42
| 32> C 	 -51.2901 	 62.9598 	 132.227
| 33> H 	 -50.7601 	 63.8276 	 132.048
| 34> H 	 -50.5626 	 62.2318 	 132.609
| 35> C 	 -52.4367 	 63.1145 	 133.196
| 36> H 	 -52.276 	 63.8963 	 133.944
| 37> H 	 -52.8673 	 62.2165 	 133.6
| 38> H 	 -53.248 	 63.6744 	 132.76
| 39> H 	 -50.2319 	 56.1094 	 129.269
| 40> H 	 -47.9796 	 63.9091 	 128.227
| 41> *
| 42>
| 43>                          ****END OF INPUT****

CARTESIAN COORDINATES (ANGSTROEM)
---------------------------------
  S    -50.432000   58.497800  128.503000
  C    -50.338600   57.117200  129.607000
  C    -50.015600   57.509900  130.878000
  C    -49.800900   58.951800  130.923000
  C    -50.093300   59.625800  129.773000
  H    -49.403100   59.439300  131.841000
  C    -49.640000   56.577300  131.962000
  H    -50.275800   55.709300  132.109000
  H    -49.726800   57.093000  132.877000
  C    -48.148300   56.108800  132.016000
  H    -47.986000   55.537000  132.911000
  H    -48.096400   55.500000  131.139000
  C    -47.127500   57.300300  132.045000
  H    -46.108400   56.824000  132.175000
  H    -47.107600   57.736000  131.047000
  H    -47.428300   58.092600  132.741000
  S    -48.304400   61.420400  128.522000
  C    -48.577500   63.142800  128.716000
  C    -49.767000   63.372800  129.369000
  C    -50.424800   62.219600  129.948000
  C    -49.786200   61.033400  129.459000
  H    -50.153700   64.370500  129.452000
  C    -51.608500   62.395200  130.895000
  H    -52.062900   61.296300  130.960000
  H    -52.379200   62.986800  130.420000
  C    -51.290100   62.959800  132.227000
  H    -50.760100   63.827600  132.048000
  H    -50.562600   62.231800  132.609000
  C    -52.436700   63.114500  133.196000
  H    -52.276000   63.896300  133.944000
  H    -52.867300   62.216500  133.600000
  H    -53.248000   63.674400  132.760000
  H    -50.231900   56.109400  129.269000
  H    -47.979600   63.909100  128.227000

 Total Charge           Charge          ....    0
 Multiplicity           Mult            ....    1
 Number of Electrons    NEL             ....  134
 Basis Dimension        Dim             ....  322

ORBITAL ENERGIES
----------------

  NO   OCC          E(Eh)            E(eV)
   0   2.0000     -88.967837     -2420.9379
   1   2.0000     -88.963093     -2420.8088
   2   2.0000     -10.336452      -281.2692
   3   2.0000     -10.327997      -281.0391
   4   2.0000     -10.319783      -280.8156
   5   2.0000     -10.312610      -280.6204
   6   2.0000     -10.312141      -280.6076
   7   2.0000     -10.300797      -280.2989
   8   2.0000     -10.299181      -280.2550
   9   2.0000     -10.296646      -280.1860
  10   2.0000     -10.293744      -280.1070
  11   2.0000     -10.286010      -279.8966
  12   2.0000     -10.284492      -279.8552
  13   2.0000     -10.283333      -279.8237
  14   2.0000     -10.278756      -279.6992
  15   2.0000     -10.276158      -279.6285
  16   2.0000      -8.081673      -219.9135
  17   2.0000      -8.078117      -219.8167
  18   2.0000      -6.040300      -164.3649
  19   2.0000      -6.036699      -164.2669
  20   2.0000      -6.036307      -164.2563
  21   2.0000      -6.032587      -164.1550
  22   2.0000      -6.032354      -164.1487
  23   2.0000      -6.028764      -164.0510
  24   2.0000      -1.002956       -27.2918
  25   2.0000      -0.979294       -26.6479
  26   2.0000      -0.917678       -24.9713
  27   2.0000      -0.912820       -24.8391
  28   2.0000      -0.865464       -23.5505
  29   2.0000      -0.850136       -23.1334
  30   2.0000      -0.839499       -22.8439
  31   2.0000      -0.813348       -22.1323
  32   2.0000      -0.786960       -21.4143
  33   2.0000      -0.775626       -21.1059
  34   2.0000      -0.707921       -19.2635
  35   2.0000      -0.703085       -19.1319
  36   2.0000      -0.693885       -18.8816
  37   2.0000      -0.655399       -17.8343
  38   2.0000      -0.640302       -17.4235
  39   2.0000      -0.614887       -16.7319
  40   2.0000      -0.596229       -16.2242
  41   2.0000      -0.576810       -15.6958
  42   2.0000      -0.574392       -15.6300
  43   2.0000      -0.546926       -14.8826
  44   2.0000      -0.541407       -14.7324
  45   2.0000      -0.526652       -14.3309
  46   2.0000      -0.520619       -14.1668
  47   2.0000      -0.512865       -13.9558
  48   2.0000      -0.506520       -13.7831
  49   2.0000      -0.496054       -13.4983
  50   2.0000      -0.493475       -13.4281
  51   2.0000      -0.480432       -13.0732
  52   2.0000      -0.467848       -12.7308
  53   2.0000      -0.464450       -12.6383
  54   2.0000      -0.457897       -12.4600
  55   2.0000      -0.451121       -12.2756
  56   2.0000      -0.439792       -11.9673
  57   2.0000      -0.430398       -11.7117
  58   2.0000      -0.426961       -11.6182
  59   2.0000      -0.424258       -11.5446
  60   2.0000      -0.421224       -11.4621
  61   2.0000      -0.417818       -11.3694
  62   2.0000      -0.410742       -11.1769
  63   2.0000      -0.338082        -9.1997
  64   2.0000      -0.327781        -8.9194
  65   2.0000      -0.325139        -8.8475
  66   2.0000      -0.305600        -8.3158
  67   0.0000       0.034639         0.9426
  68   0.0000       0.058332         1.5873
  69   0.0000       0.115157         3.1336
  70   0.0000       0.118371         3.2210
  71   0.0000       0.124127         3.3777

MULLIKEN ATOMIC CHARGES
-----------------------
   0 S :    0.095071
   1 C :   -0.109597
   2 C :   -0.087574
   3 C :    0.018713
   4 C :   -0.155838
   5 H :    0.025830
   6 C :    0.061366
   7 H :    0.031214
   8 H :   -0.001807
   9 C :   -0.062642
  10 H :    0.032313
  11 H :    0.021028
  12 C :   -0.081958
  13 H :    0.049517
  14 H :    0.046664
  15 H :    0.040886
  16 S :    0.111083
  17 C :   -0.096948
  18 C :   -0.026642
  19 C :   -0.033475
  20 C :   -0.163653
  21 H :    0.015065
  22 C :    0.024154
  23 H :    0.044128
  24 H :    0.023224
  25 C :   -0.027765
  26 H :    0.003760
  27 H :    0.024410
  28 C :   -0.000676
  29 H :    0.023687
  30 H :    0.040620
  31 H :    0.002696
  32 H :    0.047399
  33 H :    0.065749
Sum of atomic charges:   -0.0000000

LOEWDIN ATOMIC CHARGES
----------------------
   0 S :    0.401607
   1 C :   -0.181740
   2 C :   -0.064569
   3 C :   -0.057649
   4 C :   -0.209574
   5 H :    0.034891
   6 C :   -0.038479
   7 H :    0.033236
   8 H :    0.021083
   9 C :   -0.027944
  10 H :    0.020900
  11 H :    0.016893
  12 C :   -0.071088
  13 H :    0.036572
  14 H :    0.027971
  15 H :    0.024895
  16 S :    0.389877
  17 C :   -0.185819
  18 C :   -0.071766
  19 C :   -0.045339
  20 C :   -0.191512
  21 H :    0.026592
  22 C :   -0.037492
  23 H :    0.042124
  24 H :    0.025160
  25 C :   -0.041382
  26 H :    0.015484
  27 H :    0.029990
  28 C :   -0.067495
  29 H :    0.033969
  30 H :    0.027675
  31 H :    0.024801
  32 H :    0.024868
  33 H :    0.033260

  Mayer bond orders larger than 0.100000
B(  0-S ,  1-C ) :   1.1371 B(  0-S ,  4-C ) :   1.1448 B(  1-C ,  2-C ) :   1.6204
B(  1-C , 32-H ) :   0.9694 B(  2-C ,  3-C ) :   1.2296 B(  2-C ,  6-C ) :   1.0471
B(  3-C ,  4-C ) :   1.5976 B(  3-C ,  5-H ) :   0.9854 B(  4-C , 20-C ) :   1.0106
B(  6-C ,  7-H ) :   0.9424 B(  6-C ,  8-H ) :   0.9290 B(  6-C ,  9-C ) :   1.0613
B(  9-C , 10-H ) :   0.9593 B(  9-C , 11-H ) :   0.9599 B(  9-C , 12-C ) :   1.0736
B( 12-C , 13-H ) :   0.9734 B( 12-C , 14-H ) :   0.9718 B( 12-C , 15-H ) :   0.9751
B( 16-S , 17-C ) :   1.1429 B( 16-S , 20-C ) :   1.1446 B( 17-C , 18-C ) :   1.6261
B( 17-C , 33-H ) :   0.9646 B( 18-C , 19-C ) :   1.2277 B( 18-C , 21-H ) :   0.9851
B( 19-C , 20-C ) :   1.5965 B( 19-C , 22-C ) :   1.0465 B( 22-C , 23-H ) :   0.9324
B( 22-C , 24-H ) :   0.9316 B( 22-C , 25-C ) :   1.0639 B( 25-C , 26-H ) :   0.9500
B( 25-C , 27-H ) :   0.9471 B( 25-C , 28-C ) :   1.0935 B( 28-C , 29-H ) :   0.9666
B( 28-C , 30-H ) :   0.9748 B( 28-C , 31-H ) :   0.9618

Dispersion correction           -0.014545293
FINAL SINGLE POINT ENERGY     -1339.864983871045

DIPOLE MOMENT
-------------
                                X             Y             Z
Electronic contribution:      2.41424       0.71362     -23.28963
Nuclear contribution   :     -2.35005      -0.58342      23.83086
                        -----------------------------------------
Total Dipole Moment    :      0.06420       0.13019       0.54123
                        -----------------------------------------
Magnitude (a.u.)       :      0.56036
Magnitude (Debye)      :      1.42432

Rotational constants in cm-1:     0.017212     0.008685     0.007291
Rotational constants in MHz :   516.010411   260.373581   218.579220

                             ****ORCA TERMINATED NORMALLY****
TOTAL RUN TIME: 0 days 0 hours 0 minutes 34 seconds 427 msec
