                         Program Version 4.2.1 -  RELEASE  -
|  1> ! wB97X-D3 SP def2-SVP
|  2> %pal
|  3> nprocs 16
|  4> end
|  5>
|  6> * xyz 0 1
|  7> S 	 31.6976 	 1.7861 	 68.7762
|  8> C 	 31.2015 	 2.69337 	 70.2211
|  9> C 	 30.4377 	 1.95035 	 71.0879
| 10> C 	 30.2898 	 0.626187 	 70.5937
| 11> C 	 31.0233 	 0.338026 	 69.4742
| 12> H 	 29.7965 	 -0.269832 	 70.9601
| 13> C 	 29.7139 	 2.48706 	 72.3564
| 14> H 	 29.6462 	 3.59963 	 72.2208
| 15> H 	 30.3173 	 2.29525 	 73.195
| 16> C 	 28.4318 	 1.82376 	 72.7096
| 17> H 	 28.523 	 0.79973 	 72.7254
| 18> H 	 28.1014 	 2.00915 	 73.7149
| 19> C 	 27.2222 	 2.09077 	 71.7362
| 20> H 	 27.5768 	 1.89544 	 70.6875
| 21> H 	 26.4531 	 1.33434 	 72.0652
| 22> H 	 26.8325 	 3.11069 	 71.8132
| 23> S 	 31.1654 	 -0.791257 	 66.9973
| 24> C 	 30.9038 	 -2.51004 	 66.8738
| 25> C 	 30.9448 	 -3.14908 	 68.121
| 26> C 	 31.1388 	 -2.21113 	 69.1703
| 27> C 	 31.1309 	 -0.91287 	 68.744
| 28> H 	 30.9136 	 -4.22099 	 68.2879
| 29> C 	 31.2417 	 -2.70994 	 70.5865
| 30> H 	 30.3027 	 -3.13134 	 70.8615
| 31> H 	 31.2549 	 -1.77893 	 71.1051
| 32> C 	 32.4666 	 -3.54236 	 70.9796
| 33> H 	 33.3208 	 -2.88602 	 70.739
| 34> H 	 32.534 	 -4.43132 	 70.2941
| 35> C 	 32.4851 	 -4.00884 	 72.5104
| 36> H 	 33.5158 	 -4.38066 	 72.7794
| 37> H 	 31.8377 	 -4.90734 	 72.7385
| 38> H 	 32.265 	 -3.19405 	 73.2481
| 39> H 	 31.2791 	 3.75094 	 70.3131
| 40> H 	 30.837 	 -2.93814 	 65.8953
| 41> *
| 42>
| 43>                          ****END OF INPUT****

CARTESIAN COORDINATES (ANGSTROEM)
---------------------------------
  S     31.697600    1.786100   68.776200
  C     31.201500    2.693370   70.221100
  C     30.437700    1.950350   71.087900
  C     30.289800    0.626187   70.593700
  C     31.023300    0.338026   69.474200
  H     29.796500   -0.269832   70.960100
  C     29.713900    2.487060   72.356400
  H     29.646200    3.599630   72.220800
  H     30.317300    2.295250   73.195000
  C     28.431800    1.823760   72.709600
  H     28.523000    0.799730   72.725400
  H     28.101400    2.009150   73.714900
  C     27.222200    2.090770   71.736200
  H     27.576800    1.895440   70.687500
  H     26.453100    1.334340   72.065200
  H     26.832500    3.110690   71.813200
  S     31.165400   -0.791257   66.997300
  C     30.903800   -2.510040   66.873800
  C     30.944800   -3.149080   68.121000
  C     31.138800   -2.211130   69.170300
  C     31.130900   -0.912870   68.744000
  H     30.913600   -4.220990   68.287900
  C     31.241700   -2.709940   70.586500
  H     30.302700   -3.131340   70.861500
  H     31.254900   -1.778930   71.105100
  C     32.466600   -3.542360   70.979600
  H     33.320800   -2.886020   70.739000
  H     32.534000   -4.431320   70.294100
  C     32.485100   -4.008840   72.510400
  H     33.515800   -4.380660   72.779400
  H     31.837700   -4.907340   72.738500
  H     32.265000   -3.194050   73.248100
  H     31.279100    3.750940   70.313100
  H     30.837000   -2.938140   65.895300

 Total Charge           Charge          ....    0
 Multiplicity           Mult            ....    1
 Number of Electrons    NEL             ....  134
 Basis Dimension        Dim             ....  322

ORBITAL ENERGIES
----------------

  NO   OCC          E(Eh)            E(eV)
   0   2.0000     -88.966043     -2420.8891
   1   2.0000     -88.964389     -2420.8441
   2   2.0000     -10.326548      -280.9997
   3   2.0000     -10.324429      -280.9420
   4   2.0000     -10.320921      -280.8465
   5   2.0000     -10.312246      -280.6105
   6   2.0000     -10.305465      -280.4260
   7   2.0000     -10.300316      -280.2858
   8   2.0000     -10.299066      -280.2518
   9   2.0000     -10.296915      -280.1933
  10   2.0000     -10.296522      -280.1826
  11   2.0000     -10.294111      -280.1170
  12   2.0000     -10.291457      -280.0448
  13   2.0000     -10.283807      -279.8366
  14   2.0000     -10.282804      -279.8093
  15   2.0000     -10.278408      -279.6897
  16   2.0000      -8.081404      -219.9062
  17   2.0000      -8.079212      -219.8465
  18   2.0000      -6.039815      -164.3517
  19   2.0000      -6.037760      -164.2958
  20   2.0000      -6.036004      -164.2480
  21   2.0000      -6.033916      -164.1912
  22   2.0000      -6.032057      -164.1406
  23   2.0000      -6.029732      -164.0774
  24   2.0000      -1.011778       -27.5319
  25   2.0000      -0.985835       -26.8259
  26   2.0000      -0.915168       -24.9030
  27   2.0000      -0.907863       -24.7042
  28   2.0000      -0.870381       -23.6843
  29   2.0000      -0.850434       -23.1415
  30   2.0000      -0.839480       -22.8434
  31   2.0000      -0.813814       -22.1450
  32   2.0000      -0.784606       -21.3502
  33   2.0000      -0.775227       -21.0950
  34   2.0000      -0.709397       -19.3037
  35   2.0000      -0.701724       -19.0949
  36   2.0000      -0.694857       -18.9080
  37   2.0000      -0.666112       -18.1258
  38   2.0000      -0.645663       -17.5694
  39   2.0000      -0.619183       -16.8488
  40   2.0000      -0.599064       -16.3014
  41   2.0000      -0.565795       -15.3961
  42   2.0000      -0.558574       -15.1996
  43   2.0000      -0.553472       -15.0608
  44   2.0000      -0.536500       -14.5989
  45   2.0000      -0.524324       -14.2676
  46   2.0000      -0.516012       -14.0414
  47   2.0000      -0.514769       -14.0076
  48   2.0000      -0.502326       -13.6690
  49   2.0000      -0.497018       -13.5246
  50   2.0000      -0.487944       -13.2776
  51   2.0000      -0.484232       -13.1766
  52   2.0000      -0.467527       -12.7221
  53   2.0000      -0.462407       -12.5827
  54   2.0000      -0.460204       -12.5228
  55   2.0000      -0.455647       -12.3988
  56   2.0000      -0.446658       -12.1542
  57   2.0000      -0.438807       -11.9405
  58   2.0000      -0.431542       -11.7429
  59   2.0000      -0.427090       -11.6217
  60   2.0000      -0.419719       -11.4211
  61   2.0000      -0.416896       -11.3443
  62   2.0000      -0.414540       -11.2802
  63   2.0000      -0.354455        -9.6452
  64   2.0000      -0.337193        -9.1755
  65   2.0000      -0.330228        -8.9860
  66   2.0000      -0.285329        -7.7642
  67   0.0000       0.023625         0.6429
  68   0.0000       0.072960         1.9853
  69   0.0000       0.095823         2.6075
  70   0.0000       0.121382         3.3030
  71   0.0000       0.138884         3.7792

MULLIKEN ATOMIC CHARGES
-----------------------
   0 S :    0.088387
   1 C :   -0.110273
   2 C :   -0.085778
   3 C :    0.003759
   4 C :   -0.150056
   5 H :    0.010543
   6 C :    0.130002
   7 H :    0.028185
   8 H :    0.028563
   9 C :   -0.066100
  10 H :    0.005104
  11 H :    0.016892
  12 C :   -0.090560
  13 H :    0.052816
  14 H :    0.041796
  15 H :    0.039854
  16 S :    0.098027
  17 C :   -0.086043
  18 C :   -0.014346
  19 C :   -0.097221
  20 C :   -0.123759
  21 H :    0.022722
  22 C :    0.097584
  23 H :    0.023361
  24 H :   -0.003028
  25 C :   -0.071089
  26 H :    0.042908
  27 H :    0.036458
  28 C :   -0.091682
  29 H :    0.041466
  30 H :    0.046278
  31 H :    0.046595
  32 H :    0.033183
  33 H :    0.055451
Sum of atomic charges:   -0.0000000

LOEWDIN ATOMIC CHARGES
----------------------
   0 S :    0.384798
   1 C :   -0.183971
   2 C :   -0.056778
   3 C :   -0.077080
   4 C :   -0.182807
   5 H :    0.031664
   6 C :   -0.023958
   7 H :    0.035056
   8 H :    0.031015
   9 C :   -0.042466
  10 H :    0.013657
  11 H :    0.024583
  12 C :   -0.068289
  13 H :    0.031432
  14 H :    0.032117
  15 H :    0.022004
  16 S :    0.403454
  17 C :   -0.173738
  18 C :   -0.065263
  19 C :   -0.059322
  20 C :   -0.197704
  21 H :    0.032858
  22 C :   -0.038153
  23 H :    0.025480
  24 H :    0.024003
  25 C :   -0.037361
  26 H :    0.032177
  27 H :    0.026301
  28 C :   -0.079824
  29 H :    0.032011
  30 H :    0.031378
  31 H :    0.030103
  32 H :    0.020653
  33 H :    0.021968

  Mayer bond orders larger than 0.100000
B(  0-S ,  1-C ) :   1.1236 B(  0-S ,  4-C ) :   1.1359 B(  1-C ,  2-C ) :   1.6489
B(  1-C , 32-H ) :   0.9689 B(  2-C ,  3-C ) :   1.2044 B(  2-C ,  6-C ) :   0.9975
B(  3-C ,  4-C ) :   1.6077 B(  3-C ,  5-H ) :   0.9837 B(  4-C , 20-C ) :   1.0454
B(  6-C ,  7-H ) :   0.9453 B(  6-C ,  8-H ) :   0.9247 B(  6-C ,  9-C ) :   1.0932
B(  9-C , 10-H ) :   0.9430 B(  9-C , 11-H ) :   0.9491 B(  9-C , 12-C ) :   1.0727
B( 12-C , 13-H ) :   0.9762 B( 12-C , 14-H ) :   0.9769 B( 12-C , 15-H ) :   0.9784
B( 16-S , 17-C ) :   1.1657 B( 16-S , 20-C ) :   1.1277 B( 17-C , 18-C ) :   1.5749
B( 17-C , 33-H ) :   0.9747 B( 18-C , 19-C ) :   1.2419 B( 18-C , 21-H ) :   0.9934
B( 19-C , 20-C ) :   1.6104 B( 19-C , 22-C ) :   1.0388 B( 22-C , 23-H ) :   0.9303
B( 22-C , 24-H ) :   0.9167 B( 22-C , 25-C ) :   1.0568 B( 25-C , 26-H ) :   0.9550
B( 25-C , 27-H ) :   0.9597 B( 25-C , 28-C ) :   1.0659 B( 28-C , 29-H ) :   0.9770
B( 28-C , 30-H ) :   0.9764 B( 28-C , 31-H ) :   0.9765

Dispersion correction           -0.013951386
FINAL SINGLE POINT ENERGY     -1339.873360153553

DIPOLE MOMENT
-------------
                                X             Y             Z
Electronic contribution:      8.37869       7.75306     -25.06999
Nuclear contribution   :     -8.59935      -8.10845      25.64041
                        -----------------------------------------
Total Dipole Moment    :     -0.22066      -0.35540       0.57041
                        -----------------------------------------
Magnitude (a.u.)       :      0.70737
Magnitude (Debye)      :      1.79799

Rotational constants in cm-1:     0.016034     0.009274     0.007106
Rotational constants in MHz :   480.699793   278.031542   213.045587

                             ****ORCA TERMINATED NORMALLY****
TOTAL RUN TIME: 0 days 0 hours 0 minutes 30 seconds 342 msec
