                         Program Version 4.2.1 -  RELEASE  -
|  1> ! wB97X-D3 SP def2-SVP
|  2> %pal
|  3> nprocs 16
|  4> end
|  5>
|  6> * xyz 0 1
|  7> S 	 38.3873 	 16.9608 	 65.2528
|  8> C 	 37.9126 	 18.0237 	 66.5492
|  9> C 	 39.0918 	 18.4364 	 67.1585
| 10> C 	 40.2632 	 17.7319 	 66.8132
| 11> C 	 40.0656 	 16.9049 	 65.6984
| 12> H 	 41.1232 	 17.819 	 67.4353
| 13> C 	 39.0891 	 19.3048 	 68.4475
| 14> H 	 39.7098 	 20.1726 	 68.0224
| 15> H 	 39.6677 	 18.7749 	 69.2111
| 16> C 	 37.7705 	 19.8164 	 69.0675
| 17> H 	 37.0857 	 20.2481 	 68.3718
| 18> H 	 37.2119 	 19.0047 	 69.4979
| 19> C 	 38.0064 	 20.7001 	 70.2198
| 20> H 	 38.834 	 20.3177 	 70.8412
| 21> H 	 38.4186 	 21.5949 	 69.8156
| 22> H 	 37.1628 	 20.8362 	 70.8783
| 23> S 	 41.8308 	 16.5937 	 63.599
| 24> C 	 42.5927 	 14.9658 	 63.3227
| 25> C 	 42.202 	 14.0707 	 64.2612
| 26> C 	 41.4048 	 14.7119 	 65.327
| 27> C 	 41.022 	 16.0523 	 65.0456
| 28> H 	 42.6158 	 13.0354 	 64.2211
| 29> C 	 40.5856 	 13.8824 	 66.3153
| 30> H 	 39.9798 	 14.5781 	 66.9556
| 31> H 	 41.2586 	 13.3974 	 67.0833
| 32> C 	 39.791 	 12.7838 	 65.7018
| 33> H 	 39.1043 	 12.3866 	 66.4507
| 34> H 	 40.4115 	 11.9622 	 65.4898
| 35> C 	 38.837 	 13.2434 	 64.6221
| 36> H 	 38.108 	 13.9515 	 65.0089
| 37> H 	 38.2695 	 12.4565 	 64.1768
| 38> H 	 39.2895 	 13.7895 	 63.8368
| 39> H 	 36.9863 	 18.4911 	 66.7243
| 40> H 	 42.9736 	 14.5861 	 62.4072
| 41> *
| 42>
| 43>                          ****END OF INPUT****

CARTESIAN COORDINATES (ANGSTROEM)
---------------------------------
  S     38.387300   16.960800   65.252800
  C     37.912600   18.023700   66.549200
  C     39.091800   18.436400   67.158500
  C     40.263200   17.731900   66.813200
  C     40.065600   16.904900   65.698400
  H     41.123200   17.819000   67.435300
  C     39.089100   19.304800   68.447500
  H     39.709800   20.172600   68.022400
  H     39.667700   18.774900   69.211100
  C     37.770500   19.816400   69.067500
  H     37.085700   20.248100   68.371800
  H     37.211900   19.004700   69.497900
  C     38.006400   20.700100   70.219800
  H     38.834000   20.317700   70.841200
  H     38.418600   21.594900   69.815600
  H     37.162800   20.836200   70.878300
  S     41.830800   16.593700   63.599000
  C     42.592700   14.965800   63.322700
  C     42.202000   14.070700   64.261200
  C     41.404800   14.711900   65.327000
  C     41.022000   16.052300   65.045600
  H     42.615800   13.035400   64.221100
  C     40.585600   13.882400   66.315300
  H     39.979800   14.578100   66.955600
  H     41.258600   13.397400   67.083300
  C     39.791000   12.783800   65.701800
  H     39.104300   12.386600   66.450700
  H     40.411500   11.962200   65.489800
  C     38.837000   13.243400   64.622100
  H     38.108000   13.951500   65.008900
  H     38.269500   12.456500   64.176800
  H     39.289500   13.789500   63.836800
  H     36.986300   18.491100   66.724300
  H     42.973600   14.586100   62.407200

 Total Charge           Charge          ....    0
 Multiplicity           Mult            ....    1
 Number of Electrons    NEL             ....  134
 Basis Dimension        Dim             ....  322

ORBITAL ENERGIES
----------------

  NO   OCC          E(Eh)            E(eV)
   0   2.0000     -88.969013     -2420.9699
   1   2.0000     -88.964266     -2420.8407
   2   2.0000     -10.333341      -281.1845
   3   2.0000     -10.329859      -281.0897
   4   2.0000     -10.318187      -280.7721
   5   2.0000     -10.313008      -280.6312
   6   2.0000     -10.309800      -280.5439
   7   2.0000     -10.302200      -280.3371
   8   2.0000     -10.301671      -280.3227
   9   2.0000     -10.300433      -280.2890
  10   2.0000     -10.295616      -280.1579
  11   2.0000     -10.289286      -279.9857
  12   2.0000     -10.282561      -279.8027
  13   2.0000     -10.274012      -279.5701
  14   2.0000     -10.273038      -279.5436
  15   2.0000     -10.258965      -279.1606
  16   2.0000      -8.083375      -219.9598
  17   2.0000      -8.078162      -219.8179
  18   2.0000      -6.041891      -164.4082
  19   2.0000      -6.037664      -164.2932
  20   2.0000      -6.036894      -164.2722
  21   2.0000      -6.034369      -164.2035
  22   2.0000      -6.032713      -164.1585
  23   2.0000      -6.028775      -164.0513
  24   2.0000      -1.006934       -27.4001
  25   2.0000      -0.980096       -26.6698
  26   2.0000      -0.916900       -24.9501
  27   2.0000      -0.909502       -24.7488
  28   2.0000      -0.877579       -23.8801
  29   2.0000      -0.856094       -23.2955
  30   2.0000      -0.836697       -22.7677
  31   2.0000      -0.819635       -22.3034
  32   2.0000      -0.779954       -21.2236
  33   2.0000      -0.767377       -20.8814
  34   2.0000      -0.717114       -19.5137
  35   2.0000      -0.703472       -19.1424
  36   2.0000      -0.692043       -18.8314
  37   2.0000      -0.649715       -17.6797
  38   2.0000      -0.643037       -17.4979
  39   2.0000      -0.617113       -16.7925
  40   2.0000      -0.589835       -16.0502
  41   2.0000      -0.579829       -15.7779
  42   2.0000      -0.572720       -15.5845
  43   2.0000      -0.551404       -15.0045
  44   2.0000      -0.545926       -14.8554
  45   2.0000      -0.531522       -14.4634
  46   2.0000      -0.518455       -14.1079
  47   2.0000      -0.514211       -13.9924
  48   2.0000      -0.508500       -13.8370
  49   2.0000      -0.501263       -13.6401
  50   2.0000      -0.488750       -13.2996
  51   2.0000      -0.481294       -13.0967
  52   2.0000      -0.470183       -12.7943
  53   2.0000      -0.457795       -12.4572
  54   2.0000      -0.455505       -12.3949
  55   2.0000      -0.451814       -12.2945
  56   2.0000      -0.442683       -12.0460
  57   2.0000      -0.437022       -11.8920
  58   2.0000      -0.432026       -11.7560
  59   2.0000      -0.423458       -11.5229
  60   2.0000      -0.417261       -11.3542
  61   2.0000      -0.404778       -11.0146
  62   2.0000      -0.400647       -10.9022
  63   2.0000      -0.338849        -9.2206
  64   2.0000      -0.331599        -9.0233
  65   2.0000      -0.318939        -8.6788
  66   2.0000      -0.308885        -8.4052
  67   0.0000       0.039738         1.0813
  68   0.0000       0.046374         1.2619
  69   0.0000       0.111380         3.0308
  70   0.0000       0.120852         3.2886
  71   0.0000       0.126284         3.4364

MULLIKEN ATOMIC CHARGES
-----------------------
   0 S :    0.131430
   1 C :   -0.103260
   2 C :   -0.089331
   3 C :    0.048417
   4 C :   -0.161668
   5 H :    0.010283
   6 C :   -0.024169
   7 H :    0.049401
   8 H :    0.042447
   9 C :   -0.044973
  10 H :    0.023211
  11 H :    0.018552
  12 C :   -0.018485
  13 H :    0.018703
  14 H :    0.016073
  15 H :    0.037486
  16 S :    0.099086
  17 C :   -0.071096
  18 C :   -0.060141
  19 C :   -0.024803
  20 C :   -0.166123
  21 H :    0.051423
  22 C :    0.018448
  23 H :    0.037928
  24 H :    0.027602
  25 C :   -0.033548
  26 H :    0.022771
  27 H :    0.013938
  28 C :   -0.024429
  29 H :    0.018648
  30 H :    0.021106
  31 H :    0.023066
  32 H :    0.039981
  33 H :    0.052025
Sum of atomic charges:    0.0000000

LOEWDIN ATOMIC CHARGES
----------------------
   0 S :    0.437449
   1 C :   -0.203167
   2 C :   -0.067404
   3 C :   -0.052656
   4 C :   -0.203960
   5 H :    0.031042
   6 C :   -0.035491
   7 H :    0.042749
   8 H :    0.032127
   9 C :   -0.048186
  10 H :    0.019088
  11 H :    0.023470
  12 C :   -0.057877
  13 H :    0.027530
  14 H :    0.020530
  15 H :    0.026785
  16 S :    0.381062
  17 C :   -0.164231
  18 C :   -0.069168
  19 C :   -0.051674
  20 C :   -0.208993
  21 H :    0.044965
  22 C :   -0.041121
  23 H :    0.032762
  24 H :    0.033745
  25 C :   -0.043405
  26 H :    0.031976
  27 H :    0.015104
  28 C :   -0.063523
  29 H :    0.020375
  30 H :    0.022364
  31 H :    0.016777
  32 H :    0.023480
  33 H :    0.027478

  Mayer bond orders larger than 0.100000
B(  0-S ,  1-C ) :   1.1430 B(  0-S ,  4-C ) :   1.1764 B(  1-C ,  2-C ) :   1.5871
B(  1-C ,  4-C ) :   0.1075 B(  1-C , 32-H ) :   0.9691 B(  2-C ,  3-C ) :   1.2813
B(  2-C ,  6-C ) :   0.9942 B(  3-C ,  4-C ) :   1.5280 B(  3-C ,  5-H ) :   1.0047
B(  4-C , 20-C ) :   1.0338 B(  6-C ,  7-H ) :   0.9392 B(  6-C ,  8-H ) :   0.9525
B(  6-C ,  9-C ) :   1.0777 B(  9-C , 10-H ) :   0.9491 B(  9-C , 11-H ) :   0.9453
B(  9-C , 12-C ) :   1.0934 B( 12-C , 13-H ) :   0.9690 B( 12-C , 14-H ) :   0.9736
B( 12-C , 15-H ) :   0.9711 B( 16-S , 17-C ) :   1.1233 B( 16-S , 20-C ) :   1.1355
B( 17-C , 18-C ) :   1.6828 B( 17-C , 33-H ) :   0.9611 B( 18-C , 19-C ) :   1.1950
B( 18-C , 21-H ) :   0.9746 B( 19-C , 20-C ) :   1.5991 B( 19-C , 22-C ) :   1.0564
B( 22-C , 23-H ) :   0.9405 B( 22-C , 24-H ) :   0.9282 B( 22-C , 25-C ) :   1.0863
B( 25-C , 26-H ) :   0.9468 B( 25-C , 27-H ) :   0.9486 B( 25-C , 28-C ) :   1.0752
B( 28-C , 29-H ) :   0.9686 B( 28-C , 30-H ) :   0.9708 B( 28-C , 31-H ) :   0.9740

Dispersion correction           -0.015234222
FINAL SINGLE POINT ENERGY     -1339.855951679626

DIPOLE MOMENT
-------------
                                X             Y             Z
Electronic contribution:      9.46418       0.38586     -18.72968
Nuclear contribution   :     -9.63574      -0.56055      19.24206
                        -----------------------------------------
Total Dipole Moment    :     -0.17155      -0.17469       0.51239
                        -----------------------------------------
Magnitude (a.u.)       :      0.56788
Magnitude (Debye)      :      1.44344

Rotational constants in cm-1:     0.026106     0.007122     0.006503
Rotational constants in MHz :   782.639312   213.520144   194.968651

                             ****ORCA TERMINATED NORMALLY****
TOTAL RUN TIME: 0 days 0 hours 0 minutes 30 seconds 391 msec
