                         Program Version 4.2.1 -  RELEASE  -
|  1> ! wB97X-D3 SP def2-SVP
|  2> %pal
|  3> nprocs 16
|  4> end
|  5>
|  6> * xyz 0 1
|  7> S 	 -2.32969 	 -16.0746 	 83.7657
|  8> C 	 -3.75862 	 -16.6377 	 84.5051
|  9> C 	 -4.78016 	 -16.6902 	 83.6486
| 10> C 	 -4.4523 	 -16.0816 	 82.3931
| 11> C 	 -3.12987 	 -15.8211 	 82.2202
| 12> H 	 -5.11808 	 -15.8898 	 81.5658
| 13> C 	 -6.07606 	 -17.3713 	 83.839
| 14> H 	 -6.72084 	 -17.0637 	 83.0244
| 15> H 	 -6.56509 	 -16.973 	 84.7331
| 16> C 	 -6.00956 	 -18.8582 	 83.9012
| 17> H 	 -5.46891 	 -19.2199 	 84.847
| 18> H 	 -7.02129 	 -19.1798 	 84.1059
| 19> C 	 -5.42985 	 -19.3454 	 82.5695
| 20> H 	 -6.0267 	 -18.8945 	 81.7725
| 21> H 	 -4.43319 	 -18.9497 	 82.6304
| 22> H 	 -5.31667 	 -20.4235 	 82.4117
| 23> S 	 -1.27852 	 -13.9985 	 81.2931
| 24> C 	 -1.11779 	 -13.6574 	 79.5794
| 25> C 	 -2.06256 	 -14.4366 	 78.8608
| 26> C 	 -2.86272 	 -15.2884 	 79.6925
| 27> C 	 -2.5031 	 -15.22 	 81.0307
| 28> H 	 -2.07289 	 -14.5322 	 77.7412
| 29> C 	 -3.84616 	 -16.236 	 79.021
| 30> H 	 -4.12636 	 -15.855 	 78.1182
| 31> H 	 -4.78835 	 -16.3586 	 79.5229
| 32> C 	 -3.21914 	 -17.5792 	 78.7081
| 33> H 	 -2.86489 	 -18.0121 	 79.6194
| 34> H 	 -2.44676 	 -17.4299 	 77.9476
| 35> C 	 -4.23419 	 -18.6523 	 78.2275
| 36> H 	 -3.89089 	 -19.663 	 78.1336
| 37> H 	 -4.61292 	 -18.3718 	 77.2432
| 38> H 	 -5.07071 	 -18.7251 	 78.9254
| 39> H 	 -3.86965 	 -17.1778 	 85.388
| 40> H 	 -0.334465 	 -13.0725 	 79.0485
| 41> *
| 42>
| 43>                          ****END OF INPUT****

CARTESIAN COORDINATES (ANGSTROEM)
---------------------------------
  S     -2.329690  -16.074600   83.765700
  C     -3.758620  -16.637700   84.505100
  C     -4.780160  -16.690200   83.648600
  C     -4.452300  -16.081600   82.393100
  C     -3.129870  -15.821100   82.220200
  H     -5.118080  -15.889800   81.565800
  C     -6.076060  -17.371300   83.839000
  H     -6.720840  -17.063700   83.024400
  H     -6.565090  -16.973000   84.733100
  C     -6.009560  -18.858200   83.901200
  H     -5.468910  -19.219900   84.847000
  H     -7.021290  -19.179800   84.105900
  C     -5.429850  -19.345400   82.569500
  H     -6.026700  -18.894500   81.772500
  H     -4.433190  -18.949700   82.630400
  H     -5.316670  -20.423500   82.411700
  S     -1.278520  -13.998500   81.293100
  C     -1.117790  -13.657400   79.579400
  C     -2.062560  -14.436600   78.860800
  C     -2.862720  -15.288400   79.692500
  C     -2.503100  -15.220000   81.030700
  H     -2.072890  -14.532200   77.741200
  C     -3.846160  -16.236000   79.021000
  H     -4.126360  -15.855000   78.118200
  H     -4.788350  -16.358600   79.522900
  C     -3.219140  -17.579200   78.708100
  H     -2.864890  -18.012100   79.619400
  H     -2.446760  -17.429900   77.947600
  C     -4.234190  -18.652300   78.227500
  H     -3.890890  -19.663000   78.133600
  H     -4.612920  -18.371800   77.243200
  H     -5.070710  -18.725100   78.925400
  H     -3.869650  -17.177800   85.388000
  H     -0.334465  -13.072500   79.048500

 Total Charge           Charge          ....    0
 Multiplicity           Mult            ....    1
 Number of Electrons    NEL             ....  134
 Basis Dimension        Dim             ....  322

ORBITAL ENERGIES
----------------

  NO   OCC          E(Eh)            E(eV)
   0   2.0000     -88.969692     -2420.9884
   1   2.0000     -88.965351     -2420.8703
   2   2.0000     -10.331602      -281.1372
   3   2.0000     -10.329327      -281.0753
   4   2.0000     -10.326106      -280.9876
   5   2.0000     -10.305478      -280.4263
   6   2.0000     -10.302953      -280.3576
   7   2.0000     -10.301393      -280.3152
   8   2.0000     -10.290470      -280.0179
   9   2.0000     -10.289973      -280.0044
  10   2.0000     -10.288615      -279.9674
  11   2.0000     -10.285342      -279.8784
  12   2.0000     -10.283676      -279.8330
  13   2.0000     -10.282965      -279.8137
  14   2.0000     -10.276958      -279.6503
  15   2.0000     -10.276200      -279.6296
  16   2.0000      -8.084049      -219.9782
  17   2.0000      -8.080768      -219.8889
  18   2.0000      -6.042629      -164.4283
  19   2.0000      -6.039447      -164.3417
  20   2.0000      -6.038493      -164.3157
  21   2.0000      -6.035157      -164.2250
  22   2.0000      -6.034852      -164.2167
  23   2.0000      -6.031327      -164.1207
  24   2.0000      -1.013950       -27.5910
  25   2.0000      -0.989244       -26.9187
  26   2.0000      -0.926184       -25.2027
  27   2.0000      -0.914810       -24.8932
  28   2.0000      -0.872199       -23.7337
  29   2.0000      -0.852391       -23.1947
  30   2.0000      -0.844467       -22.9791
  31   2.0000      -0.815056       -22.1788
  32   2.0000      -0.785203       -21.3664
  33   2.0000      -0.778901       -21.1950
  34   2.0000      -0.710671       -19.3383
  35   2.0000      -0.704149       -19.1609
  36   2.0000      -0.693985       -18.8843
  37   2.0000      -0.667463       -18.1626
  38   2.0000      -0.640639       -17.4327
  39   2.0000      -0.614805       -16.7297
  40   2.0000      -0.596712       -16.2373
  41   2.0000      -0.582038       -15.8381
  42   2.0000      -0.574339       -15.6286
  43   2.0000      -0.564039       -15.3483
  44   2.0000      -0.543343       -14.7851
  45   2.0000      -0.520810       -14.1720
  46   2.0000      -0.513729       -13.9793
  47   2.0000      -0.509815       -13.8728
  48   2.0000      -0.506489       -13.7823
  49   2.0000      -0.503085       -13.6896
  50   2.0000      -0.494944       -13.4681
  51   2.0000      -0.486484       -13.2379
  52   2.0000      -0.475774       -12.9465
  53   2.0000      -0.464046       -12.6273
  54   2.0000      -0.462751       -12.5921
  55   2.0000      -0.444258       -12.0889
  56   2.0000      -0.442978       -12.0540
  57   2.0000      -0.439694       -11.9647
  58   2.0000      -0.433015       -11.7829
  59   2.0000      -0.428192       -11.6517
  60   2.0000      -0.425332       -11.5739
  61   2.0000      -0.416012       -11.3203
  62   2.0000      -0.412379       -11.2214
  63   2.0000      -0.359038        -9.7699
  64   2.0000      -0.333331        -9.0704
  65   2.0000      -0.327237        -8.9046
  66   2.0000      -0.291165        -7.9230
  67   0.0000       0.023817         0.6481
  68   0.0000       0.080344         2.1863
  69   0.0000       0.107266         2.9189
  70   0.0000       0.117002         3.1838
  71   0.0000       0.126911         3.4534

MULLIKEN ATOMIC CHARGES
-----------------------
   0 S :    0.104495
   1 C :   -0.058490
   2 C :   -0.131968
   3 C :    0.003802
   4 C :   -0.123210
   5 H :    0.003272
   6 C :    0.066166
   7 H :    0.013245
   8 H :    0.030162
   9 C :   -0.068146
  10 H :    0.032987
  11 H :    0.020002
  12 C :   -0.042600
  13 H :    0.032363
  14 H :    0.048149
  15 H :    0.039215
  16 S :    0.111556
  17 C :   -0.105960
  18 C :   -0.058287
  19 C :   -0.059754
  20 C :   -0.128583
  21 H :    0.040283
  22 C :    0.124314
  23 H :   -0.018900
  24 H :    0.001002
  25 C :   -0.059378
  26 H :    0.029639
  27 H :    0.029715
  28 C :   -0.043554
  29 H :    0.032031
  30 H :    0.019068
  31 H :    0.023276
  32 H :    0.017041
  33 H :    0.077044
Sum of atomic charges:   -0.0000000

LOEWDIN ATOMIC CHARGES
----------------------
   0 S :    0.411167
   1 C :   -0.198107
   2 C :   -0.070062
   3 C :   -0.061547
   4 C :   -0.188283
   5 H :    0.026582
   6 C :   -0.035783
   7 H :    0.028303
   8 H :    0.033798
   9 C :   -0.041504
  10 H :    0.027907
  11 H :    0.018801
  12 C :   -0.062270
  13 H :    0.025582
  14 H :    0.030608
  15 H :    0.025999
  16 S :    0.413564
  17 C :   -0.199947
  18 C :   -0.074103
  19 C :   -0.056218
  20 C :   -0.193594
  21 H :    0.038516
  22 C :   -0.023053
  23 H :    0.016408
  24 H :    0.022986
  25 C :   -0.028423
  26 H :    0.022845
  27 H :    0.024822
  28 C :   -0.064778
  29 H :    0.024020
  30 H :    0.019886
  31 H :    0.022803
  32 H :    0.020742
  33 H :    0.042330

  Mayer bond orders larger than 0.100000
B(  0-S ,  1-C ) :   1.1284 B(  0-S ,  4-C ) :   1.1387 B(  1-C ,  2-C ) :   1.6494
B(  1-C , 32-H ) :   0.9636 B(  2-C ,  3-C ) :   1.2199 B(  2-C ,  6-C ) :   1.0232
B(  3-C ,  4-C ) :   1.6006 B(  3-C ,  5-H ) :   0.9918 B(  4-C , 20-C ) :   1.0408
B(  6-C ,  7-H ) :   0.9384 B(  6-C ,  8-H ) :   0.9276 B(  6-C ,  9-C ) :   1.0844
B(  9-C , 10-H ) :   0.9536 B(  9-C , 11-H ) :   0.9523 B(  9-C , 12-C ) :   1.0533
B( 12-C , 13-H ) :   0.9720 B( 12-C , 14-H ) :   0.9730 B( 12-C , 15-H ) :   0.9742
B( 16-S , 17-C ) :   1.1586 B( 16-S , 20-C ) :   1.1444 B( 17-C , 18-C ) :   1.5854
B( 17-C , 20-C ) :   0.1055 B( 17-C , 33-H ) :   0.9630 B( 18-C , 19-C ) :   1.2762
B( 18-C , 21-H ) :   0.9730 B( 19-C , 20-C ) :   1.5845 B( 19-C , 22-C ) :   1.0523
B( 22-C , 23-H ) :   0.9137 B( 22-C , 24-H ) :   0.9323 B( 22-C , 25-C ) :   1.0675
B( 25-C , 26-H ) :   0.9590 B( 25-C , 27-H ) :   0.9557 B( 25-C , 28-C ) :   1.0813
B( 28-C , 29-H ) :   0.9755 B( 28-C , 30-H ) :   0.9744 B( 28-C , 31-H ) :   0.9739

Dispersion correction           -0.015527076
FINAL SINGLE POINT ENERGY     -1339.873708570748

DIPOLE MOMENT
-------------
                                X             Y             Z
Electronic contribution:     18.73415      21.60084      10.74593
Nuclear contribution   :    -19.23720     -22.04147     -11.12953
                        -----------------------------------------
Total Dipole Moment    :     -0.50306      -0.44063      -0.38359
                        -----------------------------------------
Magnitude (a.u.)       :      0.77095
Magnitude (Debye)      :      1.95960

Rotational constants in cm-1:     0.018193     0.010587     0.007252
Rotational constants in MHz :   545.417684   317.379040   217.413763

                             ****ORCA TERMINATED NORMALLY****
TOTAL RUN TIME: 0 days 0 hours 0 minutes 37 seconds 681 msec
