                         Program Version 4.2.1 -  RELEASE  -
|  1> ! wB97X-D3 SP def2-SVP
|  2> %pal
|  3> nprocs 16
|  4> end
|  5>
|  6> * xyz 0 1
|  7> S 	 -2.55474 	 75.2021 	 50.3028
|  8> C 	 -1.35076 	 76.3933 	 49.8369
|  9> C 	 -1.06159 	 77.2333 	 50.908
| 10> C 	 -1.79164 	 76.8998 	 52.0873
| 11> C 	 -2.61577 	 75.831 	 51.9116
| 12> H 	 -1.8879 	 77.3954 	 53.0525
| 13> C 	 -0.131935 	 78.4418 	 50.9126
| 14> H 	 -0.687131 	 79.3555 	 51.3331
| 15> H 	 0.026281 	 78.863 	 49.9
| 16> C 	 1.27077 	 78.3159 	 51.4365
| 17> H 	 1.7116 	 79.3283 	 51.3688
| 18> H 	 1.32647 	 78.008 	 52.5044
| 19> C 	 2.18803 	 77.2595 	 50.8564
| 20> H 	 3.19139 	 77.2121 	 51.3576
| 21> H 	 1.65171 	 76.3065 	 50.8613
| 22> H 	 2.42136 	 77.3834 	 49.8185
| 23> S 	 -5.37191 	 75.4007 	 52.1637
| 24> C 	 -6.00415 	 74.9126 	 53.6628
| 25> C 	 -5.03954 	 74.8701 	 54.655
| 26> C 	 -3.70987 	 75.1503 	 54.1882
| 27> C 	 -3.71845 	 75.4721 	 52.8283
| 28> H 	 -5.29276 	 74.6354 	 55.578
| 29> C 	 -2.59225 	 75.2318 	 55.1948
| 30> H 	 -3.13465 	 75.08 	 56.209
| 31> H 	 -2.28777 	 76.2842 	 55.2419
| 32> C 	 -1.38189 	 74.3468 	 55.1811
| 33> H 	 -0.714886 	 74.4587 	 56.069
| 34> H 	 -0.892048 	 74.4978 	 54.2623
| 35> C 	 -1.77608 	 72.8594 	 55.3448
| 36> H 	 -0.842591 	 72.2068 	 55.1145
| 37> H 	 -2.58491 	 72.5694 	 54.6275
| 38> H 	 -2.00691 	 72.6718 	 56.4366
| 39> H 	 -0.844893 	 76.5065 	 48.8505
| 40> H 	 -7.02026 	 74.5552 	 53.7594
| 41> *
| 42>
| 43>                          ****END OF INPUT****

CARTESIAN COORDINATES (ANGSTROEM)
---------------------------------
  S     -2.554740   75.202100   50.302800
  C     -1.350760   76.393300   49.836900
  C     -1.061590   77.233300   50.908000
  C     -1.791640   76.899800   52.087300
  C     -2.615770   75.831000   51.911600
  H     -1.887900   77.395400   53.052500
  C     -0.131935   78.441800   50.912600
  H     -0.687131   79.355500   51.333100
  H      0.026281   78.863000   49.900000
  C      1.270770   78.315900   51.436500
  H      1.711600   79.328300   51.368800
  H      1.326470   78.008000   52.504400
  C      2.188030   77.259500   50.856400
  H      3.191390   77.212100   51.357600
  H      1.651710   76.306500   50.861300
  H      2.421360   77.383400   49.818500
  S     -5.371910   75.400700   52.163700
  C     -6.004150   74.912600   53.662800
  C     -5.039540   74.870100   54.655000
  C     -3.709870   75.150300   54.188200
  C     -3.718450   75.472100   52.828300
  H     -5.292760   74.635400   55.578000
  C     -2.592250   75.231800   55.194800
  H     -3.134650   75.080000   56.209000
  H     -2.287770   76.284200   55.241900
  C     -1.381890   74.346800   55.181100
  H     -0.714886   74.458700   56.069000
  H     -0.892048   74.497800   54.262300
  C     -1.776080   72.859400   55.344800
  H     -0.842591   72.206800   55.114500
  H     -2.584910   72.569400   54.627500
  H     -2.006910   72.671800   56.436600
  H     -0.844893   76.506500   48.850500
  H     -7.020260   74.555200   53.759400

 Total Charge           Charge          ....    0
 Multiplicity           Mult            ....    1
 Number of Electrons    NEL             ....  134
 Basis Dimension        Dim             ....  322

ORBITAL ENERGIES
----------------

  NO   OCC          E(Eh)            E(eV)
   0   2.0000     -88.970193     -2421.0020
   1   2.0000     -88.966732     -2420.9079
   2   2.0000     -10.330430      -281.1053
   3   2.0000     -10.326765      -281.0056
   4   2.0000     -10.322013      -280.8763
   5   2.0000     -10.313501      -280.6446
   6   2.0000     -10.306930      -280.4658
   7   2.0000     -10.306470      -280.4533
   8   2.0000     -10.299390      -280.2607
   9   2.0000     -10.297212      -280.2014
  10   2.0000     -10.293004      -280.0869
  11   2.0000     -10.287439      -279.9354
  12   2.0000     -10.286102      -279.8991
  13   2.0000     -10.283795      -279.8363
  14   2.0000     -10.282563      -279.8028
  15   2.0000     -10.275181      -279.6019
  16   2.0000      -8.085060      -220.0057
  17   2.0000      -8.081892      -219.9195
  18   2.0000      -6.043608      -164.4549
  19   2.0000      -6.040344      -164.3661
  20   2.0000      -6.039497      -164.3431
  21   2.0000      -6.036217      -164.2538
  22   2.0000      -6.035804      -164.2426
  23   2.0000      -6.032820      -164.1614
  24   2.0000      -1.009800       -27.4781
  25   2.0000      -0.987347       -26.8671
  26   2.0000      -0.912983       -24.8435
  27   2.0000      -0.912364       -24.8267
  28   2.0000      -0.868197       -23.6248
  29   2.0000      -0.854398       -23.2494
  30   2.0000      -0.848179       -23.0801
  31   2.0000      -0.813057       -22.1244
  32   2.0000      -0.784827       -21.3562
  33   2.0000      -0.772837       -21.0300
  34   2.0000      -0.705462       -19.1966
  35   2.0000      -0.694252       -18.8916
  36   2.0000      -0.682671       -18.5764
  37   2.0000      -0.668748       -18.1975
  38   2.0000      -0.643003       -17.4970
  39   2.0000      -0.619353       -16.8535
  40   2.0000      -0.593332       -16.1454
  41   2.0000      -0.573332       -15.6011
  42   2.0000      -0.561579       -15.2813
  43   2.0000      -0.552086       -15.0230
  44   2.0000      -0.546413       -14.8686
  45   2.0000      -0.535766       -14.5789
  46   2.0000      -0.515603       -14.0303
  47   2.0000      -0.513073       -13.9614
  48   2.0000      -0.500380       -13.6160
  49   2.0000      -0.491334       -13.3699
  50   2.0000      -0.484308       -13.1787
  51   2.0000      -0.477634       -12.9971
  52   2.0000      -0.474700       -12.9172
  53   2.0000      -0.467016       -12.7081
  54   2.0000      -0.458496       -12.4763
  55   2.0000      -0.447962       -12.1897
  56   2.0000      -0.444997       -12.1090
  57   2.0000      -0.443774       -12.0757
  58   2.0000      -0.430964       -11.7271
  59   2.0000      -0.417278       -11.3547
  60   2.0000      -0.414809       -11.2875
  61   2.0000      -0.412623       -11.2281
  62   2.0000      -0.400996       -10.9117
  63   2.0000      -0.349024        -9.4974
  64   2.0000      -0.335678        -9.1343
  65   2.0000      -0.331026        -9.0077
  66   2.0000      -0.294416        -8.0115
  67   0.0000       0.028845         0.7849
  68   0.0000       0.070069         1.9067
  69   0.0000       0.111597         3.0367
  70   0.0000       0.118384         3.2214
  71   0.0000       0.122773         3.3408

MULLIKEN ATOMIC CHARGES
-----------------------
   0 S :    0.113916
   1 C :   -0.126449
   2 C :   -0.077429
   3 C :    0.029390
   4 C :   -0.144943
   5 H :    0.018911
   6 C :    0.032304
   7 H :    0.045619
   8 H :    0.014273
   9 C :   -0.067367
  10 H :    0.033303
  11 H :    0.027946
  12 C :   -0.062025
  13 H :    0.046595
  14 H :    0.039070
  15 H :    0.008701
  16 S :    0.115700
  17 C :   -0.093586
  18 C :    0.023759
  19 C :   -0.026367
  20 C :   -0.173543
  21 H :   -0.046282
  22 C :    0.022445
  23 H :    0.018268
  24 H :    0.040118
  25 C :   -0.019604
  26 H :    0.039144
  27 H :    0.030326
  28 C :   -0.130915
  29 H :    0.045047
  30 H :    0.057862
  31 H :    0.039174
  32 H :    0.064865
  33 H :    0.061775
Sum of atomic charges:   -0.0000000

LOEWDIN ATOMIC CHARGES
----------------------
   0 S :    0.414494
   1 C :   -0.202426
   2 C :   -0.065986
   3 C :   -0.062038
   4 C :   -0.202230
   5 H :    0.037116
   6 C :   -0.046317
   7 H :    0.044996
   8 H :    0.030753
   9 C :   -0.050879
  10 H :    0.028063
  11 H :    0.026032
  12 C :   -0.071726
  13 H :    0.035418
  14 H :    0.028811
  15 H :    0.013346
  16 S :    0.416385
  17 C :   -0.196369
  18 C :   -0.054897
  19 C :   -0.055845
  20 C :   -0.191333
  21 H :    0.003188
  22 C :   -0.040384
  23 H :    0.037469
  24 H :    0.032359
  25 C :   -0.043656
  26 H :    0.035547
  27 H :    0.018290
  28 C :   -0.078815
  29 H :    0.033444
  30 H :    0.028736
  31 H :    0.027231
  32 H :    0.040880
  33 H :    0.030344

  Mayer bond orders larger than 0.100000
B(  0-S ,  1-C ) :   1.1321 B(  0-S ,  4-C ) :   1.1553 B(  1-C ,  2-C ) :   1.6118
B(  1-C , 32-H ) :   0.9637 B(  2-C ,  3-C ) :   1.2272 B(  2-C ,  6-C ) :   1.0219
B(  3-C ,  4-C ) :   1.5818 B(  3-C ,  5-H ) :   0.9918 B(  4-C , 20-C ) :   1.0283
B(  6-C ,  7-H ) :   0.9410 B(  6-C ,  8-H ) :   0.9382 B(  6-C ,  9-C ) :   1.0764
B(  9-C , 10-H ) :   0.9515 B(  9-C , 11-H ) :   0.9558 B(  9-C , 12-C ) :   1.0746
B( 12-C , 13-H ) :   0.9740 B( 12-C , 14-H ) :   0.9708 B( 12-C , 15-H ) :   0.9724
B( 16-S , 17-C ) :   1.1727 B( 16-S , 20-C ) :   1.1463 B( 17-C , 18-C ) :   1.5852
B( 17-C , 33-H ) :   0.9661 B( 18-C , 19-C ) :   1.2545 B( 18-C , 21-H ) :   1.0115
B( 19-C , 20-C ) :   1.5814 B( 19-C , 22-C ) :   1.0220 B( 22-C , 23-H ) :   0.9353
B( 22-C , 24-H ) :   0.9319 B( 22-C , 25-C ) :   1.0782 B( 25-C , 26-H ) :   0.9545
B( 25-C , 27-H ) :   0.9533 B( 25-C , 28-C ) :   1.0665 B( 28-C , 29-H ) :   0.9749
B( 28-C , 30-H ) :   0.9755 B( 28-C , 31-H ) :   0.9768

Dispersion correction           -0.014573408
FINAL SINGLE POINT ENERGY     -1339.869362013538

DIPOLE MOMENT
-------------
                                X             Y             Z
Electronic contribution:    -23.83917      -2.80577     -11.86274
Nuclear contribution   :     24.12682       3.08867      12.17471
                        -----------------------------------------
Total Dipole Moment    :      0.28765       0.28289       0.31197
                        -----------------------------------------
Magnitude (a.u.)       :      0.51000
Magnitude (Debye)      :      1.29631

Rotational constants in cm-1:     0.019678     0.008790     0.007025
Rotational constants in MHz :   589.921721   263.505707   210.603201

                             ****ORCA TERMINATED NORMALLY****
TOTAL RUN TIME: 0 days 0 hours 0 minutes 32 seconds 346 msec
