                         Program Version 4.2.1 -  RELEASE  -
|  1> ! wB97X-D3 SP def2-SVP
|  2> %pal
|  3> nprocs 16
|  4> end
|  5>
|  6> * xyz 0 1
|  7> S 	 44.3103 	 25.8233 	 91.559
|  8> C 	 45.5872 	 24.7671 	 92.271
|  9> C 	 45.112 	 24.1195 	 93.3993
| 10> C 	 43.6578 	 24.0955 	 93.4118
| 11> C 	 43.0933 	 24.8635 	 92.4089
| 12> H 	 43.0029 	 23.6254 	 94.1163
| 13> C 	 45.7935 	 23.3241 	 94.407
| 14> H 	 45.5314 	 23.9321 	 95.2783
| 15> H 	 46.865 	 23.3693 	 94.1159
| 16> C 	 45.3866 	 21.8548 	 94.4642
| 17> H 	 44.3147 	 21.9546 	 94.7259
| 18> H 	 45.4825 	 21.3085 	 93.5452
| 19> C 	 46.0551 	 21.0946 	 95.6342
| 20> H 	 47.1091 	 20.9922 	 95.4525
| 21> H 	 45.9394 	 21.722 	 96.5326
| 22> H 	 45.5293 	 20.139 	 95.7539
| 23> S 	 41.0905 	 26.7844 	 92.4879
| 24> C 	 39.4956 	 26.2931 	 92.337
| 25> C 	 39.4454 	 24.9518 	 92.0453
| 26> C 	 40.6636 	 24.2272 	 92.0597
| 27> C 	 41.6906 	 25.1055 	 92.2738
| 28> H 	 38.5148 	 24.5395 	 91.8649
| 29> C 	 40.737 	 22.7515 	 91.8984
| 30> H 	 41.7657 	 22.367 	 92.1792
| 31> H 	 40.7381 	 22.4187 	 90.8342
| 32> C 	 39.7255 	 21.9108 	 92.685
| 33> H 	 38.7357 	 22.0714 	 92.327
| 34> H 	 39.7566 	 22.1192 	 93.7936
| 35> C 	 40.0896 	 20.4214 	 92.4139
| 36> H 	 40.2423 	 20.2185 	 91.3229
| 37> H 	 39.2073 	 19.7845 	 92.7241
| 38> H 	 40.8953 	 20.1145 	 93.0842
| 39> H 	 46.5589 	 24.6094 	 91.834
| 40> H 	 38.6678 	 26.9885 	 92.1449
| 41> *
| 42>
| 43>                          ****END OF INPUT****

CARTESIAN COORDINATES (ANGSTROEM)
---------------------------------
  S     44.310300   25.823300   91.559000
  C     45.587200   24.767100   92.271000
  C     45.112000   24.119500   93.399300
  C     43.657800   24.095500   93.411800
  C     43.093300   24.863500   92.408900
  H     43.002900   23.625400   94.116300
  C     45.793500   23.324100   94.407000
  H     45.531400   23.932100   95.278300
  H     46.865000   23.369300   94.115900
  C     45.386600   21.854800   94.464200
  H     44.314700   21.954600   94.725900
  H     45.482500   21.308500   93.545200
  C     46.055100   21.094600   95.634200
  H     47.109100   20.992200   95.452500
  H     45.939400   21.722000   96.532600
  H     45.529300   20.139000   95.753900
  S     41.090500   26.784400   92.487900
  C     39.495600   26.293100   92.337000
  C     39.445400   24.951800   92.045300
  C     40.663600   24.227200   92.059700
  C     41.690600   25.105500   92.273800
  H     38.514800   24.539500   91.864900
  C     40.737000   22.751500   91.898400
  H     41.765700   22.367000   92.179200
  H     40.738100   22.418700   90.834200
  C     39.725500   21.910800   92.685000
  H     38.735700   22.071400   92.327000
  H     39.756600   22.119200   93.793600
  C     40.089600   20.421400   92.413900
  H     40.242300   20.218500   91.322900
  H     39.207300   19.784500   92.724100
  H     40.895300   20.114500   93.084200
  H     46.558900   24.609400   91.834000
  H     38.667800   26.988500   92.144900

 Total Charge           Charge          ....    0
 Multiplicity           Mult            ....    1
 Number of Electrons    NEL             ....  134
 Basis Dimension        Dim             ....  322

ORBITAL ENERGIES
----------------

  NO   OCC          E(Eh)            E(eV)
   0   2.0000     -88.962381     -2420.7895
   1   2.0000     -88.960391     -2420.7353
   2   2.0000     -10.325570      -280.9730
   3   2.0000     -10.321797      -280.8704
   4   2.0000     -10.316044      -280.7138
   5   2.0000     -10.308406      -280.5060
   6   2.0000     -10.301394      -280.3152
   7   2.0000     -10.297584      -280.2115
   8   2.0000     -10.295181      -280.1461
   9   2.0000     -10.292166      -280.0641
  10   2.0000     -10.291974      -280.0588
  11   2.0000     -10.290945      -280.0309
  12   2.0000     -10.289472      -279.9908
  13   2.0000     -10.287369      -279.9335
  14   2.0000     -10.281491      -279.7736
  15   2.0000     -10.281362      -279.7701
  16   2.0000      -8.076302      -219.7674
  17   2.0000      -8.076181      -219.7641
  18   2.0000      -6.035084      -164.2230
  19   2.0000      -6.034634      -164.2107
  20   2.0000      -6.031229      -164.1181
  21   2.0000      -6.030551      -164.0996
  22   2.0000      -6.026933      -164.0012
  23   2.0000      -6.026534      -163.9903
  24   2.0000      -1.008022       -27.4297
  25   2.0000      -0.983065       -26.7506
  26   2.0000      -0.920656       -25.0523
  27   2.0000      -0.912422       -24.8283
  28   2.0000      -0.872050       -23.7297
  29   2.0000      -0.854370       -23.2486
  30   2.0000      -0.844103       -22.9692
  31   2.0000      -0.809686       -22.0327
  32   2.0000      -0.780523       -21.2391
  33   2.0000      -0.770387       -20.9633
  34   2.0000      -0.709442       -19.3049
  35   2.0000      -0.700051       -19.0493
  36   2.0000      -0.698268       -19.0008
  37   2.0000      -0.655337       -17.8326
  38   2.0000      -0.638289       -17.3687
  39   2.0000      -0.621191       -16.9035
  40   2.0000      -0.603647       -16.4261
  41   2.0000      -0.575936       -15.6720
  42   2.0000      -0.569658       -15.5012
  43   2.0000      -0.557424       -15.1683
  44   2.0000      -0.535774       -14.5792
  45   2.0000      -0.521579       -14.1929
  46   2.0000      -0.519271       -14.1301
  47   2.0000      -0.516706       -14.0603
  48   2.0000      -0.511005       -13.9052
  49   2.0000      -0.498646       -13.5689
  50   2.0000      -0.487146       -13.2559
  51   2.0000      -0.479418       -13.0456
  52   2.0000      -0.465180       -12.6582
  53   2.0000      -0.462462       -12.5842
  54   2.0000      -0.458922       -12.4879
  55   2.0000      -0.447730       -12.1834
  56   2.0000      -0.444304       -12.0901
  57   2.0000      -0.441611       -12.0168
  58   2.0000      -0.437453       -11.9037
  59   2.0000      -0.423539       -11.5251
  60   2.0000      -0.420426       -11.4404
  61   2.0000      -0.415054       -11.2942
  62   2.0000      -0.412419       -11.2225
  63   2.0000      -0.343250        -9.3403
  64   2.0000      -0.329154        -8.9567
  65   2.0000      -0.324170        -8.8211
  66   2.0000      -0.287236        -7.8161
  67   0.0000       0.031095         0.8461
  68   0.0000       0.062173         1.6918
  69   0.0000       0.104513         2.8439
  70   0.0000       0.122578         3.3355
  71   0.0000       0.126507         3.4424

MULLIKEN ATOMIC CHARGES
-----------------------
   0 S :    0.092975
   1 C :   -0.132884
   2 C :   -0.062731
   3 C :    0.007901
   4 C :   -0.149758
   5 H :    0.017816
   6 C :    0.058715
   7 H :    0.051536
   8 H :    0.019816
   9 C :   -0.102235
  10 H :    0.024571
  11 H :    0.038873
  12 C :   -0.023198
  13 H :    0.032008
  14 H :    0.026014
  15 H :    0.043899
  16 S :    0.105019
  17 C :   -0.088844
  18 C :   -0.033904
  19 C :    0.034534
  20 C :   -0.177281
  21 H :   -0.019131
  22 C :    0.023411
  23 H :    0.020496
  24 H :    0.038758
  25 C :   -0.082284
  26 H :    0.029090
  27 H :    0.045053
  28 C :   -0.079854
  29 H :    0.044933
  30 H :    0.035351
  31 H :    0.043324
  32 H :    0.048373
  33 H :    0.069639
Sum of atomic charges:    0.0000000

LOEWDIN ATOMIC CHARGES
----------------------
   0 S :    0.363535
   1 C :   -0.182717
   2 C :   -0.055717
   3 C :   -0.056962
   4 C :   -0.180845
   5 H :    0.027552
   6 C :   -0.040704
   7 H :    0.046233
   8 H :    0.031083
   9 C :   -0.038438
  10 H :    0.023865
  11 H :    0.024556
  12 C :   -0.060616
  13 H :    0.021149
  14 H :    0.027138
  15 H :    0.030015
  16 S :    0.410640
  17 C :   -0.214321
  18 C :   -0.065734
  19 C :   -0.059649
  20 C :   -0.182436
  21 H :    0.013975
  22 C :   -0.043357
  23 H :    0.034718
  24 H :    0.038179
  25 C :   -0.038733
  26 H :    0.016069
  27 H :    0.032354
  28 C :   -0.071105
  29 H :    0.030391
  30 H :    0.029899
  31 H :    0.025956
  32 H :    0.026659
  33 H :    0.037366

  Mayer bond orders larger than 0.100000
B(  0-S ,  1-C ) :   1.1051 B(  0-S ,  4-C ) :   1.1218 B(  1-C ,  2-C ) :   1.6338
B(  1-C , 32-H ) :   0.9729 B(  2-C ,  3-C ) :   1.1724 B(  2-C ,  6-C ) :   1.0321
B(  3-C ,  4-C ) :   1.6093 B(  3-C ,  5-H ) :   0.9901 B(  4-C , 20-C ) :   1.0566
B(  6-C ,  7-H ) :   0.9244 B(  6-C ,  8-H ) :   0.9374 B(  6-C ,  9-C ) :   1.0707
B(  9-C , 10-H ) :   0.9489 B(  9-C , 11-H ) :   0.9595 B(  9-C , 12-C ) :   1.0824
B( 12-C , 13-H ) :   0.9763 B( 12-C , 14-H ) :   0.9740 B( 12-C , 15-H ) :   0.9742
B( 16-S , 17-C ) :   1.1618 B( 16-S , 20-C ) :   1.1391 B( 17-C , 18-C ) :   1.6081
B( 17-C , 33-H ) :   0.9596 B( 18-C , 19-C ) :   1.2308 B( 18-C , 21-H ) :   1.0007
B( 19-C , 20-C ) :   1.5998 B( 19-C , 22-C ) :   1.0473 B( 22-C , 23-H ) :   0.9336
B( 22-C , 24-H ) :   0.9240 B( 22-C , 25-C ) :   1.0610 B( 25-C , 26-H ) :   0.9514
B( 25-C , 27-H ) :   0.9575 B( 25-C , 28-C ) :   1.0812 B( 28-C , 29-H ) :   0.9711
B( 28-C , 30-H ) :   0.9747 B( 28-C , 31-H ) :   0.9768

Dispersion correction           -0.013804516
FINAL SINGLE POINT ENERGY     -1339.861263496283

DIPOLE MOMENT
-------------
                                X             Y             Z
Electronic contribution:     -1.31473      30.16147     -10.88470
Nuclear contribution   :      1.24466     -30.91489      11.14021
                        -----------------------------------------
Total Dipole Moment    :     -0.07007      -0.75342       0.25551
                        -----------------------------------------
Magnitude (a.u.)       :      0.79865
Magnitude (Debye)      :      2.03000

Rotational constants in cm-1:     0.015766     0.009694     0.006658
Rotational constants in MHz :   472.647229   290.604816   199.611862

                             ****ORCA TERMINATED NORMALLY****
TOTAL RUN TIME: 0 days 0 hours 0 minutes 28 seconds 700 msec
