                         Program Version 4.2.1 -  RELEASE  -
|  1> ! wB97X-D3 SP def2-SVP
|  2> %pal
|  3> nprocs 16
|  4> end
|  5>
|  6> * xyz 0 1
|  7> S 	 -41.3171 	 57.5126 	 112.062
|  8> C 	 -43.0217 	 57.4562 	 112.445
|  9> C 	 -43.75 	 56.8287 	 111.432
| 10> C 	 -42.9525 	 56.2905 	 110.382
| 11> C 	 -41.6111 	 56.5139 	 110.61
| 12> H 	 -43.3604 	 55.8593 	 109.447
| 13> C 	 -45.2069 	 57.0722 	 111.375
| 14> H 	 -45.4714 	 57.7827 	 112.165
| 15> H 	 -45.5998 	 56.0539 	 111.602
| 16> C 	 -45.8069 	 57.6688 	 110.051
| 17> H 	 -45.6947 	 56.9033 	 109.196
| 18> H 	 -46.8838 	 57.7601 	 110.267
| 19> C 	 -45.2104 	 59.0493 	 109.709
| 20> H 	 -45.5255 	 59.8561 	 110.516
| 21> H 	 -44.1528 	 58.9915 	 109.673
| 22> H 	 -45.5809 	 59.544 	 108.762
| 23> S 	 -40.3876 	 56.691 	 108.155
| 24> C 	 -39.1521 	 55.536 	 107.764
| 25> C 	 -38.9798 	 54.5552 	 108.754
| 26> C 	 -39.738 	 54.8762 	 109.904
| 27> C 	 -40.5453 	 56.0066 	 109.753
| 28> H 	 -38.2348 	 53.8877 	 108.682
| 29> C 	 -39.6652 	 54.0404 	 111.195
| 30> H 	 -39.42 	 54.7049 	 112.057
| 31> H 	 -38.7814 	 53.4287 	 111.094
| 32> C 	 -40.9097 	 53.1161 	 111.44
| 33> H 	 -41.1554 	 52.6157 	 110.472
| 34> H 	 -41.8086 	 53.6625 	 111.74
| 35> C 	 -40.6813 	 52.1091 	 112.487
| 36> H 	 -40.8083 	 52.5391 	 113.456
| 37> H 	 -39.7486 	 51.554 	 112.406
| 38> H 	 -41.5117 	 51.4122 	 112.388
| 39> H 	 -43.5232 	 57.9836 	 113.212
| 40> H 	 -38.6312 	 55.5927 	 106.832
| 41> *
| 42>
| 43>                          ****END OF INPUT****

CARTESIAN COORDINATES (ANGSTROEM)
---------------------------------
  S    -41.317100   57.512600  112.062000
  C    -43.021700   57.456200  112.445000
  C    -43.750000   56.828700  111.432000
  C    -42.952500   56.290500  110.382000
  C    -41.611100   56.513900  110.610000
  H    -43.360400   55.859300  109.447000
  C    -45.206900   57.072200  111.375000
  H    -45.471400   57.782700  112.165000
  H    -45.599800   56.053900  111.602000
  C    -45.806900   57.668800  110.051000
  H    -45.694700   56.903300  109.196000
  H    -46.883800   57.760100  110.267000
  C    -45.210400   59.049300  109.709000
  H    -45.525500   59.856100  110.516000
  H    -44.152800   58.991500  109.673000
  H    -45.580900   59.544000  108.762000
  S    -40.387600   56.691000  108.155000
  C    -39.152100   55.536000  107.764000
  C    -38.979800   54.555200  108.754000
  C    -39.738000   54.876200  109.904000
  C    -40.545300   56.006600  109.753000
  H    -38.234800   53.887700  108.682000
  C    -39.665200   54.040400  111.195000
  H    -39.420000   54.704900  112.057000
  H    -38.781400   53.428700  111.094000
  C    -40.909700   53.116100  111.440000
  H    -41.155400   52.615700  110.472000
  H    -41.808600   53.662500  111.740000
  C    -40.681300   52.109100  112.487000
  H    -40.808300   52.539100  113.456000
  H    -39.748600   51.554000  112.406000
  H    -41.511700   51.412200  112.388000
  H    -43.523200   57.983600  113.212000
  H    -38.631200   55.592700  106.832000

 Total Charge           Charge          ....    0
 Multiplicity           Mult            ....    1
 Number of Electrons    NEL             ....  134
 Basis Dimension        Dim             ....  322

ORBITAL ENERGIES
----------------

  NO   OCC          E(Eh)            E(eV)
   0   2.0000     -88.969066     -2420.9714
   1   2.0000     -88.966868     -2420.9116
   2   2.0000     -10.330950      -281.1194
   3   2.0000     -10.320067      -280.8233
   4   2.0000     -10.317173      -280.7446
   5   2.0000     -10.309047      -280.5234
   6   2.0000     -10.301600      -280.3208
   7   2.0000     -10.300534      -280.2918
   8   2.0000     -10.297357      -280.2053
   9   2.0000     -10.295377      -280.1514
  10   2.0000     -10.292835      -280.0823
  11   2.0000     -10.290363      -280.0150
  12   2.0000     -10.287970      -279.9499
  13   2.0000     -10.287622      -279.9404
  14   2.0000     -10.280630      -279.7502
  15   2.0000     -10.266105      -279.3549
  16   2.0000      -8.082752      -219.9429
  17   2.0000      -8.081849      -219.9183
  18   2.0000      -6.041234      -164.3903
  19   2.0000      -6.040141      -164.3606
  20   2.0000      -6.037469      -164.2879
  21   2.0000      -6.036251      -164.2547
  22   2.0000      -6.033550      -164.1812
  23   2.0000      -6.032922      -164.1642
  24   2.0000      -1.003730       -27.3129
  25   2.0000      -0.982443       -26.7336
  26   2.0000      -0.907799       -24.7025
  27   2.0000      -0.904903       -24.6237
  28   2.0000      -0.867119       -23.5955
  29   2.0000      -0.855748       -23.2861
  30   2.0000      -0.844001       -22.9664
  31   2.0000      -0.815211       -22.1830
  32   2.0000      -0.779092       -21.2002
  33   2.0000      -0.763793       -20.7839
  34   2.0000      -0.706575       -19.2269
  35   2.0000      -0.691412       -18.8143
  36   2.0000      -0.685355       -18.6495
  37   2.0000      -0.670382       -18.2420
  38   2.0000      -0.633654       -17.2426
  39   2.0000      -0.619516       -16.8579
  40   2.0000      -0.593360       -16.1461
  41   2.0000      -0.567196       -15.4342
  42   2.0000      -0.559293       -15.2191
  43   2.0000      -0.552779       -15.0419
  44   2.0000      -0.539978       -14.6936
  45   2.0000      -0.522881       -14.2283
  46   2.0000      -0.516848       -14.0641
  47   2.0000      -0.511523       -13.9193
  48   2.0000      -0.502832       -13.6827
  49   2.0000      -0.493720       -13.4348
  50   2.0000      -0.486994       -13.2518
  51   2.0000      -0.472080       -12.8460
  52   2.0000      -0.469288       -12.7700
  53   2.0000      -0.465401       -12.6642
  54   2.0000      -0.458424       -12.4743
  55   2.0000      -0.451351       -12.2819
  56   2.0000      -0.446689       -12.1550
  57   2.0000      -0.441333       -12.0093
  58   2.0000      -0.427508       -11.6331
  59   2.0000      -0.421300       -11.4642
  60   2.0000      -0.415617       -11.3095
  61   2.0000      -0.413106       -11.2412
  62   2.0000      -0.410627       -11.1737
  63   2.0000      -0.338110        -9.2005
  64   2.0000      -0.334474        -9.1015
  65   2.0000      -0.317336        -8.6352
  66   2.0000      -0.299238        -8.1427
  67   0.0000       0.040877         1.1123
  68   0.0000       0.051966         1.4141
  69   0.0000       0.106958         2.9105
  70   0.0000       0.122441         3.3318
  71   0.0000       0.128361         3.4929

MULLIKEN ATOMIC CHARGES
-----------------------
   0 S :    0.119372
   1 C :   -0.107188
   2 C :   -0.108722
   3 C :    0.035637
   4 C :   -0.168701
   5 H :    0.032233
   6 C :    0.045488
   7 H :    0.017301
   8 H :    0.044034
   9 C :   -0.090063
  10 H :    0.044374
  11 H :    0.041529
  12 C :   -0.086845
  13 H :    0.037989
  14 H :    0.046611
  15 H :    0.047748
  16 S :    0.116916
  17 C :   -0.101258
  18 C :    0.023200
  19 C :   -0.035992
  20 C :   -0.177676
  21 H :   -0.024904
  22 C :    0.084507
  23 H :    0.035646
  24 H :    0.000165
  25 C :   -0.092987
  26 H :    0.028202
  27 H :    0.042219
  28 C :   -0.010088
  29 H :    0.024729
  30 H :    0.027196
  31 H :    0.022713
  32 H :    0.033382
  33 H :    0.053232
Sum of atomic charges:   -0.0000000

LOEWDIN ATOMIC CHARGES
----------------------
   0 S :    0.397097
   1 C :   -0.200149
   2 C :   -0.071367
   3 C :   -0.062224
   4 C :   -0.183296
   5 H :    0.040242
   6 C :   -0.036357
   7 H :    0.028171
   8 H :    0.038163
   9 C :   -0.046782
  10 H :    0.028892
  11 H :    0.028692
  12 C :   -0.076507
  13 H :    0.036117
  14 H :    0.020578
  15 H :    0.032800
  16 S :    0.422520
  17 C :   -0.178081
  18 C :   -0.058354
  19 C :   -0.047398
  20 C :   -0.214708
  21 H :    0.011548
  22 C :   -0.031867
  23 H :    0.033797
  24 H :    0.022940
  25 C :   -0.042212
  26 H :    0.025949
  27 H :    0.029888
  28 C :   -0.063411
  29 H :    0.022791
  30 H :    0.021971
  31 H :    0.029130
  32 H :    0.019448
  33 H :    0.021979

  Mayer bond orders larger than 0.100000
B(  0-S ,  1-C ) :   1.1329 B(  0-S ,  4-C ) :   1.1517 B(  1-C ,  2-C ) :   1.6080
B(  1-C , 32-H ) :   0.9694 B(  2-C ,  3-C ) :   1.2361 B(  2-C ,  6-C ) :   1.0254
B(  3-C ,  4-C ) :   1.5798 B(  3-C ,  5-H ) :   0.9885 B(  4-C , 20-C ) :   1.0110
B(  6-C ,  7-H ) :   0.9482 B(  6-C ,  8-H ) :   0.9268 B(  6-C ,  9-C ) :   1.0692
B(  9-C , 10-H ) :   0.9520 B(  9-C , 11-H ) :   0.9569 B(  9-C , 12-C ) :   1.0598
B( 12-C , 13-H ) :   0.9721 B( 12-C , 14-H ) :   0.9783 B( 12-C , 15-H ) :   0.9751
B( 16-S , 17-C ) :   1.1877 B( 16-S , 20-C ) :   1.1525 B( 17-C , 18-C ) :   1.5619
B( 17-C , 20-C ) :   0.1055 B( 17-C , 33-H ) :   0.9704 B( 18-C , 19-C ) :   1.2777
B( 18-C , 21-H ) :   1.0062 B( 19-C , 20-C ) :   1.5775 B( 19-C , 22-C ) :   1.0384
B( 22-C , 23-H ) :   0.9339 B( 22-C , 24-H ) :   0.9328 B( 22-C , 25-C ) :   1.0559
B( 25-C , 26-H ) :   0.9583 B( 25-C , 27-H ) :   0.9498 B( 25-C , 28-C ) :   1.1003
B( 28-C , 29-H ) :   0.9718 B( 28-C , 30-H ) :   0.9722 B( 28-C , 31-H ) :   0.9692

Dispersion correction           -0.015395796
FINAL SINGLE POINT ENERGY     -1339.875181724992

DIPOLE MOMENT
-------------
                                X             Y             Z
Electronic contribution:     13.96249       9.10742      -5.84764
Nuclear contribution   :    -14.24345      -9.33484       5.79019
                        -----------------------------------------
Total Dipole Moment    :     -0.28095      -0.22741      -0.05746
                        -----------------------------------------
Magnitude (a.u.)       :      0.36600
Magnitude (Debye)      :      0.93029

Rotational constants in cm-1:     0.018194     0.009439     0.007552
Rotational constants in MHz :   545.445195   282.959606   226.415686

                             ****ORCA TERMINATED NORMALLY****
TOTAL RUN TIME: 0 days 0 hours 0 minutes 29 seconds 232 msec
