                         Program Version 4.2.1 -  RELEASE  -
|  1> ! wB97X-D3 SP def2-SVP
|  2> %pal
|  3> nprocs 16
|  4> end
|  5>
|  6> * xyz 0 1
|  7> S 	 5.90759 	 -5.15036 	 73.2906
|  8> C 	 4.26143 	 -5.51166 	 72.698
|  9> C 	 3.51795 	 -4.4015 	 72.8467
| 10> C 	 4.24804 	 -3.24922 	 73.1972
| 11> C 	 5.51271 	 -3.48824 	 73.5541
| 12> H 	 3.85792 	 -2.27315 	 73.2567
| 13> C 	 2.04061 	 -4.32032 	 72.6752
| 14> H 	 1.74198 	 -5.01304 	 71.8755
| 15> H 	 1.74027 	 -3.33538 	 72.3923
| 16> C 	 1.21377 	 -4.62562 	 73.9667
| 17> H 	 1.23134 	 -3.82947 	 74.678
| 18> H 	 0.221384 	 -4.7526 	 73.6476
| 19> C 	 1.776 	 -5.84748 	 74.6587
| 20> H 	 1.81307 	 -6.69812 	 73.9898
| 21> H 	 2.73064 	 -5.8487 	 75.2306
| 22> H 	 1.06284 	 -6.25489 	 75.3403
| 23> S 	 8.25079 	 -3.12513 	 73.8812
| 24> C 	 8.84546 	 -1.64733 	 74.5649
| 25> C 	 7.76518 	 -0.782325 	 74.8629
| 26> C 	 6.44506 	 -1.31214 	 74.601
| 27> C 	 6.48408 	 -2.55118 	 74.0077
| 28> H 	 7.97655 	 0.238017 	 75.0939
| 29> C 	 5.14888 	 -0.543187 	 74.8107
| 30> H 	 5.38557 	 0.0349343 	 75.6475
| 31> H 	 4.37885 	 -1.14092 	 75.3101
| 32> C 	 4.61976 	 0.277839 	 73.6065
| 33> H 	 3.68111 	 0.780089 	 73.7897
| 34> H 	 4.59522 	 -0.360754 	 72.6802
| 35> C 	 5.6104 	 1.40755 	 73.3258
| 36> H 	 6.61021 	 0.946734 	 73.2276
| 37> H 	 5.67509 	 2.026 	 74.2352
| 38> H 	 5.33984 	 1.91915 	 72.4518
| 39> H 	 3.79692 	 -6.47499 	 72.5202
| 40> H 	 9.86038 	 -1.39868 	 74.7326
| 41> *
| 42>
| 43>                          ****END OF INPUT****

CARTESIAN COORDINATES (ANGSTROEM)
---------------------------------
  S      5.907590   -5.150360   73.290600
  C      4.261430   -5.511660   72.698000
  C      3.517950   -4.401500   72.846700
  C      4.248040   -3.249220   73.197200
  C      5.512710   -3.488240   73.554100
  H      3.857920   -2.273150   73.256700
  C      2.040610   -4.320320   72.675200
  H      1.741980   -5.013040   71.875500
  H      1.740270   -3.335380   72.392300
  C      1.213770   -4.625620   73.966700
  H      1.231340   -3.829470   74.678000
  H      0.221384   -4.752600   73.647600
  C      1.776000   -5.847480   74.658700
  H      1.813070   -6.698120   73.989800
  H      2.730640   -5.848700   75.230600
  H      1.062840   -6.254890   75.340300
  S      8.250790   -3.125130   73.881200
  C      8.845460   -1.647330   74.564900
  C      7.765180   -0.782325   74.862900
  C      6.445060   -1.312140   74.601000
  C      6.484080   -2.551180   74.007700
  H      7.976550    0.238017   75.093900
  C      5.148880   -0.543187   74.810700
  H      5.385570    0.034934   75.647500
  H      4.378850   -1.140920   75.310100
  C      4.619760    0.277839   73.606500
  H      3.681110    0.780089   73.789700
  H      4.595220   -0.360754   72.680200
  C      5.610400    1.407550   73.325800
  H      6.610210    0.946734   73.227600
  H      5.675090    2.026000   74.235200
  H      5.339840    1.919150   72.451800
  H      3.796920   -6.474990   72.520200
  H      9.860380   -1.398680   74.732600

 Total Charge           Charge          ....    0
 Multiplicity           Mult            ....    1
 Number of Electrons    NEL             ....  134
 Basis Dimension        Dim             ....  322

ORBITAL ENERGIES
----------------

  NO   OCC          E(Eh)            E(eV)
   0   2.0000     -88.964016     -2420.8339
   1   2.0000     -88.962198     -2420.7845
   2   2.0000     -10.333131      -281.1788
   3   2.0000     -10.322672      -280.8942
   4   2.0000     -10.322512      -280.8898
   5   2.0000     -10.309572      -280.5377
   6   2.0000     -10.309467      -280.5349
   7   2.0000     -10.299146      -280.2540
   8   2.0000     -10.293931      -280.1121
   9   2.0000     -10.292725      -280.0793
  10   2.0000     -10.290033      -280.0060
  11   2.0000     -10.286938      -279.9218
  12   2.0000     -10.283384      -279.8251
  13   2.0000     -10.279660      -279.7238
  14   2.0000     -10.273406      -279.5536
  15   2.0000     -10.271274      -279.4956
  16   2.0000      -8.077735      -219.8063
  17   2.0000      -8.076952      -219.7850
  18   2.0000      -6.036363      -164.2578
  19   2.0000      -6.035668      -164.2389
  20   2.0000      -6.032380      -164.1494
  21   2.0000      -6.031583      -164.1277
  22   2.0000      -6.028431      -164.0419
  23   2.0000      -6.027336      -164.0122
  24   2.0000      -1.012128       -27.5414
  25   2.0000      -0.980635       -26.6844
  26   2.0000      -0.916969       -24.9520
  27   2.0000      -0.914077       -24.8733
  28   2.0000      -0.873309       -23.7639
  29   2.0000      -0.854604       -23.2550
  30   2.0000      -0.842533       -22.9265
  31   2.0000      -0.813693       -22.1417
  32   2.0000      -0.787899       -21.4398
  33   2.0000      -0.779911       -21.2224
  34   2.0000      -0.715125       -19.4595
  35   2.0000      -0.705732       -19.2040
  36   2.0000      -0.696842       -18.9620
  37   2.0000      -0.667175       -18.1547
  38   2.0000      -0.640976       -17.4419
  39   2.0000      -0.622557       -16.9406
  40   2.0000      -0.597744       -16.2654
  41   2.0000      -0.569710       -15.5026
  42   2.0000      -0.558479       -15.1970
  43   2.0000      -0.557909       -15.1815
  44   2.0000      -0.551795       -15.0151
  45   2.0000      -0.544196       -14.8083
  46   2.0000      -0.522871       -14.2280
  47   2.0000      -0.511755       -13.9256
  48   2.0000      -0.508712       -13.8428
  49   2.0000      -0.498054       -13.5527
  50   2.0000      -0.491436       -13.3727
  51   2.0000      -0.482834       -13.1386
  52   2.0000      -0.470105       -12.7922
  53   2.0000      -0.464161       -12.6304
  54   2.0000      -0.460305       -12.5255
  55   2.0000      -0.452062       -12.3012
  56   2.0000      -0.444421       -12.0933
  57   2.0000      -0.436129       -11.8677
  58   2.0000      -0.428467       -11.6592
  59   2.0000      -0.424159       -11.5419
  60   2.0000      -0.421696       -11.4749
  61   2.0000      -0.414359       -11.2753
  62   2.0000      -0.405942       -11.0462
  63   2.0000      -0.364165        -9.9094
  64   2.0000      -0.333294        -9.0694
  65   2.0000      -0.327736        -8.9181
  66   2.0000      -0.284126        -7.7315
  67   0.0000       0.017324         0.4714
  68   0.0000       0.080775         2.1980
  69   0.0000       0.092168         2.5080
  70   0.0000       0.119935         3.2636
  71   0.0000       0.133273         3.6265

MULLIKEN ATOMIC CHARGES
-----------------------
   0 S :    0.084266
   1 C :   -0.109387
   2 C :   -0.078573
   3 C :   -0.007445
   4 C :   -0.061011
   5 H :   -0.027565
   6 C :    0.067023
   7 H :    0.027536
   8 H :    0.008708
   9 C :   -0.009516
  10 H :    0.023667
  11 H :    0.021488
  12 C :   -0.065567
  13 H :    0.002356
  14 H :    0.060808
  15 H :    0.012172
  16 S :    0.077189
  17 C :   -0.066370
  18 C :   -0.040312
  19 C :   -0.084372
  20 C :   -0.113424
  21 H :    0.015342
  22 C :    0.063283
  23 H :   -0.001958
  24 H :    0.030593
  25 C :   -0.061639
  26 H :    0.034381
  27 H :    0.053721
  28 C :   -0.043008
  29 H :    0.037910
  30 H :    0.023570
  31 H :    0.029562
  32 H :    0.044717
  33 H :    0.051857
Sum of atomic charges:   -0.0000000

LOEWDIN ATOMIC CHARGES
----------------------
   0 S :    0.388160
   1 C :   -0.181563
   2 C :   -0.063882
   3 C :   -0.064753
   4 C :   -0.186782
   5 H :    0.023020
   6 C :   -0.026357
   7 H :    0.031228
   8 H :    0.023780
   9 C :   -0.025049
  10 H :    0.021130
  11 H :    0.021962
  12 C :   -0.075813
  13 H :    0.018371
  14 H :    0.036550
  15 H :    0.021900
  16 S :    0.361126
  17 C :   -0.176537
  18 C :   -0.074256
  19 C :   -0.055211
  20 C :   -0.147198
  21 H :    0.024526
  22 C :   -0.037865
  23 H :    0.024219
  24 H :    0.034521
  25 C :   -0.037247
  26 H :    0.024072
  27 H :    0.030979
  28 C :   -0.060091
  29 H :    0.028604
  30 H :    0.023852
  31 H :    0.017534
  32 H :    0.031074
  33 H :    0.025999

  Mayer bond orders larger than 0.100000
B(  0-S ,  1-C ) :   1.1005 B(  0-S ,  4-C ) :   1.1232 B(  1-C ,  2-C ) :   1.6400
B(  1-C , 32-H ) :   0.9655 B(  2-C ,  3-C ) :   1.2143 B(  2-C ,  6-C ) :   1.0437
B(  3-C ,  4-C ) :   1.5824 B(  3-C ,  5-H ) :   1.0055 B(  4-C , 20-C ) :   1.1035
B(  6-C ,  7-H ) :   0.9401 B(  6-C ,  8-H ) :   0.9358 B(  6-C ,  9-C ) :   1.0714
B(  9-C , 10-H ) :   0.9539 B(  9-C , 11-H ) :   0.9535 B(  9-C , 12-C ) :   1.0911
B( 12-C , 13-H ) :   0.9698 B( 12-C , 14-H ) :   0.9685 B( 12-C , 15-H ) :   0.9651
B( 16-S , 17-C ) :   1.1575 B( 16-S , 20-C ) :   1.1007 B( 17-C , 18-C ) :   1.6058
B( 17-C , 20-C ) :   0.1005 B( 17-C , 33-H ) :   0.9724 B( 18-C , 19-C ) :   1.2256
B( 18-C , 21-H ) :   0.9865 B( 19-C , 20-C ) :   1.6126 B( 19-C , 22-C ) :   1.0401
B( 22-C , 23-H ) :   0.9229 B( 22-C , 24-H ) :   0.9298 B( 22-C , 25-C ) :   1.0502
B( 25-C , 26-H ) :   0.9565 B( 25-C , 27-H ) :   0.9536 B( 25-C , 28-C ) :   1.0746
B( 28-C , 29-H ) :   0.9756 B( 28-C , 30-H ) :   0.9746 B( 28-C , 31-H ) :   0.9705

Dispersion correction           -0.015277664
FINAL SINGLE POINT ENERGY     -1339.864972866567

DIPOLE MOMENT
-------------
                                X             Y             Z
Electronic contribution:     22.31326     -11.03890      -2.11023
Nuclear contribution   :    -22.98301      11.54190       2.27223
                        -----------------------------------------
Total Dipole Moment    :     -0.66975       0.50300       0.16200
                        -----------------------------------------
Magnitude (a.u.)       :      0.85312
Magnitude (Debye)      :      2.16846

Rotational constants in cm-1:     0.020667     0.009426     0.007078
Rotational constants in MHz :   619.584670   282.587822   212.202158

                             ****ORCA TERMINATED NORMALLY****
TOTAL RUN TIME: 0 days 0 hours 0 minutes 37 seconds 188 msec
