                         Program Version 4.2.1 -  RELEASE  -
|  1> ! wB97X-D3 SP def2-SVP
|  2> %pal
|  3> nprocs 16
|  4> end
|  5>
|  6> * xyz 0 1
|  7> S 	 40.8119 	 11.8035 	 91.0286
|  8> C 	 41.4928 	 13.3259 	 90.7062
|  9> C 	 41.3457 	 13.6458 	 89.3939
| 10> C 	 40.6806 	 12.6476 	 88.6454
| 11> C 	 40.4692 	 11.4605 	 89.361
| 12> H 	 40.5167 	 12.7163 	 87.5835
| 13> C 	 41.8809 	 14.9046 	 88.7504
| 14> H 	 41.7131 	 14.8671 	 87.6836
| 15> H 	 43.0048 	 14.9954 	 88.8797
| 16> C 	 41.1568 	 16.1889 	 89.1548
| 17> H 	 41.2564 	 16.9116 	 88.2852
| 18> H 	 40.0791 	 16.1128 	 89.2865
| 19> C 	 41.7144 	 16.9109 	 90.3609
| 20> H 	 41.6932 	 17.9954 	 90.1854
| 21> H 	 41.3905 	 16.6232 	 91.3534
| 22> H 	 42.7631 	 16.8046 	 90.3192
| 23> S 	 40.3385 	 9.64792 	 87.3283
| 24> C 	 39.0355 	 8.46947 	 87.2916
| 25> C 	 38.4483 	 8.40788 	 88.5187
| 26> C 	 38.7695 	 9.47576 	 89.4513
| 27> C 	 39.7903 	 10.2587 	 88.8877
| 28> H 	 37.7013 	 7.67094 	 88.7063
| 29> C 	 38.2491 	 9.45392 	 90.8827
| 30> H 	 37.2109 	 8.99005 	 91.0519
| 31> H 	 37.9258 	 10.5063 	 91.2253
| 32> C 	 39.2199 	 8.71247 	 91.8072
| 33> H 	 40.2833 	 8.94324 	 91.5108
| 34> H 	 39.0621 	 7.63115 	 91.7832
| 35> C 	 39.2812 	 9.29161 	 93.2282
| 36> H 	 38.5213 	 8.90546 	 93.8792
| 37> H 	 39.231 	 10.3675 	 93.292
| 38> H 	 40.2285 	 9.15336 	 93.7383
| 39> H 	 41.8502 	 14.0272 	 91.4242
| 40> H 	 38.9021 	 7.75613 	 86.4699
| 41> *
| 42>
| 43>                          ****END OF INPUT****

CARTESIAN COORDINATES (ANGSTROEM)
---------------------------------
  S     40.811900   11.803500   91.028600
  C     41.492800   13.325900   90.706200
  C     41.345700   13.645800   89.393900
  C     40.680600   12.647600   88.645400
  C     40.469200   11.460500   89.361000
  H     40.516700   12.716300   87.583500
  C     41.880900   14.904600   88.750400
  H     41.713100   14.867100   87.683600
  H     43.004800   14.995400   88.879700
  C     41.156800   16.188900   89.154800
  H     41.256400   16.911600   88.285200
  H     40.079100   16.112800   89.286500
  C     41.714400   16.910900   90.360900
  H     41.693200   17.995400   90.185400
  H     41.390500   16.623200   91.353400
  H     42.763100   16.804600   90.319200
  S     40.338500    9.647920   87.328300
  C     39.035500    8.469470   87.291600
  C     38.448300    8.407880   88.518700
  C     38.769500    9.475760   89.451300
  C     39.790300   10.258700   88.887700
  H     37.701300    7.670940   88.706300
  C     38.249100    9.453920   90.882700
  H     37.210900    8.990050   91.051900
  H     37.925800   10.506300   91.225300
  C     39.219900    8.712470   91.807200
  H     40.283300    8.943240   91.510800
  H     39.062100    7.631150   91.783200
  C     39.281200    9.291610   93.228200
  H     38.521300    8.905460   93.879200
  H     39.231000   10.367500   93.292000
  H     40.228500    9.153360   93.738300
  H     41.850200   14.027200   91.424200
  H     38.902100    7.756130   86.469900

 Total Charge           Charge          ....    0
 Multiplicity           Mult            ....    1
 Number of Electrons    NEL             ....  134
 Basis Dimension        Dim             ....  322

ORBITAL ENERGIES
----------------

  NO   OCC          E(Eh)            E(eV)
   0   2.0000     -88.967552     -2420.9302
   1   2.0000     -88.964813     -2420.8556
   2   2.0000     -10.332167      -281.1526
   3   2.0000     -10.330004      -281.0937
   4   2.0000     -10.316483      -280.7258
   5   2.0000     -10.308791      -280.5165
   6   2.0000     -10.305999      -280.4405
   7   2.0000     -10.305457      -280.4257
   8   2.0000     -10.293774      -280.1078
   9   2.0000     -10.293267      -280.0940
  10   2.0000     -10.291817      -280.0546
  11   2.0000     -10.291448      -280.0445
  12   2.0000     -10.289442      -279.9900
  13   2.0000     -10.287652      -279.9412
  14   2.0000     -10.271786      -279.5095
  15   2.0000     -10.268623      -279.4234
  16   2.0000      -8.082660      -219.9404
  17   2.0000      -8.079296      -219.8488
  18   2.0000      -6.041061      -164.3856
  19   2.0000      -6.037871      -164.2988
  20   2.0000      -6.036946      -164.2737
  21   2.0000      -6.033881      -164.1902
  22   2.0000      -6.033697      -164.1853
  23   2.0000      -6.029967      -164.0838
  24   2.0000      -1.011156       -27.5149
  25   2.0000      -0.986827       -26.8529
  26   2.0000      -0.913561       -24.8593
  27   2.0000      -0.904899       -24.6236
  28   2.0000      -0.871452       -23.7134
  29   2.0000      -0.853184       -23.2163
  30   2.0000      -0.845243       -23.0002
  31   2.0000      -0.812458       -22.1081
  32   2.0000      -0.785802       -21.3828
  33   2.0000      -0.772832       -21.0298
  34   2.0000      -0.706237       -19.2177
  35   2.0000      -0.697084       -18.9686
  36   2.0000      -0.691093       -18.8056
  37   2.0000      -0.663953       -18.0671
  38   2.0000      -0.640542       -17.4300
  39   2.0000      -0.615122       -16.7383
  40   2.0000      -0.599886       -16.3237
  41   2.0000      -0.576995       -15.7008
  42   2.0000      -0.560719       -15.2579
  43   2.0000      -0.542790       -14.7701
  44   2.0000      -0.539833       -14.6896
  45   2.0000      -0.523240       -14.2381
  46   2.0000      -0.518228       -14.1017
  47   2.0000      -0.514475       -13.9996
  48   2.0000      -0.504933       -13.7399
  49   2.0000      -0.500470       -13.6185
  50   2.0000      -0.489320       -13.3151
  51   2.0000      -0.484499       -13.1839
  52   2.0000      -0.481796       -13.1103
  53   2.0000      -0.465443       -12.6654
  54   2.0000      -0.461733       -12.5644
  55   2.0000      -0.442229       -12.0337
  56   2.0000      -0.439547       -11.9607
  57   2.0000      -0.432697       -11.7743
  58   2.0000      -0.428368       -11.6565
  59   2.0000      -0.421247       -11.4627
  60   2.0000      -0.415044       -11.2939
  61   2.0000      -0.409688       -11.1482
  62   2.0000      -0.404742       -11.0136
  63   2.0000      -0.352318        -9.5871
  64   2.0000      -0.331788        -9.0284
  65   2.0000      -0.327486        -8.9113
  66   2.0000      -0.290304        -7.8996
  67   0.0000       0.025262         0.6874
  68   0.0000       0.077235         2.1017
  69   0.0000       0.108589         2.9549
  70   0.0000       0.120190         3.2705
  71   0.0000       0.124854         3.3974

MULLIKEN ATOMIC CHARGES
-----------------------
   0 S :    0.104928
   1 C :   -0.094427
   2 C :   -0.084210
   3 C :    0.019600
   4 C :   -0.123288
   5 H :    0.012017
   6 C :    0.059426
   7 H :    0.014063
   8 H :    0.052275
   9 C :   -0.105646
  10 H :    0.029748
  11 H :    0.036338
  12 C :   -0.020418
  13 H :    0.026862
  14 H :    0.042329
  15 H :   -0.004970
  16 S :    0.100485
  17 C :   -0.097675
  18 C :   -0.017522
  19 C :   -0.012397
  20 C :   -0.164251
  21 H :    0.008867
  22 C :   -0.010918
  23 H :    0.036257
  24 H :    0.047134
  25 C :   -0.064482
  26 H :    0.042893
  27 H :    0.044522
  28 C :   -0.048698
  29 H :    0.023171
  30 H :    0.020360
  31 H :    0.025763
  32 H :    0.035527
  33 H :    0.066338
Sum of atomic charges:   -0.0000000

LOEWDIN ATOMIC CHARGES
----------------------
   0 S :    0.450344
   1 C :   -0.209345
   2 C :   -0.070287
   3 C :   -0.061364
   4 C :   -0.202035
   5 H :    0.026755
   6 C :   -0.034624
   7 H :    0.029465
   8 H :    0.040924
   9 C :   -0.046150
  10 H :    0.030838
  11 H :    0.026825
  12 C :   -0.073559
  13 H :    0.033596
  14 H :    0.021712
  15 H :    0.016579
  16 S :    0.399459
  17 C :   -0.188075
  18 C :   -0.064094
  19 C :   -0.056582
  20 C :   -0.185554
  21 H :    0.025296
  22 C :   -0.053157
  23 H :    0.039748
  24 H :    0.038591
  25 C :   -0.045727
  26 H :    0.028295
  27 H :    0.029115
  28 C :   -0.071104
  29 H :    0.017226
  30 H :    0.019386
  31 H :    0.026700
  32 H :    0.026339
  33 H :    0.034461

  Mayer bond orders larger than 0.100000
B(  0-S ,  1-C ) :   1.1565 B(  0-S ,  4-C ) :   1.1664 B(  1-C ,  2-C ) :   1.5789
B(  1-C , 32-H ) :   0.9720 B(  2-C ,  3-C ) :   1.3032 B(  2-C ,  6-C ) :   1.0196
B(  3-C ,  4-C ) :   1.5190 B(  3-C ,  5-H ) :   0.9885 B(  4-C , 20-C ) :   1.0473
B(  6-C ,  7-H ) :   0.9385 B(  6-C ,  8-H ) :   0.9449 B(  6-C ,  9-C ) :   1.0669
B(  9-C , 10-H ) :   0.9605 B(  9-C , 11-H ) :   0.9559 B(  9-C , 12-C ) :   1.0809
B( 12-C , 13-H ) :   0.9688 B( 12-C , 14-H ) :   0.9752 B( 12-C , 15-H ) :   0.9668
B( 16-S , 17-C ) :   1.1293 B( 16-S , 20-C ) :   1.1576 B( 17-C , 18-C ) :   1.6265
B( 17-C , 33-H ) :   0.9671 B( 18-C , 19-C ) :   1.2243 B( 18-C , 21-H ) :   0.9873
B( 19-C , 20-C ) :   1.5750 B( 19-C , 22-C ) :   1.0589 B( 22-C , 23-H ) :   0.9357
B( 22-C , 24-H ) :   0.9417 B( 22-C , 25-C ) :   1.0324 B( 25-C , 26-H ) :   0.9669
B( 25-C , 27-H ) :   0.9563 B( 25-C , 28-C ) :   1.0651 B( 28-C , 29-H ) :   0.9753
B( 28-C , 30-H ) :   0.9730 B( 28-C , 31-H ) :   0.9777

Dispersion correction           -0.014712106
FINAL SINGLE POINT ENERGY     -1339.869114358142

DIPOLE MOMENT
-------------
                                X             Y             Z
Electronic contribution:      0.74438     -13.59902     -12.19363
Nuclear contribution   :     -0.84883      13.80936      12.25638
                        -----------------------------------------
Total Dipole Moment    :     -0.10445       0.21034       0.06275
                        -----------------------------------------
Magnitude (a.u.)       :      0.24309
Magnitude (Debye)      :      0.61787

Rotational constants in cm-1:     0.021879     0.008240     0.006350
Rotational constants in MHz :   655.910483   247.032688   190.380202

                             ****ORCA TERMINATED NORMALLY****
TOTAL RUN TIME: 0 days 0 hours 0 minutes 29 seconds 835 msec
