                         Program Version 4.2.1 -  RELEASE  -
|  1> ! wB97X-D3 SP def2-SVP
|  2> %pal
|  3> nprocs 16
|  4> end
|  5>
|  6> * xyz 0 1
|  7> S 	 8.21747 	 -6.39921 	 89.048
|  8> C 	 9.05585 	 -5.01899 	 88.3628
|  9> C 	 8.47257 	 -4.46923 	 87.2802
| 10> C 	 7.35166 	 -5.19362 	 86.9121
| 11> C 	 7.07157 	 -6.22883 	 87.754
| 12> H 	 6.56133 	 -4.92953 	 86.1541
| 13> C 	 8.86606 	 -3.19351 	 86.5405
| 14> H 	 8.51567 	 -3.18298 	 85.4783
| 15> H 	 9.97169 	 -3.13917 	 86.432
| 16> C 	 8.31917 	 -1.96329 	 87.2211
| 17> H 	 8.50481 	 -1.18578 	 86.5046
| 18> H 	 7.31192 	 -2.1175 	 87.396
| 19> C 	 9.03202 	 -1.59528 	 88.4415
| 20> H 	 8.89324 	 -0.562149 	 88.8259
| 21> H 	 8.73565 	 -2.34037 	 89.1995
| 22> H 	 10.0835 	 -1.62718 	 88.2943
| 23> S 	 5.62166 	 -8.02803 	 86.293
| 24> C 	 4.23083 	 -8.72519 	 87.009
| 25> C 	 4.08199 	 -8.50283 	 88.3228
| 26> C 	 5.15384 	 -7.63151 	 88.7672
| 27> C 	 5.87781 	 -7.08366 	 87.7223
| 28> H 	 3.37687 	 -9.07484 	 88.9221
| 29> C 	 5.14387 	 -7.12421 	 90.128
| 30> H 	 4.10553 	 -6.82224 	 90.3322
| 31> H 	 5.71695 	 -6.22097 	 90.2129
| 32> C 	 5.8079 	 -8.04388 	 91.1019
| 33> H 	 6.84396 	 -8.22129 	 90.9225
| 34> H 	 5.39193 	 -9.03873 	 91.119
| 35> C 	 5.63167 	 -7.62539 	 92.5956
| 36> H 	 5.89152 	 -8.45502 	 93.3437
| 37> H 	 4.64413 	 -7.4897 	 92.8481
| 38> H 	 6.24999 	 -6.79691 	 92.7907
| 39> H 	 10.0072 	 -4.67613 	 88.7752
| 40> H 	 3.68036 	 -9.57082 	 86.5519
| 41> *
| 42>
| 43>                          ****END OF INPUT****

CARTESIAN COORDINATES (ANGSTROEM)
---------------------------------
  S      8.217470   -6.399210   89.048000
  C      9.055850   -5.018990   88.362800
  C      8.472570   -4.469230   87.280200
  C      7.351660   -5.193620   86.912100
  C      7.071570   -6.228830   87.754000
  H      6.561330   -4.929530   86.154100
  C      8.866060   -3.193510   86.540500
  H      8.515670   -3.182980   85.478300
  H      9.971690   -3.139170   86.432000
  C      8.319170   -1.963290   87.221100
  H      8.504810   -1.185780   86.504600
  H      7.311920   -2.117500   87.396000
  C      9.032020   -1.595280   88.441500
  H      8.893240   -0.562149   88.825900
  H      8.735650   -2.340370   89.199500
  H     10.083500   -1.627180   88.294300
  S      5.621660   -8.028030   86.293000
  C      4.230830   -8.725190   87.009000
  C      4.081990   -8.502830   88.322800
  C      5.153840   -7.631510   88.767200
  C      5.877810   -7.083660   87.722300
  H      3.376870   -9.074840   88.922100
  C      5.143870   -7.124210   90.128000
  H      4.105530   -6.822240   90.332200
  H      5.716950   -6.220970   90.212900
  C      5.807900   -8.043880   91.101900
  H      6.843960   -8.221290   90.922500
  H      5.391930   -9.038730   91.119000
  C      5.631670   -7.625390   92.595600
  H      5.891520   -8.455020   93.343700
  H      4.644130   -7.489700   92.848100
  H      6.249990   -6.796910   92.790700
  H     10.007200   -4.676130   88.775200
  H      3.680360   -9.570820   86.551900

 Total Charge           Charge          ....    0
 Multiplicity           Mult            ....    1
 Number of Electrons    NEL             ....  134
 Basis Dimension        Dim             ....  322

ORBITAL ENERGIES
----------------

  NO   OCC          E(Eh)            E(eV)
   0   2.0000     -88.970097     -2420.9994
   1   2.0000     -88.961126     -2420.7553
   2   2.0000     -10.324669      -280.9485
   3   2.0000     -10.319655      -280.8121
   4   2.0000     -10.310719      -280.5689
   5   2.0000     -10.309321      -280.5309
   6   2.0000     -10.296060      -280.1700
   7   2.0000     -10.295196      -280.1465
   8   2.0000     -10.294820      -280.1363
   9   2.0000     -10.290174      -280.0099
  10   2.0000     -10.289285      -279.9857
  11   2.0000     -10.278607      -279.6951
  12   2.0000     -10.277473      -279.6643
  13   2.0000     -10.271547      -279.5030
  14   2.0000     -10.269935      -279.4591
  15   2.0000     -10.269585      -279.4496
  16   2.0000      -8.084641      -219.9943
  17   2.0000      -8.077215      -219.7922
  18   2.0000      -6.042967      -164.4375
  19   2.0000      -6.039336      -164.3387
  20   2.0000      -6.035609      -164.2373
  21   2.0000      -6.035451      -164.2330
  22   2.0000      -6.031761      -164.1326
  23   2.0000      -6.027775      -164.0241
  24   2.0000      -1.016553       -27.6618
  25   2.0000      -0.995115       -27.0785
  26   2.0000      -0.925174       -25.1753
  27   2.0000      -0.916768       -24.9465
  28   2.0000      -0.873597       -23.7718
  29   2.0000      -0.857041       -23.3213
  30   2.0000      -0.849172       -23.1071
  31   2.0000      -0.815713       -22.1967
  32   2.0000      -0.787481       -21.4285
  33   2.0000      -0.772503       -21.0209
  34   2.0000      -0.707443       -19.2505
  35   2.0000      -0.698031       -18.9944
  36   2.0000      -0.691223       -18.8091
  37   2.0000      -0.664622       -18.0853
  38   2.0000      -0.636314       -17.3150
  39   2.0000      -0.623607       -16.9692
  40   2.0000      -0.602552       -16.3963
  41   2.0000      -0.582404       -15.8480
  42   2.0000      -0.566939       -15.4272
  43   2.0000      -0.545995       -14.8573
  44   2.0000      -0.545360       -14.8400
  45   2.0000      -0.528480       -14.3807
  46   2.0000      -0.518576       -14.1112
  47   2.0000      -0.512888       -13.9564
  48   2.0000      -0.508752       -13.8439
  49   2.0000      -0.501631       -13.6501
  50   2.0000      -0.484320       -13.1790
  51   2.0000      -0.482531       -13.1303
  52   2.0000      -0.470748       -12.8097
  53   2.0000      -0.462741       -12.5918
  54   2.0000      -0.460370       -12.5273
  55   2.0000      -0.455728       -12.4010
  56   2.0000      -0.444445       -12.0940
  57   2.0000      -0.436035       -11.8651
  58   2.0000      -0.434745       -11.8300
  59   2.0000      -0.428763       -11.6672
  60   2.0000      -0.415101       -11.2955
  61   2.0000      -0.412331       -11.2201
  62   2.0000      -0.408322       -11.1110
  63   2.0000      -0.351481        -9.5643
  64   2.0000      -0.339653        -9.2424
  65   2.0000      -0.326221        -8.8769
  66   2.0000      -0.291961        -7.9447
  67   0.0000       0.033292         0.9059
  68   0.0000       0.076494         2.0815
  69   0.0000       0.101114         2.7515
  70   0.0000       0.120124         3.2687
  71   0.0000       0.125905         3.4261

MULLIKEN ATOMIC CHARGES
-----------------------
   0 S :    0.112620
   1 C :   -0.133717
   2 C :   -0.053088
   3 C :   -0.016312
   4 C :   -0.149346
   5 H :    0.035297
   6 C :    0.029620
   7 H :    0.031480
   8 H :    0.026916
   9 C :    0.004421
  10 H :    0.019319
  11 H :    0.014201
  12 C :   -0.052740
  13 H :    0.036859
  14 H :    0.039056
  15 H :    0.008222
  16 S :    0.108168
  17 C :   -0.076260
  18 C :   -0.029049
  19 C :   -0.066658
  20 C :   -0.119529
  21 H :    0.024791
  22 C :    0.054650
  23 H :    0.033545
  24 H :    0.012822
  25 C :   -0.069935
  26 H :    0.022445
  27 H :    0.011634
  28 C :   -0.029538
  29 H :    0.030954
  30 H :    0.009956
  31 H :    0.027565
  32 H :    0.042118
  33 H :    0.059514
Sum of atomic charges:    0.0000000

LOEWDIN ATOMIC CHARGES
----------------------
   0 S :    0.423125
   1 C :   -0.191473
   2 C :   -0.070184
   3 C :   -0.071622
   4 C :   -0.192221
   5 H :    0.043665
   6 C :   -0.025608
   7 H :    0.035522
   8 H :    0.030380
   9 C :   -0.035404
  10 H :    0.023988
  11 H :    0.017686
  12 C :   -0.067201
  13 H :    0.030574
  14 H :    0.029054
  15 H :    0.016849
  16 S :    0.421391
  17 C :   -0.195144
  18 C :   -0.070825
  19 C :   -0.057876
  20 C :   -0.204961
  21 H :    0.036314
  22 C :   -0.043471
  23 H :    0.037398
  24 H :    0.020369
  25 C :   -0.037226
  26 H :    0.015397
  27 H :    0.018437
  28 C :   -0.057736
  29 H :    0.034710
  30 H :    0.010861
  31 H :    0.016478
  32 H :    0.024956
  33 H :    0.033800

  Mayer bond orders larger than 0.100000
B(  0-S ,  1-C ) :   1.1308 B(  0-S ,  4-C ) :   1.1479 B(  1-C ,  2-C ) :   1.6376
B(  1-C , 32-H ) :   0.9598 B(  2-C ,  3-C ) :   1.2423 B(  2-C ,  6-C ) :   1.0131
B(  3-C ,  4-C ) :   1.5816 B(  3-C ,  5-H ) :   0.9861 B(  4-C , 20-C ) :   1.0370
B(  6-C ,  7-H ) :   0.9433 B(  6-C ,  8-H ) :   0.9394 B(  6-C ,  9-C ) :   1.0762
B(  9-C , 10-H ) :   0.9472 B(  9-C , 11-H ) :   0.9494 B(  9-C , 12-C ) :   1.0972
B( 12-C , 13-H ) :   0.9697 B( 12-C , 14-H ) :   0.9691 B( 12-C , 15-H ) :   0.9693
B( 16-S , 17-C ) :   1.1563 B( 16-S , 20-C ) :   1.1364 B( 17-C , 18-C ) :   1.6441
B( 17-C , 33-H ) :   0.9548 B( 18-C , 19-C ) :   1.2063 B( 18-C , 21-H ) :   0.9913
B( 19-C , 20-C ) :   1.5922 B( 19-C , 22-C ) :   1.0695 B( 22-C , 23-H ) :   0.9426
B( 22-C , 24-H ) :   0.9320 B( 22-C , 25-C ) :   1.0465 B( 25-C , 26-H ) :   0.9509
B( 25-C , 27-H ) :   0.9599 B( 25-C , 28-C ) :   1.0809 B( 28-C , 29-H ) :   0.9752
B( 28-C , 30-H ) :   0.9752 B( 28-C , 31-H ) :   0.9773

Dispersion correction           -0.014578573
FINAL SINGLE POINT ENERGY     -1339.861878817208

DIPOLE MOMENT
-------------
                                X             Y             Z
Electronic contribution:     -2.23154     -14.70221     -13.79856
Nuclear contribution   :      2.18429      14.93079      13.96576
                        -----------------------------------------
Total Dipole Moment    :     -0.04725       0.22857       0.16720
                        -----------------------------------------
Magnitude (a.u.)       :      0.28711
Magnitude (Debye)      :      0.72979

Rotational constants in cm-1:     0.020308     0.008754     0.006829
Rotational constants in MHz :   608.818907   262.452309   204.741544

                             ****ORCA TERMINATED NORMALLY****
TOTAL RUN TIME: 0 days 0 hours 0 minutes 34 seconds 456 msec
