                         Program Version 4.2.1 -  RELEASE  -
|  1> ! wB97X-D3 SP def2-SVP
|  2> %pal
|  3> nprocs 16
|  4> end
|  5>
|  6> * xyz 0 1
|  7> S 	 11.9194 	 -5.24033 	 67.7037
|  8> C 	 11.3166 	 -4.19931 	 69.0244
|  9> C 	 11.4775 	 -4.89819 	 70.2304
| 10> C 	 12.0244 	 -6.24197 	 70.0749
| 11> C 	 12.2705 	 -6.5119 	 68.7302
| 12> H 	 12.2858 	 -7.03192 	 70.7261
| 13> C 	 11.0446 	 -4.45448 	 71.6007
| 14> H 	 10.3692 	 -5.23746 	 72.0204
| 15> H 	 10.3653 	 -3.589 	 71.4088
| 16> C 	 12.1177 	 -3.98984 	 72.5845
| 17> H 	 12.9163 	 -4.76438 	 72.7291
| 18> H 	 12.5453 	 -3.12474 	 72.0812
| 19> C 	 11.5255 	 -3.6407 	 73.9193
| 20> H 	 11.219 	 -4.50858 	 74.4683
| 21> H 	 12.2875 	 -2.99406 	 74.4322
| 22> H 	 10.6512 	 -3.02564 	 73.7389
| 23> S 	 12.7757 	 -9.10888 	 69.3744
| 24> C 	 13.5247 	 -10.1884 	 68.2478
| 25> C 	 13.8367 	 -9.49374 	 67.0826
| 26> C 	 13.4855 	 -8.1264 	 67.0815
| 27> C 	 12.8188 	 -7.80666 	 68.2614
| 28> H 	 14.25 	 -10.0514 	 66.2519
| 29> C 	 13.8897 	 -7.2772 	 65.9098
| 30> H 	 14.4161 	 -6.38096 	 66.2276
| 31> H 	 12.9539 	 -6.84725 	 65.577
| 32> C 	 14.5653 	 -7.94786 	 64.7735
| 33> H 	 13.9171 	 -8.58496 	 64.1587
| 34> H 	 15.3596 	 -8.48093 	 65.2043
| 35> C 	 15.0845 	 -6.83744 	 63.85
| 36> H 	 15.8139 	 -6.14955 	 64.315
| 37> H 	 14.2077 	 -6.45992 	 63.2667
| 38> H 	 15.654 	 -7.29565 	 63.0317
| 39> H 	 10.8864 	 -3.25159 	 68.92
| 40> H 	 13.4888 	 -11.21 	 68.3214
| 41> *
| 42>
| 43>                          ****END OF INPUT****

CARTESIAN COORDINATES (ANGSTROEM)
---------------------------------
  S     11.919400   -5.240330   67.703700
  C     11.316600   -4.199310   69.024400
  C     11.477500   -4.898190   70.230400
  C     12.024400   -6.241970   70.074900
  C     12.270500   -6.511900   68.730200
  H     12.285800   -7.031920   70.726100
  C     11.044600   -4.454480   71.600700
  H     10.369200   -5.237460   72.020400
  H     10.365300   -3.589000   71.408800
  C     12.117700   -3.989840   72.584500
  H     12.916300   -4.764380   72.729100
  H     12.545300   -3.124740   72.081200
  C     11.525500   -3.640700   73.919300
  H     11.219000   -4.508580   74.468300
  H     12.287500   -2.994060   74.432200
  H     10.651200   -3.025640   73.738900
  S     12.775700   -9.108880   69.374400
  C     13.524700  -10.188400   68.247800
  C     13.836700   -9.493740   67.082600
  C     13.485500   -8.126400   67.081500
  C     12.818800   -7.806660   68.261400
  H     14.250000  -10.051400   66.251900
  C     13.889700   -7.277200   65.909800
  H     14.416100   -6.380960   66.227600
  H     12.953900   -6.847250   65.577000
  C     14.565300   -7.947860   64.773500
  H     13.917100   -8.584960   64.158700
  H     15.359600   -8.480930   65.204300
  C     15.084500   -6.837440   63.850000
  H     15.813900   -6.149550   64.315000
  H     14.207700   -6.459920   63.266700
  H     15.654000   -7.295650   63.031700
  H     10.886400   -3.251590   68.920000
  H     13.488800  -11.210000   68.321400

 Total Charge           Charge          ....    0
 Multiplicity           Mult            ....    1
 Number of Electrons    NEL             ....  134
 Basis Dimension        Dim             ....  322

ORBITAL ENERGIES
----------------

  NO   OCC          E(Eh)            E(eV)
   0   2.0000     -88.967629     -2420.9323
   1   2.0000     -88.967094     -2420.9177
   2   2.0000     -10.325979      -280.9842
   3   2.0000     -10.325628      -280.9746
   4   2.0000     -10.313590      -280.6471
   5   2.0000     -10.308947      -280.5207
   6   2.0000     -10.307169      -280.4723
   7   2.0000     -10.300159      -280.2816
   8   2.0000     -10.291208      -280.0380
   9   2.0000     -10.290323      -280.0139
  10   2.0000     -10.287380      -279.9338
  11   2.0000     -10.285115      -279.8722
  12   2.0000     -10.284748      -279.8622
  13   2.0000     -10.283257      -279.8217
  14   2.0000     -10.282618      -279.8043
  15   2.0000     -10.276446      -279.6363
  16   2.0000      -8.082571      -219.9379
  17   2.0000      -8.082505      -219.9361
  18   2.0000      -6.041161      -164.3883
  19   2.0000      -6.040979      -164.3834
  20   2.0000      -6.036904      -164.2725
  21   2.0000      -6.036811      -164.2700
  22   2.0000      -6.033435      -164.1781
  23   2.0000      -6.033394      -164.1770
  24   2.0000      -1.012864       -27.5614
  25   2.0000      -0.986670       -26.8487
  26   2.0000      -0.924462       -25.1559
  27   2.0000      -0.914507       -24.8850
  28   2.0000      -0.869814       -23.6688
  29   2.0000      -0.858975       -23.3739
  30   2.0000      -0.846479       -23.0339
  31   2.0000      -0.811216       -22.0743
  32   2.0000      -0.782243       -21.2859
  33   2.0000      -0.772326       -21.0161
  34   2.0000      -0.711845       -19.3703
  35   2.0000      -0.700069       -19.0498
  36   2.0000      -0.693502       -18.8711
  37   2.0000      -0.664904       -18.0930
  38   2.0000      -0.634472       -17.2649
  39   2.0000      -0.614807       -16.7298
  40   2.0000      -0.604819       -16.4579
  41   2.0000      -0.586252       -15.9527
  42   2.0000      -0.571072       -15.5397
  43   2.0000      -0.566254       -15.4085
  44   2.0000      -0.532284       -14.4842
  45   2.0000      -0.522561       -14.2196
  46   2.0000      -0.521128       -14.1806
  47   2.0000      -0.513582       -13.9753
  48   2.0000      -0.510301       -13.8860
  49   2.0000      -0.502523       -13.6744
  50   2.0000      -0.489805       -13.3283
  51   2.0000      -0.477565       -12.9952
  52   2.0000      -0.471780       -12.8378
  53   2.0000      -0.464348       -12.6356
  54   2.0000      -0.462483       -12.5848
  55   2.0000      -0.449521       -12.2321
  56   2.0000      -0.441037       -12.0012
  57   2.0000      -0.440588       -11.9890
  58   2.0000      -0.433497       -11.7960
  59   2.0000      -0.425014       -11.5652
  60   2.0000      -0.420298       -11.4369
  61   2.0000      -0.415039       -11.2938
  62   2.0000      -0.411128       -11.1874
  63   2.0000      -0.356937        -9.7127
  64   2.0000      -0.332665        -9.0523
  65   2.0000      -0.327252        -8.9050
  66   2.0000      -0.281765        -7.6672
  67   0.0000       0.024255         0.6600
  68   0.0000       0.084213         2.2916
  69   0.0000       0.113565         3.0903
  70   0.0000       0.120638         3.2827
  71   0.0000       0.136183         3.7057

MULLIKEN ATOMIC CHARGES
-----------------------
   0 S :    0.089808
   1 C :   -0.097866
   2 C :   -0.057665
   3 C :   -0.011873
   4 C :   -0.110015
   5 H :    0.006606
   6 C :    0.011910
   7 H :    0.037520
   8 H :    0.013280
   9 C :   -0.071984
  10 H :    0.037700
  11 H :    0.025835
  12 C :   -0.023170
  13 H :    0.035831
  14 H :    0.044532
  15 H :    0.018840
  16 S :    0.085876
  17 C :   -0.040891
  18 C :   -0.076494
  19 C :   -0.053618
  20 C :   -0.116237
  21 H :    0.024528
  22 C :    0.065561
  23 H :    0.029539
  24 H :    0.019246
  25 C :   -0.062938
  26 H :    0.038190
  27 H :    0.026424
  28 C :   -0.053732
  29 H :    0.050171
  30 H :    0.040793
  31 H :    0.019453
  32 H :    0.026381
  33 H :    0.028458
Sum of atomic charges:   -0.0000000

LOEWDIN ATOMIC CHARGES
----------------------
   0 S :    0.432383
   1 C :   -0.196572
   2 C :   -0.046250
   3 C :   -0.083707
   4 C :   -0.202354
   5 H :    0.014594
   6 C :   -0.043663
   7 H :    0.033270
   8 H :    0.028863
   9 C :   -0.043222
  10 H :    0.027096
  11 H :    0.025401
  12 C :   -0.062701
  13 H :    0.023952
  14 H :    0.035715
  15 H :    0.022262
  16 S :    0.439503
  17 C :   -0.184435
  18 C :   -0.068977
  19 C :   -0.061538
  20 C :   -0.201374
  21 H :    0.031036
  22 C :   -0.042157
  23 H :    0.032763
  24 H :    0.027224
  25 C :   -0.038483
  26 H :    0.030409
  27 H :    0.017435
  28 C :   -0.067142
  29 H :    0.031041
  30 H :    0.034581
  31 H :    0.023999
  32 H :    0.018550
  33 H :    0.012499

  Mayer bond orders larger than 0.100000
B(  0-S ,  1-C ) :   1.1051 B(  0-S ,  4-C ) :   1.1760 B(  1-C ,  2-C ) :   1.6063
B(  1-C , 32-H ) :   0.9800 B(  2-C ,  3-C ) :   1.2180 B(  2-C ,  6-C ) :   1.0324
B(  3-C ,  4-C ) :   1.5521 B(  3-C ,  5-H ) :   0.9886 B(  4-C , 20-C ) :   1.0492
B(  6-C ,  7-H ) :   0.9439 B(  6-C ,  8-H ) :   0.9362 B(  6-C ,  9-C ) :   1.0602
B(  9-C , 10-H ) :   0.9564 B(  9-C , 11-H ) :   0.9511 B(  9-C , 12-C ) :   1.0862
B( 12-C , 13-H ) :   0.9743 B( 12-C , 14-H ) :   0.9728 B( 12-C , 15-H ) :   0.9700
B( 16-S , 17-C ) :   1.1630 B( 16-S , 20-C ) :   1.1659 B( 17-C , 18-C ) :   1.5740
B( 17-C , 33-H ) :   0.9731 B( 18-C , 19-C ) :   1.2918 B( 18-C , 21-H ) :   0.9790
B( 19-C , 20-C ) :   1.5465 B( 19-C , 22-C ) :   1.0133 B( 22-C , 23-H ) :   0.9290
B( 22-C , 24-H ) :   0.9089 B( 22-C , 25-C ) :   1.0998 B( 25-C , 26-H ) :   0.9446
B( 25-C , 27-H ) :   0.9404 B( 25-C , 28-C ) :   1.0975 B( 28-C , 29-H ) :   0.9732
B( 28-C , 30-H ) :   0.9707 B( 28-C , 31-H ) :   0.9696

Dispersion correction           -0.013031333
FINAL SINGLE POINT ENERGY     -1339.872201112421

DIPOLE MOMENT
-------------
                                X             Y             Z
Electronic contribution:     -4.82675     -10.39799      -1.43976
Nuclear contribution   :      4.92601      10.41566       1.29228
                        -----------------------------------------
Total Dipole Moment    :      0.09925       0.01767      -0.14748
                        -----------------------------------------
Magnitude (a.u.)       :      0.17865
Magnitude (Debye)      :      0.45409

Rotational constants in cm-1:     0.023900     0.007085     0.005785
Rotational constants in MHz :   716.511706   212.393747   173.443352

                             ****ORCA TERMINATED NORMALLY****
TOTAL RUN TIME: 0 days 0 hours 0 minutes 31 seconds 89 msec
