                         Program Version 4.2.1 -  RELEASE  -
|  1> ! wB97X-D3 SP def2-SVP
|  2> %pal
|  3> nprocs 16
|  4> end
|  5>
|  6> * xyz 0 1
|  7> S 	 -94.9768 	 57.0757 	 124.028
|  8> C 	 -96.5221 	 57.1571 	 123.218
|  9> C 	 -97.2307 	 55.9937 	 123.362
| 10> C 	 -96.5639 	 55.0941 	 124.205
| 11> C 	 -95.3325 	 55.4463 	 124.605
| 12> H 	 -97.0262 	 54.2316 	 124.58
| 13> C 	 -98.5043 	 55.7196 	 122.596
| 14> H 	 -98.2873 	 55.6396 	 121.545
| 15> H 	 -99.122 	 56.5693 	 122.642
| 16> C 	 -99.3239 	 54.5644 	 123.067
| 17> H 	 -98.6944 	 53.7268 	 123.079
| 18> H 	 -99.5776 	 54.6978 	 124.125
| 19> C 	 -100.507 	 54.2332 	 122.183
| 20> H 	 -101.346 	 54.9123 	 122.421
| 21> H 	 -100.211 	 54.312 	 121.138
| 22> H 	 -100.719 	 53.1861 	 122.373
| 23> S 	 -93.7509 	 56.043 	 126.749
| 24> C 	 -93.4908 	 54.958 	 128.013
| 25> C 	 -93.8759 	 53.6514 	 127.599
| 26> C 	 -94.3914 	 53.6062 	 126.251
| 27> C 	 -94.4914 	 54.8952 	 125.663
| 28> H 	 -93.7294 	 52.7805 	 128.255
| 29> C 	 -94.8804 	 52.2507 	 125.788
| 30> H 	 -95.3618 	 52.4573 	 124.827
| 31> H 	 -95.6576 	 51.9057 	 126.475
| 32> C 	 -93.6894 	 51.2814 	 125.546
| 33> H 	 -92.9855 	 51.2372 	 126.324
| 34> H 	 -93.2125 	 51.5814 	 124.607
| 35> C 	 -94.1629 	 49.8489 	 125.127
| 36> H 	 -94.7543 	 49.8532 	 124.114
| 37> H 	 -94.7701 	 49.371 	 125.875
| 38> H 	 -93.2752 	 49.1762 	 125.088
| 39> H 	 -96.8872 	 58.0155 	 122.684
| 40> H 	 -93.1341 	 55.2112 	 129.1
| 41> *
| 42>
| 43>                          ****END OF INPUT****

CARTESIAN COORDINATES (ANGSTROEM)
---------------------------------
  S    -94.976800   57.075700  124.028000
  C    -96.522100   57.157100  123.218000
  C    -97.230700   55.993700  123.362000
  C    -96.563900   55.094100  124.205000
  C    -95.332500   55.446300  124.605000
  H    -97.026200   54.231600  124.580000
  C    -98.504300   55.719600  122.596000
  H    -98.287300   55.639600  121.545000
  H    -99.122000   56.569300  122.642000
  C    -99.323900   54.564400  123.067000
  H    -98.694400   53.726800  123.079000
  H    -99.577600   54.697800  124.125000
  C    -100.507000   54.233200  122.183000
  H    -101.346000   54.912300  122.421000
  H    -100.211000   54.312000  121.138000
  H    -100.719000   53.186100  122.373000
  S    -93.750900   56.043000  126.749000
  C    -93.490800   54.958000  128.013000
  C    -93.875900   53.651400  127.599000
  C    -94.391400   53.606200  126.251000
  C    -94.491400   54.895200  125.663000
  H    -93.729400   52.780500  128.255000
  C    -94.880400   52.250700  125.788000
  H    -95.361800   52.457300  124.827000
  H    -95.657600   51.905700  126.475000
  C    -93.689400   51.281400  125.546000
  H    -92.985500   51.237200  126.324000
  H    -93.212500   51.581400  124.607000
  C    -94.162900   49.848900  125.127000
  H    -94.754300   49.853200  124.114000
  H    -94.770100   49.371000  125.875000
  H    -93.275200   49.176200  125.088000
  H    -96.887200   58.015500  122.684000
  H    -93.134100   55.211200  129.100000

 Total Charge           Charge          ....    0
 Multiplicity           Mult            ....    1
 Number of Electrons    NEL             ....  134
 Basis Dimension        Dim             ....  322

ORBITAL ENERGIES
----------------

  NO   OCC          E(Eh)            E(eV)
   0   2.0000     -88.965501     -2420.8744
   1   2.0000     -88.962005     -2420.7792
   2   2.0000     -10.330219      -281.0995
   3   2.0000     -10.328129      -281.0427
   4   2.0000     -10.326038      -280.9858
   5   2.0000     -10.308739      -280.5150
   6   2.0000     -10.307132      -280.4713
   7   2.0000     -10.297160      -280.2000
   8   2.0000     -10.294812      -280.1361
   9   2.0000     -10.294443      -280.1260
  10   2.0000     -10.288068      -279.9526
  11   2.0000     -10.287648      -279.9411
  12   2.0000     -10.283556      -279.8298
  13   2.0000     -10.282112      -279.7905
  14   2.0000     -10.280168      -279.7376
  15   2.0000     -10.277002      -279.6514
  16   2.0000      -8.081285      -219.9029
  17   2.0000      -8.076962      -219.7853
  18   2.0000      -6.039777      -164.3507
  19   2.0000      -6.035530      -164.2351
  20   2.0000      -6.035321      -164.2294
  21   2.0000      -6.032288      -164.1469
  22   2.0000      -6.031502      -164.1255
  23   2.0000      -6.027591      -164.0191
  24   2.0000      -1.011391       -27.5213
  25   2.0000      -0.987633       -26.8749
  26   2.0000      -0.921954       -25.0876
  27   2.0000      -0.908298       -24.7160
  28   2.0000      -0.871885       -23.7252
  29   2.0000      -0.852925       -23.2093
  30   2.0000      -0.843668       -22.9574
  31   2.0000      -0.816639       -22.2219
  32   2.0000      -0.781218       -21.2580
  33   2.0000      -0.770279       -20.9604
  34   2.0000      -0.712531       -19.3890
  35   2.0000      -0.699593       -19.0369
  36   2.0000      -0.686894       -18.6913
  37   2.0000      -0.659837       -17.9551
  38   2.0000      -0.641311       -17.4510
  39   2.0000      -0.628476       -17.1017
  40   2.0000      -0.593637       -16.1537
  41   2.0000      -0.578408       -15.7393
  42   2.0000      -0.564864       -15.3707
  43   2.0000      -0.562962       -15.3190
  44   2.0000      -0.529365       -14.4047
  45   2.0000      -0.522877       -14.2282
  46   2.0000      -0.516971       -14.0675
  47   2.0000      -0.511047       -13.9063
  48   2.0000      -0.506276       -13.7765
  49   2.0000      -0.505392       -13.7524
  50   2.0000      -0.492469       -13.4008
  51   2.0000      -0.485660       -13.2155
  52   2.0000      -0.476016       -12.9531
  53   2.0000      -0.460536       -12.5318
  54   2.0000      -0.459226       -12.4962
  55   2.0000      -0.452650       -12.3172
  56   2.0000      -0.443350       -12.0642
  57   2.0000      -0.438158       -11.9229
  58   2.0000      -0.430350       -11.7104
  59   2.0000      -0.424151       -11.5417
  60   2.0000      -0.421051       -11.4574
  61   2.0000      -0.420079       -11.4309
  62   2.0000      -0.409078       -11.1316
  63   2.0000      -0.357719        -9.7340
  64   2.0000      -0.333427        -9.0730
  65   2.0000      -0.324488        -8.8298
  66   2.0000      -0.281660        -7.6643
  67   0.0000       0.024673         0.6714
  68   0.0000       0.077296         2.1033
  69   0.0000       0.106482         2.8975
  70   0.0000       0.116819         3.1788
  71   0.0000       0.140227         3.8158

MULLIKEN ATOMIC CHARGES
-----------------------
   0 S :    0.084541
   1 C :   -0.124773
   2 C :   -0.074651
   3 C :   -0.004443
   4 C :   -0.091316
   5 H :   -0.008672
   6 C :    0.105333
   7 H :    0.028666
   8 H :    0.004453
   9 C :   -0.112687
  10 H :    0.012250
  11 H :    0.029649
  12 C :   -0.009377
  13 H :    0.043943
  14 H :    0.026735
  15 H :    0.031614
  16 S :    0.109159
  17 C :   -0.126392
  18 C :   -0.064058
  19 C :   -0.077005
  20 C :   -0.113521
  21 H :    0.030974
  22 C :    0.067660
  23 H :    0.015359
  24 H :    0.042466
  25 C :   -0.063568
  26 H :    0.028780
  27 H :    0.039956
  28 C :   -0.083620
  29 H :    0.050579
  30 H :    0.022544
  31 H :    0.038541
  32 H :    0.039137
  33 H :    0.101744
Sum of atomic charges:    0.0000000

LOEWDIN ATOMIC CHARGES
----------------------
   0 S :    0.389732
   1 C :   -0.187503
   2 C :   -0.061487
   3 C :   -0.065957
   4 C :   -0.177878
   5 H :    0.022223
   6 C :   -0.028260
   7 H :    0.031701
   8 H :    0.024458
   9 C :   -0.046687
  10 H :    0.012677
  11 H :    0.026340
  12 C :   -0.056323
  13 H :    0.029988
  14 H :    0.025636
  15 H :    0.029277
  16 S :    0.441751
  17 C :   -0.228413
  18 C :   -0.082574
  19 C :   -0.055791
  20 C :   -0.210139
  21 H :    0.031756
  22 C :   -0.033058
  23 H :    0.028708
  24 H :    0.032476
  25 C :   -0.031563
  26 H :    0.015052
  27 H :    0.034728
  28 C :   -0.075666
  29 H :    0.036912
  30 H :    0.014270
  31 H :    0.029629
  32 H :    0.025695
  33 H :    0.058291

  Mayer bond orders larger than 0.100000
B(  0-S ,  1-C ) :   1.1354 B(  0-S ,  4-C ) :   1.1356 B(  1-C ,  2-C ) :   1.6210
B(  1-C , 32-H ) :   0.9743 B(  2-C ,  3-C ) :   1.2594 B(  2-C ,  6-C ) :   1.0027
B(  3-C ,  4-C ) :   1.5766 B(  3-C ,  5-H ) :   0.9979 B(  4-C , 20-C ) :   1.0425
B(  6-C ,  7-H ) :   0.9308 B(  6-C ,  8-H ) :   0.9295 B(  6-C ,  9-C ) :   1.0928
B(  9-C , 10-H ) :   0.9432 B(  9-C , 11-H ) :   0.9526 B(  9-C , 12-C ) :   1.0840
B( 12-C , 13-H ) :   0.9753 B( 12-C , 14-H ) :   0.9721 B( 12-C , 15-H ) :   0.9738
B( 16-S , 17-C ) :   1.1972 B( 16-S , 20-C ) :   1.1509 B( 17-C , 18-C ) :   1.5476
B( 17-C , 33-H ) :   0.9544 B( 18-C , 19-C ) :   1.2861 B( 18-C , 21-H ) :   0.9866
B( 19-C , 20-C ) :   1.5420 B( 19-C , 22-C ) :   1.0424 B( 22-C , 23-H ) :   0.9311
B( 22-C , 24-H ) :   0.9447 B( 22-C , 25-C ) :   1.0543 B( 25-C , 26-H ) :   0.9671
B( 25-C , 27-H ) :   0.9540 B( 25-C , 28-C ) :   1.0764 B( 28-C , 29-H ) :   0.9746
B( 28-C , 30-H ) :   0.9767 B( 28-C , 31-H ) :   0.9745

Dispersion correction           -0.013151084
FINAL SINGLE POINT ENERGY     -1339.866204746698

DIPOLE MOMENT
-------------
                                X             Y             Z
Electronic contribution:     16.81861      24.27382       8.88653
Nuclear contribution   :    -17.33754     -24.78986      -8.81045
                        -----------------------------------------
Total Dipole Moment    :     -0.51893      -0.51603       0.07609
                        -----------------------------------------
Magnitude (a.u.)       :      0.73578
Magnitude (Debye)      :      1.87020

Rotational constants in cm-1:     0.015954     0.008804     0.006222
Rotational constants in MHz :   478.286443   263.933886   186.525631

                             ****ORCA TERMINATED NORMALLY****
TOTAL RUN TIME: 0 days 0 hours 0 minutes 32 seconds 875 msec
