                         Program Version 4.2.1 -  RELEASE  -
|  1> ! wB97X-D3 SP def2-SVP
|  2> %pal
|  3> nprocs 16
|  4> end
|  5>
|  6> * xyz 0 1
|  7> S 	 -116.589 	 45.7669 	 135.007
|  8> C 	 -116.735 	 45.8701 	 133.331
|  9> C 	 -115.807 	 46.7534 	 132.763
| 10> C 	 -114.946 	 47.3676 	 133.719
| 11> C 	 -115.345 	 46.9667 	 135.028
| 12> H 	 -114.217 	 48.0702 	 133.657
| 13> C 	 -115.543 	 46.9084 	 131.25
| 14> H 	 -115.093 	 47.8447 	 130.998
| 15> H 	 -116.461 	 46.8457 	 130.77
| 16> C 	 -114.554 	 45.933 	 130.548
| 17> H 	 -114.66 	 46.0488 	 129.432
| 18> H 	 -113.542 	 46.3442 	 130.853
| 19> C 	 -114.523 	 44.4779 	 131.012
| 20> H 	 -115.47 	 43.9967 	 130.85
| 21> H 	 -113.752 	 43.8997 	 130.424
| 22> H 	 -114.134 	 44.3377 	 132.007
| 23> S 	 -115.495 	 48.6085 	 137.305
| 24> C 	 -114.058 	 48.7106 	 138.322
| 25> C 	 -113.186 	 47.7131 	 137.953
| 26> C 	 -113.517 	 46.9759 	 136.798
| 27> C 	 -114.736 	 47.381 	 136.281
| 28> H 	 -112.292 	 47.5749 	 138.526
| 29> C 	 -112.659 	 45.854 	 136.224
| 30> H 	 -111.924 	 46.3466 	 135.505
| 31> H 	 -113.343 	 45.2516 	 135.609
| 32> C 	 -112.099 	 44.8838 	 137.302
| 33> H 	 -113.003 	 44.3824 	 137.672
| 34> H 	 -111.767 	 45.2932 	 138.195
| 35> C 	 -111.217 	 43.73 	 136.863
| 36> H 	 -110.983 	 43.0768 	 137.782
| 37> H 	 -110.278 	 44.0589 	 136.531
| 38> H 	 -111.691 	 43.1404 	 136.067
| 39> H 	 -117.342 	 45.2458 	 132.654
| 40> H 	 -113.839 	 49.2754 	 139.251
| 41> *
| 42>
| 43>                          ****END OF INPUT****

CARTESIAN COORDINATES (ANGSTROEM)
---------------------------------
  S    -116.589000   45.766900  135.007000
  C    -116.735000   45.870100  133.331000
  C    -115.807000   46.753400  132.763000
  C    -114.946000   47.367600  133.719000
  C    -115.345000   46.966700  135.028000
  H    -114.217000   48.070200  133.657000
  C    -115.543000   46.908400  131.250000
  H    -115.093000   47.844700  130.998000
  H    -116.461000   46.845700  130.770000
  C    -114.554000   45.933000  130.548000
  H    -114.660000   46.048800  129.432000
  H    -113.542000   46.344200  130.853000
  C    -114.523000   44.477900  131.012000
  H    -115.470000   43.996700  130.850000
  H    -113.752000   43.899700  130.424000
  H    -114.134000   44.337700  132.007000
  S    -115.495000   48.608500  137.305000
  C    -114.058000   48.710600  138.322000
  C    -113.186000   47.713100  137.953000
  C    -113.517000   46.975900  136.798000
  C    -114.736000   47.381000  136.281000
  H    -112.292000   47.574900  138.526000
  C    -112.659000   45.854000  136.224000
  H    -111.924000   46.346600  135.505000
  H    -113.343000   45.251600  135.609000
  C    -112.099000   44.883800  137.302000
  H    -113.003000   44.382400  137.672000
  H    -111.767000   45.293200  138.195000
  C    -111.217000   43.730000  136.863000
  H    -110.983000   43.076800  137.782000
  H    -110.278000   44.058900  136.531000
  H    -111.691000   43.140400  136.067000
  H    -117.342000   45.245800  132.654000
  H    -113.839000   49.275400  139.251000

 Total Charge           Charge          ....    0
 Multiplicity           Mult            ....    1
 Number of Electrons    NEL             ....  134
 Basis Dimension        Dim             ....  322

ORBITAL ENERGIES
----------------

  NO   OCC          E(Eh)            E(eV)
   0   2.0000     -88.972360     -2421.0610
   1   2.0000     -88.965528     -2420.8751
   2   2.0000     -10.327251      -281.0188
   3   2.0000     -10.322668      -280.8941
   4   2.0000     -10.318904      -280.7917
   5   2.0000     -10.313339      -280.6402
   6   2.0000     -10.303905      -280.3835
   7   2.0000     -10.299898      -280.2745
   8   2.0000     -10.299692      -280.2689
   9   2.0000     -10.294628      -280.1311
  10   2.0000     -10.293064      -280.0885
  11   2.0000     -10.286758      -279.9169
  12   2.0000     -10.284470      -279.8547
  13   2.0000     -10.281977      -279.7868
  14   2.0000     -10.280495      -279.7465
  15   2.0000     -10.276431      -279.6359
  16   2.0000      -8.087979      -220.0851
  17   2.0000      -8.079532      -219.8552
  18   2.0000      -6.046158      -164.5243
  19   2.0000      -6.042161      -164.4156
  20   2.0000      -6.039257      -164.3365
  21   2.0000      -6.038159      -164.3067
  22   2.0000      -6.034087      -164.1959
  23   2.0000      -6.030251      -164.0915
  24   2.0000      -1.008482       -27.4422
  25   2.0000      -0.985627       -26.8203
  26   2.0000      -0.906570       -24.6690
  27   2.0000      -0.905997       -24.6534
  28   2.0000      -0.868382       -23.6299
  29   2.0000      -0.851829       -23.1795
  30   2.0000      -0.849795       -23.1241
  31   2.0000      -0.812347       -22.1051
  32   2.0000      -0.787070       -21.4173
  33   2.0000      -0.771517       -20.9941
  34   2.0000      -0.705849       -19.2071
  35   2.0000      -0.701673       -19.0935
  36   2.0000      -0.687907       -18.7189
  37   2.0000      -0.653629       -17.7861
  38   2.0000      -0.648911       -17.6578
  39   2.0000      -0.612938       -16.6789
  40   2.0000      -0.592342       -16.1184
  41   2.0000      -0.567372       -15.4390
  42   2.0000      -0.559819       -15.2335
  43   2.0000      -0.558735       -15.2039
  44   2.0000      -0.534183       -14.5359
  45   2.0000      -0.524813       -14.2809
  46   2.0000      -0.519734       -14.1427
  47   2.0000      -0.513385       -13.9699
  48   2.0000      -0.505134       -13.7454
  49   2.0000      -0.498527       -13.5656
  50   2.0000      -0.494738       -13.4625
  51   2.0000      -0.476276       -12.9601
  52   2.0000      -0.468491       -12.7483
  53   2.0000      -0.467940       -12.7333
  54   2.0000      -0.464102       -12.6289
  55   2.0000      -0.448766       -12.2115
  56   2.0000      -0.447411       -12.1747
  57   2.0000      -0.432315       -11.7639
  58   2.0000      -0.429818       -11.6959
  59   2.0000      -0.422343       -11.4925
  60   2.0000      -0.419113       -11.4046
  61   2.0000      -0.412325       -11.2199
  62   2.0000      -0.412034       -11.2120
  63   2.0000      -0.339364        -9.2346
  64   2.0000      -0.330196        -8.9851
  65   2.0000      -0.320492        -8.7210
  66   2.0000      -0.305204        -8.3050
  67   0.0000       0.041838         1.1385
  68   0.0000       0.053051         1.4436
  69   0.0000       0.119091         3.2406
  70   0.0000       0.122012         3.3201
  71   0.0000       0.129055         3.5118

MULLIKEN ATOMIC CHARGES
-----------------------
   0 S :    0.151660
   1 C :   -0.110413
   2 C :   -0.106043
   3 C :    0.098021
   4 C :   -0.224517
   5 H :   -0.026531
   6 C :    0.114248
   7 H :    0.016703
   8 H :    0.006754
   9 C :   -0.121304
  10 H :    0.046992
  11 H :    0.025040
  12 C :   -0.038657
  13 H :    0.026283
  14 H :    0.030013
  15 H :    0.037628
  16 S :    0.116976
  17 C :   -0.097288
  18 C :   -0.051739
  19 C :   -0.018213
  20 C :   -0.192338
  21 H :    0.009502
  22 C :    0.099221
  23 H :    0.049170
  24 H :    0.029225
  25 C :   -0.084485
  26 H :    0.024131
  27 H :    0.010149
  28 C :   -0.036035
  29 H :    0.041888
  30 H :    0.018149
  31 H :    0.035539
  32 H :    0.052665
  33 H :    0.067609
Sum of atomic charges:    0.0000000

LOEWDIN ATOMIC CHARGES
----------------------
   0 S :    0.459783
   1 C :   -0.227734
   2 C :   -0.059788
   3 C :   -0.037459
   4 C :   -0.206358
   5 H :    0.016343
   6 C :   -0.029073
   7 H :    0.029860
   8 H :    0.017009
   9 C :   -0.045356
  10 H :    0.031615
  11 H :    0.025580
  12 C :   -0.072361
  13 H :    0.017501
  14 H :    0.033048
  15 H :    0.026442
  16 S :    0.395551
  17 C :   -0.191430
  18 C :   -0.075725
  19 C :   -0.055646
  20 C :   -0.209543
  21 H :    0.025560
  22 C :   -0.030544
  23 H :    0.038068
  24 H :    0.031420
  25 C :   -0.045835
  26 H :    0.033177
  27 H :    0.010944
  28 C :   -0.060936
  29 H :    0.039202
  30 H :    0.012413
  31 H :    0.026880
  32 H :    0.034254
  33 H :    0.043137

  Mayer bond orders larger than 0.100000
B(  0-S ,  1-C ) :   1.1700 B(  0-S ,  4-C ) :   1.1929 B(  1-C ,  2-C ) :   1.5681
B(  1-C ,  4-C ) :   0.1017 B(  1-C , 32-H ) :   0.9619 B(  2-C ,  3-C ) :   1.2580
B(  2-C ,  6-C ) :   1.0358 B(  3-C ,  4-C ) :   1.5296 B(  3-C ,  5-H ) :   1.0157
B(  4-C , 20-C ) :   1.0208 B(  6-C ,  7-H ) :   0.9453 B(  6-C ,  8-H ) :   0.9356
B(  6-C ,  9-C ) :   1.0544 B(  9-C , 10-H ) :   0.9569 B(  9-C , 11-H ) :   0.9594
B(  9-C , 12-C ) :   1.0913 B( 12-C , 13-H ) :   0.9763 B( 12-C , 14-H ) :   0.9704
B( 12-C , 15-H ) :   0.9673 B( 16-S , 17-C ) :   1.1452 B( 16-S , 20-C ) :   1.1398
B( 17-C , 18-C ) :   1.6226 B( 17-C , 20-C ) :   0.1018 B( 17-C , 33-H ) :   0.9591
B( 18-C , 19-C ) :   1.2506 B( 18-C , 21-H ) :   0.9860 B( 19-C , 20-C ) :   1.5936
B( 19-C , 22-C ) :   1.0334 B( 22-C , 23-H ) :   0.9322 B( 22-C , 24-H ) :   0.9314
B( 22-C , 25-C ) :   1.0426 B( 25-C , 26-H ) :   0.9501 B( 25-C , 27-H ) :   0.9619
B( 25-C , 28-C ) :   1.0939 B( 28-C , 29-H ) :   0.9714 B( 28-C , 30-H ) :   0.9757
B( 28-C , 31-H ) :   0.9735

Dispersion correction           -0.014668949
FINAL SINGLE POINT ENERGY     -1339.866092693784

DIPOLE MOMENT
-------------
                                X             Y             Z
Electronic contribution:    -17.90761      15.43322      14.22498
Nuclear contribution   :     18.42399     -15.71063     -14.44930
                        -----------------------------------------
Total Dipole Moment    :      0.51638      -0.27742      -0.22432
                        -----------------------------------------
Magnitude (a.u.)       :      0.62764
Magnitude (Debye)      :      1.59533

Rotational constants in cm-1:     0.017620     0.008964     0.006919
Rotational constants in MHz :   528.231163   268.747621   207.441145

                             ****ORCA TERMINATED NORMALLY****
TOTAL RUN TIME: 0 days 0 hours 0 minutes 33 seconds 237 msec
