                         Program Version 4.2.1 -  RELEASE  -
|  1> ! wB97X-D3 SP def2-SVP
|  2> %pal
|  3> nprocs 16
|  4> end
|  5>
|  6> * xyz 0 1
|  7> S 	 -4.23394 	 -7.77138 	 86.5328
|  8> C 	 -3.6012 	 -8.71369 	 85.2124
|  9> C 	 -2.87541 	 -9.7832 	 85.655
| 10> C 	 -3.04042 	 -9.97882 	 87.0771
| 11> C 	 -3.89665 	 -9.05366 	 87.6597
| 12> H 	 -2.44454 	 -10.8036 	 87.5007
| 13> C 	 -1.95739 	 -10.6343 	 84.8211
| 14> H 	 -2.21634 	 -10.5081 	 83.7811
| 15> H 	 -2.01495 	 -11.6644 	 85.0488
| 16> C 	 -0.552076 	 -10.1172 	 84.949
| 17> H 	 -0.593257 	 -9.05836 	 84.64
| 18> H 	 -0.125178 	 -10.1917 	 85.9157
| 19> C 	 0.349456 	 -10.928 	 84.005
| 20> H 	 0.333292 	 -11.9224 	 84.3709
| 21> H 	 0.123868 	 -10.8848 	 82.9323
| 22> H 	 1.37956 	 -10.551 	 84.2543
| 23> S 	 -5.02453 	 -10.303 	 89.7489
| 24> C 	 -4.82684 	 -9.60318 	 91.3873
| 25> C 	 -4.06008 	 -8.47386 	 91.3754
| 26> C 	 -3.61877 	 -8.14053 	 90.0607
| 27> C 	 -4.07893 	 -8.9736 	 89.1064
| 28> H 	 -3.83395 	 -8.01076 	 92.3477
| 29> C 	 -2.68378 	 -6.94713 	 89.8312
| 30> H 	 -2.36861 	 -6.96978 	 88.8434
| 31> H 	 -1.73291 	 -6.98228 	 90.3498
| 32> C 	 -3.34854 	 -5.55829 	 90.2072
| 33> H 	 -3.5499 	 -5.53533 	 91.24
| 34> H 	 -4.33233 	 -5.63931 	 89.7176
| 35> C 	 -2.58048 	 -4.32678 	 89.7514
| 36> H 	 -2.59813 	 -4.23425 	 88.6792
| 37> H 	 -1.59248 	 -4.25635 	 90.1813
| 38> H 	 -3.04398 	 -3.47077 	 90.1433
| 39> H 	 -3.66993 	 -8.34064 	 84.203
| 40> H 	 -5.21169 	 -10.0586 	 92.3058
| 41> *
| 42>
| 43>                          ****END OF INPUT****

CARTESIAN COORDINATES (ANGSTROEM)
---------------------------------
  S     -4.233940   -7.771380   86.532800
  C     -3.601200   -8.713690   85.212400
  C     -2.875410   -9.783200   85.655000
  C     -3.040420   -9.978820   87.077100
  C     -3.896650   -9.053660   87.659700
  H     -2.444540  -10.803600   87.500700
  C     -1.957390  -10.634300   84.821100
  H     -2.216340  -10.508100   83.781100
  H     -2.014950  -11.664400   85.048800
  C     -0.552076  -10.117200   84.949000
  H     -0.593257   -9.058360   84.640000
  H     -0.125178  -10.191700   85.915700
  C      0.349456  -10.928000   84.005000
  H      0.333292  -11.922400   84.370900
  H      0.123868  -10.884800   82.932300
  H      1.379560  -10.551000   84.254300
  S     -5.024530  -10.303000   89.748900
  C     -4.826840   -9.603180   91.387300
  C     -4.060080   -8.473860   91.375400
  C     -3.618770   -8.140530   90.060700
  C     -4.078930   -8.973600   89.106400
  H     -3.833950   -8.010760   92.347700
  C     -2.683780   -6.947130   89.831200
  H     -2.368610   -6.969780   88.843400
  H     -1.732910   -6.982280   90.349800
  C     -3.348540   -5.558290   90.207200
  H     -3.549900   -5.535330   91.240000
  H     -4.332330   -5.639310   89.717600
  C     -2.580480   -4.326780   89.751400
  H     -2.598130   -4.234250   88.679200
  H     -1.592480   -4.256350   90.181300
  H     -3.043980   -3.470770   90.143300
  H     -3.669930   -8.340640   84.203000
  H     -5.211690  -10.058600   92.305800

 Total Charge           Charge          ....    0
 Multiplicity           Mult            ....    1
 Number of Electrons    NEL             ....  134
 Basis Dimension        Dim             ....  322

ORBITAL ENERGIES
----------------

  NO   OCC          E(Eh)            E(eV)
   0   2.0000     -88.966268     -2420.8952
   1   2.0000     -88.961356     -2420.7616
   2   2.0000     -10.329281      -281.0740
   3   2.0000     -10.321211      -280.8544
   4   2.0000     -10.315836      -280.7082
   5   2.0000     -10.310941      -280.5750
   6   2.0000     -10.298045      -280.2241
   7   2.0000     -10.297100      -280.1983
   8   2.0000     -10.296843      -280.1913
   9   2.0000     -10.292228      -280.0658
  10   2.0000     -10.284845      -279.8649
  11   2.0000     -10.282486      -279.8007
  12   2.0000     -10.281747      -279.7806
  13   2.0000     -10.280511      -279.7469
  14   2.0000     -10.279170      -279.7104
  15   2.0000     -10.269139      -279.4375
  16   2.0000      -8.081174      -219.8999
  17   2.0000      -8.075676      -219.7503
  18   2.0000      -6.039710      -164.3489
  19   2.0000      -6.035838      -164.2435
  20   2.0000      -6.034292      -164.2014
  21   2.0000      -6.031725      -164.1316
  22   2.0000      -6.030366      -164.0946
  23   2.0000      -6.026220      -163.9818
  24   2.0000      -1.007795       -27.4235
  25   2.0000      -0.984698       -26.7950
  26   2.0000      -0.922723       -25.1086
  27   2.0000      -0.900334       -24.4993
  28   2.0000      -0.871210       -23.7068
  29   2.0000      -0.850705       -23.1489
  30   2.0000      -0.845848       -23.0167
  31   2.0000      -0.813389       -22.1334
  32   2.0000      -0.782671       -21.2976
  33   2.0000      -0.771703       -20.9991
  34   2.0000      -0.704435       -19.1686
  35   2.0000      -0.699928       -19.0460
  36   2.0000      -0.696323       -18.9479
  37   2.0000      -0.661195       -17.9920
  38   2.0000      -0.640449       -17.4275
  39   2.0000      -0.622775       -16.9466
  40   2.0000      -0.594955       -16.1895
  41   2.0000      -0.580722       -15.8023
  42   2.0000      -0.564778       -15.3684
  43   2.0000      -0.562069       -15.2947
  44   2.0000      -0.524649       -14.2764
  45   2.0000      -0.523391       -14.2422
  46   2.0000      -0.516339       -14.0503
  47   2.0000      -0.512461       -13.9448
  48   2.0000      -0.507469       -13.8089
  49   2.0000      -0.498191       -13.5565
  50   2.0000      -0.492642       -13.4055
  51   2.0000      -0.474593       -12.9143
  52   2.0000      -0.469495       -12.7756
  53   2.0000      -0.465849       -12.6764
  54   2.0000      -0.459670       -12.5082
  55   2.0000      -0.448764       -12.2115
  56   2.0000      -0.444674       -12.1002
  57   2.0000      -0.439889       -11.9700
  58   2.0000      -0.431411       -11.7393
  59   2.0000      -0.428879       -11.6704
  60   2.0000      -0.423748       -11.5308
  61   2.0000      -0.414315       -11.2741
  62   2.0000      -0.411661       -11.2019
  63   2.0000      -0.341285        -9.2868
  64   2.0000      -0.332191        -9.0394
  65   2.0000      -0.324593        -8.8326
  66   2.0000      -0.299553        -8.1513
  67   0.0000       0.039913         1.0861
  68   0.0000       0.066573         1.8116
  69   0.0000       0.101813         2.7705
  70   0.0000       0.118185         3.2160
  71   0.0000       0.133795         3.6408

MULLIKEN ATOMIC CHARGES
-----------------------
   0 S :    0.110581
   1 C :   -0.129907
   2 C :   -0.091816
   3 C :    0.032686
   4 C :   -0.135301
   5 H :    0.023103
   6 C :    0.101167
   7 H :    0.008991
   8 H :    0.014439
   9 C :   -0.092898
  10 H :    0.029700
  11 H :    0.024160
  12 C :   -0.028963
  13 H :    0.017201
  14 H :    0.044227
  15 H :    0.034698
  16 S :    0.096521
  17 C :   -0.101267
  18 C :   -0.035547
  19 C :   -0.018541
  20 C :   -0.181185
  21 H :    0.029701
  22 C :    0.113493
  23 H :   -0.009576
  24 H :    0.019170
  25 C :   -0.104606
  26 H :    0.018593
  27 H :    0.029821
  28 C :    0.007831
  29 H :    0.034556
  30 H :    0.023110
  31 H :    0.013924
  32 H :    0.044389
  33 H :    0.057546
Sum of atomic charges:    0.0000000

LOEWDIN ATOMIC CHARGES
----------------------
   0 S :    0.413636
   1 C :   -0.196831
   2 C :   -0.060785
   3 C :   -0.056664
   4 C :   -0.206102
   5 H :    0.036120
   6 C :   -0.027576
   7 H :    0.030163
   8 H :    0.021783
   9 C :   -0.033642
  10 H :    0.026664
  11 H :    0.018775
  12 C :   -0.063160
  13 H :    0.018355
  14 H :    0.026110
  15 H :    0.032439
  16 S :    0.384962
  17 C :   -0.171770
  18 C :   -0.070636
  19 C :   -0.061523
  20 C :   -0.189186
  21 H :    0.038693
  22 C :   -0.025046
  23 H :    0.012115
  24 H :    0.027903
  25 C :   -0.034231
  26 H :    0.013407
  27 H :    0.026257
  28 C :   -0.058817
  29 H :    0.026960
  30 H :    0.024911
  31 H :    0.022138
  32 H :    0.024211
  33 H :    0.030368

  Mayer bond orders larger than 0.100000
B(  0-S ,  1-C ) :   1.1394 B(  0-S ,  4-C ) :   1.1506 B(  1-C ,  2-C ) :   1.6050
B(  1-C , 32-H ) :   0.9713 B(  2-C ,  3-C ) :   1.2605 B(  2-C ,  6-C ) :   1.0362
B(  3-C ,  4-C ) :   1.5449 B(  3-C ,  5-H ) :   0.9901 B(  4-C , 20-C ) :   0.9995
B(  6-C ,  7-H ) :   0.9369 B(  6-C ,  8-H ) :   0.9369 B(  6-C ,  9-C ) :   1.0665
B(  9-C , 10-H ) :   0.9538 B(  9-C , 11-H ) :   0.9571 B(  9-C , 12-C ) :   1.0840
B( 12-C , 13-H ) :   0.9706 B( 12-C , 14-H ) :   0.9759 B( 12-C , 15-H ) :   0.9739
B( 16-S , 17-C ) :   1.1283 B( 16-S , 20-C ) :   1.1324 B( 17-C , 18-C ) :   1.6637
B( 17-C , 33-H ) :   0.9637 B( 18-C , 19-C ) :   1.1811 B( 18-C , 21-H ) :   0.9888
B( 19-C , 20-C ) :   1.6654 B( 19-C , 22-C ) :   1.0496 B( 22-C , 23-H ) :   0.9289
B( 22-C , 24-H ) :   0.9343 B( 22-C , 25-C ) :   1.0430 B( 25-C , 26-H ) :   0.9594
B( 25-C , 27-H ) :   0.9568 B( 25-C , 28-C ) :   1.0966 B( 28-C , 29-H ) :   0.9745
B( 28-C , 30-H ) :   0.9697 B( 28-C , 31-H ) :   0.9686

Dispersion correction           -0.014091164
FINAL SINGLE POINT ENERGY     -1339.877036222716

DIPOLE MOMENT
-------------
                                X             Y             Z
Electronic contribution:    -19.83850      -7.48260       6.41744
Nuclear contribution   :     20.49262       7.55779      -6.45525
                        -----------------------------------------
Total Dipole Moment    :      0.65412       0.07518      -0.03781
                        -----------------------------------------
Magnitude (a.u.)       :      0.65952
Magnitude (Debye)      :      1.67636

Rotational constants in cm-1:     0.018517     0.008012     0.006714
Rotational constants in MHz :   555.132381   240.206455   201.284357

                             ****ORCA TERMINATED NORMALLY****
TOTAL RUN TIME: 0 days 0 hours 0 minutes 32 seconds 933 msec
