                         Program Version 4.2.1 -  RELEASE  -
|  1> ! wB97X-D3 SP def2-SVP
|  2> %pal
|  3> nprocs 16
|  4> end
|  5>
|  6> * xyz 0 1
|  7> S 	 -31.2367 	 60.0385 	 105.064
|  8> C 	 -30.2737 	 59.508 	 106.49
|  9> C 	 -29.6264 	 60.5659 	 107.044
| 10> C 	 -29.9592 	 61.8186 	 106.432
| 11> C 	 -30.8966 	 61.728 	 105.418
| 12> H 	 -29.5831 	 62.7468 	 106.748
| 13> C 	 -28.6872 	 60.3737 	 108.169
| 14> H 	 -28.6189 	 59.331 	 108.329
| 15> H 	 -29.0666 	 60.855 	 109.089
| 16> C 	 -27.2064 	 60.8696 	 107.958
| 17> H 	 -27.1965 	 62.0063 	 107.924
| 18> H 	 -26.7498 	 60.693 	 108.902
| 19> C 	 -26.3709 	 60.2864 	 106.77
| 20> H 	 -26.094 	 59.2893 	 106.836
| 21> H 	 -26.9811 	 60.2575 	 105.861
| 22> H 	 -25.4669 	 60.8396 	 106.484
| 23> S 	 -33.1639 	 62.8967 	 104.52
| 24> C 	 -33.0676 	 64.4026 	 103.628
| 25> C 	 -31.7834 	 64.9012 	 103.56
| 26> C 	 -30.8553 	 63.9938 	 104.169
| 27> C 	 -31.4293 	 62.8269 	 104.605
| 28> H 	 -31.5996 	 65.8949 	 103.103
| 29> C 	 -29.3358 	 64.3708 	 104.23
| 30> H 	 -28.8934 	 63.3893 	 103.742
| 31> H 	 -29.0687 	 64.3483 	 105.271
| 32> C 	 -28.916 	 65.7471 	 103.765
| 33> H 	 -29.4666 	 66.4894 	 104.335
| 34> H 	 -29.1769 	 65.8454 	 102.683
| 35> C 	 -27.3849 	 65.8866 	 103.859
| 36> H 	 -27.0934 	 66.8766 	 103.446
| 37> H 	 -26.837 	 65.1628 	 103.225
| 38> H 	 -27.0938 	 65.8255 	 104.929
| 39> H 	 -30.2038 	 58.4506 	 106.853
| 40> H 	 -33.9264 	 65.0004 	 103.387
| 41> *
| 42>
| 43>                          ****END OF INPUT****

CARTESIAN COORDINATES (ANGSTROEM)
---------------------------------
  S    -31.236700   60.038500  105.064000
  C    -30.273700   59.508000  106.490000
  C    -29.626400   60.565900  107.044000
  C    -29.959200   61.818600  106.432000
  C    -30.896600   61.728000  105.418000
  H    -29.583100   62.746800  106.748000
  C    -28.687200   60.373700  108.169000
  H    -28.618900   59.331000  108.329000
  H    -29.066600   60.855000  109.089000
  C    -27.206400   60.869600  107.958000
  H    -27.196500   62.006300  107.924000
  H    -26.749800   60.693000  108.902000
  C    -26.370900   60.286400  106.770000
  H    -26.094000   59.289300  106.836000
  H    -26.981100   60.257500  105.861000
  H    -25.466900   60.839600  106.484000
  S    -33.163900   62.896700  104.520000
  C    -33.067600   64.402600  103.628000
  C    -31.783400   64.901200  103.560000
  C    -30.855300   63.993800  104.169000
  C    -31.429300   62.826900  104.605000
  H    -31.599600   65.894900  103.103000
  C    -29.335800   64.370800  104.230000
  H    -28.893400   63.389300  103.742000
  H    -29.068700   64.348300  105.271000
  C    -28.916000   65.747100  103.765000
  H    -29.466600   66.489400  104.335000
  H    -29.176900   65.845400  102.683000
  C    -27.384900   65.886600  103.859000
  H    -27.093400   66.876600  103.446000
  H    -26.837000   65.162800  103.225000
  H    -27.093800   65.825500  104.929000
  H    -30.203800   58.450600  106.853000
  H    -33.926400   65.000400  103.387000

 Total Charge           Charge          ....    0
 Multiplicity           Mult            ....    1
 Number of Electrons    NEL             ....  134
 Basis Dimension        Dim             ....  322

ORBITAL ENERGIES
----------------

  NO   OCC          E(Eh)            E(eV)
   0   2.0000     -88.964392     -2420.8442
   1   2.0000     -88.962706     -2420.7983
   2   2.0000     -10.331411      -281.1320
   3   2.0000     -10.322386      -280.8864
   4   2.0000     -10.316471      -280.7254
   5   2.0000     -10.315248      -280.6922
   6   2.0000     -10.305617      -280.4301
   7   2.0000     -10.299708      -280.2693
   8   2.0000     -10.296400      -280.1793
   9   2.0000     -10.295821      -280.1635
  10   2.0000     -10.295218      -280.1471
  11   2.0000     -10.294124      -280.1173
  12   2.0000     -10.291271      -280.0397
  13   2.0000     -10.289967      -280.0042
  14   2.0000     -10.288361      -279.9605
  15   2.0000     -10.274617      -279.5866
  16   2.0000      -8.079469      -219.8535
  17   2.0000      -8.076716      -219.7786
  18   2.0000      -6.037906      -164.2998
  19   2.0000      -6.035381      -164.2311
  20   2.0000      -6.034015      -164.1939
  21   2.0000      -6.031405      -164.1229
  22   2.0000      -6.030190      -164.0898
  23   2.0000      -6.027276      -164.0105
  24   2.0000      -1.005892       -27.3717
  25   2.0000      -0.982388       -26.7321
  26   2.0000      -0.911106       -24.7924
  27   2.0000      -0.907641       -24.6982
  28   2.0000      -0.866165       -23.5695
  29   2.0000      -0.849947       -23.1282
  30   2.0000      -0.839698       -22.8494
  31   2.0000      -0.815893       -22.2016
  32   2.0000      -0.784041       -21.3348
  33   2.0000      -0.772341       -21.0165
  34   2.0000      -0.713067       -19.4035
  35   2.0000      -0.700317       -19.0566
  36   2.0000      -0.692760       -18.8510
  37   2.0000      -0.651740       -17.7348
  38   2.0000      -0.636664       -17.3245
  39   2.0000      -0.622282       -16.9332
  40   2.0000      -0.595150       -16.1949
  41   2.0000      -0.572795       -15.5865
  42   2.0000      -0.564100       -15.3499
  43   2.0000      -0.549942       -14.9647
  44   2.0000      -0.533420       -14.5151
  45   2.0000      -0.524119       -14.2620
  46   2.0000      -0.516514       -14.0551
  47   2.0000      -0.512912       -13.9570
  48   2.0000      -0.499000       -13.5785
  49   2.0000      -0.495640       -13.4871
  50   2.0000      -0.486576       -13.2404
  51   2.0000      -0.481460       -13.1012
  52   2.0000      -0.472421       -12.8552
  53   2.0000      -0.466236       -12.6869
  54   2.0000      -0.459901       -12.5146
  55   2.0000      -0.449289       -12.2258
  56   2.0000      -0.442822       -12.0498
  57   2.0000      -0.440997       -12.0001
  58   2.0000      -0.435172       -11.8416
  59   2.0000      -0.424133       -11.5412
  60   2.0000      -0.420812       -11.4509
  61   2.0000      -0.413752       -11.2588
  62   2.0000      -0.412285       -11.2188
  63   2.0000      -0.347677        -9.4608
  64   2.0000      -0.330421        -8.9912
  65   2.0000      -0.326892        -8.8952
  66   2.0000      -0.293425        -7.9845
  67   0.0000       0.029892         0.8134
  68   0.0000       0.073434         1.9982
  69   0.0000       0.112840         3.0705
  70   0.0000       0.117323         3.1925
  71   0.0000       0.128827         3.5056

MULLIKEN ATOMIC CHARGES
-----------------------
   0 S :    0.092545
   1 C :   -0.155957
   2 C :   -0.073536
   3 C :    0.042764
   4 C :   -0.135649
   5 H :   -0.016384
   6 C :    0.086218
   7 H :    0.001437
   8 H :    0.041427
   9 C :   -0.087685
  10 H :    0.029932
  11 H :    0.022149
  12 C :   -0.029880
  13 H :    0.013082
  14 H :    0.031722
  15 H :    0.037144
  16 S :    0.107685
  17 C :   -0.071320
  18 C :   -0.071922
  19 C :   -0.043823
  20 C :   -0.142691
  21 H :    0.037530
  22 C :    0.014760
  23 H :    0.067431
  24 H :    0.020198
  25 C :   -0.085113
  26 H :    0.038982
  27 H :    0.037361
  28 C :   -0.041289
  29 H :    0.034763
  30 H :    0.043070
  31 H :    0.038003
  32 H :    0.066873
  33 H :    0.050176
Sum of atomic charges:    0.0000000

LOEWDIN ATOMIC CHARGES
----------------------
   0 S :    0.372648
   1 C :   -0.188871
   2 C :   -0.068668
   3 C :   -0.057916
   4 C :   -0.183690
   5 H :    0.019172
   6 C :   -0.026073
   7 H :    0.022914
   8 H :    0.038418
   9 C :   -0.039195
  10 H :    0.026604
  11 H :    0.018844
  12 C :   -0.069465
  13 H :    0.015168
  14 H :    0.031034
  15 H :    0.031756
  16 S :    0.414599
  17 C :   -0.178831
  18 C :   -0.080669
  19 C :   -0.053556
  20 C :   -0.213756
  21 H :    0.040322
  22 C :   -0.041903
  23 H :    0.053087
  24 H :    0.023073
  25 C :   -0.047401
  26 H :    0.027259
  27 H :    0.027169
  28 C :   -0.063252
  29 H :    0.028382
  30 H :    0.030984
  31 H :    0.027027
  32 H :    0.039625
  33 H :    0.025160

  Mayer bond orders larger than 0.100000
B(  0-S ,  1-C ) :   1.1104 B(  0-S ,  4-C ) :   1.1468 B(  1-C ,  2-C ) :   1.6326
B(  1-C , 32-H ) :   0.9595 B(  2-C ,  3-C ) :   1.2139 B(  2-C ,  6-C ) :   1.0434
B(  3-C ,  4-C ) :   1.5836 B(  3-C ,  5-H ) :   1.0076 B(  4-C , 20-C ) :   1.0220
B(  6-C ,  7-H ) :   0.9365 B(  6-C ,  8-H ) :   0.9321 B(  6-C ,  9-C ) :   1.0723
B(  9-C , 10-H ) :   0.9578 B(  9-C , 11-H ) :   0.9582 B(  9-C , 12-C ) :   1.0573
B( 12-C , 13-H ) :   0.9757 B( 12-C , 14-H ) :   0.9750 B( 12-C , 15-H ) :   0.9764
B( 16-S , 17-C ) :   1.1644 B( 16-S , 20-C ) :   1.1412 B( 17-C , 18-C ) :   1.6040
B( 17-C , 33-H ) :   0.9628 B( 18-C , 19-C ) :   1.2458 B( 18-C , 21-H ) :   0.9828
B( 19-C , 20-C ) :   1.6245 B( 19-C , 22-C ) :   0.9992 B( 22-C , 23-H ) :   0.9393
B( 22-C , 24-H ) :   0.9322 B( 22-C , 25-C ) :   1.0849 B( 25-C , 26-H ) :   0.9460
B( 25-C , 27-H ) :   0.9462 B( 25-C , 28-C ) :   1.0830 B( 28-C , 29-H ) :   0.9728
B( 28-C , 30-H ) :   0.9748 B( 28-C , 31-H ) :   0.9742

Dispersion correction           -0.014104154
FINAL SINGLE POINT ENERGY     -1339.876890316515

DIPOLE MOMENT
-------------
                                X             Y             Z
Electronic contribution:    -29.00799      -9.40920      -5.41380
Nuclear contribution   :     29.61305       9.89488       5.68960
                        -----------------------------------------
Total Dipole Moment    :      0.60506       0.48569       0.27580
                        -----------------------------------------
Magnitude (a.u.)       :      0.82344
Magnitude (Debye)      :      2.09302

Rotational constants in cm-1:     0.016175     0.009778     0.006556
Rotational constants in MHz :   484.918379   293.139716   196.548255

                             ****ORCA TERMINATED NORMALLY****
TOTAL RUN TIME: 0 days 0 hours 0 minutes 30 seconds 4 msec
