                         Program Version 4.2.1 -  RELEASE  -
|  1> ! wB97X-D3 SP def2-SVP
|  2> %pal
|  3> nprocs 16
|  4> end
|  5>
|  6> * xyz 0 1
|  7> S 	 57.51 	 15.6446 	 81.6853
|  8> C 	 58.9011 	 16.4443 	 81.0897
|  9> C 	 59.6914 	 15.5132 	 80.4301
| 10> C 	 59.0911 	 14.2521 	 80.2712
| 11> C 	 57.9775 	 14.0752 	 80.9542
| 12> H 	 59.3974 	 13.2818 	 79.8698
| 13> C 	 61.0625 	 15.8262 	 79.9526
| 14> H 	 61.6385 	 14.9164 	 79.746
| 15> H 	 61.6344 	 16.2204 	 80.7734
| 16> C 	 61.0869 	 16.8251 	 78.7622
| 17> H 	 60.7508 	 17.8483 	 79.0207
| 18> H 	 62.1379 	 16.9284 	 78.57
| 19> C 	 60.4354 	 16.2618 	 77.4549
| 20> H 	 60.9718 	 16.6489 	 76.6236
| 21> H 	 60.3564 	 15.194 	 77.4922
| 22> H 	 59.3405 	 16.6615 	 77.4177
| 23> S 	 57.1421 	 12.179 	 82.8212
| 24> C 	 56.4857 	 10.6451 	 82.2196
| 25> C 	 56.3087 	 10.6325 	 80.8694
| 26> C 	 56.6699 	 11.9131 	 80.2626
| 27> C 	 57.3061 	 12.7973 	 81.1428
| 28> H 	 55.8265 	 9.83202 	 80.3652
| 29> C 	 56.4032 	 12.1124 	 78.754
| 30> H 	 57.0311 	 11.4587 	 78.1156
| 31> H 	 56.725 	 13.167 	 78.4856
| 32> C 	 54.9427 	 12.1352 	 78.3047
| 33> H 	 54.3754 	 11.2267 	 78.5286
| 34> H 	 54.8592 	 12.2088 	 77.2253
| 35> C 	 54.1066 	 13.3079 	 78.8975
| 36> H 	 54.6401 	 14.2626 	 78.9829
| 37> H 	 53.9073 	 13.1663 	 79.9623
| 38> H 	 53.1916 	 13.4119 	 78.3572
| 39> H 	 59.2405 	 17.3643 	 81.4337
| 40> H 	 56.1882 	 9.8015 	 82.8837
| 41> *
| 42>
| 43>                          ****END OF INPUT****

CARTESIAN COORDINATES (ANGSTROEM)
---------------------------------
  S     57.510000   15.644600   81.685300
  C     58.901100   16.444300   81.089700
  C     59.691400   15.513200   80.430100
  C     59.091100   14.252100   80.271200
  C     57.977500   14.075200   80.954200
  H     59.397400   13.281800   79.869800
  C     61.062500   15.826200   79.952600
  H     61.638500   14.916400   79.746000
  H     61.634400   16.220400   80.773400
  C     61.086900   16.825100   78.762200
  H     60.750800   17.848300   79.020700
  H     62.137900   16.928400   78.570000
  C     60.435400   16.261800   77.454900
  H     60.971800   16.648900   76.623600
  H     60.356400   15.194000   77.492200
  H     59.340500   16.661500   77.417700
  S     57.142100   12.179000   82.821200
  C     56.485700   10.645100   82.219600
  C     56.308700   10.632500   80.869400
  C     56.669900   11.913100   80.262600
  C     57.306100   12.797300   81.142800
  H     55.826500    9.832020   80.365200
  C     56.403200   12.112400   78.754000
  H     57.031100   11.458700   78.115600
  H     56.725000   13.167000   78.485600
  C     54.942700   12.135200   78.304700
  H     54.375400   11.226700   78.528600
  H     54.859200   12.208800   77.225300
  C     54.106600   13.307900   78.897500
  H     54.640100   14.262600   78.982900
  H     53.907300   13.166300   79.962300
  H     53.191600   13.411900   78.357200
  H     59.240500   17.364300   81.433700
  H     56.188200    9.801500   82.883700

 Total Charge           Charge          ....    0
 Multiplicity           Mult            ....    1
 Number of Electrons    NEL             ....  134
 Basis Dimension        Dim             ....  322

ORBITAL ENERGIES
----------------

  NO   OCC          E(Eh)            E(eV)
   0   2.0000     -88.965202     -2420.8662
   1   2.0000     -88.961358     -2420.7616
   2   2.0000     -10.334281      -281.2101
   3   2.0000     -10.324305      -280.9386
   4   2.0000     -10.323966      -280.9294
   5   2.0000     -10.314001      -280.6582
   6   2.0000     -10.308223      -280.5010
   7   2.0000     -10.299903      -280.2746
   8   2.0000     -10.297403      -280.2066
   9   2.0000     -10.295014      -280.1416
  10   2.0000     -10.287541      -279.9382
  11   2.0000     -10.287154      -279.9277
  12   2.0000     -10.286764      -279.9171
  13   2.0000     -10.286208      -279.9019
  14   2.0000     -10.279664      -279.7239
  15   2.0000     -10.270492      -279.4743
  16   2.0000      -8.079147      -219.8448
  17   2.0000      -8.076330      -219.7681
  18   2.0000      -6.037829      -164.2977
  19   2.0000      -6.034914      -164.2184
  20   2.0000      -6.033867      -164.1899
  21   2.0000      -6.030664      -164.1027
  22   2.0000      -6.029651      -164.0751
  23   2.0000      -6.027119      -164.0062
  24   2.0000      -1.009179       -27.4612
  25   2.0000      -0.982465       -26.7342
  26   2.0000      -0.908497       -24.7215
  27   2.0000      -0.902241       -24.5512
  28   2.0000      -0.876258       -23.8442
  29   2.0000      -0.846566       -23.0362
  30   2.0000      -0.839908       -22.8551
  31   2.0000      -0.820139       -22.3171
  32   2.0000      -0.780095       -21.2275
  33   2.0000      -0.769031       -20.9264
  34   2.0000      -0.708697       -19.2846
  35   2.0000      -0.701899       -19.0996
  36   2.0000      -0.691065       -18.8048
  37   2.0000      -0.657967       -17.9042
  38   2.0000      -0.652441       -17.7538
  39   2.0000      -0.610378       -16.6092
  40   2.0000      -0.593792       -16.1579
  41   2.0000      -0.574471       -15.6322
  42   2.0000      -0.554104       -15.0779
  43   2.0000      -0.551007       -14.9937
  44   2.0000      -0.544586       -14.8189
  45   2.0000      -0.531348       -14.4587
  46   2.0000      -0.518766       -14.1163
  47   2.0000      -0.508814       -13.8455
  48   2.0000      -0.502807       -13.6821
  49   2.0000      -0.498485       -13.5645
  50   2.0000      -0.489226       -13.3125
  51   2.0000      -0.476635       -12.9699
  52   2.0000      -0.470491       -12.8027
  53   2.0000      -0.463826       -12.6213
  54   2.0000      -0.456812       -12.4305
  55   2.0000      -0.445173       -12.1138
  56   2.0000      -0.437988       -11.9183
  57   2.0000      -0.433511       -11.7964
  58   2.0000      -0.430078       -11.7030
  59   2.0000      -0.422660       -11.5012
  60   2.0000      -0.419672       -11.4199
  61   2.0000      -0.409502       -11.1431
  62   2.0000      -0.407396       -11.0858
  63   2.0000      -0.350559        -9.5392
  64   2.0000      -0.330941        -9.0054
  65   2.0000      -0.325782        -8.8650
  66   2.0000      -0.299266        -8.1434
  67   0.0000       0.031326         0.8524
  68   0.0000       0.062849         1.7102
  69   0.0000       0.114515         3.1161
  70   0.0000       0.123114         3.3501
  71   0.0000       0.128910         3.5078

MULLIKEN ATOMIC CHARGES
-----------------------
   0 S :    0.098864
   1 C :   -0.074289
   2 C :   -0.090389
   3 C :    0.043289
   4 C :   -0.160872
   5 H :    0.016380
   6 C :    0.057146
   7 H :    0.020628
   8 H :    0.021820
   9 C :   -0.078683
  10 H :    0.035009
  11 H :    0.019414
  12 C :   -0.051052
  13 H :    0.036985
  14 H :    0.030715
  15 H :    0.048327
  16 S :    0.096249
  17 C :   -0.098771
  18 C :   -0.007597
  19 C :   -0.032339
  20 C :   -0.180888
  21 H :    0.015688
  22 C :    0.035343
  23 H :    0.045014
  24 H :    0.032566
  25 C :   -0.071580
  26 H :    0.024655
  27 H :    0.028916
  28 C :   -0.062356
  29 H :    0.027513
  30 H :    0.034788
  31 H :    0.035005
  32 H :    0.030096
  33 H :    0.074406
Sum of atomic charges:    0.0000000

LOEWDIN ATOMIC CHARGES
----------------------
   0 S :    0.394518
   1 C :   -0.192121
   2 C :   -0.064164
   3 C :   -0.067149
   4 C :   -0.185492
   5 H :    0.041808
   6 C :   -0.037313
   7 H :    0.030906
   8 H :    0.030350
   9 C :   -0.038208
  10 H :    0.024404
  11 H :    0.018159
  12 C :   -0.064391
  13 H :    0.021801
  14 H :    0.020865
  15 H :    0.039916
  16 S :    0.373321
  17 C :   -0.172539
  18 C :   -0.069948
  19 C :   -0.048096
  20 C :   -0.185390
  21 H :    0.029077
  22 C :   -0.039810
  23 H :    0.033710
  24 H :    0.037061
  25 C :   -0.043067
  26 H :    0.020019
  27 H :    0.025331
  28 C :   -0.067978
  29 H :    0.026274
  30 H :    0.027742
  31 H :    0.023091
  32 H :    0.018001
  33 H :    0.039312

  Mayer bond orders larger than 0.100000
B(  0-S ,  1-C ) :   1.1455 B(  0-S ,  4-C ) :   1.1242 B(  1-C ,  2-C ) :   1.5975
B(  1-C , 32-H ) :   0.9777 B(  2-C ,  3-C ) :   1.2112 B(  2-C ,  6-C ) :   1.0297
B(  3-C ,  4-C ) :   1.6260 B(  3-C ,  5-H ) :   0.9907 B(  4-C , 20-C ) :   1.0430
B(  6-C ,  7-H ) :   0.9445 B(  6-C ,  8-H ) :   0.9326 B(  6-C ,  9-C ) :   1.0836
B(  9-C , 10-H ) :   0.9595 B(  9-C , 11-H ) :   0.9603 B(  9-C , 12-C ) :   1.0556
B( 12-C , 13-H ) :   0.9788 B( 12-C , 14-H ) :   0.9810 B( 12-C , 15-H ) :   0.9758
B( 16-S , 17-C ) :   1.1392 B( 16-S , 20-C ) :   1.1134 B( 17-C , 18-C ) :   1.6470
B( 17-C , 33-H ) :   0.9595 B( 18-C , 19-C ) :   1.1974 B( 18-C , 21-H ) :   0.9934
B( 19-C , 20-C ) :   1.6256 B( 19-C , 22-C ) :   1.0370 B( 22-C , 23-H ) :   0.9437
B( 22-C , 24-H ) :   0.9383 B( 22-C , 25-C ) :   1.0709 B( 25-C , 26-H ) :   0.9557
B( 25-C , 27-H ) :   0.9574 B( 25-C , 28-C ) :   1.0678 B( 28-C , 29-H ) :   0.9751
B( 28-C , 30-H ) :   0.9742 B( 28-C , 31-H ) :   0.9763

Dispersion correction           -0.014899646
FINAL SINGLE POINT ENERGY     -1339.868093168191

DIPOLE MOMENT
-------------
                                X             Y             Z
Electronic contribution:     -2.37319      -4.61695      22.94354
Nuclear contribution   :      2.62335       4.40778     -23.38239
                        -----------------------------------------
Total Dipole Moment    :      0.25016      -0.20917      -0.43885
                        -----------------------------------------
Magnitude (a.u.)       :      0.54674
Magnitude (Debye)      :      1.38969

Rotational constants in cm-1:     0.019972     0.008423     0.007206
Rotational constants in MHz :   598.751563   252.524437   216.033225

                             ****ORCA TERMINATED NORMALLY****
TOTAL RUN TIME: 0 days 0 hours 0 minutes 30 seconds 753 msec
