                         Program Version 4.2.1 -  RELEASE  -
|  1> ! wB97X-D3 SP def2-SVP
|  2> %pal
|  3> nprocs 16
|  4> end
|  5>
|  6> * xyz 0 1
|  7> S 	 52.6007 	 21.5884 	 94.6974
|  8> C 	 51.2703 	 21.0628 	 95.7379
|  9> C 	 51.2467 	 19.6581 	 95.8644
| 10> C 	 52.3819 	 19.0588 	 95.2458
| 11> C 	 53.2462 	 19.9541 	 94.628
| 12> H 	 52.6364 	 18.0486 	 95.3101
| 13> C 	 50.2598 	 18.8592 	 96.7634
| 14> H 	 49.8497 	 17.9664 	 96.3066
| 15> H 	 49.4888 	 19.5975 	 96.9249
| 16> C 	 50.8466 	 18.3998 	 98.1219
| 17> H 	 50.0692 	 17.8833 	 98.6516
| 18> H 	 51.7254 	 17.7642 	 97.8256
| 19> C 	 51.2641 	 19.5494 	 99.0348
| 20> H 	 50.4496 	 20.237 	 99.2475
| 21> H 	 51.6373 	 19.1915 	 99.9763
| 22> H 	 52.0816 	 20.1277 	 98.5066
| 23> S 	 54.9224 	 20.233 	 92.4705
| 24> C 	 56.4402 	 19.297 	 92.4003
| 25> C 	 56.6086 	 18.6397 	 93.553
| 26> C 	 55.5582 	 18.7769 	 94.4746
| 27> C 	 54.5614 	 19.6168 	 94.0705
| 28> H 	 57.4636 	 17.8991 	 93.6093
| 29> C 	 55.6351 	 17.9688 	 95.772
| 30> H 	 56.6486 	 17.4434 	 95.758
| 31> H 	 54.9943 	 17.103 	 95.6909
| 32> C 	 55.3477 	 18.6224 	 97.1062
| 33> H 	 54.9417 	 17.9116 	 97.8172
| 34> H 	 54.5174 	 19.3443 	 96.9694
| 35> C 	 56.5166 	 19.4143 	 97.6638
| 36> H 	 56.2376 	 19.7987 	 98.6661
| 37> H 	 56.7411 	 20.3145 	 97.135
| 38> H 	 57.4469 	 18.8762 	 97.8401
| 39> H 	 50.6276 	 21.8315 	 96.2402
| 40> H 	 57.0208 	 19.1984 	 91.4855
| 41> *
| 42>
| 43>                          ****END OF INPUT****

CARTESIAN COORDINATES (ANGSTROEM)
---------------------------------
  S     52.600700   21.588400   94.697400
  C     51.270300   21.062800   95.737900
  C     51.246700   19.658100   95.864400
  C     52.381900   19.058800   95.245800
  C     53.246200   19.954100   94.628000
  H     52.636400   18.048600   95.310100
  C     50.259800   18.859200   96.763400
  H     49.849700   17.966400   96.306600
  H     49.488800   19.597500   96.924900
  C     50.846600   18.399800   98.121900
  H     50.069200   17.883300   98.651600
  H     51.725400   17.764200   97.825600
  C     51.264100   19.549400   99.034800
  H     50.449600   20.237000   99.247500
  H     51.637300   19.191500   99.976300
  H     52.081600   20.127700   98.506600
  S     54.922400   20.233000   92.470500
  C     56.440200   19.297000   92.400300
  C     56.608600   18.639700   93.553000
  C     55.558200   18.776900   94.474600
  C     54.561400   19.616800   94.070500
  H     57.463600   17.899100   93.609300
  C     55.635100   17.968800   95.772000
  H     56.648600   17.443400   95.758000
  H     54.994300   17.103000   95.690900
  C     55.347700   18.622400   97.106200
  H     54.941700   17.911600   97.817200
  H     54.517400   19.344300   96.969400
  C     56.516600   19.414300   97.663800
  H     56.237600   19.798700   98.666100
  H     56.741100   20.314500   97.135000
  H     57.446900   18.876200   97.840100
  H     50.627600   21.831500   96.240200
  H     57.020800   19.198400   91.485500

 Total Charge           Charge          ....    0
 Multiplicity           Mult            ....    1
 Number of Electrons    NEL             ....  134
 Basis Dimension        Dim             ....  322

ORBITAL ENERGIES
----------------

  NO   OCC          E(Eh)            E(eV)
   0   2.0000     -88.970222     -2421.0028
   1   2.0000     -88.961084     -2420.7542
   2   2.0000     -10.333906      -281.1999
   3   2.0000     -10.327751      -281.0324
   4   2.0000     -10.325935      -280.9830
   5   2.0000     -10.317141      -280.7437
   6   2.0000     -10.309937      -280.5477
   7   2.0000     -10.301282      -280.3121
   8   2.0000     -10.294785      -280.1353
   9   2.0000     -10.293355      -280.0964
  10   2.0000     -10.293115      -280.0899
  11   2.0000     -10.292604      -280.0760
  12   2.0000     -10.290822      -280.0275
  13   2.0000     -10.283103      -279.8175
  14   2.0000     -10.277586      -279.6673
  15   2.0000     -10.270246      -279.4676
  16   2.0000      -8.084440      -219.9888
  17   2.0000      -8.075886      -219.7560
  18   2.0000      -6.042911      -164.4360
  19   2.0000      -6.039023      -164.3302
  20   2.0000      -6.035260      -164.2278
  21   2.0000      -6.034443      -164.2055
  22   2.0000      -6.030419      -164.0960
  23   2.0000      -6.026548      -163.9907
  24   2.0000      -1.008340       -27.4383
  25   2.0000      -0.984566       -26.7914
  26   2.0000      -0.910801       -24.7842
  27   2.0000      -0.906928       -24.6788
  28   2.0000      -0.870576       -23.6896
  29   2.0000      -0.850343       -23.1390
  30   2.0000      -0.844536       -22.9810
  31   2.0000      -0.815388       -22.1878
  32   2.0000      -0.783207       -21.3121
  33   2.0000      -0.775483       -21.1020
  34   2.0000      -0.711300       -19.3555
  35   2.0000      -0.696379       -18.9494
  36   2.0000      -0.686332       -18.6760
  37   2.0000      -0.661604       -18.0032
  38   2.0000      -0.642032       -17.4706
  39   2.0000      -0.622397       -16.9363
  40   2.0000      -0.594479       -16.1766
  41   2.0000      -0.569360       -15.4931
  42   2.0000      -0.553857       -15.0712
  43   2.0000      -0.553048       -15.0492
  44   2.0000      -0.545365       -14.8401
  45   2.0000      -0.540378       -14.7044
  46   2.0000      -0.519356       -14.1324
  47   2.0000      -0.509301       -13.8588
  48   2.0000      -0.501445       -13.6450
  49   2.0000      -0.492629       -13.4051
  50   2.0000      -0.489481       -13.3194
  51   2.0000      -0.480598       -13.0777
  52   2.0000      -0.476385       -12.9631
  53   2.0000      -0.467593       -12.7239
  54   2.0000      -0.458555       -12.4779
  55   2.0000      -0.444285       -12.0896
  56   2.0000      -0.436099       -11.8668
  57   2.0000      -0.433678       -11.8010
  58   2.0000      -0.428872       -11.6702
  59   2.0000      -0.425581       -11.5807
  60   2.0000      -0.424065       -11.5394
  61   2.0000      -0.417460       -11.3597
  62   2.0000      -0.409329       -11.1384
  63   2.0000      -0.353272        -9.6130
  64   2.0000      -0.335459        -9.1283
  65   2.0000      -0.330129        -8.9833
  66   2.0000      -0.291599        -7.9348
  67   0.0000       0.026771         0.7285
  68   0.0000       0.066353         1.8056
  69   0.0000       0.104283         2.8377
  70   0.0000       0.119436         3.2500
  71   0.0000       0.127486         3.4691

MULLIKEN ATOMIC CHARGES
-----------------------
   0 S :    0.115126
   1 C :   -0.161309
   2 C :   -0.082387
   3 C :    0.032475
   4 C :   -0.139854
   5 H :   -0.013224
   6 C :    0.081221
   7 H :    0.036338
   8 H :    0.010619
   9 C :   -0.077258
  10 H :    0.032862
  11 H :    0.036875
  12 C :   -0.067188
  13 H :    0.026258
  14 H :    0.032267
  15 H :    0.050062
  16 S :    0.077167
  17 C :   -0.101722
  18 C :   -0.043147
  19 C :   -0.029332
  20 C :   -0.138433
  21 H :    0.042169
  22 C :    0.046361
  23 H :    0.016665
  24 H :    0.026544
  25 C :   -0.063750
  26 H :    0.023087
  27 H :    0.050615
  28 C :   -0.035797
  29 H :    0.020223
  30 H :    0.032441
  31 H :    0.024815
  32 H :    0.075681
  33 H :    0.063532
Sum of atomic charges:   -0.0000000

LOEWDIN ATOMIC CHARGES
----------------------
   0 S :    0.399327
   1 C :   -0.200322
   2 C :   -0.059243
   3 C :   -0.057774
   4 C :   -0.189287
   5 H :    0.020760
   6 C :   -0.026556
   7 H :    0.031783
   8 H :    0.024489
   9 C :   -0.039316
  10 H :    0.022635
  11 H :    0.027840
  12 C :   -0.069253
  13 H :    0.022471
  14 H :    0.022477
  15 H :    0.032252
  16 S :    0.380672
  17 C :   -0.167904
  18 C :   -0.080610
  19 C :   -0.064258
  20 C :   -0.191574
  21 H :    0.044886
  22 C :   -0.036944
  23 H :    0.034379
  24 H :    0.027950
  25 C :   -0.046970
  26 H :    0.024294
  27 H :    0.033960
  28 C :   -0.065406
  29 H :    0.028247
  30 H :    0.024262
  31 H :    0.020852
  32 H :    0.038341
  33 H :    0.033538

  Mayer bond orders larger than 0.100000
B(  0-S ,  1-C ) :   1.1455 B(  0-S ,  4-C ) :   1.1535 B(  1-C ,  2-C ) :   1.5845
B(  1-C ,  4-C ) :   0.1033 B(  1-C , 32-H ) :   0.9630 B(  2-C ,  3-C ) :   1.2400
B(  2-C ,  6-C ) :   1.0229 B(  3-C ,  4-C ) :   1.5612 B(  3-C ,  5-H ) :   1.0099
B(  4-C , 20-C ) :   1.0269 B(  6-C ,  7-H ) :   0.9440 B(  6-C ,  8-H ) :   0.9391
B(  6-C ,  9-C ) :   1.0682 B(  9-C , 10-H ) :   0.9553 B(  9-C , 11-H ) :   0.9555
B(  9-C , 12-C ) :   1.0792 B( 12-C , 13-H ) :   0.9733 B( 12-C , 14-H ) :   0.9732
B( 12-C , 15-H ) :   0.9733 B( 16-S , 17-C ) :   1.1398 B( 16-S , 20-C ) :   1.1312
B( 17-C , 18-C ) :   1.6356 B( 17-C , 33-H ) :   0.9673 B( 18-C , 19-C ) :   1.2397
B( 18-C , 21-H ) :   0.9758 B( 19-C , 20-C ) :   1.6234 B( 19-C , 22-C ) :   1.0271
B( 22-C , 23-H ) :   0.9361 B( 22-C , 24-H ) :   0.9275 B( 22-C , 25-C ) :   1.0704
B( 25-C , 26-H ) :   0.9511 B( 25-C , 27-H ) :   0.9498 B( 25-C , 28-C ) :   1.0849
B( 28-C , 29-H ) :   0.9700 B( 28-C , 30-H ) :   0.9761 B( 28-C , 31-H ) :   0.9755

Dispersion correction           -0.016064398
FINAL SINGLE POINT ENERGY     -1339.886994281034

DIPOLE MOMENT
-------------
                                X             Y             Z
Electronic contribution:      1.48975      11.38255     -26.80445
Nuclear contribution   :     -1.53144     -11.94088      27.32032
                        -----------------------------------------
Total Dipole Moment    :     -0.04169      -0.55832       0.51587
                        -----------------------------------------
Magnitude (a.u.)       :      0.76131
Magnitude (Debye)      :      1.93508

Rotational constants in cm-1:     0.020071     0.009835     0.007642
Rotational constants in MHz :   601.726723   294.843779   229.105773

                             ****ORCA TERMINATED NORMALLY****
TOTAL RUN TIME: 0 days 0 hours 0 minutes 32 seconds 980 msec
