                         Program Version 4.2.1 -  RELEASE  -
|  1> ! wB97X-D3 SP def2-SVP
|  2> %pal
|  3> nprocs 16
|  4> end
|  5>
|  6> * xyz 0 1
|  7> S 	 0.896634 	 -11.0413 	 82.0598
|  8> C 	 0.00275014 	 -12.2498 	 83.0189
|  9> C 	 -1.35499 	 -12.1388 	 82.705
| 10> C 	 -1.62162 	 -11.1397 	 81.7522
| 11> C 	 -0.574669 	 -10.3273 	 81.4806
| 12> H 	 -2.58012 	 -10.9355 	 81.3245
| 13> C 	 -2.42878 	 -13.0163 	 83.2351
| 14> H 	 -2.27388 	 -14.0024 	 82.8794
| 15> H 	 -3.42525 	 -12.7679 	 82.777
| 16> C 	 -2.442 	 -12.9867 	 84.8503
| 17> H 	 -1.48822 	 -12.8929 	 85.3212
| 18> H 	 -3.02061 	 -12.0424 	 85.1556
| 19> C 	 -3.19547 	 -14.2048 	 85.4162
| 20> H 	 -3.38233 	 -14.2711 	 86.4304
| 21> H 	 -4.17649 	 -14.0801 	 85.0092
| 22> H 	 -2.76959 	 -15.182 	 85.1479
| 23> S 	 0.651682 	 -9.1336 	 79.2683
| 24> C 	 0.00164884 	 -7.63371 	 78.6179
| 25> C 	 -1.0382 	 -7.18428 	 79.3767
| 26> C 	 -1.34713 	 -8.08286 	 80.4702
| 27> C 	 -0.558128 	 -9.19433 	 80.5747
| 28> H 	 -1.62465 	 -6.28099 	 79.1187
| 29> C 	 -2.6572 	 -7.82801 	 81.2334
| 30> H 	 -3.46355 	 -8.45801 	 80.8937
| 31> H 	 -2.95111 	 -6.84987 	 80.9074
| 32> C 	 -2.53864 	 -7.74316 	 82.7718
| 33> H 	 -2.03685 	 -6.78306 	 82.9048
| 34> H 	 -1.96813 	 -8.50123 	 83.1799
| 35> C 	 -3.95698 	 -7.68386 	 83.4349
| 36> H 	 -4.64997 	 -7.03665 	 82.9563
| 37> H 	 -3.82522 	 -7.35082 	 84.429
| 38> H 	 -4.3678 	 -8.68819 	 83.3888
| 39> H 	 0.442699 	 -12.8453 	 83.8074
| 40> H 	 0.35833 	 -7.12464 	 77.7216
| 41> *
| 42>
| 43>                          ****END OF INPUT****

CARTESIAN COORDINATES (ANGSTROEM)
---------------------------------
  S      0.896634  -11.041300   82.059800
  C      0.002750  -12.249800   83.018900
  C     -1.354990  -12.138800   82.705000
  C     -1.621620  -11.139700   81.752200
  C     -0.574669  -10.327300   81.480600
  H     -2.580120  -10.935500   81.324500
  C     -2.428780  -13.016300   83.235100
  H     -2.273880  -14.002400   82.879400
  H     -3.425250  -12.767900   82.777000
  C     -2.442000  -12.986700   84.850300
  H     -1.488220  -12.892900   85.321200
  H     -3.020610  -12.042400   85.155600
  C     -3.195470  -14.204800   85.416200
  H     -3.382330  -14.271100   86.430400
  H     -4.176490  -14.080100   85.009200
  H     -2.769590  -15.182000   85.147900
  S      0.651682   -9.133600   79.268300
  C      0.001649   -7.633710   78.617900
  C     -1.038200   -7.184280   79.376700
  C     -1.347130   -8.082860   80.470200
  C     -0.558128   -9.194330   80.574700
  H     -1.624650   -6.280990   79.118700
  C     -2.657200   -7.828010   81.233400
  H     -3.463550   -8.458010   80.893700
  H     -2.951110   -6.849870   80.907400
  C     -2.538640   -7.743160   82.771800
  H     -2.036850   -6.783060   82.904800
  H     -1.968130   -8.501230   83.179900
  C     -3.956980   -7.683860   83.434900
  H     -4.649970   -7.036650   82.956300
  H     -3.825220   -7.350820   84.429000
  H     -4.367800   -8.688190   83.388800
  H      0.442699  -12.845300   83.807400
  H      0.358330   -7.124640   77.721600

 Total Charge           Charge          ....    0
 Multiplicity           Mult            ....    1
 Number of Electrons    NEL             ....  134
 Basis Dimension        Dim             ....  322

ORBITAL ENERGIES
----------------

  NO   OCC          E(Eh)            E(eV)
   0   2.0000     -88.965681     -2420.8793
   1   2.0000     -88.962798     -2420.8008
   2   2.0000     -10.327461      -281.0245
   3   2.0000     -10.327074      -281.0140
   4   2.0000     -10.319117      -280.7974
   5   2.0000     -10.317374      -280.7500
   6   2.0000     -10.301508      -280.3183
   7   2.0000     -10.300667      -280.2954
   8   2.0000     -10.298727      -280.2426
   9   2.0000     -10.297098      -280.1983
  10   2.0000     -10.295895      -280.1656
  11   2.0000     -10.287880      -279.9475
  12   2.0000     -10.285819      -279.8914
  13   2.0000     -10.277132      -279.6550
  14   2.0000     -10.271814      -279.5103
  15   2.0000     -10.270983      -279.4876
  16   2.0000      -8.080246      -219.8747
  17   2.0000      -8.077130      -219.7899
  18   2.0000      -6.038822      -164.3247
  19   2.0000      -6.035830      -164.2433
  20   2.0000      -6.034751      -164.2139
  21   2.0000      -6.031639      -164.1292
  22   2.0000      -6.030966      -164.1109
  23   2.0000      -6.027760      -164.0237
  24   2.0000      -1.009224       -27.4624
  25   2.0000      -0.984320       -26.7847
  26   2.0000      -0.908830       -24.7305
  27   2.0000      -0.903853       -24.5951
  28   2.0000      -0.869310       -23.6551
  29   2.0000      -0.852795       -23.2057
  30   2.0000      -0.844108       -22.9693
  31   2.0000      -0.818330       -22.2679
  32   2.0000      -0.780848       -21.2479
  33   2.0000      -0.771029       -20.9808
  34   2.0000      -0.713688       -19.4204
  35   2.0000      -0.707777       -19.2596
  36   2.0000      -0.691947       -18.8288
  37   2.0000      -0.662714       -18.0334
  38   2.0000      -0.643792       -17.5185
  39   2.0000      -0.620489       -16.8844
  40   2.0000      -0.592617       -16.1259
  41   2.0000      -0.572343       -15.5743
  42   2.0000      -0.566984       -15.4284
  43   2.0000      -0.555856       -15.1256
  44   2.0000      -0.526856       -14.3365
  45   2.0000      -0.523047       -14.2328
  46   2.0000      -0.519870       -14.1464
  47   2.0000      -0.515252       -14.0207
  48   2.0000      -0.509794       -13.8722
  49   2.0000      -0.499410       -13.5896
  50   2.0000      -0.490812       -13.3557
  51   2.0000      -0.488602       -13.2955
  52   2.0000      -0.478223       -13.0131
  53   2.0000      -0.464007       -12.6263
  54   2.0000      -0.459116       -12.4932
  55   2.0000      -0.448250       -12.1975
  56   2.0000      -0.440584       -11.9889
  57   2.0000      -0.433913       -11.8074
  58   2.0000      -0.430580       -11.7167
  59   2.0000      -0.427543       -11.6340
  60   2.0000      -0.423523       -11.5246
  61   2.0000      -0.417722       -11.3668
  62   2.0000      -0.408707       -11.1215
  63   2.0000      -0.350701        -9.5431
  64   2.0000      -0.330768        -9.0006
  65   2.0000      -0.328072        -8.9273
  66   2.0000      -0.292563        -7.9610
  67   0.0000       0.027138         0.7385
  68   0.0000       0.066638         1.8133
  69   0.0000       0.105145         2.8611
  70   0.0000       0.121483         3.3057
  71   0.0000       0.131496         3.5782

MULLIKEN ATOMIC CHARGES
-----------------------
   0 S :    0.099405
   1 C :   -0.130594
   2 C :   -0.070828
   3 C :    0.028404
   4 C :   -0.141058
   5 H :    0.001338
   6 C :    0.074120
   7 H :    0.030336
   8 H :    0.026900
   9 C :   -0.107686
  10 H :    0.033837
  11 H :    0.043748
  12 C :   -0.023621
  13 H :    0.015815
  14 H :    0.018308
  15 H :    0.034061
  16 S :    0.088038
  17 C :   -0.090768
  18 C :   -0.035025
  19 C :   -0.057199
  20 C :   -0.125236
  21 H :    0.034944
  22 C :    0.059056
  23 H :    0.031571
  24 H :   -0.005861
  25 C :   -0.070303
  26 H :    0.026946
  27 H :    0.037784
  28 C :   -0.019832
  29 H :    0.018259
  30 H :    0.029024
  31 H :    0.027040
  32 H :    0.056170
  33 H :    0.062907
Sum of atomic charges:   -0.0000000

LOEWDIN ATOMIC CHARGES
----------------------
   0 S :    0.400850
   1 C :   -0.188945
   2 C :   -0.061029
   3 C :   -0.062073
   4 C :   -0.190949
   5 H :    0.028863
   6 C :   -0.027983
   7 H :    0.027287
   8 H :    0.034533
   9 C :   -0.032380
  10 H :    0.015616
  11 H :    0.035217
  12 C :   -0.067743
  13 H :    0.015543
  14 H :    0.024978
  15 H :    0.026415
  16 S :    0.380512
  17 C :   -0.177458
  18 C :   -0.078082
  19 C :   -0.058370
  20 C :   -0.186299
  21 H :    0.038593
  22 C :   -0.029186
  23 H :    0.023408
  24 H :    0.023156
  25 C :   -0.026403
  26 H :    0.026000
  27 H :    0.012968
  28 C :   -0.055265
  29 H :    0.018302
  30 H :    0.021937
  31 H :    0.024606
  32 H :    0.028418
  33 H :    0.034962

  Mayer bond orders larger than 0.100000
B(  0-S ,  1-C ) :   1.1316 B(  0-S ,  4-C ) :   1.1548 B(  1-C ,  2-C ) :   1.5793
B(  1-C ,  4-C ) :   0.1061 B(  1-C , 32-H ) :   0.9730 B(  2-C ,  3-C ) :   1.2552
B(  2-C ,  6-C ) :   1.0231 B(  3-C ,  4-C ) :   1.5614 B(  3-C ,  5-H ) :   0.9979
B(  4-C , 20-C ) :   1.0426 B(  6-C ,  7-H ) :   0.9425 B(  6-C ,  8-H ) :   0.9446
B(  6-C ,  9-C ) :   1.0268 B(  9-C , 10-H ) :   0.9714 B(  9-C , 11-H ) :   0.9573
B(  9-C , 12-C ) :   1.0720 B( 12-C , 13-H ) :   0.9741 B( 12-C , 14-H ) :   0.9724
B( 12-C , 15-H ) :   0.9778 B( 16-S , 17-C ) :   1.1483 B( 16-S , 20-C ) :   1.1089
B( 17-C , 18-C ) :   1.6302 B( 17-C , 33-H ) :   0.9638 B( 18-C , 19-C ) :   1.2340
B( 18-C , 21-H ) :   0.9812 B( 19-C , 20-C ) :   1.6415 B( 19-C , 22-C ) :   1.0271
B( 22-C , 23-H ) :   0.9467 B( 22-C , 24-H ) :   0.9302 B( 22-C , 25-C ) :   1.0481
B( 25-C , 26-H ) :   0.9571 B( 25-C , 27-H ) :   0.9676 B( 25-C , 28-C ) :   1.0799
B( 28-C , 29-H ) :   0.9750 B( 28-C , 30-H ) :   0.9749 B( 28-C , 31-H ) :   0.9769

Dispersion correction           -0.014321194
FINAL SINGLE POINT ENERGY     -1339.869704372293

DIPOLE MOMENT
-------------
                                X             Y             Z
Electronic contribution:     24.59383       3.79245     -19.95654
Nuclear contribution   :    -25.32953      -3.78065      20.18158
                        -----------------------------------------
Total Dipole Moment    :     -0.73570       0.01180       0.22504
                        -----------------------------------------
Magnitude (a.u.)       :      0.76944
Magnitude (Debye)      :      1.95575

Rotational constants in cm-1:     0.020417     0.008540     0.006484
Rotational constants in MHz :   612.100917   256.028301   194.373218

                             ****ORCA TERMINATED NORMALLY****
TOTAL RUN TIME: 0 days 0 hours 0 minutes 33 seconds 35 msec
