                         Program Version 4.2.1 -  RELEASE  -
|  1> ! wB97X-D3 SP def2-SVP
|  2> %pal
|  3> nprocs 16
|  4> end
|  5>
|  6> * xyz 0 1
|  7> S 	 49.2692 	 24.9929 	 42.501
|  8> C 	 47.8751 	 24.9147 	 41.416
|  9> C 	 46.6966 	 24.8432 	 42.1243
| 10> C 	 46.8883 	 25.1544 	 43.5183
| 11> C 	 48.192 	 25.1321 	 43.9286
| 12> H 	 46.099 	 25.3636 	 44.1671
| 13> C 	 45.3606 	 24.4797 	 41.4301
| 14> H 	 45.3447 	 23.3947 	 41.4536
| 15> H 	 45.4103 	 24.6748 	 40.3227
| 16> C 	 44.0641 	 25.0944 	 41.9987
| 17> H 	 44.0877 	 26.1486 	 42.2028
| 18> H 	 43.4544 	 25.0264 	 41.103
| 19> C 	 43.4232 	 24.3986 	 43.225
| 20> H 	 44.1024 	 24.2517 	 44.1179
| 21> H 	 42.4735 	 24.7736 	 43.4953
| 22> H 	 43.1437 	 23.4345 	 42.8532
| 23> S 	 49.6097 	 26.9208 	 45.4797
| 24> C 	 49.7853 	 26.5239 	 47.1496
| 25> C 	 49.1507 	 25.4092 	 47.546
| 26> C 	 48.6721 	 24.6312 	 46.4313
| 27> C 	 48.7348 	 25.4223 	 45.2547
| 28> H 	 49.1667 	 25.0807 	 48.6261
| 29> C 	 47.9072 	 23.3393 	 46.6234
| 30> H 	 47.0784 	 23.1708 	 45.866
| 31> H 	 47.4147 	 23.2828 	 47.6334
| 32> C 	 48.8414 	 22.1574 	 46.4898
| 33> H 	 49.5869 	 22.4997 	 45.7867
| 34> H 	 48.2793 	 21.357 	 45.9359
| 35> C 	 49.5933 	 21.6896 	 47.6798
| 36> H 	 48.9416 	 21.428 	 48.5354
| 37> H 	 50.3447 	 22.4248 	 47.9678
| 38> H 	 50.0995 	 20.7036 	 47.4568
| 39> H 	 47.9842 	 24.7686 	 40.39
| 40> H 	 50.3324 	 27.1221 	 47.9305
| 41> *
| 42>
| 43>                          ****END OF INPUT****

CARTESIAN COORDINATES (ANGSTROEM)
---------------------------------
  S     49.269200   24.992900   42.501000
  C     47.875100   24.914700   41.416000
  C     46.696600   24.843200   42.124300
  C     46.888300   25.154400   43.518300
  C     48.192000   25.132100   43.928600
  H     46.099000   25.363600   44.167100
  C     45.360600   24.479700   41.430100
  H     45.344700   23.394700   41.453600
  H     45.410300   24.674800   40.322700
  C     44.064100   25.094400   41.998700
  H     44.087700   26.148600   42.202800
  H     43.454400   25.026400   41.103000
  C     43.423200   24.398600   43.225000
  H     44.102400   24.251700   44.117900
  H     42.473500   24.773600   43.495300
  H     43.143700   23.434500   42.853200
  S     49.609700   26.920800   45.479700
  C     49.785300   26.523900   47.149600
  C     49.150700   25.409200   47.546000
  C     48.672100   24.631200   46.431300
  C     48.734800   25.422300   45.254700
  H     49.166700   25.080700   48.626100
  C     47.907200   23.339300   46.623400
  H     47.078400   23.170800   45.866000
  H     47.414700   23.282800   47.633400
  C     48.841400   22.157400   46.489800
  H     49.586900   22.499700   45.786700
  H     48.279300   21.357000   45.935900
  C     49.593300   21.689600   47.679800
  H     48.941600   21.428000   48.535400
  H     50.344700   22.424800   47.967800
  H     50.099500   20.703600   47.456800
  H     47.984200   24.768600   40.390000
  H     50.332400   27.122100   47.930500

 Total Charge           Charge          ....    0
 Multiplicity           Mult            ....    1
 Number of Electrons    NEL             ....  134
 Basis Dimension        Dim             ....  322

ORBITAL ENERGIES
----------------

  NO   OCC          E(Eh)            E(eV)
   0   2.0000     -88.968527     -2420.9567
   1   2.0000     -88.959819     -2420.7197
   2   2.0000     -10.328658      -281.0571
   3   2.0000     -10.327249      -281.0187
   4   2.0000     -10.314011      -280.6585
   5   2.0000     -10.308457      -280.5074
   6   2.0000     -10.307322      -280.4765
   7   2.0000     -10.301812      -280.3266
   8   2.0000     -10.301604      -280.3209
   9   2.0000     -10.294687      -280.1327
  10   2.0000     -10.293627      -280.1038
  11   2.0000     -10.291412      -280.0436
  12   2.0000     -10.289199      -279.9833
  13   2.0000     -10.280706      -279.7522
  14   2.0000     -10.278116      -279.6817
  15   2.0000     -10.276380      -279.6345
  16   2.0000      -8.083615      -219.9664
  17   2.0000      -8.073911      -219.7023
  18   2.0000      -6.042013      -164.4115
  19   2.0000      -6.038203      -164.3079
  20   2.0000      -6.034321      -164.2022
  21   2.0000      -6.032524      -164.1533
  22   2.0000      -6.028573      -164.0458
  23   2.0000      -6.024546      -163.9362
  24   2.0000      -1.004248       -27.3270
  25   2.0000      -0.980968       -26.6935
  26   2.0000      -0.913673       -24.8623
  27   2.0000      -0.906755       -24.6741
  28   2.0000      -0.869164       -23.6511
  29   2.0000      -0.849676       -23.1209
  30   2.0000      -0.840478       -22.8706
  31   2.0000      -0.818403       -22.2699
  32   2.0000      -0.786595       -21.4043
  33   2.0000      -0.771180       -20.9849
  34   2.0000      -0.709849       -19.3160
  35   2.0000      -0.696713       -18.9585
  36   2.0000      -0.680212       -18.5095
  37   2.0000      -0.651066       -17.7164
  38   2.0000      -0.644486       -17.5374
  39   2.0000      -0.624433       -16.9917
  40   2.0000      -0.601165       -16.3585
  41   2.0000      -0.565223       -15.3805
  42   2.0000      -0.549375       -14.9493
  43   2.0000      -0.546532       -14.8719
  44   2.0000      -0.536815       -14.6075
  45   2.0000      -0.527333       -14.3495
  46   2.0000      -0.518249       -14.1023
  47   2.0000      -0.512618       -13.9490
  48   2.0000      -0.503753       -13.7078
  49   2.0000      -0.495730       -13.4895
  50   2.0000      -0.490519       -13.3477
  51   2.0000      -0.484643       -13.1878
  52   2.0000      -0.476935       -12.9781
  53   2.0000      -0.466466       -12.6932
  54   2.0000      -0.458560       -12.4780
  55   2.0000      -0.450167       -12.2497
  56   2.0000      -0.440322       -11.9818
  57   2.0000      -0.434596       -11.8260
  58   2.0000      -0.431244       -11.7348
  59   2.0000      -0.425713       -11.5842
  60   2.0000      -0.416084       -11.3222
  61   2.0000      -0.409824       -11.1519
  62   2.0000      -0.407251       -11.0819
  63   2.0000      -0.340522        -9.2661
  64   2.0000      -0.329964        -8.9788
  65   2.0000      -0.320435        -8.7195
  66   2.0000      -0.300740        -8.1836
  67   0.0000       0.035139         0.9562
  68   0.0000       0.064798         1.7633
  69   0.0000       0.112851         3.0708
  70   0.0000       0.117518         3.1978
  71   0.0000       0.135399         3.6844

MULLIKEN ATOMIC CHARGES
-----------------------
   0 S :    0.087813
   1 C :   -0.111552
   2 C :   -0.074762
   3 C :    0.066161
   4 C :   -0.157579
   5 H :   -0.007839
   6 C :    0.039054
   7 H :    0.040145
   8 H :    0.032183
   9 C :   -0.075396
  10 H :    0.032608
  11 H :    0.024877
  12 C :   -0.031777
  13 H :    0.050206
  14 H :    0.025499
  15 H :    0.011309
  16 S :    0.139241
  17 C :   -0.098309
  18 C :   -0.052413
  19 C :   -0.022670
  20 C :   -0.187983
  21 H :    0.040312
  22 C :    0.034141
  23 H :    0.039394
  24 H :    0.031422
  25 C :   -0.083834
  26 H :    0.027160
  27 H :    0.029454
  28 C :   -0.046587
  29 H :    0.025220
  30 H :    0.038034
  31 H :    0.041021
  32 H :    0.028912
  33 H :    0.066535
Sum of atomic charges:   -0.0000000

LOEWDIN ATOMIC CHARGES
----------------------
   0 S :    0.367463
   1 C :   -0.179127
   2 C :   -0.059357
   3 C :   -0.051119
   4 C :   -0.182311
   5 H :    0.021530
   6 C :   -0.031131
   7 H :    0.034910
   8 H :    0.037151
   9 C :   -0.045973
  10 H :    0.022249
  11 H :    0.029759
  12 C :   -0.066577
  13 H :    0.032131
  14 H :    0.022345
  15 H :    0.022271
  16 S :    0.423193
  17 C :   -0.201884
  18 C :   -0.083413
  19 C :   -0.047647
  20 C :   -0.207655
  21 H :    0.042235
  22 C :   -0.038881
  23 H :    0.039043
  24 H :    0.032374
  25 C :   -0.054769
  26 H :    0.026852
  27 H :    0.027835
  28 C :   -0.071158
  29 H :    0.022019
  30 H :    0.026603
  31 H :    0.036303
  32 H :    0.013833
  33 H :    0.040903

  Mayer bond orders larger than 0.100000
B(  0-S ,  1-C ) :   1.1272 B(  0-S ,  4-C ) :   1.1285 B(  1-C ,  2-C ) :   1.6395
B(  1-C , 32-H ) :   0.9764 B(  2-C ,  3-C ) :   1.2116 B(  2-C ,  6-C ) :   1.0090
B(  3-C ,  4-C ) :   1.6165 B(  3-C ,  5-H ) :   0.9967 B(  4-C , 20-C ) :   1.0291
B(  6-C ,  7-H ) :   0.9360 B(  6-C ,  8-H ) :   0.9497 B(  6-C ,  9-C ) :   1.0551
B(  9-C , 10-H ) :   0.9647 B(  9-C , 11-H ) :   0.9566 B(  9-C , 12-C ) :   1.0683
B( 12-C , 13-H ) :   0.9772 B( 12-C , 14-H ) :   0.9714 B( 12-C , 15-H ) :   0.9699
B( 16-S , 17-C ) :   1.1461 B( 16-S , 20-C ) :   1.1519 B( 17-C , 18-C ) :   1.6534
B( 17-C , 33-H ) :   0.9520 B( 18-C , 19-C ) :   1.2301 B( 18-C , 21-H ) :   0.9728
B( 19-C , 20-C ) :   1.5878 B( 19-C , 22-C ) :   1.0462 B( 22-C , 23-H ) :   0.9379
B( 22-C , 24-H ) :   0.9472 B( 22-C , 25-C ) :   1.0514 B( 25-C , 26-H ) :   0.9527
B( 25-C , 27-H ) :   0.9545 B( 25-C , 28-C ) :   1.0906 B( 28-C , 29-H ) :   0.9729
B( 28-C , 30-H ) :   0.9708 B( 28-C , 31-H ) :   0.9694

Dispersion correction           -0.014473218
FINAL SINGLE POINT ENERGY     -1339.867719495393

DIPOLE MOMENT
-------------
                                X             Y             Z
Electronic contribution:     18.14342      16.71351      -4.88380
Nuclear contribution   :    -18.76449     -17.04256       4.97669
                        -----------------------------------------
Total Dipole Moment    :     -0.62107      -0.32905       0.09288
                        -----------------------------------------
Magnitude (a.u.)       :      0.70896
Magnitude (Debye)      :      1.80204

Rotational constants in cm-1:     0.017901     0.008448     0.007354
Rotational constants in MHz :   536.667231   253.256869   220.452467

                             ****ORCA TERMINATED NORMALLY****
TOTAL RUN TIME: 0 days 0 hours 0 minutes 34 seconds 346 msec
