                         Program Version 4.2.1 -  RELEASE  -
|  1> ! wB97X-D3 SP def2-SVP
|  2> %pal
|  3> nprocs 16
|  4> end
|  5>
|  6> * xyz 0 1
|  7> S 	 -45.0548 	 65.0257 	 130.724
|  8> C 	 -45.5391 	 63.3743 	 130.255
|  9> C 	 -46.6049 	 62.8984 	 131.014
| 10> C 	 -46.8612 	 63.7253 	 132.1
| 11> C 	 -46.1584 	 64.9665 	 132.094
| 12> H 	 -47.4435 	 63.5998 	 132.923
| 13> C 	 -47.2829 	 61.5371 	 130.868
| 14> H 	 -47.1577 	 61.1561 	 129.825
| 15> H 	 -48.338 	 61.7743 	 131.08
| 16> C 	 -46.7403 	 60.4222 	 131.823
| 17> H 	 -46.6419 	 59.5379 	 131.289
| 18> H 	 -45.8692 	 60.6621 	 132.349
| 19> C 	 -47.8205 	 60.2256 	 132.894
| 20> H 	 -48.865 	 59.886 	 132.518
| 21> H 	 -47.553 	 59.4725 	 133.64
| 22> H 	 -47.9361 	 61.0764 	 133.512
| 23> S 	 -44.5851 	 66.8759 	 133.207
| 24> C 	 -45.2355 	 67.9039 	 134.458
| 25> C 	 -46.478 	 67.5669 	 134.811
| 26> C 	 -47.0167 	 66.528 	 134.025
| 27> C 	 -46.1335 	 66.0548 	 133.099
| 28> H 	 -47.0243 	 68.0346 	 135.589
| 29> C 	 -48.4306 	 66.0102 	 134.341
| 30> H 	 -48.7905 	 65.4322 	 133.481
| 31> H 	 -49.1765 	 66.789 	 134.386
| 32> C 	 -48.5833 	 65.0356 	 135.474
| 33> H 	 -48.6576 	 65.5915 	 136.378
| 34> H 	 -47.7091 	 64.3793 	 135.554
| 35> C 	 -49.9327 	 64.1911 	 135.475
| 36> H 	 -50.031 	 63.5431 	 134.532
| 37> H 	 -50.7554 	 64.9448 	 135.576
| 38> H 	 -49.9886 	 63.5512 	 136.342
| 39> H 	 -45.1977 	 62.914 	 129.335
| 40> H 	 -44.6761 	 68.7842 	 134.768
| 41> *
| 42>
| 43>                          ****END OF INPUT****

CARTESIAN COORDINATES (ANGSTROEM)
---------------------------------
  S    -45.054800   65.025700  130.724000
  C    -45.539100   63.374300  130.255000
  C    -46.604900   62.898400  131.014000
  C    -46.861200   63.725300  132.100000
  C    -46.158400   64.966500  132.094000
  H    -47.443500   63.599800  132.923000
  C    -47.282900   61.537100  130.868000
  H    -47.157700   61.156100  129.825000
  H    -48.338000   61.774300  131.080000
  C    -46.740300   60.422200  131.823000
  H    -46.641900   59.537900  131.289000
  H    -45.869200   60.662100  132.349000
  C    -47.820500   60.225600  132.894000
  H    -48.865000   59.886000  132.518000
  H    -47.553000   59.472500  133.640000
  H    -47.936100   61.076400  133.512000
  S    -44.585100   66.875900  133.207000
  C    -45.235500   67.903900  134.458000
  C    -46.478000   67.566900  134.811000
  C    -47.016700   66.528000  134.025000
  C    -46.133500   66.054800  133.099000
  H    -47.024300   68.034600  135.589000
  C    -48.430600   66.010200  134.341000
  H    -48.790500   65.432200  133.481000
  H    -49.176500   66.789000  134.386000
  C    -48.583300   65.035600  135.474000
  H    -48.657600   65.591500  136.378000
  H    -47.709100   64.379300  135.554000
  C    -49.932700   64.191100  135.475000
  H    -50.031000   63.543100  134.532000
  H    -50.755400   64.944800  135.576000
  H    -49.988600   63.551200  136.342000
  H    -45.197700   62.914000  129.335000
  H    -44.676100   68.784200  134.768000

 Total Charge           Charge          ....    0
 Multiplicity           Mult            ....    1
 Number of Electrons    NEL             ....  134
 Basis Dimension        Dim             ....  322

ORBITAL ENERGIES
----------------

  NO   OCC          E(Eh)            E(eV)
   0   2.0000     -88.968570     -2420.9579
   1   2.0000     -88.962931     -2420.8044
   2   2.0000     -10.334906      -281.2271
   3   2.0000     -10.329004      -281.0665
   4   2.0000     -10.315421      -280.6969
   5   2.0000     -10.312772      -280.6248
   6   2.0000     -10.301775      -280.3255
   7   2.0000     -10.301388      -280.3150
   8   2.0000     -10.298292      -280.2308
   9   2.0000     -10.293301      -280.0950
  10   2.0000     -10.290848      -280.0282
  11   2.0000     -10.288046      -279.9520
  12   2.0000     -10.287365      -279.9334
  13   2.0000     -10.285951      -279.8949
  14   2.0000     -10.281147      -279.7642
  15   2.0000     -10.280596      -279.7492
  16   2.0000      -8.082336      -219.9315
  17   2.0000      -8.078304      -219.8218
  18   2.0000      -6.040764      -164.3775
  19   2.0000      -6.036951      -164.2738
  20   2.0000      -6.036805      -164.2698
  21   2.0000      -6.033281      -164.1739
  22   2.0000      -6.032850      -164.1622
  23   2.0000      -6.028893      -164.0545
  24   2.0000      -1.009711       -27.4756
  25   2.0000      -0.984155       -26.7802
  26   2.0000      -0.912743       -24.8370
  27   2.0000      -0.909591       -24.7512
  28   2.0000      -0.870813       -23.6960
  29   2.0000      -0.851605       -23.1733
  30   2.0000      -0.845653       -23.0114
  31   2.0000      -0.813328       -22.1318
  32   2.0000      -0.781963       -21.2783
  33   2.0000      -0.771230       -20.9862
  34   2.0000      -0.710233       -19.3264
  35   2.0000      -0.702892       -19.1267
  36   2.0000      -0.694047       -18.8860
  37   2.0000      -0.669926       -18.2296
  38   2.0000      -0.645075       -17.5534
  39   2.0000      -0.620880       -16.8950
  40   2.0000      -0.605179       -16.4678
  41   2.0000      -0.571496       -15.5512
  42   2.0000      -0.568741       -15.4762
  43   2.0000      -0.553473       -15.0608
  44   2.0000      -0.536084       -14.5876
  45   2.0000      -0.520113       -14.1530
  46   2.0000      -0.519230       -14.1290
  47   2.0000      -0.513214       -13.9653
  48   2.0000      -0.503281       -13.6950
  49   2.0000      -0.492225       -13.3941
  50   2.0000      -0.487741       -13.2721
  51   2.0000      -0.483462       -13.1557
  52   2.0000      -0.473922       -12.8961
  53   2.0000      -0.466608       -12.6971
  54   2.0000      -0.460064       -12.5190
  55   2.0000      -0.450010       -12.2454
  56   2.0000      -0.447267       -12.1708
  57   2.0000      -0.441857       -12.0235
  58   2.0000      -0.435611       -11.8536
  59   2.0000      -0.429274       -11.6811
  60   2.0000      -0.422535       -11.4978
  61   2.0000      -0.413350       -11.2478
  62   2.0000      -0.410401       -11.1676
  63   2.0000      -0.355061        -9.6617
  64   2.0000      -0.336406        -9.1541
  65   2.0000      -0.333590        -9.0774
  66   2.0000      -0.284320        -7.7367
  67   0.0000       0.020043         0.5454
  68   0.0000       0.081482         2.2172
  69   0.0000       0.096743         2.6325
  70   0.0000       0.119600         3.2545
  71   0.0000       0.121895         3.3169

MULLIKEN ATOMIC CHARGES
-----------------------
   0 S :    0.097736
   1 C :   -0.126439
   2 C :   -0.054247
   3 C :    0.055197
   4 C :   -0.139217
   5 H :   -0.056517
   6 C :    0.032483
   7 H :    0.030487
   8 H :    0.042152
   9 C :    0.029232
  10 H :    0.019624
  11 H :    0.032931
  12 C :   -0.111309
  13 H :    0.043556
  14 H :    0.022785
  15 H :    0.021659
  16 S :    0.084966
  17 C :   -0.082317
  18 C :    0.003430
  19 C :   -0.058753
  20 C :   -0.121780
  21 H :    0.001731
  22 C :    0.069204
  23 H :    0.006319
  24 H :    0.019058
  25 C :   -0.066699
  26 H :    0.016866
  27 H :    0.037938
  28 C :   -0.088474
  29 H :    0.048933
  30 H :    0.039796
  31 H :    0.040320
  32 H :    0.048542
  33 H :    0.060808
Sum of atomic charges:    0.0000000

LOEWDIN ATOMIC CHARGES
----------------------
   0 S :    0.390137
   1 C :   -0.189935
   2 C :   -0.061040
   3 C :   -0.058922
   4 C :   -0.178250
   5 H :    0.009699
   6 C :   -0.024709
   7 H :    0.033790
   8 H :    0.035144
   9 C :   -0.021598
  10 H :    0.018057
  11 H :    0.024067
  12 C :   -0.071865
  13 H :    0.031746
  14 H :    0.021810
  15 H :    0.014764
  16 S :    0.394308
  17 C :   -0.175753
  18 C :   -0.065847
  19 C :   -0.059423
  20 C :   -0.186155
  21 H :    0.028632
  22 C :   -0.035839
  23 H :    0.027928
  24 H :    0.028212
  25 C :   -0.041509
  26 H :    0.017801
  27 H :    0.024368
  28 C :   -0.068564
  29 H :    0.029810
  30 H :    0.029600
  31 H :    0.024520
  32 H :    0.025153
  33 H :    0.029862

  Mayer bond orders larger than 0.100000
B(  0-S ,  1-C ) :   1.1388 B(  0-S ,  4-C ) :   1.1619 B(  1-C ,  2-C ) :   1.5829
B(  1-C ,  4-C ) :   0.1112 B(  1-C , 32-H ) :   0.9662 B(  2-C ,  3-C ) :   1.2433
B(  2-C ,  6-C ) :   1.0367 B(  3-C ,  4-C ) :   1.5486 B(  3-C ,  5-H ) :   1.0060
B(  4-C , 20-C ) :   1.0415 B(  6-C ,  7-H ) :   0.9430 B(  6-C ,  8-H ) :   0.9445
B(  6-C ,  9-C ) :   1.0358 B(  9-C , 10-H ) :   0.9593 B(  9-C , 11-H ) :   0.9610
B(  9-C , 12-C ) :   1.0775 B( 12-C , 13-H ) :   0.9759 B( 12-C , 14-H ) :   0.9696
B( 12-C , 15-H ) :   0.9767 B( 16-S , 17-C ) :   1.1418 B( 16-S , 20-C ) :   1.1333
B( 17-C , 18-C ) :   1.6124 B( 17-C , 33-H ) :   0.9671 B( 18-C , 19-C ) :   1.2332
B( 18-C , 21-H ) :   1.0029 B( 19-C , 20-C ) :   1.6302 B( 19-C , 22-C ) :   1.0459
B( 22-C , 23-H ) :   0.9340 B( 22-C , 24-H ) :   0.9292 B( 22-C , 25-C ) :   1.0578
B( 25-C , 26-H ) :   0.9520 B( 25-C , 27-H ) :   0.9559 B( 25-C , 28-C ) :   1.0783
B( 28-C , 29-H ) :   0.9743 B( 28-C , 30-H ) :   0.9761 B( 28-C , 31-H ) :   0.9758

Dispersion correction           -0.014449509
FINAL SINGLE POINT ENERGY     -1339.867270083570

DIPOLE MOMENT
-------------
                                X             Y             Z
Electronic contribution:     22.15662      21.24057     -11.45706
Nuclear contribution   :    -22.62307     -21.56563      11.82860
                        -----------------------------------------
Total Dipole Moment    :     -0.46644      -0.32506       0.37154
                        -----------------------------------------
Magnitude (a.u.)       :      0.67917
Magnitude (Debye)      :      1.72631

Rotational constants in cm-1:     0.016359     0.010330     0.006788
Rotational constants in MHz :   490.428051   309.678896   203.491151

                             ****ORCA TERMINATED NORMALLY****
TOTAL RUN TIME: 0 days 0 hours 0 minutes 35 seconds 862 msec
