                         Program Version 4.2.1 -  RELEASE  -
|  1> ! wB97X-D3 SP def2-SVP
|  2> %pal
|  3> nprocs 16
|  4> end
|  5>
|  6> * xyz 0 1
|  7> S 	 -2.58445 	 8.9166 	 82.9191
|  8> C 	 -2.15792 	 7.38478 	 83.7076
|  9> C 	 -2.42092 	 6.29702 	 82.9335
| 10> C 	 -3.28059 	 6.67996 	 81.863
| 11> C 	 -3.52953 	 8.0345 	 81.7477
| 12> H 	 -3.69427 	 5.99522 	 81.1257
| 13> C 	 -2.00678 	 4.85445 	 83.0926
| 14> H 	 -1.12669 	 4.89164 	 83.7621
| 15> H 	 -1.56142 	 4.52344 	 82.1606
| 16> C 	 -3.18336 	 3.91316 	 83.506
| 17> H 	 -3.77378 	 4.36415 	 84.3464
| 18> H 	 -3.84479 	 3.60472 	 82.6572
| 19> C 	 -2.6694 	 2.61179 	 84.1495
| 20> H 	 -2.3461 	 2.71715 	 85.0938
| 21> H 	 -3.55229 	 1.97884 	 84.1355
| 22> H 	 -1.86873 	 2.14754 	 83.5433
| 23> S 	 -5.88341 	 9.37081 	 81.068
| 24> C 	 -6.21781 	 9.6665 	 79.4186
| 25> C 	 -5.20419 	 9.30216 	 78.5906
| 26> C 	 -4.06702 	 8.74109 	 79.3065
| 27> C 	 -4.3158 	 8.71713 	 80.6756
| 28> H 	 -5.23986 	 9.33135 	 77.5216
| 29> C 	 -2.81733 	 8.22032 	 78.637
| 30> H 	 -2.78729 	 7.13654 	 78.5051
| 31> H 	 -2.00692 	 8.39887 	 79.3141
| 32> C 	 -2.55849 	 8.92477 	 77.2583
| 33> H 	 -2.81368 	 9.98098 	 77.1991
| 34> H 	 -3.2662 	 8.57246 	 76.5249
| 35> C 	 -1.15802 	 8.61955 	 76.7089
| 36> H 	 -1.0414 	 8.81068 	 75.6326
| 37> H 	 -0.858084 	 7.62192 	 77.0007
| 38> H 	 -0.379284 	 9.28244 	 77.079
| 39> H 	 -1.48737 	 7.25867 	 84.6192
| 40> H 	 -7.15672 	 10.022 	 79.097
| 41> *
| 42>
| 43>                          ****END OF INPUT****

CARTESIAN COORDINATES (ANGSTROEM)
---------------------------------
  S     -2.584450    8.916600   82.919100
  C     -2.157920    7.384780   83.707600
  C     -2.420920    6.297020   82.933500
  C     -3.280590    6.679960   81.863000
  C     -3.529530    8.034500   81.747700
  H     -3.694270    5.995220   81.125700
  C     -2.006780    4.854450   83.092600
  H     -1.126690    4.891640   83.762100
  H     -1.561420    4.523440   82.160600
  C     -3.183360    3.913160   83.506000
  H     -3.773780    4.364150   84.346400
  H     -3.844790    3.604720   82.657200
  C     -2.669400    2.611790   84.149500
  H     -2.346100    2.717150   85.093800
  H     -3.552290    1.978840   84.135500
  H     -1.868730    2.147540   83.543300
  S     -5.883410    9.370810   81.068000
  C     -6.217810    9.666500   79.418600
  C     -5.204190    9.302160   78.590600
  C     -4.067020    8.741090   79.306500
  C     -4.315800    8.717130   80.675600
  H     -5.239860    9.331350   77.521600
  C     -2.817330    8.220320   78.637000
  H     -2.787290    7.136540   78.505100
  H     -2.006920    8.398870   79.314100
  C     -2.558490    8.924770   77.258300
  H     -2.813680    9.980980   77.199100
  H     -3.266200    8.572460   76.524900
  C     -1.158020    8.619550   76.708900
  H     -1.041400    8.810680   75.632600
  H     -0.858084    7.621920   77.000700
  H     -0.379284    9.282440   77.079000
  H     -1.487370    7.258670   84.619200
  H     -7.156720   10.022000   79.097000

 Total Charge           Charge          ....    0
 Multiplicity           Mult            ....    1
 Number of Electrons    NEL             ....  134
 Basis Dimension        Dim             ....  322

ORBITAL ENERGIES
----------------

  NO   OCC          E(Eh)            E(eV)
   0   2.0000     -88.964515     -2420.8475
   1   2.0000     -88.962396     -2420.7899
   2   2.0000     -10.326953      -281.0107
   3   2.0000     -10.322920      -280.9009
   4   2.0000     -10.315612      -280.7021
   5   2.0000     -10.309953      -280.5481
   6   2.0000     -10.303592      -280.3750
   7   2.0000     -10.297719      -280.2152
   8   2.0000     -10.296931      -280.1937
   9   2.0000     -10.295686      -280.1599
  10   2.0000     -10.292635      -280.0768
  11   2.0000     -10.290544      -280.0199
  12   2.0000     -10.289530      -279.9923
  13   2.0000     -10.287057      -279.9250
  14   2.0000     -10.277193      -279.6566
  15   2.0000     -10.270465      -279.4736
  16   2.0000      -8.078898      -219.8380
  17   2.0000      -8.078251      -219.8204
  18   2.0000      -6.037493      -164.2885
  19   2.0000      -6.036623      -164.2649
  20   2.0000      -6.033615      -164.1830
  21   2.0000      -6.032588      -164.1551
  22   2.0000      -6.029436      -164.0693
  23   2.0000      -6.029113      -164.0605
  24   2.0000      -1.004912       -27.3450
  25   2.0000      -0.985725       -26.8229
  26   2.0000      -0.909409       -24.7463
  27   2.0000      -0.906849       -24.6766
  28   2.0000      -0.867401       -23.6032
  29   2.0000      -0.850281       -23.1373
  30   2.0000      -0.845196       -22.9990
  31   2.0000      -0.811946       -22.0942
  32   2.0000      -0.784262       -21.3409
  33   2.0000      -0.771903       -21.0045
  34   2.0000      -0.712496       -19.3880
  35   2.0000      -0.701233       -19.0815
  36   2.0000      -0.690764       -18.7966
  37   2.0000      -0.652620       -17.7587
  38   2.0000      -0.633957       -17.2509
  39   2.0000      -0.617783       -16.8107
  40   2.0000      -0.604173       -16.4404
  41   2.0000      -0.574161       -15.6237
  42   2.0000      -0.557934       -15.1821
  43   2.0000      -0.556793       -15.1511
  44   2.0000      -0.532523       -14.4907
  45   2.0000      -0.529070       -14.3967
  46   2.0000      -0.514826       -14.0091
  47   2.0000      -0.507669       -13.8144
  48   2.0000      -0.502152       -13.6642
  49   2.0000      -0.494247       -13.4491
  50   2.0000      -0.487068       -13.2538
  51   2.0000      -0.473308       -12.8794
  52   2.0000      -0.467875       -12.7315
  53   2.0000      -0.466734       -12.7005
  54   2.0000      -0.462925       -12.5968
  55   2.0000      -0.455939       -12.4067
  56   2.0000      -0.441522       -12.0144
  57   2.0000      -0.439425       -11.9574
  58   2.0000      -0.438170       -11.9232
  59   2.0000      -0.425683       -11.5834
  60   2.0000      -0.423979       -11.5370
  61   2.0000      -0.419264       -11.4087
  62   2.0000      -0.410381       -11.1670
  63   2.0000      -0.334441        -9.1006
  64   2.0000      -0.327263        -8.9053
  65   2.0000      -0.322660        -8.7800
  66   2.0000      -0.307503        -8.3676
  67   0.0000       0.044542         1.2121
  68   0.0000       0.064210         1.7472
  69   0.0000       0.106177         2.8892
  70   0.0000       0.129824         3.5327
  71   0.0000       0.133173         3.6238

MULLIKEN ATOMIC CHARGES
-----------------------
   0 S :    0.112007
   1 C :   -0.145384
   2 C :   -0.094683
   3 C :    0.034354
   4 C :   -0.171259
   5 H :    0.009027
   6 C :    0.083356
   7 H :    0.017962
   8 H :    0.029079
   9 C :   -0.111769
  10 H :    0.048101
  11 H :    0.049587
  12 C :   -0.016367
  13 H :    0.014121
  14 H :    0.028727
  15 H :    0.028013
  16 S :    0.119978
  17 C :   -0.060474
  18 C :   -0.025018
  19 C :   -0.047596
  20 C :   -0.179112
  21 H :    0.007430
  22 C :    0.105127
  23 H :    0.038470
  24 H :    0.027729
  25 C :   -0.108937
  26 H :    0.030266
  27 H :    0.023953
  28 C :   -0.030233
  29 H :    0.030223
  30 H :    0.026754
  31 H :    0.027805
  32 H :    0.060283
  33 H :    0.038482
Sum of atomic charges:   -0.0000000

LOEWDIN ATOMIC CHARGES
----------------------
   0 S :    0.394105
   1 C :   -0.201893
   2 C :   -0.069996
   3 C :   -0.058863
   4 C :   -0.199406
   5 H :    0.029755
   6 C :   -0.033862
   7 H :    0.031524
   8 H :    0.033274
   9 C :   -0.039596
  10 H :    0.034386
  11 H :    0.031419
  12 C :   -0.055325
  13 H :    0.005709
  14 H :    0.028726
  15 H :    0.025255
  16 S :    0.427255
  17 C :   -0.184894
  18 C :   -0.071541
  19 C :   -0.047380
  20 C :   -0.214212
  21 H :    0.026751
  22 C :   -0.027417
  23 H :    0.035043
  24 H :    0.031113
  25 C :   -0.044903
  26 H :    0.025046
  27 H :    0.020318
  28 C :   -0.067078
  29 H :    0.028665
  30 H :    0.023249
  31 H :    0.025447
  32 H :    0.038977
  33 H :    0.020350

  Mayer bond orders larger than 0.100000
B(  0-S ,  1-C ) :   1.1266 B(  0-S ,  4-C ) :   1.1471 B(  1-C ,  2-C ) :   1.6482
B(  1-C , 32-H ) :   0.9525 B(  2-C ,  3-C ) :   1.2131 B(  2-C ,  6-C ) :   1.0306
B(  3-C ,  4-C ) :   1.6097 B(  3-C ,  5-H ) :   0.9973 B(  4-C , 20-C ) :   0.9968
B(  6-C ,  7-H ) :   0.9444 B(  6-C ,  8-H ) :   0.9312 B(  6-C ,  9-C ) :   1.0454
B(  9-C , 10-H ) :   0.9620 B(  9-C , 11-H ) :   0.9578 B(  9-C , 12-C ) :   1.0818
B( 12-C , 13-H ) :   0.9802 B( 12-C , 14-H ) :   0.9757 B( 12-C , 15-H ) :   0.9731
B( 16-S , 17-C ) :   1.1679 B( 16-S , 20-C ) :   1.1539 B( 17-C , 18-C ) :   1.5965
B( 17-C , 33-H ) :   0.9703 B( 18-C , 19-C ) :   1.2415 B( 18-C , 21-H ) :   0.9931
B( 19-C , 20-C ) :   1.6122 B( 19-C , 22-C ) :   1.0431 B( 22-C , 23-H ) :   0.9209
B( 22-C , 24-H ) :   0.9342 B( 22-C , 25-C ) :   1.0595 B( 25-C , 26-H ) :   0.9619
B( 25-C , 27-H ) :   0.9475 B( 25-C , 28-C ) :   1.0804 B( 28-C , 29-H ) :   0.9730
B( 28-C , 30-H ) :   0.9732 B( 28-C , 31-H ) :   0.9742

Dispersion correction           -0.013630809
FINAL SINGLE POINT ENERGY     -1339.877141507161

DIPOLE MOMENT
-------------
                                X             Y             Z
Electronic contribution:    -12.57908      20.08403       9.53595
Nuclear contribution   :     12.80621     -20.71247      -9.95511
                        -----------------------------------------
Total Dipole Moment    :      0.22712      -0.62843      -0.41916
                        -----------------------------------------
Magnitude (a.u.)       :      0.78880
Magnitude (Debye)      :      2.00498

Rotational constants in cm-1:     0.017667     0.007483     0.006501
Rotational constants in MHz :   529.653053   224.325851   194.909597

                             ****ORCA TERMINATED NORMALLY****
TOTAL RUN TIME: 0 days 0 hours 0 minutes 33 seconds 332 msec
