                         Program Version 4.2.1 -  RELEASE  -
|  1> ! wB97X-D3 SP def2-SVP
|  2> %pal
|  3> nprocs 16
|  4> end
|  5>
|  6> * xyz 0 1
|  7> S 	 -94.0226 	 54.6522 	 127.629
|  8> C 	 -92.4433 	 53.9098 	 127.91
|  9> C 	 -92.1392 	 53.1564 	 126.776
| 10> C 	 -93.0072 	 53.4539 	 125.691
| 11> C 	 -93.9873 	 54.4003 	 125.946
| 12> H 	 -92.8285 	 52.987 	 124.801
| 13> C 	 -91.0391 	 52.2019 	 126.546
| 14> H 	 -90.55 	 52.2678 	 127.499
| 15> H 	 -90.3881 	 52.5902 	 125.719
| 16> C 	 -91.3602 	 50.7539 	 126.216
| 17> H 	 -91.8328 	 50.5239 	 125.226
| 18> H 	 -90.3884 	 50.3071 	 125.936
| 19> C 	 -92.0566 	 49.9511 	 127.346
| 20> H 	 -91.614 	 50.0182 	 128.361
| 21> H 	 -92.9902 	 50.4186 	 127.666
| 22> H 	 -92.1334 	 48.9142 	 127.122
| 23> S 	 -96.7304 	 54.8722 	 125.914
| 24> C 	 -97.5103 	 55.2606 	 124.365
| 25> C 	 -96.5848 	 55.3131 	 123.364
| 26> C 	 -95.2627 	 54.9183 	 123.739
| 27> C 	 -95.1285 	 54.6376 	 125.081
| 28> H 	 -96.9638 	 55.7206 	 122.402
| 29> C 	 -94.1036 	 54.8385 	 122.695
| 30> H 	 -94.659 	 54.8276 	 121.759
| 31> H 	 -93.6022 	 53.8611 	 122.767
| 32> C 	 -93.1029 	 55.9498 	 122.699
| 33> H 	 -92.6791 	 56.0129 	 123.706
| 34> H 	 -93.5145 	 56.8797 	 122.417
| 35> C 	 -91.9922 	 55.5904 	 121.761
| 36> H 	 -91.2891 	 56.2919 	 122.073
| 37> H 	 -92.1089 	 55.7878 	 120.721
| 38> H 	 -91.541 	 54.573 	 121.962
| 39> H 	 -92.0308 	 53.9714 	 128.906
| 40> H 	 -98.525 	 55.5891 	 124.239
| 41> *
| 42>
| 43>                          ****END OF INPUT****

CARTESIAN COORDINATES (ANGSTROEM)
---------------------------------
  S    -94.022600   54.652200  127.629000
  C    -92.443300   53.909800  127.910000
  C    -92.139200   53.156400  126.776000
  C    -93.007200   53.453900  125.691000
  C    -93.987300   54.400300  125.946000
  H    -92.828500   52.987000  124.801000
  C    -91.039100   52.201900  126.546000
  H    -90.550000   52.267800  127.499000
  H    -90.388100   52.590200  125.719000
  C    -91.360200   50.753900  126.216000
  H    -91.832800   50.523900  125.226000
  H    -90.388400   50.307100  125.936000
  C    -92.056600   49.951100  127.346000
  H    -91.614000   50.018200  128.361000
  H    -92.990200   50.418600  127.666000
  H    -92.133400   48.914200  127.122000
  S    -96.730400   54.872200  125.914000
  C    -97.510300   55.260600  124.365000
  C    -96.584800   55.313100  123.364000
  C    -95.262700   54.918300  123.739000
  C    -95.128500   54.637600  125.081000
  H    -96.963800   55.720600  122.402000
  C    -94.103600   54.838500  122.695000
  H    -94.659000   54.827600  121.759000
  H    -93.602200   53.861100  122.767000
  C    -93.102900   55.949800  122.699000
  H    -92.679100   56.012900  123.706000
  H    -93.514500   56.879700  122.417000
  C    -91.992200   55.590400  121.761000
  H    -91.289100   56.291900  122.073000
  H    -92.108900   55.787800  120.721000
  H    -91.541000   54.573000  121.962000
  H    -92.030800   53.971400  128.906000
  H    -98.525000   55.589100  124.239000

 Total Charge           Charge          ....    0
 Multiplicity           Mult            ....    1
 Number of Electrons    NEL             ....  134
 Basis Dimension        Dim             ....  322

ORBITAL ENERGIES
----------------

  NO   OCC          E(Eh)            E(eV)
   0   2.0000     -88.963892     -2420.8306
   1   2.0000     -88.961220     -2420.7579
   2   2.0000     -10.331195      -281.1261
   3   2.0000     -10.328709      -281.0585
   4   2.0000     -10.320070      -280.8234
   5   2.0000     -10.314918      -280.6832
   6   2.0000     -10.303552      -280.3739
   7   2.0000     -10.300413      -280.2885
   8   2.0000     -10.296543      -280.1832
   9   2.0000     -10.294710      -280.1333
  10   2.0000     -10.293139      -280.0905
  11   2.0000     -10.289527      -279.9923
  12   2.0000     -10.283674      -279.8330
  13   2.0000     -10.277795      -279.6730
  14   2.0000     -10.277302      -279.6596
  15   2.0000     -10.269532      -279.4482
  16   2.0000      -8.079508      -219.8546
  17   2.0000      -8.074751      -219.7251
  18   2.0000      -6.038027      -164.3031
  19   2.0000      -6.033984      -164.1931
  20   2.0000      -6.033509      -164.1801
  21   2.0000      -6.030086      -164.0870
  22   2.0000      -6.029548      -164.0723
  23   2.0000      -6.025214      -163.9544
  24   2.0000      -1.010074       -27.4855
  25   2.0000      -0.980481       -26.6803
  26   2.0000      -0.918333       -24.9891
  27   2.0000      -0.915820       -24.9207
  28   2.0000      -0.870283       -23.6816
  29   2.0000      -0.853020       -23.2118
  30   2.0000      -0.843289       -22.9470
  31   2.0000      -0.815080       -22.1795
  32   2.0000      -0.784465       -21.3464
  33   2.0000      -0.776006       -21.1162
  34   2.0000      -0.716545       -19.4982
  35   2.0000      -0.705489       -19.1973
  36   2.0000      -0.692399       -18.8411
  37   2.0000      -0.659104       -17.9351
  38   2.0000      -0.642202       -17.4752
  39   2.0000      -0.628693       -17.1076
  40   2.0000      -0.594372       -16.1737
  41   2.0000      -0.573514       -15.6061
  42   2.0000      -0.562698       -15.3118
  43   2.0000      -0.558995       -15.2110
  44   2.0000      -0.538473       -14.6526
  45   2.0000      -0.526996       -14.3403
  46   2.0000      -0.520429       -14.1616
  47   2.0000      -0.514293       -13.9946
  48   2.0000      -0.507599       -13.8125
  49   2.0000      -0.497210       -13.5298
  50   2.0000      -0.494550       -13.4574
  51   2.0000      -0.485566       -13.2129
  52   2.0000      -0.469615       -12.7789
  53   2.0000      -0.468772       -12.7559
  54   2.0000      -0.456323       -12.4172
  55   2.0000      -0.448660       -12.2087
  56   2.0000      -0.443566       -12.0700
  57   2.0000      -0.441672       -12.0185
  58   2.0000      -0.436584       -11.8801
  59   2.0000      -0.428004       -11.6466
  60   2.0000      -0.414191       -11.2707
  61   2.0000      -0.404371       -11.0035
  62   2.0000      -0.399757       -10.8779
  63   2.0000      -0.358007        -9.7419
  64   2.0000      -0.331703        -9.0261
  65   2.0000      -0.323902        -8.8138
  66   2.0000      -0.285425        -7.7668
  67   0.0000       0.019576         0.5327
  68   0.0000       0.070058         1.9064
  69   0.0000       0.103396         2.8136
  70   0.0000       0.114009         3.1023
  71   0.0000       0.133308         3.6275

MULLIKEN ATOMIC CHARGES
-----------------------
   0 S :    0.082428
   1 C :   -0.137442
   2 C :   -0.076061
   3 C :    0.027324
   4 C :   -0.058705
   5 H :   -0.041923
   6 C :    0.068930
   7 H :    0.010277
   8 H :    0.047029
   9 C :   -0.068509
  10 H :    0.030717
  11 H :    0.022107
  12 C :   -0.046496
  13 H :    0.017884
  14 H :    0.036845
  15 H :    0.038988
  16 S :    0.066032
  17 C :   -0.087402
  18 C :   -0.050091
  19 C :   -0.045386
  20 C :   -0.133883
  21 H :    0.031496
  22 C :    0.053624
  23 H :    0.009953
  24 H :    0.027966
  25 C :   -0.037109
  26 H :    0.036003
  27 H :    0.017363
  28 C :   -0.024662
  29 H :    0.011100
  30 H :    0.031923
  31 H :    0.031825
  32 H :    0.054601
  33 H :    0.053255
Sum of atomic charges:   -0.0000000

LOEWDIN ATOMIC CHARGES
----------------------
   0 S :    0.418920
   1 C :   -0.192189
   2 C :   -0.064231
   3 C :   -0.052680
   4 C :   -0.203077
   5 H :    0.009277
   6 C :   -0.036598
   7 H :    0.030316
   8 H :    0.042412
   9 C :   -0.047782
  10 H :    0.029512
  11 H :    0.028422
  12 C :   -0.072973
  13 H :    0.028445
  14 H :    0.030756
  15 H :    0.024207
  16 S :    0.350407
  17 C :   -0.174170
  18 C :   -0.078935
  19 C :   -0.061173
  20 C :   -0.162325
  21 H :    0.039240
  22 C :   -0.029666
  23 H :    0.028078
  24 H :    0.028173
  25 C :   -0.032739
  26 H :    0.029559
  27 H :    0.021992
  28 C :   -0.062414
  29 H :    0.022416
  30 H :    0.021504
  31 H :    0.030383
  32 H :    0.027591
  33 H :    0.029343

  Mayer bond orders larger than 0.100000
B(  0-S ,  1-C ) :   1.1434 B(  0-S ,  4-C ) :   1.1648 B(  1-C ,  2-C ) :   1.5346
B(  1-C , 32-H ) :   0.9804 B(  2-C ,  3-C ) :   1.2882 B(  2-C ,  6-C ) :   1.0339
B(  3-C ,  4-C ) :   1.4805 B(  3-C ,  5-H ) :   1.0156 B(  4-C , 20-C ) :   1.0816
B(  6-C ,  7-H ) :   0.9340 B(  6-C ,  8-H ) :   0.9363 B(  6-C ,  9-C ) :   1.0821
B(  9-C , 10-H ) :   0.9501 B(  9-C , 11-H ) :   0.9491 B(  9-C , 12-C ) :   1.0639
B( 12-C , 13-H ) :   0.9716 B( 12-C , 14-H ) :   0.9739 B( 12-C , 15-H ) :   0.9762
B( 16-S , 17-C ) :   1.1315 B( 16-S , 20-C ) :   1.1035 B( 17-C , 18-C ) :   1.6565
B( 17-C , 33-H ) :   0.9649 B( 18-C , 19-C ) :   1.2242 B( 18-C , 21-H ) :   0.9816
B( 19-C , 20-C ) :   1.6369 B( 19-C , 22-C ) :   1.0152 B( 22-C , 23-H ) :   0.9284
B( 22-C , 24-H ) :   0.9434 B( 22-C , 25-C ) :   1.0830 B( 25-C , 26-H ) :   0.9552
B( 25-C , 27-H ) :   0.9451 B( 25-C , 28-C ) :   1.0878 B( 28-C , 29-H ) :   0.9697
B( 28-C , 30-H ) :   0.9736 B( 28-C , 31-H ) :   0.9702

Dispersion correction           -0.014295873
FINAL SINGLE POINT ENERGY     -1339.850696964174

DIPOLE MOMENT
-------------
                                X             Y             Z
Electronic contribution:    -19.91235      10.91428      13.23398
Nuclear contribution   :     20.40433     -11.08799     -13.69281
                        -----------------------------------------
Total Dipole Moment    :      0.49198      -0.17372      -0.45883
                        -----------------------------------------
Magnitude (a.u.)       :      0.69480
Magnitude (Debye)      :      1.76603

Rotational constants in cm-1:     0.017246     0.009395     0.007272
Rotational constants in MHz :   517.017861   281.656846   218.022749

                             ****ORCA TERMINATED NORMALLY****
TOTAL RUN TIME: 0 days 0 hours 0 minutes 32 seconds 651 msec
