                         Program Version 4.2.1 -  RELEASE  -
|  1> ! wB97X-D3 SP def2-SVP
|  2> %pal
|  3> nprocs 16
|  4> end
|  5>
|  6> * xyz 0 1
|  7> S 	 35.7505 	 21.717 	 51.6767
|  8> C 	 34.8808 	 21.7714 	 53.0701
|  9> C 	 33.6273 	 21.1075 	 53.0351
| 10> C 	 33.6784 	 20.1272 	 51.9331
| 11> C 	 34.7448 	 20.3131 	 51.1015
| 12> H 	 32.9229 	 19.3546 	 51.5938
| 13> C 	 32.6399 	 21.0652 	 54.1299
| 14> H 	 31.6714 	 21.0986 	 53.6049
| 15> H 	 32.8113 	 21.9717 	 54.7062
| 16> C 	 32.6537 	 19.8146 	 55.0941
| 17> H 	 32.6877 	 18.963 	 54.3748
| 18> H 	 33.4552 	 19.6589 	 55.7656
| 19> C 	 31.4499 	 19.7931 	 56.0884
| 20> H 	 31.546 	 20.7154 	 56.6778
| 21> H 	 30.6063 	 19.8888 	 55.4372
| 22> H 	 31.435 	 18.8926 	 56.7849
| 23> S 	 33.7656 	 18.9406 	 49.0152
| 24> C 	 34.9203 	 18.1463 	 47.9871
| 25> C 	 36.2463 	 18.2863 	 48.3503
| 26> C 	 36.3527 	 19.1648 	 49.4968
| 27> C 	 35.1403 	 19.5574 	 49.9634
| 28> H 	 37.0302 	 17.697 	 47.8149
| 29> C 	 37.739 	 19.39 	 50.0905
| 30> H 	 38.3353 	 18.4832 	 50.0909
| 31> H 	 37.5825 	 19.5493 	 51.1423
| 32> C 	 38.618 	 20.4806 	 49.5207
| 33> H 	 38.0252 	 21.4178 	 49.2995
| 34> H 	 39.1883 	 20.2171 	 48.6469
| 35> C 	 39.7373 	 20.8587 	 50.6649
| 36> H 	 40.4551 	 21.5883 	 50.2592
| 37> H 	 40.3961 	 20.0757 	 50.9963
| 38> H 	 39.3161 	 21.4031 	 51.5455
| 39> H 	 34.9937 	 22.4956 	 53.8202
| 40> H 	 34.5596 	 17.471 	 47.1978
| 41> *
| 42>
| 43>                          ****END OF INPUT****

CARTESIAN COORDINATES (ANGSTROEM)
---------------------------------
  S     35.750500   21.717000   51.676700
  C     34.880800   21.771400   53.070100
  C     33.627300   21.107500   53.035100
  C     33.678400   20.127200   51.933100
  C     34.744800   20.313100   51.101500
  H     32.922900   19.354600   51.593800
  C     32.639900   21.065200   54.129900
  H     31.671400   21.098600   53.604900
  H     32.811300   21.971700   54.706200
  C     32.653700   19.814600   55.094100
  H     32.687700   18.963000   54.374800
  H     33.455200   19.658900   55.765600
  C     31.449900   19.793100   56.088400
  H     31.546000   20.715400   56.677800
  H     30.606300   19.888800   55.437200
  H     31.435000   18.892600   56.784900
  S     33.765600   18.940600   49.015200
  C     34.920300   18.146300   47.987100
  C     36.246300   18.286300   48.350300
  C     36.352700   19.164800   49.496800
  C     35.140300   19.557400   49.963400
  H     37.030200   17.697000   47.814900
  C     37.739000   19.390000   50.090500
  H     38.335300   18.483200   50.090900
  H     37.582500   19.549300   51.142300
  C     38.618000   20.480600   49.520700
  H     38.025200   21.417800   49.299500
  H     39.188300   20.217100   48.646900
  C     39.737300   20.858700   50.664900
  H     40.455100   21.588300   50.259200
  H     40.396100   20.075700   50.996300
  H     39.316100   21.403100   51.545500
  H     34.993700   22.495600   53.820200
  H     34.559600   17.471000   47.197800

 Total Charge           Charge          ....    0
 Multiplicity           Mult            ....    1
 Number of Electrons    NEL             ....  134
 Basis Dimension        Dim             ....  322

ORBITAL ENERGIES
----------------

  NO   OCC          E(Eh)            E(eV)
   0   2.0000     -88.966093     -2420.8905
   1   2.0000     -88.966056     -2420.8895
   2   2.0000     -10.326805      -281.0067
   3   2.0000     -10.323938      -280.9286
   4   2.0000     -10.317965      -280.7661
   5   2.0000     -10.306269      -280.4478
   6   2.0000     -10.304379      -280.3964
   7   2.0000     -10.304292      -280.3941
   8   2.0000     -10.300820      -280.2996
   9   2.0000     -10.298863      -280.2463
  10   2.0000     -10.295728      -280.1610
  11   2.0000     -10.295240      -280.1477
  12   2.0000     -10.287725      -279.9432
  13   2.0000     -10.286403      -279.9073
  14   2.0000     -10.283601      -279.8310
  15   2.0000     -10.281492      -279.7736
  16   2.0000      -8.081638      -219.9126
  17   2.0000      -8.080959      -219.8941
  18   2.0000      -6.039960      -164.3557
  19   2.0000      -6.039389      -164.3401
  20   2.0000      -6.036174      -164.2527
  21   2.0000      -6.035734      -164.2407
  22   2.0000      -6.032390      -164.1497
  23   2.0000      -6.031524      -164.1261
  24   2.0000      -1.009142       -27.4601
  25   2.0000      -0.985304       -26.8115
  26   2.0000      -0.908025       -24.7086
  27   2.0000      -0.903176       -24.5767
  28   2.0000      -0.877173       -23.8691
  29   2.0000      -0.851564       -23.1722
  30   2.0000      -0.843587       -22.9552
  31   2.0000      -0.813174       -22.1276
  32   2.0000      -0.779849       -21.2208
  33   2.0000      -0.762774       -20.7561
  34   2.0000      -0.707661       -19.2564
  35   2.0000      -0.699281       -19.0284
  36   2.0000      -0.691204       -18.8086
  37   2.0000      -0.670448       -18.2438
  38   2.0000      -0.635423       -17.2907
  39   2.0000      -0.613187       -16.6857
  40   2.0000      -0.596861       -16.2414
  41   2.0000      -0.571486       -15.5509
  42   2.0000      -0.560656       -15.2562
  43   2.0000      -0.553699       -15.0669
  44   2.0000      -0.524524       -14.2730
  45   2.0000      -0.521340       -14.1864
  46   2.0000      -0.514158       -13.9910
  47   2.0000      -0.508247       -13.8301
  48   2.0000      -0.503970       -13.7137
  49   2.0000      -0.495635       -13.4869
  50   2.0000      -0.487726       -13.2717
  51   2.0000      -0.475837       -12.9482
  52   2.0000      -0.467992       -12.7347
  53   2.0000      -0.462521       -12.5858
  54   2.0000      -0.456944       -12.4341
  55   2.0000      -0.453452       -12.3391
  56   2.0000      -0.447948       -12.1893
  57   2.0000      -0.440649       -11.9907
  58   2.0000      -0.433679       -11.8010
  59   2.0000      -0.424276       -11.5451
  60   2.0000      -0.420751       -11.4492
  61   2.0000      -0.411728       -11.2037
  62   2.0000      -0.405796       -11.0423
  63   2.0000      -0.361091        -9.8258
  64   2.0000      -0.334668        -9.1068
  65   2.0000      -0.323769        -8.8102
  66   2.0000      -0.282752        -7.6941
  67   0.0000       0.025933         0.7057
  68   0.0000       0.077670         2.1135
  69   0.0000       0.092249         2.5102
  70   0.0000       0.107215         2.9175
  71   0.0000       0.126217         3.4345

MULLIKEN ATOMIC CHARGES
-----------------------
   0 S :    0.122192
   1 C :   -0.072496
   2 C :   -0.115908
   3 C :   -0.029265
   4 C :   -0.142601
   5 H :    0.044581
   6 C :    0.060761
   7 H :    0.035971
   8 H :    0.017484
   9 C :   -0.078214
  10 H :    0.029894
  11 H :    0.022927
  12 C :   -0.057607
  13 H :    0.033039
  14 H :    0.023826
  15 H :    0.057636
  16 S :    0.092475
  17 C :   -0.097588
  18 C :   -0.039947
  19 C :   -0.037056
  20 C :   -0.131569
  21 H :    0.040917
  22 C :    0.066954
  23 H :    0.021863
  24 H :    0.021048
  25 C :   -0.061836
  26 H :    0.043919
  27 H :    0.034514
  28 C :   -0.099012
  29 H :    0.025346
  30 H :    0.033230
  31 H :    0.043620
  32 H :    0.029632
  33 H :    0.061272
Sum of atomic charges:   -0.0000000

LOEWDIN ATOMIC CHARGES
----------------------
   0 S :    0.427364
   1 C :   -0.218742
   2 C :   -0.063981
   3 C :   -0.073000
   4 C :   -0.174727
   5 H :    0.037847
   6 C :   -0.036576
   7 H :    0.038476
   8 H :    0.027980
   9 C :   -0.038991
  10 H :    0.023701
  11 H :    0.017328
  12 C :   -0.066147
  13 H :    0.026311
  14 H :    0.017594
  15 H :    0.036815
  16 S :    0.394539
  17 C :   -0.183758
  18 C :   -0.072532
  19 C :   -0.052461
  20 C :   -0.186321
  21 H :    0.043421
  22 C :   -0.040581
  23 H :    0.033055
  24 H :    0.023257
  25 C :   -0.030941
  26 H :    0.029394
  27 H :    0.021084
  28 C :   -0.075995
  29 H :    0.023994
  30 H :    0.020277
  31 H :    0.028151
  32 H :    0.016046
  33 H :    0.028118

  Mayer bond orders larger than 0.100000
B(  0-S ,  1-C ) :   1.1788 B(  0-S ,  4-C ) :   1.1060 B(  1-C ,  2-C ) :   1.5921
B(  1-C , 32-H ) :   0.9615 B(  2-C ,  3-C ) :   1.1954 B(  2-C ,  6-C ) :   1.0707
B(  3-C ,  4-C ) :   1.6277 B(  3-C ,  5-H ) :   0.9650 B(  4-C , 20-C ) :   1.0827
B(  6-C ,  7-H ) :   0.9296 B(  6-C ,  8-H ) :   0.9341 B(  6-C ,  9-C ) :   1.0457
B(  9-C , 10-H ) :   0.9591 B(  9-C , 11-H ) :   0.9634 B(  9-C , 12-C ) :   1.0602
B( 12-C , 13-H ) :   0.9757 B( 12-C , 14-H ) :   0.9799 B( 12-C , 15-H ) :   0.9751
B( 16-S , 17-C ) :   1.1476 B( 16-S , 20-C ) :   1.1100 B( 17-C , 18-C ) :   1.6465
B( 17-C , 33-H ) :   0.9615 B( 18-C , 19-C ) :   1.1902 B( 18-C , 21-H ) :   0.9858
B( 19-C , 20-C ) :   1.6290 B( 19-C , 22-C ) :   1.0401 B( 22-C , 23-H ) :   0.9332
B( 22-C , 24-H ) :   0.9342 B( 22-C , 25-C ) :   1.0569 B( 25-C , 26-H ) :   0.9584
B( 25-C , 27-H ) :   0.9585 B( 25-C , 28-C ) :   1.0648 B( 28-C , 29-H ) :   0.9772
B( 28-C , 30-H ) :   0.9786 B( 28-C , 31-H ) :   0.9776

Dispersion correction           -0.013961598
FINAL SINGLE POINT ENERGY     -1339.856081893277

DIPOLE MOMENT
-------------
                                X             Y             Z
Electronic contribution:     -5.07504       0.30747     -16.32443
Nuclear contribution   :      5.20479      -0.51627      16.52811
                        -----------------------------------------
Total Dipole Moment    :      0.12976      -0.20880       0.20368
                        -----------------------------------------
Magnitude (a.u.)       :      0.31925
Magnitude (Debye)      :      0.81147

Rotational constants in cm-1:     0.019601     0.008107     0.006277
Rotational constants in MHz :   587.614631   243.034894   188.171370

                             ****ORCA TERMINATED NORMALLY****
TOTAL RUN TIME: 0 days 0 hours 0 minutes 35 seconds 210 msec
