                         Program Version 4.2.1 -  RELEASE  -
|  1> ! wB97X-D3 SP def2-SVP
|  2> %pal
|  3> nprocs 16
|  4> end
|  5>
|  6> * xyz 0 1
|  7> S 	 10.8487 	 -9.61857 	 91.396
|  8> C 	 10.7427 	 -8.47954 	 92.7299
|  9> C 	 9.70402 	 -7.57236 	 92.4576
| 10> C 	 9.08995 	 -7.76938 	 91.1878
| 11> C 	 9.66883 	 -8.71656 	 90.3782
| 12> H 	 8.36564 	 -7.10009 	 90.8158
| 13> C 	 9.28582 	 -6.5693 	 93.5316
| 14> H 	 8.6744 	 -5.87641 	 92.9651
| 15> H 	 10.1525 	 -5.9447 	 93.8927
| 16> C 	 8.52074 	 -7.07566 	 94.7471
| 17> H 	 7.89998 	 -7.93232 	 94.4535
| 18> H 	 9.25775 	 -7.46757 	 95.4343
| 19> C 	 7.57198 	 -6.06227 	 95.4552
| 20> H 	 6.64625 	 -5.82928 	 94.9059
| 21> H 	 7.25183 	 -6.43093 	 96.4263
| 22> H 	 8.05222 	 -5.13801 	 95.6434
| 23> S 	 10.5904 	 -9.95309 	 88.1048
| 24> C 	 9.53354 	 -10.043 	 86.6887
| 25> C 	 8.23246 	 -9.6285 	 87.0093
| 26> C 	 8.06401 	 -9.16631 	 88.3333
| 27> C 	 9.24676 	 -9.27462 	 89.0544
| 28> H 	 7.44123 	 -9.66071 	 86.2791
| 29> C 	 6.70902 	 -8.67603 	 88.8721
| 30> H 	 6.19726 	 -8.29744 	 88.008
| 31> H 	 6.98876 	 -7.82485 	 89.4742
| 32> C 	 5.952 	 -9.71792 	 89.6145
| 33> H 	 6.4892 	 -9.88374 	 90.5306
| 34> H 	 5.94319 	 -10.6644 	 89.0447
| 35> C 	 4.62206 	 -9.19848 	 89.958
| 36> H 	 4.47813 	 -8.19551 	 90.3076
| 37> H 	 4.11229 	 -9.66369 	 90.8227
| 38> H 	 3.95199 	 -9.26681 	 89.083
| 39> H 	 11.2936 	 -8.55373 	 93.5486
| 40> H 	 9.82462 	 -10.119 	 85.6228
| 41> *
| 42>
| 43>                          ****END OF INPUT****

CARTESIAN COORDINATES (ANGSTROEM)
---------------------------------
  S     10.848700   -9.618570   91.396000
  C     10.742700   -8.479540   92.729900
  C      9.704020   -7.572360   92.457600
  C      9.089950   -7.769380   91.187800
  C      9.668830   -8.716560   90.378200
  H      8.365640   -7.100090   90.815800
  C      9.285820   -6.569300   93.531600
  H      8.674400   -5.876410   92.965100
  H     10.152500   -5.944700   93.892700
  C      8.520740   -7.075660   94.747100
  H      7.899980   -7.932320   94.453500
  H      9.257750   -7.467570   95.434300
  C      7.571980   -6.062270   95.455200
  H      6.646250   -5.829280   94.905900
  H      7.251830   -6.430930   96.426300
  H      8.052220   -5.138010   95.643400
  S     10.590400   -9.953090   88.104800
  C      9.533540  -10.043000   86.688700
  C      8.232460   -9.628500   87.009300
  C      8.064010   -9.166310   88.333300
  C      9.246760   -9.274620   89.054400
  H      7.441230   -9.660710   86.279100
  C      6.709020   -8.676030   88.872100
  H      6.197260   -8.297440   88.008000
  H      6.988760   -7.824850   89.474200
  C      5.952000   -9.717920   89.614500
  H      6.489200   -9.883740   90.530600
  H      5.943190  -10.664400   89.044700
  C      4.622060   -9.198480   89.958000
  H      4.478130   -8.195510   90.307600
  H      4.112290   -9.663690   90.822700
  H      3.951990   -9.266810   89.083000
  H     11.293600   -8.553730   93.548600
  H      9.824620  -10.119000   85.622800

 Total Charge           Charge          ....    0
 Multiplicity           Mult            ....    1
 Number of Electrons    NEL             ....  134
 Basis Dimension        Dim             ....  322

ORBITAL ENERGIES
----------------

  NO   OCC          E(Eh)            E(eV)
   0   2.0000     -88.970505     -2421.0105
   1   2.0000     -88.962614     -2420.7958
   2   2.0000     -10.338331      -281.3203
   3   2.0000     -10.334385      -281.2129
   4   2.0000     -10.323895      -280.9275
   5   2.0000     -10.308628      -280.5120
   6   2.0000     -10.304459      -280.3986
   7   2.0000     -10.304303      -280.3943
   8   2.0000     -10.295988      -280.1681
   9   2.0000     -10.293907      -280.1115
  10   2.0000     -10.293810      -280.1088
  11   2.0000     -10.289836      -280.0007
  12   2.0000     -10.287934      -279.9489
  13   2.0000     -10.281813      -279.7824
  14   2.0000     -10.279172      -279.7105
  15   2.0000     -10.274510      -279.5836
  16   2.0000      -8.084198      -219.9822
  17   2.0000      -8.076633      -219.7764
  18   2.0000      -6.042785      -164.4325
  19   2.0000      -6.038843      -164.3253
  20   2.0000      -6.035251      -164.2275
  21   2.0000      -6.034938      -164.2190
  22   2.0000      -6.031127      -164.1153
  23   2.0000      -6.027439      -164.0149
  24   2.0000      -1.001204       -27.2442
  25   2.0000      -0.980076       -26.6692
  26   2.0000      -0.923493       -25.1295
  27   2.0000      -0.906419       -24.6649
  28   2.0000      -0.864661       -23.5286
  29   2.0000      -0.857957       -23.3462
  30   2.0000      -0.844456       -22.9788
  31   2.0000      -0.817007       -22.2319
  32   2.0000      -0.784762       -21.3545
  33   2.0000      -0.771368       -20.9900
  34   2.0000      -0.710075       -19.3221
  35   2.0000      -0.705752       -19.2045
  36   2.0000      -0.696198       -18.9445
  37   2.0000      -0.666488       -18.1361
  38   2.0000      -0.649931       -17.6855
  39   2.0000      -0.622667       -16.9436
  40   2.0000      -0.591692       -16.1008
  41   2.0000      -0.578788       -15.7496
  42   2.0000      -0.562402       -15.3037
  43   2.0000      -0.559811       -15.2332
  44   2.0000      -0.529800       -14.4166
  45   2.0000      -0.526307       -14.3215
  46   2.0000      -0.520297       -14.1580
  47   2.0000      -0.516578       -14.0568
  48   2.0000      -0.507420       -13.8076
  49   2.0000      -0.498267       -13.5585
  50   2.0000      -0.495545       -13.4845
  51   2.0000      -0.485934       -13.2229
  52   2.0000      -0.471241       -12.8231
  53   2.0000      -0.470879       -12.8133
  54   2.0000      -0.458503       -12.4765
  55   2.0000      -0.450774       -12.2662
  56   2.0000      -0.442312       -12.0359
  57   2.0000      -0.434669       -11.8280
  58   2.0000      -0.431908       -11.7528
  59   2.0000      -0.422622       -11.5001
  60   2.0000      -0.419360       -11.4114
  61   2.0000      -0.417034       -11.3481
  62   2.0000      -0.407174       -11.0798
  63   2.0000      -0.355112        -9.6631
  64   2.0000      -0.337239        -9.1767
  65   2.0000      -0.329527        -8.9669
  66   2.0000      -0.283512        -7.7148
  67   0.0000       0.017410         0.4738
  68   0.0000       0.068727         1.8701
  69   0.0000       0.099335         2.7030
  70   0.0000       0.117085         3.1860
  71   0.0000       0.135057         3.6751

MULLIKEN ATOMIC CHARGES
-----------------------
   0 S :    0.072678
   1 C :   -0.050838
   2 C :   -0.107778
   3 C :    0.000681
   4 C :   -0.077902
   5 H :    0.006086
   6 C :    0.051019
   7 H :    0.005215
   8 H :    0.043307
   9 C :   -0.056985
  10 H :    0.032991
  11 H :    0.024888
  12 C :   -0.043161
  13 H :    0.035296
  14 H :    0.029422
  15 H :    0.019697
  16 S :    0.104934
  17 C :   -0.095434
  18 C :   -0.044243
  19 C :   -0.090188
  20 C :   -0.136671
  21 H :    0.011712
  22 C :    0.095097
  23 H :    0.007936
  24 H :    0.005268
  25 C :   -0.005539
  26 H :    0.027107
  27 H :    0.039234
  28 C :   -0.039856
  29 H :    0.013168
  30 H :    0.027057
  31 H :    0.026893
  32 H :   -0.006032
  33 H :    0.074941
Sum of atomic charges:    0.0000000

LOEWDIN ATOMIC CHARGES
----------------------
   0 S :    0.377614
   1 C :   -0.164708
   2 C :   -0.057657
   3 C :   -0.074725
   4 C :   -0.167663
   5 H :    0.022337
   6 C :   -0.039524
   7 H :    0.022893
   8 H :    0.038410
   9 C :   -0.041578
  10 H :    0.027224
  11 H :    0.021867
  12 C :   -0.062576
  13 H :    0.027991
  14 H :    0.027743
  15 H :    0.017416
  16 S :    0.395666
  17 C :   -0.189627
  18 C :   -0.069150
  19 C :   -0.054692
  20 C :   -0.187320
  21 H :    0.028109
  22 C :   -0.020013
  23 H :    0.025018
  24 H :    0.027295
  25 C :   -0.039500
  26 H :    0.029346
  27 H :    0.034201
  28 C :   -0.073624
  29 H :    0.023393
  30 H :    0.029668
  31 H :    0.027287
  32 H :   -0.002147
  33 H :    0.041028

  Mayer bond orders larger than 0.100000
B(  0-S ,  1-C ) :   1.1413 B(  0-S ,  4-C ) :   1.1435 B(  1-C ,  2-C ) :   1.5691
B(  1-C ,  4-C ) :   0.1074 B(  1-C , 32-H ) :   0.9967 B(  2-C ,  3-C ) :   1.2758
B(  2-C ,  6-C ) :   1.0266 B(  3-C ,  4-C ) :   1.5729 B(  3-C ,  5-H ) :   0.9885
B(  4-C , 20-C ) :   1.0220 B(  6-C ,  7-H ) :   0.9419 B(  6-C ,  8-H ) :   0.9394
B(  6-C ,  9-C ) :   1.0543 B(  9-C , 10-H ) :   0.9591 B(  9-C , 11-H ) :   0.9539
B(  9-C , 12-C ) :   1.0835 B( 12-C , 13-H ) :   0.9757 B( 12-C , 14-H ) :   0.9740
B( 12-C , 15-H ) :   0.9771 B( 16-S , 17-C ) :   1.1539 B( 16-S , 20-C ) :   1.1354
B( 17-C , 18-C ) :   1.5984 B( 17-C , 20-C ) :   0.1022 B( 17-C , 33-H ) :   0.9604
B( 18-C , 19-C ) :   1.2706 B( 18-C , 21-H ) :   0.9869 B( 19-C , 20-C ) :   1.5980
B( 19-C , 22-C ) :   1.0152 B( 22-C , 23-H ) :   0.9294 B( 22-C , 24-H ) :   0.9259
B( 22-C , 25-C ) :   1.0787 B( 25-C , 26-H ) :   0.9443 B( 25-C , 27-H ) :   0.9526
B( 25-C , 28-C ) :   1.0870 B( 28-C , 29-H ) :   0.9677 B( 28-C , 30-H ) :   0.9703
B( 28-C , 31-H ) :   0.9722

Dispersion correction           -0.013745631
FINAL SINGLE POINT ENERGY     -1339.863886205866

DIPOLE MOMENT
-------------
                                X             Y             Z
Electronic contribution:     24.75964     -12.30050     -16.59093
Nuclear contribution   :    -25.42378      12.73287      16.73032
                        -----------------------------------------
Total Dipole Moment    :     -0.66414       0.43236       0.13939
                        -----------------------------------------
Magnitude (a.u.)       :      0.80465
Magnitude (Debye)      :      2.04525

Rotational constants in cm-1:     0.018473     0.008577     0.006253
Rotational constants in MHz :   553.793350   257.145296   187.464937

                             ****ORCA TERMINATED NORMALLY****
TOTAL RUN TIME: 0 days 0 hours 0 minutes 33 seconds 65 msec
