                         Program Version 4.2.1 -  RELEASE  -
|  1> ! wB97X-D3 SP def2-SVP
|  2> %pal
|  3> nprocs 16
|  4> end
|  5>
|  6> * xyz 0 1
|  7> S 	 -6.39883 	 15.4578 	 81.6862
|  8> C 	 -6.90144 	 13.9026 	 82.0256
|  9> C 	 -5.86909 	 13.0052 	 82.0931
| 10> C 	 -4.65537 	 13.567 	 81.6534
| 11> C 	 -4.72299 	 14.8941 	 81.2817
| 12> H 	 -3.77938 	 12.9596 	 81.4334
| 13> C 	 -6.18166 	 11.4988 	 82.1972
| 14> H 	 -6.84309 	 11.3157 	 82.9977
| 15> H 	 -5.33412 	 10.9358 	 82.4552
| 16> C 	 -6.91949 	 10.6983 	 80.9745
| 17> H 	 -6.92944 	 9.68898 	 81.2914
| 18> H 	 -7.9653 	 11.1456 	 80.8831
| 19> C 	 -6.00279 	 10.7097 	 79.7775
| 20> H 	 -4.97584 	 10.4068 	 79.9997
| 21> H 	 -6.30383 	 10.0626 	 79.0204
| 22> H 	 -5.99271 	 11.7089 	 79.3893
| 23> S 	 -4.12783 	 17.4294 	 80.7078
| 24> C 	 -2.52146 	 18.0031 	 80.2864
| 25> C 	 -1.68332 	 16.8806 	 80.219
| 26> C 	 -2.30987 	 15.6184 	 80.5587
| 27> C 	 -3.64204 	 15.7826 	 80.8576
| 28> H 	 -0.68299 	 17.0935 	 79.9236
| 29> C 	 -1.54263 	 14.3176 	 80.5545
| 30> H 	 -1.94598 	 13.7171 	 81.4055
| 31> H 	 -0.569901 	 14.474 	 80.9728
| 32> C 	 -1.62689 	 13.5137 	 79.2506
| 33> H 	 -1.27629 	 13.9965 	 78.3597
| 34> H 	 -2.64769 	 13.1956 	 79.1809
| 35> C 	 -0.811888 	 12.2314 	 79.4214
| 36> H 	 0.234898 	 12.6107 	 79.7034
| 37> H 	 -0.844844 	 11.7245 	 78.448
| 38> H 	 -1.20779 	 11.6204 	 80.3056
| 39> H 	 -7.92822 	 13.5706 	 81.9072
| 40> H 	 -2.29357 	 18.9929 	 80.1485
| 41> *
| 42>
| 43>                          ****END OF INPUT****

CARTESIAN COORDINATES (ANGSTROEM)
---------------------------------
  S     -6.398830   15.457800   81.686200
  C     -6.901440   13.902600   82.025600
  C     -5.869090   13.005200   82.093100
  C     -4.655370   13.567000   81.653400
  C     -4.722990   14.894100   81.281700
  H     -3.779380   12.959600   81.433400
  C     -6.181660   11.498800   82.197200
  H     -6.843090   11.315700   82.997700
  H     -5.334120   10.935800   82.455200
  C     -6.919490   10.698300   80.974500
  H     -6.929440    9.688980   81.291400
  H     -7.965300   11.145600   80.883100
  C     -6.002790   10.709700   79.777500
  H     -4.975840   10.406800   79.999700
  H     -6.303830   10.062600   79.020400
  H     -5.992710   11.708900   79.389300
  S     -4.127830   17.429400   80.707800
  C     -2.521460   18.003100   80.286400
  C     -1.683320   16.880600   80.219000
  C     -2.309870   15.618400   80.558700
  C     -3.642040   15.782600   80.857600
  H     -0.682990   17.093500   79.923600
  C     -1.542630   14.317600   80.554500
  H     -1.945980   13.717100   81.405500
  H     -0.569901   14.474000   80.972800
  C     -1.626890   13.513700   79.250600
  H     -1.276290   13.996500   78.359700
  H     -2.647690   13.195600   79.180900
  C     -0.811888   12.231400   79.421400
  H      0.234898   12.610700   79.703400
  H     -0.844844   11.724500   78.448000
  H     -1.207790   11.620400   80.305600
  H     -7.928220   13.570600   81.907200
  H     -2.293570   18.992900   80.148500

 Total Charge           Charge          ....    0
 Multiplicity           Mult            ....    1
 Number of Electrons    NEL             ....  134
 Basis Dimension        Dim             ....  322

ORBITAL ENERGIES
----------------

  NO   OCC          E(Eh)            E(eV)
   0   2.0000     -88.965910     -2420.8855
   1   2.0000     -88.961144     -2420.7558
   2   2.0000     -10.335844      -281.2526
   3   2.0000     -10.328055      -281.0407
   4   2.0000     -10.315436      -280.6973
   5   2.0000     -10.307274      -280.4752
   6   2.0000     -10.305130      -280.4169
   7   2.0000     -10.298262      -280.2300
   8   2.0000     -10.297194      -280.2009
   9   2.0000     -10.295226      -280.1473
  10   2.0000     -10.295072      -280.1432
  11   2.0000     -10.293134      -280.0904
  12   2.0000     -10.290861      -280.0286
  13   2.0000     -10.287247      -279.9302
  14   2.0000     -10.284563      -279.8572
  15   2.0000     -10.268719      -279.4260
  16   2.0000      -8.081238      -219.9017
  17   2.0000      -8.076666      -219.7772
  18   2.0000      -6.039796      -164.3512
  19   2.0000      -6.035592      -164.2368
  20   2.0000      -6.035206      -164.2263
  21   2.0000      -6.031959      -164.1379
  22   2.0000      -6.030985      -164.1114
  23   2.0000      -6.027439      -164.0150
  24   2.0000      -1.011747       -27.5310
  25   2.0000      -0.989216       -26.9179
  26   2.0000      -0.915270       -24.9058
  27   2.0000      -0.904159       -24.6034
  28   2.0000      -0.873832       -23.7782
  29   2.0000      -0.857245       -23.3268
  30   2.0000      -0.848018       -23.0757
  31   2.0000      -0.819709       -22.3054
  32   2.0000      -0.779682       -21.2162
  33   2.0000      -0.771298       -20.9881
  34   2.0000      -0.705338       -19.1932
  35   2.0000      -0.701416       -19.0865
  36   2.0000      -0.696267       -18.9464
  37   2.0000      -0.673786       -18.3346
  38   2.0000      -0.639795       -17.4097
  39   2.0000      -0.622087       -16.9279
  40   2.0000      -0.598219       -16.2784
  41   2.0000      -0.577071       -15.7029
  42   2.0000      -0.572050       -15.5663
  43   2.0000      -0.546014       -14.8578
  44   2.0000      -0.545439       -14.8422
  45   2.0000      -0.537196       -14.6179
  46   2.0000      -0.521214       -14.1830
  47   2.0000      -0.512608       -13.9488
  48   2.0000      -0.511422       -13.9165
  49   2.0000      -0.504317       -13.7232
  50   2.0000      -0.491017       -13.3613
  51   2.0000      -0.481895       -13.1130
  52   2.0000      -0.472119       -12.8470
  53   2.0000      -0.464970       -12.6525
  54   2.0000      -0.456541       -12.4231
  55   2.0000      -0.447599       -12.1798
  56   2.0000      -0.441697       -12.0192
  57   2.0000      -0.438818       -11.9408
  58   2.0000      -0.431749       -11.7485
  59   2.0000      -0.423713       -11.5298
  60   2.0000      -0.422054       -11.4847
  61   2.0000      -0.417035       -11.3481
  62   2.0000      -0.407573       -11.0906
  63   2.0000      -0.365818        -9.9544
  64   2.0000      -0.336075        -9.1451
  65   2.0000      -0.325376        -8.8539
  66   2.0000      -0.281228        -7.6526
  67   0.0000       0.016960         0.4615
  68   0.0000       0.085122         2.3163
  69   0.0000       0.095573         2.6007
  70   0.0000       0.113493         3.0883
  71   0.0000       0.123243         3.3536

MULLIKEN ATOMIC CHARGES
-----------------------
   0 S :    0.109442
   1 C :   -0.111925
   2 C :   -0.060848
   3 C :   -0.025237
   4 C :   -0.093682
   5 H :    0.007396
   6 C :    0.048269
   7 H :    0.015168
   8 H :    0.002546
   9 C :   -0.079146
  10 H :    0.024661
  11 H :    0.045338
  12 C :   -0.019265
  13 H :    0.020185
  14 H :    0.018865
  15 H :    0.037765
  16 S :    0.073333
  17 C :   -0.060637
  18 C :   -0.027547
  19 C :   -0.054541
  20 C :   -0.099675
  21 H :    0.008425
  22 C :    0.017837
  23 H :    0.018197
  24 H :    0.008785
  25 C :   -0.015820
  26 H :    0.033786
  27 H :    0.023552
  28 C :   -0.082634
  29 H :    0.036773
  30 H :    0.050120
  31 H :    0.040639
  32 H :    0.060043
  33 H :    0.029832
Sum of atomic charges:   -0.0000000

LOEWDIN ATOMIC CHARGES
----------------------
   0 S :    0.409213
   1 C :   -0.212026
   2 C :   -0.071236
   3 C :   -0.067429
   4 C :   -0.170901
   5 H :    0.029243
   6 C :   -0.027299
   7 H :    0.023537
   8 H :    0.017857
   9 C :   -0.028877
  10 H :    0.019342
  11 H :    0.029975
  12 C :   -0.063356
  13 H :    0.026099
  14 H :    0.015998
  15 H :    0.026413
  16 S :    0.407347
  17 C :   -0.168822
  18 C :   -0.061566
  19 C :   -0.063192
  20 C :   -0.192780
  21 H :    0.026217
  22 C :   -0.038435
  23 H :    0.033964
  24 H :    0.025324
  25 C :   -0.033408
  26 H :    0.024843
  27 H :    0.022477
  28 C :   -0.070938
  29 H :    0.029643
  30 H :    0.028322
  31 H :    0.029217
  32 H :    0.032650
  33 H :    0.012584

  Mayer bond orders larger than 0.100000
B(  0-S ,  1-C ) :   1.1688 B(  0-S ,  4-C ) :   1.1295 B(  1-C ,  2-C ) :   1.5781
B(  1-C ,  4-C ) :   0.1017 B(  1-C , 32-H ) :   0.9646 B(  2-C ,  3-C ) :   1.2736
B(  2-C ,  6-C ) :   1.0347 B(  3-C ,  4-C ) :   1.5665 B(  3-C ,  5-H ) :   0.9855
B(  4-C , 20-C ) :   1.0861 B(  6-C ,  7-H ) :   0.9409 B(  6-C ,  8-H ) :   0.9430
B(  6-C ,  9-C ) :   1.0669 B(  9-C , 10-H ) :   0.9533 B(  9-C , 11-H ) :   0.9568
B(  9-C , 12-C ) :   1.0789 B( 12-C , 13-H ) :   0.9710 B( 12-C , 14-H ) :   0.9723
B( 12-C , 15-H ) :   0.9757 B( 16-S , 17-C ) :   1.1534 B( 16-S , 20-C ) :   1.1420
B( 17-C , 18-C ) :   1.5898 B( 17-C , 33-H ) :   0.9862 B( 18-C , 19-C ) :   1.2345
B( 18-C , 21-H ) :   0.9997 B( 19-C , 20-C ) :   1.5819 B( 19-C , 22-C ) :   1.0411
B( 22-C , 23-H ) :   0.9312 B( 22-C , 24-H ) :   0.9267 B( 22-C , 25-C ) :   1.0620
B( 25-C , 26-H ) :   0.9570 B( 25-C , 27-H ) :   0.9479 B( 25-C , 28-C ) :   1.0790
B( 28-C , 29-H ) :   0.9750 B( 28-C , 30-H ) :   0.9733 B( 28-C , 31-H ) :   0.9727

Dispersion correction           -0.014740441
FINAL SINGLE POINT ENERGY     -1339.855930759948

DIPOLE MOMENT
-------------
                                X             Y             Z
Electronic contribution:     -8.80355      28.79526       7.15996
Nuclear contribution   :      9.12856     -29.38861      -7.41709
                        -----------------------------------------
Total Dipole Moment    :      0.32501      -0.59336      -0.25713
                        -----------------------------------------
Magnitude (a.u.)       :      0.72376
Magnitude (Debye)      :      1.83964

Rotational constants in cm-1:     0.017572     0.010167     0.006861
Rotational constants in MHz :   526.793477   304.812412   205.684467

                             ****ORCA TERMINATED NORMALLY****
TOTAL RUN TIME: 0 days 0 hours 0 minutes 36 seconds 754 msec
