                         Program Version 4.2.1 -  RELEASE  -
|  1> ! wB97X-D3 SP def2-SVP
|  2> %pal
|  3> nprocs 16
|  4> end
|  5>
|  6> * xyz 0 1
|  7> S 	 36.7545 	 17.6809 	 80.3042
|  8> C 	 35.2651 	 16.7832 	 80.3366
|  9> C 	 35.2432 	 15.9081 	 79.2625
| 10> C 	 36.3309 	 16.1886 	 78.3744
| 11> C 	 37.1748 	 17.2098 	 78.6937
| 12> H 	 36.4943 	 15.6482 	 77.413
| 13> C 	 34.3352 	 14.7312 	 79.0807
| 14> H 	 34.2756 	 14.6385 	 77.9756
| 15> H 	 33.2782 	 15.0479 	 79.391
| 16> C 	 34.6503 	 13.6089 	 80.0438
| 17> H 	 34.4605 	 13.9598 	 81.0433
| 18> H 	 33.919 	 12.8233 	 79.9172
| 19> C 	 36.0659 	 12.9782 	 79.7237
| 20> H 	 36.0413 	 12.4552 	 78.8095
| 21> H 	 36.8569 	 13.7007 	 79.6692
| 22> H 	 36.3148 	 12.2385 	 80.463
| 23> S 	 38.3631 	 17.8458 	 76.2094
| 24> C 	 40.1105 	 17.9086 	 76.1302
| 25> C 	 40.6188 	 18.0911 	 77.4081
| 26> C 	 39.6299 	 18.0562 	 78.4676
| 27> C 	 38.3979 	 17.5196 	 77.9464
| 28> H 	 41.6653 	 18.3064 	 77.4922
| 29> C 	 40.0651 	 18.1757 	 79.8693
| 30> H 	 39.2418 	 18.0867 	 80.5737
| 31> H 	 40.3418 	 19.214 	 80.0435
| 32> C 	 41.238 	 17.206 	 80.2296
| 33> H 	 42.0746 	 17.2117 	 79.5567
| 34> H 	 40.8243 	 16.2092 	 79.9535
| 35> C 	 41.7485 	 17.3013 	 81.6838
| 36> H 	 42.1392 	 16.3555 	 82.0436
| 37> H 	 40.9311 	 17.437 	 82.4155
| 38> H 	 42.3626 	 18.1584 	 81.871
| 39> H 	 34.5429 	 16.9072 	 81.2063
| 40> H 	 40.691 	 18.1268 	 75.2592
| 41> *
| 42>
| 43>                          ****END OF INPUT****

CARTESIAN COORDINATES (ANGSTROEM)
---------------------------------
  S     36.754500   17.680900   80.304200
  C     35.265100   16.783200   80.336600
  C     35.243200   15.908100   79.262500
  C     36.330900   16.188600   78.374400
  C     37.174800   17.209800   78.693700
  H     36.494300   15.648200   77.413000
  C     34.335200   14.731200   79.080700
  H     34.275600   14.638500   77.975600
  H     33.278200   15.047900   79.391000
  C     34.650300   13.608900   80.043800
  H     34.460500   13.959800   81.043300
  H     33.919000   12.823300   79.917200
  C     36.065900   12.978200   79.723700
  H     36.041300   12.455200   78.809500
  H     36.856900   13.700700   79.669200
  H     36.314800   12.238500   80.463000
  S     38.363100   17.845800   76.209400
  C     40.110500   17.908600   76.130200
  C     40.618800   18.091100   77.408100
  C     39.629900   18.056200   78.467600
  C     38.397900   17.519600   77.946400
  H     41.665300   18.306400   77.492200
  C     40.065100   18.175700   79.869300
  H     39.241800   18.086700   80.573700
  H     40.341800   19.214000   80.043500
  C     41.238000   17.206000   80.229600
  H     42.074600   17.211700   79.556700
  H     40.824300   16.209200   79.953500
  C     41.748500   17.301300   81.683800
  H     42.139200   16.355500   82.043600
  H     40.931100   17.437000   82.415500
  H     42.362600   18.158400   81.871000
  H     34.542900   16.907200   81.206300
  H     40.691000   18.126800   75.259200

 Total Charge           Charge          ....    0
 Multiplicity           Mult            ....    1
 Number of Electrons    NEL             ....  134
 Basis Dimension        Dim             ....  322

ORBITAL ENERGIES
----------------

  NO   OCC          E(Eh)            E(eV)
   0   2.0000     -88.966297     -2420.8960
   1   2.0000     -88.964138     -2420.8373
   2   2.0000     -10.336014      -281.2572
   3   2.0000     -10.327084      -281.0142
   4   2.0000     -10.320660      -280.8394
   5   2.0000     -10.314613      -280.6749
   6   2.0000     -10.307809      -280.4897
   7   2.0000     -10.300188      -280.2824
   8   2.0000     -10.296355      -280.1781
   9   2.0000     -10.293899      -280.1112
  10   2.0000     -10.291582      -280.0482
  11   2.0000     -10.289920      -280.0030
  12   2.0000     -10.289289      -279.9858
  13   2.0000     -10.289260      -279.9850
  14   2.0000     -10.277839      -279.6742
  15   2.0000     -10.269964      -279.4599
  16   2.0000      -8.080423      -219.8795
  17   2.0000      -8.079083      -219.8430
  18   2.0000      -6.039067      -164.3314
  19   2.0000      -6.037676      -164.2935
  20   2.0000      -6.035265      -164.2279
  21   2.0000      -6.033536      -164.1809
  22   2.0000      -6.030827      -164.1071
  23   2.0000      -6.029748      -164.0778
  24   2.0000      -1.008738       -27.4492
  25   2.0000      -0.984737       -26.7960
  26   2.0000      -0.914416       -24.8825
  27   2.0000      -0.907491       -24.6941
  28   2.0000      -0.868042       -23.6206
  29   2.0000      -0.847871       -23.0718
  30   2.0000      -0.840356       -22.8673
  31   2.0000      -0.813695       -22.1418
  32   2.0000      -0.783911       -21.3313
  33   2.0000      -0.771335       -20.9891
  34   2.0000      -0.713551       -19.4167
  35   2.0000      -0.708585       -19.2816
  36   2.0000      -0.696010       -18.9394
  37   2.0000      -0.657091       -17.8804
  38   2.0000      -0.633568       -17.2402
  39   2.0000      -0.614164       -16.7123
  40   2.0000      -0.595598       -16.2070
  41   2.0000      -0.572300       -15.5731
  42   2.0000      -0.556199       -15.1349
  43   2.0000      -0.547655       -14.9025
  44   2.0000      -0.540084       -14.6964
  45   2.0000      -0.525189       -14.2911
  46   2.0000      -0.517054       -14.0698
  47   2.0000      -0.514253       -13.9935
  48   2.0000      -0.506553       -13.7840
  49   2.0000      -0.494900       -13.4669
  50   2.0000      -0.491902       -13.3853
  51   2.0000      -0.478897       -13.0314
  52   2.0000      -0.470241       -12.7959
  53   2.0000      -0.463284       -12.6066
  54   2.0000      -0.459900       -12.5145
  55   2.0000      -0.452448       -12.3117
  56   2.0000      -0.447990       -12.1904
  57   2.0000      -0.437013       -11.8917
  58   2.0000      -0.431380       -11.7384
  59   2.0000      -0.425054       -11.5663
  60   2.0000      -0.417751       -11.3676
  61   2.0000      -0.414570       -11.2810
  62   2.0000      -0.401733       -10.9317
  63   2.0000      -0.356433        -9.6990
  64   2.0000      -0.326570        -8.8864
  65   2.0000      -0.322952        -8.7880
  66   2.0000      -0.284262        -7.7352
  67   0.0000       0.018843         0.5127
  68   0.0000       0.073454         1.9988
  69   0.0000       0.100615         2.7379
  70   0.0000       0.116635         3.1738
  71   0.0000       0.132310         3.6003

MULLIKEN ATOMIC CHARGES
-----------------------
   0 S :    0.076003
   1 C :   -0.152760
   2 C :   -0.077311
   3 C :   -0.040030
   4 C :   -0.089184
   5 H :    0.025912
   6 C :    0.029472
   7 H :    0.037522
   8 H :    0.028627
   9 C :   -0.027440
  10 H :    0.025001
  11 H :    0.024795
  12 C :   -0.033294
  13 H :    0.019668
  14 H :    0.044122
  15 H :    0.026723
  16 S :    0.100453
  17 C :   -0.071895
  18 C :   -0.056765
  19 C :   -0.053401
  20 C :   -0.136915
  21 H :    0.018889
  22 C :    0.078476
  23 H :    0.014192
  24 H :    0.027561
  25 C :   -0.089410
  26 H :    0.025745
  27 H :    0.031329
  28 C :   -0.026499
  29 H :    0.034275
  30 H :    0.018191
  31 H :    0.034937
  32 H :    0.079853
  33 H :    0.053158
Sum of atomic charges:   -0.0000000

LOEWDIN ATOMIC CHARGES
----------------------
   0 S :    0.422663
   1 C :   -0.205171
   2 C :   -0.071466
   3 C :   -0.074253
   4 C :   -0.204609
   5 H :    0.033170
   6 C :   -0.041907
   7 H :    0.034430
   8 H :    0.038434
   9 C :   -0.030091
  10 H :    0.023239
  11 H :    0.023668
  12 C :   -0.057480
  13 H :    0.021153
  14 H :    0.024321
  15 H :    0.023976
  16 S :    0.399742
  17 C :   -0.189076
  18 C :   -0.064366
  19 C :   -0.054605
  20 C :   -0.182601
  21 H :    0.027766
  22 C :   -0.042541
  23 H :    0.014930
  24 H :    0.034899
  25 C :   -0.039303
  26 H :    0.019637
  27 H :    0.031234
  28 C :   -0.069083
  29 H :    0.030033
  30 H :    0.027707
  31 H :    0.023868
  32 H :    0.043892
  33 H :    0.027789

  Mayer bond orders larger than 0.100000
B(  0-S ,  1-C ) :   1.1534 B(  0-S ,  4-C ) :   1.1446 B(  1-C ,  2-C ) :   1.5615
B(  1-C , 32-H ) :   0.9653 B(  2-C ,  3-C ) :   1.2694 B(  2-C ,  6-C ) :   1.0236
B(  3-C ,  4-C ) :   1.5251 B(  3-C ,  5-H ) :   0.9901 B(  4-C , 20-C ) :   1.0925
B(  6-C ,  7-H ) :   0.9482 B(  6-C ,  8-H ) :   0.9348 B(  6-C ,  9-C ) :   1.0665
B(  9-C , 10-H ) :   0.9549 B(  9-C , 11-H ) :   0.9553 B(  9-C , 12-C ) :   1.0634
B( 12-C , 13-H ) :   0.9751 B( 12-C , 14-H ) :   0.9799 B( 12-C , 15-H ) :   0.9750
B( 16-S , 17-C ) :   1.1356 B( 16-S , 20-C ) :   1.1484 B( 17-C , 18-C ) :   1.6169
B( 17-C , 20-C ) :   0.1007 B( 17-C , 33-H ) :   0.9695 B( 18-C , 19-C ) :   1.2275
B( 18-C , 21-H ) :   0.9908 B( 19-C , 20-C ) :   1.5156 B( 19-C , 22-C ) :   1.0815
B( 22-C , 23-H ) :   0.9301 B( 22-C , 24-H ) :   0.9135 B( 22-C , 25-C ) :   1.0443
B( 25-C , 26-H ) :   0.9562 B( 25-C , 27-H ) :   0.9576 B( 25-C , 28-C ) :   1.0747
B( 28-C , 29-H ) :   0.9732 B( 28-C , 30-H ) :   0.9732 B( 28-C , 31-H ) :   0.9758

Dispersion correction           -0.014462675
FINAL SINGLE POINT ENERGY     -1339.855892256678

DIPOLE MOMENT
-------------
                                X             Y             Z
Electronic contribution:     -4.85924      14.87750     -13.33613
Nuclear contribution   :      4.97266     -15.17293      13.63636
                        -----------------------------------------
Total Dipole Moment    :      0.11342      -0.29543       0.30023
                        -----------------------------------------
Magnitude (a.u.)       :      0.43621
Magnitude (Debye)      :      1.10876

Rotational constants in cm-1:     0.018308     0.008705     0.007192
Rotational constants in MHz :   548.849760   260.982742   215.606293

                             ****ORCA TERMINATED NORMALLY****
TOTAL RUN TIME: 0 days 0 hours 0 minutes 31 seconds 929 msec
