                         Program Version 4.2.1 -  RELEASE  -
|  1> ! wB97X-D3 SP def2-SVP
|  2> %pal
|  3> nprocs 16
|  4> end
|  5>
|  6> * xyz 0 1
|  7> S 	 -15.2352 	 36.732 	 36.5116
|  8> C 	 -15.2833 	 37.3326 	 38.1176
|  9> C 	 -14.312 	 38.2993 	 38.3554
| 10> C 	 -13.3805 	 38.3625 	 37.2075
| 11> C 	 -13.8489 	 37.6713 	 36.0982
| 12> H 	 -12.5412 	 39.062 	 37.2747
| 13> C 	 -14.1252 	 39.0682 	 39.5552
| 14> H 	 -13.1923 	 38.8859 	 39.9932
| 15> H 	 -14.8593 	 38.796 	 40.244
| 16> C 	 -14.2432 	 40.5837 	 39.2996
| 17> H 	 -13.4717 	 40.8732 	 38.6174
| 18> H 	 -15.1463 	 40.7794 	 38.7523
| 19> C 	 -14.0486 	 41.3739 	 40.6249
| 20> H 	 -13.1161 	 41.2097 	 41.2073
| 21> H 	 -14.1002 	 42.4306 	 40.46
| 22> H 	 -14.8659 	 41.218 	 41.2807
| 23> S 	 -13.1996 	 36.2185 	 33.8046
| 24> C 	 -12.6612 	 37.0654 	 32.3531
| 25> C 	 -12.526 	 38.4283 	 32.5865
| 26> C 	 -12.9126 	 38.7774 	 33.9113
| 27> C 	 -13.31 	 37.7135 	 34.7263
| 28> H 	 -12.2462 	 39.0699 	 31.7223
| 29> C 	 -13.0067 	 40.2527 	 34.268
| 30> H 	 -12.4556 	 40.9397 	 33.7018
| 31> H 	 -12.7016 	 40.4426 	 35.3115
| 32> C 	 -14.4047 	 40.8689 	 34.143
| 33> H 	 -15.0612 	 40.6001 	 34.9658
| 34> H 	 -14.8574 	 40.5071 	 33.2593
| 35> C 	 -14.338 	 42.4431 	 34.2134
| 36> H 	 -13.7456 	 43.0417 	 33.5193
| 37> H 	 -13.9744 	 42.8806 	 35.1858
| 38> H 	 -15.3383 	 42.8073 	 34.1354
| 39> H 	 -16.017 	 36.9466 	 38.7942
| 40> H 	 -12.4793 	 36.6466 	 31.406
| 41> *
| 42>
| 43>                          ****END OF INPUT****

CARTESIAN COORDINATES (ANGSTROEM)
---------------------------------
  S    -15.235200   36.732000   36.511600
  C    -15.283300   37.332600   38.117600
  C    -14.312000   38.299300   38.355400
  C    -13.380500   38.362500   37.207500
  C    -13.848900   37.671300   36.098200
  H    -12.541200   39.062000   37.274700
  C    -14.125200   39.068200   39.555200
  H    -13.192300   38.885900   39.993200
  H    -14.859300   38.796000   40.244000
  C    -14.243200   40.583700   39.299600
  H    -13.471700   40.873200   38.617400
  H    -15.146300   40.779400   38.752300
  C    -14.048600   41.373900   40.624900
  H    -13.116100   41.209700   41.207300
  H    -14.100200   42.430600   40.460000
  H    -14.865900   41.218000   41.280700
  S    -13.199600   36.218500   33.804600
  C    -12.661200   37.065400   32.353100
  C    -12.526000   38.428300   32.586500
  C    -12.912600   38.777400   33.911300
  C    -13.310000   37.713500   34.726300
  H    -12.246200   39.069900   31.722300
  C    -13.006700   40.252700   34.268000
  H    -12.455600   40.939700   33.701800
  H    -12.701600   40.442600   35.311500
  C    -14.404700   40.868900   34.143000
  H    -15.061200   40.600100   34.965800
  H    -14.857400   40.507100   33.259300
  C    -14.338000   42.443100   34.213400
  H    -13.745600   43.041700   33.519300
  H    -13.974400   42.880600   35.185800
  H    -15.338300   42.807300   34.135400
  H    -16.017000   36.946600   38.794200
  H    -12.479300   36.646600   31.406000

 Total Charge           Charge          ....    0
 Multiplicity           Mult            ....    1
 Number of Electrons    NEL             ....  134
 Basis Dimension        Dim             ....  322

ORBITAL ENERGIES
----------------

  NO   OCC          E(Eh)            E(eV)
   0   2.0000     -88.966968     -2420.9143
   1   2.0000     -88.964746     -2420.8538
   2   2.0000     -10.332675      -281.1664
   3   2.0000     -10.331277      -281.1283
   4   2.0000     -10.317161      -280.7442
   5   2.0000     -10.310985      -280.5762
   6   2.0000     -10.306676      -280.4589
   7   2.0000     -10.299925      -280.2752
   8   2.0000     -10.298564      -280.2382
   9   2.0000     -10.297868      -280.2192
  10   2.0000     -10.286797      -279.9180
  11   2.0000     -10.283201      -279.8201
  12   2.0000     -10.282695      -279.8064
  13   2.0000     -10.279617      -279.7226
  14   2.0000     -10.278379      -279.6889
  15   2.0000     -10.277416      -279.6627
  16   2.0000      -8.081183      -219.9002
  17   2.0000      -8.080710      -219.8873
  18   2.0000      -6.039727      -164.3493
  19   2.0000      -6.039193      -164.3348
  20   2.0000      -6.035683      -164.2393
  21   2.0000      -6.034982      -164.2202
  22   2.0000      -6.032016      -164.1395
  23   2.0000      -6.031488      -164.1251
  24   2.0000      -1.006629       -27.3918
  25   2.0000      -0.984670       -26.7942
  26   2.0000      -0.921982       -25.0884
  27   2.0000      -0.905494       -24.6397
  28   2.0000      -0.868641       -23.6369
  29   2.0000      -0.849131       -23.1060
  30   2.0000      -0.843803       -22.9610
  31   2.0000      -0.816057       -22.2061
  32   2.0000      -0.782741       -21.2995
  33   2.0000      -0.772478       -21.0202
  34   2.0000      -0.717251       -19.5174
  35   2.0000      -0.703992       -19.1566
  36   2.0000      -0.693316       -18.8661
  37   2.0000      -0.662474       -18.0268
  38   2.0000      -0.643922       -17.5220
  39   2.0000      -0.628221       -17.0948
  40   2.0000      -0.599432       -16.3114
  41   2.0000      -0.577565       -15.7163
  42   2.0000      -0.565901       -15.3990
  43   2.0000      -0.558381       -15.1943
  44   2.0000      -0.522860       -14.2277
  45   2.0000      -0.521828       -14.1997
  46   2.0000      -0.516784       -14.0624
  47   2.0000      -0.511580       -13.9208
  48   2.0000      -0.508571       -13.8389
  49   2.0000      -0.501184       -13.6379
  50   2.0000      -0.491530       -13.3752
  51   2.0000      -0.486270       -13.2321
  52   2.0000      -0.467800       -12.7295
  53   2.0000      -0.464095       -12.6287
  54   2.0000      -0.455375       -12.3914
  55   2.0000      -0.452944       -12.3252
  56   2.0000      -0.445599       -12.1254
  57   2.0000      -0.442824       -12.0499
  58   2.0000      -0.431754       -11.7486
  59   2.0000      -0.425727       -11.5846
  60   2.0000      -0.424497       -11.5511
  61   2.0000      -0.419317       -11.4102
  62   2.0000      -0.415669       -11.3109
  63   2.0000      -0.348945        -9.4953
  64   2.0000      -0.332178        -9.0390
  65   2.0000      -0.324515        -8.8305
  66   2.0000      -0.291383        -7.9289
  67   0.0000       0.026924         0.7326
  68   0.0000       0.078354         2.1321
  69   0.0000       0.112931         3.0730
  70   0.0000       0.116402         3.1674
  71   0.0000       0.126035         3.4296

MULLIKEN ATOMIC CHARGES
-----------------------
   0 S :    0.117159
   1 C :   -0.117492
   2 C :   -0.122029
   3 C :    0.024639
   4 C :   -0.132436
   5 H :    0.023537
   6 C :    0.136864
   7 H :    0.016098
   8 H :   -0.006561
   9 C :   -0.088645
  10 H :    0.017764
  11 H :    0.028461
  12 C :   -0.027604
  13 H :    0.038674
  14 H :    0.023621
  15 H :    0.018625
  16 S :    0.101729
  17 C :   -0.077009
  18 C :   -0.053036
  19 C :   -0.016659
  20 C :   -0.138638
  21 H :    0.040257
  22 C :    0.089385
  23 H :   -0.001291
  24 H :    0.008878
  25 C :   -0.044042
  26 H :    0.034660
  27 H :    0.021691
  28 C :   -0.081481
  29 H :    0.028576
  30 H :    0.025868
  31 H :    0.026798
  32 H :    0.043943
  33 H :    0.039695
Sum of atomic charges:    0.0000000

LOEWDIN ATOMIC CHARGES
----------------------
   0 S :    0.428116
   1 C :   -0.206103
   2 C :   -0.056855
   3 C :   -0.060510
   4 C :   -0.202523
   5 H :    0.030064
   6 C :   -0.028810
   7 H :    0.028029
   8 H :    0.023302
   9 C :   -0.026810
  10 H :    0.017041
  11 H :    0.024799
  12 C :   -0.066378
  13 H :    0.031907
  14 H :    0.024140
  15 H :    0.019754
  16 S :    0.398512
  17 C :   -0.171846
  18 C :   -0.074511
  19 C :   -0.053674
  20 C :   -0.197457
  21 H :    0.042966
  22 C :   -0.032124
  23 H :    0.020759
  24 H :    0.028227
  25 C :   -0.024645
  26 H :    0.026953
  27 H :    0.017567
  28 C :   -0.076920
  29 H :    0.021067
  30 H :    0.028731
  31 H :    0.023308
  32 H :    0.023022
  33 H :    0.020902

  Mayer bond orders larger than 0.100000
B(  0-S ,  1-C ) :   1.1409 B(  0-S ,  4-C ) :   1.1661 B(  1-C ,  2-C ) :   1.5911
B(  1-C , 32-H ) :   0.9729 B(  2-C ,  3-C ) :   1.2296 B(  2-C ,  6-C ) :   1.0699
B(  3-C ,  4-C ) :   1.5591 B(  3-C ,  5-H ) :   0.9886 B(  4-C , 20-C ) :   1.0388
B(  6-C ,  7-H ) :   0.9246 B(  6-C ,  8-H ) :   0.9301 B(  6-C ,  9-C ) :   1.0528
B(  9-C , 10-H ) :   0.9572 B(  9-C , 11-H ) :   0.9568 B(  9-C , 12-C ) :   1.0798
B( 12-C , 13-H ) :   0.9740 B( 12-C , 14-H ) :   0.9726 B( 12-C , 15-H ) :   0.9742
B( 16-S , 17-C ) :   1.1596 B( 16-S , 20-C ) :   1.1348 B( 17-C , 18-C ) :   1.6039
B( 17-C , 20-C ) :   0.1018 B( 17-C , 33-H ) :   0.9717 B( 18-C , 19-C ) :   1.2476
B( 18-C , 21-H ) :   0.9868 B( 19-C , 20-C ) :   1.5794 B( 19-C , 22-C ) :   1.0573
B( 22-C , 23-H ) :   0.9412 B( 22-C , 24-H ) :   0.9282 B( 22-C , 25-C ) :   1.0588
B( 25-C , 26-H ) :   0.9530 B( 25-C , 27-H ) :   0.9583 B( 25-C , 28-C ) :   1.0724
B( 28-C , 29-H ) :   0.9761 B( 28-C , 30-H ) :   0.9753 B( 28-C , 31-H ) :   0.9756

Dispersion correction           -0.014381314
FINAL SINGLE POINT ENERGY     -1339.876032215712

DIPOLE MOMENT
-------------
                                X             Y             Z
Electronic contribution:      0.35212     -30.40327     -12.60890
Nuclear contribution   :     -0.36254      31.09709      12.79623
                        -----------------------------------------
Total Dipole Moment    :     -0.01042       0.69382       0.18733
                        -----------------------------------------
Magnitude (a.u.)       :      0.71874
Magnitude (Debye)      :      1.82689

Rotational constants in cm-1:     0.018161     0.009259     0.006772
Rotational constants in MHz :   544.454496   277.590482   203.012805

                             ****ORCA TERMINATED NORMALLY****
TOTAL RUN TIME: 0 days 0 hours 0 minutes 33 seconds 935 msec
