                         Program Version 4.2.1 -  RELEASE  -
|  1> ! wB97X-D3 SP def2-SVP
|  2> %pal
|  3> nprocs 16
|  4> end
|  5>
|  6> * xyz 0 1
|  7> S 	 -107.7 	 41.7984 	 130.771
|  8> C 	 -106.495 	 41.8792 	 131.981
|  9> C 	 -105.282 	 41.7146 	 131.394
| 10> C 	 -105.312 	 41.6746 	 129.94
| 11> C 	 -106.553 	 41.5661 	 129.453
| 12> H 	 -104.438 	 41.6367 	 129.337
| 13> C 	 -103.916 	 41.851 	 132.145
| 14> H 	 -103.216 	 41.5772 	 131.396
| 15> H 	 -103.814 	 41.0329 	 132.87
| 16> C 	 -103.528 	 43.1953 	 132.69
| 17> H 	 -103.597 	 43.8326 	 131.831
| 18> H 	 -104.329 	 43.5498 	 133.334
| 19> C 	 -102.097 	 43.3201 	 133.269
| 20> H 	 -102.082 	 42.4588 	 134.012
| 21> H 	 -101.363 	 43.2201 	 132.429
| 22> H 	 -101.793 	 44.1679 	 133.785
| 23> S 	 -108.163 	 40.2724 	 127.718
| 24> C 	 -108.113 	 40.6457 	 126.01
| 25> C 	 -107.285 	 41.6759 	 125.785
| 26> C 	 -106.707 	 42.2265 	 126.993
| 27> C 	 -107.054 	 41.5174 	 128.107
| 28> H 	 -107.043 	 42.1526 	 124.861
| 29> C 	 -105.803 	 43.4061 	 126.985
| 30> H 	 -105.487 	 43.6341 	 128.001
| 31> H 	 -106.411 	 44.2286 	 126.795
| 32> C 	 -104.566 	 43.3306 	 126.187
| 33> H 	 -104.88 	 43.3464 	 125.136
| 34> H 	 -104.089 	 42.3555 	 126.335
| 35> C 	 -103.569 	 44.4813 	 126.465
| 36> H 	 -103.285 	 44.5052 	 127.518
| 37> H 	 -104.024 	 45.4137 	 126.149
| 38> H 	 -102.558 	 44.3963 	 125.963
| 39> H 	 -106.648 	 41.9944 	 132.984
| 40> H 	 -108.666 	 40.1698 	 125.215
| 41> *
| 42>
| 43>                          ****END OF INPUT****

CARTESIAN COORDINATES (ANGSTROEM)
---------------------------------
  S    -107.700000   41.798400  130.771000
  C    -106.495000   41.879200  131.981000
  C    -105.282000   41.714600  131.394000
  C    -105.312000   41.674600  129.940000
  C    -106.553000   41.566100  129.453000
  H    -104.438000   41.636700  129.337000
  C    -103.916000   41.851000  132.145000
  H    -103.216000   41.577200  131.396000
  H    -103.814000   41.032900  132.870000
  C    -103.528000   43.195300  132.690000
  H    -103.597000   43.832600  131.831000
  H    -104.329000   43.549800  133.334000
  C    -102.097000   43.320100  133.269000
  H    -102.082000   42.458800  134.012000
  H    -101.363000   43.220100  132.429000
  H    -101.793000   44.167900  133.785000
  S    -108.163000   40.272400  127.718000
  C    -108.113000   40.645700  126.010000
  C    -107.285000   41.675900  125.785000
  C    -106.707000   42.226500  126.993000
  C    -107.054000   41.517400  128.107000
  H    -107.043000   42.152600  124.861000
  C    -105.803000   43.406100  126.985000
  H    -105.487000   43.634100  128.001000
  H    -106.411000   44.228600  126.795000
  C    -104.566000   43.330600  126.187000
  H    -104.880000   43.346400  125.136000
  H    -104.089000   42.355500  126.335000
  C    -103.569000   44.481300  126.465000
  H    -103.285000   44.505200  127.518000
  H    -104.024000   45.413700  126.149000
  H    -102.558000   44.396300  125.963000
  H    -106.648000   41.994400  132.984000
  H    -108.666000   40.169800  125.215000

 Total Charge           Charge          ....    0
 Multiplicity           Mult            ....    1
 Number of Electrons    NEL             ....  134
 Basis Dimension        Dim             ....  322

ORBITAL ENERGIES
----------------

  NO   OCC          E(Eh)            E(eV)
   0   2.0000     -88.962634     -2420.7964
   1   2.0000     -88.959808     -2420.7194
   2   2.0000     -10.325659      -280.9755
   3   2.0000     -10.319334      -280.8033
   4   2.0000     -10.315483      -280.6986
   5   2.0000     -10.305876      -280.4371
   6   2.0000     -10.300834      -280.2999
   7   2.0000     -10.297206      -280.2012
   8   2.0000     -10.292339      -280.0688
   9   2.0000     -10.289786      -279.9993
  10   2.0000     -10.287566      -279.9389
  11   2.0000     -10.286777      -279.9174
  12   2.0000     -10.285620      -279.8859
  13   2.0000     -10.285431      -279.8808
  14   2.0000     -10.283474      -279.8275
  15   2.0000     -10.277204      -279.6569
  16   2.0000      -8.078424      -219.8251
  17   2.0000      -8.075622      -219.7488
  18   2.0000      -6.037054      -164.2766
  19   2.0000      -6.034235      -164.1999
  20   2.0000      -6.032728      -164.1589
  21   2.0000      -6.029831      -164.0800
  22   2.0000      -6.029021      -164.0580
  23   2.0000      -6.026343      -163.9851
  24   2.0000      -1.017273       -27.6814
  25   2.0000      -0.993378       -27.0312
  26   2.0000      -0.920621       -25.0514
  27   2.0000      -0.911819       -24.8119
  28   2.0000      -0.880281       -23.9537
  29   2.0000      -0.852122       -23.1874
  30   2.0000      -0.844896       -22.9908
  31   2.0000      -0.824887       -22.4463
  32   2.0000      -0.783453       -21.3188
  33   2.0000      -0.774760       -21.0823
  34   2.0000      -0.709923       -19.3180
  35   2.0000      -0.706336       -19.2204
  36   2.0000      -0.701995       -19.1023
  37   2.0000      -0.667112       -18.1530
  38   2.0000      -0.651873       -17.7384
  39   2.0000      -0.622824       -16.9479
  40   2.0000      -0.604877       -16.4595
  41   2.0000      -0.573736       -15.6121
  42   2.0000      -0.571045       -15.5389
  43   2.0000      -0.564104       -15.3500
  44   2.0000      -0.532017       -14.4769
  45   2.0000      -0.527827       -14.3629
  46   2.0000      -0.523141       -14.2354
  47   2.0000      -0.521299       -14.1853
  48   2.0000      -0.506260       -13.7760
  49   2.0000      -0.500085       -13.6080
  50   2.0000      -0.498595       -13.5675
  51   2.0000      -0.485030       -13.1983
  52   2.0000      -0.475139       -12.9292
  53   2.0000      -0.468144       -12.7388
  54   2.0000      -0.463431       -12.6106
  55   2.0000      -0.453835       -12.3495
  56   2.0000      -0.451448       -12.2845
  57   2.0000      -0.438085       -11.9209
  58   2.0000      -0.429292       -11.6816
  59   2.0000      -0.421381       -11.4664
  60   2.0000      -0.414809       -11.2875
  61   2.0000      -0.411776       -11.2050
  62   2.0000      -0.407922       -11.1001
  63   2.0000      -0.355597        -9.6763
  64   2.0000      -0.331029        -9.0077
  65   2.0000      -0.328811        -8.9474
  66   2.0000      -0.301408        -8.2017
  67   0.0000       0.038904         1.0586
  68   0.0000       0.074372         2.0238
  69   0.0000       0.121042         3.2937
  70   0.0000       0.121822         3.3149
  71   0.0000       0.127772         3.4769

MULLIKEN ATOMIC CHARGES
-----------------------
   0 S :    0.096286
   1 C :   -0.070075
   2 C :   -0.119355
   3 C :    0.028247
   4 C :   -0.117604
   5 H :    0.001653
   6 C :    0.074347
   7 H :   -0.007917
   8 H :    0.024589
   9 C :   -0.041999
  10 H :    0.011809
  11 H :    0.021448
  12 C :   -0.044668
  13 H :    0.036585
  14 H :    0.038608
  15 H :    0.028169
  16 S :    0.109926
  17 C :   -0.067049
  18 C :   -0.009556
  19 C :   -0.064876
  20 C :   -0.150022
  21 H :    0.004006
  22 C :    0.111025
  23 H :   -0.001478
  24 H :    0.011867
  25 C :   -0.080278
  26 H :    0.025112
  27 H :    0.030290
  28 C :   -0.055520
  29 H :    0.030448
  30 H :    0.033765
  31 H :    0.042631
  32 H :    0.014440
  33 H :    0.055143
Sum of atomic charges:    0.0000000

LOEWDIN ATOMIC CHARGES
----------------------
   0 S :    0.409799
   1 C :   -0.185089
   2 C :   -0.060856
   3 C :   -0.058697
   4 C :   -0.183533
   5 H :    0.027423
   6 C :   -0.032300
   7 H :    0.020031
   8 H :    0.026582
   9 C :   -0.044797
  10 H :    0.020187
  11 H :    0.020539
  12 C :   -0.063026
  13 H :    0.033526
  14 H :    0.032241
  15 H :    0.016795
  16 S :    0.419438
  17 C :   -0.178977
  18 C :   -0.066201
  19 C :   -0.051131
  20 C :   -0.214986
  21 H :    0.026580
  22 C :   -0.037385
  23 H :    0.029040
  24 H :    0.026732
  25 C :   -0.042221
  26 H :    0.021673
  27 H :    0.025054
  28 C :   -0.066564
  29 H :    0.023661
  30 H :    0.024994
  31 H :    0.034122
  32 H :    0.014043
  33 H :    0.033302

  Mayer bond orders larger than 0.100000
B(  0-S ,  1-C ) :   1.1385 B(  0-S ,  4-C ) :   1.1456 B(  1-C ,  2-C ) :   1.6216
B(  1-C , 32-H ) :   0.9889 B(  2-C ,  3-C ) :   1.2210 B(  2-C ,  6-C ) :   1.0215
B(  3-C ,  4-C ) :   1.6074 B(  3-C ,  5-H ) :   1.0060 B(  4-C , 20-C ) :   1.0000
B(  6-C ,  7-H ) :   0.9369 B(  6-C ,  8-H ) :   0.9341 B(  6-C ,  9-C ) :   1.0624
B(  9-C , 10-H ) :   0.9511 B(  9-C , 11-H ) :   0.9566 B(  9-C , 12-C ) :   1.0666
B( 12-C , 13-H ) :   0.9781 B( 12-C , 14-H ) :   0.9751 B( 12-C , 15-H ) :   0.9773
B( 16-S , 17-C ) :   1.1405 B( 16-S , 20-C ) :   1.1392 B( 17-C , 18-C ) :   1.6130
B( 17-C , 33-H ) :   0.9692 B( 18-C , 19-C ) :   1.2318 B( 18-C , 21-H ) :   0.9947
B( 19-C , 20-C ) :   1.6240 B( 19-C , 22-C ) :   1.0529 B( 22-C , 23-H ) :   0.9263
B( 22-C , 24-H ) :   0.9112 B( 22-C , 25-C ) :   1.0584 B( 25-C , 26-H ) :   0.9486
B( 25-C , 27-H ) :   0.9571 B( 25-C , 28-C ) :   1.0857 B( 28-C , 29-H ) :   0.9744
B( 28-C , 30-H ) :   0.9745 B( 28-C , 31-H ) :   0.9752

Dispersion correction           -0.013990083
FINAL SINGLE POINT ENERGY     -1339.874629166656

DIPOLE MOMENT
-------------
                                X             Y             Z
Electronic contribution:    -27.95852     -15.55304      -3.15875
Nuclear contribution   :     28.55757      15.97551       2.97890
                        -----------------------------------------
Total Dipole Moment    :      0.59904       0.42247      -0.17984
                        -----------------------------------------
Magnitude (a.u.)       :      0.75477
Magnitude (Debye)      :      1.91847

Rotational constants in cm-1:     0.018384     0.008732     0.006299
Rotational constants in MHz :   551.144857   261.764924   188.840280

                             ****ORCA TERMINATED NORMALLY****
TOTAL RUN TIME: 0 days 0 hours 0 minutes 33 seconds 774 msec
