                         Program Version 4.2.1 -  RELEASE  -
|  1> ! wB97X-D3 SP def2-SVP
|  2> %pal
|  3> nprocs 16
|  4> end
|  5>
|  6> * xyz 0 1
|  7> S 	 -1.22443 	 -4.16229 	 76.3902
|  8> C 	 -0.68363 	 -5.1945 	 77.6826
|  9> C 	 0.711306 	 -5.1454 	 77.7703
| 10> C 	 1.32979 	 -4.32972 	 76.7193
| 11> C 	 0.396762 	 -3.66565 	 75.9212
| 12> H 	 2.38573 	 -4.11044 	 76.5949
| 13> C 	 1.52362 	 -5.78847 	 78.8818
| 14> H 	 0.858596 	 -5.78706 	 79.7624
| 15> H 	 2.35726 	 -5.10356 	 79.2228
| 16> C 	 2.09896 	 -7.12555 	 78.5233
| 17> H 	 2.51769 	 -7.55099 	 79.463
| 18> H 	 1.33914 	 -7.79206 	 78.2235
| 19> C 	 3.29141 	 -7.00653 	 77.5545
| 20> H 	 2.90569 	 -6.57627 	 76.5907
| 21> H 	 3.91848 	 -6.1804 	 77.9515
| 22> H 	 3.9021 	 -7.94029 	 77.3588
| 23> S 	 1.77697 	 -3.15359 	 73.5432
| 24> C 	 1.18617 	 -1.78956 	 72.573
| 25> C 	 0.321424 	 -0.980763 	 73.2053
| 26> C 	 0.0285459 	 -1.49744 	 74.5107
| 27> C 	 0.61157 	 -2.77763 	 74.801
| 28> H 	 0.0783282 	 -0.0807792 	 72.7804
| 29> C 	 -0.966311 	 -0.834758 	 75.4515
| 30> H 	 -0.617902 	 -1.09472 	 76.4227
| 31> H 	 -1.97953 	 -1.28666 	 75.2722
| 32> C 	 -1.17235 	 0.628658 	 75.2682
| 33> H 	 -1.66225 	 0.708012 	 74.2981
| 34> H 	 -0.217628 	 1.16452 	 75.2581
| 35> C 	 -2.04011 	 1.35377 	 76.3521
| 36> H 	 -1.54127 	 1.32651 	 77.3438
| 37> H 	 -3.03748 	 0.898606 	 76.3991
| 38> H 	 -2.05273 	 2.33799 	 75.936
| 39> H 	 -1.30562 	 -5.52136 	 78.4574
| 40> H 	 1.49443 	 -1.52636 	 71.5654
| 41> *
| 42>
| 43>                          ****END OF INPUT****

CARTESIAN COORDINATES (ANGSTROEM)
---------------------------------
  S     -1.224430   -4.162290   76.390200
  C     -0.683630   -5.194500   77.682600
  C      0.711306   -5.145400   77.770300
  C      1.329790   -4.329720   76.719300
  C      0.396762   -3.665650   75.921200
  H      2.385730   -4.110440   76.594900
  C      1.523620   -5.788470   78.881800
  H      0.858596   -5.787060   79.762400
  H      2.357260   -5.103560   79.222800
  C      2.098960   -7.125550   78.523300
  H      2.517690   -7.550990   79.463000
  H      1.339140   -7.792060   78.223500
  C      3.291410   -7.006530   77.554500
  H      2.905690   -6.576270   76.590700
  H      3.918480   -6.180400   77.951500
  H      3.902100   -7.940290   77.358800
  S      1.776970   -3.153590   73.543200
  C      1.186170   -1.789560   72.573000
  C      0.321424   -0.980763   73.205300
  C      0.028546   -1.497440   74.510700
  C      0.611570   -2.777630   74.801000
  H      0.078328   -0.080779   72.780400
  C     -0.966311   -0.834758   75.451500
  H     -0.617902   -1.094720   76.422700
  H     -1.979530   -1.286660   75.272200
  C     -1.172350    0.628658   75.268200
  H     -1.662250    0.708012   74.298100
  H     -0.217628    1.164520   75.258100
  C     -2.040110    1.353770   76.352100
  H     -1.541270    1.326510   77.343800
  H     -3.037480    0.898606   76.399100
  H     -2.052730    2.337990   75.936000
  H     -1.305620   -5.521360   78.457400
  H      1.494430   -1.526360   71.565400

 Total Charge           Charge          ....    0
 Multiplicity           Mult            ....    1
 Number of Electrons    NEL             ....  134
 Basis Dimension        Dim             ....  322

ORBITAL ENERGIES
----------------

  NO   OCC          E(Eh)            E(eV)
   0   2.0000     -88.968172     -2420.9471
   1   2.0000     -88.964602     -2420.8499
   2   2.0000     -10.333368      -281.1852
   3   2.0000     -10.329234      -281.0728
   4   2.0000     -10.317041      -280.7409
   5   2.0000     -10.312273      -280.6112
   6   2.0000     -10.308464      -280.5076
   7   2.0000     -10.307087      -280.4701
   8   2.0000     -10.299110      -280.2530
   9   2.0000     -10.295247      -280.1479
  10   2.0000     -10.287216      -279.9294
  11   2.0000     -10.285365      -279.8790
  12   2.0000     -10.283499      -279.8282
  13   2.0000     -10.283144      -279.8186
  14   2.0000     -10.282654      -279.8052
  15   2.0000     -10.280957      -279.7591
  16   2.0000      -8.082236      -219.9288
  17   2.0000      -8.079020      -219.8413
  18   2.0000      -6.040851      -164.3799
  19   2.0000      -6.037599      -164.2914
  20   2.0000      -6.036919      -164.2729
  21   2.0000      -6.033407      -164.1773
  22   2.0000      -6.032843      -164.1620
  23   2.0000      -6.029882      -164.0814
  24   2.0000      -1.002635       -27.2831
  25   2.0000      -0.981273       -26.7018
  26   2.0000      -0.914690       -24.8900
  27   2.0000      -0.910941       -24.7880
  28   2.0000      -0.875157       -23.8142
  29   2.0000      -0.847416       -23.0594
  30   2.0000      -0.837448       -22.7881
  31   2.0000      -0.821053       -22.3420
  32   2.0000      -0.780996       -21.2520
  33   2.0000      -0.765791       -20.8382
  34   2.0000      -0.705960       -19.2101
  35   2.0000      -0.700118       -19.0512
  36   2.0000      -0.693925       -18.8827
  37   2.0000      -0.654757       -17.8168
  38   2.0000      -0.640620       -17.4321
  39   2.0000      -0.614096       -16.7104
  40   2.0000      -0.595264       -16.1980
  41   2.0000      -0.581473       -15.8227
  42   2.0000      -0.574523       -15.6336
  43   2.0000      -0.551054       -14.9949
  44   2.0000      -0.539975       -14.6935
  45   2.0000      -0.529899       -14.4193
  46   2.0000      -0.519940       -14.1483
  47   2.0000      -0.508629       -13.8405
  48   2.0000      -0.505407       -13.7528
  49   2.0000      -0.490641       -13.3510
  50   2.0000      -0.484691       -13.1891
  51   2.0000      -0.474462       -12.9108
  52   2.0000      -0.473853       -12.8942
  53   2.0000      -0.466191       -12.6857
  54   2.0000      -0.460561       -12.5325
  55   2.0000      -0.454774       -12.3750
  56   2.0000      -0.444502       -12.0955
  57   2.0000      -0.436367       -11.8741
  58   2.0000      -0.429249       -11.6804
  59   2.0000      -0.426503       -11.6057
  60   2.0000      -0.416996       -11.3471
  61   2.0000      -0.409915       -11.1543
  62   2.0000      -0.406230       -11.0541
  63   2.0000      -0.352417        -9.5898
  64   2.0000      -0.331120        -9.0102
  65   2.0000      -0.325458        -8.8562
  66   2.0000      -0.288714        -7.8563
  67   0.0000       0.022105         0.6015
  68   0.0000       0.072205         1.9648
  69   0.0000       0.100079         2.7233
  70   0.0000       0.124579         3.3900
  71   0.0000       0.126267         3.4359

MULLIKEN ATOMIC CHARGES
-----------------------
   0 S :    0.105450
   1 C :   -0.089582
   2 C :   -0.114776
   3 C :    0.022509
   4 C :   -0.171120
   5 H :    0.019430
   6 C :    0.012956
   7 H :    0.023968
   8 H :    0.035937
   9 C :   -0.019879
  10 H :    0.027418
  11 H :    0.022836
  12 C :   -0.089641
  13 H :    0.042990
  14 H :    0.023483
  15 H :    0.058920
  16 S :    0.113558
  17 C :   -0.071479
  18 C :   -0.003757
  19 C :   -0.064074
  20 C :   -0.128929
  21 H :   -0.007919
  22 C :    0.092022
  23 H :    0.019778
  24 H :    0.045588
  25 C :   -0.149940
  26 H :    0.031998
  27 H :    0.030399
  28 C :   -0.021127
  29 H :    0.044611
  30 H :    0.036524
  31 H :    0.035166
  32 H :    0.038822
  33 H :    0.047860
Sum of atomic charges:   -0.0000000

LOEWDIN ATOMIC CHARGES
----------------------
   0 S :    0.415114
   1 C :   -0.199561
   2 C :   -0.056115
   3 C :   -0.070708
   4 C :   -0.188928
   5 H :    0.030851
   6 C :   -0.038988
   7 H :    0.031419
   8 H :    0.035354
   9 C :   -0.039819
  10 H :    0.027108
  11 H :    0.018001
  12 C :   -0.075555
  13 H :    0.028824
  14 H :    0.024584
  15 H :    0.034897
  16 S :    0.396032
  17 C :   -0.164394
  18 C :   -0.066593
  19 C :   -0.040158
  20 C :   -0.211549
  21 H :    0.021727
  22 C :   -0.044146
  23 H :    0.021786
  24 H :    0.038313
  25 C :   -0.047132
  26 H :    0.022493
  27 H :    0.022365
  28 C :   -0.057187
  29 H :    0.030115
  30 H :    0.025590
  31 H :    0.026407
  32 H :    0.019574
  33 H :    0.030277

  Mayer bond orders larger than 0.100000
B(  0-S ,  1-C ) :   1.1397 B(  0-S ,  4-C ) :   1.1559 B(  1-C ,  2-C ) :   1.6106
B(  1-C , 32-H ) :   0.9713 B(  2-C ,  3-C ) :   1.2319 B(  2-C ,  6-C ) :   1.0205
B(  3-C ,  4-C ) :   1.5639 B(  3-C ,  5-H ) :   0.9913 B(  4-C , 20-C ) :   1.0658
B(  6-C ,  7-H ) :   0.9405 B(  6-C ,  8-H ) :   0.9453 B(  6-C ,  9-C ) :   1.0747
B(  9-C , 10-H ) :   0.9509 B(  9-C , 11-H ) :   0.9542 B(  9-C , 12-C ) :   1.0691
B( 12-C , 13-H ) :   0.9712 B( 12-C , 14-H ) :   0.9707 B( 12-C , 15-H ) :   0.9732
B( 16-S , 17-C ) :   1.1493 B( 16-S , 20-C ) :   1.1210 B( 17-C , 18-C ) :   1.6364
B( 17-C , 33-H ) :   0.9563 B( 18-C , 19-C ) :   1.2263 B( 18-C , 21-H ) :   1.0013
B( 19-C , 20-C ) :   1.5588 B( 19-C , 22-C ) :   1.0442 B( 22-C , 23-H ) :   0.9261
B( 22-C , 24-H ) :   0.9264 B( 22-C , 25-C ) :   1.0866 B( 25-C , 26-H ) :   0.9426
B( 25-C , 27-H ) :   0.9597 B( 25-C , 28-C ) :   1.0829 B( 28-C , 29-H ) :   0.9756
B( 28-C , 30-H ) :   0.9737 B( 28-C , 31-H ) :   0.9748

Dispersion correction           -0.014061651
FINAL SINGLE POINT ENERGY     -1339.875703616245

DIPOLE MOMENT
-------------
                                X             Y             Z
Electronic contribution:     -1.53427      -4.13548     -12.76592
Nuclear contribution   :      1.56852       4.51123      13.02034
                        -----------------------------------------
Total Dipole Moment    :      0.03425       0.37575       0.25441
                        -----------------------------------------
Magnitude (a.u.)       :      0.45507
Magnitude (Debye)      :      1.15668

Rotational constants in cm-1:     0.021097     0.007867     0.006304
Rotational constants in MHz :   632.482906   235.849912   188.975793

                             ****ORCA TERMINATED NORMALLY****
TOTAL RUN TIME: 0 days 0 hours 0 minutes 33 seconds 310 msec
