                         Program Version 4.2.1 -  RELEASE  -
|  1> ! wB97X-D3 SP def2-SVP
|  2> %pal
|  3> nprocs 16
|  4> end
|  5>
|  6> * xyz 0 1
|  7> S 	 8.7883 	 -7.90996 	 93.6143
|  8> C 	 9.47753 	 -9.30082 	 94.2966
|  9> C 	 10.8114 	 -9.18607 	 93.9947
| 10> C 	 11.2085 	 -7.98564 	 93.3639
| 11> C 	 10.1849 	 -7.1392 	 92.9659
| 12> H 	 12.2112 	 -7.74498 	 93.1188
| 13> C 	 11.7928 	 -10.1927 	 94.6217
| 14> H 	 12.1192 	 -10.9291 	 93.8003
| 15> H 	 11.2186 	 -10.8784 	 95.2637
| 16> C 	 12.9167 	 -9.58352 	 95.4507
| 17> H 	 13.5861 	 -10.4579 	 95.6148
| 18> H 	 13.5639 	 -8.91787 	 94.8266
| 19> C 	 12.4268 	 -8.70058 	 96.5868
| 20> H 	 11.8133 	 -9.22682 	 97.3549
| 21> H 	 13.3532 	 -8.31696 	 96.9538
| 22> H 	 11.9238 	 -7.75459 	 96.2321
| 23> S 	 9.25389 	 -5.59241 	 90.749
| 24> C 	 9.69727 	 -3.94312 	 90.5552
| 25> C 	 10.7125 	 -3.56576 	 91.4215
| 26> C 	 11.0559 	 -4.64605 	 92.4197
| 27> C 	 10.2547 	 -5.8185 	 92.2267
| 28> H 	 11.149 	 -2.67128 	 91.2165
| 29> C 	 12.102 	 -4.2541 	 93.4523
| 30> H 	 13.053 	 -3.90472 	 93.0414
| 31> H 	 12.4214 	 -5.15021 	 93.9666
| 32> C 	 11.5693 	 -3.63586 	 94.7668
| 33> H 	 10.7722 	 -4.18289 	 95.2259
| 34> H 	 11.1766 	 -2.62663 	 94.4575
| 35> C 	 12.6689 	 -3.53848 	 95.7892
| 36> H 	 12.4071 	 -3.33905 	 96.7632
| 37> H 	 13.464 	 -2.97964 	 95.3975
| 38> H 	 13.1469 	 -4.44784 	 95.8333
| 39> H 	 8.97049 	 -10.2226 	 94.6058
| 40> H 	 9.33789 	 -3.39747 	 89.6912
| 41> *
| 42>
| 43>                          ****END OF INPUT****

CARTESIAN COORDINATES (ANGSTROEM)
---------------------------------
  S      8.788300   -7.909960   93.614300
  C      9.477530   -9.300820   94.296600
  C     10.811400   -9.186070   93.994700
  C     11.208500   -7.985640   93.363900
  C     10.184900   -7.139200   92.965900
  H     12.211200   -7.744980   93.118800
  C     11.792800  -10.192700   94.621700
  H     12.119200  -10.929100   93.800300
  H     11.218600  -10.878400   95.263700
  C     12.916700   -9.583520   95.450700
  H     13.586100  -10.457900   95.614800
  H     13.563900   -8.917870   94.826600
  C     12.426800   -8.700580   96.586800
  H     11.813300   -9.226820   97.354900
  H     13.353200   -8.316960   96.953800
  H     11.923800   -7.754590   96.232100
  S      9.253890   -5.592410   90.749000
  C      9.697270   -3.943120   90.555200
  C     10.712500   -3.565760   91.421500
  C     11.055900   -4.646050   92.419700
  C     10.254700   -5.818500   92.226700
  H     11.149000   -2.671280   91.216500
  C     12.102000   -4.254100   93.452300
  H     13.053000   -3.904720   93.041400
  H     12.421400   -5.150210   93.966600
  C     11.569300   -3.635860   94.766800
  H     10.772200   -4.182890   95.225900
  H     11.176600   -2.626630   94.457500
  C     12.668900   -3.538480   95.789200
  H     12.407100   -3.339050   96.763200
  H     13.464000   -2.979640   95.397500
  H     13.146900   -4.447840   95.833300
  H      8.970490  -10.222600   94.605800
  H      9.337890   -3.397470   89.691200

 Total Charge           Charge          ....    0
 Multiplicity           Mult            ....    1
 Number of Electrons    NEL             ....  134
 Basis Dimension        Dim             ....  322

ORBITAL ENERGIES
----------------

  NO   OCC          E(Eh)            E(eV)
   0   2.0000     -88.966130     -2420.8915
   1   2.0000     -88.960133     -2420.7283
   2   2.0000     -10.347859      -281.5796
   3   2.0000     -10.336370      -281.2669
   4   2.0000     -10.325250      -280.9643
   5   2.0000     -10.320031      -280.8223
   6   2.0000     -10.312005      -280.6039
   7   2.0000     -10.295720      -280.1608
   8   2.0000     -10.295169      -280.1458
   9   2.0000     -10.294219      -280.1199
  10   2.0000     -10.293749      -280.1072
  11   2.0000     -10.291966      -280.0586
  12   2.0000     -10.289421      -279.9894
  13   2.0000     -10.287572      -279.9391
  14   2.0000     -10.281852      -279.7834
  15   2.0000     -10.259966      -279.1879
  16   2.0000      -8.080780      -219.8892
  17   2.0000      -8.076288      -219.7670
  18   2.0000      -6.039349      -164.3390
  19   2.0000      -6.035226      -164.2269
  20   2.0000      -6.034636      -164.2108
  21   2.0000      -6.031538      -164.1265
  22   2.0000      -6.030161      -164.0890
  23   2.0000      -6.027467      -164.0157
  24   2.0000      -1.011629       -27.5278
  25   2.0000      -0.982461       -26.7341
  26   2.0000      -0.917611       -24.9695
  27   2.0000      -0.909578       -24.7509
  28   2.0000      -0.870228       -23.6801
  29   2.0000      -0.852473       -23.1970
  30   2.0000      -0.839604       -22.8468
  31   2.0000      -0.821470       -22.3533
  32   2.0000      -0.785676       -21.3793
  33   2.0000      -0.773996       -21.0615
  34   2.0000      -0.711615       -19.3640
  35   2.0000      -0.698669       -19.0118
  36   2.0000      -0.685203       -18.6453
  37   2.0000      -0.660165       -17.9640
  38   2.0000      -0.640595       -17.4315
  39   2.0000      -0.626456       -17.0467
  40   2.0000      -0.601644       -16.3716
  41   2.0000      -0.576278       -15.6813
  42   2.0000      -0.568844       -15.4790
  43   2.0000      -0.551909       -15.0182
  44   2.0000      -0.539358       -14.6767
  45   2.0000      -0.533411       -14.5148
  46   2.0000      -0.520974       -14.1764
  47   2.0000      -0.517712       -14.0877
  48   2.0000      -0.507795       -13.8178
  49   2.0000      -0.501884       -13.6570
  50   2.0000      -0.491691       -13.3796
  51   2.0000      -0.484203       -13.1758
  52   2.0000      -0.471403       -12.8275
  53   2.0000      -0.467961       -12.7339
  54   2.0000      -0.460829       -12.5398
  55   2.0000      -0.452844       -12.3225
  56   2.0000      -0.440773       -11.9940
  57   2.0000      -0.437510       -11.9052
  58   2.0000      -0.428776       -11.6676
  59   2.0000      -0.425437       -11.5767
  60   2.0000      -0.412638       -11.2284
  61   2.0000      -0.400443       -10.8966
  62   2.0000      -0.392160       -10.6712
  63   2.0000      -0.348086        -9.4719
  64   2.0000      -0.326737        -8.8910
  65   2.0000      -0.324040        -8.8176
  66   2.0000      -0.302400        -8.2287
  67   0.0000       0.028030         0.7627
  68   0.0000       0.070471         1.9176
  69   0.0000       0.103923         2.8279
  70   0.0000       0.118493         3.2244
  71   0.0000       0.129911         3.5351

MULLIKEN ATOMIC CHARGES
-----------------------
   0 S :    0.102057
   1 C :   -0.115510
   2 C :   -0.116941
   3 C :    0.029399
   4 C :   -0.132283
   5 H :   -0.005206
   6 C :    0.037233
   7 H :    0.041478
   8 H :    0.007364
   9 C :   -0.095405
  10 H :    0.037245
  11 H :    0.024570
  12 C :   -0.036805
  13 H :    0.048406
  14 H :    0.023651
  15 H :    0.051551
  16 S :    0.103785
  17 C :   -0.094171
  18 C :   -0.000829
  19 C :   -0.018317
  20 C :   -0.148642
  21 H :   -0.010600
  22 C :    0.027006
  23 H :    0.041971
  24 H :   -0.007137
  25 C :   -0.067164
  26 H :    0.036471
  27 H :    0.027484
  28 C :    0.059365
  29 H :    0.022816
  30 H :    0.002579
  31 H :   -0.018395
  32 H :    0.074611
  33 H :    0.068361
Sum of atomic charges:    0.0000000

LOEWDIN ATOMIC CHARGES
----------------------
   0 S :    0.444862
   1 C :   -0.219577
   2 C :   -0.078419
   3 C :   -0.071691
   4 C :   -0.207324
   5 H :    0.021845
   6 C :   -0.042521
   7 H :    0.035483
   8 H :    0.023461
   9 C :   -0.051852
  10 H :    0.031780
  11 H :    0.024449
  12 C :   -0.067221
  13 H :    0.029712
  14 H :    0.024757
  15 H :    0.037460
  16 S :    0.403102
  17 C :   -0.184868
  18 C :   -0.062881
  19 C :   -0.034609
  20 C :   -0.189344
  21 H :    0.014869
  22 C :   -0.047385
  23 H :    0.036418
  24 H :    0.027613
  25 C :   -0.025956
  26 H :    0.026301
  27 H :    0.020785
  28 C :   -0.052640
  29 H :    0.019680
  30 H :    0.022570
  31 H :    0.015811
  32 H :    0.044282
  33 H :    0.031049

  Mayer bond orders larger than 0.100000
B(  0-S ,  1-C ) :   1.1714 B(  0-S ,  4-C ) :   1.1912 B(  1-C ,  2-C ) :   1.5427
B(  1-C ,  4-C ) :   0.1092 B(  1-C , 32-H ) :   0.9668 B(  2-C ,  3-C ) :   1.3023
B(  2-C ,  6-C ) :   1.0140 B(  3-C ,  4-C ) :   1.5101 B(  3-C ,  5-H ) :   1.0070
B(  4-C , 20-C ) :   1.0208 B(  6-C ,  7-H ) :   0.9361 B(  6-C ,  8-H ) :   0.9482
B(  6-C ,  9-C ) :   1.0729 B(  9-C , 10-H ) :   0.9542 B(  9-C , 11-H ) :   0.9517
B(  9-C , 12-C ) :   1.0645 B( 12-C , 13-H ) :   0.9766 B( 12-C , 14-H ) :   0.9709
B( 12-C , 15-H ) :   0.9656 B( 16-S , 17-C ) :   1.1664 B( 16-S , 20-C ) :   1.1395
B( 17-C , 18-C ) :   1.6155 B( 17-C , 33-H ) :   0.9644 B( 18-C , 19-C ) :   1.2006
B( 18-C , 21-H ) :   1.0050 B( 19-C , 20-C ) :   1.5933 B( 19-C , 22-C ) :   1.0570
B( 22-C , 23-H ) :   0.9432 B( 22-C , 24-H ) :   0.9304 B( 22-C , 25-C ) :   1.0344
B( 25-C , 26-H ) :   0.9590 B( 25-C , 27-H ) :   0.9559 B( 25-C , 28-C ) :   1.0888
B( 28-C , 29-H ) :   0.9706 B( 28-C , 30-H ) :   0.9624 B( 28-C , 31-H ) :   0.9605

Dispersion correction           -0.014539178
FINAL SINGLE POINT ENERGY     -1339.827736755159

DIPOLE MOMENT
-------------
                                X             Y             Z
Electronic contribution:    -21.02381      -1.31968     -20.91714
Nuclear contribution   :     21.71406       1.36314      21.13244
                        -----------------------------------------
Total Dipole Moment    :      0.69025       0.04345       0.21530
                        -----------------------------------------
Magnitude (a.u.)       :      0.72435
Magnitude (Debye)      :      1.84116

Rotational constants in cm-1:     0.017257     0.009729     0.006970
Rotational constants in MHz :   517.366775   291.654996   208.942531

                             ****ORCA TERMINATED NORMALLY****
TOTAL RUN TIME: 0 days 0 hours 0 minutes 34 seconds 671 msec
