                         Program Version 4.2.1 -  RELEASE  -
|  1> ! wB97X-D3 SP def2-SVP
|  2> %pal
|  3> nprocs 16
|  4> end
|  5>
|  6> * xyz 0 1
|  7> S 	 -42.0122 	 38.149 	 81.2885
|  8> C 	 -41.4072 	 38.7876 	 79.758
|  9> C 	 -42.0987 	 39.9306 	 79.4101
| 10> C 	 -43.0578 	 40.2725 	 80.4052
| 11> C 	 -43.0794 	 39.4681 	 81.5292
| 12> H 	 -43.7982 	 41.0514 	 80.3466
| 13> C 	 -41.8298 	 40.8146 	 78.1734
| 14> H 	 -42.7871 	 40.7564 	 77.6105
| 15> H 	 -41.178 	 40.2166 	 77.5348
| 16> C 	 -41.3247 	 42.2345 	 78.4219
| 17> H 	 -41.3636 	 42.8588 	 77.5388
| 18> H 	 -41.9468 	 42.8457 	 79.0801
| 19> C 	 -39.864 	 42.2633 	 79.0145
| 20> H 	 -39.8384 	 41.7705 	 80.0198
| 21> H 	 -39.2166 	 41.7922 	 78.315
| 22> H 	 -39.6091 	 43.3094 	 79.1013
| 23> S 	 -45.6428 	 39.2986 	 82.3583
| 24> C 	 -46.0619 	 39.4315 	 84.0158
| 25> C 	 -44.9048 	 39.5185 	 84.8173
| 26> C 	 -43.7057 	 39.7656 	 84.0377
| 27> C 	 -43.9822 	 39.5816 	 82.6767
| 28> H 	 -45.1093 	 39.3932 	 85.852
| 29> C 	 -42.3489 	 39.9761 	 84.6606
| 30> H 	 -41.9072 	 39.0426 	 84.3295
| 31> H 	 -42.3333 	 40.034 	 85.7509
| 32> C 	 -41.5657 	 41.1984 	 84.1937
| 33> H 	 -41.3984 	 41.1855 	 83.0849
| 34> H 	 -40.6174 	 41.2893 	 84.7227
| 35> C 	 -42.4237 	 42.4361 	 84.504
| 36> H 	 -42.5424 	 42.4329 	 85.6183
| 37> H 	 -43.3529 	 42.5779 	 83.9026
| 38> H 	 -41.7684 	 43.2821 	 84.3725
| 39> H 	 -40.5028 	 38.4222 	 79.2212
| 40> H 	 -47.0391 	 39.2088 	 84.5052
| 41> *
| 42>
| 43>                          ****END OF INPUT****

CARTESIAN COORDINATES (ANGSTROEM)
---------------------------------
  S    -42.012200   38.149000   81.288500
  C    -41.407200   38.787600   79.758000
  C    -42.098700   39.930600   79.410100
  C    -43.057800   40.272500   80.405200
  C    -43.079400   39.468100   81.529200
  H    -43.798200   41.051400   80.346600
  C    -41.829800   40.814600   78.173400
  H    -42.787100   40.756400   77.610500
  H    -41.178000   40.216600   77.534800
  C    -41.324700   42.234500   78.421900
  H    -41.363600   42.858800   77.538800
  H    -41.946800   42.845700   79.080100
  C    -39.864000   42.263300   79.014500
  H    -39.838400   41.770500   80.019800
  H    -39.216600   41.792200   78.315000
  H    -39.609100   43.309400   79.101300
  S    -45.642800   39.298600   82.358300
  C    -46.061900   39.431500   84.015800
  C    -44.904800   39.518500   84.817300
  C    -43.705700   39.765600   84.037700
  C    -43.982200   39.581600   82.676700
  H    -45.109300   39.393200   85.852000
  C    -42.348900   39.976100   84.660600
  H    -41.907200   39.042600   84.329500
  H    -42.333300   40.034000   85.750900
  C    -41.565700   41.198400   84.193700
  H    -41.398400   41.185500   83.084900
  H    -40.617400   41.289300   84.722700
  C    -42.423700   42.436100   84.504000
  H    -42.542400   42.432900   85.618300
  H    -43.352900   42.577900   83.902600
  H    -41.768400   43.282100   84.372500
  H    -40.502800   38.422200   79.221200
  H    -47.039100   39.208800   84.505200

 Total Charge           Charge          ....    0
 Multiplicity           Mult            ....    1
 Number of Electrons    NEL             ....  134
 Basis Dimension        Dim             ....  322

ORBITAL ENERGIES
----------------

  NO   OCC          E(Eh)            E(eV)
   0   2.0000     -88.967522     -2420.9293
   1   2.0000     -88.965419     -2420.8721
   2   2.0000     -10.326036      -280.9857
   3   2.0000     -10.323224      -280.9092
   4   2.0000     -10.317431      -280.7516
   5   2.0000     -10.316317      -280.7213
   6   2.0000     -10.309949      -280.5480
   7   2.0000     -10.302291      -280.3396
   8   2.0000     -10.298372      -280.2330
   9   2.0000     -10.294150      -280.1181
  10   2.0000     -10.289861      -280.0014
  11   2.0000     -10.289710      -279.9972
  12   2.0000     -10.287471      -279.9363
  13   2.0000     -10.284029      -279.8426
  14   2.0000     -10.277846      -279.6744
  15   2.0000     -10.274424      -279.5813
  16   2.0000      -8.083023      -219.9502
  17   2.0000      -8.080279      -219.8756
  18   2.0000      -6.041426      -164.3956
  19   2.0000      -6.038760      -164.3230
  20   2.0000      -6.037281      -164.2828
  21   2.0000      -6.034658      -164.2114
  22   2.0000      -6.033990      -164.1932
  23   2.0000      -6.031163      -164.1163
  24   2.0000      -1.010465       -27.4961
  25   2.0000      -0.986584       -26.8463
  26   2.0000      -0.912048       -24.8181
  27   2.0000      -0.907143       -24.6846
  28   2.0000      -0.866687       -23.5838
  29   2.0000      -0.848414       -23.0865
  30   2.0000      -0.842043       -22.9132
  31   2.0000      -0.811482       -22.0816
  32   2.0000      -0.782788       -21.3007
  33   2.0000      -0.771457       -20.9924
  34   2.0000      -0.709345       -19.3023
  35   2.0000      -0.697176       -18.9711
  36   2.0000      -0.680709       -18.5230
  37   2.0000      -0.660906       -17.9842
  38   2.0000      -0.637870       -17.3573
  39   2.0000      -0.617511       -16.8033
  40   2.0000      -0.587919       -15.9981
  41   2.0000      -0.568714       -15.4755
  42   2.0000      -0.555001       -15.1023
  43   2.0000      -0.554295       -15.0831
  44   2.0000      -0.548287       -14.9196
  45   2.0000      -0.535158       -14.5624
  46   2.0000      -0.515827       -14.0364
  47   2.0000      -0.512496       -13.9457
  48   2.0000      -0.499700       -13.5975
  49   2.0000      -0.491036       -13.3618
  50   2.0000      -0.483659       -13.1610
  51   2.0000      -0.476576       -12.9683
  52   2.0000      -0.468253       -12.7418
  53   2.0000      -0.464762       -12.6468
  54   2.0000      -0.461975       -12.5710
  55   2.0000      -0.451060       -12.2740
  56   2.0000      -0.439364       -11.9557
  57   2.0000      -0.435871       -11.8606
  58   2.0000      -0.429918       -11.6987
  59   2.0000      -0.422934       -11.5086
  60   2.0000      -0.418266       -11.3816
  61   2.0000      -0.413886       -11.2624
  62   2.0000      -0.412923       -11.2362
  63   2.0000      -0.332802        -9.0560
  64   2.0000      -0.329658        -8.9704
  65   2.0000      -0.326228        -8.8771
  66   2.0000      -0.302346        -8.2272
  67   0.0000       0.037199         1.0122
  68   0.0000       0.064757         1.7621
  69   0.0000       0.116720         3.1761
  70   0.0000       0.121408         3.3037
  71   0.0000       0.126453         3.4410

MULLIKEN ATOMIC CHARGES
-----------------------
   0 S :    0.114494
   1 C :   -0.150021
   2 C :   -0.095228
   3 C :    0.024174
   4 C :   -0.160340
   5 H :    0.002253
   6 C :    0.084998
   7 H :    0.039665
   8 H :    0.009601
   9 C :   -0.064008
  10 H :    0.024049
  11 H :    0.026017
  12 C :   -0.057250
  13 H :    0.057847
  14 H :    0.025633
  15 H :    0.032469
  16 S :    0.141776
  17 C :   -0.121045
  18 C :   -0.053836
  19 C :   -0.027314
  20 C :   -0.182266
  21 H :    0.012976
  22 C :    0.087404
  23 H :    0.033000
  24 H :    0.022152
  25 C :   -0.085764
  26 H :    0.049655
  27 H :    0.034086
  28 C :   -0.066029
  29 H :    0.020856
  30 H :    0.065930
  31 H :    0.019548
  32 H :    0.063930
  33 H :    0.070588
Sum of atomic charges:   -0.0000000

LOEWDIN ATOMIC CHARGES
----------------------
   0 S :    0.415835
   1 C :   -0.204574
   2 C :   -0.065431
   3 C :   -0.067079
   4 C :   -0.211441
   5 H :    0.025822
   6 C :   -0.032738
   7 H :    0.039372
   8 H :    0.027184
   9 C :   -0.043098
  10 H :    0.024232
  11 H :    0.024016
  12 C :   -0.058986
  13 H :    0.033916
  14 H :    0.017364
  15 H :    0.024928
  16 S :    0.448384
  17 C :   -0.214286
  18 C :   -0.069161
  19 C :   -0.043452
  20 C :   -0.225108
  21 H :    0.026855
  22 C :   -0.036941
  23 H :    0.032516
  24 H :    0.030506
  25 C :   -0.041430
  26 H :    0.028940
  27 H :    0.026218
  28 C :   -0.070797
  29 H :    0.025897
  30 H :    0.034662
  31 H :    0.020243
  32 H :    0.038027
  33 H :    0.039607

  Mayer bond orders larger than 0.100000
B(  0-S ,  1-C ) :   1.1423 B(  0-S ,  4-C ) :   1.1610 B(  1-C ,  2-C ) :   1.6036
B(  1-C , 32-H ) :   0.9615 B(  2-C ,  3-C ) :   1.2406 B(  2-C ,  6-C ) :   1.0139
B(  3-C ,  4-C ) :   1.5728 B(  3-C ,  5-H ) :   1.0011 B(  4-C , 20-C ) :   1.0167
B(  6-C ,  7-H ) :   0.9345 B(  6-C ,  8-H ) :   0.9432 B(  6-C ,  9-C ) :   1.0644
B(  9-C , 10-H ) :   0.9541 B(  9-C , 11-H ) :   0.9572 B(  9-C , 12-C ) :   1.0689
B( 12-C , 13-H ) :   0.9774 B( 12-C , 14-H ) :   0.9785 B( 12-C , 15-H ) :   0.9751
B( 16-S , 17-C ) :   1.1730 B( 16-S , 20-C ) :   1.1702 B( 17-C , 18-C ) :   1.6047
B( 17-C , 20-C ) :   0.1010 B( 17-C , 33-H ) :   0.9603 B( 18-C , 19-C ) :   1.2353
B( 18-C , 21-H ) :   0.9953 B( 19-C , 20-C ) :   1.5533 B( 19-C , 22-C ) :   1.0231
B( 22-C , 23-H ) :   0.9242 B( 22-C , 24-H ) :   0.9432 B( 22-C , 25-C ) :   1.0790
B( 25-C , 26-H ) :   0.9503 B( 25-C , 27-H ) :   0.9559 B( 25-C , 28-C ) :   1.0757
B( 28-C , 29-H ) :   0.9734 B( 28-C , 30-H ) :   0.9709 B( 28-C , 31-H ) :   0.9728

Dispersion correction           -0.015617402
FINAL SINGLE POINT ENERGY     -1339.880250070785

DIPOLE MOMENT
-------------
                                X             Y             Z
Electronic contribution:    -15.29001     -19.34837       1.74388
Nuclear contribution   :     15.50493      19.67697      -1.73950
                        -----------------------------------------
Total Dipole Moment    :      0.21492       0.32860       0.00438
                        -----------------------------------------
Magnitude (a.u.)       :      0.39266
Magnitude (Debye)      :      0.99807

Rotational constants in cm-1:     0.020241     0.009082     0.007893
Rotational constants in MHz :   606.805421   272.283505   236.636077

                             ****ORCA TERMINATED NORMALLY****
TOTAL RUN TIME: 0 days 0 hours 0 minutes 29 seconds 871 msec
