                         Program Version 4.2.1 -  RELEASE  -
|  1> ! wB97X-D3 SP def2-SVP
|  2> %pal
|  3> nprocs 16
|  4> end
|  5>
|  6> * xyz 0 1
|  7> S 	 2.19715 	 -3.736 	 75.6085
|  8> C 	 2.11474 	 -4.93501 	 76.8836
|  9> C 	 1.32886 	 -4.50313 	 77.926
| 10> C 	 0.665712 	 -3.2976 	 77.6458
| 11> C 	 0.951171 	 -2.83542 	 76.3966
| 12> H 	 0.0140815 	 -2.6911 	 78.2828
| 13> C 	 1.02921 	 -5.22633 	 79.2765
| 14> H 	 1.56627 	 -4.55821 	 79.931
| 15> H 	 1.4588 	 -6.2469 	 79.2893
| 16> C 	 -0.436302 	 -5.11428 	 79.7535
| 17> H 	 -0.435941 	 -5.46298 	 80.8354
| 18> H 	 -0.841389 	 -4.10649 	 79.7471
| 19> C 	 -1.42586 	 -6.03116 	 78.9877
| 20> H 	 -1.62619 	 -5.52886 	 78.0076
| 21> H 	 -1.03033 	 -6.99526 	 78.727
| 22> H 	 -2.42725 	 -6.13163 	 79.507
| 23> S 	 1.84003 	 -0.476895 	 75.3733
| 24> C 	 0.720505 	 0.694816 	 74.7355
| 25> C 	 -0.580701 	 0.386776 	 75.0629
| 26> C 	 -0.685046 	 -0.962739 	 75.591
| 27> C 	 0.550163 	 -1.56832 	 75.7587
| 28> H 	 -1.43691 	 1.13045 	 75.0773
| 29> C 	 -1.9714 	 -1.5529 	 76.1742
| 30> H 	 -2.70154 	 -0.776968 	 76.2055
| 31> H 	 -1.79158 	 -1.87921 	 77.1896
| 32> C 	 -2.53279 	 -2.71014 	 75.3384
| 33> H 	 -1.84759 	 -3.52719 	 75.3182
| 34> H 	 -2.61144 	 -2.31373 	 74.2465
| 35> C 	 -3.95023 	 -3.1868 	 75.8138
| 36> H 	 -4.59962 	 -2.35439 	 75.8225
| 37> H 	 -3.86867 	 -3.57004 	 76.842
| 38> H 	 -4.44343 	 -3.94032 	 75.1917
| 39> H 	 2.77018 	 -5.83669 	 76.969
| 40> H 	 0.992557 	 1.71581 	 74.4263
| 41> *
| 42>
| 43>                          ****END OF INPUT****

CARTESIAN COORDINATES (ANGSTROEM)
---------------------------------
  S      2.197150   -3.736000   75.608500
  C      2.114740   -4.935010   76.883600
  C      1.328860   -4.503130   77.926000
  C      0.665712   -3.297600   77.645800
  C      0.951171   -2.835420   76.396600
  H      0.014081   -2.691100   78.282800
  C      1.029210   -5.226330   79.276500
  H      1.566270   -4.558210   79.931000
  H      1.458800   -6.246900   79.289300
  C     -0.436302   -5.114280   79.753500
  H     -0.435941   -5.462980   80.835400
  H     -0.841389   -4.106490   79.747100
  C     -1.425860   -6.031160   78.987700
  H     -1.626190   -5.528860   78.007600
  H     -1.030330   -6.995260   78.727000
  H     -2.427250   -6.131630   79.507000
  S      1.840030   -0.476895   75.373300
  C      0.720505    0.694816   74.735500
  C     -0.580701    0.386776   75.062900
  C     -0.685046   -0.962739   75.591000
  C      0.550163   -1.568320   75.758700
  H     -1.436910    1.130450   75.077300
  C     -1.971400   -1.552900   76.174200
  H     -2.701540   -0.776968   76.205500
  H     -1.791580   -1.879210   77.189600
  C     -2.532790   -2.710140   75.338400
  H     -1.847590   -3.527190   75.318200
  H     -2.611440   -2.313730   74.246500
  C     -3.950230   -3.186800   75.813800
  H     -4.599620   -2.354390   75.822500
  H     -3.868670   -3.570040   76.842000
  H     -4.443430   -3.940320   75.191700
  H      2.770180   -5.836690   76.969000
  H      0.992557    1.715810   74.426300

 Total Charge           Charge          ....    0
 Multiplicity           Mult            ....    1
 Number of Electrons    NEL             ....  134
 Basis Dimension        Dim             ....  322

ORBITAL ENERGIES
----------------

  NO   OCC          E(Eh)            E(eV)
   0   2.0000     -88.966661     -2420.9059
   1   2.0000     -88.966446     -2420.9001
   2   2.0000     -10.326982      -281.0115
   3   2.0000     -10.323873      -280.9269
   4   2.0000     -10.317452      -280.7521
   5   2.0000     -10.314830      -280.6808
   6   2.0000     -10.303134      -280.3625
   7   2.0000     -10.302148      -280.3357
   8   2.0000     -10.301962      -280.3306
   9   2.0000     -10.300374      -280.2874
  10   2.0000     -10.296966      -280.1947
  11   2.0000     -10.292406      -280.0706
  12   2.0000     -10.289027      -279.9787
  13   2.0000     -10.288268      -279.9580
  14   2.0000     -10.282164      -279.7919
  15   2.0000     -10.276007      -279.6244
  16   2.0000      -8.081816      -219.9174
  17   2.0000      -8.081574      -219.9108
  18   2.0000      -6.040234      -164.3631
  19   2.0000      -6.040088      -164.3591
  20   2.0000      -6.036309      -164.2563
  21   2.0000      -6.036096      -164.2505
  22   2.0000      -6.032592      -164.1552
  23   2.0000      -6.032218      -164.1450
  24   2.0000      -1.013364       -27.5750
  25   2.0000      -0.988066       -26.8866
  26   2.0000      -0.909446       -24.7473
  27   2.0000      -0.905010       -24.6266
  28   2.0000      -0.867589       -23.6083
  29   2.0000      -0.849403       -23.1134
  30   2.0000      -0.842486       -22.9252
  31   2.0000      -0.814451       -22.1623
  32   2.0000      -0.783219       -21.3125
  33   2.0000      -0.771788       -21.0014
  34   2.0000      -0.706186       -19.2163
  35   2.0000      -0.694681       -18.9032
  36   2.0000      -0.686307       -18.6754
  37   2.0000      -0.659783       -17.9536
  38   2.0000      -0.639252       -17.3949
  39   2.0000      -0.625398       -17.0179
  40   2.0000      -0.592334       -16.1182
  41   2.0000      -0.565456       -15.3868
  42   2.0000      -0.559281       -15.2188
  43   2.0000      -0.550513       -14.9802
  44   2.0000      -0.532301       -14.4846
  45   2.0000      -0.520726       -14.1697
  46   2.0000      -0.515693       -14.0327
  47   2.0000      -0.509226       -13.8567
  48   2.0000      -0.501212       -13.6387
  49   2.0000      -0.494738       -13.4625
  50   2.0000      -0.493097       -13.4179
  51   2.0000      -0.486394       -13.2355
  52   2.0000      -0.467794       -12.7293
  53   2.0000      -0.465846       -12.6763
  54   2.0000      -0.457162       -12.4400
  55   2.0000      -0.451068       -12.2742
  56   2.0000      -0.443535       -12.0692
  57   2.0000      -0.442256       -12.0344
  58   2.0000      -0.435951       -11.8628
  59   2.0000      -0.432855       -11.7786
  60   2.0000      -0.422616       -11.5000
  61   2.0000      -0.414937       -11.2910
  62   2.0000      -0.406613       -11.0645
  63   2.0000      -0.345911        -9.4127
  64   2.0000      -0.331946        -9.0327
  65   2.0000      -0.328594        -8.9415
  66   2.0000      -0.295772        -8.0484
  67   0.0000       0.032733         0.8907
  68   0.0000       0.068114         1.8535
  69   0.0000       0.100132         2.7247
  70   0.0000       0.115651         3.1470
  71   0.0000       0.129815         3.5324

MULLIKEN ATOMIC CHARGES
-----------------------
   0 S :    0.115598
   1 C :   -0.141191
   2 C :   -0.086310
   3 C :    0.013284
   4 C :   -0.154566
   5 H :    0.023234
   6 C :    0.093153
   7 H :    0.037048
   8 H :    0.034764
   9 C :   -0.111374
  10 H :    0.040555
  11 H :    0.034000
  12 C :   -0.063281
  13 H :    0.036835
  14 H :    0.028110
  15 H :    0.045866
  16 S :    0.113510
  17 C :   -0.094210
  18 C :   -0.059258
  19 C :   -0.064121
  20 C :   -0.150916
  21 H :    0.048259
  22 C :    0.104968
  23 H :   -0.001435
  24 H :    0.012212
  25 C :   -0.113329
  26 H :    0.039532
  27 H :    0.039198
  28 C :   -0.026900
  29 H :    0.014569
  30 H :    0.029077
  31 H :    0.040639
  32 H :    0.057809
  33 H :    0.064671
Sum of atomic charges:   -0.0000000

LOEWDIN ATOMIC CHARGES
----------------------
   0 S :    0.415977
   1 C :   -0.212249
   2 C :   -0.063838
   3 C :   -0.070625
   4 C :   -0.193780
   5 H :    0.034304
   6 C :   -0.026218
   7 H :    0.037148
   8 H :    0.033490
   9 C :   -0.046244
  10 H :    0.031303
  11 H :    0.022348
  12 C :   -0.073200
  13 H :    0.028883
  14 H :    0.019753
  15 H :    0.032407
  16 S :    0.418558
  17 C :   -0.198073
  18 C :   -0.075861
  19 C :   -0.058959
  20 C :   -0.206573
  21 H :    0.043806
  22 C :   -0.025448
  23 H :    0.021972
  24 H :    0.022984
  25 C :   -0.037821
  26 H :    0.017679
  27 H :    0.032967
  28 C :   -0.065709
  29 H :    0.016213
  30 H :    0.025458
  31 H :    0.028806
  32 H :    0.036648
  33 H :    0.033894

  Mayer bond orders larger than 0.100000
B(  0-S ,  1-C ) :   1.1257 B(  0-S ,  4-C ) :   1.1680 B(  1-C ,  2-C ) :   1.6374
B(  1-C , 32-H ) :   0.9610 B(  2-C ,  3-C ) :   1.2259 B(  2-C ,  6-C ) :   0.9957
B(  3-C ,  4-C ) :   1.5918 B(  3-C ,  5-H ) :   0.9855 B(  4-C , 20-C ) :   1.0023
B(  6-C ,  7-H ) :   0.9281 B(  6-C ,  8-H ) :   0.9505 B(  6-C ,  9-C ) :   1.0804
B(  9-C , 10-H ) :   0.9550 B(  9-C , 11-H ) :   0.9507 B(  9-C , 12-C ) :   1.0686
B( 12-C , 13-H ) :   0.9737 B( 12-C , 14-H ) :   0.9765 B( 12-C , 15-H ) :   0.9756
B( 16-S , 17-C ) :   1.1536 B( 16-S , 20-C ) :   1.1570 B( 17-C , 18-C ) :   1.6130
B( 17-C , 33-H ) :   0.9620 B( 18-C , 19-C ) :   1.2539 B( 18-C , 21-H ) :   0.9740
B( 19-C , 20-C ) :   1.6092 B( 19-C , 22-C ) :   1.0435 B( 22-C , 23-H ) :   0.9311
B( 22-C , 24-H ) :   0.9362 B( 22-C , 25-C ) :   1.0522 B( 25-C , 26-H ) :   0.9617
B( 25-C , 27-H ) :   0.9554 B( 25-C , 28-C ) :   1.0757 B( 28-C , 29-H ) :   0.9744
B( 28-C , 30-H ) :   0.9734 B( 28-C , 31-H ) :   0.9766

Dispersion correction           -0.015172274
FINAL SINGLE POINT ENERGY     -1339.882321165724

DIPOLE MOMENT
-------------
                                X             Y             Z
Electronic contribution:     24.90422      12.76344     -13.00179
Nuclear contribution   :    -25.30548     -12.73481      13.62228
                        -----------------------------------------
Total Dipole Moment    :     -0.40126       0.02863       0.62049
                        -----------------------------------------
Magnitude (a.u.)       :      0.73948
Magnitude (Debye)      :      1.87961

Rotational constants in cm-1:     0.017287     0.010506     0.007460
Rotational constants in MHz :   518.238940   314.954978   223.649930

                             ****ORCA TERMINATED NORMALLY****
TOTAL RUN TIME: 0 days 0 hours 0 minutes 36 seconds 533 msec
