                         Program Version 4.2.1 -  RELEASE  -
|  1> ! wB97X-D3 SP def2-SVP
|  2> %pal
|  3> nprocs 16
|  4> end
|  5>
|  6> * xyz 0 1
|  7> S 	 -90.5616 	 46.0846 	 130.196
|  8> C 	 -91.6172 	 47.4482 	 130.295
|  9> C 	 -90.8976 	 48.6362 	 130.235
| 10> C 	 -89.4724 	 48.3885 	 130.061
| 11> C 	 -89.1074 	 47.0657 	 130.039
| 12> H 	 -88.7086 	 49.1579 	 129.974
| 13> C 	 -91.434 	 50.0281 	 130.186
| 14> H 	 -92.5524 	 50.0567 	 130.128
| 15> H 	 -91.1103 	 50.4026 	 129.28
| 16> C 	 -90.9318 	 51.0547 	 131.302
| 17> H 	 -90.8833 	 50.5183 	 132.272
| 18> H 	 -89.907 	 51.3308 	 131.099
| 19> C 	 -91.6709 	 52.3594 	 131.39
| 20> H 	 -92.6913 	 52.2518 	 131.774
| 21> H 	 -91.2042 	 52.9596 	 132.144
| 22> H 	 -91.7851 	 52.8878 	 130.44
| 23> S 	 -87.7975 	 45.1827 	 128.703
| 24> C 	 -86.0157 	 45.1923 	 128.546
| 25> C 	 -85.4416 	 46.2773 	 129.162
| 26> C 	 -86.4931 	 47.0141 	 129.881
| 27> C 	 -87.7937 	 46.5952 	 129.695
| 28> H 	 -84.3764 	 46.5369 	 129.214
| 29> C 	 -86.0182 	 48.1571 	 130.809
| 30> H 	 -86.9012 	 48.4834 	 131.39
| 31> H 	 -85.668 	 48.9179 	 130.114
| 32> C 	 -84.9372 	 47.774 	 131.817
| 33> H 	 -84.5469 	 48.7092 	 132.269
| 34> H 	 -84.082 	 47.2545 	 131.323
| 35> C 	 -85.3872 	 46.9533 	 133.014
| 36> H 	 -85.8251 	 46.0005 	 132.727
| 37> H 	 -86.2692 	 47.4414 	 133.46
| 38> H 	 -84.6387 	 46.8417 	 133.81
| 39> H 	 -92.6653 	 47.3913 	 130.439
| 40> H 	 -85.374 	 44.4222 	 128.078
| 41> *
| 42>
| 43>                          ****END OF INPUT****

CARTESIAN COORDINATES (ANGSTROEM)
---------------------------------
  S    -90.561600   46.084600  130.196000
  C    -91.617200   47.448200  130.295000
  C    -90.897600   48.636200  130.235000
  C    -89.472400   48.388500  130.061000
  C    -89.107400   47.065700  130.039000
  H    -88.708600   49.157900  129.974000
  C    -91.434000   50.028100  130.186000
  H    -92.552400   50.056700  130.128000
  H    -91.110300   50.402600  129.280000
  C    -90.931800   51.054700  131.302000
  H    -90.883300   50.518300  132.272000
  H    -89.907000   51.330800  131.099000
  C    -91.670900   52.359400  131.390000
  H    -92.691300   52.251800  131.774000
  H    -91.204200   52.959600  132.144000
  H    -91.785100   52.887800  130.440000
  S    -87.797500   45.182700  128.703000
  C    -86.015700   45.192300  128.546000
  C    -85.441600   46.277300  129.162000
  C    -86.493100   47.014100  129.881000
  C    -87.793700   46.595200  129.695000
  H    -84.376400   46.536900  129.214000
  C    -86.018200   48.157100  130.809000
  H    -86.901200   48.483400  131.390000
  H    -85.668000   48.917900  130.114000
  C    -84.937200   47.774000  131.817000
  H    -84.546900   48.709200  132.269000
  H    -84.082000   47.254500  131.323000
  C    -85.387200   46.953300  133.014000
  H    -85.825100   46.000500  132.727000
  H    -86.269200   47.441400  133.460000
  H    -84.638700   46.841700  133.810000
  H    -92.665300   47.391300  130.439000
  H    -85.374000   44.422200  128.078000

 Total Charge           Charge          ....    0
 Multiplicity           Mult            ....    1
 Number of Electrons    NEL             ....  134
 Basis Dimension        Dim             ....  322

ORBITAL ENERGIES
----------------

  NO   OCC          E(Eh)            E(eV)
   0   2.0000     -88.967578     -2420.9309
   1   2.0000     -88.962802     -2420.8009
   2   2.0000     -10.331147      -281.1248
   3   2.0000     -10.326609      -281.0013
   4   2.0000     -10.323340      -280.9124
   5   2.0000     -10.314743      -280.6784
   6   2.0000     -10.305501      -280.4269
   7   2.0000     -10.304851      -280.4093
   8   2.0000     -10.300586      -280.2932
   9   2.0000     -10.294928      -280.1392
  10   2.0000     -10.294002      -280.1140
  11   2.0000     -10.291876      -280.0562
  12   2.0000     -10.290549      -280.0201
  13   2.0000     -10.289705      -279.9971
  14   2.0000     -10.277903      -279.6760
  15   2.0000     -10.274521      -279.5839
  16   2.0000      -8.082367      -219.9324
  17   2.0000      -8.077685      -219.8050
  18   2.0000      -6.041066      -164.3858
  19   2.0000      -6.036789      -164.2694
  20   2.0000      -6.036453      -164.2602
  21   2.0000      -6.032991      -164.1660
  22   2.0000      -6.032167      -164.1436
  23   2.0000      -6.028138      -164.0340
  24   2.0000      -1.009445       -27.4684
  25   2.0000      -0.983163       -26.7532
  26   2.0000      -0.910447       -24.7745
  27   2.0000      -0.906113       -24.6566
  28   2.0000      -0.877340       -23.8736
  29   2.0000      -0.853732       -23.2312
  30   2.0000      -0.842534       -22.9265
  31   2.0000      -0.819180       -22.2910
  32   2.0000      -0.779747       -21.2180
  33   2.0000      -0.771932       -21.0053
  34   2.0000      -0.710074       -19.3221
  35   2.0000      -0.699711       -19.0401
  36   2.0000      -0.691133       -18.8067
  37   2.0000      -0.663255       -18.0481
  38   2.0000      -0.643738       -17.5170
  39   2.0000      -0.619730       -16.8637
  40   2.0000      -0.590255       -16.0617
  41   2.0000      -0.571891       -15.5619
  42   2.0000      -0.559543       -15.2259
  43   2.0000      -0.556997       -15.1566
  44   2.0000      -0.539082       -14.6692
  45   2.0000      -0.529340       -14.4041
  46   2.0000      -0.515925       -14.0390
  47   2.0000      -0.512885       -13.9563
  48   2.0000      -0.510380       -13.8882
  49   2.0000      -0.502746       -13.6804
  50   2.0000      -0.496460       -13.5093
  51   2.0000      -0.480986       -13.0883
  52   2.0000      -0.470593       -12.8055
  53   2.0000      -0.468313       -12.7435
  54   2.0000      -0.453840       -12.3496
  55   2.0000      -0.447710       -12.1828
  56   2.0000      -0.445824       -12.1315
  57   2.0000      -0.438208       -11.9242
  58   2.0000      -0.432254       -11.7622
  59   2.0000      -0.426451       -11.6043
  60   2.0000      -0.419569       -11.4171
  61   2.0000      -0.416299       -11.3281
  62   2.0000      -0.402166       -10.9435
  63   2.0000      -0.362090        -9.8530
  64   2.0000      -0.330311        -8.9882
  65   2.0000      -0.323751        -8.8097
  66   2.0000      -0.289126        -7.8675
  67   0.0000       0.027166         0.7392
  68   0.0000       0.082213         2.2371
  69   0.0000       0.104674         2.8483
  70   0.0000       0.118495         3.2244
  71   0.0000       0.134362         3.6562

MULLIKEN ATOMIC CHARGES
-----------------------
   0 S :    0.109290
   1 C :   -0.106880
   2 C :   -0.074195
   3 C :   -0.003236
   4 C :   -0.115861
   5 H :    0.017775
   6 C :    0.080621
   7 H :    0.021531
   8 H :    0.014905
   9 C :   -0.093311
  10 H :    0.037675
  11 H :    0.023238
  12 C :   -0.037358
  13 H :    0.024335
  14 H :    0.030894
  15 H :    0.035307
  16 S :    0.084826
  17 C :   -0.091652
  18 C :   -0.027941
  19 C :   -0.109035
  20 C :   -0.116176
  21 H :    0.038846
  22 C :    0.056581
  23 H :    0.028039
  24 H :    0.040631
  25 C :   -0.082379
  26 H :    0.030609
  27 H :    0.029265
  28 C :   -0.049471
  29 H :    0.034416
  30 H :    0.018149
  31 H :    0.043668
  32 H :    0.039302
  33 H :    0.067592
Sum of atomic charges:    0.0000000

LOEWDIN ATOMIC CHARGES
----------------------
   0 S :    0.405543
   1 C :   -0.195777
   2 C :   -0.060047
   3 C :   -0.058847
   4 C :   -0.195179
   5 H :    0.029946
   6 C :   -0.031032
   7 H :    0.032397
   8 H :    0.023588
   9 C :   -0.040422
  10 H :    0.028299
  11 H :    0.020106
  12 C :   -0.067169
  13 H :    0.024401
  14 H :    0.027729
  15 H :    0.027485
  16 S :    0.393771
  17 C :   -0.174890
  18 C :   -0.069813
  19 C :   -0.062079
  20 C :   -0.202009
  21 H :    0.038083
  22 C :   -0.034674
  23 H :    0.030115
  24 H :    0.033915
  25 C :   -0.047012
  26 H :    0.028529
  27 H :    0.021949
  28 C :   -0.068869
  29 H :    0.025295
  30 H :    0.025473
  31 H :    0.029037
  32 H :    0.024951
  33 H :    0.037208

  Mayer bond orders larger than 0.100000
B(  0-S ,  1-C ) :   1.1324 B(  0-S ,  4-C ) :   1.1339 B(  1-C ,  2-C ) :   1.6033
B(  1-C , 32-H ) :   0.9740 B(  2-C ,  3-C ) :   1.2270 B(  2-C ,  6-C ) :   1.0432
B(  3-C ,  4-C ) :   1.5769 B(  3-C ,  5-H ) :   0.9918 B(  4-C , 20-C ) :   1.0666
B(  6-C ,  7-H ) :   0.9486 B(  6-C ,  8-H ) :   0.9292 B(  6-C ,  9-C ) :   1.0440
B(  9-C , 10-H ) :   0.9611 B(  9-C , 11-H ) :   0.9525 B(  9-C , 12-C ) :   1.0967
B( 12-C , 13-H ) :   0.9717 B( 12-C , 14-H ) :   0.9711 B( 12-C , 15-H ) :   0.9727
B( 16-S , 17-C ) :   1.1381 B( 16-S , 20-C ) :   1.1097 B( 17-C , 18-C ) :   1.6380
B( 17-C , 33-H ) :   0.9620 B( 18-C , 19-C ) :   1.2118 B( 18-C , 21-H ) :   0.9824
B( 19-C , 20-C ) :   1.6359 B( 19-C , 22-C ) :   1.0283 B( 22-C , 23-H ) :   0.9405
B( 22-C , 24-H ) :   0.9316 B( 22-C , 25-C ) :   1.0776 B( 25-C , 26-H ) :   0.9511
B( 25-C , 27-H ) :   0.9525 B( 25-C , 28-C ) :   1.0776 B( 28-C , 29-H ) :   0.9749
B( 28-C , 30-H ) :   0.9689 B( 28-C , 31-H ) :   0.9745

Dispersion correction           -0.013768668
FINAL SINGLE POINT ENERGY     -1339.884270886111

DIPOLE MOMENT
-------------
                                X             Y             Z
Electronic contribution:     -4.60873     -24.15992     -14.38790
Nuclear contribution   :      4.84644      24.86067      14.56429
                        -----------------------------------------
Total Dipole Moment    :      0.23771       0.70076       0.17639
                        -----------------------------------------
Magnitude (a.u.)       :      0.76071
Magnitude (Debye)      :      1.93356

Rotational constants in cm-1:     0.018495     0.008294     0.006455
Rotational constants in MHz :   554.461528   248.652339   193.523047

                             ****ORCA TERMINATED NORMALLY****
TOTAL RUN TIME: 0 days 0 hours 0 minutes 34 seconds 114 msec
