                         Program Version 4.2.1 -  RELEASE  -
|  1> ! wB97X-D3 SP def2-SVP
|  2> %pal
|  3> nprocs 16
|  4> end
|  5>
|  6> * xyz 0 1
|  7> S 	 -17.4212 	 36.28 	 37.8141
|  8> C 	 -17.5745 	 35.9101 	 36.1188
|  9> C 	 -16.5117 	 36.3924 	 35.3596
| 10> C 	 -15.4433 	 36.8932 	 36.1899
| 11> C 	 -15.7647 	 36.8996 	 37.5058
| 12> H 	 -14.5468 	 37.2975 	 35.757
| 13> C 	 -16.4671 	 36.3584 	 33.8848
| 14> H 	 -16.0993 	 37.3575 	 33.4488
| 15> H 	 -17.4757 	 36.2392 	 33.495
| 16> C 	 -15.7195 	 35.2497 	 33.2266
| 17> H 	 -15.9943 	 34.291 	 33.6317
| 18> H 	 -16.0019 	 35.1308 	 32.1667
| 19> C 	 -14.2511 	 35.2965 	 33.3705
| 20> H 	 -13.771 	 34.5184 	 32.7453
| 21> H 	 -13.7833 	 36.2269 	 33.1109
| 22> H 	 -13.8891 	 35.0163 	 34.3597
| 23> S 	 -14.3553 	 38.7546 	 39.0223
| 24> C 	 -13.6657 	 38.1544 	 40.5079
| 25> C 	 -13.6848 	 36.7832 	 40.6087
| 26> C 	 -14.2742 	 36.1739 	 39.4646
| 27> C 	 -14.7621 	 37.0806 	 38.553
| 28> H 	 -13.0724 	 36.3782 	 41.4616
| 29> C 	 -14.4149 	 34.6304 	 39.3061
| 30> H 	 -14.6991 	 34.3684 	 38.3419
| 31> H 	 -15.2271 	 34.2438 	 39.95
| 32> C 	 -13.1745 	 33.8138 	 39.6098
| 33> H 	 -12.9062 	 34.0404 	 40.5969
| 34> H 	 -12.366 	 34.0852 	 38.9504
| 35> C 	 -13.5778 	 32.3572 	 39.5789
| 36> H 	 -12.7463 	 31.7999 	 39.9114
| 37> H 	 -13.97 	 31.9739 	 38.6175
| 38> H 	 -14.3403 	 32.1323 	 40.3782
| 39> H 	 -18.4819 	 35.5047 	 35.6534
| 40> H 	 -13.1379 	 38.8569 	 41.174
| 41> *
| 42>
| 43>                          ****END OF INPUT****

CARTESIAN COORDINATES (ANGSTROEM)
---------------------------------
  S    -17.421200   36.280000   37.814100
  C    -17.574500   35.910100   36.118800
  C    -16.511700   36.392400   35.359600
  C    -15.443300   36.893200   36.189900
  C    -15.764700   36.899600   37.505800
  H    -14.546800   37.297500   35.757000
  C    -16.467100   36.358400   33.884800
  H    -16.099300   37.357500   33.448800
  H    -17.475700   36.239200   33.495000
  C    -15.719500   35.249700   33.226600
  H    -15.994300   34.291000   33.631700
  H    -16.001900   35.130800   32.166700
  C    -14.251100   35.296500   33.370500
  H    -13.771000   34.518400   32.745300
  H    -13.783300   36.226900   33.110900
  H    -13.889100   35.016300   34.359700
  S    -14.355300   38.754600   39.022300
  C    -13.665700   38.154400   40.507900
  C    -13.684800   36.783200   40.608700
  C    -14.274200   36.173900   39.464600
  C    -14.762100   37.080600   38.553000
  H    -13.072400   36.378200   41.461600
  C    -14.414900   34.630400   39.306100
  H    -14.699100   34.368400   38.341900
  H    -15.227100   34.243800   39.950000
  C    -13.174500   33.813800   39.609800
  H    -12.906200   34.040400   40.596900
  H    -12.366000   34.085200   38.950400
  C    -13.577800   32.357200   39.578900
  H    -12.746300   31.799900   39.911400
  H    -13.970000   31.973900   38.617500
  H    -14.340300   32.132300   40.378200
  H    -18.481900   35.504700   35.653400
  H    -13.137900   38.856900   41.174000

 Total Charge           Charge          ....    0
 Multiplicity           Mult            ....    1
 Number of Electrons    NEL             ....  134
 Basis Dimension        Dim             ....  322

ORBITAL ENERGIES
----------------

  NO   OCC          E(Eh)            E(eV)
   0   2.0000     -88.968000     -2420.9424
   1   2.0000     -88.960355     -2420.7343
   2   2.0000     -10.326604      -281.0012
   3   2.0000     -10.321815      -280.8709
   4   2.0000     -10.318139      -280.7708
   5   2.0000     -10.316373      -280.7228
   6   2.0000     -10.304199      -280.3915
   7   2.0000     -10.298798      -280.2445
   8   2.0000     -10.296944      -280.1941
   9   2.0000     -10.292375      -280.0698
  10   2.0000     -10.291443      -280.0444
  11   2.0000     -10.281645      -279.7778
  12   2.0000     -10.279180      -279.7107
  13   2.0000     -10.276959      -279.6503
  14   2.0000     -10.275911      -279.6217
  15   2.0000     -10.271056      -279.4897
  16   2.0000      -8.081959      -219.9213
  17   2.0000      -8.075215      -219.7378
  18   2.0000      -6.040525      -164.3710
  19   2.0000      -6.036720      -164.2675
  20   2.0000      -6.033587      -164.1822
  21   2.0000      -6.032559      -164.1543
  22   2.0000      -6.029775      -164.0785
  23   2.0000      -6.026042      -163.9769
  24   2.0000      -1.002534       -27.2803
  25   2.0000      -0.981458       -26.7068
  26   2.0000      -0.921018       -25.0622
  27   2.0000      -0.913260       -24.8511
  28   2.0000      -0.869412       -23.6579
  29   2.0000      -0.851117       -23.1601
  30   2.0000      -0.846958       -23.0469
  31   2.0000      -0.816001       -22.2045
  32   2.0000      -0.782433       -21.2911
  33   2.0000      -0.768919       -20.9233
  34   2.0000      -0.702004       -19.1025
  35   2.0000      -0.699061       -19.0224
  36   2.0000      -0.696024       -18.9398
  37   2.0000      -0.651848       -17.7377
  38   2.0000      -0.639097       -17.3907
  39   2.0000      -0.619271       -16.8512
  40   2.0000      -0.599633       -16.3169
  41   2.0000      -0.573638       -15.6095
  42   2.0000      -0.571584       -15.5536
  43   2.0000      -0.551270       -15.0008
  44   2.0000      -0.543372       -14.7859
  45   2.0000      -0.524108       -14.2617
  46   2.0000      -0.517709       -14.0876
  47   2.0000      -0.506629       -13.7861
  48   2.0000      -0.502877       -13.6840
  49   2.0000      -0.492790       -13.4095
  50   2.0000      -0.488369       -13.2892
  51   2.0000      -0.482647       -13.1335
  52   2.0000      -0.472820       -12.8661
  53   2.0000      -0.461038       -12.5455
  54   2.0000      -0.454424       -12.3655
  55   2.0000      -0.447286       -12.1713
  56   2.0000      -0.442176       -12.0322
  57   2.0000      -0.437299       -11.8995
  58   2.0000      -0.431355       -11.7378
  59   2.0000      -0.425965       -11.5911
  60   2.0000      -0.423766       -11.5313
  61   2.0000      -0.412778       -11.2323
  62   2.0000      -0.410949       -11.1825
  63   2.0000      -0.341926        -9.3043
  64   2.0000      -0.333146        -9.0654
  65   2.0000      -0.318290        -8.6611
  66   2.0000      -0.303154        -8.2492
  67   0.0000       0.038230         1.0403
  68   0.0000       0.058500         1.5919
  69   0.0000       0.105328         2.8661
  70   0.0000       0.115046         3.1306
  71   0.0000       0.126435         3.4405

MULLIKEN ATOMIC CHARGES
-----------------------
   0 S :    0.122111
   1 C :   -0.134197
   2 C :   -0.077935
   3 C :    0.038705
   4 C :   -0.125590
   5 H :    0.014750
   6 C :    0.047546
   7 H :    0.040366
   8 H :    0.012307
   9 C :   -0.035371
  10 H :    0.007964
  11 H :    0.027342
  12 C :   -0.053404
  13 H :    0.025950
  14 H :    0.018319
  15 H :    0.029468
  16 S :    0.092090
  17 C :   -0.118134
  18 C :   -0.050360
  19 C :   -0.015096
  20 C :   -0.182965
  21 H :    0.046341
  22 C :    0.088451
  23 H :    0.001410
  24 H :    0.029363
  25 C :   -0.057400
  26 H :    0.008722
  27 H :    0.033921
  28 C :   -0.043818
  29 H :    0.019694
  30 H :    0.040491
  31 H :    0.028516
  32 H :    0.053352
  33 H :    0.067091
Sum of atomic charges:   -0.0000000

LOEWDIN ATOMIC CHARGES
----------------------
   0 S :    0.392600
   1 C :   -0.196418
   2 C :   -0.065558
   3 C :   -0.046710
   4 C :   -0.184700
   5 H :    0.032870
   6 C :   -0.040546
   7 H :    0.039365
   8 H :    0.031637
   9 C :   -0.046620
  10 H :    0.024188
  11 H :    0.027677
  12 C :   -0.069577
  13 H :    0.030888
  14 H :    0.016323
  15 H :    0.024738
  16 S :    0.385013
  17 C :   -0.180063
  18 C :   -0.086896
  19 C :   -0.050620
  20 C :   -0.193215
  21 H :    0.044937
  22 C :   -0.023982
  23 H :    0.017042
  24 H :    0.033899
  25 C :   -0.033382
  26 H :    0.014753
  27 H :    0.024879
  28 C :   -0.062151
  29 H :    0.019355
  30 H :    0.027322
  31 H :    0.031577
  32 H :    0.030705
  33 H :    0.030671

  Mayer bond orders larger than 0.100000
B(  0-S ,  1-C ) :   1.1394 B(  0-S ,  4-C ) :   1.1209 B(  1-C ,  2-C ) :   1.6272
B(  1-C , 32-H ) :   0.9595 B(  2-C ,  3-C ) :   1.2209 B(  2-C ,  6-C ) :   1.0386
B(  3-C ,  4-C ) :   1.6004 B(  3-C ,  5-H ) :   0.9946 B(  4-C , 20-C ) :   1.0016
B(  6-C ,  7-H ) :   0.9400 B(  6-C ,  8-H ) :   0.9283 B(  6-C ,  9-C ) :   1.0862
B(  9-C , 10-H ) :   0.9392 B(  9-C , 11-H ) :   0.9524 B(  9-C , 12-C ) :   1.0978
B( 12-C , 13-H ) :   0.9667 B( 12-C , 14-H ) :   0.9737 B( 12-C , 15-H ) :   0.9687
B( 16-S , 17-C ) :   1.1680 B( 16-S , 20-C ) :   1.1248 B( 17-C , 18-C ) :   1.6238
B( 17-C , 33-H ) :   0.9608 B( 18-C , 19-C ) :   1.2137 B( 18-C , 21-H ) :   0.9807
B( 19-C , 20-C ) :   1.6355 B( 19-C , 22-C ) :   1.0186 B( 22-C , 23-H ) :   0.9373
B( 22-C , 24-H ) :   0.9377 B( 22-C , 25-C ) :   1.0682 B( 25-C , 26-H ) :   0.9476
B( 25-C , 27-H ) :   0.9559 B( 25-C , 28-C ) :   1.0964 B( 28-C , 29-H ) :   0.9698
B( 28-C , 30-H ) :   0.9747 B( 28-C , 31-H ) :   0.9694

Dispersion correction           -0.014405874
FINAL SINGLE POINT ENERGY     -1339.877772127601

DIPOLE MOMENT
-------------
                                X             Y             Z
Electronic contribution:     -9.56806      20.69295      12.18178
Nuclear contribution   :      9.82340     -21.14315     -12.41753
                        -----------------------------------------
Total Dipole Moment    :      0.25534      -0.45020      -0.23575
                        -----------------------------------------
Magnitude (a.u.)       :      0.56873
Magnitude (Debye)      :      1.44561

Rotational constants in cm-1:     0.016708     0.008980     0.007488
Rotational constants in MHz :   500.896321   269.227293   224.473536

                             ****ORCA TERMINATED NORMALLY****
TOTAL RUN TIME: 0 days 0 hours 0 minutes 36 seconds 167 msec
