                         Program Version 4.2.1 -  RELEASE  -
|  1> ! wB97X-D3 SP def2-SVP
|  2> %pal
|  3> nprocs 16
|  4> end
|  5>
|  6> * xyz 0 1
|  7> S 	 -74.2387 	 40.9721 	 119.061
|  8> C 	 -73.7251 	 39.3017 	 118.955
|  9> C 	 -73.0764 	 38.9262 	 120.151
| 10> C 	 -73.0692 	 39.9899 	 121.084
| 11> C 	 -73.6323 	 41.1812 	 120.661
| 12> H 	 -72.6774 	 40.0159 	 122.083
| 13> C 	 -72.5103 	 37.5349 	 120.454
| 14> H 	 -73.2477 	 36.8388 	 120.075
| 15> H 	 -72.6558 	 37.3006 	 121.489
| 16> C 	 -71.1794 	 37.1002 	 119.918
| 17> H 	 -70.9166 	 36.0589 	 120.165
| 18> H 	 -71.2045 	 37.1669 	 118.844
| 19> C 	 -70.0259 	 38.059 	 120.275
| 20> H 	 -70.0549 	 39.021 	 119.737
| 21> H 	 -70.0901 	 38.1287 	 121.389
| 22> H 	 -69.009 	 37.7001 	 120.148
| 23> S 	 -75.2891 	 43.3548 	 121.165
| 24> C 	 -75.0378 	 44.3051 	 122.618
| 25> C 	 -73.7408 	 44.1161 	 123.115
| 26> C 	 -73.052 	 43.0295 	 122.439
| 27> C 	 -73.7682 	 42.4442 	 121.411
| 28> H 	 -73.3292 	 44.6981 	 123.941
| 29> C 	 -71.7807 	 42.4804 	 123.044
| 30> H 	 -71.9656 	 41.5647 	 123.559
| 31> H 	 -71.5398 	 43.298 	 123.798
| 32> C 	 -70.5533 	 42.5047 	 122.063
| 33> H 	 -70.3006 	 43.5746 	 121.94
| 34> H 	 -70.7931 	 42.0259 	 121.096
| 35> C 	 -69.328 	 41.7941 	 122.554
| 36> H 	 -69.2488 	 40.807 	 122.163
| 37> H 	 -69.2929 	 41.8312 	 123.63
| 38> H 	 -68.4246 	 42.3719 	 122.174
| 39> H 	 -73.7287 	 38.6471 	 118.09
| 40> H 	 -75.7349 	 45.0217 	 122.916
| 41> *
| 42>
| 43>                          ****END OF INPUT****

CARTESIAN COORDINATES (ANGSTROEM)
---------------------------------
  S    -74.238700   40.972100  119.061000
  C    -73.725100   39.301700  118.955000
  C    -73.076400   38.926200  120.151000
  C    -73.069200   39.989900  121.084000
  C    -73.632300   41.181200  120.661000
  H    -72.677400   40.015900  122.083000
  C    -72.510300   37.534900  120.454000
  H    -73.247700   36.838800  120.075000
  H    -72.655800   37.300600  121.489000
  C    -71.179400   37.100200  119.918000
  H    -70.916600   36.058900  120.165000
  H    -71.204500   37.166900  118.844000
  C    -70.025900   38.059000  120.275000
  H    -70.054900   39.021000  119.737000
  H    -70.090100   38.128700  121.389000
  H    -69.009000   37.700100  120.148000
  S    -75.289100   43.354800  121.165000
  C    -75.037800   44.305100  122.618000
  C    -73.740800   44.116100  123.115000
  C    -73.052000   43.029500  122.439000
  C    -73.768200   42.444200  121.411000
  H    -73.329200   44.698100  123.941000
  C    -71.780700   42.480400  123.044000
  H    -71.965600   41.564700  123.559000
  H    -71.539800   43.298000  123.798000
  C    -70.553300   42.504700  122.063000
  H    -70.300600   43.574600  121.940000
  H    -70.793100   42.025900  121.096000
  C    -69.328000   41.794100  122.554000
  H    -69.248800   40.807000  122.163000
  H    -69.292900   41.831200  123.630000
  H    -68.424600   42.371900  122.174000
  H    -73.728700   38.647100  118.090000
  H    -75.734900   45.021700  122.916000

 Total Charge           Charge          ....    0
 Multiplicity           Mult            ....    1
 Number of Electrons    NEL             ....  134
 Basis Dimension        Dim             ....  322

ORBITAL ENERGIES
----------------

  NO   OCC          E(Eh)            E(eV)
   0   2.0000     -88.969748     -2420.9899
   1   2.0000     -88.964084     -2420.8358
   2   2.0000     -10.332696      -281.1670
   3   2.0000     -10.331348      -281.1303
   4   2.0000     -10.320889      -280.8457
   5   2.0000     -10.318834      -280.7898
   6   2.0000     -10.307238      -280.4742
   7   2.0000     -10.306254      -280.4474
   8   2.0000     -10.302596      -280.3479
   9   2.0000     -10.295979      -280.1678
  10   2.0000     -10.290956      -280.0311
  11   2.0000     -10.290010      -280.0054
  12   2.0000     -10.288137      -279.9545
  13   2.0000     -10.284172      -279.8466
  14   2.0000     -10.279204      -279.7113
  15   2.0000     -10.272408      -279.5264
  16   2.0000      -8.084515      -219.9908
  17   2.0000      -8.078513      -219.8275
  18   2.0000      -6.042974      -164.4377
  19   2.0000      -6.038912      -164.3272
  20   2.0000      -6.037068      -164.2770
  21   2.0000      -6.035427      -164.2323
  22   2.0000      -6.033102      -164.1690
  23   2.0000      -6.029207      -164.0631
  24   2.0000      -1.006484       -27.3878
  25   2.0000      -0.982251       -26.7284
  26   2.0000      -0.915253       -24.9053
  27   2.0000      -0.906601       -24.6699
  28   2.0000      -0.867186       -23.5973
  29   2.0000      -0.854748       -23.2589
  30   2.0000      -0.845154       -22.9978
  31   2.0000      -0.814584       -22.1660
  32   2.0000      -0.784705       -21.3529
  33   2.0000      -0.773087       -21.0368
  34   2.0000      -0.704696       -19.1758
  35   2.0000      -0.701845       -19.0982
  36   2.0000      -0.685664       -18.6579
  37   2.0000      -0.669573       -18.2200
  38   2.0000      -0.642994       -17.4968
  39   2.0000      -0.614725       -16.7275
  40   2.0000      -0.593873       -16.1601
  41   2.0000      -0.578958       -15.7543
  42   2.0000      -0.569768       -15.5042
  43   2.0000      -0.550536       -14.9809
  44   2.0000      -0.547353       -14.8942
  45   2.0000      -0.524540       -14.2735
  46   2.0000      -0.515282       -14.0215
  47   2.0000      -0.512278       -13.9398
  48   2.0000      -0.504927       -13.7398
  49   2.0000      -0.503585       -13.7032
  50   2.0000      -0.493651       -13.4329
  51   2.0000      -0.484320       -13.1790
  52   2.0000      -0.475621       -12.9423
  53   2.0000      -0.462091       -12.5741
  54   2.0000      -0.458529       -12.4772
  55   2.0000      -0.446039       -12.1373
  56   2.0000      -0.441837       -12.0230
  57   2.0000      -0.436715       -11.8836
  58   2.0000      -0.427089       -11.6217
  59   2.0000      -0.423375       -11.5206
  60   2.0000      -0.418298       -11.3825
  61   2.0000      -0.408189       -11.1074
  62   2.0000      -0.404965       -11.0197
  63   2.0000      -0.354852        -9.6560
  64   2.0000      -0.335867        -9.1394
  65   2.0000      -0.328813        -8.9474
  66   2.0000      -0.287055        -7.8112
  67   0.0000       0.021602         0.5878
  68   0.0000       0.068997         1.8775
  69   0.0000       0.104472         2.8428
  70   0.0000       0.119517         3.2522
  71   0.0000       0.126303         3.4369

MULLIKEN ATOMIC CHARGES
-----------------------
   0 S :    0.115341
   1 C :   -0.109743
   2 C :   -0.100391
   3 C :    0.022742
   4 C :   -0.133668
   5 H :   -0.013989
   6 C :    0.079372
   7 H :    0.017946
   8 H :    0.015098
   9 C :   -0.032210
  10 H :    0.036524
  11 H :    0.016502
  12 C :   -0.094489
  13 H :    0.055305
  14 H :    0.028977
  15 H :    0.028329
  16 S :    0.082840
  17 C :   -0.075884
  18 C :   -0.023462
  19 C :   -0.073550
  20 C :   -0.104218
  21 H :    0.029381
  22 C :    0.018234
  23 H :    0.051090
  24 H :    0.021571
  25 C :   -0.099523
  26 H :    0.034234
  27 H :    0.049244
  28 C :   -0.026713
  29 H :    0.032841
  30 H :    0.020965
  31 H :    0.033226
  32 H :    0.052042
  33 H :    0.046035
Sum of atomic charges:   -0.0000000

LOEWDIN ATOMIC CHARGES
----------------------
   0 S :    0.423639
   1 C :   -0.201660
   2 C :   -0.058804
   3 C :   -0.069459
   4 C :   -0.199600
   5 H :    0.026858
   6 C :   -0.037359
   7 H :    0.036054
   8 H :    0.028545
   9 C :   -0.040640
  10 H :    0.030610
  11 H :    0.020246
  12 C :   -0.075940
  13 H :    0.030776
  14 H :    0.025145
  15 H :    0.023800
  16 S :    0.383358
  17 C :   -0.165278
  18 C :   -0.070085
  19 C :   -0.058783
  20 C :   -0.181484
  21 H :    0.034137
  22 C :   -0.035926
  23 H :    0.023894
  24 H :    0.037337
  25 C :   -0.044328
  26 H :    0.028606
  27 H :    0.027399
  28 C :   -0.066152
  29 H :    0.020868
  30 H :    0.019415
  31 H :    0.035593
  32 H :    0.031975
  33 H :    0.017243

  Mayer bond orders larger than 0.100000
B(  0-S ,  1-C ) :   1.1517 B(  0-S ,  4-C ) :   1.1634 B(  1-C ,  2-C ) :   1.5785
B(  1-C ,  4-C ) :   0.1067 B(  1-C , 32-H ) :   0.9688 B(  2-C ,  3-C ) :   1.2634
B(  2-C ,  6-C ) :   1.0083 B(  3-C ,  4-C ) :   1.5508 B(  3-C ,  5-H ) :   0.9992
B(  4-C , 20-C ) :   1.0407 B(  6-C ,  7-H ) :   0.9316 B(  6-C ,  8-H ) :   0.9401
B(  6-C ,  9-C ) :   1.0825 B(  9-C , 10-H ) :   0.9523 B(  9-C , 11-H ) :   0.9542
B(  9-C , 12-C ) :   1.0717 B( 12-C , 13-H ) :   0.9729 B( 12-C , 14-H ) :   0.9759
B( 12-C , 15-H ) :   0.9744 B( 16-S , 17-C ) :   1.1657 B( 16-S , 20-C ) :   1.1165
B( 17-C , 18-C ) :   1.5915 B( 17-C , 33-H ) :   0.9763 B( 18-C , 19-C ) :   1.2467
B( 18-C , 21-H ) :   0.9866 B( 19-C , 20-C ) :   1.6080 B( 19-C , 22-C ) :   1.0355
B( 22-C , 23-H ) :   0.9428 B( 22-C , 24-H ) :   0.9300 B( 22-C , 25-C ) :   1.0550
B( 25-C , 26-H ) :   0.9589 B( 25-C , 27-H ) :   0.9642 B( 25-C , 28-C ) :   1.0827
B( 28-C , 29-H ) :   0.9768 B( 28-C , 30-H ) :   0.9709 B( 28-C , 31-H ) :   0.9740

Dispersion correction           -0.015249501
FINAL SINGLE POINT ENERGY     -1339.873120267075

DIPOLE MOMENT
-------------
                                X             Y             Z
Electronic contribution:    -27.09461      14.16887      -7.69889
Nuclear contribution   :     27.55904     -14.46907       8.08606
                        -----------------------------------------
Total Dipole Moment    :      0.46444      -0.30020       0.38717
                        -----------------------------------------
Magnitude (a.u.)       :      0.67507
Magnitude (Debye)      :      1.71590

Rotational constants in cm-1:     0.018960     0.009856     0.007015
Rotational constants in MHz :   568.409668   295.483174   210.289577

                             ****ORCA TERMINATED NORMALLY****
TOTAL RUN TIME: 0 days 0 hours 0 minutes 36 seconds 10 msec
