                         Program Version 4.2.1 -  RELEASE  -
|  1> ! wB97X-D3 SP def2-SVP
|  2> %pal
|  3> nprocs 16
|  4> end
|  5>
|  6> * xyz 0 1
|  7> S 	 -69.2527 	 60.3903 	 127.949
|  8> C 	 -67.6745 	 61.1561 	 127.897
|  9> C 	 -67.5294 	 62.0652 	 126.902
| 10> C 	 -68.6518 	 62.0125 	 125.994
| 11> C 	 -69.6496 	 61.1942 	 126.456
| 12> H 	 -68.7151 	 62.6432 	 125.092
| 13> C 	 -66.2963 	 62.8748 	 126.607
| 14> H 	 -66.1614 	 62.6986 	 125.528
| 15> H 	 -65.4933 	 62.3981 	 127.041
| 16> C 	 -66.1171 	 64.3939 	 126.942
| 17> H 	 -65.3431 	 64.826 	 126.285
| 18> H 	 -66.9744 	 64.9183 	 126.638
| 19> C 	 -65.746 	 64.7067 	 128.406
| 20> H 	 -65.1754 	 63.8599 	 128.817
| 21> H 	 -65.1883 	 65.6347 	 128.349
| 22> H 	 -66.6383 	 64.8549 	 129.032
| 23> S 	 -72.3074 	 60.5595 	 126.79
| 24> C 	 -73.3234 	 60.3878 	 125.282
| 25> C 	 -72.6818 	 60.7169 	 124.17
| 26> C 	 -71.2626 	 60.9466 	 124.404
| 27> C 	 -70.8773 	 60.8578 	 125.771
| 28> H 	 -73.131 	 60.638 	 123.241
| 29> C 	 -70.312 	 61.2131 	 123.297
| 30> H 	 -70.4314 	 60.4736 	 122.592
| 31> H 	 -69.2653 	 61.0191 	 123.567
| 32> C 	 -70.4827 	 62.5416 	 122.63
| 33> H 	 -70.3433 	 63.2268 	 123.442
| 34> H 	 -71.4739 	 62.7464 	 122.225
| 35> C 	 -69.4783 	 62.845 	 121.442
| 36> H 	 -68.413 	 62.8498 	 121.727
| 37> H 	 -69.7156 	 63.7627 	 120.866
| 38> H 	 -69.5997 	 62.1344 	 120.586
| 39> H 	 -66.9031 	 60.9582 	 128.699
| 40> H 	 -74.4571 	 60.2511 	 125.369
| 41> *
| 42>
| 43>                          ****END OF INPUT****

CARTESIAN COORDINATES (ANGSTROEM)
---------------------------------
  S    -69.252700   60.390300  127.949000
  C    -67.674500   61.156100  127.897000
  C    -67.529400   62.065200  126.902000
  C    -68.651800   62.012500  125.994000
  C    -69.649600   61.194200  126.456000
  H    -68.715100   62.643200  125.092000
  C    -66.296300   62.874800  126.607000
  H    -66.161400   62.698600  125.528000
  H    -65.493300   62.398100  127.041000
  C    -66.117100   64.393900  126.942000
  H    -65.343100   64.826000  126.285000
  H    -66.974400   64.918300  126.638000
  C    -65.746000   64.706700  128.406000
  H    -65.175400   63.859900  128.817000
  H    -65.188300   65.634700  128.349000
  H    -66.638300   64.854900  129.032000
  S    -72.307400   60.559500  126.790000
  C    -73.323400   60.387800  125.282000
  C    -72.681800   60.716900  124.170000
  C    -71.262600   60.946600  124.404000
  C    -70.877300   60.857800  125.771000
  H    -73.131000   60.638000  123.241000
  C    -70.312000   61.213100  123.297000
  H    -70.431400   60.473600  122.592000
  H    -69.265300   61.019100  123.567000
  C    -70.482700   62.541600  122.630000
  H    -70.343300   63.226800  123.442000
  H    -71.473900   62.746400  122.225000
  C    -69.478300   62.845000  121.442000
  H    -68.413000   62.849800  121.727000
  H    -69.715600   63.762700  120.866000
  H    -69.599700   62.134400  120.586000
  H    -66.903100   60.958200  128.699000
  H    -74.457100   60.251100  125.369000

 Total Charge           Charge          ....    0
 Multiplicity           Mult            ....    1
 Number of Electrons    NEL             ....  134
 Basis Dimension        Dim             ....  322

ORBITAL ENERGIES
----------------

  NO   OCC          E(Eh)            E(eV)
   0   2.0000     -88.966687     -2420.9066
   1   2.0000     -88.961611     -2420.7685
   2   2.0000     -10.330593      -281.1097
   3   2.0000     -10.328320      -281.0479
   4   2.0000     -10.324098      -280.9330
   5   2.0000     -10.315462      -280.6980
   6   2.0000     -10.306750      -280.4609
   7   2.0000     -10.299789      -280.2715
   8   2.0000     -10.295532      -280.1557
   9   2.0000     -10.291259      -280.0394
  10   2.0000     -10.289288      -279.9858
  11   2.0000     -10.288790      -279.9722
  12   2.0000     -10.287607      -279.9400
  13   2.0000     -10.286892      -279.9206
  14   2.0000     -10.280456      -279.7454
  15   2.0000     -10.279796      -279.7275
  16   2.0000      -8.081802      -219.9170
  17   2.0000      -8.075271      -219.7393
  18   2.0000      -6.040340      -164.3660
  19   2.0000      -6.036493      -164.2613
  20   2.0000      -6.034033      -164.1944
  21   2.0000      -6.032270      -164.1464
  22   2.0000      -6.030154      -164.0888
  23   2.0000      -6.025613      -163.9653
  24   2.0000      -1.006583       -27.3905
  25   2.0000      -0.979409       -26.6511
  26   2.0000      -0.913604       -24.8604
  27   2.0000      -0.909624       -24.7521
  28   2.0000      -0.874039       -23.7838
  29   2.0000      -0.851821       -23.1792
  30   2.0000      -0.841165       -22.8893
  31   2.0000      -0.818007       -22.2591
  32   2.0000      -0.785180       -21.3658
  33   2.0000      -0.769782       -20.9468
  34   2.0000      -0.712571       -19.3900
  35   2.0000      -0.703726       -19.1494
  36   2.0000      -0.693673       -18.8758
  37   2.0000      -0.664212       -18.0741
  38   2.0000      -0.634856       -17.2753
  39   2.0000      -0.626101       -17.0371
  40   2.0000      -0.598662       -16.2904
  41   2.0000      -0.570409       -15.5216
  42   2.0000      -0.563016       -15.3204
  43   2.0000      -0.551303       -15.0017
  44   2.0000      -0.541444       -14.7334
  45   2.0000      -0.525521       -14.3001
  46   2.0000      -0.515551       -14.0289
  47   2.0000      -0.512046       -13.9335
  48   2.0000      -0.497152       -13.5282
  49   2.0000      -0.494518       -13.4565
  50   2.0000      -0.488307       -13.2875
  51   2.0000      -0.483819       -13.1654
  52   2.0000      -0.469808       -12.7841
  53   2.0000      -0.464975       -12.6526
  54   2.0000      -0.460162       -12.5216
  55   2.0000      -0.450034       -12.2460
  56   2.0000      -0.446507       -12.1501
  57   2.0000      -0.439283       -11.9535
  58   2.0000      -0.432222       -11.7614
  59   2.0000      -0.430487       -11.7142
  60   2.0000      -0.418197       -11.3797
  61   2.0000      -0.417005       -11.3473
  62   2.0000      -0.416185       -11.3250
  63   2.0000      -0.362325        -9.8594
  64   2.0000      -0.334076        -9.0907
  65   2.0000      -0.326693        -8.8898
  66   2.0000      -0.284189        -7.7332
  67   0.0000       0.023454         0.6382
  68   0.0000       0.077314         2.1038
  69   0.0000       0.094492         2.5713
  70   0.0000       0.113781         3.0961
  71   0.0000       0.130232         3.5438

MULLIKEN ATOMIC CHARGES
-----------------------
   0 S :    0.108906
   1 C :   -0.152807
   2 C :   -0.057097
   3 C :   -0.034355
   4 C :   -0.097827
   5 H :    0.020298
   6 C :    0.068654
   7 H :    0.024139
   8 H :   -0.007843
   9 C :   -0.046360
  10 H :    0.027343
  11 H :    0.011904
  12 C :   -0.051829
  13 H :    0.030485
  14 H :    0.038773
  15 H :    0.046995
  16 S :    0.059203
  17 C :   -0.106245
  18 C :    0.029850
  19 C :   -0.084238
  20 C :   -0.096327
  21 H :   -0.001121
  22 C :    0.095961
  23 H :   -0.008355
  24 H :    0.021487
  25 C :   -0.065190
  26 H :    0.020841
  27 H :    0.028674
  28 C :   -0.076190
  29 H :    0.040045
  30 H :    0.036713
  31 H :    0.028751
  32 H :    0.064085
  33 H :    0.082675
Sum of atomic charges:    0.0000000

LOEWDIN ATOMIC CHARGES
----------------------
   0 S :    0.400082
   1 C :   -0.198396
   2 C :   -0.065195
   3 C :   -0.064660
   4 C :   -0.190151
   5 H :    0.035822
   6 C :   -0.030783
   7 H :    0.037242
   8 H :    0.017072
   9 C :   -0.035867
  10 H :    0.028436
  11 H :    0.015697
  12 C :   -0.064541
  13 H :    0.025099
  14 H :    0.029126
  15 H :    0.030314
  16 S :    0.342781
  17 C :   -0.159130
  18 C :   -0.060483
  19 C :   -0.047767
  20 C :   -0.180479
  21 H :    0.025799
  22 C :   -0.039531
  23 H :    0.018709
  24 H :    0.034835
  25 C :   -0.035347
  26 H :    0.018405
  27 H :    0.025634
  28 C :   -0.077414
  29 H :    0.024667
  30 H :    0.030520
  31 H :    0.027942
  32 H :    0.037071
  33 H :    0.044491

  Mayer bond orders larger than 0.100000
B(  0-S ,  1-C ) :   1.1209 B(  0-S ,  4-C ) :   1.1369 B(  1-C ,  2-C ) :   1.6492
B(  1-C , 32-H ) :   0.9557 B(  2-C ,  3-C ) :   1.2133 B(  2-C ,  6-C ) :   1.0178
B(  3-C ,  4-C ) :   1.5917 B(  3-C ,  5-H ) :   0.9876 B(  4-C , 20-C ) :   1.0574
B(  6-C ,  7-H ) :   0.9368 B(  6-C ,  8-H ) :   0.9388 B(  6-C ,  9-C ) :   1.0678
B(  9-C , 10-H ) :   0.9588 B(  9-C , 11-H ) :   0.9552 B(  9-C , 12-C ) :   1.0661
B( 12-C , 13-H ) :   0.9791 B( 12-C , 14-H ) :   0.9761 B( 12-C , 15-H ) :   0.9782
B( 16-S , 17-C ) :   1.1112 B( 16-S , 20-C ) :   1.1100 B( 17-C , 18-C ) :   1.6733
B( 17-C , 33-H ) :   0.9533 B( 18-C , 19-C ) :   1.1948 B( 18-C , 21-H ) :   0.9981
B( 19-C , 20-C ) :   1.6205 B( 19-C , 22-C ) :   1.0568 B( 22-C , 23-H ) :   0.9135
B( 22-C , 24-H ) :   0.9334 B( 22-C , 25-C ) :   1.0524 B( 25-C , 26-H ) :   0.9543
B( 25-C , 27-H ) :   0.9545 B( 25-C , 28-C ) :   1.0742 B( 28-C , 29-H ) :   0.9772
B( 28-C , 30-H ) :   0.9755 B( 28-C , 31-H ) :   0.9735

Dispersion correction           -0.013965931
FINAL SINGLE POINT ENERGY     -1339.867162569107

DIPOLE MOMENT
-------------
                                X             Y             Z
Electronic contribution:    -18.21180     -18.41270      15.51778
Nuclear contribution   :     18.53519      18.82472     -16.13925
                        -----------------------------------------
Total Dipole Moment    :      0.32339       0.41202      -0.62147
                        -----------------------------------------
Magnitude (a.u.)       :      0.81275
Magnitude (Debye)      :      2.06585

Rotational constants in cm-1:     0.017579     0.008889     0.006381
Rotational constants in MHz :   527.008179   266.482072   191.298656

                             ****ORCA TERMINATED NORMALLY****
TOTAL RUN TIME: 0 days 0 hours 0 minutes 33 seconds 429 msec
