                         Program Version 4.2.1 -  RELEASE  -
|  1> ! wB97X-D3 SP def2-SVP
|  2> %pal
|  3> nprocs 16
|  4> end
|  5>
|  6> * xyz 0 1
|  7> S 	 20.4272 	 -0.219424 	 84.8223
|  8> C 	 21.7203 	 0.812924 	 84.5096
|  9> C 	 21.4201 	 2.15822 	 84.4695
| 10> C 	 20.0506 	 2.29804 	 84.5445
| 11> C 	 19.3409 	 1.17427 	 84.8742
| 12> H 	 19.6241 	 3.26427 	 84.5879
| 13> C 	 22.34 	 3.33135 	 84.211
| 14> H 	 23.1501 	 3.16044 	 84.8844
| 15> H 	 21.766 	 4.10256 	 84.6373
| 16> C 	 22.6867 	 3.62543 	 82.7629
| 17> H 	 23.0434 	 2.67768 	 82.3883
| 18> H 	 21.7039 	 3.59852 	 82.2495
| 19> C 	 23.5757 	 4.84171 	 82.3445
| 20> H 	 24.1152 	 4.66171 	 81.479
| 21> H 	 22.9132 	 5.60982 	 82.0878
| 22> H 	 24.203 	 5.0658 	 83.2528
| 23> S 	 17.3795 	 -0.589777 	 85.5776
| 24> C 	 15.8495 	 -0.06554 	 86.0939
| 25> C 	 15.6289 	 1.25664 	 85.8713
| 26> C 	 16.8348 	 1.93586 	 85.3862
| 27> C 	 17.9291 	 1.05895 	 85.2907
| 28> H 	 14.6713 	 1.78669 	 86.0133
| 29> C 	 16.8682 	 3.43621 	 85.0888
| 30> H 	 17.7459 	 3.91516 	 85.5964
| 31> H 	 15.942 	 3.72835 	 85.5466
| 32> C 	 16.8062 	 3.78391 	 83.6298
| 33> H 	 16.0017 	 3.23592 	 83.2419
| 34> H 	 17.6743 	 3.52773 	 83.0418
| 35> C 	 16.6227 	 5.279 	 83.4862
| 36> H 	 15.7729 	 5.67154 	 84.1163
| 37> H 	 16.5468 	 5.50156 	 82.4431
| 38> H 	 17.4592 	 5.75933 	 83.8609
| 39> H 	 22.7301 	 0.428754 	 84.4458
| 40> H 	 15.2236 	 -0.786236 	 86.4885
| 41> *
| 42>
| 43>                          ****END OF INPUT****

CARTESIAN COORDINATES (ANGSTROEM)
---------------------------------
  S     20.427200   -0.219424   84.822300
  C     21.720300    0.812924   84.509600
  C     21.420100    2.158220   84.469500
  C     20.050600    2.298040   84.544500
  C     19.340900    1.174270   84.874200
  H     19.624100    3.264270   84.587900
  C     22.340000    3.331350   84.211000
  H     23.150100    3.160440   84.884400
  H     21.766000    4.102560   84.637300
  C     22.686700    3.625430   82.762900
  H     23.043400    2.677680   82.388300
  H     21.703900    3.598520   82.249500
  C     23.575700    4.841710   82.344500
  H     24.115200    4.661710   81.479000
  H     22.913200    5.609820   82.087800
  H     24.203000    5.065800   83.252800
  S     17.379500   -0.589777   85.577600
  C     15.849500   -0.065540   86.093900
  C     15.628900    1.256640   85.871300
  C     16.834800    1.935860   85.386200
  C     17.929100    1.058950   85.290700
  H     14.671300    1.786690   86.013300
  C     16.868200    3.436210   85.088800
  H     17.745900    3.915160   85.596400
  H     15.942000    3.728350   85.546600
  C     16.806200    3.783910   83.629800
  H     16.001700    3.235920   83.241900
  H     17.674300    3.527730   83.041800
  C     16.622700    5.279000   83.486200
  H     15.772900    5.671540   84.116300
  H     16.546800    5.501560   82.443100
  H     17.459200    5.759330   83.860900
  H     22.730100    0.428754   84.445800
  H     15.223600   -0.786236   86.488500

 Total Charge           Charge          ....    0
 Multiplicity           Mult            ....    1
 Number of Electrons    NEL             ....  134
 Basis Dimension        Dim             ....  322

ORBITAL ENERGIES
----------------

  NO   OCC          E(Eh)            E(eV)
   0   2.0000     -88.968793     -2420.9639
   1   2.0000     -88.959364     -2420.7074
   2   2.0000     -10.329471      -281.0792
   3   2.0000     -10.328978      -281.0658
   4   2.0000     -10.308975      -280.5215
   5   2.0000     -10.307640      -280.4852
   6   2.0000     -10.305769      -280.4342
   7   2.0000     -10.298305      -280.2311
   8   2.0000     -10.292197      -280.0649
   9   2.0000     -10.291937      -280.0579
  10   2.0000     -10.286253      -279.9032
  11   2.0000     -10.285635      -279.8864
  12   2.0000     -10.283051      -279.8161
  13   2.0000     -10.279311      -279.7143
  14   2.0000     -10.275458      -279.6094
  15   2.0000     -10.271675      -279.5065
  16   2.0000      -8.084420      -219.9883
  17   2.0000      -8.075679      -219.7504
  18   2.0000      -6.042850      -164.4343
  19   2.0000      -6.038827      -164.3248
  20   2.0000      -6.035201      -164.2262
  21   2.0000      -6.034099      -164.1962
  22   2.0000      -6.030052      -164.0861
  23   2.0000      -6.026389      -163.9864
  24   2.0000      -1.013522       -27.5793
  25   2.0000      -0.991466       -26.9792
  26   2.0000      -0.919961       -25.0334
  27   2.0000      -0.914572       -24.8868
  28   2.0000      -0.868505       -23.6332
  29   2.0000      -0.860606       -23.4183
  30   2.0000      -0.850737       -23.1497
  31   2.0000      -0.817765       -22.2525
  32   2.0000      -0.787305       -21.4237
  33   2.0000      -0.774777       -21.0828
  34   2.0000      -0.710066       -19.3219
  35   2.0000      -0.706838       -19.2341
  36   2.0000      -0.693822       -18.8798
  37   2.0000      -0.671245       -18.2655
  38   2.0000      -0.640239       -17.4218
  39   2.0000      -0.628182       -17.0937
  40   2.0000      -0.602331       -16.3903
  41   2.0000      -0.574941       -15.6449
  42   2.0000      -0.566941       -15.4272
  43   2.0000      -0.554796       -15.0968
  44   2.0000      -0.535478       -14.5711
  45   2.0000      -0.528785       -14.3890
  46   2.0000      -0.519176       -14.1275
  47   2.0000      -0.511258       -13.9120
  48   2.0000      -0.510553       -13.8929
  49   2.0000      -0.498220       -13.5573
  50   2.0000      -0.494415       -13.4537
  51   2.0000      -0.483594       -13.1593
  52   2.0000      -0.476698       -12.9716
  53   2.0000      -0.465705       -12.6725
  54   2.0000      -0.461475       -12.5574
  55   2.0000      -0.454816       -12.3762
  56   2.0000      -0.450749       -12.2655
  57   2.0000      -0.445363       -12.1189
  58   2.0000      -0.436720       -11.8838
  59   2.0000      -0.427749       -11.6396
  60   2.0000      -0.423620       -11.5273
  61   2.0000      -0.411686       -11.2026
  62   2.0000      -0.406406       -11.0589
  63   2.0000      -0.365262        -9.9393
  64   2.0000      -0.341087        -9.2814
  65   2.0000      -0.326021        -8.8715
  66   2.0000      -0.277631        -7.5547
  67   0.0000       0.021327         0.5803
  68   0.0000       0.088004         2.3947
  69   0.0000       0.096259         2.6193
  70   0.0000       0.124602         3.3906
  71   0.0000       0.129509         3.5241

MULLIKEN ATOMIC CHARGES
-----------------------
   0 S :    0.122439
   1 C :   -0.116844
   2 C :   -0.138612
   3 C :   -0.006717
   4 C :   -0.089379
   5 H :   -0.025364
   6 C :    0.132575
   7 H :    0.015848
   8 H :   -0.004605
   9 C :   -0.078848
  10 H :    0.006354
  11 H :    0.014888
  12 C :    0.022594
  13 H :    0.025650
  14 H :    0.024592
  15 H :    0.047264
  16 S :    0.071198
  17 C :   -0.050945
  18 C :   -0.015373
  19 C :   -0.106052
  20 C :   -0.101092
  21 H :    0.028399
  22 C :    0.034265
  23 H :    0.045581
  24 H :    0.003697
  25 C :   -0.038642
  26 H :    0.011195
  27 H :    0.029515
  28 C :   -0.000323
  29 H :    0.028251
  30 H :    0.031003
  31 H :    0.002759
  32 H :    0.041849
  33 H :    0.032880
Sum of atomic charges:   -0.0000000

LOEWDIN ATOMIC CHARGES
----------------------
   0 S :    0.426697
   1 C :   -0.208339
   2 C :   -0.066783
   3 C :   -0.066684
   4 C :   -0.184873
   5 H :    0.020957
   6 C :   -0.025487
   7 H :    0.026604
   8 H :    0.020938
   9 C :   -0.047753
  10 H :    0.019239
  11 H :    0.027333
  12 C :   -0.052668
  13 H :    0.021359
  14 H :    0.022503
  15 H :    0.037953
  16 S :    0.407040
  17 C :   -0.181462
  18 C :   -0.076565
  19 C :   -0.057350
  20 C :   -0.184783
  21 H :    0.036789
  22 C :   -0.031665
  23 H :    0.033085
  24 H :    0.026874
  25 C :   -0.035758
  26 H :    0.018696
  27 H :    0.024436
  28 C :   -0.054722
  29 H :    0.029560
  30 H :    0.024379
  31 H :    0.012823
  32 H :    0.024250
  33 H :    0.013376

  Mayer bond orders larger than 0.100000
B(  0-S ,  1-C ) :   1.1719 B(  0-S ,  4-C ) :   1.1458 B(  1-C ,  2-C ) :   1.5788
B(  1-C , 32-H ) :   0.9644 B(  2-C ,  3-C ) :   1.3029 B(  2-C ,  6-C ) :   1.0106
B(  3-C ,  4-C ) :   1.5503 B(  3-C ,  5-H ) :   0.9883 B(  4-C , 20-C ) :   1.0813
B(  6-C ,  7-H ) :   0.9239 B(  6-C ,  8-H ) :   0.9276 B(  6-C ,  9-C ) :   1.0673
B(  9-C , 10-H ) :   0.9558 B(  9-C , 11-H ) :   0.9518 B(  9-C , 12-C ) :   1.0519
B( 12-C , 13-H ) :   0.9737 B( 12-C , 14-H ) :   0.9760 B( 12-C , 15-H ) :   0.9793
B( 16-S , 17-C ) :   1.1727 B( 16-S , 20-C ) :   1.1339 B( 17-C , 18-C ) :   1.5824
B( 17-C , 33-H ) :   0.9804 B( 18-C , 19-C ) :   1.2474 B( 18-C , 21-H ) :   0.9862
B( 19-C , 20-C ) :   1.5865 B( 19-C , 22-C ) :   1.0359 B( 22-C , 23-H ) :   0.9368
B( 22-C , 24-H ) :   0.9259 B( 22-C , 25-C ) :   1.0768 B( 25-C , 26-H ) :   0.9450
B( 25-C , 27-H ) :   0.9513 B( 25-C , 28-C ) :   1.0901 B( 28-C , 29-H ) :   0.9722
B( 28-C , 30-H ) :   0.9725 B( 28-C , 31-H ) :   0.9689

Dispersion correction           -0.013834393
FINAL SINGLE POINT ENERGY     -1339.863011435117

DIPOLE MOMENT
-------------
                                X             Y             Z
Electronic contribution:     -6.25138     -29.47616      11.81144
Nuclear contribution   :      6.28410      30.07352     -11.96409
                        -----------------------------------------
Total Dipole Moment    :      0.03272       0.59736      -0.15265
                        -----------------------------------------
Magnitude (a.u.)       :      0.61742
Magnitude (Debye)      :      1.56937

Rotational constants in cm-1:     0.018362     0.008936     0.006215
Rotational constants in MHz :   550.478919   267.907501   186.322018

                             ****ORCA TERMINATED NORMALLY****
TOTAL RUN TIME: 0 days 0 hours 0 minutes 35 seconds 84 msec
