                         Program Version 4.2.1 -  RELEASE  -
|  1> ! wB97X-D3 SP def2-SVP
|  2> %pal
|  3> nprocs 16
|  4> end
|  5>
|  6> * xyz 0 1
|  7> S 	 62.3077 	 18.5754 	 76.6984
|  8> C 	 61.4139 	 19.9138 	 77.5673
|  9> C 	 60.8496 	 19.3452 	 78.7151
| 10> C 	 61.3349 	 18.0325 	 79.0338
| 11> C 	 62.1855 	 17.4875 	 78.0789
| 12> H 	 61.0523 	 17.511 	 79.8971
| 13> C 	 59.7682 	 19.9676 	 79.5729
| 14> H 	 59.4925 	 20.8816 	 79.0932
| 15> H 	 60.0576 	 20.0327 	 80.6155
| 16> C 	 58.4202 	 19.1788 	 79.686
| 17> H 	 58.5493 	 18.1071 	 79.9555
| 18> H 	 57.8476 	 19.5488 	 80.5734
| 19> C 	 57.576 	 19.3421 	 78.3978
| 20> H 	 56.5982 	 18.962 	 78.579
| 21> H 	 57.3735 	 20.3718 	 78.1603
| 22> H 	 58.1704 	 18.9044 	 77.5806
| 23> S 	 64.3301 	 16.002 	 77.229
| 24> C 	 64.3008 	 14.2972 	 77.4736
| 25> C 	 63.279 	 13.8405 	 78.2672
| 26> C 	 62.395 	 14.9055 	 78.4874
| 27> C 	 62.7945 	 16.1482 	 78.0128
| 28> H 	 63.2776 	 12.7862 	 78.4849
| 29> C 	 61.1387 	 14.5954 	 79.2674
| 30> H 	 60.4982 	 15.3856 	 78.9317
| 31> H 	 61.3138 	 14.7942 	 80.3285
| 32> C 	 60.4671 	 13.2529 	 79.0399
| 33> H 	 61.0243 	 12.3513 	 79.276
| 34> H 	 60.2709 	 13.0704 	 77.9804
| 35> C 	 59.1896 	 13.1082 	 79.8627
| 36> H 	 58.6788 	 14.0112 	 80.126
| 37> H 	 59.4295 	 12.5896 	 80.7628
| 38> H 	 58.5433 	 12.4643 	 79.322
| 39> H 	 61.2047 	 20.8949 	 77.1179
| 40> H 	 65.1339 	 13.6653 	 77.2112
| 41> *
| 42>
| 43>                          ****END OF INPUT****

CARTESIAN COORDINATES (ANGSTROEM)
---------------------------------
  S     62.307700   18.575400   76.698400
  C     61.413900   19.913800   77.567300
  C     60.849600   19.345200   78.715100
  C     61.334900   18.032500   79.033800
  C     62.185500   17.487500   78.078900
  H     61.052300   17.511000   79.897100
  C     59.768200   19.967600   79.572900
  H     59.492500   20.881600   79.093200
  H     60.057600   20.032700   80.615500
  C     58.420200   19.178800   79.686000
  H     58.549300   18.107100   79.955500
  H     57.847600   19.548800   80.573400
  C     57.576000   19.342100   78.397800
  H     56.598200   18.962000   78.579000
  H     57.373500   20.371800   78.160300
  H     58.170400   18.904400   77.580600
  S     64.330100   16.002000   77.229000
  C     64.300800   14.297200   77.473600
  C     63.279000   13.840500   78.267200
  C     62.395000   14.905500   78.487400
  C     62.794500   16.148200   78.012800
  H     63.277600   12.786200   78.484900
  C     61.138700   14.595400   79.267400
  H     60.498200   15.385600   78.931700
  H     61.313800   14.794200   80.328500
  C     60.467100   13.252900   79.039900
  H     61.024300   12.351300   79.276000
  H     60.270900   13.070400   77.980400
  C     59.189600   13.108200   79.862700
  H     58.678800   14.011200   80.126000
  H     59.429500   12.589600   80.762800
  H     58.543300   12.464300   79.322000
  H     61.204700   20.894900   77.117900
  H     65.133900   13.665300   77.211200

 Total Charge           Charge          ....    0
 Multiplicity           Mult            ....    1
 Number of Electrons    NEL             ....  134
 Basis Dimension        Dim             ....  322

ORBITAL ENERGIES
----------------

  NO   OCC          E(Eh)            E(eV)
   0   2.0000     -88.966617     -2420.9047
   1   2.0000     -88.964312     -2420.8420
   2   2.0000     -10.336842      -281.2798
   3   2.0000     -10.325933      -280.9829
   4   2.0000     -10.324502      -280.9440
   5   2.0000     -10.312520      -280.6179
   6   2.0000     -10.306598      -280.4568
   7   2.0000     -10.301695      -280.3234
   8   2.0000     -10.293749      -280.1071
   9   2.0000     -10.291639      -280.0497
  10   2.0000     -10.290999      -280.0323
  11   2.0000     -10.289476      -279.9909
  12   2.0000     -10.287061      -279.9252
  13   2.0000     -10.284727      -279.8616
  14   2.0000     -10.273529      -279.5569
  15   2.0000     -10.269422      -279.4452
  16   2.0000      -8.082286      -219.9302
  17   2.0000      -8.077762      -219.8071
  18   2.0000      -6.040588      -164.3728
  19   2.0000      -6.036709      -164.2672
  20   2.0000      -6.036496      -164.2614
  21   2.0000      -6.033146      -164.1702
  22   2.0000      -6.032539      -164.1537
  23   2.0000      -6.028251      -164.0370
  24   2.0000      -1.010620       -27.5004
  25   2.0000      -0.980662       -26.6852
  26   2.0000      -0.914677       -24.8896
  27   2.0000      -0.908618       -24.7248
  28   2.0000      -0.868181       -23.6244
  29   2.0000      -0.858422       -23.3588
  30   2.0000      -0.839830       -22.8529
  31   2.0000      -0.816762       -22.2252
  32   2.0000      -0.783922       -21.3316
  33   2.0000      -0.773255       -21.0413
  34   2.0000      -0.711946       -19.3730
  35   2.0000      -0.702872       -19.1261
  36   2.0000      -0.693114       -18.8606
  37   2.0000      -0.657741       -17.8980
  38   2.0000      -0.638323       -17.3697
  39   2.0000      -0.627024       -17.0622
  40   2.0000      -0.599240       -16.3061
  41   2.0000      -0.569962       -15.5094
  42   2.0000      -0.568177       -15.4609
  43   2.0000      -0.559849       -15.2343
  44   2.0000      -0.537794       -14.6341
  45   2.0000      -0.531638       -14.4666
  46   2.0000      -0.520949       -14.1757
  47   2.0000      -0.516503       -14.0548
  48   2.0000      -0.505080       -13.7439
  49   2.0000      -0.496866       -13.5204
  50   2.0000      -0.485872       -13.2213
  51   2.0000      -0.480288       -13.0693
  52   2.0000      -0.471709       -12.8359
  53   2.0000      -0.468068       -12.7368
  54   2.0000      -0.458455       -12.4752
  55   2.0000      -0.453828       -12.3493
  56   2.0000      -0.447496       -12.1770
  57   2.0000      -0.437873       -11.9151
  58   2.0000      -0.434775       -11.8308
  59   2.0000      -0.421411       -11.4672
  60   2.0000      -0.419115       -11.4047
  61   2.0000      -0.412271       -11.2185
  62   2.0000      -0.410504       -11.1704
  63   2.0000      -0.351930        -9.5765
  64   2.0000      -0.333979        -9.0880
  65   2.0000      -0.326079        -8.8731
  66   2.0000      -0.288368        -7.8469
  67   0.0000       0.022740         0.6188
  68   0.0000       0.077848         2.1184
  69   0.0000       0.098509         2.6806
  70   0.0000       0.116802         3.1783
  71   0.0000       0.131284         3.5724

MULLIKEN ATOMIC CHARGES
-----------------------
   0 S :    0.079982
   1 C :   -0.133943
   2 C :   -0.088901
   3 C :    0.024251
   4 C :   -0.109060
   5 H :   -0.011531
   6 C :    0.099485
   7 H :    0.006723
   8 H :    0.036323
   9 C :   -0.129501
  10 H :    0.032302
  11 H :    0.029715
  12 C :   -0.031704
  13 H :    0.027757
  14 H :    0.017593
  15 H :    0.053555
  16 S :    0.118520
  17 C :   -0.087037
  18 C :   -0.037797
  19 C :   -0.056236
  20 C :   -0.134769
  21 H :    0.023263
  22 C :    0.078259
  23 H :    0.017544
  24 H :    0.044373
  25 C :   -0.094560
  26 H :    0.021246
  27 H :    0.028437
  28 C :   -0.004525
  29 H :    0.024705
  30 H :    0.022496
  31 H :    0.020275
  32 H :    0.064510
  33 H :    0.048247
Sum of atomic charges:    0.0000000

LOEWDIN ATOMIC CHARGES
----------------------
   0 S :    0.364485
   1 C :   -0.184618
   2 C :   -0.057724
   3 C :   -0.067620
   4 C :   -0.173761
   5 H :    0.019882
   6 C :   -0.027265
   7 H :    0.025014
   8 H :    0.033825
   9 C :   -0.043614
  10 H :    0.021702
  11 H :    0.024993
  12 C :   -0.064483
  13 H :    0.022609
  14 H :    0.020409
  15 H :    0.033922
  16 S :    0.430539
  17 C :   -0.181319
  18 C :   -0.072019
  19 C :   -0.051055
  20 C :   -0.216243
  21 H :    0.037157
  22 C :   -0.035237
  23 H :    0.029510
  24 H :    0.033901
  25 C :   -0.043494
  26 H :    0.022028
  27 H :    0.025648
  28 C :   -0.054084
  29 H :    0.020880
  30 H :    0.022868
  31 H :    0.024548
  32 H :    0.034982
  33 H :    0.023632

  Mayer bond orders larger than 0.100000
B(  0-S ,  1-C ) :   1.1038 B(  0-S ,  4-C ) :   1.1527 B(  1-C ,  2-C ) :   1.6056
B(  1-C , 32-H ) :   0.9690 B(  2-C ,  3-C ) :   1.2192 B(  2-C ,  6-C ) :   1.0432
B(  3-C ,  4-C ) :   1.5641 B(  3-C ,  5-H ) :   1.0046 B(  4-C , 20-C ) :   1.0491
B(  6-C ,  7-H ) :   0.9414 B(  6-C ,  8-H ) :   0.9372 B(  6-C ,  9-C ) :   1.0632
B(  9-C , 10-H ) :   0.9549 B(  9-C , 11-H ) :   0.9575 B(  9-C , 12-C ) :   1.0726
B( 12-C , 13-H ) :   0.9730 B( 12-C , 14-H ) :   0.9732 B( 12-C , 15-H ) :   0.9783
B( 16-S , 17-C ) :   1.1826 B( 16-S , 20-C ) :   1.1402 B( 17-C , 18-C ) :   1.5971
B( 17-C , 33-H ) :   0.9613 B( 18-C , 19-C ) :   1.2477 B( 18-C , 21-H ) :   0.9971
B( 19-C , 20-C ) :   1.5792 B( 19-C , 22-C ) :   1.0329 B( 22-C , 23-H ) :   0.9231
B( 22-C , 24-H ) :   0.9295 B( 22-C , 25-C ) :   1.0739 B( 25-C , 26-H ) :   0.9482
B( 25-C , 27-H ) :   0.9612 B( 25-C , 28-C ) :   1.0788 B( 28-C , 29-H ) :   0.9770
B( 28-C , 30-H ) :   0.9776 B( 28-C , 31-H ) :   0.9725

Dispersion correction           -0.014027197
FINAL SINGLE POINT ENERGY     -1339.870845953950

DIPOLE MOMENT
-------------
                                X             Y             Z
Electronic contribution:     27.44739       5.61032     -13.81718
Nuclear contribution   :    -27.98439      -5.97511      14.29245
                        -----------------------------------------
Total Dipole Moment    :     -0.53700      -0.36479       0.47528
                        -----------------------------------------
Magnitude (a.u.)       :      0.80457
Magnitude (Debye)      :      2.04505

Rotational constants in cm-1:     0.016591     0.009819     0.006572
Rotational constants in MHz :   497.383797   294.374367   197.024640

                             ****ORCA TERMINATED NORMALLY****
TOTAL RUN TIME: 0 days 0 hours 0 minutes 31 seconds 741 msec
