                         Program Version 4.2.1 -  RELEASE  -
|  1> ! wB97X-D3 SP def2-SVP
|  2> %pal
|  3> nprocs 16
|  4> end
|  5>
|  6> * xyz 0 1
|  7> S 	 2.02492 	 -14.971 	 82.1381
|  8> C 	 0.291645 	 -14.9155 	 82.3905
|  9> C 	 0.0315849 	 -14.808 	 83.7482
| 10> C 	 1.18808 	 -14.4393 	 84.4995
| 11> C 	 2.36671 	 -14.399 	 83.7652
| 12> H 	 1.15826 	 -14.1617 	 85.5136
| 13> C 	 -1.42081 	 -14.712 	 84.3814
| 14> H 	 -1.95334 	 -13.897 	 83.91
| 15> H 	 -1.34976 	 -14.2426 	 85.3443
| 16> C 	 -2.30648 	 -15.9567 	 84.4773
| 17> H 	 -3.02482 	 -15.7703 	 85.3305
| 18> H 	 -2.80644 	 -16.0963 	 83.5513
| 19> C 	 -1.48591 	 -17.2482 	 84.6569
| 20> H 	 -0.80186 	 -17.4725 	 83.8996
| 21> H 	 -0.958351 	 -17.1604 	 85.6468
| 22> H 	 -2.15269 	 -18.0601 	 84.7804
| 23> S 	 4.2533 	 -12.5785 	 83.4407
| 24> C 	 5.50809 	 -12.158 	 84.5433
| 25> C 	 5.34561 	 -13.015 	 85.5714
| 26> C 	 4.33946 	 -14.0869 	 85.4639
| 27> C 	 3.69353 	 -13.9428 	 84.2313
| 28> H 	 5.94682 	 -12.9178 	 86.4537
| 29> C 	 4.15848 	 -15.0766 	 86.6435
| 30> H 	 4.94474 	 -15.7576 	 86.7022
| 31> H 	 3.31703 	 -15.6796 	 86.2967
| 32> C 	 3.95621 	 -14.4656 	 88.0226
| 33> H 	 3.1978 	 -13.6879 	 87.8274
| 34> H 	 4.97547 	 -14.1164 	 88.1861
| 35> C 	 3.54203 	 -15.5065 	 89.0761
| 36> H 	 4.12259 	 -16.4592 	 88.9484
| 37> H 	 2.54628 	 -15.8064 	 88.9749
| 38> H 	 3.72364 	 -15.1914 	 90.0886
| 39> H 	 -0.549844 	 -15.1426 	 81.708
| 40> H 	 6.22276 	 -11.3363 	 84.5827
| 41> *
| 42>
| 43>                          ****END OF INPUT****

CARTESIAN COORDINATES (ANGSTROEM)
---------------------------------
  S      2.024920  -14.971000   82.138100
  C      0.291645  -14.915500   82.390500
  C      0.031585  -14.808000   83.748200
  C      1.188080  -14.439300   84.499500
  C      2.366710  -14.399000   83.765200
  H      1.158260  -14.161700   85.513600
  C     -1.420810  -14.712000   84.381400
  H     -1.953340  -13.897000   83.910000
  H     -1.349760  -14.242600   85.344300
  C     -2.306480  -15.956700   84.477300
  H     -3.024820  -15.770300   85.330500
  H     -2.806440  -16.096300   83.551300
  C     -1.485910  -17.248200   84.656900
  H     -0.801860  -17.472500   83.899600
  H     -0.958351  -17.160400   85.646800
  H     -2.152690  -18.060100   84.780400
  S      4.253300  -12.578500   83.440700
  C      5.508090  -12.158000   84.543300
  C      5.345610  -13.015000   85.571400
  C      4.339460  -14.086900   85.463900
  C      3.693530  -13.942800   84.231300
  H      5.946820  -12.917800   86.453700
  C      4.158480  -15.076600   86.643500
  H      4.944740  -15.757600   86.702200
  H      3.317030  -15.679600   86.296700
  C      3.956210  -14.465600   88.022600
  H      3.197800  -13.687900   87.827400
  H      4.975470  -14.116400   88.186100
  C      3.542030  -15.506500   89.076100
  H      4.122590  -16.459200   88.948400
  H      2.546280  -15.806400   88.974900
  H      3.723640  -15.191400   90.088600
  H     -0.549844  -15.142600   81.708000
  H      6.222760  -11.336300   84.582700

 Total Charge           Charge          ....    0
 Multiplicity           Mult            ....    1
 Number of Electrons    NEL             ....  134
 Basis Dimension        Dim             ....  322

ORBITAL ENERGIES
----------------

  NO   OCC          E(Eh)            E(eV)
   0   2.0000     -88.968514     -2420.9563
   1   2.0000     -88.960518     -2420.7388
   2   2.0000     -10.333887      -281.1994
   3   2.0000     -10.328268      -281.0464
   4   2.0000     -10.317707      -280.7591
   5   2.0000     -10.314394      -280.6689
   6   2.0000     -10.309003      -280.5222
   7   2.0000     -10.304476      -280.3990
   8   2.0000     -10.292303      -280.0678
   9   2.0000     -10.290964      -280.0314
  10   2.0000     -10.290538      -280.0198
  11   2.0000     -10.288782      -279.9720
  12   2.0000     -10.288518      -279.9648
  13   2.0000     -10.287022      -279.9241
  14   2.0000     -10.279910      -279.7306
  15   2.0000     -10.269812      -279.4558
  16   2.0000      -8.082713      -219.9418
  17   2.0000      -8.077392      -219.7970
  18   2.0000      -6.041277      -164.3915
  19   2.0000      -6.037283      -164.2828
  20   2.0000      -6.035910      -164.2455
  21   2.0000      -6.033430      -164.1780
  22   2.0000      -6.031334      -164.1210
  23   2.0000      -6.028167      -164.0348
  24   2.0000      -1.015014       -27.6199
  25   2.0000      -0.987854       -26.8809
  26   2.0000      -0.914168       -24.8758
  27   2.0000      -0.906575       -24.6692
  28   2.0000      -0.873457       -23.7680
  29   2.0000      -0.847954       -23.0740
  30   2.0000      -0.841976       -22.9113
  31   2.0000      -0.816853       -22.2277
  32   2.0000      -0.785461       -21.3735
  33   2.0000      -0.779297       -21.2058
  34   2.0000      -0.707436       -19.2503
  35   2.0000      -0.699197       -19.0261
  36   2.0000      -0.696499       -18.9527
  37   2.0000      -0.657556       -17.8930
  38   2.0000      -0.635425       -17.2908
  39   2.0000      -0.617529       -16.8038
  40   2.0000      -0.597077       -16.2473
  41   2.0000      -0.578673       -15.7465
  42   2.0000      -0.577180       -15.7059
  43   2.0000      -0.555165       -15.1068
  44   2.0000      -0.544310       -14.8114
  45   2.0000      -0.524847       -14.2818
  46   2.0000      -0.517056       -14.0698
  47   2.0000      -0.513089       -13.9619
  48   2.0000      -0.501226       -13.6390
  49   2.0000      -0.496623       -13.5138
  50   2.0000      -0.491548       -13.3757
  51   2.0000      -0.483602       -13.1595
  52   2.0000      -0.473446       -12.8831
  53   2.0000      -0.468479       -12.7480
  54   2.0000      -0.462761       -12.5924
  55   2.0000      -0.448604       -12.2071
  56   2.0000      -0.446180       -12.1412
  57   2.0000      -0.436233       -11.8705
  58   2.0000      -0.430927       -11.7261
  59   2.0000      -0.421438       -11.4679
  60   2.0000      -0.417156       -11.3514
  61   2.0000      -0.410342       -11.1660
  62   2.0000      -0.407993       -11.1020
  63   2.0000      -0.350541        -9.5387
  64   2.0000      -0.331508        -9.0208
  65   2.0000      -0.321440        -8.7468
  66   2.0000      -0.302114        -8.2209
  67   0.0000       0.030773         0.8374
  68   0.0000       0.072458         1.9717
  69   0.0000       0.115867         3.1529
  70   0.0000       0.121177         3.2974
  71   0.0000       0.127272         3.4632

MULLIKEN ATOMIC CHARGES
-----------------------
   0 S :    0.120749
   1 C :   -0.117305
   2 C :   -0.107799
   3 C :    0.056244
   4 C :   -0.163053
   5 H :   -0.009766
   6 C :    0.051736
   7 H :    0.029679
   8 H :    0.004007
   9 C :   -0.074615
  10 H :    0.044163
  11 H :    0.022469
  12 C :   -0.029356
  13 H :    0.038154
  14 H :    0.024118
  15 H :    0.021503
  16 S :    0.105969
  17 C :   -0.066229
  18 C :   -0.062854
  19 C :   -0.070803
  20 C :   -0.117971
  21 H :    0.007700
  22 C :    0.082369
  23 H :    0.015169
  24 H :    0.012437
  25 C :   -0.089682
  26 H :    0.044118
  27 H :    0.035591
  28 C :   -0.013408
  29 H :    0.025744
  30 H :    0.022033
  31 H :    0.035348
  32 H :    0.061961
  33 H :    0.061580
Sum of atomic charges:   -0.0000000

LOEWDIN ATOMIC CHARGES
----------------------
   0 S :    0.406925
   1 C :   -0.203899
   2 C :   -0.062638
   3 C :   -0.056396
   4 C :   -0.195558
   5 H :    0.022234
   6 C :   -0.038190
   7 H :    0.032906
   8 H :    0.025022
   9 C :   -0.040098
  10 H :    0.035755
  11 H :    0.016098
  12 C :   -0.059314
  13 H :    0.019090
  14 H :    0.029050
  15 H :    0.019405
  16 S :    0.456437
  17 C :   -0.201552
  18 C :   -0.075347
  19 C :   -0.056822
  20 C :   -0.225207
  21 H :    0.020076
  22 C :   -0.030775
  23 H :    0.020642
  24 H :    0.025567
  25 C :   -0.038180
  26 H :    0.029342
  27 H :    0.026051
  28 C :   -0.059600
  29 H :    0.032292
  30 H :    0.018926
  31 H :    0.025735
  32 H :    0.039679
  33 H :    0.042344

  Mayer bond orders larger than 0.100000
B(  0-S ,  1-C ) :   1.1422 B(  0-S ,  4-C ) :   1.1521 B(  1-C ,  2-C ) :   1.6020
B(  1-C , 32-H ) :   0.9643 B(  2-C ,  3-C ) :   1.2617 B(  2-C ,  6-C ) :   1.0057
B(  3-C ,  4-C ) :   1.5649 B(  3-C ,  5-H ) :   1.0003 B(  4-C , 20-C ) :   0.9952
B(  6-C ,  7-H ) :   0.9461 B(  6-C ,  8-H ) :   0.9440 B(  6-C ,  9-C ) :   1.0627
B(  9-C , 10-H ) :   0.9576 B(  9-C , 11-H ) :   0.9558 B(  9-C , 12-C ) :   1.0986
B( 12-C , 13-H ) :   0.9661 B( 12-C , 14-H ) :   0.9767 B( 12-C , 15-H ) :   0.9735
B( 16-S , 17-C ) :   1.1463 B( 16-S , 20-C ) :   1.1880 B( 17-C , 18-C ) :   1.6057
B( 17-C , 33-H ) :   0.9707 B( 18-C , 19-C ) :   1.2536 B( 18-C , 21-H ) :   0.9872
B( 19-C , 20-C ) :   1.5636 B( 19-C , 22-C ) :   1.0328 B( 22-C , 23-H ) :   0.9322
B( 22-C , 24-H ) :   0.9358 B( 22-C , 25-C ) :   1.0468 B( 25-C , 26-H ) :   0.9634
B( 25-C , 27-H ) :   0.9515 B( 25-C , 28-C ) :   1.0860 B( 28-C , 29-H ) :   0.9694
B( 28-C , 30-H ) :   0.9745 B( 28-C , 31-H ) :   0.9754

Dispersion correction           -0.014055772
FINAL SINGLE POINT ENERGY     -1339.850980849796

DIPOLE MOMENT
-------------
                                X             Y             Z
Electronic contribution:     13.86615      12.15163     -23.17850
Nuclear contribution   :    -14.16824     -12.17768      23.91240
                        -----------------------------------------
Total Dipole Moment    :     -0.30209      -0.02606       0.73390
                        -----------------------------------------
Magnitude (a.u.)       :      0.79407
Magnitude (Debye)      :      2.01837

Rotational constants in cm-1:     0.017235     0.009021     0.006446
Rotational constants in MHz :   516.701344   270.454322   193.247679

                             ****ORCA TERMINATED NORMALLY****
TOTAL RUN TIME: 0 days 0 hours 0 minutes 33 seconds 746 msec
