                         Program Version 4.2.1 -  RELEASE  -
|  1> ! wB97X-D3 SP def2-SVP
|  2> %pal
|  3> nprocs 16
|  4> end
|  5>
|  6> * xyz 0 1
|  7> S 	 12.8723 	 -14.4924 	 77.4568
|  8> C 	 12.9404 	 -16.1209 	 78.082
|  9> C 	 11.7294 	 -16.5646 	 78.6343
| 10> C 	 10.6379 	 -15.6711 	 78.3358
| 11> C 	 11.1082 	 -14.664 	 77.5186
| 12> H 	 9.64438 	 -15.7247 	 78.6249
| 13> C 	 11.5697 	 -17.933 	 79.3403
| 14> H 	 12.6189 	 -18.2991 	 79.4348
| 15> H 	 11.0675 	 -18.5319 	 78.6333
| 16> C 	 10.8616 	 -17.8463 	 80.7061
| 17> H 	 11.3661 	 -17.0385 	 81.2094
| 18> H 	 9.82823 	 -17.5513 	 80.5102
| 19> C 	 10.9927 	 -19.1388 	 81.5109
| 20> H 	 12.0342 	 -19.4394 	 81.665
| 21> H 	 10.5609 	 -19.1056 	 82.4647
| 22> H 	 10.4696 	 -19.9135 	 80.9329
| 23> S 	 10.5356 	 -12.0182 	 77.396
| 24> C 	 9.18328 	 -11.3961 	 76.467
| 25> C 	 8.62587 	 -12.433 	 75.7435
| 26> C 	 9.2483 	 -13.7221 	 75.9071
| 27> C 	 10.3488 	 -13.6398 	 76.8023
| 28> H 	 7.81032 	 -12.1483 	 75.05
| 29> C 	 8.63239 	 -14.8925 	 75.2719
| 30> H 	 7.57009 	 -14.7593 	 75.4266
| 31> H 	 8.9316 	 -15.8006 	 75.8655
| 32> C 	 9.05599 	 -14.8199 	 73.7424
| 33> H 	 10.165 	 -14.6802 	 73.8393
| 34> H 	 8.61501 	 -13.9325 	 73.3201
| 35> C 	 8.82121 	 -16.2247 	 73.1539
| 36> H 	 9.23788 	 -16.9316 	 73.8591
| 37> H 	 9.26365 	 -16.3716 	 72.1931
| 38> H 	 7.73134 	 -16.4423 	 73.0052
| 39> H 	 13.9316 	 -16.6147 	 78.1735
| 40> H 	 8.87443 	 -10.3889 	 76.2986
| 41> *
| 42>
| 43>                          ****END OF INPUT****

CARTESIAN COORDINATES (ANGSTROEM)
---------------------------------
  S     12.872300  -14.492400   77.456800
  C     12.940400  -16.120900   78.082000
  C     11.729400  -16.564600   78.634300
  C     10.637900  -15.671100   78.335800
  C     11.108200  -14.664000   77.518600
  H      9.644380  -15.724700   78.624900
  C     11.569700  -17.933000   79.340300
  H     12.618900  -18.299100   79.434800
  H     11.067500  -18.531900   78.633300
  C     10.861600  -17.846300   80.706100
  H     11.366100  -17.038500   81.209400
  H      9.828230  -17.551300   80.510200
  C     10.992700  -19.138800   81.510900
  H     12.034200  -19.439400   81.665000
  H     10.560900  -19.105600   82.464700
  H     10.469600  -19.913500   80.932900
  S     10.535600  -12.018200   77.396000
  C      9.183280  -11.396100   76.467000
  C      8.625870  -12.433000   75.743500
  C      9.248300  -13.722100   75.907100
  C     10.348800  -13.639800   76.802300
  H      7.810320  -12.148300   75.050000
  C      8.632390  -14.892500   75.271900
  H      7.570090  -14.759300   75.426600
  H      8.931600  -15.800600   75.865500
  C      9.055990  -14.819900   73.742400
  H     10.165000  -14.680200   73.839300
  H      8.615010  -13.932500   73.320100
  C      8.821210  -16.224700   73.153900
  H      9.237880  -16.931600   73.859100
  H      9.263650  -16.371600   72.193100
  H      7.731340  -16.442300   73.005200
  H     13.931600  -16.614700   78.173500
  H      8.874430  -10.388900   76.298600

 Total Charge           Charge          ....    0
 Multiplicity           Mult            ....    1
 Number of Electrons    NEL             ....  134
 Basis Dimension        Dim             ....  322

ORBITAL ENERGIES
----------------

  NO   OCC          E(Eh)            E(eV)
   0   2.0000     -88.964871     -2420.8572
   1   2.0000     -88.961488     -2420.7652
   2   2.0000     -10.330384      -281.1040
   3   2.0000     -10.323185      -280.9082
   4   2.0000     -10.315571      -280.7010
   5   2.0000     -10.313129      -280.6345
   6   2.0000     -10.306299      -280.4487
   7   2.0000     -10.302088      -280.3341
   8   2.0000     -10.295536      -280.1558
   9   2.0000     -10.292499      -280.0731
  10   2.0000     -10.292125      -280.0630
  11   2.0000     -10.292067      -280.0614
  12   2.0000     -10.289163      -279.9824
  13   2.0000     -10.287829      -279.9461
  14   2.0000     -10.277256      -279.6584
  15   2.0000     -10.277148      -279.6554
  16   2.0000      -8.079834      -219.8635
  17   2.0000      -8.076238      -219.7656
  18   2.0000      -6.038099      -164.3050
  19   2.0000      -6.034872      -164.2172
  20   2.0000      -6.034800      -164.2153
  21   2.0000      -6.030570      -164.1002
  22   2.0000      -6.030340      -164.0939
  23   2.0000      -6.027042      -164.0041
  24   2.0000      -1.003764       -27.3138
  25   2.0000      -0.979760       -26.6606
  26   2.0000      -0.911538       -24.8042
  27   2.0000      -0.908627       -24.7250
  28   2.0000      -0.865825       -23.5603
  29   2.0000      -0.852401       -23.1950
  30   2.0000      -0.844355       -22.9761
  31   2.0000      -0.815169       -22.1819
  32   2.0000      -0.778369       -21.1805
  33   2.0000      -0.762940       -20.7606
  34   2.0000      -0.709489       -19.3062
  35   2.0000      -0.700309       -19.0564
  36   2.0000      -0.688248       -18.7282
  37   2.0000      -0.656848       -17.8737
  38   2.0000      -0.644541       -17.5389
  39   2.0000      -0.620787       -16.8925
  40   2.0000      -0.588697       -16.0193
  41   2.0000      -0.576248       -15.6805
  42   2.0000      -0.564023       -15.3478
  43   2.0000      -0.554439       -15.0871
  44   2.0000      -0.526533       -14.3277
  45   2.0000      -0.521798       -14.1988
  46   2.0000      -0.516021       -14.0416
  47   2.0000      -0.511555       -13.9201
  48   2.0000      -0.503810       -13.7094
  49   2.0000      -0.499563       -13.5938
  50   2.0000      -0.489740       -13.3265
  51   2.0000      -0.478136       -13.0107
  52   2.0000      -0.475611       -12.9420
  53   2.0000      -0.464818       -12.6483
  54   2.0000      -0.456037       -12.4094
  55   2.0000      -0.452495       -12.3130
  56   2.0000      -0.442687       -12.0461
  57   2.0000      -0.434529       -11.8241
  58   2.0000      -0.431908       -11.7528
  59   2.0000      -0.428264       -11.6536
  60   2.0000      -0.420484       -11.4420
  61   2.0000      -0.417644       -11.3647
  62   2.0000      -0.414670       -11.2837
  63   2.0000      -0.341328        -9.2880
  64   2.0000      -0.331126        -9.0104
  65   2.0000      -0.318854        -8.6765
  66   2.0000      -0.289659        -7.8820
  67   0.0000       0.032041         0.8719
  68   0.0000       0.062070         1.6890
  69   0.0000       0.102245         2.7822
  70   0.0000       0.121357         3.3023
  71   0.0000       0.133926         3.6443

MULLIKEN ATOMIC CHARGES
-----------------------
   0 S :    0.107636
   1 C :   -0.132855
   2 C :   -0.106062
   3 C :    0.075236
   4 C :   -0.174527
   5 H :   -0.003993
   6 C :    0.072863
   7 H :    0.018033
   8 H :    0.030066
   9 C :   -0.092518
  10 H :    0.032859
  11 H :    0.035267
  12 C :   -0.012533
  13 H :    0.030616
  14 H :    0.026410
  15 H :    0.027259
  16 S :    0.097639
  17 C :   -0.078295
  18 C :   -0.073977
  19 C :   -0.056362
  20 C :   -0.143658
  21 H :    0.031464
  22 C :    0.050548
  23 H :    0.030209
  24 H :    0.032006
  25 C :   -0.094891
  26 H :    0.050059
  27 H :    0.036574
  28 C :   -0.012486
  29 H :    0.031276
  30 H :    0.028988
  31 H :    0.031503
  32 H :    0.058875
  33 H :    0.046774
Sum of atomic charges:   -0.0000000

LOEWDIN ATOMIC CHARGES
----------------------
   0 S :    0.391502
   1 C :   -0.206882
   2 C :   -0.056171
   3 C :   -0.049009
   4 C :   -0.174642
   5 H :    0.024024
   6 C :   -0.025281
   7 H :    0.031402
   8 H :    0.022580
   9 C :   -0.038980
  10 H :    0.024514
  11 H :    0.024095
  12 C :   -0.059450
  13 H :    0.027783
  14 H :    0.019290
  15 H :    0.028081
  16 S :    0.406458
  17 C :   -0.188464
  18 C :   -0.078983
  19 C :   -0.057249
  20 C :   -0.219116
  21 H :    0.034312
  22 C :   -0.037245
  23 H :    0.029263
  24 H :    0.033634
  25 C :   -0.030075
  26 H :    0.035409
  27 H :    0.021980
  28 C :   -0.064983
  29 H :    0.027198
  30 H :    0.019086
  31 H :    0.028703
  32 H :    0.029145
  33 H :    0.028072

  Mayer bond orders larger than 0.100000
B(  0-S ,  1-C ) :   1.1280 B(  0-S ,  4-C ) :   1.1533 B(  1-C ,  2-C ) :   1.6354
B(  1-C , 32-H ) :   0.9635 B(  2-C ,  3-C ) :   1.1835 B(  2-C ,  6-C ) :   1.0163
B(  3-C ,  4-C ) :   1.6015 B(  3-C ,  5-H ) :   1.0129 B(  4-C , 20-C ) :   1.0002
B(  6-C ,  7-H ) :   0.9428 B(  6-C ,  8-H ) :   0.9394 B(  6-C ,  9-C ) :   1.0552
B(  9-C , 10-H ) :   0.9603 B(  9-C , 11-H ) :   0.9524 B(  9-C , 12-C ) :   1.0932
B( 12-C , 13-H ) :   0.9738 B( 12-C , 14-H ) :   0.9741 B( 12-C , 15-H ) :   0.9724
B( 16-S , 17-C ) :   1.1467 B( 16-S , 20-C ) :   1.1509 B( 17-C , 18-C ) :   1.6250
B( 17-C , 20-C ) :   0.1007 B( 17-C , 33-H ) :   0.9680 B( 18-C , 19-C ) :   1.2384
B( 18-C , 21-H ) :   0.9781 B( 19-C , 20-C ) :   1.5747 B( 19-C , 22-C ) :   1.0512
B( 22-C , 23-H ) :   0.9296 B( 22-C , 24-H ) :   0.9395 B( 22-C , 25-C ) :   1.0299
B( 25-C , 26-H ) :   0.9600 B( 25-C , 27-H ) :   0.9618 B( 25-C , 28-C ) :   1.0727
B( 28-C , 29-H ) :   0.9749 B( 28-C , 30-H ) :   0.9755 B( 28-C , 31-H ) :   0.9725

Dispersion correction           -0.013702608
FINAL SINGLE POINT ENERGY     -1339.863530773539

DIPOLE MOMENT
-------------
                                X             Y             Z
Electronic contribution:     10.28437      23.65096       0.52768
Nuclear contribution   :    -10.71597     -24.13597      -0.53579
                        -----------------------------------------
Total Dipole Moment    :     -0.43160      -0.48501      -0.00811
                        -----------------------------------------
Magnitude (a.u.)       :      0.64929
Magnitude (Debye)      :      1.65036

Rotational constants in cm-1:     0.018221     0.007766     0.006633
Rotational constants in MHz :   546.239967   232.815845   198.861784

                             ****ORCA TERMINATED NORMALLY****
TOTAL RUN TIME: 0 days 0 hours 0 minutes 29 seconds 644 msec
