                         Program Version 4.2.1 -  RELEASE  -
|  1> ! wB97X-D3 SP def2-SVP
|  2> %pal
|  3> nprocs 16
|  4> end
|  5>
|  6> * xyz 0 1
|  7> S 	 29.3492 	 1.43515 	 78.6796
|  8> C 	 30.8595 	 2.22112 	 78.1185
|  9> C 	 30.4755 	 3.49347 	 77.6989
| 10> C 	 29.0289 	 3.72279 	 77.6912
| 11> C 	 28.3072 	 2.68469 	 78.1152
| 12> H 	 28.5646 	 4.6354 	 77.4391
| 13> C 	 31.5042 	 4.57415 	 77.299
| 14> H 	 32.003 	 4.1809 	 76.4095
| 15> H 	 32.2365 	 4.67963 	 78.1481
| 16> C 	 30.9657 	 5.9707 	 77.1142
| 17> H 	 31.5721 	 6.68026 	 76.4738
| 18> H 	 30.1244 	 6.05372 	 76.4192
| 19> C 	 30.7215 	 6.77476 	 78.4163
| 20> H 	 29.8247 	 6.34063 	 79.0161
| 21> H 	 31.5505 	 6.82996 	 79.1281
| 22> H 	 30.3807 	 7.78028 	 78.287
| 23> S 	 26.2416 	 1.09971 	 78.916
| 24> C 	 24.6141 	 1.67436 	 79.065
| 25> C 	 24.4963 	 2.77614 	 78.2423
| 26> C 	 25.7842 	 3.29465 	 77.8184
| 27> C 	 26.8556 	 2.5386 	 78.1276
| 28> H 	 23.4576 	 3.18224 	 78.0755
| 29> C 	 25.7741 	 4.68784 	 77.2402
| 30> H 	 26.5042 	 4.68048 	 76.4192
| 31> H 	 26.1781 	 5.25624 	 78.0651
| 32> C 	 24.5697 	 5.19659 	 76.5103
| 33> H 	 23.9291 	 5.43866 	 77.2431
| 34> H 	 24.166 	 4.40764 	 75.9268
| 35> C 	 24.8559 	 6.38926 	 75.6988
| 36> H 	 25.6781 	 6.27581 	 74.9418
| 37> H 	 25.1314 	 7.22862 	 76.314
| 38> H 	 23.9387 	 6.72152 	 75.2472
| 39> H 	 31.9355 	 1.92972 	 78.0205
| 40> H 	 23.7746 	 1.08923 	 79.5619
| 41> *
| 42>
| 43>                          ****END OF INPUT****

CARTESIAN COORDINATES (ANGSTROEM)
---------------------------------
  S     29.349200    1.435150   78.679600
  C     30.859500    2.221120   78.118500
  C     30.475500    3.493470   77.698900
  C     29.028900    3.722790   77.691200
  C     28.307200    2.684690   78.115200
  H     28.564600    4.635400   77.439100
  C     31.504200    4.574150   77.299000
  H     32.003000    4.180900   76.409500
  H     32.236500    4.679630   78.148100
  C     30.965700    5.970700   77.114200
  H     31.572100    6.680260   76.473800
  H     30.124400    6.053720   76.419200
  C     30.721500    6.774760   78.416300
  H     29.824700    6.340630   79.016100
  H     31.550500    6.829960   79.128100
  H     30.380700    7.780280   78.287000
  S     26.241600    1.099710   78.916000
  C     24.614100    1.674360   79.065000
  C     24.496300    2.776140   78.242300
  C     25.784200    3.294650   77.818400
  C     26.855600    2.538600   78.127600
  H     23.457600    3.182240   78.075500
  C     25.774100    4.687840   77.240200
  H     26.504200    4.680480   76.419200
  H     26.178100    5.256240   78.065100
  C     24.569700    5.196590   76.510300
  H     23.929100    5.438660   77.243100
  H     24.166000    4.407640   75.926800
  C     24.855900    6.389260   75.698800
  H     25.678100    6.275810   74.941800
  H     25.131400    7.228620   76.314000
  H     23.938700    6.721520   75.247200
  H     31.935500    1.929720   78.020500
  H     23.774600    1.089230   79.561900

 Total Charge           Charge          ....    0
 Multiplicity           Mult            ....    1
 Number of Electrons    NEL             ....  134
 Basis Dimension        Dim             ....  322

ORBITAL ENERGIES
----------------

  NO   OCC          E(Eh)            E(eV)
   0   2.0000     -88.963825     -2420.8287
   1   2.0000     -88.957436     -2420.6549
   2   2.0000     -10.328261      -281.0463
   3   2.0000     -10.326366      -280.9947
   4   2.0000     -10.323783      -280.9244
   5   2.0000     -10.319458      -280.8067
   6   2.0000     -10.305202      -280.4188
   7   2.0000     -10.303955      -280.3849
   8   2.0000     -10.299695      -280.2690
   9   2.0000     -10.299544      -280.2649
  10   2.0000     -10.294703      -280.1331
  11   2.0000     -10.286387      -279.9068
  12   2.0000     -10.286147      -279.9003
  13   2.0000     -10.284923      -279.8670
  14   2.0000     -10.277336      -279.6605
  15   2.0000     -10.271934      -279.5135
  16   2.0000      -8.078125      -219.8170
  17   2.0000      -8.073178      -219.6823
  18   2.0000      -6.037065      -164.2769
  19   2.0000      -6.032665      -164.1572
  20   2.0000      -6.031824      -164.1343
  21   2.0000      -6.028411      -164.0414
  22   2.0000      -6.027540      -164.0177
  23   2.0000      -6.023701      -163.9133
  24   2.0000      -1.013841       -27.5880
  25   2.0000      -0.987003       -26.8577
  26   2.0000      -0.928001       -25.2522
  27   2.0000      -0.910458       -24.7748
  28   2.0000      -0.873728       -23.7753
  29   2.0000      -0.857637       -23.3375
  30   2.0000      -0.834838       -22.7171
  31   2.0000      -0.822453       -22.3801
  32   2.0000      -0.780878       -21.2488
  33   2.0000      -0.776706       -21.1353
  34   2.0000      -0.717116       -19.5137
  35   2.0000      -0.706098       -19.2139
  36   2.0000      -0.693753       -18.8780
  37   2.0000      -0.654552       -17.8113
  38   2.0000      -0.633834       -17.2475
  39   2.0000      -0.623332       -16.9617
  40   2.0000      -0.599653       -16.3174
  41   2.0000      -0.591943       -16.1076
  42   2.0000      -0.570592       -15.5266
  43   2.0000      -0.558207       -15.1896
  44   2.0000      -0.535749       -14.5785
  45   2.0000      -0.521801       -14.1989
  46   2.0000      -0.519125       -14.1261
  47   2.0000      -0.516040       -14.0422
  48   2.0000      -0.514937       -14.0121
  49   2.0000      -0.495307       -13.4780
  50   2.0000      -0.489329       -13.3153
  51   2.0000      -0.485720       -13.2171
  52   2.0000      -0.478933       -13.0324
  53   2.0000      -0.464683       -12.6447
  54   2.0000      -0.463365       -12.6088
  55   2.0000      -0.449723       -12.2376
  56   2.0000      -0.447112       -12.1665
  57   2.0000      -0.438410       -11.9297
  58   2.0000      -0.436667       -11.8823
  59   2.0000      -0.427378       -11.6295
  60   2.0000      -0.415412       -11.3039
  61   2.0000      -0.402928       -10.9642
  62   2.0000      -0.393020       -10.6946
  63   2.0000      -0.364613        -9.9216
  64   2.0000      -0.328140        -8.9291
  65   2.0000      -0.320419        -8.7191
  66   2.0000      -0.288740        -7.8570
  67   0.0000       0.022373         0.6088
  68   0.0000       0.085511         2.3269
  69   0.0000       0.099497         2.7075
  70   0.0000       0.120771         3.2863
  71   0.0000       0.132686         3.6106

MULLIKEN ATOMIC CHARGES
-----------------------
   0 S :    0.097347
   1 C :   -0.123677
   2 C :   -0.118840
   3 C :   -0.029260
   4 C :   -0.042163
   5 H :   -0.016577
   6 C :    0.078825
   7 H :    0.047735
   8 H :    0.046048
   9 C :   -0.093894
  10 H :    0.025974
  11 H :    0.021332
  12 C :   -0.079397
  13 H :    0.036189
  14 H :    0.038347
  15 H :    0.027298
  16 S :    0.068334
  17 C :   -0.110701
  18 C :   -0.062501
  19 C :   -0.102985
  20 C :   -0.072603
  21 H :    0.045354
  22 C :   -0.013652
  23 H :    0.027896
  24 H :    0.049429
  25 C :    0.018372
  26 H :   -0.002728
  27 H :    0.025211
  28 C :   -0.022951
  29 H :    0.039158
  30 H :    0.018241
  31 H :    0.024766
  32 H :    0.066602
  33 H :    0.089474
Sum of atomic charges:   -0.0000000

LOEWDIN ATOMIC CHARGES
----------------------
   0 S :    0.396193
   1 C :   -0.204741
   2 C :   -0.056073
   3 C :   -0.076117
   4 C :   -0.185236
   5 H :    0.020274
   6 C :   -0.036675
   7 H :    0.037636
   8 H :    0.040967
   9 C :   -0.060985
  10 H :    0.034311
  11 H :    0.024063
  12 C :   -0.075223
  13 H :    0.031562
  14 H :    0.025369
  15 H :    0.022362
  16 S :    0.396931
  17 C :   -0.191553
  18 C :   -0.088884
  19 C :   -0.060363
  20 C :   -0.188617
  21 H :    0.042023
  22 C :   -0.035306
  23 H :    0.029497
  24 H :    0.035042
  25 C :   -0.035002
  26 H :    0.010861
  27 H :    0.026610
  28 C :   -0.057725
  29 H :    0.029746
  30 H :    0.024555
  31 H :    0.027016
  32 H :    0.049105
  33 H :    0.048378

  Mayer bond orders larger than 0.100000
B(  0-S ,  1-C ) :   1.1026 B(  0-S ,  4-C ) :   1.1281 B(  1-C ,  2-C ) :   1.6480
B(  1-C , 32-H ) :   0.9675 B(  2-C ,  3-C ) :   1.2167 B(  2-C ,  6-C ) :   0.9949
B(  3-C ,  4-C ) :   1.5953 B(  3-C ,  5-H ) :   0.9969 B(  4-C , 20-C ) :   1.0686
B(  6-C ,  7-H ) :   0.9367 B(  6-C ,  8-H ) :   0.9493 B(  6-C ,  9-C ) :   1.0783
B(  9-C , 10-H ) :   0.9487 B(  9-C , 11-H ) :   0.9428 B(  9-C , 12-C ) :   1.0764
B( 12-C , 13-H ) :   0.9740 B( 12-C , 14-H ) :   0.9742 B( 12-C , 15-H ) :   0.9738
B( 16-S , 17-C ) :   1.1675 B( 16-S , 20-C ) :   1.1009 B( 17-C , 18-C ) :   1.6018
B( 17-C , 33-H ) :   0.9570 B( 18-C , 19-C ) :   1.2217 B( 18-C , 21-H ) :   0.9830
B( 19-C , 20-C ) :   1.6405 B( 19-C , 22-C ) :   1.0259 B( 22-C , 23-H ) :   0.9363
B( 22-C , 24-H ) :   0.9278 B( 22-C , 25-C ) :   1.0671 B( 25-C , 26-H ) :   0.9240
B( 25-C , 27-H ) :   0.9494 B( 25-C , 28-C ) :   1.1106 B( 28-C , 29-H ) :   0.9710
B( 28-C , 30-H ) :   0.9675 B( 28-C , 31-H ) :   0.9657

Dispersion correction           -0.013799801
FINAL SINGLE POINT ENERGY     -1339.839122121638

DIPOLE MOMENT
-------------
                                X             Y             Z
Electronic contribution:     -1.01333     -29.70279      10.47746
Nuclear contribution   :      0.81152      30.55343     -10.77117
                        -----------------------------------------
Total Dipole Moment    :     -0.20180       0.85064      -0.29371
                        -----------------------------------------
Magnitude (a.u.)       :      0.92227
Magnitude (Debye)      :      2.34422

Rotational constants in cm-1:     0.015972     0.010172     0.006565
Rotational constants in MHz :   478.819168   304.952110   196.812021

                             ****ORCA TERMINATED NORMALLY****
TOTAL RUN TIME: 0 days 0 hours 0 minutes 33 seconds 300 msec
