                         Program Version 4.2.1 -  RELEASE  -
|  1> ! wB97X-D3 SP def2-SVP
|  2> %pal
|  3> nprocs 16
|  4> end
|  5>
|  6> * xyz 0 1
|  7> S 	 -6.57439 	 34.6718 	 54.5249
|  8> C 	 -5.59912 	 33.7071 	 55.5465
|  9> C 	 -4.53398 	 33.2219 	 54.8708
| 10> C 	 -4.71028 	 33.4036 	 53.4666
| 11> C 	 -5.99934 	 33.8496 	 53.1218
| 12> H 	 -4.06489 	 33.0384 	 52.6555
| 13> C 	 -3.33163 	 32.5562 	 55.4835
| 14> H 	 -2.96864 	 31.858 	 54.8088
| 15> H 	 -3.52005 	 31.8942 	 56.3728
| 16> C 	 -2.17416 	 33.5402 	 55.9706
| 17> H 	 -1.27135 	 33.0255 	 56.302
| 18> H 	 -1.67591 	 34.0267 	 55.119
| 19> C 	 -2.72093 	 34.5489 	 57.0552
| 20> H 	 -3.21902 	 33.9953 	 57.8473
| 21> H 	 -1.8058 	 35.0682 	 57.3632
| 22> H 	 -3.45383 	 35.1916 	 56.6131
| 23> S 	 -6.90805 	 35.7312 	 51.3105
| 24> C 	 -7.58558 	 35.2647 	 49.8658
| 25> C 	 -7.33191 	 33.9201 	 49.599
| 26> C 	 -6.76948 	 33.1819 	 50.7101
| 27> C 	 -6.56875 	 34.0408 	 51.8164
| 28> H 	 -7.63906 	 33.5131 	 48.6279
| 29> C 	 -6.55217 	 31.7228 	 50.6729
| 30> H 	 -5.58975 	 31.5141 	 51.1245
| 31> H 	 -6.51556 	 31.3936 	 49.6259
| 32> C 	 -7.58029 	 31.03 	 51.5638
| 33> H 	 -8.56622 	 31.2767 	 51.2908
| 34> H 	 -7.46221 	 31.3514 	 52.5926
| 35> C 	 -7.59883 	 29.4682 	 51.5712
| 36> H 	 -8.25917 	 29.1149 	 52.4424
| 37> H 	 -6.60319 	 29.0908 	 51.8297
| 38> H 	 -7.84252 	 28.9813 	 50.5955
| 39> H 	 -5.50837 	 33.749 	 56.6476
| 40> H 	 -7.9775 	 35.9707 	 49.1685
| 41> *
| 42>
| 43>                          ****END OF INPUT****

CARTESIAN COORDINATES (ANGSTROEM)
---------------------------------
  S     -6.574390   34.671800   54.524900
  C     -5.599120   33.707100   55.546500
  C     -4.533980   33.221900   54.870800
  C     -4.710280   33.403600   53.466600
  C     -5.999340   33.849600   53.121800
  H     -4.064890   33.038400   52.655500
  C     -3.331630   32.556200   55.483500
  H     -2.968640   31.858000   54.808800
  H     -3.520050   31.894200   56.372800
  C     -2.174160   33.540200   55.970600
  H     -1.271350   33.025500   56.302000
  H     -1.675910   34.026700   55.119000
  C     -2.720930   34.548900   57.055200
  H     -3.219020   33.995300   57.847300
  H     -1.805800   35.068200   57.363200
  H     -3.453830   35.191600   56.613100
  S     -6.908050   35.731200   51.310500
  C     -7.585580   35.264700   49.865800
  C     -7.331910   33.920100   49.599000
  C     -6.769480   33.181900   50.710100
  C     -6.568750   34.040800   51.816400
  H     -7.639060   33.513100   48.627900
  C     -6.552170   31.722800   50.672900
  H     -5.589750   31.514100   51.124500
  H     -6.515560   31.393600   49.625900
  C     -7.580290   31.030000   51.563800
  H     -8.566220   31.276700   51.290800
  H     -7.462210   31.351400   52.592600
  C     -7.598830   29.468200   51.571200
  H     -8.259170   29.114900   52.442400
  H     -6.603190   29.090800   51.829700
  H     -7.842520   28.981300   50.595500
  H     -5.508370   33.749000   56.647600
  H     -7.977500   35.970700   49.168500

 Total Charge           Charge          ....    0
 Multiplicity           Mult            ....    1
 Number of Electrons    NEL             ....  134
 Basis Dimension        Dim             ....  322

ORBITAL ENERGIES
----------------

  NO   OCC          E(Eh)            E(eV)
   0   2.0000     -88.963242     -2420.8129
   1   2.0000     -88.962126     -2420.7825
   2   2.0000     -10.328327      -281.0481
   3   2.0000     -10.328092      -281.0417
   4   2.0000     -10.311971      -280.6030
   5   2.0000     -10.309112      -280.5252
   6   2.0000     -10.308458      -280.5074
   7   2.0000     -10.298313      -280.2313
   8   2.0000     -10.297828      -280.2181
   9   2.0000     -10.295486      -280.1544
  10   2.0000     -10.293240      -280.0933
  11   2.0000     -10.293115      -280.0899
  12   2.0000     -10.290551      -280.0201
  13   2.0000     -10.284648      -279.8595
  14   2.0000     -10.280288      -279.7409
  15   2.0000     -10.279943      -279.7315
  16   2.0000      -8.079182      -219.8457
  17   2.0000      -8.078389      -219.8241
  18   2.0000      -6.037516      -164.2892
  19   2.0000      -6.036813      -164.2700
  20   2.0000      -6.033468      -164.1790
  21   2.0000      -6.033051      -164.1677
  22   2.0000      -6.030104      -164.0875
  23   2.0000      -6.028740      -164.0503
  24   2.0000      -1.015286       -27.6273
  25   2.0000      -0.991919       -26.9915
  26   2.0000      -0.914833       -24.8939
  27   2.0000      -0.906805       -24.6754
  28   2.0000      -0.868495       -23.6330
  29   2.0000      -0.849659       -23.1204
  30   2.0000      -0.843374       -22.9494
  31   2.0000      -0.808332       -21.9958
  32   2.0000      -0.784984       -21.3605
  33   2.0000      -0.775933       -21.1142
  34   2.0000      -0.711448       -19.3595
  35   2.0000      -0.701315       -19.0838
  36   2.0000      -0.692588       -18.8463
  37   2.0000      -0.660920       -17.9846
  38   2.0000      -0.637154       -17.3378
  39   2.0000      -0.617841       -16.8123
  40   2.0000      -0.598399       -16.2833
  41   2.0000      -0.570467       -15.5232
  42   2.0000      -0.562831       -15.3154
  43   2.0000      -0.549073       -14.9410
  44   2.0000      -0.537003       -14.6126
  45   2.0000      -0.524384       -14.2692
  46   2.0000      -0.515569       -14.0294
  47   2.0000      -0.513046       -13.9607
  48   2.0000      -0.507324       -13.8050
  49   2.0000      -0.497129       -13.5276
  50   2.0000      -0.492582       -13.4038
  51   2.0000      -0.485089       -13.2000
  52   2.0000      -0.469469       -12.7749
  53   2.0000      -0.467288       -12.7156
  54   2.0000      -0.461492       -12.5578
  55   2.0000      -0.449400       -12.2288
  56   2.0000      -0.440935       -11.9985
  57   2.0000      -0.436752       -11.8846
  58   2.0000      -0.429986       -11.7005
  59   2.0000      -0.425014       -11.5652
  60   2.0000      -0.418856       -11.3977
  61   2.0000      -0.417199       -11.3526
  62   2.0000      -0.414801       -11.2873
  63   2.0000      -0.344403        -9.3717
  64   2.0000      -0.327390        -8.9087
  65   2.0000      -0.323333        -8.7983
  66   2.0000      -0.289730        -7.8839
  67   0.0000       0.019488         0.5303
  68   0.0000       0.060679         1.6512
  69   0.0000       0.105820         2.8795
  70   0.0000       0.124121         3.3775
  71   0.0000       0.129524         3.5245

MULLIKEN ATOMIC CHARGES
-----------------------
   0 S :    0.108093
   1 C :   -0.086786
   2 C :   -0.095911
   3 C :    0.038835
   4 C :   -0.185421
   5 H :    0.022968
   6 C :    0.061152
   7 H :    0.001434
   8 H :    0.036868
   9 C :   -0.091500
  10 H :    0.023573
  11 H :    0.023026
  12 C :   -0.052689
  13 H :    0.031284
  14 H :    0.045650
  15 H :    0.049260
  16 S :    0.109813
  17 C :   -0.075465
  18 C :   -0.063617
  19 C :   -0.033602
  20 C :   -0.173277
  21 H :    0.020381
  22 C :    0.126938
  23 H :    0.012135
  24 H :    0.022674
  25 C :   -0.074351
  26 H :    0.018729
  27 H :    0.041072
  28 C :   -0.072180
  29 H :    0.048066
  30 H :    0.017220
  31 H :    0.041294
  32 H :    0.050050
  33 H :    0.054288
Sum of atomic charges:    0.0000000

LOEWDIN ATOMIC CHARGES
----------------------
   0 S :    0.424715
   1 C :   -0.204195
   2 C :   -0.072245
   3 C :   -0.055376
   4 C :   -0.207021
   5 H :    0.031086
   6 C :   -0.033811
   7 H :    0.017942
   8 H :    0.038356
   9 C :   -0.041609
  10 H :    0.021750
  11 H :    0.022276
  12 C :   -0.061534
  13 H :    0.021776
  14 H :    0.032291
  15 H :    0.022762
  16 S :    0.424897
  17 C :   -0.206472
  18 C :   -0.080596
  19 C :   -0.043822
  20 C :   -0.196499
  21 H :    0.030964
  22 C :   -0.031546
  23 H :    0.030461
  24 H :    0.033326
  25 C :   -0.033599
  26 H :    0.017619
  27 H :    0.030241
  28 C :   -0.075327
  29 H :    0.037907
  30 H :    0.017709
  31 H :    0.026110
  32 H :    0.034643
  33 H :    0.026823

  Mayer bond orders larger than 0.100000
B(  0-S ,  1-C ) :   1.1426 B(  0-S ,  4-C ) :   1.1529 B(  1-C ,  2-C ) :   1.6083
B(  1-C ,  4-C ) :   0.1015 B(  1-C , 32-H ) :   0.9609 B(  2-C ,  3-C ) :   1.2483
B(  2-C ,  6-C ) :   1.0252 B(  3-C ,  4-C ) :   1.5344 B(  3-C ,  5-H ) :   0.9900
B(  4-C , 20-C ) :   1.0870 B(  6-C ,  7-H ) :   0.9369 B(  6-C ,  8-H ) :   0.9509
B(  6-C ,  9-C ) :   1.0634 B(  9-C , 10-H ) :   0.9599 B(  9-C , 11-H ) :   0.9568
B(  9-C , 12-C ) :   1.0600 B( 12-C , 13-H ) :   0.9770 B( 12-C , 14-H ) :   0.9734
B( 12-C , 15-H ) :   0.9743 B( 16-S , 17-C ) :   1.1891 B( 16-S , 20-C ) :   1.1483
B( 17-C , 18-C ) :   1.5711 B( 17-C , 20-C ) :   0.1041 B( 17-C , 33-H ) :   0.9704
B( 18-C , 19-C ) :   1.2551 B( 18-C , 21-H ) :   0.9901 B( 19-C , 20-C ) :   1.5537
B( 19-C , 22-C ) :   1.0685 B( 22-C , 23-H ) :   0.9126 B( 22-C , 24-H ) :   0.9308
B( 22-C , 25-C ) :   1.0649 B( 25-C , 26-H ) :   0.9572 B( 25-C , 27-H ) :   0.9540
B( 25-C , 28-C ) :   1.0834 B( 28-C , 29-H ) :   0.9739 B( 28-C , 30-H ) :   0.9733
B( 28-C , 31-H ) :   0.9761

Dispersion correction           -0.014514654
FINAL SINGLE POINT ENERGY     -1339.852991164256

DIPOLE MOMENT
-------------
                                X             Y             Z
Electronic contribution:    -11.01405      19.06459      -7.16454
Nuclear contribution   :     11.48220     -19.44715       7.02961
                        -----------------------------------------
Total Dipole Moment    :      0.46815      -0.38256      -0.13493
                        -----------------------------------------
Magnitude (a.u.)       :      0.61945
Magnitude (Debye)      :      1.57452

Rotational constants in cm-1:     0.019968     0.008429     0.006762
Rotational constants in MHz :   598.640507   252.707820   202.716363

                             ****ORCA TERMINATED NORMALLY****
TOTAL RUN TIME: 0 days 0 hours 0 minutes 35 seconds 121 msec
