                         Program Version 4.2.1 -  RELEASE  -
|  1> ! wB97X-D3 SP def2-SVP
|  2> %pal
|  3> nprocs 16
|  4> end
|  5>
|  6> * xyz 0 1
|  7> S 	 -53.3086 	 28.3479 	 96.0489
|  8> C 	 -52.8806 	 26.702 	 95.6092
|  9> C 	 -51.8697 	 26.1798 	 96.446
| 10> C 	 -51.3997 	 27.1892 	 97.3053
| 11> C 	 -52.1358 	 28.3684 	 97.2781
| 12> H 	 -50.4565 	 27.1459 	 97.8152
| 13> C 	 -51.3122 	 24.7477 	 96.3659
| 14> H 	 -51.9767 	 24.0943 	 95.7511
| 15> H 	 -51.338 	 24.3689 	 97.3833
| 16> C 	 -49.9392 	 24.6205 	 95.7378
| 17> H 	 -49.8615 	 24.9971 	 94.7231
| 18> H 	 -49.2821 	 25.2564 	 96.3751
| 19> C 	 -49.3676 	 23.2078 	 95.6195
| 20> H 	 -49.5449 	 22.6287 	 96.5187
| 21> H 	 -49.7934 	 22.6127 	 94.8024
| 22> H 	 -48.2632 	 23.1323 	 95.5272
| 23> S 	 -53.137 	 30.351 	 98.8784
| 24> C 	 -52.0627 	 31.5632 	 99.6472
| 25> C 	 -50.789 	 31.3731 	 99.1226
| 26> C 	 -50.6668 	 30.2476 	 98.2377
| 27> C 	 -51.8506 	 29.5958 	 97.959
| 28> H 	 -49.954 	 32.0108 	 99.3421
| 29> C 	 -49.3502 	 29.9968 	 97.4409
| 30> H 	 -48.9948 	 30.9864 	 97.0875
| 31> H 	 -49.5596 	 29.4768 	 96.5143
| 32> C 	 -48.134 	 29.2627 	 98.106
| 33> H 	 -48.4684 	 28.3475 	 98.5725
| 34> H 	 -47.7698 	 29.8287 	 98.9047
| 35> C 	 -46.9651 	 29.0612 	 97.1533
| 36> H 	 -46.5423 	 29.9393 	 96.6676
| 37> H 	 -47.1534 	 28.3709 	 96.3036
| 38> H 	 -46.1886 	 28.5401 	 97.7558
| 39> H 	 -53.3695 	 26.1399 	 94.8093
| 40> H 	 -52.3929 	 32.2814 	 100.356
| 41> *
| 42>
| 43>                          ****END OF INPUT****

CARTESIAN COORDINATES (ANGSTROEM)
---------------------------------
  S    -53.308600   28.347900   96.048900
  C    -52.880600   26.702000   95.609200
  C    -51.869700   26.179800   96.446000
  C    -51.399700   27.189200   97.305300
  C    -52.135800   28.368400   97.278100
  H    -50.456500   27.145900   97.815200
  C    -51.312200   24.747700   96.365900
  H    -51.976700   24.094300   95.751100
  H    -51.338000   24.368900   97.383300
  C    -49.939200   24.620500   95.737800
  H    -49.861500   24.997100   94.723100
  H    -49.282100   25.256400   96.375100
  C    -49.367600   23.207800   95.619500
  H    -49.544900   22.628700   96.518700
  H    -49.793400   22.612700   94.802400
  H    -48.263200   23.132300   95.527200
  S    -53.137000   30.351000   98.878400
  C    -52.062700   31.563200   99.647200
  C    -50.789000   31.373100   99.122600
  C    -50.666800   30.247600   98.237700
  C    -51.850600   29.595800   97.959000
  H    -49.954000   32.010800   99.342100
  C    -49.350200   29.996800   97.440900
  H    -48.994800   30.986400   97.087500
  H    -49.559600   29.476800   96.514300
  C    -48.134000   29.262700   98.106000
  H    -48.468400   28.347500   98.572500
  H    -47.769800   29.828700   98.904700
  C    -46.965100   29.061200   97.153300
  H    -46.542300   29.939300   96.667600
  H    -47.153400   28.370900   96.303600
  H    -46.188600   28.540100   97.755800
  H    -53.369500   26.139900   94.809300
  H    -52.392900   32.281400  100.356000

 Total Charge           Charge          ....    0
 Multiplicity           Mult            ....    1
 Number of Electrons    NEL             ....  134
 Basis Dimension        Dim             ....  322

ORBITAL ENERGIES
----------------

  NO   OCC          E(Eh)            E(eV)
   0   2.0000     -88.969786     -2420.9909
   1   2.0000     -88.961601     -2420.7682
   2   2.0000     -10.325344      -280.9669
   3   2.0000     -10.325102      -280.9603
   4   2.0000     -10.323044      -280.9043
   5   2.0000     -10.318784      -280.7884
   6   2.0000     -10.306118      -280.4437
   7   2.0000     -10.303997      -280.3860
   8   2.0000     -10.299286      -280.2578
   9   2.0000     -10.297313      -280.2041
  10   2.0000     -10.293692      -280.1056
  11   2.0000     -10.292951      -280.0854
  12   2.0000     -10.290104      -280.0080
  13   2.0000     -10.284295      -279.8499
  14   2.0000     -10.282934      -279.8129
  15   2.0000     -10.281521      -279.7744
  16   2.0000      -8.085150      -220.0081
  17   2.0000      -8.076007      -219.7593
  18   2.0000      -6.043453      -164.4507
  19   2.0000      -6.039459      -164.3420
  20   2.0000      -6.036208      -164.2536
  21   2.0000      -6.034595      -164.2097
  22   2.0000      -6.030434      -164.0964
  23   2.0000      -6.026808      -163.9978
  24   2.0000      -1.010954       -27.5094
  25   2.0000      -0.981898       -26.7188
  26   2.0000      -0.914692       -24.8900
  27   2.0000      -0.901727       -24.5372
  28   2.0000      -0.871953       -23.7270
  29   2.0000      -0.853356       -23.2210
  30   2.0000      -0.844905       -22.9910
  31   2.0000      -0.813379       -22.1332
  32   2.0000      -0.783829       -21.3291
  33   2.0000      -0.769992       -20.9525
  34   2.0000      -0.708292       -19.2736
  35   2.0000      -0.701633       -19.0924
  36   2.0000      -0.696924       -18.9643
  37   2.0000      -0.666180       -18.1277
  38   2.0000      -0.643171       -17.5016
  39   2.0000      -0.623380       -16.9630
  40   2.0000      -0.595932       -16.2161
  41   2.0000      -0.571566       -15.5531
  42   2.0000      -0.562956       -15.3188
  43   2.0000      -0.559473       -15.2240
  44   2.0000      -0.528943       -14.3933
  45   2.0000      -0.521783       -14.1984
  46   2.0000      -0.520524       -14.1642
  47   2.0000      -0.512341       -13.9415
  48   2.0000      -0.503924       -13.7125
  49   2.0000      -0.502407       -13.6712
  50   2.0000      -0.495074       -13.4716
  51   2.0000      -0.484556       -13.1854
  52   2.0000      -0.470171       -12.7940
  53   2.0000      -0.467171       -12.7124
  54   2.0000      -0.460815       -12.5394
  55   2.0000      -0.449204       -12.2235
  56   2.0000      -0.446275       -12.1438
  57   2.0000      -0.436879       -11.8881
  58   2.0000      -0.432093       -11.7578
  59   2.0000      -0.427101       -11.6220
  60   2.0000      -0.421001       -11.4560
  61   2.0000      -0.414141       -11.2693
  62   2.0000      -0.410157       -11.1609
  63   2.0000      -0.347978        -9.4690
  64   2.0000      -0.336006        -9.1432
  65   2.0000      -0.326626        -8.8879
  66   2.0000      -0.291866        -7.9421
  67   0.0000       0.029637         0.8065
  68   0.0000       0.067462         1.8357
  69   0.0000       0.111069         3.0223
  70   0.0000       0.118511         3.2249
  71   0.0000       0.122462         3.3324

MULLIKEN ATOMIC CHARGES
-----------------------
   0 S :    0.127508
   1 C :   -0.133820
   2 C :   -0.081555
   3 C :    0.028818
   4 C :   -0.139195
   5 H :   -0.002880
   6 C :    0.072083
   7 H :    0.020637
   8 H :    0.037061
   9 C :   -0.076084
  10 H :    0.033622
  11 H :    0.024985
  12 C :   -0.056720
  13 H :    0.016655
  14 H :    0.035992
  15 H :    0.038759
  16 S :    0.082642
  17 C :   -0.086014
  18 C :   -0.008348
  19 C :   -0.021478
  20 C :   -0.135424
  21 H :    0.015940
  22 C :    0.002807
  23 H :    0.023947
  24 H :    0.027020
  25 C :   -0.017187
  26 H :    0.019457
  27 H :    0.010239
  28 C :   -0.073577
  29 H :    0.035791
  30 H :    0.031417
  31 H :    0.037233
  32 H :    0.052839
  33 H :    0.056829
Sum of atomic charges:   -0.0000000

LOEWDIN ATOMIC CHARGES
----------------------
   0 S :    0.438606
   1 C :   -0.198102
   2 C :   -0.058144
   3 C :   -0.059858
   4 C :   -0.213793
   5 H :    0.027478
   6 C :   -0.029239
   7 H :    0.031494
   8 H :    0.033997
   9 C :   -0.045799
  10 H :    0.027214
  11 H :    0.024155
  12 C :   -0.073364
  13 H :    0.020732
  14 H :    0.026104
  15 H :    0.032901
  16 S :    0.385137
  17 C :   -0.165351
  18 C :   -0.065092
  19 C :   -0.063633
  20 C :   -0.199025
  21 H :    0.028989
  22 C :   -0.032741
  23 H :    0.031626
  24 H :    0.027050
  25 C :   -0.036372
  26 H :    0.020152
  27 H :    0.016196
  28 C :   -0.070044
  29 H :    0.025528
  30 H :    0.025748
  31 H :    0.032715
  32 H :    0.028372
  33 H :    0.026364

  Mayer bond orders larger than 0.100000
B(  0-S ,  1-C ) :   1.1602 B(  0-S ,  4-C ) :   1.1791 B(  1-C ,  2-C ) :   1.5752
B(  1-C ,  4-C ) :   0.1078 B(  1-C , 32-H ) :   0.9679 B(  2-C ,  3-C ) :   1.2764
B(  2-C ,  6-C ) :   1.0213 B(  3-C ,  4-C ) :   1.5486 B(  3-C ,  5-H ) :   0.9967
B(  4-C , 20-C ) :   1.0137 B(  6-C ,  7-H ) :   0.9431 B(  6-C ,  8-H ) :   0.9354
B(  6-C ,  9-C ) :   1.0672 B(  9-C , 10-H ) :   0.9568 B(  9-C , 11-H ) :   0.9549
B(  9-C , 12-C ) :   1.0810 B( 12-C , 13-H ) :   0.9724 B( 12-C , 14-H ) :   0.9757
B( 12-C , 15-H ) :   0.9736 B( 16-S , 17-C ) :   1.1465 B( 16-S , 20-C ) :   1.1323
B( 17-C , 18-C ) :   1.5816 B( 17-C , 20-C ) :   0.1043 B( 17-C , 33-H ) :   0.9789
B( 18-C , 19-C ) :   1.2518 B( 18-C , 21-H ) :   0.9913 B( 19-C , 20-C ) :   1.6045
B( 19-C , 22-C ) :   1.0249 B( 22-C , 23-H ) :   0.9439 B( 22-C , 24-H ) :   0.9500
B( 22-C , 25-C ) :   1.0552 B( 25-C , 26-H ) :   0.9518 B( 25-C , 27-H ) :   0.9495
B( 25-C , 28-C ) :   1.0852 B( 28-C , 29-H ) :   0.9745 B( 28-C , 30-H ) :   0.9748
B( 28-C , 31-H ) :   0.9729

Dispersion correction           -0.014082697
FINAL SINGLE POINT ENERGY     -1339.887133682853

DIPOLE MOMENT
-------------
                                X             Y             Z
Electronic contribution:    -28.31296      17.77019       5.85737
Nuclear contribution   :     29.02811     -18.03507      -5.96466
                        -----------------------------------------
Total Dipole Moment    :      0.71515      -0.26488      -0.10729
                        -----------------------------------------
Magnitude (a.u.)       :      0.77013
Magnitude (Debye)      :      1.95752

Rotational constants in cm-1:     0.017522     0.009044     0.006453
Rotational constants in MHz :   525.308770   271.146667   193.465958

                             ****ORCA TERMINATED NORMALLY****
TOTAL RUN TIME: 0 days 0 hours 0 minutes 29 seconds 829 msec
