                         Program Version 4.2.1 -  RELEASE  -
|  1> ! wB97X-D3 SP def2-SVP
|  2> %pal
|  3> nprocs 16
|  4> end
|  5>
|  6> * xyz 0 1
|  7> S 	 -40.3997 	 31.2302 	 83.0284
|  8> C 	 -40.0134 	 32.8674 	 82.4258
|  9> C 	 -40.8667 	 33.2788 	 81.4015
| 10> C 	 -41.7528 	 32.2222 	 81.0328
| 11> C 	 -41.6527 	 31.0896 	 81.7993
| 12> H 	 -42.3631 	 32.2281 	 80.1695
| 13> C 	 -40.84 	 34.6021 	 80.7314
| 14> H 	 -41.1416 	 35.4121 	 81.4535
| 15> H 	 -41.6857 	 34.6103 	 80.0364
| 16> C 	 -39.6957 	 35.0634 	 79.9311
| 17> H 	 -38.7866 	 35.1481 	 80.4684
| 18> H 	 -39.4605 	 34.3424 	 79.1611
| 19> C 	 -39.9361 	 36.4214 	 79.2596
| 20> H 	 -39.0182 	 36.6978 	 78.7071
| 21> H 	 -40.788 	 36.2973 	 78.6683
| 22> H 	 -40.2142 	 37.219 	 80.0467
| 23> S 	 -41.7028 	 28.3858 	 81.4123
| 24> C 	 -43.2846 	 27.5638 	 81.5167
| 25> C 	 -44.3386 	 28.3979 	 81.6923
| 26> C 	 -43.9455 	 29.7762 	 81.7544
| 27> C 	 -42.5468 	 29.9153 	 81.7193
| 28> H 	 -45.2855 	 27.9781 	 81.7938
| 29> C 	 -44.9479 	 30.9203 	 81.8792
| 30> H 	 -44.4245 	 31.7983 	 81.6799
| 31> H 	 -45.1877 	 30.9262 	 82.8871
| 32> C 	 -46.2447 	 30.8073 	 81.0269
| 33> H 	 -46.9517 	 31.6126 	 81.485
| 34> H 	 -46.6797 	 29.837 	 81.2502
| 35> C 	 -45.9477 	 31.0158 	 79.5429
| 36> H 	 -45.4974 	 32.0297 	 79.4496
| 37> H 	 -46.8304 	 30.9886 	 78.9078
| 38> H 	 -45.4001 	 30.1067 	 79.1719
| 39> H 	 -39.3999 	 33.5616 	 83.0157
| 40> H 	 -43.448 	 26.4545 	 81.5585
| 41> *
| 42>
| 43>                          ****END OF INPUT****

CARTESIAN COORDINATES (ANGSTROEM)
---------------------------------
  S    -40.399700   31.230200   83.028400
  C    -40.013400   32.867400   82.425800
  C    -40.866700   33.278800   81.401500
  C    -41.752800   32.222200   81.032800
  C    -41.652700   31.089600   81.799300
  H    -42.363100   32.228100   80.169500
  C    -40.840000   34.602100   80.731400
  H    -41.141600   35.412100   81.453500
  H    -41.685700   34.610300   80.036400
  C    -39.695700   35.063400   79.931100
  H    -38.786600   35.148100   80.468400
  H    -39.460500   34.342400   79.161100
  C    -39.936100   36.421400   79.259600
  H    -39.018200   36.697800   78.707100
  H    -40.788000   36.297300   78.668300
  H    -40.214200   37.219000   80.046700
  S    -41.702800   28.385800   81.412300
  C    -43.284600   27.563800   81.516700
  C    -44.338600   28.397900   81.692300
  C    -43.945500   29.776200   81.754400
  C    -42.546800   29.915300   81.719300
  H    -45.285500   27.978100   81.793800
  C    -44.947900   30.920300   81.879200
  H    -44.424500   31.798300   81.679900
  H    -45.187700   30.926200   82.887100
  C    -46.244700   30.807300   81.026900
  H    -46.951700   31.612600   81.485000
  H    -46.679700   29.837000   81.250200
  C    -45.947700   31.015800   79.542900
  H    -45.497400   32.029700   79.449600
  H    -46.830400   30.988600   78.907800
  H    -45.400100   30.106700   79.171900
  H    -39.399900   33.561600   83.015700
  H    -43.448000   26.454500   81.558500

 Total Charge           Charge          ....    0
 Multiplicity           Mult            ....    1
 Number of Electrons    NEL             ....  134
 Basis Dimension        Dim             ....  322

ORBITAL ENERGIES
----------------

  NO   OCC          E(Eh)            E(eV)
   0   2.0000     -88.968007     -2420.9426
   1   2.0000     -88.964711     -2420.8529
   2   2.0000     -10.328949      -281.0650
   3   2.0000     -10.328175      -281.0439
   4   2.0000     -10.318915      -280.7919
   5   2.0000     -10.317495      -280.7533
   6   2.0000     -10.307046      -280.4690
   7   2.0000     -10.302073      -280.3337
   8   2.0000     -10.296725      -280.1881
   9   2.0000     -10.290983      -280.0319
  10   2.0000     -10.289614      -279.9946
  11   2.0000     -10.288358      -279.9605
  12   2.0000     -10.284447      -279.8540
  13   2.0000     -10.282601      -279.8038
  14   2.0000     -10.280185      -279.7381
  15   2.0000     -10.277148      -279.6554
  16   2.0000      -8.081919      -219.9202
  17   2.0000      -8.078644      -219.8311
  18   2.0000      -6.040376      -164.3670
  19   2.0000      -6.037226      -164.2813
  20   2.0000      -6.036587      -164.2639
  21   2.0000      -6.033457      -164.1787
  22   2.0000      -6.032741      -164.1592
  23   2.0000      -6.029189      -164.0626
  24   2.0000      -1.000274       -27.2189
  25   2.0000      -0.978544       -26.6275
  26   2.0000      -0.921557       -25.0768
  27   2.0000      -0.907894       -24.7050
  28   2.0000      -0.868696       -23.6384
  29   2.0000      -0.850823       -23.1521
  30   2.0000      -0.844537       -22.9810
  31   2.0000      -0.815796       -22.1989
  32   2.0000      -0.783415       -21.3178
  33   2.0000      -0.770093       -20.9553
  34   2.0000      -0.705176       -19.1888
  35   2.0000      -0.702118       -19.1056
  36   2.0000      -0.691247       -18.8098
  37   2.0000      -0.655292       -17.8314
  38   2.0000      -0.641869       -17.4661
  39   2.0000      -0.621439       -16.9102
  40   2.0000      -0.594325       -16.1724
  41   2.0000      -0.577259       -15.7080
  42   2.0000      -0.563494       -15.3334
  43   2.0000      -0.558545       -15.1988
  44   2.0000      -0.540980       -14.7208
  45   2.0000      -0.530273       -14.4295
  46   2.0000      -0.521440       -14.1891
  47   2.0000      -0.510345       -13.8872
  48   2.0000      -0.495996       -13.4967
  49   2.0000      -0.489233       -13.3127
  50   2.0000      -0.484170       -13.1749
  51   2.0000      -0.478367       -13.0170
  52   2.0000      -0.470691       -12.8082
  53   2.0000      -0.464458       -12.6386
  54   2.0000      -0.451033       -12.2732
  55   2.0000      -0.449671       -12.2362
  56   2.0000      -0.446170       -12.1409
  57   2.0000      -0.443233       -12.0610
  58   2.0000      -0.440396       -11.9838
  59   2.0000      -0.427102       -11.6220
  60   2.0000      -0.424446       -11.5498
  61   2.0000      -0.414145       -11.2695
  62   2.0000      -0.410531       -11.1711
  63   2.0000      -0.343174        -9.3382
  64   2.0000      -0.332819        -9.0565
  65   2.0000      -0.328277        -8.9329
  66   2.0000      -0.293061        -7.9746
  67   0.0000       0.031314         0.8521
  68   0.0000       0.063595         1.7305
  69   0.0000       0.106495         2.8979
  70   0.0000       0.114442         3.1141
  71   0.0000       0.131524         3.5789

MULLIKEN ATOMIC CHARGES
-----------------------
   0 S :    0.109978
   1 C :   -0.129969
   2 C :   -0.074685
   3 C :    0.048439
   4 C :   -0.148717
   5 H :    0.002440
   6 C :    0.046744
   7 H :    0.035226
   8 H :   -0.000049
   9 C :   -0.035463
  10 H :    0.013678
  11 H :    0.022171
  12 C :   -0.060245
  13 H :    0.050117
  14 H :    0.018531
  15 H :    0.036094
  16 S :    0.099085
  17 C :   -0.096112
  18 C :   -0.030914
  19 C :   -0.047560
  20 C :   -0.184947
  21 H :   -0.003159
  22 C :    0.162255
  23 H :   -0.009716
  24 H :    0.020017
  25 C :   -0.118018
  26 H :    0.044579
  27 H :    0.027949
  28 C :   -0.050233
  29 H :    0.043286
  30 H :    0.030973
  31 H :    0.053229
  32 H :    0.058603
  33 H :    0.066393
Sum of atomic charges:    0.0000000

LOEWDIN ATOMIC CHARGES
----------------------
   0 S :    0.391099
   1 C :   -0.188157
   2 C :   -0.060246
   3 C :   -0.059827
   4 C :   -0.192687
   5 H :    0.026281
   6 C :   -0.042943
   7 H :    0.038779
   8 H :    0.028761
   9 C :   -0.041552
  10 H :    0.015790
  11 H :    0.025304
  12 C :   -0.059245
  13 H :    0.033401
  14 H :    0.013065
  15 H :    0.032298
  16 S :    0.377494
  17 C :   -0.174457
  18 C :   -0.071651
  19 C :   -0.044605
  20 C :   -0.194124
  21 H :    0.023171
  22 C :   -0.021098
  23 H :    0.018272
  24 H :    0.027899
  25 C :   -0.042418
  26 H :    0.034584
  27 H :    0.017436
  28 C :   -0.073459
  29 H :    0.031935
  30 H :    0.024053
  31 H :    0.038622
  32 H :    0.029818
  33 H :    0.038407

  Mayer bond orders larger than 0.100000
B(  0-S ,  1-C ) :   1.1310 B(  0-S ,  4-C ) :   1.1537 B(  1-C ,  2-C ) :   1.6111
B(  1-C , 32-H ) :   0.9647 B(  2-C ,  3-C ) :   1.2438 B(  2-C ,  6-C ) :   1.0256
B(  3-C ,  4-C ) :   1.5868 B(  3-C ,  5-H ) :   0.9945 B(  4-C , 20-C ) :   1.0090
B(  6-C ,  7-H ) :   0.9250 B(  6-C ,  8-H ) :   0.9351 B(  6-C ,  9-C ) :   1.0813
B(  9-C , 10-H ) :   0.9492 B(  9-C , 11-H ) :   0.9472 B(  9-C , 12-C ) :   1.0797
B( 12-C , 13-H ) :   0.9728 B( 12-C , 14-H ) :   0.9775 B( 12-C , 15-H ) :   0.9735
B( 16-S , 17-C ) :   1.1297 B( 16-S , 20-C ) :   1.1362 B( 17-C , 18-C ) :   1.6696
B( 17-C , 33-H ) :   0.9548 B( 18-C , 19-C ) :   1.1930 B( 18-C , 21-H ) :   0.9981
B( 19-C , 20-C ) :   1.6236 B( 19-C , 22-C ) :   1.0239 B( 22-C , 23-H ) :   0.9277
B( 22-C , 24-H ) :   0.9198 B( 22-C , 25-C ) :   1.0716 B( 25-C , 26-H ) :   0.9554
B( 25-C , 27-H ) :   0.9545 B( 25-C , 28-C ) :   1.0722 B( 28-C , 29-H ) :   0.9731
B( 28-C , 30-H ) :   0.9735 B( 28-C , 31-H ) :   0.9706

Dispersion correction           -0.013987267
FINAL SINGLE POINT ENERGY     -1339.871816544764

DIPOLE MOMENT
-------------
                                X             Y             Z
Electronic contribution:     11.55101     -22.23355      13.57180
Nuclear contribution   :    -12.09186      22.63961     -13.75361
                        -----------------------------------------
Total Dipole Moment    :     -0.54084       0.40606      -0.18181
                        -----------------------------------------
Magnitude (a.u.)       :      0.70032
Magnitude (Debye)      :      1.78008

Rotational constants in cm-1:     0.019292     0.007938     0.006253
Rotational constants in MHz :   578.360637   237.981068   187.468501

                             ****ORCA TERMINATED NORMALLY****
TOTAL RUN TIME: 0 days 0 hours 0 minutes 29 seconds 830 msec
