                         Program Version 4.2.1 -  RELEASE  -
|  1> ! wB97X-D3 SP def2-SVP
|  2> %pal
|  3> nprocs 16
|  4> end
|  5>
|  6> * xyz 0 1
|  7> S 	 -93.4242 	 50.0554 	 124.67
|  8> C 	 -95.0106 	 49.4389 	 124.741
|  9> C 	 -95.4501 	 49.0579 	 123.484
| 10> C 	 -94.3845 	 49.005 	 122.574
| 11> C 	 -93.1605 	 49.3886 	 123.124
| 12> H 	 -94.4217 	 48.6134 	 121.483
| 13> C 	 -96.7774 	 48.5365 	 123.113
| 14> H 	 -97.4599 	 49.4226 	 123.015
| 15> H 	 -97.2591 	 47.935 	 123.882
| 16> C 	 -96.9275 	 47.5928 	 121.898
| 17> H 	 -97.9149 	 47.6133 	 121.46
| 18> H 	 -96.4167 	 47.9995 	 121.077
| 19> C 	 -96.3702 	 46.1534 	 122.148
| 20> H 	 -95.2672 	 46.1676 	 122.435
| 21> H 	 -96.9727 	 45.7643 	 122.968
| 22> H 	 -96.4478 	 45.7046 	 121.132
| 23> S 	 -90.8528 	 50.8469 	 122.611
| 24> C 	 -89.6351 	 50.1787 	 121.576
| 25> C 	 -90.0239 	 48.969 	 121.052
| 26> C 	 -91.3078 	 48.4482 	 121.522
| 27> C 	 -91.8793 	 49.3938 	 122.323
| 28> H 	 -89.4667 	 48.5038 	 120.239
| 29> C 	 -91.9341 	 47.1053 	 121.155
| 30> H 	 -92.8643 	 47.0085 	 121.663
| 31> H 	 -91.2496 	 46.316 	 121.471
| 32> C 	 -92.1845 	 47.0403 	 119.632
| 33> H 	 -91.1695 	 47.0402 	 119.23
| 34> H 	 -92.6933 	 47.9649 	 119.302
| 35> C 	 -93.0452 	 45.8014 	 119.172
| 36> H 	 -94.0317 	 45.6461 	 119.655
| 37> H 	 -92.4269 	 44.8789 	 119.422
| 38> H 	 -93.1588 	 46.0271 	 118.053
| 39> H 	 -95.71 	 49.5348 	 125.601
| 40> H 	 -88.6783 	 50.6168 	 121.223
| 41> *
| 42>
| 43>                          ****END OF INPUT****

CARTESIAN COORDINATES (ANGSTROEM)
---------------------------------
  S    -93.424200   50.055400  124.670000
  C    -95.010600   49.438900  124.741000
  C    -95.450100   49.057900  123.484000
  C    -94.384500   49.005000  122.574000
  C    -93.160500   49.388600  123.124000
  H    -94.421700   48.613400  121.483000
  C    -96.777400   48.536500  123.113000
  H    -97.459900   49.422600  123.015000
  H    -97.259100   47.935000  123.882000
  C    -96.927500   47.592800  121.898000
  H    -97.914900   47.613300  121.460000
  H    -96.416700   47.999500  121.077000
  C    -96.370200   46.153400  122.148000
  H    -95.267200   46.167600  122.435000
  H    -96.972700   45.764300  122.968000
  H    -96.447800   45.704600  121.132000
  S    -90.852800   50.846900  122.611000
  C    -89.635100   50.178700  121.576000
  C    -90.023900   48.969000  121.052000
  C    -91.307800   48.448200  121.522000
  C    -91.879300   49.393800  122.323000
  H    -89.466700   48.503800  120.239000
  C    -91.934100   47.105300  121.155000
  H    -92.864300   47.008500  121.663000
  H    -91.249600   46.316000  121.471000
  C    -92.184500   47.040300  119.632000
  H    -91.169500   47.040200  119.230000
  H    -92.693300   47.964900  119.302000
  C    -93.045200   45.801400  119.172000
  H    -94.031700   45.646100  119.655000
  H    -92.426900   44.878900  119.422000
  H    -93.158800   46.027100  118.053000
  H    -95.710000   49.534800  125.601000
  H    -88.678300   50.616800  121.223000

 Total Charge           Charge          ....    0
 Multiplicity           Mult            ....    1
 Number of Electrons    NEL             ....  134
 Basis Dimension        Dim             ....  322

ORBITAL ENERGIES
----------------

  NO   OCC          E(Eh)            E(eV)
   0   2.0000     -88.969650     -2420.9873
   1   2.0000     -88.964821     -2420.8558
   2   2.0000     -10.331330      -281.1298
   3   2.0000     -10.326994      -281.0118
   4   2.0000     -10.317842      -280.7628
   5   2.0000     -10.311701      -280.5956
   6   2.0000     -10.305014      -280.4137
   7   2.0000     -10.297718      -280.2152
   8   2.0000     -10.297211      -280.2014
   9   2.0000     -10.295004      -280.1413
  10   2.0000     -10.294750      -280.1344
  11   2.0000     -10.294321      -280.1227
  12   2.0000     -10.292269      -280.0669
  13   2.0000     -10.292033      -280.0604
  14   2.0000     -10.290398      -280.0160
  15   2.0000     -10.284125      -279.8453
  16   2.0000      -8.085516      -220.0181
  17   2.0000      -8.079185      -219.8458
  18   2.0000      -6.043843      -164.4613
  19   2.0000      -6.039896      -164.3539
  20   2.0000      -6.037850      -164.2982
  21   2.0000      -6.036363      -164.2578
  22   2.0000      -6.033912      -164.1911
  23   2.0000      -6.029652      -164.0752
  24   2.0000      -1.012490       -27.5512
  25   2.0000      -0.986293       -26.8384
  26   2.0000      -0.915126       -24.9018
  27   2.0000      -0.908525       -24.7222
  28   2.0000      -0.864745       -23.5309
  29   2.0000      -0.851629       -23.1740
  30   2.0000      -0.841838       -22.9076
  31   2.0000      -0.811226       -22.0746
  32   2.0000      -0.782272       -21.2867
  33   2.0000      -0.773255       -21.0414
  34   2.0000      -0.708465       -19.2783
  35   2.0000      -0.697491       -18.9797
  36   2.0000      -0.690757       -18.7964
  37   2.0000      -0.654464       -17.8089
  38   2.0000      -0.634019       -17.2525
  39   2.0000      -0.624520       -16.9941
  40   2.0000      -0.593337       -16.1455
  41   2.0000      -0.570313       -15.5190
  42   2.0000      -0.568735       -15.4761
  43   2.0000      -0.552257       -15.0277
  44   2.0000      -0.530399       -14.4329
  45   2.0000      -0.526042       -14.3143
  46   2.0000      -0.516230       -14.0473
  47   2.0000      -0.505161       -13.7461
  48   2.0000      -0.501245       -13.6396
  49   2.0000      -0.498680       -13.5698
  50   2.0000      -0.489052       -13.3078
  51   2.0000      -0.488213       -13.2849
  52   2.0000      -0.471827       -12.8391
  53   2.0000      -0.470081       -12.7916
  54   2.0000      -0.461501       -12.5581
  55   2.0000      -0.451707       -12.2916
  56   2.0000      -0.440709       -11.9923
  57   2.0000      -0.437127       -11.8948
  58   2.0000      -0.431126       -11.7315
  59   2.0000      -0.426575       -11.6077
  60   2.0000      -0.421896       -11.4804
  61   2.0000      -0.415467       -11.3054
  62   2.0000      -0.410554       -11.1718
  63   2.0000      -0.350510        -9.5379
  64   2.0000      -0.330219        -8.9857
  65   2.0000      -0.328991        -8.9523
  66   2.0000      -0.288985        -7.8637
  67   0.0000       0.032233         0.8771
  68   0.0000       0.074191         2.0188
  69   0.0000       0.104221         2.8360
  70   0.0000       0.115135         3.1330
  71   0.0000       0.125377         3.4117

MULLIKEN ATOMIC CHARGES
-----------------------
   0 S :    0.137491
   1 C :   -0.136305
   2 C :   -0.059029
   3 C :   -0.046253
   4 C :   -0.126830
   5 H :    0.046584
   6 C :    0.046140
   7 H :    0.044058
   8 H :    0.019005
   9 C :   -0.067748
  10 H :    0.021547
  11 H :   -0.001930
  12 C :   -0.084638
  13 H :    0.060370
  14 H :    0.044094
  15 H :    0.054627
  16 S :    0.093620
  17 C :   -0.083302
  18 C :   -0.054287
  19 C :   -0.069077
  20 C :   -0.163306
  21 H :    0.019828
  22 C :    0.129141
  23 H :   -0.001250
  24 H :    0.036412
  25 C :   -0.131308
  26 H :    0.036061
  27 H :    0.041504
  28 C :   -0.077867
  29 H :    0.044713
  30 H :    0.044608
  31 H :    0.058833
  32 H :    0.058513
  33 H :    0.065981
Sum of atomic charges:   -0.0000000

LOEWDIN ATOMIC CHARGES
----------------------
   0 S :    0.451523
   1 C :   -0.220722
   2 C :   -0.071991
   3 C :   -0.079771
   4 C :   -0.214658
   5 H :    0.044958
   6 C :   -0.040494
   7 H :    0.041496
   8 H :    0.029936
   9 C :   -0.045042
  10 H :    0.027423
  11 H :    0.008853
  12 C :   -0.068083
  13 H :    0.033221
  14 H :    0.026129
  15 H :    0.033350
  16 S :    0.377350
  17 C :   -0.197269
  18 C :   -0.075508
  19 C :   -0.055532
  20 C :   -0.167327
  21 H :    0.027789
  22 C :   -0.024653
  23 H :    0.019382
  24 H :    0.034156
  25 C :   -0.043037
  26 H :    0.024165
  27 H :    0.024744
  28 C :   -0.078494
  29 H :    0.026547
  30 H :    0.032923
  31 H :    0.040091
  32 H :    0.037237
  33 H :    0.041306

  Mayer bond orders larger than 0.100000
B(  0-S ,  1-C ) :   1.1600 B(  0-S ,  4-C ) :   1.1859 B(  1-C ,  2-C ) :   1.5601
B(  1-C ,  4-C ) :   0.1014 B(  1-C , 32-H ) :   0.9665 B(  2-C ,  3-C ) :   1.3015
B(  2-C ,  6-C ) :   1.0221 B(  3-C ,  4-C ) :   1.5144 B(  3-C ,  5-H ) :   0.9715
B(  4-C , 20-C ) :   1.0179 B(  6-C ,  7-H ) :   0.9193 B(  6-C ,  8-H ) :   0.9481
B(  6-C ,  9-C ) :   1.0868 B(  9-C , 10-H ) :   0.9474 B(  9-C , 11-H ) :   0.9445
B(  9-C , 12-C ) :   1.0647 B( 12-C , 13-H ) :   0.9729 B( 12-C , 14-H ) :   0.9742
B( 12-C , 15-H ) :   0.9709 B( 16-S , 17-C ) :   1.1290 B( 16-S , 20-C ) :   1.1170
B( 17-C , 18-C ) :   1.6707 B( 17-C , 33-H ) :   0.9588 B( 18-C , 19-C ) :   1.1865
B( 18-C , 21-H ) :   0.9809 B( 19-C , 20-C ) :   1.6721 B( 19-C , 22-C ) :   1.0433
B( 22-C , 23-H ) :   0.9287 B( 22-C , 24-H ) :   0.9265 B( 22-C , 25-C ) :   1.0517
B( 25-C , 26-H ) :   0.9561 B( 25-C , 27-H ) :   0.9600 B( 25-C , 28-C ) :   1.0695
B( 28-C , 29-H ) :   0.9752 B( 28-C , 30-H ) :   0.9722 B( 28-C , 31-H ) :   0.9751

Dispersion correction           -0.015410588
FINAL SINGLE POINT ENERGY     -1339.865843978529

DIPOLE MOMENT
-------------
                                X             Y             Z
Electronic contribution:     15.54863      23.36586      17.33208
Nuclear contribution   :    -15.91427     -23.80769     -17.81681
                        -----------------------------------------
Total Dipole Moment    :     -0.36564      -0.44183      -0.48473
                        -----------------------------------------
Magnitude (a.u.)       :      0.75091
Magnitude (Debye)      :      1.90867

Rotational constants in cm-1:     0.016119     0.011405     0.007038
Rotational constants in MHz :   483.238816   341.923941   211.001081

                             ****ORCA TERMINATED NORMALLY****
TOTAL RUN TIME: 0 days 0 hours 0 minutes 36 seconds 365 msec
