                         Program Version 4.2.1 -  RELEASE  -
|  1> ! wB97X-D3 SP def2-SVP
|  2> %pal
|  3> nprocs 16
|  4> end
|  5>
|  6> * xyz 0 1
|  7> S 	 -83.1488 	 35.6955 	 133.585
|  8> C 	 -81.5657 	 34.9936 	 134.013
|  9> C 	 -80.6348 	 35.9353 	 134.4
| 10> C 	 -81.2471 	 37.2166 	 134.517
| 11> C 	 -82.5596 	 37.3061 	 134.046
| 12> H 	 -80.8186 	 38.0777 	 134.941
| 13> C 	 -79.1447 	 35.6472 	 134.659
| 14> H 	 -78.6438 	 36.6302 	 134.832
| 15> H 	 -78.7672 	 35.2789 	 133.695
| 16> C 	 -78.7704 	 34.6216 	 135.764
| 17> H 	 -79.4128 	 33.7365 	 135.738
| 18> H 	 -77.7108 	 34.3606 	 135.519
| 19> C 	 -78.8734 	 35.1469 	 137.223
| 20> H 	 -78.459 	 36.1421 	 137.128
| 21> H 	 -79.911 	 35.254 	 137.542
| 22> H 	 -78.3251 	 34.5611 	 137.927
| 23> S 	 -84.6729 	 38.3982 	 135.465
| 24> C 	 -85.1567 	 40.0163 	 135.067
| 25> C 	 -84.3861 	 40.5548 	 134.072
| 26> C 	 -83.3595 	 39.7365 	 133.576
| 27> C 	 -83.4495 	 38.4883 	 134.176
| 28> H 	 -84.5016 	 41.5954 	 133.709
| 29> C 	 -82.3131 	 40.328 	 132.646
| 30> H 	 -82.5978 	 41.2563 	 132.104
| 31> H 	 -82.0277 	 39.5241 	 131.945
| 32> C 	 -81.0519 	 40.7697 	 133.377
| 33> H 	 -80.7725 	 39.9058 	 133.945
| 34> H 	 -81.3108 	 41.6022 	 134.078
| 35> C 	 -79.9015 	 41.2886 	 132.462
| 36> H 	 -80.2183 	 42.0312 	 131.696
| 37> H 	 -79.3872 	 40.421 	 132.044
| 38> H 	 -79.285 	 41.8654 	 133.178
| 39> H 	 -81.3912 	 33.944 	 133.916
| 40> H 	 -85.8417 	 40.5745 	 135.671
| 41> *
| 42>
| 43>                          ****END OF INPUT****

CARTESIAN COORDINATES (ANGSTROEM)
---------------------------------
  S    -83.148800   35.695500  133.585000
  C    -81.565700   34.993600  134.013000
  C    -80.634800   35.935300  134.400000
  C    -81.247100   37.216600  134.517000
  C    -82.559600   37.306100  134.046000
  H    -80.818600   38.077700  134.941000
  C    -79.144700   35.647200  134.659000
  H    -78.643800   36.630200  134.832000
  H    -78.767200   35.278900  133.695000
  C    -78.770400   34.621600  135.764000
  H    -79.412800   33.736500  135.738000
  H    -77.710800   34.360600  135.519000
  C    -78.873400   35.146900  137.223000
  H    -78.459000   36.142100  137.128000
  H    -79.911000   35.254000  137.542000
  H    -78.325100   34.561100  137.927000
  S    -84.672900   38.398200  135.465000
  C    -85.156700   40.016300  135.067000
  C    -84.386100   40.554800  134.072000
  C    -83.359500   39.736500  133.576000
  C    -83.449500   38.488300  134.176000
  H    -84.501600   41.595400  133.709000
  C    -82.313100   40.328000  132.646000
  H    -82.597800   41.256300  132.104000
  H    -82.027700   39.524100  131.945000
  C    -81.051900   40.769700  133.377000
  H    -80.772500   39.905800  133.945000
  H    -81.310800   41.602200  134.078000
  C    -79.901500   41.288600  132.462000
  H    -80.218300   42.031200  131.696000
  H    -79.387200   40.421000  132.044000
  H    -79.285000   41.865400  133.178000
  H    -81.391200   33.944000  133.916000
  H    -85.841700   40.574500  135.671000

 Total Charge           Charge          ....    0
 Multiplicity           Mult            ....    1
 Number of Electrons    NEL             ....  134
 Basis Dimension        Dim             ....  322

ORBITAL ENERGIES
----------------

  NO   OCC          E(Eh)            E(eV)
   0   2.0000     -88.966655     -2420.9058
   1   2.0000     -88.966343     -2420.8973
   2   2.0000     -10.330677      -281.1120
   3   2.0000     -10.328896      -281.0635
   4   2.0000     -10.314660      -280.6762
   5   2.0000     -10.313178      -280.6358
   6   2.0000     -10.303297      -280.3670
   7   2.0000     -10.302219      -280.3376
   8   2.0000     -10.301951      -280.3303
   9   2.0000     -10.294590      -280.1300
  10   2.0000     -10.294136      -280.1177
  11   2.0000     -10.292511      -280.0735
  12   2.0000     -10.289636      -279.9952
  13   2.0000     -10.286292      -279.9042
  14   2.0000     -10.285950      -279.8949
  15   2.0000     -10.275069      -279.5988
  16   2.0000      -8.081297      -219.9033
  17   2.0000      -8.080069      -219.8699
  18   2.0000      -6.039696      -164.3485
  19   2.0000      -6.038614      -164.3190
  20   2.0000      -6.035890      -164.2449
  21   2.0000      -6.034716      -164.2130
  22   2.0000      -6.032104      -164.1419
  23   2.0000      -6.030875      -164.1085
  24   2.0000      -1.002585       -27.2817
  25   2.0000      -0.980556       -26.6823
  26   2.0000      -0.910888       -24.7865
  27   2.0000      -0.905514       -24.6403
  28   2.0000      -0.862630       -23.4734
  29   2.0000      -0.852235       -23.1905
  30   2.0000      -0.844987       -22.9933
  31   2.0000      -0.809363       -22.0239
  32   2.0000      -0.784611       -21.3504
  33   2.0000      -0.773259       -21.0415
  34   2.0000      -0.702889       -19.1266
  35   2.0000      -0.697138       -18.9701
  36   2.0000      -0.686772       -18.6880
  37   2.0000      -0.661175       -17.9915
  38   2.0000      -0.643719       -17.5165
  39   2.0000      -0.611256       -16.6331
  40   2.0000      -0.598570       -16.2879
  41   2.0000      -0.573735       -15.6121
  42   2.0000      -0.571823       -15.5601
  43   2.0000      -0.550272       -14.9737
  44   2.0000      -0.534347       -14.5403
  45   2.0000      -0.521860       -14.2005
  46   2.0000      -0.516790       -14.0626
  47   2.0000      -0.511312       -13.9135
  48   2.0000      -0.505415       -13.7530
  49   2.0000      -0.490095       -13.3362
  50   2.0000      -0.487283       -13.2596
  51   2.0000      -0.480019       -13.0620
  52   2.0000      -0.470222       -12.7954
  53   2.0000      -0.466424       -12.6920
  54   2.0000      -0.459937       -12.5155
  55   2.0000      -0.450544       -12.2599
  56   2.0000      -0.441719       -12.0198
  57   2.0000      -0.437464       -11.9040
  58   2.0000      -0.431905       -11.7527
  59   2.0000      -0.426817       -11.6143
  60   2.0000      -0.420427       -11.4404
  61   2.0000      -0.418478       -11.3874
  62   2.0000      -0.414167       -11.2701
  63   2.0000      -0.339981        -9.2514
  64   2.0000      -0.329965        -8.9788
  65   2.0000      -0.327478        -8.9111
  66   2.0000      -0.298913        -8.1338
  67   0.0000       0.034718         0.9447
  68   0.0000       0.058137         1.5820
  69   0.0000       0.110769         3.0142
  70   0.0000       0.115924         3.1544
  71   0.0000       0.130676         3.5559

MULLIKEN ATOMIC CHARGES
-----------------------
   0 S :    0.104551
   1 C :   -0.137528
   2 C :   -0.057781
   3 C :    0.035850
   4 C :   -0.173768
   5 H :    0.011366
   6 C :    0.046807
   7 H :    0.027888
   8 H :    0.043039
   9 C :   -0.092861
  10 H :    0.034423
  11 H :    0.038383
  12 C :   -0.033388
  13 H :    0.015547
  14 H :    0.043048
  15 H :    0.038083
  16 S :    0.119377
  17 C :   -0.078321
  18 C :   -0.045550
  19 C :    0.005885
  20 C :   -0.201591
  21 H :    0.022414
  22 C :    0.066506
  23 H :    0.025098
  24 H :    0.033669
  25 C :   -0.099558
  26 H :    0.003074
  27 H :    0.029280
  28 C :   -0.042060
  29 H :    0.038887
  30 H :    0.046701
  31 H :    0.039083
  32 H :    0.043596
  33 H :    0.049852
Sum of atomic charges:   -0.0000000

LOEWDIN ATOMIC CHARGES
----------------------
   0 S :    0.382741
   1 C :   -0.179026
   2 C :   -0.066695
   3 C :   -0.057801
   4 C :   -0.193862
   5 H :    0.020403
   6 C :   -0.032787
   7 H :    0.031903
   8 H :    0.037925
   9 C :   -0.040560
  10 H :    0.022556
  11 H :    0.029356
  12 C :   -0.061689
  13 H :    0.021399
  14 H :    0.028921
  15 H :    0.023345
  16 S :    0.407010
  17 C :   -0.186050
  18 C :   -0.074548
  19 C :   -0.051294
  20 C :   -0.194937
  21 H :    0.034636
  22 C :   -0.032675
  23 H :    0.032113
  24 H :    0.034818
  25 C :   -0.041597
  26 H :    0.014848
  27 H :    0.024573
  28 C :   -0.067142
  29 H :    0.028455
  30 H :    0.028226
  31 H :    0.032307
  32 H :    0.020075
  33 H :    0.025051

  Mayer bond orders larger than 0.100000
B(  0-S ,  1-C ) :   1.1431 B(  0-S ,  4-C ) :   1.1447 B(  1-C ,  2-C ) :   1.6111
B(  1-C , 32-H ) :   0.9713 B(  2-C ,  3-C ) :   1.2375 B(  2-C ,  6-C ) :   1.0012
B(  3-C ,  4-C ) :   1.5896 B(  3-C ,  5-H ) :   0.9841 B(  4-C , 20-C ) :   1.0079
B(  6-C ,  7-H ) :   0.9455 B(  6-C ,  8-H ) :   0.9397 B(  6-C ,  9-C ) :   1.0710
B(  9-C , 10-H ) :   0.9601 B(  9-C , 11-H ) :   0.9560 B(  9-C , 12-C ) :   1.0668
B( 12-C , 13-H ) :   0.9766 B( 12-C , 14-H ) :   0.9775 B( 12-C , 15-H ) :   0.9761
B( 16-S , 17-C ) :   1.1539 B( 16-S , 20-C ) :   1.1547 B( 17-C , 18-C ) :   1.6022
B( 17-C , 33-H ) :   0.9695 B( 18-C , 19-C ) :   1.2620 B( 18-C , 21-H ) :   0.9797
B( 19-C , 20-C ) :   1.5976 B( 19-C , 22-C ) :   1.0487 B( 22-C , 23-H ) :   0.9389
B( 22-C , 24-H ) :   0.9240 B( 22-C , 25-C ) :   1.0682 B( 25-C , 26-H ) :   0.9492
B( 25-C , 27-H ) :   0.9580 B( 25-C , 28-C ) :   1.0774 B( 28-C , 29-H ) :   0.9735
B( 28-C , 30-H ) :   0.9752 B( 28-C , 31-H ) :   0.9760

Dispersion correction           -0.014280359
FINAL SINGLE POINT ENERGY     -1339.883528898859

DIPOLE MOMENT
-------------
                                X             Y             Z
Electronic contribution:    -26.35333      -6.21356      -0.99564
Nuclear contribution   :     27.00494       6.52578       1.10238
                        -----------------------------------------
Total Dipole Moment    :      0.65161       0.31222       0.10675
                        -----------------------------------------
Magnitude (a.u.)       :      0.73039
Magnitude (Debye)      :      1.85651

Rotational constants in cm-1:     0.017315     0.008649     0.006949
Rotational constants in MHz :   519.100656   259.300790   208.319393

                             ****ORCA TERMINATED NORMALLY****
TOTAL RUN TIME: 0 days 0 hours 0 minutes 34 seconds 358 msec
