                         Program Version 4.2.1 -  RELEASE  -
|  1> ! wB97X-D3 SP def2-SVP
|  2> %pal
|  3> nprocs 16
|  4> end
|  5>
|  6> * xyz 0 1
|  7> S 	 -98.1604 	 39.0602 	 121.233
|  8> C 	 -96.6784 	 39.0196 	 120.277
|  9> C 	 -96.2918 	 40.2547 	 119.794
| 10> C 	 -97.2163 	 41.2606 	 120.196
| 11> C 	 -98.3584 	 40.7464 	 120.802
| 12> H 	 -97.2568 	 42.3284 	 119.961
| 13> C 	 -95.052 	 40.5801 	 118.901
| 14> H 	 -94.126 	 40.2178 	 119.381
| 15> H 	 -94.9965 	 41.6743 	 118.952
| 16> C 	 -95.0049 	 40.0647 	 117.459
| 17> H 	 -95.1206 	 38.9533 	 117.372
| 18> H 	 -95.9028 	 40.4678 	 116.974
| 19> C 	 -93.7959 	 40.5443 	 116.659
| 20> H 	 -92.8509 	 40.0834 	 116.866
| 21> H 	 -94.0376 	 40.3342 	 115.611
| 22> H 	 -93.6242 	 41.6098 	 116.877
| 23> S 	 -101.091 	 41.2625 	 120.513
| 24> C 	 -101.818 	 42.6423 	 121.278
| 25> C 	 -100.901 	 43.297 	 122.039
| 26> C 	 -99.6012 	 42.7228 	 121.976
| 27> C 	 -99.5019 	 41.5746 	 121.211
| 28> H 	 -101.167 	 44.1477 	 122.56
| 29> C 	 -98.4963 	 43.4115 	 122.771
| 30> H 	 -98.5175 	 44.4952 	 122.576
| 31> H 	 -97.5225 	 43.1968 	 122.295
| 32> C 	 -98.5402 	 42.9625 	 124.253
| 33> H 	 -98.1266 	 41.9729 	 124.414
| 34> H 	 -99.5027 	 43.0396 	 124.594
| 35> C 	 -97.6514 	 43.9001 	 125.037
| 36> H 	 -98.1174 	 44.8277 	 125.219
| 37> H 	 -96.5894 	 44.1164 	 124.78
| 38> H 	 -97.5937 	 43.2882 	 125.903
| 39> H 	 -96.0146 	 38.1932 	 120.1
| 40> H 	 -102.869 	 42.805 	 121.408
| 41> *
| 42>
| 43>                          ****END OF INPUT****

CARTESIAN COORDINATES (ANGSTROEM)
---------------------------------
  S    -98.160400   39.060200  121.233000
  C    -96.678400   39.019600  120.277000
  C    -96.291800   40.254700  119.794000
  C    -97.216300   41.260600  120.196000
  C    -98.358400   40.746400  120.802000
  H    -97.256800   42.328400  119.961000
  C    -95.052000   40.580100  118.901000
  H    -94.126000   40.217800  119.381000
  H    -94.996500   41.674300  118.952000
  C    -95.004900   40.064700  117.459000
  H    -95.120600   38.953300  117.372000
  H    -95.902800   40.467800  116.974000
  C    -93.795900   40.544300  116.659000
  H    -92.850900   40.083400  116.866000
  H    -94.037600   40.334200  115.611000
  H    -93.624200   41.609800  116.877000
  S    -101.091000   41.262500  120.513000
  C    -101.818000   42.642300  121.278000
  C    -100.901000   43.297000  122.039000
  C    -99.601200   42.722800  121.976000
  C    -99.501900   41.574600  121.211000
  H    -101.167000   44.147700  122.560000
  C    -98.496300   43.411500  122.771000
  H    -98.517500   44.495200  122.576000
  H    -97.522500   43.196800  122.295000
  C    -98.540200   42.962500  124.253000
  H    -98.126600   41.972900  124.414000
  H    -99.502700   43.039600  124.594000
  C    -97.651400   43.900100  125.037000
  H    -98.117400   44.827700  125.219000
  H    -96.589400   44.116400  124.780000
  H    -97.593700   43.288200  125.903000
  H    -96.014600   38.193200  120.100000
  H    -102.869000   42.805000  121.408000

 Total Charge           Charge          ....    0
 Multiplicity           Mult            ....    1
 Number of Electrons    NEL             ....  134
 Basis Dimension        Dim             ....  322

ORBITAL ENERGIES
----------------

  NO   OCC          E(Eh)            E(eV)
   0   2.0000     -88.971966     -2421.0503
   1   2.0000     -88.959196     -2420.7028
   2   2.0000     -10.329560      -281.0816
   3   2.0000     -10.324851      -280.9535
   4   2.0000     -10.313792      -280.6526
   5   2.0000     -10.311195      -280.5819
   6   2.0000     -10.304145      -280.3900
   7   2.0000     -10.298653      -280.2406
   8   2.0000     -10.297643      -280.2131
   9   2.0000     -10.295600      -280.1575
  10   2.0000     -10.291005      -280.0325
  11   2.0000     -10.287884      -279.9476
  12   2.0000     -10.282540      -279.8021
  13   2.0000     -10.279839      -279.7286
  14   2.0000     -10.278933      -279.7040
  15   2.0000     -10.266935      -279.3775
  16   2.0000      -8.086023      -220.0319
  17   2.0000      -8.074211      -219.7105
  18   2.0000      -6.044495      -164.4791
  19   2.0000      -6.040746      -164.3771
  20   2.0000      -6.036736      -164.2679
  21   2.0000      -6.032785      -164.1604
  22   2.0000      -6.028531      -164.0447
  23   2.0000      -6.025030      -163.9494
  24   2.0000      -1.004432       -27.3320
  25   2.0000      -0.984235       -26.7824
  26   2.0000      -0.910923       -24.7875
  27   2.0000      -0.908066       -24.7097
  28   2.0000      -0.869636       -23.6640
  29   2.0000      -0.853008       -23.2115
  30   2.0000      -0.848445       -23.0874
  31   2.0000      -0.813710       -22.1422
  32   2.0000      -0.782059       -21.2809
  33   2.0000      -0.768958       -20.9244
  34   2.0000      -0.705364       -19.1939
  35   2.0000      -0.701147       -19.0792
  36   2.0000      -0.695411       -18.9231
  37   2.0000      -0.662849       -18.0370
  38   2.0000      -0.640191       -17.4205
  39   2.0000      -0.615237       -16.7415
  40   2.0000      -0.594826       -16.1860
  41   2.0000      -0.572865       -15.5885
  42   2.0000      -0.569949       -15.5091
  43   2.0000      -0.559263       -15.2183
  44   2.0000      -0.531281       -14.4569
  45   2.0000      -0.526414       -14.3245
  46   2.0000      -0.514833       -14.0093
  47   2.0000      -0.511190       -13.9102
  48   2.0000      -0.503855       -13.7106
  49   2.0000      -0.499365       -13.5884
  50   2.0000      -0.493919       -13.4402
  51   2.0000      -0.475657       -12.9433
  52   2.0000      -0.471276       -12.8241
  53   2.0000      -0.463401       -12.6098
  54   2.0000      -0.460540       -12.5319
  55   2.0000      -0.452040       -12.3006
  56   2.0000      -0.446201       -12.1417
  57   2.0000      -0.441403       -12.0112
  58   2.0000      -0.429913       -11.6985
  59   2.0000      -0.426849       -11.6151
  60   2.0000      -0.422020       -11.4837
  61   2.0000      -0.414078       -11.2676
  62   2.0000      -0.396380       -10.7861
  63   2.0000      -0.340083        -9.2541
  64   2.0000      -0.334217        -9.0945
  65   2.0000      -0.325109        -8.8467
  66   2.0000      -0.298457        -8.1214
  67   0.0000       0.033101         0.9007
  68   0.0000       0.067595         1.8394
  69   0.0000       0.110919         3.0183
  70   0.0000       0.127525         3.4701
  71   0.0000       0.133355         3.6288

MULLIKEN ATOMIC CHARGES
-----------------------
   0 S :    0.130538
   1 C :   -0.104101
   2 C :   -0.084468
   3 C :    0.025635
   4 C :   -0.167156
   5 H :    0.025863
   6 C :    0.060580
   7 H :    0.029578
   8 H :    0.018929
   9 C :   -0.079925
  10 H :    0.036556
  11 H :    0.029669
  12 C :   -0.045074
  13 H :    0.027756
  14 H :    0.043470
  15 H :    0.030144
  16 S :    0.092447
  17 C :   -0.072862
  18 C :   -0.017937
  19 C :   -0.042896
  20 C :   -0.168375
  21 H :   -0.010138
  22 C :    0.046903
  23 H :    0.026895
  24 H :    0.006774
  25 C :   -0.017444
  26 H :    0.037471
  27 H :    0.011058
  28 C :   -0.033628
  29 H :    0.022023
  30 H :    0.035148
  31 H :    0.015607
  32 H :    0.034816
  33 H :    0.056143
Sum of atomic charges:   -0.0000000

LOEWDIN ATOMIC CHARGES
----------------------
   0 S :    0.408594
   1 C :   -0.191363
   2 C :   -0.063430
   3 C :   -0.059467
   4 C :   -0.197160
   5 H :    0.035103
   6 C :   -0.033475
   7 H :    0.030357
   8 H :    0.029531
   9 C :   -0.046002
  10 H :    0.027835
  11 H :    0.026315
  12 C :   -0.065190
  13 H :    0.020080
  14 H :    0.033155
  15 H :    0.027720
  16 S :    0.400463
  17 C :   -0.183209
  18 C :   -0.067809
  19 C :   -0.057408
  20 C :   -0.204212
  21 H :    0.019025
  22 C :   -0.037172
  23 H :    0.030755
  24 H :    0.027127
  25 C :   -0.017332
  26 H :    0.030826
  27 H :    0.014928
  28 C :   -0.064480
  29 H :    0.016023
  30 H :    0.029446
  31 H :    0.024246
  32 H :    0.026174
  33 H :    0.030006

  Mayer bond orders larger than 0.100000
B(  0-S ,  1-C ) :   1.1344 B(  0-S ,  4-C ) :   1.1495 B(  1-C ,  2-C ) :   1.6276
B(  1-C , 32-H ) :   0.9670 B(  2-C ,  3-C ) :   1.2431 B(  2-C ,  6-C ) :   1.0084
B(  3-C ,  4-C ) :   1.5941 B(  3-C ,  5-H ) :   0.9838 B(  4-C , 20-C ) :   1.0221
B(  6-C ,  7-H ) :   0.9395 B(  6-C ,  8-H ) :   0.9418 B(  6-C ,  9-C ) :   1.0659
B(  9-C , 10-H ) :   0.9540 B(  9-C , 11-H ) :   0.9546 B(  9-C , 12-C ) :   1.0794
B( 12-C , 13-H ) :   0.9757 B( 12-C , 14-H ) :   0.9746 B( 12-C , 15-H ) :   0.9736
B( 16-S , 17-C ) :   1.1636 B( 16-S , 20-C ) :   1.1320 B( 17-C , 18-C ) :   1.6033
B( 17-C , 33-H ) :   0.9637 B( 18-C , 19-C ) :   1.2476 B( 18-C , 21-H ) :   1.0029
B( 19-C , 20-C ) :   1.6038 B( 19-C , 22-C ) :   1.0382 B( 22-C , 23-H ) :   0.9457
B( 22-C , 24-H ) :   0.9270 B( 22-C , 25-C ) :   1.0597 B( 25-C , 26-H ) :   0.9608
B( 25-C , 27-H ) :   0.9565 B( 25-C , 28-C ) :   1.0731 B( 28-C , 29-H ) :   0.9772
B( 28-C , 30-H ) :   0.9750 B( 28-C , 31-H ) :   0.9760

Dispersion correction           -0.013639964
FINAL SINGLE POINT ENERGY     -1339.865526667505

DIPOLE MOMENT
-------------
                                X             Y             Z
Electronic contribution:    -21.60746     -11.45411       0.33857
Nuclear contribution   :     22.06801      11.86453      -0.23562
                        -----------------------------------------
Total Dipole Moment    :      0.46055       0.41043       0.10295
                        -----------------------------------------
Magnitude (a.u.)       :      0.62543
Magnitude (Debye)      :      1.58971

Rotational constants in cm-1:     0.018877     0.007276     0.006387
Rotational constants in MHz :   565.919827   218.139966   191.477188

                             ****ORCA TERMINATED NORMALLY****
TOTAL RUN TIME: 0 days 0 hours 0 minutes 32 seconds 169 msec
