                         Program Version 4.2.1 -  RELEASE  -
|  1> ! wB97X-D3 SP def2-SVP
|  2> %pal
|  3> nprocs 16
|  4> end
|  5>
|  6> * xyz 0 1
|  7> S 	 6.79483 	 -3.53451 	 97.7039
|  8> C 	 5.53858 	 -4.57754 	 98.3443
|  9> C 	 5.67942 	 -5.90467 	 98.033
| 10> C 	 6.80132 	 -6.03657 	 97.1556
| 11> C 	 7.46395 	 -4.86271 	 96.8727
| 12> H 	 7.11964 	 -6.99402 	 96.814
| 13> C 	 4.87764 	 -7.06148 	 98.5697
| 14> H 	 4.59412 	 -7.84577 	 97.8371
| 15> H 	 3.93401 	 -6.83394 	 98.8875
| 16> C 	 5.6546 	 -7.80707 	 99.6552
| 17> H 	 5.2669 	 -8.83731 	 99.8126
| 18> H 	 6.71146 	 -7.97602 	 99.3719
| 19> C 	 5.52519 	 -7.02993 	 100.983
| 20> H 	 6.14782 	 -6.13687 	 100.842
| 21> H 	 4.46273 	 -6.76832 	 101.255
| 22> H 	 6.02975 	 -7.71467 	 101.716
| 23> S 	 10.1467 	 -4.25 	 97.1513
| 24> C 	 11.079 	 -4.1663 	 95.6562
| 25> C 	 10.2563 	 -4.29974 	 94.5413
| 26> C 	 8.9164 	 -4.64481 	 94.8537
| 27> C 	 8.70762 	 -4.72123 	 96.1922
| 28> H 	 10.6205 	 -4.05937 	 93.5737
| 29> C 	 7.74973 	 -4.77003 	 93.7899
| 30> H 	 7.19474 	 -5.7471 	 93.8628
| 31> H 	 8.25589 	 -5.05574 	 92.8705
| 32> C 	 6.91472 	 -3.46453 	 93.5085
| 33> H 	 7.68665 	 -2.69319 	 93.452
| 34> H 	 6.35732 	 -3.10843 	 94.4414
| 35> C 	 6.01206 	 -3.52935 	 92.2128
| 36> H 	 5.17806 	 -2.78689 	 92.1983
| 37> H 	 5.53356 	 -4.51752 	 92.1492
| 38> H 	 6.56514 	 -3.6113 	 91.2892
| 39> H 	 4.73422 	 -4.22706 	 98.8813
| 40> H 	 12.1112 	 -4.00057 	 95.5578
| 41> *
| 42>
| 43>                          ****END OF INPUT****

CARTESIAN COORDINATES (ANGSTROEM)
---------------------------------
  S      6.794830   -3.534510   97.703900
  C      5.538580   -4.577540   98.344300
  C      5.679420   -5.904670   98.033000
  C      6.801320   -6.036570   97.155600
  C      7.463950   -4.862710   96.872700
  H      7.119640   -6.994020   96.814000
  C      4.877640   -7.061480   98.569700
  H      4.594120   -7.845770   97.837100
  H      3.934010   -6.833940   98.887500
  C      5.654600   -7.807070   99.655200
  H      5.266900   -8.837310   99.812600
  H      6.711460   -7.976020   99.371900
  C      5.525190   -7.029930  100.983000
  H      6.147820   -6.136870  100.842000
  H      4.462730   -6.768320  101.255000
  H      6.029750   -7.714670  101.716000
  S     10.146700   -4.250000   97.151300
  C     11.079000   -4.166300   95.656200
  C     10.256300   -4.299740   94.541300
  C      8.916400   -4.644810   94.853700
  C      8.707620   -4.721230   96.192200
  H     10.620500   -4.059370   93.573700
  C      7.749730   -4.770030   93.789900
  H      7.194740   -5.747100   93.862800
  H      8.255890   -5.055740   92.870500
  C      6.914720   -3.464530   93.508500
  H      7.686650   -2.693190   93.452000
  H      6.357320   -3.108430   94.441400
  C      6.012060   -3.529350   92.212800
  H      5.178060   -2.786890   92.198300
  H      5.533560   -4.517520   92.149200
  H      6.565140   -3.611300   91.289200
  H      4.734220   -4.227060   98.881300
  H     12.111200   -4.000570   95.557800

 Total Charge           Charge          ....    0
 Multiplicity           Mult            ....    1
 Number of Electrons    NEL             ....  134
 Basis Dimension        Dim             ....  322

ORBITAL ENERGIES
----------------

  NO   OCC          E(Eh)            E(eV)
   0   2.0000     -88.967321     -2420.9239
   1   2.0000     -88.966735     -2420.9079
   2   2.0000     -10.320452      -280.8338
   3   2.0000     -10.319332      -280.8033
   4   2.0000     -10.316349      -280.7221
   5   2.0000     -10.305584      -280.4292
   6   2.0000     -10.302796      -280.3533
   7   2.0000     -10.300412      -280.2885
   8   2.0000     -10.299510      -280.2639
   9   2.0000     -10.297342      -280.2049
  10   2.0000     -10.291852      -280.0555
  11   2.0000     -10.288916      -279.9756
  12   2.0000     -10.287955      -279.9495
  13   2.0000     -10.286998      -279.9234
  14   2.0000     -10.284841      -279.8648
  15   2.0000     -10.281193      -279.7655
  16   2.0000      -8.082722      -219.9420
  17   2.0000      -8.080659      -219.8859
  18   2.0000      -6.041110      -164.3869
  19   2.0000      -6.039230      -164.3358
  20   2.0000      -6.037183      -164.2801
  21   2.0000      -6.035429      -164.2324
  22   2.0000      -6.033520      -164.1804
  23   2.0000      -6.031253      -164.1187
  24   2.0000      -1.011377       -27.5210
  25   2.0000      -0.983219       -26.7547
  26   2.0000      -0.917101       -24.9556
  27   2.0000      -0.891719       -24.2649
  28   2.0000      -0.869521       -23.6609
  29   2.0000      -0.847513       -23.0620
  30   2.0000      -0.842768       -22.9329
  31   2.0000      -0.810048       -22.0425
  32   2.0000      -0.784094       -21.3363
  33   2.0000      -0.773993       -21.0614
  34   2.0000      -0.710284       -19.3278
  35   2.0000      -0.698673       -19.0119
  36   2.0000      -0.689922       -18.7737
  37   2.0000      -0.663598       -18.0574
  38   2.0000      -0.649341       -17.6695
  39   2.0000      -0.626753       -17.0548
  40   2.0000      -0.592656       -16.1270
  41   2.0000      -0.571710       -15.5570
  42   2.0000      -0.549642       -14.9565
  43   2.0000      -0.543857       -14.7991
  44   2.0000      -0.534032       -14.5317
  45   2.0000      -0.523336       -14.2407
  46   2.0000      -0.515197       -14.0192
  47   2.0000      -0.508458       -13.8359
  48   2.0000      -0.501470       -13.6457
  49   2.0000      -0.496061       -13.4985
  50   2.0000      -0.489425       -13.3179
  51   2.0000      -0.476257       -12.9596
  52   2.0000      -0.470679       -12.8078
  53   2.0000      -0.464687       -12.6448
  54   2.0000      -0.452561       -12.3148
  55   2.0000      -0.450050       -12.2465
  56   2.0000      -0.446679       -12.1547
  57   2.0000      -0.441807       -12.0222
  58   2.0000      -0.433394       -11.7932
  59   2.0000      -0.423869       -11.5341
  60   2.0000      -0.421370       -11.4661
  61   2.0000      -0.408755       -11.1228
  62   2.0000      -0.403312       -10.9747
  63   2.0000      -0.338088        -9.1998
  64   2.0000      -0.335293        -9.1238
  65   2.0000      -0.328327        -8.9342
  66   2.0000      -0.298961        -8.1351
  67   0.0000       0.041433         1.1274
  68   0.0000       0.055688         1.5153
  69   0.0000       0.113274         3.0823
  70   0.0000       0.123892         3.3713
  71   0.0000       0.125029         3.4022

MULLIKEN ATOMIC CHARGES
-----------------------
   0 S :    0.123888
   1 C :   -0.095743
   2 C :   -0.075230
   3 C :    0.054962
   4 C :   -0.161712
   5 H :   -0.008009
   6 C :    0.118911
   7 H :    0.023378
   8 H :   -0.013308
   9 C :   -0.113824
  10 H :    0.028707
  11 H :    0.038282
  12 C :   -0.072732
  13 H :    0.047631
  14 H :    0.043485
  15 H :    0.041781
  16 S :    0.108058
  17 C :   -0.073838
  18 C :   -0.026023
  19 C :   -0.031372
  20 C :   -0.173821
  21 H :    0.005563
  22 C :    0.067269
  23 H :    0.033152
  24 H :    0.001563
  25 C :   -0.065551
  26 H :    0.025843
  27 H :    0.045247
  28 C :   -0.048546
  29 H :    0.052919
  30 H :    0.022448
  31 H :    0.028515
  32 H :    0.007570
  33 H :    0.040537
Sum of atomic charges:   -0.0000000

LOEWDIN ATOMIC CHARGES
----------------------
   0 S :    0.426609
   1 C :   -0.181280
   2 C :   -0.055462
   3 C :   -0.047689
   4 C :   -0.211610
   5 H :    0.023934
   6 C :   -0.029934
   7 H :    0.037018
   8 H :    0.015036
   9 C :   -0.042697
  10 H :    0.021822
  11 H :    0.027380
  12 C :   -0.072246
  13 H :    0.028001
  14 H :    0.028849
  15 H :    0.030853
  16 S :    0.381580
  17 C :   -0.171361
  18 C :   -0.065076
  19 C :   -0.055438
  20 C :   -0.187334
  21 H :    0.025487
  22 C :   -0.038098
  23 H :    0.035463
  24 H :    0.024807
  25 C :   -0.044496
  26 H :    0.023370
  27 H :    0.031270
  28 C :   -0.074766
  29 H :    0.035132
  30 H :    0.027848
  31 H :    0.024922
  32 H :    0.007446
  33 H :    0.020659

  Mayer bond orders larger than 0.100000
B(  0-S ,  1-C ) :   1.1387 B(  0-S ,  4-C ) :   1.1540 B(  1-C ,  2-C ) :   1.6176
B(  1-C , 32-H ) :   0.9730 B(  2-C ,  3-C ) :   1.2416 B(  2-C ,  6-C ) :   1.0341
B(  3-C ,  4-C ) :   1.5836 B(  3-C ,  5-H ) :   0.9992 B(  4-C , 20-C ) :   1.0323
B(  6-C ,  7-H ) :   0.9347 B(  6-C ,  8-H ) :   0.9360 B(  6-C ,  9-C ) :   1.0640
B(  9-C , 10-H ) :   0.9574 B(  9-C , 11-H ) :   0.9578 B(  9-C , 12-C ) :   1.0677
B( 12-C , 13-H ) :   0.9763 B( 12-C , 14-H ) :   0.9750 B( 12-C , 15-H ) :   0.9738
B( 16-S , 17-C ) :   1.1411 B( 16-S , 20-C ) :   1.1291 B( 17-C , 18-C ) :   1.6234
B( 17-C , 20-C ) :   0.1000 B( 17-C , 33-H ) :   0.9725 B( 18-C , 19-C ) :   1.2415
B( 18-C , 21-H ) :   0.9916 B( 19-C , 20-C ) :   1.6367 B( 19-C , 22-C ) :   1.0305
B( 22-C , 23-H ) :   0.9349 B( 22-C , 24-H ) :   0.9316 B( 22-C , 25-C ) :   1.0407
B( 25-C , 26-H ) :   0.9558 B( 25-C , 27-H ) :   0.9588 B( 25-C , 28-C ) :   1.0612
B( 28-C , 29-H ) :   0.9768 B( 28-C , 30-H ) :   0.9746 B( 28-C , 31-H ) :   0.9742

Dispersion correction           -0.014788011
FINAL SINGLE POINT ENERGY     -1339.862978142957

DIPOLE MOMENT
-------------
                                X             Y             Z
Electronic contribution:     15.26222       9.95128       5.14972
Nuclear contribution   :    -15.51204     -10.27526      -5.44507
                        -----------------------------------------
Total Dipole Moment    :     -0.24981      -0.32398      -0.29536
                        -----------------------------------------
Magnitude (a.u.)       :      0.50458
Magnitude (Debye)      :      1.28255

Rotational constants in cm-1:     0.019426     0.008635     0.007009
Rotational constants in MHz :   582.365179   258.869373   210.133672

                             ****ORCA TERMINATED NORMALLY****
TOTAL RUN TIME: 0 days 0 hours 0 minutes 31 seconds 924 msec
