                         Program Version 4.2.1 -  RELEASE  -
|  1> ! wB97X-D3 SP def2-SVP
|  2> %pal
|  3> nprocs 16
|  4> end
|  5>
|  6> * xyz 0 1
|  7> S 	 -33.0203 	 66.2421 	 98.6956
|  8> C 	 -33.6858 	 65.0266 	 99.8301
|  9> C 	 -33.2006 	 65.1782 	 101.12
| 10> C 	 -32.2408 	 66.2549 	 101.192
| 11> C 	 -32.0238 	 66.864 	 99.97
| 12> H 	 -31.8785 	 66.5975 	 102.045
| 13> C 	 -33.8319 	 64.5094 	 102.383
| 14> H 	 -33.0008 	 64.49 	 103.119
| 15> H 	 -34.1862 	 63.4379 	 102.055
| 16> C 	 -35.0514 	 65.2962 	 103.006
| 17> H 	 -35.92 	 65.3094 	 102.272
| 18> H 	 -35.4495 	 64.6898 	 103.849
| 19> C 	 -34.7202 	 66.7362 	 103.334
| 20> H 	 -33.9621 	 66.8949 	 104.105
| 21> H 	 -34.39 	 67.4116 	 102.506
| 22> H 	 -35.634 	 67.202 	 103.635
| 23> S 	 -31.226 	 69.1468 	 98.5567
| 24> C 	 -29.6984 	 69.9057 	 98.9008
| 25> C 	 -29.0087 	 69.1762 	 99.8109
| 26> C 	 -29.7424 	 68.0236 	 100.322
| 27> C 	 -31.0086 	 67.8844 	 99.7661
| 28> H 	 -27.9705 	 69.4278 	 100.117
| 29> C 	 -29.0681 	 67.0967 	 101.311
| 30> H 	 -29.7474 	 66.7228 	 102.117
| 31> H 	 -28.4424 	 67.7001 	 101.924
| 32> C 	 -28.1692 	 66.0289 	 100.704
| 33> H 	 -27.3879 	 65.7122 	 101.379
| 34> H 	 -27.5301 	 66.3656 	 99.9103
| 35> C 	 -29.0067 	 64.794 	 100.213
| 36> H 	 -29.6908 	 65.1818 	 99.4361
| 37> H 	 -29.6334 	 64.2175 	 100.92
| 38> H 	 -28.3484 	 64.0615 	 99.6505
| 39> H 	 -34.5565 	 64.3599 	 99.7871
| 40> H 	 -29.314 	 70.6516 	 98.2941
| 41> *
| 42>
| 43>                          ****END OF INPUT****

CARTESIAN COORDINATES (ANGSTROEM)
---------------------------------
  S    -33.020300   66.242100   98.695600
  C    -33.685800   65.026600   99.830100
  C    -33.200600   65.178200  101.120000
  C    -32.240800   66.254900  101.192000
  C    -32.023800   66.864000   99.970000
  H    -31.878500   66.597500  102.045000
  C    -33.831900   64.509400  102.383000
  H    -33.000800   64.490000  103.119000
  H    -34.186200   63.437900  102.055000
  C    -35.051400   65.296200  103.006000
  H    -35.920000   65.309400  102.272000
  H    -35.449500   64.689800  103.849000
  C    -34.720200   66.736200  103.334000
  H    -33.962100   66.894900  104.105000
  H    -34.390000   67.411600  102.506000
  H    -35.634000   67.202000  103.635000
  S    -31.226000   69.146800   98.556700
  C    -29.698400   69.905700   98.900800
  C    -29.008700   69.176200   99.810900
  C    -29.742400   68.023600  100.322000
  C    -31.008600   67.884400   99.766100
  H    -27.970500   69.427800  100.117000
  C    -29.068100   67.096700  101.311000
  H    -29.747400   66.722800  102.117000
  H    -28.442400   67.700100  101.924000
  C    -28.169200   66.028900  100.704000
  H    -27.387900   65.712200  101.379000
  H    -27.530100   66.365600   99.910300
  C    -29.006700   64.794000  100.213000
  H    -29.690800   65.181800   99.436100
  H    -29.633400   64.217500  100.920000
  H    -28.348400   64.061500   99.650500
  H    -34.556500   64.359900   99.787100
  H    -29.314000   70.651600   98.294100

 Total Charge           Charge          ....    0
 Multiplicity           Mult            ....    1
 Number of Electrons    NEL             ....  134
 Basis Dimension        Dim             ....  322

ORBITAL ENERGIES
----------------

  NO   OCC          E(Eh)            E(eV)
   0   2.0000     -88.974381     -2421.1160
   1   2.0000     -88.961947     -2420.7776
   2   2.0000     -10.331077      -281.1229
   3   2.0000     -10.329691      -281.0852
   4   2.0000     -10.315822      -280.7078
   5   2.0000     -10.313220      -280.6370
   6   2.0000     -10.311370      -280.5867
   7   2.0000     -10.306397      -280.4513
   8   2.0000     -10.302826      -280.3541
   9   2.0000     -10.301037      -280.3055
  10   2.0000     -10.298238      -280.2293
  11   2.0000     -10.290189      -280.0103
  12   2.0000     -10.285574      -279.8847
  13   2.0000     -10.284457      -279.8543
  14   2.0000     -10.277805      -279.6733
  15   2.0000     -10.276765      -279.6450
  16   2.0000      -8.088111      -220.0887
  17   2.0000      -8.077153      -219.7905
  18   2.0000      -6.046804      -164.5419
  19   2.0000      -6.042852      -164.4344
  20   2.0000      -6.038632      -164.3195
  21   2.0000      -6.035768      -164.2416
  22   2.0000      -6.031530      -164.1263
  23   2.0000      -6.027858      -164.0264
  24   2.0000      -1.006885       -27.3987
  25   2.0000      -0.982614       -26.7383
  26   2.0000      -0.906474       -24.6664
  27   2.0000      -0.905760       -24.6470
  28   2.0000      -0.870096       -23.6765
  29   2.0000      -0.849477       -23.1154
  30   2.0000      -0.838201       -22.8086
  31   2.0000      -0.816039       -22.2055
  32   2.0000      -0.780772       -21.2459
  33   2.0000      -0.771963       -21.0062
  34   2.0000      -0.709032       -19.2937
  35   2.0000      -0.701884       -19.0992
  36   2.0000      -0.696438       -18.9510
  37   2.0000      -0.662910       -18.0387
  38   2.0000      -0.637687       -17.3523
  39   2.0000      -0.617496       -16.8029
  40   2.0000      -0.599909       -16.3244
  41   2.0000      -0.568851       -15.4792
  42   2.0000      -0.551259       -15.0005
  43   2.0000      -0.544568       -14.8184
  44   2.0000      -0.539306       -14.6753
  45   2.0000      -0.521926       -14.2023
  46   2.0000      -0.519742       -14.1429
  47   2.0000      -0.515406       -14.0249
  48   2.0000      -0.500958       -13.6318
  49   2.0000      -0.496039       -13.4979
  50   2.0000      -0.485634       -13.2148
  51   2.0000      -0.478711       -13.0264
  52   2.0000      -0.473220       -12.8770
  53   2.0000      -0.464294       -12.6341
  54   2.0000      -0.462601       -12.5880
  55   2.0000      -0.446551       -12.1513
  56   2.0000      -0.440120       -11.9763
  57   2.0000      -0.436552       -11.8792
  58   2.0000      -0.429523       -11.6879
  59   2.0000      -0.426026       -11.5928
  60   2.0000      -0.415327       -11.3016
  61   2.0000      -0.413520       -11.2525
  62   2.0000      -0.405495       -11.0341
  63   2.0000      -0.356238        -9.6937
  64   2.0000      -0.334380        -9.0989
  65   2.0000      -0.328120        -8.9286
  66   2.0000      -0.289131        -7.8677
  67   0.0000       0.022085         0.6010
  68   0.0000       0.077667         2.1134
  69   0.0000       0.101529         2.7627
  70   0.0000       0.116250         3.1633
  71   0.0000       0.134830         3.6689

MULLIKEN ATOMIC CHARGES
-----------------------
   0 S :    0.124604
   1 C :   -0.100635
   2 C :   -0.107587
   3 C :    0.054725
   4 C :   -0.113333
   5 H :   -0.052184
   6 C :    0.006798
   7 H :    0.036852
   8 H :    0.049511
   9 C :   -0.062595
  10 H :    0.032308
  11 H :    0.044739
  12 C :   -0.069714
  13 H :    0.030612
  14 H :    0.057297
  15 H :    0.026296
  16 S :    0.077770
  17 C :   -0.052102
  18 C :   -0.033747
  19 C :   -0.070094
  20 C :   -0.131128
  21 H :    0.031538
  22 C :    0.078320
  23 H :    0.023535
  24 H :   -0.000093
  25 C :   -0.031905
  26 H :    0.018271
  27 H :    0.017048
  28 C :   -0.083140
  29 H :    0.040453
  30 H :    0.041901
  31 H :    0.032481
  32 H :    0.043861
  33 H :    0.039335
Sum of atomic charges:    0.0000000

LOEWDIN ATOMIC CHARGES
----------------------
   0 S :    0.403443
   1 C :   -0.198378
   2 C :   -0.059148
   3 C :   -0.045477
   4 C :   -0.190425
   5 H :    0.000764
   6 C :   -0.038745
   7 H :    0.030072
   8 H :    0.041473
   9 C :   -0.043882
  10 H :    0.029967
  11 H :    0.030345
  12 C :   -0.076595
  13 H :    0.022595
  14 H :    0.038215
  15 H :    0.025821
  16 S :    0.390242
  17 C :   -0.172653
  18 C :   -0.070230
  19 C :   -0.055388
  20 C :   -0.192704
  21 H :    0.037531
  22 C :   -0.036303
  23 H :    0.034915
  24 H :    0.026284
  25 C :   -0.037184
  26 H :    0.021188
  27 H :    0.025302
  28 C :   -0.075150
  29 H :    0.028764
  30 H :    0.025741
  31 H :    0.027568
  32 H :    0.033678
  33 H :    0.018355

  Mayer bond orders larger than 0.100000
B(  0-S ,  1-C ) :   1.1109 B(  0-S ,  4-C ) :   1.1414 B(  1-C ,  2-C ) :   1.6510
B(  1-C , 32-H ) :   0.9560 B(  2-C ,  3-C ) :   1.2232 B(  2-C ,  6-C ) :   1.0191
B(  3-C ,  4-C ) :   1.5542 B(  3-C ,  5-H ) :   1.0212 B(  4-C , 20-C ) :   1.0719
B(  6-C ,  7-H ) :   0.9441 B(  6-C ,  8-H ) :   0.9429 B(  6-C ,  9-C ) :   1.0557
B(  9-C , 10-H ) :   0.9548 B(  9-C , 11-H ) :   0.9562 B(  9-C , 12-C ) :   1.0772
B( 12-C , 13-H ) :   0.9759 B( 12-C , 14-H ) :   0.9661 B( 12-C , 15-H ) :   0.9691
B( 16-S , 17-C ) :   1.1481 B( 16-S , 20-C ) :   1.1201 B( 17-C , 18-C ) :   1.6141
B( 17-C , 33-H ) :   0.9767 B( 18-C , 19-C ) :   1.2411 B( 18-C , 21-H ) :   0.9834
B( 19-C , 20-C ) :   1.5947 B( 19-C , 22-C ) :   1.0429 B( 22-C , 23-H ) :   0.9392
B( 22-C , 24-H ) :   0.9188 B( 22-C , 25-C ) :   1.0751 B( 25-C , 26-H ) :   0.9535
B( 25-C , 27-H ) :   0.9514 B( 25-C , 28-C ) :   1.0692 B( 28-C , 29-H ) :   0.9757
B( 28-C , 30-H ) :   0.9776 B( 28-C , 31-H ) :   0.9743

Dispersion correction           -0.016170676
FINAL SINGLE POINT ENERGY     -1339.868849366929

DIPOLE MOMENT
-------------
                                X             Y             Z
Electronic contribution:     -2.07223      12.30227     -19.43708
Nuclear contribution   :      2.24571     -12.36437      20.03114
                        -----------------------------------------
Total Dipole Moment    :      0.17349      -0.06211       0.59406
                        -----------------------------------------
Magnitude (a.u.)       :      0.62198
Magnitude (Debye)      :      1.58095

Rotational constants in cm-1:     0.019840     0.009197     0.008139
Rotational constants in MHz :   594.795572   275.722447   244.011363

                             ****ORCA TERMINATED NORMALLY****
TOTAL RUN TIME: 0 days 0 hours 0 minutes 32 seconds 331 msec
