                         Program Version 4.2.1 -  RELEASE  -
|  1> ! wB97X-D3 SP def2-SVP
|  2> %pal
|  3> nprocs 16
|  4> end
|  5>
|  6> * xyz 0 1
|  7> S 	 -63.0411 	 48.336 	 120.901
|  8> C 	 -64.2346 	 47.5143 	 121.949
|  9> C 	 -65.3765 	 48.2799 	 122.014
| 10> C 	 -65.3109 	 49.4025 	 121.215
| 11> C 	 -64.1423 	 49.6144 	 120.523
| 12> H 	 -65.9441 	 50.2739 	 121.171
| 13> C 	 -66.5911 	 47.9396 	 122.856
| 14> H 	 -66.9108 	 48.8434 	 123.38
| 15> H 	 -66.353 	 47.3658 	 123.702
| 16> C 	 -67.796 	 47.4601 	 122.078
| 17> H 	 -67.903 	 48.2542 	 121.375
| 18> H 	 -67.6017 	 46.4796 	 121.523
| 19> C 	 -69.0829 	 47.2164 	 122.933
| 20> H 	 -69.8809 	 46.8547 	 122.343
| 21> H 	 -69.0059 	 46.4537 	 123.703
| 22> H 	 -69.5344 	 48.1096 	 123.365
| 23> S 	 -63.281 	 50.3103 	 118.025
| 24> C 	 -63.3209 	 51.9437 	 117.518
| 25> C 	 -63.7209 	 52.7434 	 118.516
| 26> C 	 -63.8638 	 52.0937 	 119.77
| 27> C 	 -63.8036 	 50.668 	 119.636
| 28> H 	 -63.8948 	 53.8024 	 118.367
| 29> C 	 -64.1611 	 52.9279 	 120.935
| 30> H 	 -63.4389 	 53.7008 	 120.823
| 31> H 	 -64.0028 	 52.5185 	 121.933
| 32> C 	 -65.5533 	 53.7014 	 121.034
| 33> H 	 -66.4092 	 53.0041 	 120.759
| 34> H 	 -65.646 	 54.3795 	 120.205
| 35> C 	 -65.8097 	 54.3144 	 122.415
| 36> H 	 -66.8201 	 54.5832 	 122.477
| 37> H 	 -65.1928 	 55.2058 	 122.559
| 38> H 	 -65.539 	 53.5909 	 123.246
| 39> H 	 -64.0379 	 46.682 	 122.613
| 40> H 	 -63.1117 	 52.1874 	 116.533
| 41> *
| 42>
| 43>                          ****END OF INPUT****

CARTESIAN COORDINATES (ANGSTROEM)
---------------------------------
  S    -63.041100   48.336000  120.901000
  C    -64.234600   47.514300  121.949000
  C    -65.376500   48.279900  122.014000
  C    -65.310900   49.402500  121.215000
  C    -64.142300   49.614400  120.523000
  H    -65.944100   50.273900  121.171000
  C    -66.591100   47.939600  122.856000
  H    -66.910800   48.843400  123.380000
  H    -66.353000   47.365800  123.702000
  C    -67.796000   47.460100  122.078000
  H    -67.903000   48.254200  121.375000
  H    -67.601700   46.479600  121.523000
  C    -69.082900   47.216400  122.933000
  H    -69.880900   46.854700  122.343000
  H    -69.005900   46.453700  123.703000
  H    -69.534400   48.109600  123.365000
  S    -63.281000   50.310300  118.025000
  C    -63.320900   51.943700  117.518000
  C    -63.720900   52.743400  118.516000
  C    -63.863800   52.093700  119.770000
  C    -63.803600   50.668000  119.636000
  H    -63.894800   53.802400  118.367000
  C    -64.161100   52.927900  120.935000
  H    -63.438900   53.700800  120.823000
  H    -64.002800   52.518500  121.933000
  C    -65.553300   53.701400  121.034000
  H    -66.409200   53.004100  120.759000
  H    -65.646000   54.379500  120.205000
  C    -65.809700   54.314400  122.415000
  H    -66.820100   54.583200  122.477000
  H    -65.192800   55.205800  122.559000
  H    -65.539000   53.590900  123.246000
  H    -64.037900   46.682000  122.613000
  H    -63.111700   52.187400  116.533000

 Total Charge           Charge          ....    0
 Multiplicity           Mult            ....    1
 Number of Electrons    NEL             ....  134
 Basis Dimension        Dim             ....  322

ORBITAL ENERGIES
----------------

  NO   OCC          E(Eh)            E(eV)
   0   2.0000     -88.963530     -2420.8207
   1   2.0000     -88.962059     -2420.7807
   2   2.0000     -10.326298      -280.9929
   3   2.0000     -10.323376      -280.9133
   4   2.0000     -10.315343      -280.6948
   5   2.0000     -10.307888      -280.4919
   6   2.0000     -10.304803      -280.4079
   7   2.0000     -10.297551      -280.2106
   8   2.0000     -10.294623      -280.1309
   9   2.0000     -10.290402      -280.0161
  10   2.0000     -10.288434      -279.9625
  11   2.0000     -10.288059      -279.9523
  12   2.0000     -10.285776      -279.8902
  13   2.0000     -10.284862      -279.8653
  14   2.0000     -10.283487      -279.8279
  15   2.0000     -10.276285      -279.6319
  16   2.0000      -8.078192      -219.8188
  17   2.0000      -8.078149      -219.8176
  18   2.0000      -6.036609      -164.2645
  19   2.0000      -6.036579      -164.2637
  20   2.0000      -6.032585      -164.1550
  21   2.0000      -6.032345      -164.1484
  22   2.0000      -6.029132      -164.0610
  23   2.0000      -6.029054      -164.0589
  24   2.0000      -1.014033       -27.5933
  25   2.0000      -0.991607       -26.9830
  26   2.0000      -0.914415       -24.8825
  27   2.0000      -0.909574       -24.7508
  28   2.0000      -0.875323       -23.8188
  29   2.0000      -0.856070       -23.2948
  30   2.0000      -0.844911       -22.9912
  31   2.0000      -0.818489       -22.2722
  32   2.0000      -0.788034       -21.4435
  33   2.0000      -0.774578       -21.0773
  34   2.0000      -0.714046       -19.4302
  35   2.0000      -0.703109       -19.1326
  36   2.0000      -0.699016       -19.0212
  37   2.0000      -0.663077       -18.0432
  38   2.0000      -0.648578       -17.6487
  39   2.0000      -0.620927       -16.8963
  40   2.0000      -0.610546       -16.6138
  41   2.0000      -0.571621       -15.5546
  42   2.0000      -0.560944       -15.2641
  43   2.0000      -0.554492       -15.0885
  44   2.0000      -0.533248       -14.5104
  45   2.0000      -0.522941       -14.2299
  46   2.0000      -0.518403       -14.1065
  47   2.0000      -0.513365       -13.9694
  48   2.0000      -0.510132       -13.8814
  49   2.0000      -0.502384       -13.6706
  50   2.0000      -0.496679       -13.5153
  51   2.0000      -0.480551       -13.0765
  52   2.0000      -0.476336       -12.9618
  53   2.0000      -0.470725       -12.8091
  54   2.0000      -0.457258       -12.4426
  55   2.0000      -0.453439       -12.3387
  56   2.0000      -0.444031       -12.0827
  57   2.0000      -0.438018       -11.9191
  58   2.0000      -0.433056       -11.7841
  59   2.0000      -0.430274       -11.7084
  60   2.0000      -0.423954       -11.5364
  61   2.0000      -0.411420       -11.1953
  62   2.0000      -0.409780       -11.1507
  63   2.0000      -0.346326        -9.4240
  64   2.0000      -0.334310        -9.0970
  65   2.0000      -0.325522        -8.8579
  66   2.0000      -0.292172        -7.9504
  67   0.0000       0.030296         0.8244
  68   0.0000       0.070310         1.9132
  69   0.0000       0.116270         3.1639
  70   0.0000       0.122434         3.3316
  71   0.0000       0.129494         3.5237

MULLIKEN ATOMIC CHARGES
-----------------------
   0 S :    0.104973
   1 C :   -0.122597
   2 C :   -0.062488
   3 C :    0.038472
   4 C :   -0.175944
   5 H :   -0.000787
   6 C :    0.103089
   7 H :    0.010991
   8 H :   -0.006027
   9 C :   -0.073506
  10 H :    0.024603
  11 H :    0.042435
  12 C :   -0.031331
  13 H :    0.018857
  14 H :    0.029147
  15 H :    0.024707
  16 S :    0.110290
  17 C :   -0.055679
  18 C :   -0.042838
  19 C :   -0.001660
  20 C :   -0.153958
  21 H :    0.020845
  22 C :    0.057065
  23 H :    0.020298
  24 H :    0.019565
  25 C :   -0.105397
  26 H :    0.030420
  27 H :    0.016247
  28 C :   -0.029713
  29 H :    0.030325
  30 H :    0.034900
  31 H :    0.042520
  32 H :    0.049233
  33 H :    0.032943
Sum of atomic charges:   -0.0000000

LOEWDIN ATOMIC CHARGES
----------------------
   0 S :    0.401724
   1 C :   -0.182172
   2 C :   -0.063999
   3 C :   -0.067005
   4 C :   -0.201254
   5 H :    0.030834
   6 C :   -0.031324
   7 H :    0.032463
   8 H :    0.017600
   9 C :   -0.035237
  10 H :    0.021800
  11 H :    0.033293
  12 C :   -0.068723
  13 H :    0.023076
  14 H :    0.025487
  15 H :    0.024380
  16 S :    0.432876
  17 C :   -0.179450
  18 C :   -0.072378
  19 C :   -0.051760
  20 C :   -0.212754
  21 H :    0.032428
  22 C :   -0.038444
  23 H :    0.032804
  24 H :    0.029131
  25 C :   -0.042513
  26 H :    0.025042
  27 H :    0.015922
  28 C :   -0.061942
  29 H :    0.021507
  30 H :    0.026995
  31 H :    0.034422
  32 H :    0.030669
  33 H :    0.016503

  Mayer bond orders larger than 0.100000
B(  0-S ,  1-C ) :   1.1377 B(  0-S ,  4-C ) :   1.1587 B(  1-C ,  2-C ) :   1.5948
B(  1-C ,  4-C ) :   0.1085 B(  1-C , 32-H ) :   0.9704 B(  2-C ,  3-C ) :   1.2459
B(  2-C ,  6-C ) :   1.0270 B(  3-C ,  4-C ) :   1.5757 B(  3-C ,  5-H ) :   0.9969
B(  4-C , 20-C ) :   1.0569 B(  6-C ,  7-H ) :   0.9332 B(  6-C ,  8-H ) :   0.9355
B(  6-C ,  9-C ) :   1.0545 B(  9-C , 10-H ) :   0.9578 B(  9-C , 11-H ) :   0.9559
B(  9-C , 12-C ) :   1.0814 B( 12-C , 13-H ) :   0.9727 B( 12-C , 14-H ) :   0.9755
B( 12-C , 15-H ) :   0.9734 B( 16-S , 17-C ) :   1.1694 B( 16-S , 20-C ) :   1.1567
B( 17-C , 18-C ) :   1.5787 B( 17-C , 33-H ) :   0.9811 B( 18-C , 19-C ) :   1.2553
B( 18-C , 21-H ) :   0.9937 B( 19-C , 20-C ) :   1.5246 B( 19-C , 22-C ) :   1.0691
B( 22-C , 23-H ) :   0.9199 B( 22-C , 24-H ) :   0.9415 B( 22-C , 25-C ) :   1.0444
B( 25-C , 26-H ) :   0.9597 B( 25-C , 27-H ) :   0.9497 B( 25-C , 28-C ) :   1.0805
B( 28-C , 29-H ) :   0.9731 B( 28-C , 30-H ) :   0.9755 B( 28-C , 31-H ) :   0.9735

Dispersion correction           -0.013625341
FINAL SINGLE POINT ENERGY     -1339.868491998248

DIPOLE MOMENT
-------------
                                X             Y             Z
Electronic contribution:     23.74575      -8.43765     -17.37373
Nuclear contribution   :    -24.27352       8.95541      17.71519
                        -----------------------------------------
Total Dipole Moment    :     -0.52778       0.51776       0.34146
                        -----------------------------------------
Magnitude (a.u.)       :      0.81438
Magnitude (Debye)      :      2.06999

Rotational constants in cm-1:     0.016324     0.008630     0.006562
Rotational constants in MHz :   489.372142   258.708774   196.723796

                             ****ORCA TERMINATED NORMALLY****
TOTAL RUN TIME: 0 days 0 hours 0 minutes 33 seconds 613 msec
