                         Program Version 4.2.1 -  RELEASE  -
|  1> ! wB97X-D3 SP def2-SVP
|  2> %pal
|  3> nprocs 16
|  4> end
|  5>
|  6> * xyz 0 1
|  7> S 	 -62.4333 	 37.4225 	 135.692
|  8> C 	 -60.8635 	 37.9387 	 136.109
|  9> C 	 -59.8489 	 37.0921 	 135.613
| 10> C 	 -60.3909 	 35.9781 	 134.845
| 11> C 	 -61.7699 	 36.0784 	 134.699
| 12> H 	 -59.9238 	 35.186 	 134.345
| 13> C 	 -58.414 	 37.2684 	 135.798
| 14> H 	 -58.0727 	 38.214 	 135.384
| 15> H 	 -57.8907 	 36.5457 	 135.103
| 16> C 	 -58.0169 	 36.9972 	 137.256
| 17> H 	 -58.1831 	 37.9446 	 137.806
| 18> H 	 -58.5601 	 36.157 	 137.64
| 19> C 	 -56.4974 	 36.8024 	 137.406
| 20> H 	 -56.0775 	 36.023 	 136.833
| 21> H 	 -55.9147 	 37.7364 	 137.212
| 22> H 	 -56.3847 	 36.5114 	 138.434
| 23> S 	 -63.51 	 33.9723 	 134.635
| 24> C 	 -64.2742 	 33.4403 	 133.17
| 25> C 	 -63.8683 	 34.1713 	 132.125
| 26> C 	 -62.8084 	 35.1344 	 132.432
| 27> C 	 -62.6351 	 35.2842 	 133.838
| 28> H 	 -64.3298 	 33.9443 	 131.18
| 29> C 	 -62.2099 	 36.0588 	 131.449
| 30> H 	 -61.3133 	 35.5465 	 131.1
| 31> H 	 -61.8545 	 36.922 	 131.949
| 32> C 	 -63.0901 	 36.5422 	 130.277
| 33> H 	 -63.9731 	 36.9302 	 130.661
| 34> H 	 -63.3237 	 35.814 	 129.526
| 35> C 	 -62.5119 	 37.7809 	 129.582
| 36> H 	 -61.7895 	 37.5147 	 128.82
| 37> H 	 -62.1971 	 38.6016 	 130.207
| 38> H 	 -63.3721 	 38.1009 	 129.016
| 39> H 	 -60.6204 	 38.955 	 136.335
| 40> H 	 -65.1604 	 32.8251 	 132.988
| 41> *
| 42>
| 43>                          ****END OF INPUT****

CARTESIAN COORDINATES (ANGSTROEM)
---------------------------------
  S    -62.433300   37.422500  135.692000
  C    -60.863500   37.938700  136.109000
  C    -59.848900   37.092100  135.613000
  C    -60.390900   35.978100  134.845000
  C    -61.769900   36.078400  134.699000
  H    -59.923800   35.186000  134.345000
  C    -58.414000   37.268400  135.798000
  H    -58.072700   38.214000  135.384000
  H    -57.890700   36.545700  135.103000
  C    -58.016900   36.997200  137.256000
  H    -58.183100   37.944600  137.806000
  H    -58.560100   36.157000  137.640000
  C    -56.497400   36.802400  137.406000
  H    -56.077500   36.023000  136.833000
  H    -55.914700   37.736400  137.212000
  H    -56.384700   36.511400  138.434000
  S    -63.510000   33.972300  134.635000
  C    -64.274200   33.440300  133.170000
  C    -63.868300   34.171300  132.125000
  C    -62.808400   35.134400  132.432000
  C    -62.635100   35.284200  133.838000
  H    -64.329800   33.944300  131.180000
  C    -62.209900   36.058800  131.449000
  H    -61.313300   35.546500  131.100000
  H    -61.854500   36.922000  131.949000
  C    -63.090100   36.542200  130.277000
  H    -63.973100   36.930200  130.661000
  H    -63.323700   35.814000  129.526000
  C    -62.511900   37.780900  129.582000
  H    -61.789500   37.514700  128.820000
  H    -62.197100   38.601600  130.207000
  H    -63.372100   38.100900  129.016000
  H    -60.620400   38.955000  136.335000
  H    -65.160400   32.825100  132.988000

 Total Charge           Charge          ....    0
 Multiplicity           Mult            ....    1
 Number of Electrons    NEL             ....  134
 Basis Dimension        Dim             ....  322

ORBITAL ENERGIES
----------------

  NO   OCC          E(Eh)            E(eV)
   0   2.0000     -88.965871     -2420.8844
   1   2.0000     -88.957213     -2420.6488
   2   2.0000     -10.331665      -281.1389
   3   2.0000     -10.326701      -281.0038
   4   2.0000     -10.309881      -280.5461
   5   2.0000     -10.308495      -280.5084
   6   2.0000     -10.307780      -280.4889
   7   2.0000     -10.302800      -280.3535
   8   2.0000     -10.296743      -280.1886
   9   2.0000     -10.289177      -279.9827
  10   2.0000     -10.287859      -279.9469
  11   2.0000     -10.287106      -279.9264
  12   2.0000     -10.281810      -279.7823
  13   2.0000     -10.278954      -279.7045
  14   2.0000     -10.273731      -279.5624
  15   2.0000     -10.272302      -279.5236
  16   2.0000      -8.080627      -219.8850
  17   2.0000      -8.072126      -219.6537
  18   2.0000      -6.039046      -164.3308
  19   2.0000      -6.035054      -164.2222
  20   2.0000      -6.031562      -164.1271
  21   2.0000      -6.030795      -164.1063
  22   2.0000      -6.026471      -163.9886
  23   2.0000      -6.022832      -163.8896
  24   2.0000      -1.000671       -27.2297
  25   2.0000      -0.980952       -26.6931
  26   2.0000      -0.915109       -24.9014
  27   2.0000      -0.911657       -24.8075
  28   2.0000      -0.872004       -23.7284
  29   2.0000      -0.852616       -23.2009
  30   2.0000      -0.849370       -23.1125
  31   2.0000      -0.819808       -22.3081
  32   2.0000      -0.778967       -21.1968
  33   2.0000      -0.763824       -20.7847
  34   2.0000      -0.706840       -19.2341
  35   2.0000      -0.702340       -19.1116
  36   2.0000      -0.698334       -19.0026
  37   2.0000      -0.650848       -17.7105
  38   2.0000      -0.642802       -17.4915
  39   2.0000      -0.617172       -16.7941
  40   2.0000      -0.592812       -16.1312
  41   2.0000      -0.575348       -15.6560
  42   2.0000      -0.569639       -15.5007
  43   2.0000      -0.565876       -15.3983
  44   2.0000      -0.531905       -14.4739
  45   2.0000      -0.527354       -14.3500
  46   2.0000      -0.519012       -14.1230
  47   2.0000      -0.516240       -14.0476
  48   2.0000      -0.501531       -13.6473
  49   2.0000      -0.500241       -13.6123
  50   2.0000      -0.492923       -13.4131
  51   2.0000      -0.477545       -12.9946
  52   2.0000      -0.468038       -12.7360
  53   2.0000      -0.465765       -12.6741
  54   2.0000      -0.453449       -12.3390
  55   2.0000      -0.447197       -12.1688
  56   2.0000      -0.441114       -12.0033
  57   2.0000      -0.439295       -11.9538
  58   2.0000      -0.435522       -11.8512
  59   2.0000      -0.424746       -11.5579
  60   2.0000      -0.422776       -11.5043
  61   2.0000      -0.414796       -11.2872
  62   2.0000      -0.409127       -11.1329
  63   2.0000      -0.339263        -9.2318
  64   2.0000      -0.327105        -8.9010
  65   2.0000      -0.316439        -8.6108
  66   2.0000      -0.299218        -8.1421
  67   0.0000       0.036911         1.0044
  68   0.0000       0.052394         1.4257
  69   0.0000       0.122277         3.3273
  70   0.0000       0.125537         3.4160
  71   0.0000       0.130051         3.5389

MULLIKEN ATOMIC CHARGES
-----------------------
   0 S :    0.118118
   1 C :   -0.089753
   2 C :   -0.124115
   3 C :    0.084337
   4 C :   -0.186123
   5 H :   -0.001285
   6 C :    0.051032
   7 H :    0.027202
   8 H :    0.018030
   9 C :   -0.073821
  10 H :    0.038253
  11 H :    0.041261
  12 C :   -0.035789
  13 H :    0.020657
  14 H :    0.036298
  15 H :    0.026728
  16 S :    0.092646
  17 C :   -0.062373
  18 C :   -0.060929
  19 C :   -0.027253
  20 C :   -0.180244
  21 H :    0.014411
  22 C :    0.106212
  23 H :    0.028615
  24 H :    0.011094
  25 C :   -0.070555
  26 H :    0.016072
  27 H :    0.029113
  28 C :   -0.045475
  29 H :    0.029693
  30 H :    0.039938
  31 H :    0.019207
  32 H :    0.051940
  33 H :    0.056859
Sum of atomic charges:   -0.0000000

LOEWDIN ATOMIC CHARGES
----------------------
   0 S :    0.410039
   1 C :   -0.216998
   2 C :   -0.057411
   3 C :   -0.043748
   4 C :   -0.189591
   5 H :    0.027041
   6 C :   -0.045140
   7 H :    0.030760
   8 H :    0.032240
   9 C :   -0.030602
  10 H :    0.032083
  11 H :    0.026112
  12 C :   -0.064456
  13 H :    0.014203
  14 H :    0.030035
  15 H :    0.025586
  16 S :    0.396072
  17 C :   -0.196154
  18 C :   -0.078290
  19 C :   -0.045138
  20 C :   -0.206029
  21 H :    0.029766
  22 C :   -0.035442
  23 H :    0.036265
  24 H :    0.028041
  25 C :   -0.030660
  26 H :    0.017869
  27 H :    0.022585
  28 C :   -0.059319
  29 H :    0.022070
  30 H :    0.024550
  31 H :    0.027114
  32 H :    0.026579
  33 H :    0.039971

  Mayer bond orders larger than 0.100000
B(  0-S ,  1-C ) :   1.1527 B(  0-S ,  4-C ) :   1.1472 B(  1-C ,  2-C ) :   1.5970
B(  1-C , 32-H ) :   0.9625 B(  2-C ,  3-C ) :   1.2199 B(  2-C ,  6-C ) :   1.0469
B(  3-C ,  4-C ) :   1.5896 B(  3-C ,  5-H ) :   1.0014 B(  4-C , 20-C ) :   1.0139
B(  6-C ,  7-H ) :   0.9287 B(  6-C ,  8-H ) :   0.9449 B(  6-C ,  9-C ) :   1.0542
B(  9-C , 10-H ) :   0.9515 B(  9-C , 11-H ) :   0.9617 B(  9-C , 12-C ) :   1.0871
B( 12-C , 13-H ) :   0.9765 B( 12-C , 14-H ) :   0.9736 B( 12-C , 15-H ) :   0.9742
B( 16-S , 17-C ) :   1.1402 B( 16-S , 20-C ) :   1.1366 B( 17-C , 18-C ) :   1.6672
B( 17-C , 33-H ) :   0.9530 B( 18-C , 19-C ) :   1.2008 B( 18-C , 21-H ) :   0.9880
B( 19-C , 20-C ) :   1.5930 B( 19-C , 22-C ) :   1.0626 B( 22-C , 23-H ) :   0.9083
B( 22-C , 24-H ) :   0.9374 B( 22-C , 25-C ) :   1.0761 B( 25-C , 26-H ) :   0.9619
B( 25-C , 27-H ) :   0.9462 B( 25-C , 28-C ) :   1.0935 B( 28-C , 29-H ) :   0.9760
B( 28-C , 30-H ) :   0.9743 B( 28-C , 31-H ) :   0.9757

Dispersion correction           -0.013529627
FINAL SINGLE POINT ENERGY     -1339.856460027642

DIPOLE MOMENT
-------------
                                X             Y             Z
Electronic contribution:    -18.64736      -8.99059       9.89295
Nuclear contribution   :     19.07796       9.23505     -10.44451
                        -----------------------------------------
Total Dipole Moment    :      0.43060       0.24445      -0.55156
                        -----------------------------------------
Magnitude (a.u.)       :      0.74121
Magnitude (Debye)      :      1.88402

Rotational constants in cm-1:     0.019658     0.007207     0.006202
Rotational constants in MHz :   589.323044   216.066368   185.942298

                             ****ORCA TERMINATED NORMALLY****
TOTAL RUN TIME: 0 days 0 hours 0 minutes 33 seconds 53 msec
