                         Program Version 4.2.1 -  RELEASE  -
|  1> ! wB97X-D3 SP def2-SVP
|  2> %pal
|  3> nprocs 16
|  4> end
|  5>
|  6> * xyz 0 1
|  7> S 	 -1.79821 	 -10.7558 	 94.8692
|  8> C 	 -3.16149 	 -11.6486 	 95.4787
|  9> C 	 -3.63099 	 -12.6411 	 94.6587
| 10> C 	 -2.87556 	 -12.699 	 93.4929
| 11> C 	 -1.89842 	 -11.7794 	 93.4288
| 12> H 	 -3.10189 	 -13.3364 	 92.6492
| 13> C 	 -4.71866 	 -13.5462 	 95.0767
| 14> H 	 -5.49539 	 -13.1197 	 95.7414
| 15> H 	 -4.24135 	 -14.3191 	 95.7026
| 16> C 	 -5.50766 	 -14.3555 	 93.9622
| 17> H 	 -4.78582 	 -15.0344 	 93.6084
| 18> H 	 -6.2911 	 -15.0051 	 94.3721
| 19> C 	 -6.10346 	 -13.4655 	 92.8345
| 20> H 	 -6.88353 	 -12.9418 	 93.3662
| 21> H 	 -5.53802 	 -12.6014 	 92.45
| 22> H 	 -6.38002 	 -14.0538 	 91.9936
| 23> S 	 -0.503116 	 -9.95265 	 92.0209
| 24> C 	 0.508683 	 -10.328 	 90.6487
| 25> C 	 0.343798 	 -11.7222 	 90.3752
| 26> C 	 -0.560415 	 -12.4448 	 91.2542
| 27> C 	 -1.00827 	 -11.6149 	 92.267
| 28> H 	 0.78446 	 -12.1108 	 89.4952
| 29> C 	 -0.878208 	 -13.9232 	 91.0017
| 30> H 	 -1.79664 	 -14.0895 	 90.505
| 31> H 	 -1.05817 	 -14.2644 	 91.9465
| 32> C 	 0.19404 	 -14.8213 	 90.3123
| 33> H 	 1.11554 	 -14.7974 	 90.7766
| 34> H 	 0.263671 	 -14.4303 	 89.2878
| 35> C 	 -0.387258 	 -16.2663 	 90.2939
| 36> H 	 0.297028 	 -16.8964 	 89.7435
| 37> H 	 -1.29324 	 -16.2989 	 89.7863
| 38> H 	 -0.52252 	 -16.6895 	 91.3159
| 39> H 	 -3.63694 	 -11.4908 	 96.3957
| 40> H 	 1.14918 	 -9.75376 	 90.0378
| 41> *
| 42>
| 43>                          ****END OF INPUT****

CARTESIAN COORDINATES (ANGSTROEM)
---------------------------------
  S     -1.798210  -10.755800   94.869200
  C     -3.161490  -11.648600   95.478700
  C     -3.630990  -12.641100   94.658700
  C     -2.875560  -12.699000   93.492900
  C     -1.898420  -11.779400   93.428800
  H     -3.101890  -13.336400   92.649200
  C     -4.718660  -13.546200   95.076700
  H     -5.495390  -13.119700   95.741400
  H     -4.241350  -14.319100   95.702600
  C     -5.507660  -14.355500   93.962200
  H     -4.785820  -15.034400   93.608400
  H     -6.291100  -15.005100   94.372100
  C     -6.103460  -13.465500   92.834500
  H     -6.883530  -12.941800   93.366200
  H     -5.538020  -12.601400   92.450000
  H     -6.380020  -14.053800   91.993600
  S     -0.503116   -9.952650   92.020900
  C      0.508683  -10.328000   90.648700
  C      0.343798  -11.722200   90.375200
  C     -0.560415  -12.444800   91.254200
  C     -1.008270  -11.614900   92.267000
  H      0.784460  -12.110800   89.495200
  C     -0.878208  -13.923200   91.001700
  H     -1.796640  -14.089500   90.505000
  H     -1.058170  -14.264400   91.946500
  C      0.194040  -14.821300   90.312300
  H      1.115540  -14.797400   90.776600
  H      0.263671  -14.430300   89.287800
  C     -0.387258  -16.266300   90.293900
  H      0.297028  -16.896400   89.743500
  H     -1.293240  -16.298900   89.786300
  H     -0.522520  -16.689500   91.315900
  H     -3.636940  -11.490800   96.395700
  H      1.149180   -9.753760   90.037800

 Total Charge           Charge          ....    0
 Multiplicity           Mult            ....    1
 Number of Electrons    NEL             ....  134
 Basis Dimension        Dim             ....  322

ORBITAL ENERGIES
----------------

  NO   OCC          E(Eh)            E(eV)
   0   2.0000     -88.971408     -2421.0351
   1   2.0000     -88.964714     -2420.8529
   2   2.0000     -10.327756      -281.0325
   3   2.0000     -10.327232      -281.0183
   4   2.0000     -10.316102      -280.7154
   5   2.0000     -10.305619      -280.4302
   6   2.0000     -10.303594      -280.3750
   7   2.0000     -10.296257      -280.1754
   8   2.0000     -10.294408      -280.1251
   9   2.0000     -10.292806      -280.0815
  10   2.0000     -10.290165      -280.0096
  11   2.0000     -10.287049      -279.9248
  12   2.0000     -10.286573      -279.9119
  13   2.0000     -10.283984      -279.8414
  14   2.0000     -10.278036      -279.6796
  15   2.0000     -10.275982      -279.6237
  16   2.0000      -8.085666      -220.0221
  17   2.0000      -8.079070      -219.8427
  18   2.0000      -6.044130      -164.4691
  19   2.0000      -6.040479      -164.3698
  20   2.0000      -6.037671      -164.2934
  21   2.0000      -6.036264      -164.2551
  22   2.0000      -6.033504      -164.1800
  23   2.0000      -6.029884      -164.0815
  24   2.0000      -1.010540       -27.4982
  25   2.0000      -0.982540       -26.7363
  26   2.0000      -0.911704       -24.8087
  27   2.0000      -0.908527       -24.7223
  28   2.0000      -0.868017       -23.6199
  29   2.0000      -0.855678       -23.2842
  30   2.0000      -0.844498       -22.9800
  31   2.0000      -0.817777       -22.2528
  32   2.0000      -0.783319       -21.3152
  33   2.0000      -0.774598       -21.0779
  34   2.0000      -0.716335       -19.4925
  35   2.0000      -0.708235       -19.2720
  36   2.0000      -0.697432       -18.9781
  37   2.0000      -0.658735       -17.9251
  38   2.0000      -0.639555       -17.4032
  39   2.0000      -0.629966       -17.1423
  40   2.0000      -0.594922       -16.1887
  41   2.0000      -0.576655       -15.6916
  42   2.0000      -0.566514       -15.4156
  43   2.0000      -0.554099       -15.0778
  44   2.0000      -0.533875       -14.5275
  45   2.0000      -0.524936       -14.2842
  46   2.0000      -0.519669       -14.1409
  47   2.0000      -0.513440       -13.9714
  48   2.0000      -0.505137       -13.7455
  49   2.0000      -0.497382       -13.5345
  50   2.0000      -0.491183       -13.3658
  51   2.0000      -0.484216       -13.1762
  52   2.0000      -0.476413       -12.9638
  53   2.0000      -0.470377       -12.7996
  54   2.0000      -0.461303       -12.5527
  55   2.0000      -0.452508       -12.3134
  56   2.0000      -0.449087       -12.2203
  57   2.0000      -0.442830       -12.0500
  58   2.0000      -0.434251       -11.8166
  59   2.0000      -0.424651       -11.5553
  60   2.0000      -0.419674       -11.4199
  61   2.0000      -0.417764       -11.3679
  62   2.0000      -0.412603       -11.2275
  63   2.0000      -0.355160        -9.6644
  64   2.0000      -0.335039        -9.1169
  65   2.0000      -0.326684        -8.8895
  66   2.0000      -0.282463        -7.6862
  67   0.0000       0.026173         0.7122
  68   0.0000       0.078487         2.1357
  69   0.0000       0.103007         2.8030
  70   0.0000       0.121756         3.3131
  71   0.0000       0.138226         3.7613

MULLIKEN ATOMIC CHARGES
-----------------------
   0 S :    0.130727
   1 C :   -0.097336
   2 C :   -0.034284
   3 C :   -0.041294
   4 C :   -0.090265
   5 H :    0.008671
   6 C :    0.015752
   7 H :    0.033800
   8 H :    0.048079
   9 C :   -0.075095
  10 H :    0.013633
  11 H :    0.035832
  12 C :   -0.055184
  13 H :    0.026491
  14 H :    0.043314
  15 H :    0.038727
  16 S :    0.093515
  17 C :   -0.061619
  18 C :   -0.060548
  19 C :   -0.032854
  20 C :   -0.151296
  21 H :    0.002713
  22 C :    0.074722
  23 H :    0.028110
  24 H :   -0.005302
  25 C :   -0.056723
  26 H :    0.025782
  27 H :    0.036664
  28 C :   -0.030295
  29 H :    0.029107
  30 H :    0.015364
  31 H :    0.040226
  32 H :    0.010824
  33 H :    0.040041
Sum of atomic charges:    0.0000000

LOEWDIN ATOMIC CHARGES
----------------------
   0 S :    0.402467
   1 C :   -0.186053
   2 C :   -0.064398
   3 C :   -0.064879
   4 C :   -0.182222
   5 H :    0.033099
   6 C :   -0.036193
   7 H :    0.031817
   8 H :    0.041101
   9 C :   -0.038515
  10 H :    0.009941
  11 H :    0.030391
  12 C :   -0.070989
  13 H :    0.028082
  14 H :    0.031050
  15 H :    0.023482
  16 S :    0.406111
  17 C :   -0.192610
  18 C :   -0.065533
  19 C :   -0.058264
  20 C :   -0.186212
  21 H :    0.018953
  22 C :   -0.027129
  23 H :    0.027199
  24 H :    0.016228
  25 C :   -0.022123
  26 H :    0.015356
  27 H :    0.025773
  28 C :   -0.055850
  29 H :    0.025094
  30 H :    0.014813
  31 H :    0.031148
  32 H :    0.014062
  33 H :    0.024806

  Mayer bond orders larger than 0.100000
B(  0-S ,  1-C ) :   1.1275 B(  0-S ,  4-C ) :   1.1326 B(  1-C ,  2-C ) :   1.6286
B(  1-C , 32-H ) :   0.9694 B(  2-C ,  3-C ) :   1.2381 B(  2-C ,  6-C ) :   1.0171
B(  3-C ,  4-C ) :   1.5847 B(  3-C ,  5-H ) :   0.9943 B(  4-C , 20-C ) :   1.0463
B(  6-C ,  7-H ) :   0.9458 B(  6-C ,  8-H ) :   0.9339 B(  6-C ,  9-C ) :   1.0743
B(  9-C , 10-H ) :   0.9542 B(  9-C , 11-H ) :   0.9579 B(  9-C , 12-C ) :   1.0622
B( 12-C , 13-H ) :   0.9755 B( 12-C , 14-H ) :   0.9763 B( 12-C , 15-H ) :   0.9770
B( 16-S , 17-C ) :   1.1458 B( 16-S , 20-C ) :   1.1427 B( 17-C , 18-C ) :   1.5993
B( 17-C , 20-C ) :   0.1014 B( 17-C , 33-H ) :   0.9736 B( 18-C , 19-C ) :   1.2475
B( 18-C , 21-H ) :   0.9879 B( 19-C , 20-C ) :   1.5954 B( 19-C , 22-C ) :   1.0204
B( 22-C , 23-H ) :   0.9288 B( 22-C , 24-H ) :   0.9251 B( 22-C , 25-C ) :   1.0740
B( 25-C , 26-H ) :   0.9605 B( 25-C , 27-H ) :   0.9472 B( 25-C , 28-C ) :   1.0879
B( 28-C , 29-H ) :   0.9729 B( 28-C , 30-H ) :   0.9734 B( 28-C , 31-H ) :   0.9759

Dispersion correction           -0.013892939
FINAL SINGLE POINT ENERGY     -1339.859451900014

DIPOLE MOMENT
-------------
                                X             Y             Z
Electronic contribution:     11.96791      26.42938       9.03830
Nuclear contribution   :    -12.28569     -27.15542      -9.26743
                        -----------------------------------------
Total Dipole Moment    :     -0.31778      -0.72604      -0.22914
                        -----------------------------------------
Magnitude (a.u.)       :      0.82500
Magnitude (Debye)      :      2.09697

Rotational constants in cm-1:     0.015381     0.010035     0.006839
Rotational constants in MHz :   461.107592   300.826895   205.042505

                             ****ORCA TERMINATED NORMALLY****
TOTAL RUN TIME: 0 days 0 hours 0 minutes 31 seconds 920 msec
