                         Program Version 4.2.1 -  RELEASE  -
|  1> ! wB97X-D3 SP def2-SVP
|  2> %pal
|  3> nprocs 16
|  4> end
|  5>
|  6> * xyz 0 1
|  7> S 	 -59.956 	 18.9642 	 85.4524
|  8> C 	 -60.0783 	 17.4353 	 86.2729
|  9> C 	 -58.8756 	 16.8528 	 86.4104
| 10> C 	 -57.822 	 17.6957 	 85.9503
| 11> C 	 -58.2399 	 18.8742 	 85.3481
| 12> H 	 -56.7672 	 17.5054 	 86.0212
| 13> C 	 -58.654 	 15.5306 	 87.1273
| 14> H 	 -58.5248 	 14.7514 	 86.3784
| 15> H 	 -59.5956 	 15.2767 	 87.6093
| 16> C 	 -57.5017 	 15.4577 	 88.1196
| 17> H 	 -57.2565 	 14.4064 	 88.4045
| 18> H 	 -56.5339 	 15.7145 	 87.6487
| 19> C 	 -57.7498 	 16.235 	 89.4704
| 20> H 	 -58.7728 	 16.0496 	 89.8661
| 21> H 	 -57.1122 	 15.9015 	 90.2901
| 22> H 	 -57.7374 	 17.3197 	 89.1771
| 23> S 	 -58.0983 	 20.3066 	 82.9679
| 24> C 	 -56.7756 	 21.4028 	 82.8089
| 25> C 	 -55.961 	 21.5498 	 83.9137
| 26> C 	 -56.4069 	 20.6867 	 84.9885
| 27> C 	 -57.5079 	 19.8496 	 84.5504
| 28> H 	 -55.1147 	 22.2294 	 83.8753
| 29> C 	 -55.8047 	 20.7076 	 86.332
| 30> H 	 -54.926 	 20.0326 	 86.3439
| 31> H 	 -56.5655 	 20.2537 	 86.948
| 32> C 	 -55.5198 	 22.1352 	 86.8652
| 33> H 	 -56.4444 	 22.7074 	 86.9363
| 34> H 	 -54.9378 	 22.5966 	 86.1074
| 35> C 	 -54.7322 	 22.0742 	 88.2319
| 36> H 	 -53.7318 	 21.5717 	 88.2165
| 37> H 	 -55.3344 	 21.4655 	 88.9295
| 38> H 	 -54.5521 	 23.0204 	 88.7556
| 39> H 	 -60.9471 	 16.8908 	 86.5129
| 40> H 	 -56.6291 	 22.1348 	 81.9457
| 41> *
| 42>
| 43>                          ****END OF INPUT****

CARTESIAN COORDINATES (ANGSTROEM)
---------------------------------
  S    -59.956000   18.964200   85.452400
  C    -60.078300   17.435300   86.272900
  C    -58.875600   16.852800   86.410400
  C    -57.822000   17.695700   85.950300
  C    -58.239900   18.874200   85.348100
  H    -56.767200   17.505400   86.021200
  C    -58.654000   15.530600   87.127300
  H    -58.524800   14.751400   86.378400
  H    -59.595600   15.276700   87.609300
  C    -57.501700   15.457700   88.119600
  H    -57.256500   14.406400   88.404500
  H    -56.533900   15.714500   87.648700
  C    -57.749800   16.235000   89.470400
  H    -58.772800   16.049600   89.866100
  H    -57.112200   15.901500   90.290100
  H    -57.737400   17.319700   89.177100
  S    -58.098300   20.306600   82.967900
  C    -56.775600   21.402800   82.808900
  C    -55.961000   21.549800   83.913700
  C    -56.406900   20.686700   84.988500
  C    -57.507900   19.849600   84.550400
  H    -55.114700   22.229400   83.875300
  C    -55.804700   20.707600   86.332000
  H    -54.926000   20.032600   86.343900
  H    -56.565500   20.253700   86.948000
  C    -55.519800   22.135200   86.865200
  H    -56.444400   22.707400   86.936300
  H    -54.937800   22.596600   86.107400
  C    -54.732200   22.074200   88.231900
  H    -53.731800   21.571700   88.216500
  H    -55.334400   21.465500   88.929500
  H    -54.552100   23.020400   88.755600
  H    -60.947100   16.890800   86.512900
  H    -56.629100   22.134800   81.945700

 Total Charge           Charge          ....    0
 Multiplicity           Mult            ....    1
 Number of Electrons    NEL             ....  134
 Basis Dimension        Dim             ....  322

ORBITAL ENERGIES
----------------

  NO   OCC          E(Eh)            E(eV)
   0   2.0000     -88.972473     -2421.0641
   1   2.0000     -88.962752     -2420.7996
   2   2.0000     -10.329693      -281.0852
   3   2.0000     -10.326641      -281.0022
   4   2.0000     -10.319880      -280.8182
   5   2.0000     -10.308720      -280.5145
   6   2.0000     -10.304302      -280.3943
   7   2.0000     -10.295523      -280.1554
   8   2.0000     -10.295280      -280.1488
   9   2.0000     -10.293945      -280.1125
  10   2.0000     -10.292998      -280.0867
  11   2.0000     -10.290826      -280.0276
  12   2.0000     -10.290649      -280.0228
  13   2.0000     -10.288156      -279.9550
  14   2.0000     -10.285917      -279.8940
  15   2.0000     -10.284800      -279.8636
  16   2.0000      -8.087140      -220.0623
  17   2.0000      -8.078356      -219.8232
  18   2.0000      -6.045501      -164.5065
  19   2.0000      -6.041725      -164.4037
  20   2.0000      -6.037993      -164.3021
  21   2.0000      -6.036842      -164.2708
  22   2.0000      -6.032660      -164.1570
  23   2.0000      -6.029162      -164.0618
  24   2.0000      -1.009702       -27.4754
  25   2.0000      -0.986065       -26.8322
  26   2.0000      -0.911333       -24.7986
  27   2.0000      -0.909408       -24.7463
  28   2.0000      -0.868759       -23.6401
  29   2.0000      -0.847500       -23.0616
  30   2.0000      -0.839413       -22.8416
  31   2.0000      -0.816142       -22.2083
  32   2.0000      -0.783830       -21.3291
  33   2.0000      -0.768267       -20.9056
  34   2.0000      -0.714426       -19.4405
  35   2.0000      -0.702642       -19.1199
  36   2.0000      -0.690645       -18.7934
  37   2.0000      -0.649898       -17.6846
  38   2.0000      -0.640923       -17.4404
  39   2.0000      -0.622219       -16.9314
  40   2.0000      -0.593422       -16.1478
  41   2.0000      -0.567765       -15.4497
  42   2.0000      -0.563814       -15.3422
  43   2.0000      -0.555431       -15.1141
  44   2.0000      -0.531783       -14.4706
  45   2.0000      -0.519659       -14.1407
  46   2.0000      -0.513616       -13.9762
  47   2.0000      -0.510601       -13.8942
  48   2.0000      -0.501885       -13.6570
  49   2.0000      -0.497443       -13.5361
  50   2.0000      -0.486268       -13.2320
  51   2.0000      -0.478646       -13.0246
  52   2.0000      -0.468230       -12.7412
  53   2.0000      -0.464134       -12.6297
  54   2.0000      -0.458699       -12.4818
  55   2.0000      -0.454022       -12.3546
  56   2.0000      -0.446641       -12.1537
  57   2.0000      -0.441970       -12.0266
  58   2.0000      -0.432545       -11.7702
  59   2.0000      -0.431736       -11.7481
  60   2.0000      -0.425438       -11.5768
  61   2.0000      -0.418122       -11.3777
  62   2.0000      -0.405216       -11.0265
  63   2.0000      -0.344942        -9.3864
  64   2.0000      -0.332827        -9.0567
  65   2.0000      -0.328999        -8.9525
  66   2.0000      -0.290386        -7.9018
  67   0.0000       0.029863         0.8126
  68   0.0000       0.070972         1.9312
  69   0.0000       0.115955         3.1553
  70   0.0000       0.126233         3.4350
  71   0.0000       0.132149         3.5960

MULLIKEN ATOMIC CHARGES
-----------------------
   0 S :    0.104461
   1 C :   -0.097428
   2 C :   -0.099154
   3 C :    0.035779
   4 C :   -0.179483
   5 H :   -0.000867
   6 C :    0.107626
   7 H :    0.037055
   8 H :    0.008778
   9 C :   -0.104929
  10 H :    0.024579
  11 H :    0.031433
  12 C :   -0.068455
  13 H :    0.026145
  14 H :    0.044622
  15 H :    0.054006
  16 S :    0.136611
  17 C :   -0.113223
  18 C :   -0.045266
  19 C :   -0.060739
  20 C :   -0.147710
  21 H :    0.028960
  22 C :    0.074878
  23 H :    0.045677
  24 H :    0.024371
  25 C :   -0.068845
  26 H :    0.042351
  27 H :    0.021614
  28 C :   -0.065343
  29 H :    0.036649
  30 H :    0.028189
  31 H :    0.038679
  32 H :    0.024739
  33 H :    0.074240
Sum of atomic charges:   -0.0000000

LOEWDIN ATOMIC CHARGES
----------------------
   0 S :    0.416083
   1 C :   -0.194795
   2 C :   -0.067959
   3 C :   -0.064768
   4 C :   -0.202874
   5 H :    0.025954
   6 C :   -0.028160
   7 H :    0.035941
   8 H :    0.027766
   9 C :   -0.049580
  10 H :    0.026661
  11 H :    0.023866
  12 C :   -0.072948
  13 H :    0.025896
  14 H :    0.027426
  15 H :    0.034140
  16 S :    0.426078
  17 C :   -0.204327
  18 C :   -0.077607
  19 C :   -0.042711
  20 C :   -0.215754
  21 H :    0.033944
  22 C :   -0.038763
  23 H :    0.037825
  24 H :    0.029935
  25 C :   -0.029045
  26 H :    0.031444
  27 H :    0.014232
  28 C :   -0.074598
  29 H :    0.029912
  30 H :    0.026292
  31 H :    0.026062
  32 H :    0.021815
  33 H :    0.042617

  Mayer bond orders larger than 0.100000
B(  0-S ,  1-C ) :   1.1304 B(  0-S ,  4-C ) :   1.1611 B(  1-C ,  2-C ) :   1.6375
B(  1-C , 32-H ) :   0.9673 B(  2-C ,  3-C ) :   1.2339 B(  2-C ,  6-C ) :   1.0124
B(  3-C ,  4-C ) :   1.5667 B(  3-C ,  5-H ) :   1.0008 B(  4-C , 20-C ) :   1.0539
B(  6-C ,  7-H ) :   0.9272 B(  6-C ,  8-H ) :   0.9430 B(  6-C ,  9-C ) :   1.0828
B(  9-C , 10-H ) :   0.9539 B(  9-C , 11-H ) :   0.9519 B(  9-C , 12-C ) :   1.0594
B( 12-C , 13-H ) :   0.9756 B( 12-C , 14-H ) :   0.9774 B( 12-C , 15-H ) :   0.9771
B( 16-S , 17-C ) :   1.1653 B( 16-S , 20-C ) :   1.1460 B( 17-C , 18-C ) :   1.6213
B( 17-C , 33-H ) :   0.9512 B( 18-C , 19-C ) :   1.2405 B( 18-C , 21-H ) :   0.9859
B( 19-C , 20-C ) :   1.5460 B( 19-C , 22-C ) :   1.0590 B( 22-C , 23-H ) :   0.9294
B( 22-C , 24-H ) :   0.9187 B( 22-C , 25-C ) :   1.0562 B( 25-C , 26-H ) :   0.9578
B( 25-C , 27-H ) :   0.9583 B( 25-C , 28-C ) :   1.0702 B( 28-C , 29-H ) :   0.9764
B( 28-C , 30-H ) :   0.9756 B( 28-C , 31-H ) :   0.9775

Dispersion correction           -0.014033071
FINAL SINGLE POINT ENERGY     -1339.882882005904

DIPOLE MOMENT
-------------
                                X             Y             Z
Electronic contribution:    -15.30408       4.92565     -24.66404
Nuclear contribution   :     15.71383      -5.05860      25.00791
                        -----------------------------------------
Total Dipole Moment    :      0.40975      -0.13294       0.34386
                        -----------------------------------------
Magnitude (a.u.)       :      0.55119
Magnitude (Debye)      :      1.40101

Rotational constants in cm-1:     0.016836     0.009248     0.006663
Rotational constants in MHz :   504.743175   277.239697   199.745918

                             ****ORCA TERMINATED NORMALLY****
TOTAL RUN TIME: 0 days 0 hours 0 minutes 30 seconds 37 msec
