                         Program Version 4.2.1 -  RELEASE  -
|  1> ! wB97X-D3 SP def2-SVP
|  2> %pal
|  3> nprocs 16
|  4> end
|  5>
|  6> * xyz 0 1
|  7> S 	 42.4049 	 11.9186 	 49.8711
|  8> C 	 41.7292 	 12.0657 	 51.457
|  9> C 	 42.0462 	 13.2816 	 52.065
| 10> C 	 42.4702 	 14.2743 	 51.1381
| 11> C 	 42.5071 	 13.7008 	 49.8536
| 12> H 	 42.7515 	 15.2578 	 51.2429
| 13> C 	 41.9429 	 13.5111 	 53.5843
| 14> H 	 42.0129 	 14.5647 	 53.7025
| 15> H 	 42.818 	 13.0837 	 54.0995
| 16> C 	 40.6802 	 13.0416 	 54.315
| 17> H 	 39.8129 	 13.4082 	 53.7435
| 18> H 	 40.6544 	 11.9557 	 54.3309
| 19> C 	 40.6895 	 13.5545 	 55.7976
| 20> H 	 41.737 	 13.3335 	 56.1696
| 21> H 	 40.6647 	 14.6193 	 55.8658
| 22> H 	 39.8422 	 13.1266 	 56.301
| 23> S 	 44.1231 	 13.6238 	 47.5173
| 24> C 	 44.2973 	 15.0989 	 46.6431
| 25> C 	 43.4147 	 16.0555 	 47.0998
| 26> C 	 42.639 	 15.6255 	 48.1911
| 27> C 	 43.004 	 14.3851 	 48.6934
| 28> H 	 43.3668 	 17.0224 	 46.6171
| 29> C 	 41.7208 	 16.5471 	 48.7619
| 30> H 	 42.0886 	 17.5307 	 48.8735
| 31> H 	 41.6597 	 16.3344 	 49.8353
| 32> C 	 40.3403 	 16.5208 	 48.1205
| 33> H 	 40.4743 	 16.2794 	 47.0507
| 34> H 	 39.8546 	 17.5014 	 48.1232
| 35> C 	 39.3095 	 15.4849 	 48.6311
| 36> H 	 38.6113 	 15.3246 	 47.8471
| 37> H 	 38.7935 	 16.0089 	 49.4027
| 38> H 	 39.806 	 14.559 	 48.9337
| 39> H 	 41.2978 	 11.2061 	 51.9705
| 40> H 	 44.9729 	 15.3309 	 45.761
| 41> *
| 42>
| 43>                          ****END OF INPUT****

CARTESIAN COORDINATES (ANGSTROEM)
---------------------------------
  S     42.404900   11.918600   49.871100
  C     41.729200   12.065700   51.457000
  C     42.046200   13.281600   52.065000
  C     42.470200   14.274300   51.138100
  C     42.507100   13.700800   49.853600
  H     42.751500   15.257800   51.242900
  C     41.942900   13.511100   53.584300
  H     42.012900   14.564700   53.702500
  H     42.818000   13.083700   54.099500
  C     40.680200   13.041600   54.315000
  H     39.812900   13.408200   53.743500
  H     40.654400   11.955700   54.330900
  C     40.689500   13.554500   55.797600
  H     41.737000   13.333500   56.169600
  H     40.664700   14.619300   55.865800
  H     39.842200   13.126600   56.301000
  S     44.123100   13.623800   47.517300
  C     44.297300   15.098900   46.643100
  C     43.414700   16.055500   47.099800
  C     42.639000   15.625500   48.191100
  C     43.004000   14.385100   48.693400
  H     43.366800   17.022400   46.617100
  C     41.720800   16.547100   48.761900
  H     42.088600   17.530700   48.873500
  H     41.659700   16.334400   49.835300
  C     40.340300   16.520800   48.120500
  H     40.474300   16.279400   47.050700
  H     39.854600   17.501400   48.123200
  C     39.309500   15.484900   48.631100
  H     38.611300   15.324600   47.847100
  H     38.793500   16.008900   49.402700
  H     39.806000   14.559000   48.933700
  H     41.297800   11.206100   51.970500
  H     44.972900   15.330900   45.761000

 Total Charge           Charge          ....    0
 Multiplicity           Mult            ....    1
 Number of Electrons    NEL             ....  134
 Basis Dimension        Dim             ....  322

ORBITAL ENERGIES
----------------

  NO   OCC          E(Eh)            E(eV)
   0   2.0000     -88.969894     -2420.9939
   1   2.0000     -88.964890     -2420.8577
   2   2.0000     -10.332796      -281.1697
   3   2.0000     -10.324981      -280.9570
   4   2.0000     -10.317763      -280.7606
   5   2.0000     -10.312813      -280.6259
   6   2.0000     -10.305760      -280.4340
   7   2.0000     -10.296017      -280.1689
   8   2.0000     -10.290835      -280.0278
   9   2.0000     -10.290519      -280.0193
  10   2.0000     -10.289870      -280.0016
  11   2.0000     -10.285752      -279.8896
  12   2.0000     -10.283609      -279.8312
  13   2.0000     -10.279934      -279.7312
  14   2.0000     -10.275316      -279.6056
  15   2.0000     -10.265274      -279.3323
  16   2.0000      -8.084521      -219.9910
  17   2.0000      -8.079384      -219.8512
  18   2.0000      -6.042866      -164.4347
  19   2.0000      -6.039534      -164.3441
  20   2.0000      -6.038035      -164.3033
  21   2.0000      -6.034987      -164.2204
  22   2.0000      -6.033978      -164.1929
  23   2.0000      -6.029975      -164.0840
  24   2.0000      -1.008202       -27.4346
  25   2.0000      -0.985375       -26.8134
  26   2.0000      -0.915100       -24.9011
  27   2.0000      -0.909280       -24.7428
  28   2.0000      -0.869259       -23.6537
  29   2.0000      -0.856040       -23.2940
  30   2.0000      -0.848449       -23.0875
  31   2.0000      -0.810753       -22.0617
  32   2.0000      -0.784528       -21.3481
  33   2.0000      -0.767528       -20.8855
  34   2.0000      -0.707822       -19.2608
  35   2.0000      -0.700799       -19.0697
  36   2.0000      -0.690146       -18.7798
  37   2.0000      -0.662629       -18.0310
  38   2.0000      -0.643548       -17.5118
  39   2.0000      -0.618746       -16.8369
  40   2.0000      -0.602053       -16.3827
  41   2.0000      -0.569307       -15.4916
  42   2.0000      -0.565000       -15.3744
  43   2.0000      -0.555947       -15.1281
  44   2.0000      -0.532226       -14.4826
  45   2.0000      -0.530348       -14.4315
  46   2.0000      -0.522401       -14.2153
  47   2.0000      -0.508898       -13.8478
  48   2.0000      -0.498785       -13.5726
  49   2.0000      -0.496197       -13.5022
  50   2.0000      -0.493364       -13.4251
  51   2.0000      -0.484685       -13.1890
  52   2.0000      -0.473703       -12.8901
  53   2.0000      -0.465047       -12.6546
  54   2.0000      -0.456448       -12.4206
  55   2.0000      -0.452446       -12.3117
  56   2.0000      -0.443709       -12.0739
  57   2.0000      -0.435011       -11.8373
  58   2.0000      -0.430675       -11.7193
  59   2.0000      -0.427278       -11.6268
  60   2.0000      -0.421851       -11.4791
  61   2.0000      -0.413674       -11.2567
  62   2.0000      -0.401698       -10.9307
  63   2.0000      -0.355863        -9.6835
  64   2.0000      -0.333013        -9.0617
  65   2.0000      -0.327929        -8.9234
  66   2.0000      -0.275541        -7.4978
  67   0.0000       0.017804         0.4845
  68   0.0000       0.064323         1.7503
  69   0.0000       0.096367         2.6223
  70   0.0000       0.119359         3.2479
  71   0.0000       0.132842         3.6148

MULLIKEN ATOMIC CHARGES
-----------------------
   0 S :    0.108138
   1 C :   -0.120207
   2 C :   -0.065003
   3 C :    0.036586
   4 C :   -0.153027
   5 H :    0.000193
   6 C :    0.066657
   7 H :    0.002749
   8 H :    0.041550
   9 C :   -0.100099
  10 H :    0.038148
  11 H :    0.032975
  12 C :   -0.038114
  13 H :    0.031311
  14 H :    0.024455
  15 H :    0.045659
  16 S :    0.098114
  17 C :   -0.102779
  18 C :   -0.037578
  19 C :   -0.041271
  20 C :   -0.133278
  21 H :    0.016584
  22 C :    0.092584
  23 H :    0.009426
  24 H :   -0.012983
  25 C :   -0.102667
  26 H :    0.024150
  27 H :    0.021886
  28 C :   -0.006704
  29 H :    0.022553
  30 H :    0.022582
  31 H :    0.049112
  32 H :    0.051418
  33 H :    0.076882
Sum of atomic charges:    0.0000000

LOEWDIN ATOMIC CHARGES
----------------------
   0 S :    0.399228
   1 C :   -0.204001
   2 C :   -0.055676
   3 C :   -0.045096
   4 C :   -0.169470
   5 H :    0.020306
   6 C :   -0.033444
   7 H :    0.020568
   8 H :    0.034319
   9 C :   -0.039025
  10 H :    0.025851
  11 H :    0.019729
  12 C :   -0.061736
  13 H :    0.033147
  14 H :    0.019363
  15 H :    0.026995
  16 S :    0.388997
  17 C :   -0.202427
  18 C :   -0.072257
  19 C :   -0.064281
  20 C :   -0.186734
  21 H :    0.032027
  22 C :   -0.043457
  23 H :    0.028790
  24 H :    0.029470
  25 C :   -0.037893
  26 H :    0.022973
  27 H :    0.021677
  28 C :   -0.054601
  29 H :    0.022277
  30 H :    0.020726
  31 H :    0.030498
  32 H :    0.025809
  33 H :    0.047349

  Mayer bond orders larger than 0.100000
B(  0-S ,  1-C ) :   1.1353 B(  0-S ,  4-C ) :   1.1410 B(  1-C ,  2-C ) :   1.5877
B(  1-C , 32-H ) :   0.9732 B(  2-C ,  3-C ) :   1.2379 B(  2-C ,  6-C ) :   1.0168
B(  3-C ,  4-C ) :   1.5314 B(  3-C ,  5-H ) :   1.0050 B(  4-C , 20-C ) :   1.1062
B(  6-C ,  7-H ) :   0.9465 B(  6-C ,  8-H ) :   0.9281 B(  6-C ,  9-C ) :   1.0732
B(  9-C , 10-H ) :   0.9596 B(  9-C , 11-H ) :   0.9521 B(  9-C , 12-C ) :   1.0762
B( 12-C , 13-H ) :   0.9722 B( 12-C , 14-H ) :   0.9774 B( 12-C , 15-H ) :   0.9746
B( 16-S , 17-C ) :   1.1545 B( 16-S , 20-C ) :   1.1054 B( 17-C , 18-C ) :   1.6064
B( 17-C , 33-H ) :   0.9563 B( 18-C , 19-C ) :   1.2447 B( 18-C , 21-H ) :   0.9929
B( 19-C , 20-C ) :   1.5671 B( 19-C , 22-C ) :   1.0753 B( 22-C , 23-H ) :   0.9265
B( 22-C , 24-H ) :   0.9198 B( 22-C , 25-C ) :   1.0470 B( 25-C , 26-H ) :   0.9641
B( 25-C , 27-H ) :   0.9572 B( 25-C , 28-C ) :   1.0777 B( 28-C , 29-H ) :   0.9738
B( 28-C , 30-H ) :   0.9779 B( 28-C , 31-H ) :   0.9764

Dispersion correction           -0.014490614
FINAL SINGLE POINT ENERGY     -1339.853208553633

DIPOLE MOMENT
-------------
                                X             Y             Z
Electronic contribution:     17.24729     -11.66486     -19.06973
Nuclear contribution   :    -17.40979      12.17232      19.48596
                        -----------------------------------------
Total Dipole Moment    :     -0.16250       0.50746       0.41623
                        -----------------------------------------
Magnitude (a.u.)       :      0.67615
Magnitude (Debye)      :      1.71863

Rotational constants in cm-1:     0.022022     0.007899     0.006659
Rotational constants in MHz :   660.206495   236.815743   199.623981

                             ****ORCA TERMINATED NORMALLY****
TOTAL RUN TIME: 0 days 0 hours 0 minutes 33 seconds 666 msec
