                         Program Version 4.2.1 -  RELEASE  -
|  1> ! wB97X-D3 SP def2-SVP
|  2> %pal
|  3> nprocs 16
|  4> end
|  5>
|  6> * xyz 0 1
|  7> S 	 -63.8668 	 53.4322 	 122.808
|  8> C 	 -65.5657 	 53.3692 	 122.985
|  9> C 	 -66.0396 	 52.1572 	 122.539
| 10> C 	 -65.1318 	 51.6254 	 121.605
| 11> C 	 -63.9858 	 52.3422 	 121.467
| 12> H 	 -65.2682 	 50.8667 	 120.855
| 13> C 	 -67.3257 	 51.4634 	 122.932
| 14> H 	 -68.1872 	 52.0915 	 122.736
| 15> H 	 -67.2234 	 51.5318 	 124.052
| 16> C 	 -67.5536 	 50.0886 	 122.357
| 17> H 	 -67.5462 	 50.2157 	 121.285
| 18> H 	 -66.7353 	 49.4543 	 122.605
| 19> C 	 -68.8463 	 49.4886 	 122.827
| 20> H 	 -68.8157 	 49.1396 	 123.882
| 21> H 	 -69.7675 	 50.1457 	 122.824
| 22> H 	 -69.0048 	 48.5364 	 122.213
| 23> S 	 -61.1562 	 52.7126 	 121.114
| 24> C 	 -60.5337 	 52.4202 	 119.545
| 25> C 	 -61.4005 	 51.8157 	 118.642
| 26> C 	 -62.7338 	 51.7643 	 119.281
| 27> C 	 -62.7612 	 52.1307 	 120.601
| 28> H 	 -61.0806 	 51.6006 	 117.625
| 29> C 	 -63.8926 	 51.1641 	 118.474
| 30> H 	 -63.6876 	 51.4763 	 117.465
| 31> H 	 -64.7191 	 51.688 	 118.89
| 32> C 	 -63.9368 	 49.6281 	 118.525
| 33> H 	 -63.8674 	 49.2996 	 119.532
| 34> H 	 -63.1002 	 49.2349 	 117.961
| 35> C 	 -65.3145 	 49.1237 	 118.055
| 36> H 	 -65.3467 	 48.0295 	 118.144
| 37> H 	 -65.4842 	 49.5567 	 117.049
| 38> H 	 -66.1654 	 49.4231 	 118.703
| 39> H 	 -65.9848 	 53.9663 	 123.754
| 40> H 	 -59.6054 	 52.7703 	 119.251
| 41> *
| 42>
| 43>                          ****END OF INPUT****

CARTESIAN COORDINATES (ANGSTROEM)
---------------------------------
  S    -63.866800   53.432200  122.808000
  C    -65.565700   53.369200  122.985000
  C    -66.039600   52.157200  122.539000
  C    -65.131800   51.625400  121.605000
  C    -63.985800   52.342200  121.467000
  H    -65.268200   50.866700  120.855000
  C    -67.325700   51.463400  122.932000
  H    -68.187200   52.091500  122.736000
  H    -67.223400   51.531800  124.052000
  C    -67.553600   50.088600  122.357000
  H    -67.546200   50.215700  121.285000
  H    -66.735300   49.454300  122.605000
  C    -68.846300   49.488600  122.827000
  H    -68.815700   49.139600  123.882000
  H    -69.767500   50.145700  122.824000
  H    -69.004800   48.536400  122.213000
  S    -61.156200   52.712600  121.114000
  C    -60.533700   52.420200  119.545000
  C    -61.400500   51.815700  118.642000
  C    -62.733800   51.764300  119.281000
  C    -62.761200   52.130700  120.601000
  H    -61.080600   51.600600  117.625000
  C    -63.892600   51.164100  118.474000
  H    -63.687600   51.476300  117.465000
  H    -64.719100   51.688000  118.890000
  C    -63.936800   49.628100  118.525000
  H    -63.867400   49.299600  119.532000
  H    -63.100200   49.234900  117.961000
  C    -65.314500   49.123700  118.055000
  H    -65.346700   48.029500  118.144000
  H    -65.484200   49.556700  117.049000
  H    -66.165400   49.423100  118.703000
  H    -65.984800   53.966300  123.754000
  H    -59.605400   52.770300  119.251000

 Total Charge           Charge          ....    0
 Multiplicity           Mult            ....    1
 Number of Electrons    NEL             ....  134
 Basis Dimension        Dim             ....  322

ORBITAL ENERGIES
----------------

  NO   OCC          E(Eh)            E(eV)
   0   2.0000     -88.965598     -2420.8770
   1   2.0000     -88.957235     -2420.6494
   2   2.0000     -10.328537      -281.0538
   3   2.0000     -10.327231      -281.0182
   4   2.0000     -10.312024      -280.6044
   5   2.0000     -10.303197      -280.3642
   6   2.0000     -10.303030      -280.3597
   7   2.0000     -10.300862      -280.3007
   8   2.0000     -10.297862      -280.2191
   9   2.0000     -10.293831      -280.1094
  10   2.0000     -10.290852      -280.0283
  11   2.0000     -10.287501      -279.9371
  12   2.0000     -10.286211      -279.9020
  13   2.0000     -10.286191      -279.9015
  14   2.0000     -10.285332      -279.8781
  15   2.0000     -10.284946      -279.8676
  16   2.0000      -8.080605      -219.8844
  17   2.0000      -8.073849      -219.7006
  18   2.0000      -6.039269      -164.3369
  19   2.0000      -6.035168      -164.2253
  20   2.0000      -6.032132      -164.1427
  21   2.0000      -6.031128      -164.1153
  22   2.0000      -6.028608      -164.0468
  23   2.0000      -6.024226      -163.9275
  24   2.0000      -1.013822       -27.5875
  25   2.0000      -0.987691       -26.8764
  26   2.0000      -0.920294       -25.0425
  27   2.0000      -0.911825       -24.8120
  28   2.0000      -0.868231       -23.6258
  29   2.0000      -0.854173       -23.2432
  30   2.0000      -0.845046       -22.9949
  31   2.0000      -0.819208       -22.2918
  32   2.0000      -0.781788       -21.2735
  33   2.0000      -0.770685       -20.9714
  34   2.0000      -0.711740       -19.3674
  35   2.0000      -0.702052       -19.1038
  36   2.0000      -0.688748       -18.7418
  37   2.0000      -0.660073       -17.9615
  38   2.0000      -0.647535       -17.6203
  39   2.0000      -0.623281       -16.9603
  40   2.0000      -0.589441       -16.0395
  41   2.0000      -0.579180       -15.7603
  42   2.0000      -0.573920       -15.6172
  43   2.0000      -0.563676       -15.3384
  44   2.0000      -0.533720       -14.5233
  45   2.0000      -0.524418       -14.2701
  46   2.0000      -0.516420       -14.0525
  47   2.0000      -0.510770       -13.8988
  48   2.0000      -0.502459       -13.6726
  49   2.0000      -0.497225       -13.5302
  50   2.0000      -0.491306       -13.3691
  51   2.0000      -0.484877       -13.1942
  52   2.0000      -0.474693       -12.9170
  53   2.0000      -0.472083       -12.8460
  54   2.0000      -0.459412       -12.5012
  55   2.0000      -0.453285       -12.3345
  56   2.0000      -0.441756       -12.0208
  57   2.0000      -0.439836       -11.9686
  58   2.0000      -0.435247       -11.8437
  59   2.0000      -0.428799       -11.6682
  60   2.0000      -0.425194       -11.5701
  61   2.0000      -0.416986       -11.3468
  62   2.0000      -0.406746       -11.0681
  63   2.0000      -0.354843        -9.6558
  64   2.0000      -0.331029        -9.0078
  65   2.0000      -0.322432        -8.7738
  66   2.0000      -0.283216        -7.7067
  67   0.0000       0.023737         0.6459
  68   0.0000       0.071885         1.9561
  69   0.0000       0.097081         2.6417
  70   0.0000       0.123490         3.3603
  71   0.0000       0.125983         3.4282

MULLIKEN ATOMIC CHARGES
-----------------------
   0 S :    0.082727
   1 C :   -0.096601
   2 C :   -0.074497
   3 C :   -0.012317
   4 C :   -0.119375
   5 H :   -0.014159
   6 C :    0.036685
   7 H :    0.031088
   8 H :    0.037533
   9 C :   -0.045915
  10 H :    0.036732
  11 H :    0.030033
  12 C :   -0.068145
  13 H :    0.034863
  14 H :    0.041683
  15 H :    0.043925
  16 S :    0.096787
  17 C :   -0.061458
  18 C :   -0.025009
  19 C :   -0.122110
  20 C :   -0.096420
  21 H :    0.027646
  22 C :    0.069502
  23 H :    0.016477
  24 H :    0.025753
  25 C :   -0.035050
  26 H :    0.022595
  27 H :    0.030501
  28 C :   -0.064107
  29 H :    0.038858
  30 H :    0.038407
  31 H :    0.033268
  32 H :    0.030176
  33 H :    0.029925
Sum of atomic charges:   -0.0000000

LOEWDIN ATOMIC CHARGES
----------------------
   0 S :    0.411945
   1 C :   -0.200926
   2 C :   -0.057016
   3 C :   -0.079965
   4 C :   -0.175481
   5 H :    0.026169
   6 C :   -0.037306
   7 H :    0.032384
   8 H :    0.040170
   9 C :   -0.044474
  10 H :    0.025851
  11 H :    0.026397
  12 C :   -0.073322
  13 H :    0.028180
  14 H :    0.030687
  15 H :    0.035759
  16 S :    0.395147
  17 C :   -0.173268
  18 C :   -0.074861
  19 C :   -0.049028
  20 C :   -0.196377
  21 H :    0.034803
  22 C :   -0.027914
  23 H :    0.027305
  24 H :    0.024197
  25 C :   -0.032852
  26 H :    0.018300
  27 H :    0.026820
  28 C :   -0.068525
  29 H :    0.027619
  30 H :    0.027503
  31 H :    0.025323
  32 H :    0.014198
  33 H :    0.012559

  Mayer bond orders larger than 0.100000
B(  0-S ,  1-C ) :   1.1481 B(  0-S ,  4-C ) :   1.1627 B(  1-C ,  2-C ) :   1.6020
B(  1-C ,  4-C ) :   0.1008 B(  1-C , 32-H ) :   0.9807 B(  2-C ,  3-C ) :   1.2333
B(  2-C ,  6-C ) :   0.9918 B(  3-C ,  4-C ) :   1.5669 B(  3-C ,  5-H ) :   0.9981
B(  4-C , 20-C ) :   1.0276 B(  6-C ,  7-H ) :   0.9334 B(  6-C ,  8-H ) :   0.9336
B(  6-C ,  9-C ) :   1.0999 B(  9-C , 10-H ) :   0.9401 B(  9-C , 11-H ) :   0.9432
B(  9-C , 12-C ) :   1.0872 B( 12-C , 13-H ) :   0.9721 B( 12-C , 14-H ) :   0.9732
B( 12-C , 15-H ) :   0.9710 B( 16-S , 17-C ) :   1.1688 B( 16-S , 20-C ) :   1.0949
B( 17-C , 18-C ) :   1.6326 B( 17-C , 33-H ) :   0.9704 B( 18-C , 19-C ) :   1.1935
B( 18-C , 21-H ) :   0.9894 B( 19-C , 20-C ) :   1.6584 B( 19-C , 22-C ) :   1.0451
B( 22-C , 23-H ) :   0.9259 B( 22-C , 24-H ) :   0.9354 B( 22-C , 25-C ) :   1.0623
B( 25-C , 26-H ) :   0.9573 B( 25-C , 27-H ) :   0.9505 B( 25-C , 28-C ) :   1.0820
B( 28-C , 29-H ) :   0.9726 B( 28-C , 30-H ) :   0.9725 B( 28-C , 31-H ) :   0.9759

Dispersion correction           -0.014373865
FINAL SINGLE POINT ENERGY     -1339.852338975221

DIPOLE MOMENT
-------------
                                X             Y             Z
Electronic contribution:     24.54487      20.12746       8.55892
Nuclear contribution   :    -24.97406     -20.55880      -8.82014
                        -----------------------------------------
Total Dipole Moment    :     -0.42919      -0.43134      -0.26122
                        -----------------------------------------
Magnitude (a.u.)       :      0.66219
Magnitude (Debye)      :      1.68316

Rotational constants in cm-1:     0.018130     0.009585     0.006540
Rotational constants in MHz :   543.508942   287.362916   196.078822

                             ****ORCA TERMINATED NORMALLY****
TOTAL RUN TIME: 0 days 0 hours 0 minutes 35 seconds 250 msec
