                         Program Version 4.2.1 -  RELEASE  -
|  1> ! wB97X-D3 SP def2-SVP
|  2> %pal
|  3> nprocs 16
|  4> end
|  5>
|  6> * xyz 0 1
|  7> S 	 -33.7651 	 57.3991 	 104.968
|  8> C 	 -32.4845 	 57.7993 	 103.879
|  9> C 	 -31.6206 	 58.6941 	 104.404
| 10> C 	 -31.903 	 58.8853 	 105.816
| 11> C 	 -33.0699 	 58.3923 	 106.298
| 12> H 	 -31.3405 	 59.512 	 106.444
| 13> C 	 -30.3512 	 59.2306 	 103.756
| 14> H 	 -30.5376 	 60.1513 	 103.278
| 15> H 	 -29.8744 	 58.5049 	 103.076
| 16> C 	 -29.3133 	 59.5342 	 104.848
| 17> H 	 -29.633 	 60.2267 	 105.603
| 18> H 	 -29.1619 	 58.6802 	 105.488
| 19> C 	 -27.8631 	 59.743 	 104.273
| 20> H 	 -27.9201 	 60.6102 	 103.682
| 21> H 	 -27.0387 	 59.8207 	 104.925
| 22> H 	 -27.6502 	 58.8175 	 103.751
| 23> S 	 -34.3771 	 56.815 	 108.006
| 24> C 	 -34.7167 	 57.3064 	 109.592
| 25> C 	 -34.2416 	 58.564 	 109.848
| 26> C 	 -33.6186 	 59.1592 	 108.729
| 27> C 	 -33.6301 	 58.3557 	 107.622
| 28> H 	 -34.3956 	 58.9464 	 110.851
| 29> C 	 -33.0876 	 60.6096 	 108.675
| 30> H 	 -33.2595 	 61.0351 	 107.676
| 31> H 	 -32.0157 	 60.4691 	 108.721
| 32> C 	 -33.5674 	 61.6209 	 109.75
| 33> H 	 -33.2862 	 61.2002 	 110.695
| 34> H 	 -34.6376 	 61.79 	 109.628
| 35> C 	 -33.0208 	 63.0126 	 109.677
| 36> H 	 -31.9222 	 63.118 	 109.699
| 37> H 	 -33.2625 	 63.378 	 110.659
| 38> H 	 -33.3982 	 63.5844 	 108.821
| 39> H 	 -32.5107 	 57.4959 	 102.793
| 40> H 	 -35.2752 	 56.7875 	 110.375
| 41> *
| 42>
| 43>                          ****END OF INPUT****

CARTESIAN COORDINATES (ANGSTROEM)
---------------------------------
  S    -33.765100   57.399100  104.968000
  C    -32.484500   57.799300  103.879000
  C    -31.620600   58.694100  104.404000
  C    -31.903000   58.885300  105.816000
  C    -33.069900   58.392300  106.298000
  H    -31.340500   59.512000  106.444000
  C    -30.351200   59.230600  103.756000
  H    -30.537600   60.151300  103.278000
  H    -29.874400   58.504900  103.076000
  C    -29.313300   59.534200  104.848000
  H    -29.633000   60.226700  105.603000
  H    -29.161900   58.680200  105.488000
  C    -27.863100   59.743000  104.273000
  H    -27.920100   60.610200  103.682000
  H    -27.038700   59.820700  104.925000
  H    -27.650200   58.817500  103.751000
  S    -34.377100   56.815000  108.006000
  C    -34.716700   57.306400  109.592000
  C    -34.241600   58.564000  109.848000
  C    -33.618600   59.159200  108.729000
  C    -33.630100   58.355700  107.622000
  H    -34.395600   58.946400  110.851000
  C    -33.087600   60.609600  108.675000
  H    -33.259500   61.035100  107.676000
  H    -32.015700   60.469100  108.721000
  C    -33.567400   61.620900  109.750000
  H    -33.286200   61.200200  110.695000
  H    -34.637600   61.790000  109.628000
  C    -33.020800   63.012600  109.677000
  H    -31.922200   63.118000  109.699000
  H    -33.262500   63.378000  110.659000
  H    -33.398200   63.584400  108.821000
  H    -32.510700   57.495900  102.793000
  H    -35.275200   56.787500  110.375000

 Total Charge           Charge          ....    0
 Multiplicity           Mult            ....    1
 Number of Electrons    NEL             ....  134
 Basis Dimension        Dim             ....  322

ORBITAL ENERGIES
----------------

  NO   OCC          E(Eh)            E(eV)
   0   2.0000     -88.962547     -2420.7940
   1   2.0000     -88.958765     -2420.6911
   2   2.0000     -10.329214      -281.0722
   3   2.0000     -10.322616      -280.8927
   4   2.0000     -10.313786      -280.6524
   5   2.0000     -10.311223      -280.5826
   6   2.0000     -10.303945      -280.3846
   7   2.0000     -10.299631      -280.2672
   8   2.0000     -10.294175      -280.1187
   9   2.0000     -10.293029      -280.0876
  10   2.0000     -10.289328      -279.9868
  11   2.0000     -10.288169      -279.9553
  12   2.0000     -10.286514      -279.9103
  13   2.0000     -10.282826      -279.8099
  14   2.0000     -10.278620      -279.6955
  15   2.0000     -10.272869      -279.5390
  16   2.0000      -8.078411      -219.8247
  17   2.0000      -8.073660      -219.6954
  18   2.0000      -6.036778      -164.2691
  19   2.0000      -6.032717      -164.1586
  20   2.0000      -6.032352      -164.1486
  21   2.0000      -6.029262      -164.0646
  22   2.0000      -6.028191      -164.0354
  23   2.0000      -6.024152      -163.9255
  24   2.0000      -1.013406       -27.5762
  25   2.0000      -0.988940       -26.9104
  26   2.0000      -0.913309       -24.8524
  27   2.0000      -0.911029       -24.7904
  28   2.0000      -0.876877       -23.8610
  29   2.0000      -0.859383       -23.3850
  30   2.0000      -0.840591       -22.8737
  31   2.0000      -0.820513       -22.3273
  32   2.0000      -0.784891       -21.3580
  33   2.0000      -0.775397       -21.0996
  34   2.0000      -0.718149       -19.5418
  35   2.0000      -0.699931       -19.0461
  36   2.0000      -0.692360       -18.8401
  37   2.0000      -0.657372       -17.8880
  38   2.0000      -0.639069       -17.3899
  39   2.0000      -0.623902       -16.9772
  40   2.0000      -0.596300       -16.2262
  41   2.0000      -0.579054       -15.7569
  42   2.0000      -0.575448       -15.6587
  43   2.0000      -0.566656       -15.4195
  44   2.0000      -0.531149       -14.4533
  45   2.0000      -0.524039       -14.2598
  46   2.0000      -0.520603       -14.1663
  47   2.0000      -0.512924       -13.9574
  48   2.0000      -0.506079       -13.7711
  49   2.0000      -0.503222       -13.6934
  50   2.0000      -0.498500       -13.5649
  51   2.0000      -0.483449       -13.1553
  52   2.0000      -0.478399       -13.0179
  53   2.0000      -0.464199       -12.6315
  54   2.0000      -0.456528       -12.4228
  55   2.0000      -0.452966       -12.3258
  56   2.0000      -0.446430       -12.1480
  57   2.0000      -0.433492       -11.7959
  58   2.0000      -0.431382       -11.7385
  59   2.0000      -0.424147       -11.5416
  60   2.0000      -0.420118       -11.4320
  61   2.0000      -0.413466       -11.2510
  62   2.0000      -0.405468       -11.0333
  63   2.0000      -0.361179        -9.8282
  64   2.0000      -0.332878        -9.0581
  65   2.0000      -0.326450        -8.8832
  66   2.0000      -0.287713        -7.8291
  67   0.0000       0.027652         0.7524
  68   0.0000       0.083217         2.2645
  69   0.0000       0.110377         3.0035
  70   0.0000       0.129159         3.5146
  71   0.0000       0.139345         3.7918

MULLIKEN ATOMIC CHARGES
-----------------------
   0 S :    0.079552
   1 C :   -0.148758
   2 C :   -0.084486
   3 C :    0.012062
   4 C :   -0.104136
   5 H :   -0.025406
   6 C :    0.127576
   7 H :    0.029715
   8 H :    0.033924
   9 C :   -0.156856
  10 H :    0.031892
  11 H :    0.021392
  12 C :    0.005752
  13 H :    0.024570
  14 H :    0.022078
  15 H :    0.026290
  16 S :    0.107364
  17 C :   -0.073038
  18 C :   -0.077413
  19 C :   -0.014400
  20 C :   -0.138573
  21 H :    0.016551
  22 C :    0.039741
  23 H :    0.032240
  24 H :    0.034407
  25 C :   -0.070550
  26 H :    0.026079
  27 H :    0.040603
  28 C :   -0.038825
  29 H :    0.020739
  30 H :    0.026798
  31 H :    0.045803
  32 H :    0.072340
  33 H :    0.054974
Sum of atomic charges:    0.0000000

LOEWDIN ATOMIC CHARGES
----------------------
   0 S :    0.375494
   1 C :   -0.200914
   2 C :   -0.068289
   3 C :   -0.060771
   4 C :   -0.173285
   5 H :    0.017944
   6 C :   -0.019623
   7 H :    0.028139
   8 H :    0.035954
   9 C :   -0.045556
  10 H :    0.016534
  11 H :    0.021816
  12 C :   -0.054436
  13 H :    0.017143
  14 H :    0.020745
  15 H :    0.027539
  16 S :    0.428685
  17 C :   -0.201178
  18 C :   -0.081681
  19 C :   -0.054476
  20 C :   -0.194914
  21 H :    0.032331
  22 C :   -0.034582
  23 H :    0.030913
  24 H :    0.028962
  25 C :   -0.039907
  26 H :    0.020369
  27 H :    0.031999
  28 C :   -0.065249
  29 H :    0.023259
  30 H :    0.030417
  31 H :    0.028179
  32 H :    0.042691
  33 H :    0.035746

  Mayer bond orders larger than 0.100000
B(  0-S ,  1-C ) :   1.1363 B(  0-S ,  4-C ) :   1.1110 B(  1-C ,  2-C ) :   1.6554
B(  1-C , 32-H ) :   0.9577 B(  2-C ,  3-C ) :   1.2192 B(  2-C ,  6-C ) :   1.0096
B(  3-C ,  4-C ) :   1.6035 B(  3-C ,  5-H ) :   0.9970 B(  4-C , 20-C ) :   1.0617
B(  6-C ,  7-H ) :   0.9187 B(  6-C ,  8-H ) :   0.9531 B(  6-C ,  9-C ) :   1.0821
B(  9-C , 10-H ) :   0.9457 B(  9-C , 11-H ) :   0.9596 B(  9-C , 12-C ) :   1.0626
B( 12-C , 13-H ) :   0.9786 B( 12-C , 14-H ) :   0.9753 B( 12-C , 15-H ) :   0.9753
B( 16-S , 17-C ) :   1.1709 B( 16-S , 20-C ) :   1.1356 B( 17-C , 18-C ) :   1.6079
B( 17-C , 33-H ) :   0.9600 B( 18-C , 19-C ) :   1.2430 B( 18-C , 21-H ) :   0.9937
B( 19-C , 20-C ) :   1.6041 B( 19-C , 22-C ) :   1.0149 B( 22-C , 23-H ) :   0.9455
B( 22-C , 24-H ) :   0.9229 B( 22-C , 25-C ) :   1.0780 B( 25-C , 26-H ) :   0.9476
B( 25-C , 27-H ) :   0.9554 B( 25-C , 28-C ) :   1.0946 B( 28-C , 29-H ) :   0.9707
B( 28-C , 30-H ) :   0.9708 B( 28-C , 31-H ) :   0.9751

Dispersion correction           -0.013196235
FINAL SINGLE POINT ENERGY     -1339.865584195708

DIPOLE MOMENT
-------------
                                X             Y             Z
Electronic contribution:    -19.93989     -23.01777      -2.79369
Nuclear contribution   :     20.39728      23.56662       3.05632
                        -----------------------------------------
Total Dipole Moment    :      0.45739       0.54885       0.26263
                        -----------------------------------------
Magnitude (a.u.)       :      0.76119
Magnitude (Debye)      :      1.93480

Rotational constants in cm-1:     0.015719     0.008966     0.006306
Rotational constants in MHz :   471.251677   268.799231   189.042652

                             ****ORCA TERMINATED NORMALLY****
TOTAL RUN TIME: 0 days 0 hours 0 minutes 29 seconds 254 msec
