                         Program Version 4.2.1 -  RELEASE  -
|  1> ! wB97X-D3 SP def2-SVP
|  2> %pal
|  3> nprocs 16
|  4> end
|  5>
|  6> * xyz 0 1
|  7> S 	 -63.6358 	 38.6803 	 117.45
|  8> C 	 -64.8988 	 38.3095 	 118.56
|  9> C 	 -66.0263 	 37.9445 	 117.882
| 10> C 	 -66.0064 	 38.321 	 116.481
| 11> C 	 -64.7967 	 38.8464 	 116.163
| 12> H 	 -66.8479 	 38.2894 	 115.793
| 13> C 	 -67.2189 	 37.3602 	 118.518
| 14> H 	 -68.1101 	 37.5547 	 118.027
| 15> H 	 -67.5589 	 37.9323 	 119.385
| 16> C 	 -67.175 	 35.8833 	 118.697
| 17> H 	 -67.9881 	 35.4219 	 119.187
| 18> H 	 -67.0204 	 35.3892 	 117.706
| 19> C 	 -65.987 	 35.5153 	 119.595
| 20> H 	 -65.1212 	 35.9797 	 119.142
| 21> H 	 -66.1043 	 35.8945 	 120.674
| 22> H 	 -65.8534 	 34.492 	 119.672
| 23> S 	 -63.8951 	 41.1079 	 114.986
| 24> C 	 -64.0586 	 41.2751 	 113.28
| 25> C 	 -64.3104 	 40.1002 	 112.637
| 26> C 	 -64.6033 	 39.0697 	 113.535
| 27> C 	 -64.4402 	 39.4429 	 114.885
| 28> H 	 -64.4331 	 40.0601 	 111.545
| 29> C 	 -65.0337 	 37.6538 	 113.032
| 30> H 	 -65.9005 	 37.7667 	 112.296
| 31> H 	 -65.5044 	 37.1233 	 113.903
| 32> C 	 -63.8335 	 36.8276 	 112.476
| 33> H 	 -63.3114 	 37.1996 	 111.63
| 34> H 	 -64.2413 	 35.9364 	 111.991
| 35> C 	 -62.9601 	 36.3211 	 113.604
| 36> H 	 -63.372 	 35.6021 	 114.389
| 37> H 	 -62.2958 	 37.0563 	 113.921
| 38> H 	 -62.2629 	 35.7631 	 113.009
| 39> H 	 -64.7092 	 38.1614 	 119.613
| 40> H 	 -63.7783 	 42.2152 	 112.768
| 41> *
| 42>
| 43>                          ****END OF INPUT****

CARTESIAN COORDINATES (ANGSTROEM)
---------------------------------
  S    -63.635800   38.680300  117.450000
  C    -64.898800   38.309500  118.560000
  C    -66.026300   37.944500  117.882000
  C    -66.006400   38.321000  116.481000
  C    -64.796700   38.846400  116.163000
  H    -66.847900   38.289400  115.793000
  C    -67.218900   37.360200  118.518000
  H    -68.110100   37.554700  118.027000
  H    -67.558900   37.932300  119.385000
  C    -67.175000   35.883300  118.697000
  H    -67.988100   35.421900  119.187000
  H    -67.020400   35.389200  117.706000
  C    -65.987000   35.515300  119.595000
  H    -65.121200   35.979700  119.142000
  H    -66.104300   35.894500  120.674000
  H    -65.853400   34.492000  119.672000
  S    -63.895100   41.107900  114.986000
  C    -64.058600   41.275100  113.280000
  C    -64.310400   40.100200  112.637000
  C    -64.603300   39.069700  113.535000
  C    -64.440200   39.442900  114.885000
  H    -64.433100   40.060100  111.545000
  C    -65.033700   37.653800  113.032000
  H    -65.900500   37.766700  112.296000
  H    -65.504400   37.123300  113.903000
  C    -63.833500   36.827600  112.476000
  H    -63.311400   37.199600  111.630000
  H    -64.241300   35.936400  111.991000
  C    -62.960100   36.321100  113.604000
  H    -63.372000   35.602100  114.389000
  H    -62.295800   37.056300  113.921000
  H    -62.262900   35.763100  113.009000
  H    -64.709200   38.161400  119.613000
  H    -63.778300   42.215200  112.768000

 Total Charge           Charge          ....    0
 Multiplicity           Mult            ....    1
 Number of Electrons    NEL             ....  134
 Basis Dimension        Dim             ....  322

ORBITAL ENERGIES
----------------

  NO   OCC          E(Eh)            E(eV)
   0   2.0000     -88.962996     -2420.8062
   1   2.0000     -88.962201     -2420.7846
   2   2.0000     -10.324207      -280.9359
   3   2.0000     -10.323488      -280.9164
   4   2.0000     -10.314344      -280.6676
   5   2.0000     -10.308278      -280.5025
   6   2.0000     -10.304132      -280.3897
   7   2.0000     -10.301331      -280.3135
   8   2.0000     -10.297132      -280.1992
   9   2.0000     -10.292289      -280.0674
  10   2.0000     -10.290045      -280.0064
  11   2.0000     -10.285092      -279.8716
  12   2.0000     -10.279740      -279.7260
  13   2.0000     -10.275890      -279.6212
  14   2.0000     -10.269622      -279.4506
  15   2.0000     -10.265721      -279.3445
  16   2.0000      -8.078439      -219.8255
  17   2.0000      -8.078004      -219.8137
  18   2.0000      -6.036730      -164.2678
  19   2.0000      -6.036484      -164.2611
  20   2.0000      -6.032861      -164.1625
  21   2.0000      -6.032572      -164.1546
  22   2.0000      -6.029361      -164.0673
  23   2.0000      -6.028524      -164.0445
  24   2.0000      -1.011740       -27.5308
  25   2.0000      -0.990105       -26.9421
  26   2.0000      -0.921713       -25.0811
  27   2.0000      -0.904163       -24.6035
  28   2.0000      -0.869900       -23.6712
  29   2.0000      -0.852908       -23.2088
  30   2.0000      -0.846051       -23.0222
  31   2.0000      -0.812150       -22.0997
  32   2.0000      -0.785293       -21.3689
  33   2.0000      -0.772545       -21.0220
  34   2.0000      -0.706919       -19.2362
  35   2.0000      -0.695123       -18.9153
  36   2.0000      -0.690048       -18.7772
  37   2.0000      -0.657733       -17.8978
  38   2.0000      -0.645035       -17.5523
  39   2.0000      -0.620304       -16.8793
  40   2.0000      -0.596122       -16.2213
  41   2.0000      -0.581662       -15.8278
  42   2.0000      -0.551632       -15.0107
  43   2.0000      -0.547127       -14.8881
  44   2.0000      -0.544204       -14.8085
  45   2.0000      -0.539853       -14.6902
  46   2.0000      -0.515108       -14.0168
  47   2.0000      -0.509357       -13.8603
  48   2.0000      -0.499333       -13.5876
  49   2.0000      -0.495546       -13.4845
  50   2.0000      -0.493561       -13.4305
  51   2.0000      -0.472715       -12.8632
  52   2.0000      -0.469111       -12.7652
  53   2.0000      -0.466848       -12.7036
  54   2.0000      -0.461367       -12.5544
  55   2.0000      -0.447184       -12.1685
  56   2.0000      -0.445008       -12.1093
  57   2.0000      -0.434182       -11.8147
  58   2.0000      -0.430490       -11.7142
  59   2.0000      -0.419630       -11.4187
  60   2.0000      -0.417522       -11.3614
  61   2.0000      -0.405657       -11.0385
  62   2.0000      -0.402922       -10.9641
  63   2.0000      -0.345933        -9.4133
  64   2.0000      -0.330716        -8.9992
  65   2.0000      -0.326463        -8.8835
  66   2.0000      -0.293887        -7.9971
  67   0.0000       0.033779         0.9192
  68   0.0000       0.069872         1.9013
  69   0.0000       0.108743         2.9590
  70   0.0000       0.125808         3.4234
  71   0.0000       0.132576         3.6076

MULLIKEN ATOMIC CHARGES
-----------------------
   0 S :    0.110772
   1 C :   -0.114931
   2 C :   -0.108491
   3 C :    0.040968
   4 C :   -0.141022
   5 H :    0.021442
   6 C :    0.103447
   7 H :   -0.017610
   8 H :    0.020126
   9 C :   -0.043937
  10 H :    0.020340
  11 H :    0.030345
  12 C :   -0.068240
  13 H :    0.038663
  14 H :    0.027899
  15 H :    0.014722
  16 S :    0.113670
  17 C :   -0.103897
  18 C :   -0.038115
  19 C :   -0.027213
  20 C :   -0.173521
  21 H :    0.027443
  22 C :    0.039795
  23 H :    0.037632
  24 H :    0.024478
  25 C :   -0.061554
  26 H :    0.021252
  27 H :    0.016076
  28 C :   -0.020215
  29 H :    0.062142
  30 H :    0.023820
  31 H :    0.004882
  32 H :    0.053257
  33 H :    0.065576
Sum of atomic charges:    0.0000000

LOEWDIN ATOMIC CHARGES
----------------------
   0 S :    0.408574
   1 C :   -0.194867
   2 C :   -0.060383
   3 C :   -0.057376
   4 C :   -0.194342
   5 H :    0.035882
   6 C :   -0.045188
   7 H :    0.021542
   8 H :    0.037237
   9 C :   -0.032583
  10 H :    0.019052
  11 H :    0.029577
  12 C :   -0.066617
  13 H :    0.021080
  14 H :    0.027984
  15 H :    0.010315
  16 S :    0.420973
  17 C :   -0.191777
  18 C :   -0.079972
  19 C :   -0.053965
  20 C :   -0.206526
  21 H :    0.037828
  22 C :   -0.036895
  23 H :    0.032495
  24 H :    0.031655
  25 C :   -0.041077
  26 H :    0.022161
  27 H :    0.025380
  28 C :   -0.068296
  29 H :    0.041566
  30 H :    0.018898
  31 H :    0.027293
  32 H :    0.027798
  33 H :    0.032574

  Mayer bond orders larger than 0.100000
B(  0-S ,  1-C ) :   1.1204 B(  0-S ,  4-C ) :   1.1544 B(  1-C ,  2-C ) :   1.6225
B(  1-C , 32-H ) :   0.9710 B(  2-C ,  3-C ) :   1.2112 B(  2-C ,  6-C ) :   1.0298
B(  3-C ,  4-C ) :   1.5950 B(  3-C ,  5-H ) :   0.9984 B(  4-C , 20-C ) :   1.0195
B(  6-C ,  7-H ) :   0.9227 B(  6-C ,  8-H ) :   0.9339 B(  6-C ,  9-C ) :   1.0752
B(  9-C , 10-H ) :   0.9540 B(  9-C , 11-H ) :   0.9502 B(  9-C , 12-C ) :   1.0842
B( 12-C , 13-H ) :   0.9709 B( 12-C , 14-H ) :   0.9726 B( 12-C , 15-H ) :   0.9714
B( 16-S , 17-C ) :   1.1776 B( 16-S , 20-C ) :   1.1517 B( 17-C , 18-C ) :   1.5900
B( 17-C , 20-C ) :   0.1057 B( 17-C , 33-H ) :   0.9610 B( 18-C , 19-C ) :   1.2622
B( 18-C , 21-H ) :   0.9883 B( 19-C , 20-C ) :   1.5766 B( 19-C , 22-C ) :   1.0286
B( 22-C , 23-H ) :   0.9421 B( 22-C , 24-H ) :   0.9393 B( 22-C , 25-C ) :   1.0612
B( 25-C , 26-H ) :   0.9590 B( 25-C , 27-H ) :   0.9522 B( 25-C , 28-C ) :   1.0767
B( 28-C , 29-H ) :   0.9730 B( 28-C , 30-H ) :   0.9718 B( 28-C , 31-H ) :   0.9615

Dispersion correction           -0.015087854
FINAL SINGLE POINT ENERGY     -1339.851877760884

DIPOLE MOMENT
-------------
                                X             Y             Z
Electronic contribution:      7.78903      22.67660      -0.23862
Nuclear contribution   :     -8.14393     -23.04245      -0.10961
                        -----------------------------------------
Total Dipole Moment    :     -0.35491      -0.36585      -0.34822
                        -----------------------------------------
Magnitude (a.u.)       :      0.61731
Magnitude (Debye)      :      1.56907

Rotational constants in cm-1:     0.021770     0.008660     0.007350
Rotational constants in MHz :   652.652074   259.628413   220.362299

                             ****ORCA TERMINATED NORMALLY****
TOTAL RUN TIME: 0 days 0 hours 0 minutes 31 seconds 751 msec
