                         Program Version 4.2.1 -  RELEASE  -
|  1> ! wB97X-D3 SP def2-SVP
|  2> %pal
|  3> nprocs 16
|  4> end
|  5>
|  6> * xyz 0 1
|  7> S 	 39.889 	 25.1726 	 98.1044
|  8> C 	 39.5499 	 25.2038 	 96.3835
|  9> C 	 40.2798 	 24.1975 	 95.7828
| 10> C 	 41.122 	 23.4135 	 96.6605
| 11> C 	 41.0317 	 23.8392 	 97.9436
| 12> H 	 41.6873 	 22.5411 	 96.3543
| 13> C 	 40.1814 	 23.9647 	 94.2793
| 14> H 	 41.2374 	 23.8852 	 93.9426
| 15> H 	 39.7615 	 24.8767 	 93.9255
| 16> C 	 39.2338 	 22.7629 	 93.8711
| 17> H 	 38.2364 	 23.0837 	 94.1778
| 18> H 	 39.1193 	 22.7383 	 92.781
| 19> C 	 39.6216 	 21.4303 	 94.4208
| 20> H 	 39.1182 	 20.5691 	 94.0962
| 21> H 	 40.6199 	 21.3281 	 94.2174
| 22> H 	 39.6271 	 21.436 	 95.5394
| 23> S 	 42.5031 	 24.7146 	 100.095
| 24> C 	 43.1384 	 23.5612 	 101.198
| 25> C 	 42.8023 	 22.2791 	 100.812
| 26> C 	 42.1046 	 22.2038 	 99.5945
| 27> C 	 41.7517 	 23.4484 	 99.1204
| 28> H 	 43.2595 	 21.4236 	 101.405
| 29> C 	 41.5807 	 20.9186 	 98.9806
| 30> H 	 41.7448 	 20.7902 	 97.921
| 31> H 	 40.5409 	 20.9401 	 99.0094
| 32> C 	 42.1236 	 19.571 	 99.5771
| 33> H 	 41.5048 	 18.7448 	 99.2391
| 34> H 	 41.9944 	 19.6102 	 100.632
| 35> C 	 43.5987 	 19.309 	 99.1558
| 36> H 	 43.7596 	 19.2634 	 98.0691
| 37> H 	 44.0107 	 18.3655 	 99.6928
| 38> H 	 44.2921 	 20.2209 	 99.3628
| 39> H 	 38.9515 	 25.9255 	 95.9264
| 40> H 	 43.7913 	 23.8301 	 101.993
| 41> *
| 42>
| 43>                          ****END OF INPUT****

CARTESIAN COORDINATES (ANGSTROEM)
---------------------------------
  S     39.889000   25.172600   98.104400
  C     39.549900   25.203800   96.383500
  C     40.279800   24.197500   95.782800
  C     41.122000   23.413500   96.660500
  C     41.031700   23.839200   97.943600
  H     41.687300   22.541100   96.354300
  C     40.181400   23.964700   94.279300
  H     41.237400   23.885200   93.942600
  H     39.761500   24.876700   93.925500
  C     39.233800   22.762900   93.871100
  H     38.236400   23.083700   94.177800
  H     39.119300   22.738300   92.781000
  C     39.621600   21.430300   94.420800
  H     39.118200   20.569100   94.096200
  H     40.619900   21.328100   94.217400
  H     39.627100   21.436000   95.539400
  S     42.503100   24.714600  100.095000
  C     43.138400   23.561200  101.198000
  C     42.802300   22.279100  100.812000
  C     42.104600   22.203800   99.594500
  C     41.751700   23.448400   99.120400
  H     43.259500   21.423600  101.405000
  C     41.580700   20.918600   98.980600
  H     41.744800   20.790200   97.921000
  H     40.540900   20.940100   99.009400
  C     42.123600   19.571000   99.577100
  H     41.504800   18.744800   99.239100
  H     41.994400   19.610200  100.632000
  C     43.598700   19.309000   99.155800
  H     43.759600   19.263400   98.069100
  H     44.010700   18.365500   99.692800
  H     44.292100   20.220900   99.362800
  H     38.951500   25.925500   95.926400
  H     43.791300   23.830100  101.993000

 Total Charge           Charge          ....    0
 Multiplicity           Mult            ....    1
 Number of Electrons    NEL             ....  134
 Basis Dimension        Dim             ....  322

ORBITAL ENERGIES
----------------

  NO   OCC          E(Eh)            E(eV)
   0   2.0000     -88.965908     -2420.8854
   1   2.0000     -88.960878     -2420.7486
   2   2.0000     -10.328220      -281.0452
   3   2.0000     -10.322800      -280.8977
   4   2.0000     -10.313920      -280.6560
   5   2.0000     -10.309687      -280.5409
   6   2.0000     -10.303807      -280.3809
   7   2.0000     -10.300791      -280.2988
   8   2.0000     -10.296981      -280.1951
   9   2.0000     -10.294933      -280.1394
  10   2.0000     -10.294451      -280.1263
  11   2.0000     -10.292692      -280.0784
  12   2.0000     -10.290329      -280.0141
  13   2.0000     -10.288684      -279.9693
  14   2.0000     -10.288506      -279.9645
  15   2.0000     -10.267919      -279.4043
  16   2.0000      -8.080983      -219.8947
  17   2.0000      -8.075706      -219.7511
  18   2.0000      -6.039323      -164.3383
  19   2.0000      -6.035364      -164.2306
  20   2.0000      -6.034263      -164.2006
  21   2.0000      -6.031962      -164.1380
  22   2.0000      -6.030161      -164.0890
  23   2.0000      -6.026438      -163.9877
  24   2.0000      -1.011479       -27.5237
  25   2.0000      -0.986329       -26.8394
  26   2.0000      -0.910371       -24.7725
  27   2.0000      -0.908233       -24.7143
  28   2.0000      -0.874352       -23.7923
  29   2.0000      -0.850128       -23.1332
  30   2.0000      -0.841801       -22.9066
  31   2.0000      -0.821528       -22.3549
  32   2.0000      -0.785358       -21.3707
  33   2.0000      -0.771502       -20.9936
  34   2.0000      -0.709609       -19.3094
  35   2.0000      -0.704179       -19.1617
  36   2.0000      -0.703061       -19.1313
  37   2.0000      -0.655146       -17.8274
  38   2.0000      -0.644875       -17.5479
  39   2.0000      -0.621649       -16.9159
  40   2.0000      -0.606176       -16.4949
  41   2.0000      -0.566654       -15.4194
  42   2.0000      -0.554094       -15.0777
  43   2.0000      -0.552755       -15.0412
  44   2.0000      -0.543472       -14.7886
  45   2.0000      -0.526682       -14.3318
  46   2.0000      -0.522538       -14.2190
  47   2.0000      -0.514101       -13.9894
  48   2.0000      -0.504426       -13.7261
  49   2.0000      -0.502436       -13.6720
  50   2.0000      -0.492147       -13.3920
  51   2.0000      -0.481464       -13.1013
  52   2.0000      -0.479771       -13.0552
  53   2.0000      -0.468268       -12.7422
  54   2.0000      -0.461545       -12.5593
  55   2.0000      -0.443969       -12.0810
  56   2.0000      -0.441389       -12.0108
  57   2.0000      -0.437901       -11.9159
  58   2.0000      -0.434147       -11.8137
  59   2.0000      -0.426204       -11.5976
  60   2.0000      -0.421469       -11.4687
  61   2.0000      -0.418227       -11.3805
  62   2.0000      -0.405801       -11.0424
  63   2.0000      -0.352741        -9.5986
  64   2.0000      -0.334182        -9.0936
  65   2.0000      -0.326568        -8.8864
  66   2.0000      -0.290746        -7.9116
  67   0.0000       0.027933         0.7601
  68   0.0000       0.072639         1.9766
  69   0.0000       0.117229         3.1900
  70   0.0000       0.122220         3.3258
  71   0.0000       0.130404         3.5485

MULLIKEN ATOMIC CHARGES
-----------------------
   0 S :    0.091782
   1 C :   -0.101337
   2 C :   -0.124518
   3 C :    0.034100
   4 C :   -0.147327
   5 H :    0.012808
   6 C :    0.064612
   7 H :    0.039414
   8 H :    0.005912
   9 C :   -0.055234
  10 H :    0.016652
  11 H :    0.029848
  12 C :   -0.000856
  13 H :    0.029202
  14 H :   -0.001831
  15 H :    0.034732
  16 S :    0.120503
  17 C :   -0.086302
  18 C :   -0.074272
  19 C :   -0.002692
  20 C :   -0.147206
  21 H :    0.047756
  22 C :    0.060674
  23 H :    0.015201
  24 H :    0.027673
  25 C :   -0.045624
  26 H :    0.030600
  27 H :    0.024777
  28 C :   -0.116209
  29 H :    0.032990
  30 H :    0.058522
  31 H :    0.044113
  32 H :    0.031367
  33 H :    0.050171
Sum of atomic charges:    0.0000000

LOEWDIN ATOMIC CHARGES
----------------------
   0 S :    0.390595
   1 C :   -0.190298
   2 C :   -0.058992
   3 C :   -0.068439
   4 C :   -0.178836
   5 H :    0.031917
   6 C :   -0.026758
   7 H :    0.032059
   8 H :    0.024959
   9 C :   -0.035272
  10 H :    0.021671
  11 H :    0.024346
  12 C :   -0.061725
  13 H :    0.022498
  14 H :    0.012799
  15 H :    0.032718
  16 S :    0.421386
  17 C :   -0.189868
  18 C :   -0.083976
  19 C :   -0.054639
  20 C :   -0.199517
  21 H :    0.044341
  22 C :   -0.027395
  23 H :    0.027654
  24 H :    0.028730
  25 C :   -0.036922
  26 H :    0.027726
  27 H :    0.016490
  28 C :   -0.086115
  29 H :    0.024175
  30 H :    0.037410
  31 H :    0.034121
  32 H :    0.017999
  33 H :    0.025158

  Mayer bond orders larger than 0.100000
B(  0-S ,  1-C ) :   1.1170 B(  0-S ,  4-C ) :   1.1507 B(  1-C ,  2-C ) :   1.6258
B(  1-C , 32-H ) :   0.9803 B(  2-C ,  3-C ) :   1.2111 B(  2-C ,  6-C ) :   1.0181
B(  3-C ,  4-C ) :   1.5866 B(  3-C ,  5-H ) :   0.9954 B(  4-C , 20-C ) :   1.0482
B(  6-C ,  7-H ) :   0.9450 B(  6-C ,  8-H ) :   0.9386 B(  6-C ,  9-C ) :   1.0634
B(  9-C , 10-H ) :   0.9524 B(  9-C , 11-H ) :   0.9566 B(  9-C , 12-C ) :   1.0839
B( 12-C , 13-H ) :   0.9695 B( 12-C , 14-H ) :   0.9683 B( 12-C , 15-H ) :   0.9653
B( 16-S , 17-C ) :   1.1738 B( 16-S , 20-C ) :   1.1510 B( 17-C , 18-C ) :   1.5809
B( 17-C , 20-C ) :   0.1090 B( 17-C , 33-H ) :   0.9708 B( 18-C , 19-C ) :   1.2697
B( 18-C , 21-H ) :   0.9728 B( 19-C , 20-C ) :   1.5799 B( 19-C , 22-C ) :   1.0272
B( 22-C , 23-H ) :   0.9314 B( 22-C , 24-H ) :   0.9293 B( 22-C , 25-C ) :   1.0860
B( 25-C , 26-H ) :   0.9523 B( 25-C , 27-H ) :   0.9520 B( 25-C , 28-C ) :   1.0634
B( 28-C , 29-H ) :   0.9722 B( 28-C , 30-H ) :   0.9741 B( 28-C , 31-H ) :   0.9748

Dispersion correction           -0.014838767
FINAL SINGLE POINT ENERGY     -1339.877910745313

DIPOLE MOMENT
-------------
                                X             Y             Z
Electronic contribution:     -0.30330      24.43956      14.73865
Nuclear contribution   :      0.39364     -24.99032     -15.07514
                        -----------------------------------------
Total Dipole Moment    :      0.09034      -0.55077      -0.33649
                        -----------------------------------------
Magnitude (a.u.)       :      0.65171
Magnitude (Debye)      :      1.65652

Rotational constants in cm-1:     0.018310     0.009619     0.006715
Rotational constants in MHz :   548.923496   288.373130   201.310974

                             ****ORCA TERMINATED NORMALLY****
TOTAL RUN TIME: 0 days 0 hours 0 minutes 29 seconds 400 msec
