                         Program Version 4.2.1 -  RELEASE  -
|  1> ! wB97X-D3 SP def2-SVP
|  2> %pal
|  3> nprocs 16
|  4> end
|  5>
|  6> * xyz 0 1
|  7> S 	 -46.6327 	 63.7665 	 129.934
|  8> C 	 -45.0385 	 64.4389 	 130.042
|  9> C 	 -44.0432 	 63.4756 	 129.896
| 10> C 	 -44.5976 	 62.1974 	 129.706
| 11> C 	 -45.9712 	 62.1882 	 129.681
| 12> H 	 -43.9858 	 61.3113 	 129.55
| 13> C 	 -42.5631 	 63.7392 	 129.883
| 14> H 	 -41.9489 	 62.9126 	 130.207
| 15> H 	 -42.356 	 64.5762 	 130.629
| 16> C 	 -41.9297 	 64.2397 	 128.525
| 17> H 	 -41.9811 	 63.3769 	 127.878
| 18> H 	 -42.4361 	 65.0966 	 127.985
| 19> C 	 -40.4752 	 64.6696 	 128.771
| 20> H 	 -40.0021 	 64.6947 	 127.798
| 21> H 	 -40.4861 	 65.594 	 129.282
| 22> H 	 -39.9384 	 64.0081 	 129.542
| 23> S 	 -48.4895 	 61.3149 	 128.938
| 24> C 	 -48.7349 	 59.5535 	 128.818
| 25> C 	 -47.7427 	 58.9013 	 129.54
| 26> C 	 -46.6388 	 59.6809 	 129.924
| 27> C 	 -46.8969 	 61.015 	 129.642
| 28> H 	 -47.7152 	 57.8012 	 129.603
| 29> C 	 -45.3816 	 59.0263 	 130.584
| 30> H 	 -45.0031 	 59.8132 	 131.226
| 31> H 	 -44.5699 	 58.8379 	 129.876
| 32> C 	 -45.7049 	 57.7275 	 131.38
| 33> H 	 -46.1063 	 57.0453 	 130.674
| 34> H 	 -46.5544 	 57.9203 	 132.036
| 35> C 	 -44.4875 	 57.2357 	 132.206
| 36> H 	 -44.8636 	 56.3832 	 132.759
| 37> H 	 -44.0799 	 57.9164 	 133.013
| 38> H 	 -43.7175 	 56.9849 	 131.544
| 39> H 	 -44.8638 	 65.5013 	 130.292
| 40> H 	 -49.6705 	 59.058 	 128.508
| 41> *
| 42>
| 43>                          ****END OF INPUT****

CARTESIAN COORDINATES (ANGSTROEM)
---------------------------------
  S    -46.632700   63.766500  129.934000
  C    -45.038500   64.438900  130.042000
  C    -44.043200   63.475600  129.896000
  C    -44.597600   62.197400  129.706000
  C    -45.971200   62.188200  129.681000
  H    -43.985800   61.311300  129.550000
  C    -42.563100   63.739200  129.883000
  H    -41.948900   62.912600  130.207000
  H    -42.356000   64.576200  130.629000
  C    -41.929700   64.239700  128.525000
  H    -41.981100   63.376900  127.878000
  H    -42.436100   65.096600  127.985000
  C    -40.475200   64.669600  128.771000
  H    -40.002100   64.694700  127.798000
  H    -40.486100   65.594000  129.282000
  H    -39.938400   64.008100  129.542000
  S    -48.489500   61.314900  128.938000
  C    -48.734900   59.553500  128.818000
  C    -47.742700   58.901300  129.540000
  C    -46.638800   59.680900  129.924000
  C    -46.896900   61.015000  129.642000
  H    -47.715200   57.801200  129.603000
  C    -45.381600   59.026300  130.584000
  H    -45.003100   59.813200  131.226000
  H    -44.569900   58.837900  129.876000
  C    -45.704900   57.727500  131.380000
  H    -46.106300   57.045300  130.674000
  H    -46.554400   57.920300  132.036000
  C    -44.487500   57.235700  132.206000
  H    -44.863600   56.383200  132.759000
  H    -44.079900   57.916400  133.013000
  H    -43.717500   56.984900  131.544000
  H    -44.863800   65.501300  130.292000
  H    -49.670500   59.058000  128.508000

 Total Charge           Charge          ....    0
 Multiplicity           Mult            ....    1
 Number of Electrons    NEL             ....  134
 Basis Dimension        Dim             ....  322

ORBITAL ENERGIES
----------------

  NO   OCC          E(Eh)            E(eV)
   0   2.0000     -88.967402     -2420.9261
   1   2.0000     -88.967356     -2420.9248
   2   2.0000     -10.330422      -281.1051
   3   2.0000     -10.327925      -281.0371
   4   2.0000     -10.320603      -280.8379
   5   2.0000     -10.313442      -280.6430
   6   2.0000     -10.303052      -280.3603
   7   2.0000     -10.298893      -280.2471
   8   2.0000     -10.298031      -280.2237
   9   2.0000     -10.297323      -280.2044
  10   2.0000     -10.293729      -280.1066
  11   2.0000     -10.290774      -280.0262
  12   2.0000     -10.290021      -280.0057
  13   2.0000     -10.289710      -279.9972
  14   2.0000     -10.282712      -279.8068
  15   2.0000     -10.280282      -279.7407
  16   2.0000      -8.082750      -219.9428
  17   2.0000      -8.081335      -219.9043
  18   2.0000      -6.041142      -164.3878
  19   2.0000      -6.039928      -164.3548
  20   2.0000      -6.037215      -164.2810
  21   2.0000      -6.036134      -164.2516
  22   2.0000      -6.033577      -164.1820
  23   2.0000      -6.031892      -164.1361
  24   2.0000      -1.007772       -27.4229
  25   2.0000      -0.983803       -26.7706
  26   2.0000      -0.908698       -24.7269
  27   2.0000      -0.905169       -24.6309
  28   2.0000      -0.864016       -23.5111
  29   2.0000      -0.855038       -23.2668
  30   2.0000      -0.846191       -23.0260
  31   2.0000      -0.810367       -22.0512
  32   2.0000      -0.782038       -21.2803
  33   2.0000      -0.769119       -20.9288
  34   2.0000      -0.711346       -19.3567
  35   2.0000      -0.696641       -18.9566
  36   2.0000      -0.693732       -18.8774
  37   2.0000      -0.655835       -17.8462
  38   2.0000      -0.637496       -17.3471
  39   2.0000      -0.622519       -16.9396
  40   2.0000      -0.595890       -16.2150
  41   2.0000      -0.569072       -15.4852
  42   2.0000      -0.567430       -15.4406
  43   2.0000      -0.552821       -15.0430
  44   2.0000      -0.528028       -14.3684
  45   2.0000      -0.526004       -14.3133
  46   2.0000      -0.511946       -13.9308
  47   2.0000      -0.509909       -13.8753
  48   2.0000      -0.499935       -13.6039
  49   2.0000      -0.493988       -13.4421
  50   2.0000      -0.489948       -13.3322
  51   2.0000      -0.483815       -13.1653
  52   2.0000      -0.472937       -12.8693
  53   2.0000      -0.464442       -12.6381
  54   2.0000      -0.459418       -12.5014
  55   2.0000      -0.454203       -12.3595
  56   2.0000      -0.442051       -12.0288
  57   2.0000      -0.437601       -11.9077
  58   2.0000      -0.435122       -11.8403
  59   2.0000      -0.426033       -11.5929
  60   2.0000      -0.425290       -11.5727
  61   2.0000      -0.418228       -11.3806
  62   2.0000      -0.415125       -11.2961
  63   2.0000      -0.352886        -9.6025
  64   2.0000      -0.337207        -9.1759
  65   2.0000      -0.330732        -8.9997
  66   2.0000      -0.281050        -7.6478
  67   0.0000       0.023463         0.6385
  68   0.0000       0.074425         2.0252
  69   0.0000       0.094883         2.5819
  70   0.0000       0.124738         3.3943
  71   0.0000       0.141762         3.8575

MULLIKEN ATOMIC CHARGES
-----------------------
   0 S :    0.108344
   1 C :   -0.134971
   2 C :   -0.045125
   3 C :   -0.023233
   4 C :   -0.097139
   5 H :    0.008876
   6 C :    0.009196
   7 H :    0.023774
   8 H :    0.027882
   9 C :   -0.081841
  10 H :    0.025668
  11 H :    0.045414
  12 C :   -0.047284
  13 H :    0.046839
  14 H :    0.025043
  15 H :    0.031205
  16 S :    0.091685
  17 C :   -0.096059
  18 C :   -0.053712
  19 C :   -0.062919
  20 C :   -0.127381
  21 H :    0.024181
  22 C :    0.053268
  23 H :    0.029876
  24 H :    0.042761
  25 C :   -0.097250
  26 H :    0.029783
  27 H :    0.032276
  28 C :   -0.021452
  29 H :    0.034027
  30 H :    0.046989
  31 H :    0.026248
  32 H :    0.056711
  33 H :    0.068320
Sum of atomic charges:   -0.0000000

LOEWDIN ATOMIC CHARGES
----------------------
   0 S :    0.420811
   1 C :   -0.205739
   2 C :   -0.066321
   3 C :   -0.072911
   4 C :   -0.191429
   5 H :    0.032490
   6 C :   -0.036517
   7 H :    0.027603
   8 H :    0.034044
   9 C :   -0.039677
  10 H :    0.017708
  11 H :    0.031976
  12 C :   -0.067376
  13 H :    0.029031
  14 H :    0.018607
  15 H :    0.030751
  16 S :    0.380964
  17 C :   -0.184454
  18 C :   -0.073623
  19 C :   -0.061373
  20 C :   -0.183907
  21 H :    0.032334
  22 C :   -0.029108
  23 H :    0.029724
  24 H :    0.029178
  25 C :   -0.037522
  26 H :    0.017492
  27 H :    0.026843
  28 C :   -0.059562
  29 H :    0.029049
  30 H :    0.036514
  31 H :    0.017054
  32 H :    0.032106
  33 H :    0.035239

  Mayer bond orders larger than 0.100000
B(  0-S ,  1-C ) :   1.1502 B(  0-S ,  4-C ) :   1.1655 B(  1-C ,  2-C ) :   1.5832
B(  1-C , 32-H ) :   0.9659 B(  2-C ,  3-C ) :   1.2748 B(  2-C ,  6-C ) :   1.0271
B(  3-C ,  4-C ) :   1.5534 B(  3-C ,  5-H ) :   0.9954 B(  4-C , 20-C ) :   1.0210
B(  6-C ,  7-H ) :   0.9421 B(  6-C ,  8-H ) :   0.9457 B(  6-C ,  9-C ) :   1.0515
B(  9-C , 10-H ) :   0.9588 B(  9-C , 11-H ) :   0.9585 B(  9-C , 12-C ) :   1.0706
B( 12-C , 13-H ) :   0.9732 B( 12-C , 14-H ) :   0.9759 B( 12-C , 15-H ) :   0.9723
B( 16-S , 17-C ) :   1.1352 B( 16-S , 20-C ) :   1.1391 B( 17-C , 18-C ) :   1.6138
B( 17-C , 20-C ) :   0.1052 B( 17-C , 33-H ) :   0.9602 B( 18-C , 19-C ) :   1.2625
B( 18-C , 21-H ) :   0.9744 B( 19-C , 20-C ) :   1.6244 B( 19-C , 22-C ) :   1.0101
B( 22-C , 23-H ) :   0.9384 B( 22-C , 24-H ) :   0.9317 B( 22-C , 25-C ) :   1.0699
B( 25-C , 26-H ) :   0.9460 B( 25-C , 27-H ) :   0.9592 B( 25-C , 28-C ) :   1.0777
B( 28-C , 29-H ) :   0.9728 B( 28-C , 30-H ) :   0.9758 B( 28-C , 31-H ) :   0.9754

Dispersion correction           -0.013122185
FINAL SINGLE POINT ENERGY     -1339.879302635861

DIPOLE MOMENT
-------------
                                X             Y             Z
Electronic contribution:    -27.91076       8.90567      -5.51192
Nuclear contribution   :     28.51671      -9.30451       5.68550
                        -----------------------------------------
Total Dipole Moment    :      0.60595      -0.39884       0.17358
                        -----------------------------------------
Magnitude (a.u.)       :      0.74591
Magnitude (Debye)      :      1.89595

Rotational constants in cm-1:     0.017365     0.007912     0.005894
Rotational constants in MHz :   520.590398   237.182110   176.709161

                             ****ORCA TERMINATED NORMALLY****
TOTAL RUN TIME: 0 days 0 hours 0 minutes 31 seconds 424 msec
