                         Program Version 4.2.1 -  RELEASE  -
|  1> ! wB97X-D3 SP def2-SVP
|  2> %pal
|  3> nprocs 16
|  4> end
|  5>
|  6> * xyz 0 1
|  7> S 	 49.1459 	 7.38199 	 82.9903
|  8> C 	 48.3093 	 8.90631 	 82.9303
|  9> C 	 48.5535 	 9.71581 	 84.0316
| 10> C 	 49.3228 	 8.98137 	 85.0137
| 11> C 	 49.7381 	 7.71777 	 84.5906
| 12> H 	 49.6523 	 9.34511 	 85.9334
| 13> C 	 48.0677 	 11.1183 	 84.2239
| 14> H 	 48.375 	 11.7207 	 83.339
| 15> H 	 48.6778 	 11.5645 	 84.9841
| 16> C 	 46.5422 	 11.1934 	 84.374
| 17> H 	 46.141 	 10.8352 	 83.4146
| 18> H 	 46.1132 	 10.5216 	 85.1134
| 19> C 	 46.1277 	 12.6597 	 84.53
| 20> H 	 46.5605 	 13.2833 	 83.7833
| 21> H 	 45.0513 	 12.7041 	 84.4704
| 22> H 	 46.3479 	 13.1459 	 85.4986
| 23> S 	 51.9967 	 6.17009 	 84.49
| 24> C 	 52.3861 	 5.23241 	 85.9541
| 25> C 	 51.5074 	 5.44209 	 86.9448
| 26> C 	 50.4394 	 6.30718 	 86.5672
| 27> C 	 50.5738 	 6.74146 	 85.3032
| 28> H 	 51.8873 	 5.09674 	 87.8831
| 29> C 	 49.3429 	 6.65712 	 87.5744
| 30> H 	 49.1094 	 5.69747 	 88.0344
| 31> H 	 48.4403 	 7.05573 	 87.0682
| 32> C 	 49.7587 	 7.77118 	 88.5285
| 33> H 	 50.1519 	 8.49788 	 87.9014
| 34> H 	 50.585 	 7.52734 	 89.1913
| 35> C 	 48.6042 	 8.39159 	 89.4169
| 36> H 	 47.9098 	 8.94592 	 88.7931
| 37> H 	 49.0057 	 9.06162 	 90.1885
| 38> H 	 48.2289 	 7.62665 	 90.0871
| 39> H 	 47.911 	 9.31959 	 81.994
| 40> H 	 53.2204 	 4.61389 	 86.0588
| 41> *
| 42>
| 43>                          ****END OF INPUT****

CARTESIAN COORDINATES (ANGSTROEM)
---------------------------------
  S     49.145900    7.381990   82.990300
  C     48.309300    8.906310   82.930300
  C     48.553500    9.715810   84.031600
  C     49.322800    8.981370   85.013700
  C     49.738100    7.717770   84.590600
  H     49.652300    9.345110   85.933400
  C     48.067700   11.118300   84.223900
  H     48.375000   11.720700   83.339000
  H     48.677800   11.564500   84.984100
  C     46.542200   11.193400   84.374000
  H     46.141000   10.835200   83.414600
  H     46.113200   10.521600   85.113400
  C     46.127700   12.659700   84.530000
  H     46.560500   13.283300   83.783300
  H     45.051300   12.704100   84.470400
  H     46.347900   13.145900   85.498600
  S     51.996700    6.170090   84.490000
  C     52.386100    5.232410   85.954100
  C     51.507400    5.442090   86.944800
  C     50.439400    6.307180   86.567200
  C     50.573800    6.741460   85.303200
  H     51.887300    5.096740   87.883100
  C     49.342900    6.657120   87.574400
  H     49.109400    5.697470   88.034400
  H     48.440300    7.055730   87.068200
  C     49.758700    7.771180   88.528500
  H     50.151900    8.497880   87.901400
  H     50.585000    7.527340   89.191300
  C     48.604200    8.391590   89.416900
  H     47.909800    8.945920   88.793100
  H     49.005700    9.061620   90.188500
  H     48.228900    7.626650   90.087100
  H     47.911000    9.319590   81.994000
  H     53.220400    4.613890   86.058800

 Total Charge           Charge          ....    0
 Multiplicity           Mult            ....    1
 Number of Electrons    NEL             ....  134
 Basis Dimension        Dim             ....  322

ORBITAL ENERGIES
----------------

  NO   OCC          E(Eh)            E(eV)
   0   2.0000     -88.965084     -2420.8630
   1   2.0000     -88.962987     -2420.8060
   2   2.0000     -10.327404      -281.0229
   3   2.0000     -10.320772      -280.8425
   4   2.0000     -10.311120      -280.5798
   5   2.0000     -10.309871      -280.5459
   6   2.0000     -10.300742      -280.2974
   7   2.0000     -10.298149      -280.2269
   8   2.0000     -10.292138      -280.0633
   9   2.0000     -10.291728      -280.0522
  10   2.0000     -10.291445      -280.0445
  11   2.0000     -10.290722      -280.0248
  12   2.0000     -10.287013      -279.9239
  13   2.0000     -10.282521      -279.8016
  14   2.0000     -10.281862      -279.7837
  15   2.0000     -10.276520      -279.6383
  16   2.0000      -8.080123      -219.8713
  17   2.0000      -8.077980      -219.8130
  18   2.0000      -6.038571      -164.3179
  19   2.0000      -6.036455      -164.2603
  20   2.0000      -6.034516      -164.2075
  21   2.0000      -6.032706      -164.1583
  22   2.0000      -6.031018      -164.1123
  23   2.0000      -6.028497      -164.0437
  24   2.0000      -1.009693       -27.4751
  25   2.0000      -0.985358       -26.8130
  26   2.0000      -0.915314       -24.9070
  27   2.0000      -0.906892       -24.6778
  28   2.0000      -0.871390       -23.7117
  29   2.0000      -0.850562       -23.1450
  30   2.0000      -0.846689       -23.0396
  31   2.0000      -0.817521       -22.2459
  32   2.0000      -0.783120       -21.3098
  33   2.0000      -0.773105       -21.0373
  34   2.0000      -0.709309       -19.3013
  35   2.0000      -0.705812       -19.2061
  36   2.0000      -0.696488       -18.9524
  37   2.0000      -0.665470       -18.1084
  38   2.0000      -0.642155       -17.4739
  39   2.0000      -0.619492       -16.8572
  40   2.0000      -0.596060       -16.2196
  41   2.0000      -0.570872       -15.5342
  42   2.0000      -0.568788       -15.4775
  43   2.0000      -0.558846       -15.2070
  44   2.0000      -0.530200       -14.4275
  45   2.0000      -0.527693       -14.3593
  46   2.0000      -0.515782       -14.0351
  47   2.0000      -0.509658       -13.8685
  48   2.0000      -0.502163       -13.6645
  49   2.0000      -0.498780       -13.5725
  50   2.0000      -0.492370       -13.3981
  51   2.0000      -0.478147       -13.0110
  52   2.0000      -0.472066       -12.8456
  53   2.0000      -0.466263       -12.6876
  54   2.0000      -0.460933       -12.5426
  55   2.0000      -0.453491       -12.3401
  56   2.0000      -0.444307       -12.0902
  57   2.0000      -0.441663       -12.0183
  58   2.0000      -0.430644       -11.7184
  59   2.0000      -0.424977       -11.5642
  60   2.0000      -0.423681       -11.5289
  61   2.0000      -0.419816       -11.4238
  62   2.0000      -0.416436       -11.3318
  63   2.0000      -0.345648        -9.4056
  64   2.0000      -0.331570        -9.0225
  65   2.0000      -0.329100        -8.9553
  66   2.0000      -0.296783        -8.0759
  67   0.0000       0.035828         0.9749
  68   0.0000       0.073655         2.0042
  69   0.0000       0.109095         2.9686
  70   0.0000       0.127038         3.4569
  71   0.0000       0.129840         3.5331

MULLIKEN ATOMIC CHARGES
-----------------------
   0 S :    0.116760
   1 C :   -0.128663
   2 C :   -0.100482
   3 C :    0.055671
   4 C :   -0.161139
   5 H :   -0.030242
   6 C :    0.070178
   7 H :    0.028735
   8 H :    0.012545
   9 C :   -0.066206
  10 H :    0.026313
  11 H :    0.037943
  12 C :   -0.026235
  13 H :    0.022139
  14 H :    0.027185
  15 H :    0.031829
  16 S :    0.100525
  17 C :   -0.077278
  18 C :   -0.023890
  19 C :   -0.041188
  20 C :   -0.148054
  21 H :    0.015479
  22 C :    0.094338
  23 H :    0.028213
  24 H :    0.029121
  25 C :   -0.060431
  26 H :    0.003227
  27 H :    0.019020
  28 C :   -0.041904
  29 H :    0.043641
  30 H :    0.026624
  31 H :    0.031591
  32 H :    0.054856
  33 H :    0.029782
Sum of atomic charges:    0.0000000

LOEWDIN ATOMIC CHARGES
----------------------
   0 S :    0.416752
   1 C :   -0.210341
   2 C :   -0.058552
   3 C :   -0.058321
   4 C :   -0.193388
   5 H :    0.015210
   6 C :   -0.035851
   7 H :    0.037079
   8 H :    0.025178
   9 C :   -0.032364
  10 H :    0.027629
  11 H :    0.026614
  12 C :   -0.065059
  13 H :    0.020695
  14 H :    0.024700
  15 H :    0.027107
  16 S :    0.386022
  17 C :   -0.155823
  18 C :   -0.068394
  19 C :   -0.056604
  20 C :   -0.201304
  21 H :    0.034011
  22 C :   -0.025666
  23 H :    0.029584
  24 H :    0.034446
  25 C :   -0.036382
  26 H :    0.010495
  27 H :    0.021881
  28 C :   -0.065846
  29 H :    0.025064
  30 H :    0.028970
  31 H :    0.026965
  32 H :    0.028760
  33 H :    0.016736

  Mayer bond orders larger than 0.100000
B(  0-S ,  1-C ) :   1.1445 B(  0-S ,  4-C ) :   1.1678 B(  1-C ,  2-C ) :   1.6058
B(  1-C , 32-H ) :   0.9599 B(  2-C ,  3-C ) :   1.2485 B(  2-C ,  6-C ) :   1.0272
B(  3-C ,  4-C ) :   1.5634 B(  3-C ,  5-H ) :   1.0045 B(  4-C , 20-C ) :   1.0068
B(  6-C ,  7-H ) :   0.9320 B(  6-C ,  8-H ) :   0.9428 B(  6-C ,  9-C ) :   1.0551
B(  9-C , 10-H ) :   0.9517 B(  9-C , 11-H ) :   0.9606 B(  9-C , 12-C ) :   1.0813
B( 12-C , 13-H ) :   0.9719 B( 12-C , 14-H ) :   0.9733 B( 12-C , 15-H ) :   0.9756
B( 16-S , 17-C ) :   1.1232 B( 16-S , 20-C ) :   1.1303 B( 17-C , 18-C ) :   1.6863
B( 17-C , 33-H ) :   0.9709 B( 18-C , 19-C ) :   1.1749 B( 18-C , 21-H ) :   0.9900
B( 19-C , 20-C ) :   1.6680 B( 19-C , 22-C ) :   1.0456 B( 22-C , 23-H ) :   0.9328
B( 22-C , 24-H ) :   0.9298 B( 22-C , 25-C ) :   1.0569 B( 25-C , 26-H ) :   0.9535
B( 25-C , 27-H ) :   0.9509 B( 25-C , 28-C ) :   1.0879 B( 28-C , 29-H ) :   0.9762
B( 28-C , 30-H ) :   0.9735 B( 28-C , 31-H ) :   0.9741

Dispersion correction           -0.014236174
FINAL SINGLE POINT ENERGY     -1339.881235855919

DIPOLE MOMENT
-------------
                                X             Y             Z
Electronic contribution:     16.92769     -20.62360     -17.57197
Nuclear contribution   :    -17.01755      21.08158      18.10468
                        -----------------------------------------
Total Dipole Moment    :     -0.08986       0.45798       0.53271
                        -----------------------------------------
Magnitude (a.u.)       :      0.70824
Magnitude (Debye)      :      1.80020

Rotational constants in cm-1:     0.018954     0.008720     0.006352
Rotational constants in MHz :   568.225705   261.431452   190.426486

                             ****ORCA TERMINATED NORMALLY****
TOTAL RUN TIME: 0 days 0 hours 0 minutes 30 seconds 549 msec
