                         Program Version 4.2.1 -  RELEASE  -
|  1> ! wB97X-D3 SP def2-SVP
|  2> %pal
|  3> nprocs 16
|  4> end
|  5>
|  6> * xyz 0 1
|  7> S 	 43.857 	 13.4012 	 81.3852
|  8> C 	 42.6061 	 14.0732 	 80.48
|  9> C 	 41.4454 	 14.0761 	 81.1422
| 10> C 	 41.5893 	 13.5113 	 82.4721
| 11> C 	 42.8412 	 13.0807 	 82.7685
| 12> H 	 40.8324 	 13.5258 	 83.2762
| 13> C 	 40.129 	 14.7128 	 80.7351
| 14> H 	 39.9342 	 14.5671 	 79.6584
| 15> H 	 40.1895 	 15.7915 	 80.7588
| 16> C 	 38.855 	 14.1698 	 81.4523
| 17> H 	 38.7634 	 13.068 	 81.4402
| 18> H 	 38.8315 	 14.3079 	 82.5115
| 19> C 	 37.5166 	 14.7976 	 80.9594
| 20> H 	 37.5452 	 15.8517 	 81.0791
| 21> H 	 37.3948 	 14.5913 	 79.9252
| 22> H 	 36.5527 	 14.4046 	 81.4583
| 23> S 	 42.0595 	 11.5774 	 85.0059
| 24> C 	 43.1449 	 11.5123 	 86.3417
| 25> C 	 44.277 	 12.1056 	 86.0842
| 26> C 	 44.4893 	 12.5415 	 84.7386
| 27> C 	 43.2721 	 12.4738 	 84.0256
| 28> H 	 44.9801 	 12.0467 	 86.8678
| 29> C 	 45.7274 	 13.3173 	 84.382
| 30> H 	 45.8315 	 13.2677 	 83.2923
| 31> H 	 46.5543 	 12.9431 	 84.8869
| 32> C 	 45.5072 	 14.8197 	 84.6362
| 33> H 	 44.849 	 15.1733 	 83.8387
| 34> H 	 46.4575 	 15.2164 	 84.34
| 35> C 	 45.3254 	 15.3241 	 86.087
| 36> H 	 46.1167 	 14.955 	 86.7445
| 37> H 	 44.3373 	 15.0895 	 86.489
| 38> H 	 45.2803 	 16.3835 	 86.0402
| 39> H 	 42.7558 	 14.4009 	 79.4182
| 40> H 	 42.9117 	 10.9855 	 87.2647
| 41> *
| 42>
| 43>                          ****END OF INPUT****

CARTESIAN COORDINATES (ANGSTROEM)
---------------------------------
  S     43.857000   13.401200   81.385200
  C     42.606100   14.073200   80.480000
  C     41.445400   14.076100   81.142200
  C     41.589300   13.511300   82.472100
  C     42.841200   13.080700   82.768500
  H     40.832400   13.525800   83.276200
  C     40.129000   14.712800   80.735100
  H     39.934200   14.567100   79.658400
  H     40.189500   15.791500   80.758800
  C     38.855000   14.169800   81.452300
  H     38.763400   13.068000   81.440200
  H     38.831500   14.307900   82.511500
  C     37.516600   14.797600   80.959400
  H     37.545200   15.851700   81.079100
  H     37.394800   14.591300   79.925200
  H     36.552700   14.404600   81.458300
  S     42.059500   11.577400   85.005900
  C     43.144900   11.512300   86.341700
  C     44.277000   12.105600   86.084200
  C     44.489300   12.541500   84.738600
  C     43.272100   12.473800   84.025600
  H     44.980100   12.046700   86.867800
  C     45.727400   13.317300   84.382000
  H     45.831500   13.267700   83.292300
  H     46.554300   12.943100   84.886900
  C     45.507200   14.819700   84.636200
  H     44.849000   15.173300   83.838700
  H     46.457500   15.216400   84.340000
  C     45.325400   15.324100   86.087000
  H     46.116700   14.955000   86.744500
  H     44.337300   15.089500   86.489000
  H     45.280300   16.383500   86.040200
  H     42.755800   14.400900   79.418200
  H     42.911700   10.985500   87.264700

 Total Charge           Charge          ....    0
 Multiplicity           Mult            ....    1
 Number of Electrons    NEL             ....  134
 Basis Dimension        Dim             ....  322

ORBITAL ENERGIES
----------------

  NO   OCC          E(Eh)            E(eV)
   0   2.0000     -88.964433     -2420.8453
   1   2.0000     -88.961325     -2420.7607
   2   2.0000     -10.332305      -281.1563
   3   2.0000     -10.327716      -281.0314
   4   2.0000     -10.309984      -280.5489
   5   2.0000     -10.306721      -280.4601
   6   2.0000     -10.302941      -280.3573
   7   2.0000     -10.299144      -280.2540
   8   2.0000     -10.297141      -280.1995
   9   2.0000     -10.290753      -280.0256
  10   2.0000     -10.288446      -279.9628
  11   2.0000     -10.285250      -279.8759
  12   2.0000     -10.280982      -279.7597
  13   2.0000     -10.279622      -279.7227
  14   2.0000     -10.279589      -279.7218
  15   2.0000     -10.275042      -279.5981
  16   2.0000      -8.080328      -219.8769
  17   2.0000      -8.075988      -219.7588
  18   2.0000      -6.038942      -164.3280
  19   2.0000      -6.034609      -164.2101
  20   2.0000      -6.034595      -164.2097
  21   2.0000      -6.030977      -164.1112
  22   2.0000      -6.030555      -164.0997
  23   2.0000      -6.026620      -163.9927
  24   2.0000      -1.013849       -27.5882
  25   2.0000      -0.992840       -27.0165
  26   2.0000      -0.911659       -24.8075
  27   2.0000      -0.905952       -24.6522
  28   2.0000      -0.877871       -23.8881
  29   2.0000      -0.848705       -23.0944
  30   2.0000      -0.842182       -22.9169
  31   2.0000      -0.820005       -22.3135
  32   2.0000      -0.787520       -21.4295
  33   2.0000      -0.774884       -21.0857
  34   2.0000      -0.717285       -19.5183
  35   2.0000      -0.701179       -19.0800
  36   2.0000      -0.685941       -18.6654
  37   2.0000      -0.665489       -18.1089
  38   2.0000      -0.634787       -17.2734
  39   2.0000      -0.620018       -16.8715
  40   2.0000      -0.594641       -16.1810
  41   2.0000      -0.571157       -15.5420
  42   2.0000      -0.564266       -15.3545
  43   2.0000      -0.559695       -15.2301
  44   2.0000      -0.538479       -14.6527
  45   2.0000      -0.522967       -14.2307
  46   2.0000      -0.520209       -14.1556
  47   2.0000      -0.510024       -13.8785
  48   2.0000      -0.505001       -13.7418
  49   2.0000      -0.492440       -13.4000
  50   2.0000      -0.490204       -13.3391
  51   2.0000      -0.483961       -13.1693
  52   2.0000      -0.475708       -12.9447
  53   2.0000      -0.468492       -12.7483
  54   2.0000      -0.461554       -12.5595
  55   2.0000      -0.448867       -12.2143
  56   2.0000      -0.438831       -11.9412
  57   2.0000      -0.436959       -11.8903
  58   2.0000      -0.432917       -11.7803
  59   2.0000      -0.431062       -11.7298
  60   2.0000      -0.416828       -11.3425
  61   2.0000      -0.414343       -11.2748
  62   2.0000      -0.407871       -11.0987
  63   2.0000      -0.365526        -9.9465
  64   2.0000      -0.329636        -8.9699
  65   2.0000      -0.328417        -8.9367
  66   2.0000      -0.286254        -7.7894
  67   0.0000       0.027192         0.7399
  68   0.0000       0.090871         2.4727
  69   0.0000       0.112547         3.0625
  70   0.0000       0.125250         3.4082
  71   0.0000       0.137364         3.7379

MULLIKEN ATOMIC CHARGES
-----------------------
   0 S :    0.096702
   1 C :   -0.147571
   2 C :   -0.041268
   3 C :   -0.045648
   4 C :   -0.100694
   5 H :    0.025457
   6 C :    0.070610
   7 H :    0.019997
   8 H :    0.037733
   9 C :   -0.101543
  10 H :    0.033822
  11 H :    0.025646
  12 C :   -0.048824
  13 H :    0.025834
  14 H :    0.020524
  15 H :    0.046016
  16 S :    0.088153
  17 C :   -0.080275
  18 C :   -0.021295
  19 C :   -0.045423
  20 C :   -0.145206
  21 H :   -0.004579
  22 C :    0.095497
  23 H :    0.022186
  24 H :    0.005634
  25 C :   -0.073455
  26 H :    0.030248
  27 H :    0.013319
  28 C :   -0.021985
  29 H :    0.035612
  30 H :    0.037046
  31 H :    0.027224
  32 H :    0.065478
  33 H :    0.055030
Sum of atomic charges:    0.0000000

LOEWDIN ATOMIC CHARGES
----------------------
   0 S :    0.428888
   1 C :   -0.219234
   2 C :   -0.068910
   3 C :   -0.074448
   4 C :   -0.191443
   5 H :    0.030613
   6 C :   -0.031476
   7 H :    0.033527
   8 H :    0.033134
   9 C :   -0.046280
  10 H :    0.028860
  11 H :    0.017232
  12 C :   -0.064485
  13 H :    0.018250
  14 H :    0.016339
  15 H :    0.038583
  16 S :    0.389503
  17 C :   -0.184741
  18 C :   -0.076278
  19 C :   -0.048903
  20 C :   -0.176126
  21 H :    0.025110
  22 C :   -0.026292
  23 H :    0.026508
  24 H :    0.019507
  25 C :   -0.035203
  26 H :    0.024766
  27 H :    0.020297
  28 C :   -0.062933
  29 H :    0.027746
  30 H :    0.026179
  31 H :    0.025526
  32 H :    0.042118
  33 H :    0.034068

  Mayer bond orders larger than 0.100000
B(  0-S ,  1-C ) :   1.1376 B(  0-S ,  4-C ) :   1.1355 B(  1-C ,  2-C ) :   1.6395
B(  1-C , 32-H ) :   0.9625 B(  2-C ,  3-C ) :   1.2326 B(  2-C ,  6-C ) :   1.0142
B(  3-C ,  4-C ) :   1.5870 B(  3-C ,  5-H ) :   0.9842 B(  4-C , 20-C ) :   1.0716
B(  6-C ,  7-H ) :   0.9407 B(  6-C ,  8-H ) :   0.9383 B(  6-C ,  9-C ) :   1.0566
B(  9-C , 10-H ) :   0.9602 B(  9-C , 11-H ) :   0.9486 B(  9-C , 12-C ) :   1.0795
B( 12-C , 13-H ) :   0.9766 B( 12-C , 14-H ) :   0.9770 B( 12-C , 15-H ) :   0.9742
B( 16-S , 17-C ) :   1.1303 B( 16-S , 20-C ) :   1.1333 B( 17-C , 18-C ) :   1.6648
B( 17-C , 33-H ) :   0.9624 B( 18-C , 19-C ) :   1.2109 B( 18-C , 21-H ) :   0.9902
B( 19-C , 20-C ) :   1.5566 B( 19-C , 22-C ) :   1.0698 B( 22-C , 23-H ) :   0.9247
B( 22-C , 24-H ) :   0.9272 B( 22-C , 25-C ) :   1.0837 B( 25-C , 26-H ) :   0.9514
B( 25-C , 27-H ) :   0.9523 B( 25-C , 28-C ) :   1.0741 B( 28-C , 29-H ) :   0.9724
B( 28-C , 30-H ) :   0.9717 B( 28-C , 31-H ) :   0.9711

Dispersion correction           -0.014626538
FINAL SINGLE POINT ENERGY     -1339.874274445720

DIPOLE MOMENT
-------------
                                X             Y             Z
Electronic contribution:      7.64579     -14.58019      -0.14234
Nuclear contribution   :     -7.64389      15.00160       0.27572
                        -----------------------------------------
Total Dipole Moment    :      0.00190       0.42141       0.13338
                        -----------------------------------------
Magnitude (a.u.)       :      0.44201
Magnitude (Debye)      :      1.12351

Rotational constants in cm-1:     0.020804     0.008149     0.006929
Rotational constants in MHz :   623.686335   244.297893   207.738719

                             ****ORCA TERMINATED NORMALLY****
TOTAL RUN TIME: 0 days 0 hours 0 minutes 30 seconds 203 msec
