                         Program Version 4.2.1 -  RELEASE  -
|  1> ! wB97X-D3 SP def2-SVP
|  2> %pal
|  3> nprocs 16
|  4> end
|  5>
|  6> * xyz 0 1
|  7> S 	 -93.3338 	 42.8005 	 120.86
|  8> C 	 -93.2486 	 44.2471 	 121.792
|  9> C 	 -93.5615 	 45.301 	 120.975
| 10> C 	 -93.9118 	 44.9639 	 119.638
| 11> C 	 -94.0284 	 43.5918 	 119.431
| 12> H 	 -94.2264 	 45.5829 	 118.815
| 13> C 	 -93.6071 	 46.7654 	 121.4
| 14> H 	 -93.2361 	 46.8108 	 122.456
| 15> H 	 -94.5987 	 47.1367 	 121.365
| 16> C 	 -92.7012 	 47.7509 	 120.517
| 17> H 	 -91.6762 	 47.3165 	 120.587
| 18> H 	 -92.9004 	 47.6058 	 119.449
| 19> C 	 -92.6718 	 49.2757 	 120.86
| 20> H 	 -92.0308 	 49.7377 	 120.056
| 21> H 	 -93.6557 	 49.8074 	 120.833
| 22> H 	 -92.1578 	 49.5787 	 121.803
| 23> S 	 -93.8917 	 43.5167 	 116.676
| 24> C 	 -94.6176 	 42.2529 	 115.819
| 25> C 	 -95.3158 	 41.4322 	 116.636
| 26> C 	 -95.2139 	 41.7527 	 117.992
| 27> C 	 -94.5045 	 42.9572 	 118.22
| 28> H 	 -95.9002 	 40.5738 	 116.185
| 29> C 	 -95.8423 	 41.0289 	 119.121
| 30> H 	 -95.0765 	 40.6842 	 119.823
| 31> H 	 -96.2613 	 40.0918 	 118.831
| 32> C 	 -96.9264 	 41.7756 	 119.806
| 33> H 	 -96.6465 	 42.7605 	 120.301
| 34> H 	 -97.2902 	 41.1414 	 120.61
| 35> C 	 -98.0974 	 42.0235 	 118.774
| 36> H 	 -98.1496 	 41.296 	 117.978
| 37> H 	 -98.0153 	 43.0251 	 118.296
| 38> H 	 -99.1699 	 42.173 	 119.223
| 39> H 	 -92.813 	 44.2956 	 122.771
| 40> H 	 -94.6242 	 42.167 	 114.717
| 41> *
| 42>
| 43>                          ****END OF INPUT****

CARTESIAN COORDINATES (ANGSTROEM)
---------------------------------
  S    -93.333800   42.800500  120.860000
  C    -93.248600   44.247100  121.792000
  C    -93.561500   45.301000  120.975000
  C    -93.911800   44.963900  119.638000
  C    -94.028400   43.591800  119.431000
  H    -94.226400   45.582900  118.815000
  C    -93.607100   46.765400  121.400000
  H    -93.236100   46.810800  122.456000
  H    -94.598700   47.136700  121.365000
  C    -92.701200   47.750900  120.517000
  H    -91.676200   47.316500  120.587000
  H    -92.900400   47.605800  119.449000
  C    -92.671800   49.275700  120.860000
  H    -92.030800   49.737700  120.056000
  H    -93.655700   49.807400  120.833000
  H    -92.157800   49.578700  121.803000
  S    -93.891700   43.516700  116.676000
  C    -94.617600   42.252900  115.819000
  C    -95.315800   41.432200  116.636000
  C    -95.213900   41.752700  117.992000
  C    -94.504500   42.957200  118.220000
  H    -95.900200   40.573800  116.185000
  C    -95.842300   41.028900  119.121000
  H    -95.076500   40.684200  119.823000
  H    -96.261300   40.091800  118.831000
  C    -96.926400   41.775600  119.806000
  H    -96.646500   42.760500  120.301000
  H    -97.290200   41.141400  120.610000
  C    -98.097400   42.023500  118.774000
  H    -98.149600   41.296000  117.978000
  H    -98.015300   43.025100  118.296000
  H    -99.169900   42.173000  119.223000
  H    -92.813000   44.295600  122.771000
  H    -94.624200   42.167000  114.717000

 Total Charge           Charge          ....    0
 Multiplicity           Mult            ....    1
 Number of Electrons    NEL             ....  134
 Basis Dimension        Dim             ....  322

ORBITAL ENERGIES
----------------

  NO   OCC          E(Eh)            E(eV)
   0   2.0000     -88.967545     -2420.9300
   1   2.0000     -88.964442     -2420.8455
   2   2.0000     -10.333253      -281.1821
   3   2.0000     -10.327210      -281.0177
   4   2.0000     -10.314492      -280.6716
   5   2.0000     -10.312701      -280.6229
   6   2.0000     -10.302030      -280.3325
   7   2.0000     -10.301255      -280.3114
   8   2.0000     -10.295362      -280.1510
   9   2.0000     -10.293593      -280.1029
  10   2.0000     -10.293507      -280.1006
  11   2.0000     -10.292540      -280.0742
  12   2.0000     -10.291235      -280.0387
  13   2.0000     -10.286345      -279.9057
  14   2.0000     -10.281699      -279.7793
  15   2.0000     -10.281551      -279.7752
  16   2.0000      -8.083166      -219.9541
  17   2.0000      -8.078989      -219.8405
  18   2.0000      -6.041545      -164.3988
  19   2.0000      -6.037566      -164.2905
  20   2.0000      -6.037350      -164.2847
  21   2.0000      -6.034205      -164.1991
  22   2.0000      -6.033463      -164.1789
  23   2.0000      -6.029719      -164.0770
  24   2.0000      -1.013679       -27.5836
  25   2.0000      -0.992346       -27.0031
  26   2.0000      -0.917116       -24.9560
  27   2.0000      -0.897739       -24.4287
  28   2.0000      -0.874564       -23.7981
  29   2.0000      -0.844928       -22.9917
  30   2.0000      -0.840597       -22.8738
  31   2.0000      -0.815512       -22.1912
  32   2.0000      -0.778915       -21.1954
  33   2.0000      -0.769416       -20.9369
  34   2.0000      -0.713536       -19.4163
  35   2.0000      -0.695760       -18.9326
  36   2.0000      -0.687933       -18.7196
  37   2.0000      -0.666496       -18.1363
  38   2.0000      -0.639873       -17.4118
  39   2.0000      -0.615821       -16.7573
  40   2.0000      -0.597101       -16.2479
  41   2.0000      -0.571198       -15.5431
  42   2.0000      -0.553817       -15.0701
  43   2.0000      -0.552540       -15.0354
  44   2.0000      -0.540491       -14.7075
  45   2.0000      -0.521643       -14.1946
  46   2.0000      -0.512341       -13.9415
  47   2.0000      -0.510654       -13.8956
  48   2.0000      -0.505598       -13.7580
  49   2.0000      -0.496285       -13.5046
  50   2.0000      -0.485320       -13.2062
  51   2.0000      -0.476222       -12.9587
  52   2.0000      -0.472994       -12.8708
  53   2.0000      -0.468541       -12.7496
  54   2.0000      -0.465820       -12.6756
  55   2.0000      -0.445032       -12.1099
  56   2.0000      -0.444153       -12.0860
  57   2.0000      -0.430166       -11.7054
  58   2.0000      -0.425147       -11.5688
  59   2.0000      -0.420729       -11.4486
  60   2.0000      -0.418198       -11.3797
  61   2.0000      -0.411545       -11.1987
  62   2.0000      -0.407808       -11.0970
  63   2.0000      -0.355559        -9.6752
  64   2.0000      -0.334192        -9.0938
  65   2.0000      -0.327545        -8.9129
  66   2.0000      -0.288625        -7.8539
  67   0.0000       0.021469         0.5842
  68   0.0000       0.077242         2.1019
  69   0.0000       0.111621         3.0374
  70   0.0000       0.127919         3.4809
  71   0.0000       0.133337         3.6283

MULLIKEN ATOMIC CHARGES
-----------------------
   0 S :    0.101990
   1 C :   -0.118929
   2 C :   -0.067724
   3 C :    0.003200
   4 C :   -0.126475
   5 H :    0.013331
   6 C :    0.082620
   7 H :    0.019993
   8 H :    0.031495
   9 C :   -0.117876
  10 H :    0.033493
  11 H :    0.034346
  12 C :   -0.078293
  13 H :    0.041399
  14 H :    0.044369
  15 H :    0.043074
  16 S :    0.117781
  17 C :   -0.095770
  18 C :   -0.062646
  19 C :   -0.032135
  20 C :   -0.168169
  21 H :    0.037130
  22 C :    0.078176
  23 H :    0.031569
  24 H :    0.002221
  25 C :   -0.058670
  26 H :    0.057145
  27 H :    0.029921
  28 C :   -0.099679
  29 H :    0.026403
  30 H :    0.039282
  31 H :    0.039985
  32 H :    0.050557
  33 H :    0.066885
Sum of atomic charges:    0.0000000

LOEWDIN ATOMIC CHARGES
----------------------
   0 S :    0.408709
   1 C :   -0.203839
   2 C :   -0.067401
   3 C :   -0.067320
   4 C :   -0.181478
   5 H :    0.027533
   6 C :   -0.028393
   7 H :    0.030371
   8 H :    0.023330
   9 C :   -0.048949
  10 H :    0.029457
  11 H :    0.022579
  12 C :   -0.080123
  13 H :    0.036011
  14 H :    0.028838
  15 H :    0.028431
  16 S :    0.440767
  17 C :   -0.206174
  18 C :   -0.085933
  19 C :   -0.050517
  20 C :   -0.203032
  21 H :    0.043269
  22 C :   -0.042794
  23 H :    0.030448
  24 H :    0.026859
  25 C :   -0.038814
  26 H :    0.033920
  27 H :    0.024134
  28 C :   -0.081147
  29 H :    0.016467
  30 H :    0.030129
  31 H :    0.034621
  32 H :    0.031295
  33 H :    0.038745

  Mayer bond orders larger than 0.100000
B(  0-S ,  1-C ) :   1.1348 B(  0-S ,  4-C ) :   1.1422 B(  1-C ,  2-C ) :   1.5988
B(  1-C , 32-H ) :   0.9731 B(  2-C ,  3-C ) :   1.2343 B(  2-C ,  6-C ) :   1.0310
B(  3-C ,  4-C ) :   1.5469 B(  3-C ,  5-H ) :   0.9989 B(  4-C , 20-C ) :   1.0865
B(  6-C ,  7-H ) :   0.9455 B(  6-C ,  8-H ) :   0.9440 B(  6-C ,  9-C ) :   1.0423
B(  9-C , 10-H ) :   0.9570 B(  9-C , 11-H ) :   0.9597 B(  9-C , 12-C ) :   1.0747
B( 12-C , 13-H ) :   0.9730 B( 12-C , 14-H ) :   0.9753 B( 12-C , 15-H ) :   0.9769
B( 16-S , 17-C ) :   1.1885 B( 16-S , 20-C ) :   1.1542 B( 17-C , 18-C ) :   1.5713
B( 17-C , 20-C ) :   0.1047 B( 17-C , 33-H ) :   0.9596 B( 18-C , 19-C ) :   1.2911
B( 18-C , 21-H ) :   0.9822 B( 19-C , 20-C ) :   1.5116 B( 19-C , 22-C ) :   1.0540
B( 22-C , 23-H ) :   0.9180 B( 22-C , 24-H ) :   0.9272 B( 22-C , 25-C ) :   1.0866
B( 25-C , 26-H ) :   0.9553 B( 25-C , 27-H ) :   0.9565 B( 25-C , 28-C ) :   1.0455
B( 28-C , 29-H ) :   0.9805 B( 28-C , 30-H ) :   0.9738 B( 28-C , 31-H ) :   0.9765

Dispersion correction           -0.014881722
FINAL SINGLE POINT ENERGY     -1339.880180215377

DIPOLE MOMENT
-------------
                                X             Y             Z
Electronic contribution:      9.16098     -12.77013      -7.56390
Nuclear contribution   :     -9.33334      12.90286       7.52390
                        -----------------------------------------
Total Dipole Moment    :     -0.17236       0.13274      -0.04000
                        -----------------------------------------
Magnitude (a.u.)       :      0.22119
Magnitude (Debye)      :      0.56223

Rotational constants in cm-1:     0.021447     0.007955     0.006955
Rotational constants in MHz :   642.956790   238.488591   208.497521

                             ****ORCA TERMINATED NORMALLY****
TOTAL RUN TIME: 0 days 0 hours 0 minutes 33 seconds 186 msec
