                         Program Version 4.2.1 -  RELEASE  -
|  1> ! wB97X-D3 SP def2-SVP
|  2> %pal
|  3> nprocs 16
|  4> end
|  5>
|  6> * xyz 0 1
|  7> S 	 -45.1605 	 14.0853 	 78.9762
|  8> C 	 -44.5631 	 12.7566 	 78.0489
|  9> C 	 -43.2697 	 12.3746 	 78.2963
| 10> C 	 -42.6942 	 13.2436 	 79.2554
| 11> C 	 -43.5724 	 14.1917 	 79.7294
| 12> H 	 -41.6336 	 13.0976 	 79.5526
| 13> C 	 -42.4948 	 11.2022 	 77.6398
| 14> H 	 -41.6147 	 11.5994 	 77.1501
| 15> H 	 -43.0922 	 10.7736 	 76.8842
| 16> C 	 -42.103 	 10.0823 	 78.5858
| 17> H 	 -41.6747 	 9.27829 	 78.0513
| 18> H 	 -41.3775 	 10.3016 	 79.3913
| 19> C 	 -43.3887 	 9.43052 	 79.2597
| 20> H 	 -44.0741 	 10.2165 	 79.5708
| 21> H 	 -43.9075 	 8.76533 	 78.5564
| 22> H 	 -43.1136 	 8.67564 	 80.0602
| 23> S 	 -42.3327 	 16.6168 	 80.6376
| 24> C 	 -42.9054 	 17.2173 	 82.2344
| 25> C 	 -43.6303 	 16.2758 	 82.9212
| 26> C 	 -43.8281 	 15.1032 	 82.1205
| 27> C 	 -43.3483 	 15.1527 	 80.8332
| 28> H 	 -43.9853 	 16.3883 	 83.9191
| 29> C 	 -44.6172 	 13.9044 	 82.5856
| 30> H 	 -44.9515 	 13.4725 	 81.63
| 31> H 	 -45.5153 	 14.2269 	 83.0783
| 32> C 	 -43.8116 	 12.934 	 83.4051
| 33> H 	 -43.2736 	 13.5584 	 84.1044
| 34> H 	 -42.9183 	 12.5558 	 82.811
| 35> C 	 -44.6295 	 12.053 	 84.3837
| 36> H 	 -44.0176 	 11.3433 	 84.7931
| 37> H 	 -45.4788 	 11.5599 	 83.9369
| 38> H 	 -45.0633 	 12.6909 	 85.1313
| 39> H 	 -45.2565 	 12.1872 	 77.4093
| 40> H 	 -42.3939 	 18.1214 	 82.6159
| 41> *
| 42>
| 43>                          ****END OF INPUT****

CARTESIAN COORDINATES (ANGSTROEM)
---------------------------------
  S    -45.160500   14.085300   78.976200
  C    -44.563100   12.756600   78.048900
  C    -43.269700   12.374600   78.296300
  C    -42.694200   13.243600   79.255400
  C    -43.572400   14.191700   79.729400
  H    -41.633600   13.097600   79.552600
  C    -42.494800   11.202200   77.639800
  H    -41.614700   11.599400   77.150100
  H    -43.092200   10.773600   76.884200
  C    -42.103000   10.082300   78.585800
  H    -41.674700    9.278290   78.051300
  H    -41.377500   10.301600   79.391300
  C    -43.388700    9.430520   79.259700
  H    -44.074100   10.216500   79.570800
  H    -43.907500    8.765330   78.556400
  H    -43.113600    8.675640   80.060200
  S    -42.332700   16.616800   80.637600
  C    -42.905400   17.217300   82.234400
  C    -43.630300   16.275800   82.921200
  C    -43.828100   15.103200   82.120500
  C    -43.348300   15.152700   80.833200
  H    -43.985300   16.388300   83.919100
  C    -44.617200   13.904400   82.585600
  H    -44.951500   13.472500   81.630000
  H    -45.515300   14.226900   83.078300
  C    -43.811600   12.934000   83.405100
  H    -43.273600   13.558400   84.104400
  H    -42.918300   12.555800   82.811000
  C    -44.629500   12.053000   84.383700
  H    -44.017600   11.343300   84.793100
  H    -45.478800   11.559900   83.936900
  H    -45.063300   12.690900   85.131300
  H    -45.256500   12.187200   77.409300
  H    -42.393900   18.121400   82.615900

 Total Charge           Charge          ....    0
 Multiplicity           Mult            ....    1
 Number of Electrons    NEL             ....  134
 Basis Dimension        Dim             ....  322

ORBITAL ENERGIES
----------------

  NO   OCC          E(Eh)            E(eV)
   0   2.0000     -88.971591     -2421.0401
   1   2.0000     -88.960053     -2420.7261
   2   2.0000     -10.331248      -281.1276
   3   2.0000     -10.324262      -280.9375
   4   2.0000     -10.323764      -280.9239
   5   2.0000     -10.314476      -280.6712
   6   2.0000     -10.300870      -280.3009
   7   2.0000     -10.297890      -280.2198
   8   2.0000     -10.297214      -280.2014
   9   2.0000     -10.295199      -280.1466
  10   2.0000     -10.294678      -280.1324
  11   2.0000     -10.288305      -279.9590
  12   2.0000     -10.283030      -279.8155
  13   2.0000     -10.280996      -279.7601
  14   2.0000     -10.278413      -279.6898
  15   2.0000     -10.269464      -279.4463
  16   2.0000      -8.086176      -220.0360
  17   2.0000      -8.073774      -219.6986
  18   2.0000      -6.044526      -164.4799
  19   2.0000      -6.040824      -164.3792
  20   2.0000      -6.036972      -164.2744
  21   2.0000      -6.032354      -164.1487
  22   2.0000      -6.028552      -164.0452
  23   2.0000      -6.024396      -163.9322
  24   2.0000      -1.005672       -27.3657
  25   2.0000      -0.981133       -26.6980
  26   2.0000      -0.911205       -24.7952
  27   2.0000      -0.906491       -24.6669
  28   2.0000      -0.864521       -23.5248
  29   2.0000      -0.849790       -23.1240
  30   2.0000      -0.844769       -22.9873
  31   2.0000      -0.811938       -22.0939
  32   2.0000      -0.784127       -21.3372
  33   2.0000      -0.770727       -20.9726
  34   2.0000      -0.705328       -19.1929
  35   2.0000      -0.698899       -19.0180
  36   2.0000      -0.689333       -18.7577
  37   2.0000      -0.663231       -18.0474
  38   2.0000      -0.638827       -17.3834
  39   2.0000      -0.623543       -16.9675
  40   2.0000      -0.594042       -16.1647
  41   2.0000      -0.567356       -15.4385
  42   2.0000      -0.560499       -15.2520
  43   2.0000      -0.550300       -14.9744
  44   2.0000      -0.545221       -14.8362
  45   2.0000      -0.526331       -14.3222
  46   2.0000      -0.513417       -13.9708
  47   2.0000      -0.510328       -13.8867
  48   2.0000      -0.506285       -13.7767
  49   2.0000      -0.488002       -13.2792
  50   2.0000      -0.484466       -13.1830
  51   2.0000      -0.473269       -12.8783
  52   2.0000      -0.466770       -12.7015
  53   2.0000      -0.460936       -12.5427
  54   2.0000      -0.457578       -12.4513
  55   2.0000      -0.454475       -12.3669
  56   2.0000      -0.449961       -12.2441
  57   2.0000      -0.442766       -12.0483
  58   2.0000      -0.439292       -11.9537
  59   2.0000      -0.425071       -11.5668
  60   2.0000      -0.418000       -11.3744
  61   2.0000      -0.416178       -11.3248
  62   2.0000      -0.396142       -10.7796
  63   2.0000      -0.340534        -9.2664
  64   2.0000      -0.332764        -9.0550
  65   2.0000      -0.324233        -8.8228
  66   2.0000      -0.304824        -8.2947
  67   0.0000       0.040211         1.0942
  68   0.0000       0.057004         1.5512
  69   0.0000       0.109862         2.9895
  70   0.0000       0.111022         3.0211
  71   0.0000       0.132537         3.6065

MULLIKEN ATOMIC CHARGES
-----------------------
   0 S :    0.130575
   1 C :   -0.133379
   2 C :   -0.117516
   3 C :    0.043926
   4 C :   -0.190706
   5 H :    0.027828
   6 C :    0.129783
   7 H :    0.036164
   8 H :    0.003461
   9 C :   -0.071119
  10 H :    0.021823
  11 H :    0.038424
  12 C :   -0.103159
  13 H :    0.055439
  14 H :    0.022598
  15 H :    0.041222
  16 S :    0.079078
  17 C :   -0.108026
  18 C :    0.010119
  19 C :   -0.075818
  20 C :   -0.152707
  21 H :    0.013996
  22 C :    0.101337
  23 H :    0.019595
  24 H :    0.007359
  25 C :   -0.078376
  26 H :    0.006978
  27 H :    0.033184
  28 C :    0.016474
  29 H :    0.019678
  30 H :    0.023201
  31 H :    0.023160
  32 H :    0.050761
  33 H :    0.074646
Sum of atomic charges:    0.0000000

LOEWDIN ATOMIC CHARGES
----------------------
   0 S :    0.424535
   1 C :   -0.201604
   2 C :   -0.068628
   3 C :   -0.055020
   4 C :   -0.190816
   5 H :    0.040484
   6 C :   -0.019835
   7 H :    0.034186
   8 H :    0.025575
   9 C :   -0.040229
  10 H :    0.020493
  11 H :    0.024913
  12 C :   -0.074018
  13 H :    0.024873
  14 H :    0.021274
  15 H :    0.032264
  16 S :    0.356333
  17 C :   -0.162209
  18 C :   -0.066688
  19 C :   -0.052717
  20 C :   -0.194820
  21 H :    0.030976
  22 C :   -0.035543
  23 H :    0.022256
  24 H :    0.023510
  25 C :   -0.047921
  26 H :    0.020258
  27 H :    0.033598
  28 C :   -0.049194
  29 H :    0.016346
  30 H :    0.022190
  31 H :    0.025771
  32 H :    0.026990
  33 H :    0.032416

  Mayer bond orders larger than 0.100000
B(  0-S ,  1-C ) :   1.1500 B(  0-S ,  4-C ) :   1.1502 B(  1-C ,  2-C ) :   1.6276
B(  1-C , 32-H ) :   0.9560 B(  2-C ,  3-C ) :   1.2452 B(  2-C ,  6-C ) :   1.0182
B(  3-C ,  4-C ) :   1.5913 B(  3-C ,  5-H ) :   0.9887 B(  4-C , 20-C ) :   1.0056
B(  6-C ,  7-H ) :   0.9382 B(  6-C ,  8-H ) :   0.9368 B(  6-C ,  9-C ) :   1.0739
B(  9-C , 10-H ) :   0.9563 B(  9-C , 11-H ) :   0.9614 B(  9-C , 12-C ) :   1.0588
B( 12-C , 13-H ) :   0.9790 B( 12-C , 14-H ) :   0.9771 B( 12-C , 15-H ) :   0.9754
B( 16-S , 17-C ) :   1.1501 B( 16-S , 20-C ) :   1.1104 B( 17-C , 18-C ) :   1.6039
B( 17-C , 33-H ) :   0.9619 B( 18-C , 19-C ) :   1.2230 B( 18-C , 21-H ) :   0.9980
B( 19-C , 20-C ) :   1.6363 B( 19-C , 22-C ) :   1.0388 B( 22-C , 23-H ) :   0.9125
B( 22-C , 24-H ) :   0.9366 B( 22-C , 25-C ) :   1.0648 B( 25-C , 26-H ) :   0.9593
B( 25-C , 27-H ) :   0.9489 B( 25-C , 28-C ) :   1.0619 B( 28-C , 29-H ) :   0.9740
B( 28-C , 30-H ) :   0.9770 B( 28-C , 31-H ) :   0.9750

Dispersion correction           -0.015077983
FINAL SINGLE POINT ENERGY     -1339.874643648017

DIPOLE MOMENT
-------------
                                X             Y             Z
Electronic contribution:     -0.56795      26.07377      -9.34236
Nuclear contribution   :      0.66324     -26.65262       9.56745
                        -----------------------------------------
Total Dipole Moment    :      0.09528      -0.57884       0.22509
                        -----------------------------------------
Magnitude (a.u.)       :      0.62833
Magnitude (Debye)      :      1.59709

Rotational constants in cm-1:     0.017877     0.009366     0.007465
Rotational constants in MHz :   535.942843   280.789555   223.797163

                             ****ORCA TERMINATED NORMALLY****
TOTAL RUN TIME: 0 days 0 hours 0 minutes 31 seconds 495 msec
