                         Program Version 4.2.1 -  RELEASE  -
|  1> ! wB97X-D3 SP def2-SVP
|  2> %pal
|  3> nprocs 16
|  4> end
|  5>
|  6> * xyz 0 1
|  7> S 	 -94.4042 	 54.3365 	 128.361
|  8> C 	 -93.0881 	 53.3614 	 128.073
|  9> C 	 -93.2745 	 52.506 	 126.991
| 10> C 	 -94.3561 	 52.9911 	 126.23
| 11> C 	 -95.1249 	 53.9668 	 126.802
| 12> H 	 -94.7238 	 52.557 	 125.286
| 13> C 	 -92.4256 	 51.3322 	 126.562
| 14> H 	 -93.1303 	 50.6068 	 126.243
| 15> H 	 -91.8762 	 50.9694 	 127.44
| 16> C 	 -91.31 	 51.6024 	 125.487
| 17> H 	 -90.5276 	 52.1764 	 125.918
| 18> H 	 -90.9194 	 50.6521 	 125.159
| 19> C 	 -91.8042 	 52.1977 	 124.154
| 20> H 	 -92.4788 	 51.5199 	 123.614
| 21> H 	 -92.3247 	 53.1009 	 124.182
| 22> H 	 -91.0604 	 52.4693 	 123.403
| 23> S 	 -97.7623 	 54.1831 	 127.614
| 24> C 	 -98.9212 	 55.0415 	 126.664
| 25> C 	 -98.319 	 55.4397 	 125.471
| 26> C 	 -96.9394 	 55.1311 	 125.393
| 27> C 	 -96.4787 	 54.4454 	 126.47
| 28> H 	 -98.846 	 55.8703 	 124.644
| 29> C 	 -96.1366 	 55.5605 	 124.144
| 30> H 	 -95.0966 	 55.8191 	 124.388
| 31> H 	 -96.6512 	 56.3524 	 123.73
| 32> C 	 -96.1335 	 54.4996 	 122.981
| 33> H 	 -97.0771 	 54.548 	 122.29
| 34> H 	 -96.1067 	 53.5778 	 123.525
| 35> C 	 -94.9076 	 54.5795 	 122.098
| 36> H 	 -94.0108 	 54.2637 	 122.63
| 37> H 	 -94.7295 	 55.5276 	 121.669
| 38> H 	 -95.1101 	 53.8983 	 121.254
| 39> H 	 -92.3699 	 52.9958 	 128.809
| 40> H 	 -100.012 	 55.1545 	 126.813
| 41> *
| 42>
| 43>                          ****END OF INPUT****

CARTESIAN COORDINATES (ANGSTROEM)
---------------------------------
  S    -94.404200   54.336500  128.361000
  C    -93.088100   53.361400  128.073000
  C    -93.274500   52.506000  126.991000
  C    -94.356100   52.991100  126.230000
  C    -95.124900   53.966800  126.802000
  H    -94.723800   52.557000  125.286000
  C    -92.425600   51.332200  126.562000
  H    -93.130300   50.606800  126.243000
  H    -91.876200   50.969400  127.440000
  C    -91.310000   51.602400  125.487000
  H    -90.527600   52.176400  125.918000
  H    -90.919400   50.652100  125.159000
  C    -91.804200   52.197700  124.154000
  H    -92.478800   51.519900  123.614000
  H    -92.324700   53.100900  124.182000
  H    -91.060400   52.469300  123.403000
  S    -97.762300   54.183100  127.614000
  C    -98.921200   55.041500  126.664000
  C    -98.319000   55.439700  125.471000
  C    -96.939400   55.131100  125.393000
  C    -96.478700   54.445400  126.470000
  H    -98.846000   55.870300  124.644000
  C    -96.136600   55.560500  124.144000
  H    -95.096600   55.819100  124.388000
  H    -96.651200   56.352400  123.730000
  C    -96.133500   54.499600  122.981000
  H    -97.077100   54.548000  122.290000
  H    -96.106700   53.577800  123.525000
  C    -94.907600   54.579500  122.098000
  H    -94.010800   54.263700  122.630000
  H    -94.729500   55.527600  121.669000
  H    -95.110100   53.898300  121.254000
  H    -92.369900   52.995800  128.809000
  H    -100.012000   55.154500  126.813000

 Total Charge           Charge          ....    0
 Multiplicity           Mult            ....    1
 Number of Electrons    NEL             ....  134
 Basis Dimension        Dim             ....  322

ORBITAL ENERGIES
----------------

  NO   OCC          E(Eh)            E(eV)
   0   2.0000     -88.966323     -2420.8967
   1   2.0000     -88.965344     -2420.8701
   2   2.0000     -10.327112      -281.0150
   3   2.0000     -10.324134      -280.9340
   4   2.0000     -10.319772      -280.8153
   5   2.0000     -10.308015      -280.4953
   6   2.0000     -10.297806      -280.2175
   7   2.0000     -10.296613      -280.1851
   8   2.0000     -10.295671      -280.1595
   9   2.0000     -10.292501      -280.0732
  10   2.0000     -10.290544      -280.0199
  11   2.0000     -10.290296      -280.0132
  12   2.0000     -10.290032      -280.0060
  13   2.0000     -10.286568      -279.9117
  14   2.0000     -10.274424      -279.5813
  15   2.0000     -10.272830      -279.5379
  16   2.0000      -8.081558      -219.9104
  17   2.0000      -8.081491      -219.9085
  18   2.0000      -6.040097      -164.3594
  19   2.0000      -6.039847      -164.3526
  20   2.0000      -6.035811      -164.2428
  21   2.0000      -6.035753      -164.2412
  22   2.0000      -6.032474      -164.1520
  23   2.0000      -6.032299      -164.1472
  24   2.0000      -1.015533       -27.6341
  25   2.0000      -0.994437       -27.0600
  26   2.0000      -0.910017       -24.7628
  27   2.0000      -0.906241       -24.6601
  28   2.0000      -0.870109       -23.6769
  29   2.0000      -0.854083       -23.2408
  30   2.0000      -0.849718       -23.1220
  31   2.0000      -0.817765       -22.2525
  32   2.0000      -0.785496       -21.3744
  33   2.0000      -0.776195       -21.1213
  34   2.0000      -0.711652       -19.3650
  35   2.0000      -0.699779       -19.0420
  36   2.0000      -0.688806       -18.7434
  37   2.0000      -0.666806       -18.1447
  38   2.0000      -0.642215       -17.4755
  39   2.0000      -0.617407       -16.8005
  40   2.0000      -0.593163       -16.1408
  41   2.0000      -0.576551       -15.6888
  42   2.0000      -0.569283       -15.4910
  43   2.0000      -0.553486       -15.0611
  44   2.0000      -0.535055       -14.5596
  45   2.0000      -0.521366       -14.1871
  46   2.0000      -0.517604       -14.0847
  47   2.0000      -0.513957       -13.9855
  48   2.0000      -0.505568       -13.7572
  49   2.0000      -0.500402       -13.6166
  50   2.0000      -0.489957       -13.3324
  51   2.0000      -0.484205       -13.1759
  52   2.0000      -0.471638       -12.8339
  53   2.0000      -0.470705       -12.8085
  54   2.0000      -0.466903       -12.7051
  55   2.0000      -0.445595       -12.1253
  56   2.0000      -0.439957       -11.9719
  57   2.0000      -0.436024       -11.8648
  58   2.0000      -0.431898       -11.7526
  59   2.0000      -0.428964       -11.6727
  60   2.0000      -0.421646       -11.4736
  61   2.0000      -0.419103       -11.4044
  62   2.0000      -0.414340       -11.2748
  63   2.0000      -0.349071        -9.4987
  64   2.0000      -0.331583        -9.0228
  65   2.0000      -0.327288        -8.9060
  66   2.0000      -0.297583        -8.0976
  67   0.0000       0.036029         0.9804
  68   0.0000       0.065017         1.7692
  69   0.0000       0.114963         3.1283
  70   0.0000       0.124906         3.3989
  71   0.0000       0.127544         3.4707

MULLIKEN ATOMIC CHARGES
-----------------------
   0 S :    0.125612
   1 C :   -0.081285
   2 C :   -0.154441
   3 C :    0.029379
   4 C :   -0.161565
   5 H :    0.010303
   6 C :    0.084030
   7 H :    0.025875
   8 H :    0.021997
   9 C :   -0.014132
  10 H :    0.027047
  11 H :    0.028840
  12 C :   -0.073841
  13 H :    0.020698
  14 H :    0.023811
  15 H :    0.026479
  16 S :    0.118332
  17 C :   -0.096378
  18 C :   -0.036536
  19 C :   -0.049939
  20 C :   -0.171498
  21 H :    0.009316
  22 C :    0.121509
  23 H :    0.034629
  24 H :   -0.003209
  25 C :   -0.107700
  26 H :    0.043101
  27 H :    0.023784
  28 C :   -0.034899
  29 H :    0.032447
  30 H :    0.022917
  31 H :    0.032718
  32 H :    0.050889
  33 H :    0.071707
Sum of atomic charges:   -0.0000000

LOEWDIN ATOMIC CHARGES
----------------------
   0 S :    0.444571
   1 C :   -0.228089
   2 C :   -0.070235
   3 C :   -0.062833
   4 C :   -0.199484
   5 H :    0.030951
   6 C :   -0.024486
   7 H :    0.028971
   8 H :    0.033520
   9 C :   -0.024865
  10 H :    0.021175
  11 H :    0.026953
  12 C :   -0.074707
  13 H :    0.024986
  14 H :    0.012119
  15 H :    0.030048
  16 S :    0.423800
  17 C :   -0.200776
  18 C :   -0.071157
  19 C :   -0.060036
  20 C :   -0.207576
  21 H :    0.026515
  22 C :   -0.020276
  23 H :    0.033784
  24 H :    0.017645
  25 C :   -0.041707
  26 H :    0.032582
  27 H :    0.015578
  28 C :   -0.064015
  29 H :    0.024619
  30 H :    0.017328
  31 H :    0.031277
  32 H :    0.032177
  33 H :    0.041643

  Mayer bond orders larger than 0.100000
B(  0-S ,  1-C ) :   1.1837 B(  0-S ,  4-C ) :   1.1559 B(  1-C ,  2-C ) :   1.5813
B(  1-C , 32-H ) :   0.9529 B(  2-C ,  3-C ) :   1.2724 B(  2-C ,  6-C ) :   1.0306
B(  3-C ,  4-C ) :   1.5728 B(  3-C ,  5-H ) :   0.9860 B(  4-C , 20-C ) :   1.0157
B(  6-C ,  7-H ) :   0.9373 B(  6-C ,  8-H ) :   0.9354 B(  6-C ,  9-C ) :   1.0755
B(  9-C , 10-H ) :   0.9573 B(  9-C , 11-H ) :   0.9546 B(  9-C , 12-C ) :   1.0768
B( 12-C , 13-H ) :   0.9754 B( 12-C , 14-H ) :   0.9704 B( 12-C , 15-H ) :   0.9698
B( 16-S , 17-C ) :   1.1635 B( 16-S , 20-C ) :   1.1459 B( 17-C , 18-C ) :   1.5817
B( 17-C , 33-H ) :   0.9642 B( 18-C , 19-C ) :   1.2758 B( 18-C , 21-H ) :   0.9868
B( 19-C , 20-C ) :   1.6042 B( 19-C , 22-C ) :   1.0555 B( 22-C , 23-H ) :   0.9394
B( 22-C , 24-H ) :   0.9215 B( 22-C , 25-C ) :   1.0471 B( 25-C , 26-H ) :   0.9553
B( 25-C , 27-H ) :   0.9604 B( 25-C , 28-C ) :   1.0915 B( 28-C , 29-H ) :   0.9733
B( 28-C , 30-H ) :   0.9724 B( 28-C , 31-H ) :   0.9710

Dispersion correction           -0.015251591
FINAL SINGLE POINT ENERGY     -1339.870927124134

DIPOLE MOMENT
-------------
                                X             Y             Z
Electronic contribution:    -15.23099       6.77524      26.39175
Nuclear contribution   :     15.37169      -7.08714     -26.95324
                        -----------------------------------------
Total Dipole Moment    :      0.14070      -0.31190      -0.56149
                        -----------------------------------------
Magnitude (a.u.)       :      0.65753
Magnitude (Debye)      :      1.67132

Rotational constants in cm-1:     0.017724     0.010273     0.007072
Rotational constants in MHz :   531.364853   307.975121   212.008230

                             ****ORCA TERMINATED NORMALLY****
TOTAL RUN TIME: 0 days 0 hours 0 minutes 35 seconds 755 msec
