                         Program Version 4.2.1 -  RELEASE  -
|  1> ! wB97X-D3 SP def2-SVP
|  2> %pal
|  3> nprocs 16
|  4> end
|  5>
|  6> * xyz 0 1
|  7> S 	 -33.5915 	 70.8004 	 170.56
|  8> C 	 -32.5038 	 72.113 	 170.697
|  9> C 	 -33.1474 	 73.311 	 170.74
| 10> C 	 -34.5868 	 73.2009 	 170.791
| 11> C 	 -35.0149 	 71.9036 	 170.757
| 12> H 	 -35.2698 	 74.049 	 170.73
| 13> C 	 -32.4996 	 74.6852 	 170.792
| 14> H 	 -31.3612 	 74.5636 	 170.762
| 15> H 	 -32.6852 	 75.2202 	 171.701
| 16> C 	 -32.976 	 75.6405 	 169.63
| 17> H 	 -32.6706 	 75.2578 	 168.688
| 18> H 	 -34.0311 	 75.6539 	 169.583
| 19> C 	 -32.3073 	 76.9984 	 169.744
| 20> H 	 -32.8987 	 77.7287 	 169.173
| 21> H 	 -32.2453 	 77.2756 	 170.818
| 22> H 	 -31.3539 	 76.9803 	 169.319
| 23> S 	 -36.8701 	 70.3699 	 169.362
| 24> C 	 -38.4878 	 70.1178 	 170.042
| 25> C 	 -38.6085 	 70.7936 	 171.268
| 26> C 	 -37.4251 	 71.4807 	 171.642
| 27> C 	 -36.3639 	 71.3329 	 170.721
| 28> H 	 -39.5525 	 70.8459 	 171.755
| 29> C 	 -37.4936 	 72.4476 	 172.814
| 30> H 	 -36.5075 	 72.9251 	 172.898
| 31> H 	 -37.7752 	 72.0283 	 173.781
| 32> C 	 -38.4273 	 73.588 	 172.57
| 33> H 	 -38.4888 	 74.1937 	 173.491
| 34> H 	 -39.3742 	 73.1434 	 172.286
| 35> C 	 -38.0269 	 74.6589 	 171.534
| 36> H 	 -38.0101 	 74.1775 	 170.56
| 37> H 	 -37.0642 	 75.0884 	 171.822
| 38> H 	 -38.8838 	 75.3066 	 171.592
| 39> H 	 -31.512 	 71.9701 	 170.493
| 40> H 	 -39.3089 	 69.5623 	 169.589
| 41> *
| 42>
| 43>                          ****END OF INPUT****

CARTESIAN COORDINATES (ANGSTROEM)
---------------------------------
  S    -33.591500   70.800400  170.560000
  C    -32.503800   72.113000  170.697000
  C    -33.147400   73.311000  170.740000
  C    -34.586800   73.200900  170.791000
  C    -35.014900   71.903600  170.757000
  H    -35.269800   74.049000  170.730000
  C    -32.499600   74.685200  170.792000
  H    -31.361200   74.563600  170.762000
  H    -32.685200   75.220200  171.701000
  C    -32.976000   75.640500  169.630000
  H    -32.670600   75.257800  168.688000
  H    -34.031100   75.653900  169.583000
  C    -32.307300   76.998400  169.744000
  H    -32.898700   77.728700  169.173000
  H    -32.245300   77.275600  170.818000
  H    -31.353900   76.980300  169.319000
  S    -36.870100   70.369900  169.362000
  C    -38.487800   70.117800  170.042000
  C    -38.608500   70.793600  171.268000
  C    -37.425100   71.480700  171.642000
  C    -36.363900   71.332900  170.721000
  H    -39.552500   70.845900  171.755000
  C    -37.493600   72.447600  172.814000
  H    -36.507500   72.925100  172.898000
  H    -37.775200   72.028300  173.781000
  C    -38.427300   73.588000  172.570000
  H    -38.488800   74.193700  173.491000
  H    -39.374200   73.143400  172.286000
  C    -38.026900   74.658900  171.534000
  H    -38.010100   74.177500  170.560000
  H    -37.064200   75.088400  171.822000
  H    -38.883800   75.306600  171.592000
  H    -31.512000   71.970100  170.493000
  H    -39.308900   69.562300  169.589000

 Total Charge           Charge          ....    0
 Multiplicity           Mult            ....    1
 Number of Electrons    NEL             ....  134
 Basis Dimension        Dim             ....  322

ORBITAL ENERGIES
----------------

  NO   OCC          E(Eh)            E(eV)
   0   2.0000     -88.970643     -2421.0143
   1   2.0000     -88.961033     -2420.7528
   2   2.0000     -10.334380      -281.2128
   3   2.0000     -10.330474      -281.1065
   4   2.0000     -10.324144      -280.9343
   5   2.0000     -10.305243      -280.4199
   6   2.0000     -10.304954      -280.4121
   7   2.0000     -10.299981      -280.2767
   8   2.0000     -10.297584      -280.2115
   9   2.0000     -10.296809      -280.1904
  10   2.0000     -10.294696      -280.1329
  11   2.0000     -10.285495      -279.8825
  12   2.0000     -10.281331      -279.7692
  13   2.0000     -10.280254      -279.7399
  14   2.0000     -10.276250      -279.6310
  15   2.0000     -10.275658      -279.6149
  16   2.0000      -8.084752      -219.9973
  17   2.0000      -8.076154      -219.7633
  18   2.0000      -6.043280      -164.4460
  19   2.0000      -6.039214      -164.3354
  20   2.0000      -6.035652      -164.2384
  21   2.0000      -6.034690      -164.2123
  22   2.0000      -6.030663      -164.1027
  23   2.0000      -6.026801      -163.9976
  24   2.0000      -1.004403       -27.3312
  25   2.0000      -0.983880       -26.7727
  26   2.0000      -0.915711       -24.9178
  27   2.0000      -0.908112       -24.7110
  28   2.0000      -0.872224       -23.7344
  29   2.0000      -0.850987       -23.1565
  30   2.0000      -0.846968       -23.0472
  31   2.0000      -0.817685       -22.2503
  32   2.0000      -0.783490       -21.3198
  33   2.0000      -0.768738       -20.9184
  34   2.0000      -0.710002       -19.3201
  35   2.0000      -0.697816       -18.9885
  36   2.0000      -0.688883       -18.7455
  37   2.0000      -0.656507       -17.8645
  38   2.0000      -0.650816       -17.7096
  39   2.0000      -0.624338       -16.9891
  40   2.0000      -0.601372       -16.3642
  41   2.0000      -0.573745       -15.6124
  42   2.0000      -0.562232       -15.2991
  43   2.0000      -0.553120       -15.0511
  44   2.0000      -0.549574       -14.9547
  45   2.0000      -0.527575       -14.3560
  46   2.0000      -0.519487       -14.1360
  47   2.0000      -0.513798       -13.9812
  48   2.0000      -0.509247       -13.8573
  49   2.0000      -0.499325       -13.5873
  50   2.0000      -0.496876       -13.5207
  51   2.0000      -0.474820       -12.9205
  52   2.0000      -0.472366       -12.8537
  53   2.0000      -0.467399       -12.7186
  54   2.0000      -0.463948       -12.6247
  55   2.0000      -0.450119       -12.2484
  56   2.0000      -0.440939       -11.9986
  57   2.0000      -0.435433       -11.8487
  58   2.0000      -0.433718       -11.8021
  59   2.0000      -0.423810       -11.5324
  60   2.0000      -0.418098       -11.3770
  61   2.0000      -0.415951       -11.3186
  62   2.0000      -0.409560       -11.1447
  63   2.0000      -0.348625        -9.4866
  64   2.0000      -0.333198        -9.0668
  65   2.0000      -0.325786        -8.8651
  66   2.0000      -0.296263        -8.0617
  67   0.0000       0.030627         0.8334
  68   0.0000       0.065452         1.7810
  69   0.0000       0.110636         3.0106
  70   0.0000       0.122565         3.3352
  71   0.0000       0.126188         3.4338

MULLIKEN ATOMIC CHARGES
-----------------------
   0 S :    0.090214
   1 C :   -0.079658
   2 C :   -0.067170
   3 C :    0.039986
   4 C :   -0.149398
   5 H :    0.009008
   6 C :    0.029166
   7 H :    0.026429
   8 H :    0.029015
   9 C :   -0.073480
  10 H :    0.016948
  11 H :    0.021092
  12 C :   -0.022563
  13 H :    0.033652
  14 H :    0.028750
  15 H :    0.025286
  16 S :    0.121522
  17 C :   -0.105646
  18 C :   -0.037395
  19 C :   -0.025662
  20 C :   -0.166202
  21 H :    0.019142
  22 C :    0.106509
  23 H :    0.010040
  24 H :    0.032611
  25 C :   -0.124435
  26 H :    0.030318
  27 H :    0.017753
  28 C :   -0.041956
  29 H :    0.044087
  30 H :    0.042556
  31 H :    0.036127
  32 H :    0.018634
  33 H :    0.064720
Sum of atomic charges:    0.0000000

LOEWDIN ATOMIC CHARGES
----------------------
   0 S :    0.389694
   1 C :   -0.187971
   2 C :   -0.064819
   3 C :   -0.058375
   4 C :   -0.168123
   5 H :    0.032702
   6 C :   -0.030921
   7 H :    0.033956
   8 H :    0.023983
   9 C :   -0.034590
  10 H :    0.020970
  11 H :    0.014356
  12 C :   -0.058116
  13 H :    0.030082
  14 H :    0.025973
  15 H :    0.018466
  16 S :    0.413052
  17 C :   -0.181733
  18 C :   -0.068028
  19 C :   -0.053083
  20 C :   -0.212999
  21 H :    0.027903
  22 C :   -0.035287
  23 H :    0.028127
  24 H :    0.033370
  25 C :   -0.040623
  26 H :    0.025982
  27 H :    0.015747
  28 C :   -0.060949
  29 H :    0.025192
  30 H :    0.022185
  31 H :    0.029172
  32 H :    0.011303
  33 H :    0.033403

  Mayer bond orders larger than 0.100000
B(  0-S ,  1-C ) :   1.1371 B(  0-S ,  4-C ) :   1.1355 B(  1-C ,  2-C ) :   1.6382
B(  1-C , 32-H ) :   0.9748 B(  2-C ,  3-C ) :   1.2100 B(  2-C ,  6-C ) :   1.0292
B(  3-C ,  4-C ) :   1.6107 B(  3-C ,  5-H ) :   0.9869 B(  4-C , 20-C ) :   1.0306
B(  6-C ,  7-H ) :   0.9486 B(  6-C ,  8-H ) :   0.9421 B(  6-C ,  9-C ) :   1.0507
B(  9-C , 10-H ) :   0.9532 B(  9-C , 11-H ) :   0.9623 B(  9-C , 12-C ) :   1.0844
B( 12-C , 13-H ) :   0.9722 B( 12-C , 14-H ) :   0.9749 B( 12-C , 15-H ) :   0.9769
B( 16-S , 17-C ) :   1.1594 B( 16-S , 20-C ) :   1.1575 B( 17-C , 18-C ) :   1.5838
B( 17-C , 20-C ) :   0.1074 B( 17-C , 33-H ) :   0.9674 B( 18-C , 19-C ) :   1.2600
B( 18-C , 21-H ) :   0.9909 B( 19-C , 20-C ) :   1.5568 B( 19-C , 22-C ) :   1.0520
B( 22-C , 23-H ) :   0.9287 B( 22-C , 24-H ) :   0.9325 B( 22-C , 25-C ) :   1.0750
B( 25-C , 26-H ) :   0.9567 B( 25-C , 27-H ) :   0.9542 B( 25-C , 28-C ) :   1.0776
B( 28-C , 29-H ) :   0.9747 B( 28-C , 30-H ) :   0.9665 B( 28-C , 31-H ) :   0.9713

Dispersion correction           -0.014757302
FINAL SINGLE POINT ENERGY     -1339.880657302903

DIPOLE MOMENT
-------------
                                X             Y             Z
Electronic contribution:      0.22592     -28.82720      -5.58477
Nuclear contribution   :     -0.46815      29.44996       5.65176
                        -----------------------------------------
Total Dipole Moment    :     -0.24223       0.62276       0.06699
                        -----------------------------------------
Magnitude (a.u.)       :      0.67156
Magnitude (Debye)      :      1.70696

Rotational constants in cm-1:     0.019083     0.008883     0.006943
Rotational constants in MHz :   572.092172   266.318078   208.135477

                             ****ORCA TERMINATED NORMALLY****
TOTAL RUN TIME: 0 days 0 hours 0 minutes 34 seconds 951 msec
