                         Program Version 4.2.1 -  RELEASE  -
|  1> ! wB97X-D3 SP def2-SVP
|  2> %pal
|  3> nprocs 16
|  4> end
|  5>
|  6> * xyz 0 1
|  7> S 	 -96.6275 	 44.3891 	 124.691
|  8> C 	 -95.2388 	 43.3083 	 124.331
|  9> C 	 -95.6777 	 41.9903 	 124.333
| 10> C 	 -97.0447 	 41.814 	 124.618
| 11> C 	 -97.7121 	 43.0282 	 124.844
| 12> H 	 -97.699 	 40.9431 	 124.664
| 13> C 	 -94.6994 	 40.8566 	 124.042
| 14> H 	 -95.2948 	 39.8963 	 124.163
| 15> H 	 -94.1023 	 40.9129 	 124.965
| 16> C 	 -93.9008 	 40.9728 	 122.749
| 17> H 	 -94.5982 	 40.9422 	 121.941
| 18> H 	 -93.2577 	 41.853 	 122.745
| 19> C 	 -93.0657 	 39.7525 	 122.498
| 20> H 	 -92.5112 	 39.8573 	 121.592
| 21> H 	 -92.3277 	 39.6986 	 123.28
| 22> H 	 -93.706 	 38.883 	 122.543
| 23> S 	 -99.7242 	 42.4363 	 126.705
| 24> C 	 -101.433 	 42.8354 	 126.254
| 25> C 	 -101.478 	 43.426 	 125.021
| 26> C 	 -100.207 	 43.5232 	 124.428
| 27> C 	 -99.1175 	 43.0518 	 125.172
| 28> H 	 -102.429 	 43.5389 	 124.489
| 29> C 	 -100.125 	 44.015 	 123.035
| 30> H 	 -99.0902 	 44.2319 	 122.78
| 31> H 	 -100.768 	 44.946 	 122.998
| 32> C 	 -100.726 	 43.0491 	 121.991
| 33> H 	 -101.761 	 42.9259 	 122.365
| 34> H 	 -100.306 	 41.9994 	 121.958
| 35> C 	 -100.915 	 43.6401 	 120.643
| 36> H 	 -99.9755 	 43.4984 	 120.121
| 37> H 	 -101.264 	 44.6207 	 120.826
| 38> H 	 -101.721 	 43.0857 	 120.11
| 39> H 	 -94.2822 	 43.5883 	 123.941
| 40> H 	 -102.31 	 42.8806 	 126.971
| 41> *
| 42>
| 43>                          ****END OF INPUT****

CARTESIAN COORDINATES (ANGSTROEM)
---------------------------------
  S    -96.627500   44.389100  124.691000
  C    -95.238800   43.308300  124.331000
  C    -95.677700   41.990300  124.333000
  C    -97.044700   41.814000  124.618000
  C    -97.712100   43.028200  124.844000
  H    -97.699000   40.943100  124.664000
  C    -94.699400   40.856600  124.042000
  H    -95.294800   39.896300  124.163000
  H    -94.102300   40.912900  124.965000
  C    -93.900800   40.972800  122.749000
  H    -94.598200   40.942200  121.941000
  H    -93.257700   41.853000  122.745000
  C    -93.065700   39.752500  122.498000
  H    -92.511200   39.857300  121.592000
  H    -92.327700   39.698600  123.280000
  H    -93.706000   38.883000  122.543000
  S    -99.724200   42.436300  126.705000
  C    -101.433000   42.835400  126.254000
  C    -101.478000   43.426000  125.021000
  C    -100.207000   43.523200  124.428000
  C    -99.117500   43.051800  125.172000
  H    -102.429000   43.538900  124.489000
  C    -100.125000   44.015000  123.035000
  H    -99.090200   44.231900  122.780000
  H    -100.768000   44.946000  122.998000
  C    -100.726000   43.049100  121.991000
  H    -101.761000   42.925900  122.365000
  H    -100.306000   41.999400  121.958000
  C    -100.915000   43.640100  120.643000
  H    -99.975500   43.498400  120.121000
  H    -101.264000   44.620700  120.826000
  H    -101.721000   43.085700  120.110000
  H    -94.282200   43.588300  123.941000
  H    -102.310000   42.880600  126.971000

 Total Charge           Charge          ....    0
 Multiplicity           Mult            ....    1
 Number of Electrons    NEL             ....  134
 Basis Dimension        Dim             ....  322

ORBITAL ENERGIES
----------------

  NO   OCC          E(Eh)            E(eV)
   0   2.0000     -88.970738     -2421.0169
   1   2.0000     -88.966218     -2420.8939
   2   2.0000     -10.329638      -281.0837
   3   2.0000     -10.326835      -281.0075
   4   2.0000     -10.326697      -281.0037
   5   2.0000     -10.314311      -280.6667
   6   2.0000     -10.301318      -280.3131
   7   2.0000     -10.297457      -280.2081
   8   2.0000     -10.295807      -280.1631
   9   2.0000     -10.294291      -280.1219
  10   2.0000     -10.292769      -280.0805
  11   2.0000     -10.287987      -279.9504
  12   2.0000     -10.285119      -279.8723
  13   2.0000     -10.283559      -279.8299
  14   2.0000     -10.271773      -279.5092
  15   2.0000     -10.271711      -279.5075
  16   2.0000      -8.084005      -219.9770
  17   2.0000      -8.079771      -219.8618
  18   2.0000      -6.042601      -164.4275
  19   2.0000      -6.038582      -164.3182
  20   2.0000      -6.038419      -164.3137
  21   2.0000      -6.034883      -164.2175
  22   2.0000      -6.034374      -164.2037
  23   2.0000      -6.030504      -164.0983
  24   2.0000      -1.003044       -27.2942
  25   2.0000      -0.980814       -26.6893
  26   2.0000      -0.917916       -24.9778
  27   2.0000      -0.912749       -24.8372
  28   2.0000      -0.874115       -23.7859
  29   2.0000      -0.855363       -23.2756
  30   2.0000      -0.850005       -23.1298
  31   2.0000      -0.816316       -22.2131
  32   2.0000      -0.779683       -21.2162
  33   2.0000      -0.762568       -20.7505
  34   2.0000      -0.708919       -19.2907
  35   2.0000      -0.699402       -19.0317
  36   2.0000      -0.685873       -18.6636
  37   2.0000      -0.661029       -17.9875
  38   2.0000      -0.638471       -17.3737
  39   2.0000      -0.607474       -16.5302
  40   2.0000      -0.591276       -16.0894
  41   2.0000      -0.582400       -15.8479
  42   2.0000      -0.573826       -15.6146
  43   2.0000      -0.565108       -15.3774
  44   2.0000      -0.530390       -14.4326
  45   2.0000      -0.526328       -14.3221
  46   2.0000      -0.522336       -14.2135
  47   2.0000      -0.517815       -14.0905
  48   2.0000      -0.505698       -13.7608
  49   2.0000      -0.500839       -13.6285
  50   2.0000      -0.493938       -13.4407
  51   2.0000      -0.476227       -12.9588
  52   2.0000      -0.470981       -12.8160
  53   2.0000      -0.459819       -12.5123
  54   2.0000      -0.457409       -12.4467
  55   2.0000      -0.448313       -12.1992
  56   2.0000      -0.443783       -12.0759
  57   2.0000      -0.437808       -11.9134
  58   2.0000      -0.433587       -11.7985
  59   2.0000      -0.424276       -11.5451
  60   2.0000      -0.416701       -11.3390
  61   2.0000      -0.415328       -11.3016
  62   2.0000      -0.403152       -10.9703
  63   2.0000      -0.339553        -9.2397
  64   2.0000      -0.334690        -9.1074
  65   2.0000      -0.324356        -8.8262
  66   2.0000      -0.296638        -8.0719
  67   0.0000       0.030657         0.8342
  68   0.0000       0.055042         1.4978
  69   0.0000       0.112533         3.0622
  70   0.0000       0.115375         3.1395
  71   0.0000       0.125141         3.4052

MULLIKEN ATOMIC CHARGES
-----------------------
   0 S :    0.124417
   1 C :   -0.128594
   2 C :   -0.062179
   3 C :    0.012606
   4 C :   -0.170450
   5 H :    0.020405
   6 C :    0.029232
   7 H :    0.025515
   8 H :    0.044552
   9 C :   -0.059532
  10 H :    0.027584
  11 H :    0.031907
  12 C :   -0.008424
  13 H :    0.029796
  14 H :    0.013384
  15 H :    0.027290
  16 S :    0.099881
  17 C :   -0.121584
  18 C :   -0.037263
  19 C :   -0.023571
  20 C :   -0.172284
  21 H :    0.040253
  22 C :    0.066321
  23 H :    0.020193
  24 H :    0.029897
  25 C :   -0.128690
  26 H :    0.005680
  27 H :    0.040008
  28 C :    0.005359
  29 H :    0.039801
  30 H :    0.015500
  31 H :    0.035353
  32 H :    0.043514
  33 H :    0.084122
Sum of atomic charges:   -0.0000000

LOEWDIN ATOMIC CHARGES
----------------------
   0 S :    0.402461
   1 C :   -0.193126
   2 C :   -0.060026
   3 C :   -0.066294
   4 C :   -0.197249
   5 H :    0.035878
   6 C :   -0.037913
   7 H :    0.034191
   8 H :    0.037847
   9 C :   -0.037138
  10 H :    0.025026
  11 H :    0.024062
  12 C :   -0.054469
  13 H :    0.023702
  14 H :    0.019763
  15 H :    0.024217
  16 S :    0.381521
  17 C :   -0.173998
  18 C :   -0.077191
  19 C :   -0.058083
  20 C :   -0.202843
  21 H :    0.038742
  22 C :   -0.034508
  23 H :    0.021665
  24 H :    0.037239
  25 C :   -0.048951
  26 H :    0.017932
  27 H :    0.028819
  28 C :   -0.059941
  29 H :    0.026898
  30 H :    0.019468
  31 H :    0.031966
  32 H :    0.024352
  33 H :    0.045982

  Mayer bond orders larger than 0.100000
B(  0-S ,  1-C ) :   1.1269 B(  0-S ,  4-C ) :   1.1552 B(  1-C ,  2-C ) :   1.5926
B(  1-C ,  4-C ) :   0.1053 B(  1-C , 32-H ) :   0.9729 B(  2-C ,  3-C ) :   1.2502
B(  2-C ,  6-C ) :   0.9964 B(  3-C ,  4-C ) :   1.5447 B(  3-C ,  5-H ) :   0.9952
B(  4-C , 20-C ) :   1.0552 B(  6-C ,  7-H ) :   0.9478 B(  6-C ,  8-H ) :   0.9348
B(  6-C ,  9-C ) :   1.0664 B(  9-C , 10-H ) :   0.9570 B(  9-C , 11-H ) :   0.9493
B(  9-C , 12-C ) :   1.0989 B( 12-C , 13-H ) :   0.9723 B( 12-C , 14-H ) :   0.9725
B( 12-C , 15-H ) :   0.9738 B( 16-S , 17-C ) :   1.1498 B( 16-S , 20-C ) :   1.1207
B( 17-C , 18-C ) :   1.6178 B( 17-C , 33-H ) :   0.9526 B( 18-C , 19-C ) :   1.2531
B( 18-C , 21-H ) :   0.9776 B( 19-C , 20-C ) :   1.5825 B( 19-C , 22-C ) :   1.0675
B( 22-C , 23-H ) :   0.9232 B( 22-C , 24-H ) :   0.9252 B( 22-C , 25-C ) :   1.0682
B( 25-C , 26-H ) :   0.9536 B( 25-C , 27-H ) :   0.9518 B( 25-C , 28-C ) :   1.0874
B( 28-C , 29-H ) :   0.9750 B( 28-C , 30-H ) :   0.9668 B( 28-C , 31-H ) :   0.9731

Dispersion correction           -0.013673184
FINAL SINGLE POINT ENERGY     -1339.865736552773

DIPOLE MOMENT
-------------
                                X             Y             Z
Electronic contribution:     -6.01930       9.74730      22.27646
Nuclear contribution   :      5.97732     -10.02835     -22.78304
                        -----------------------------------------
Total Dipole Moment    :     -0.04198      -0.28105      -0.50658
                        -----------------------------------------
Magnitude (a.u.)       :      0.58083
Magnitude (Debye)      :      1.47636

Rotational constants in cm-1:     0.019078     0.007520     0.006452
Rotational constants in MHz :   571.951136   225.439381   193.430302

                             ****ORCA TERMINATED NORMALLY****
TOTAL RUN TIME: 0 days 0 hours 0 minutes 33 seconds 205 msec
