                         Program Version 4.2.1 -  RELEASE  -
|  1> ! wB97X-D3 SP def2-SVP
|  2> %pal
|  3> nprocs 16
|  4> end
|  5>
|  6> * xyz 0 1
|  7> S 	 -73.8723 	 50.9761 	 139.82
|  8> C 	 -72.3763 	 51.7099 	 140.347
|  9> C 	 -72.5832 	 53.0387 	 140.721
| 10> C 	 -73.9628 	 53.4277 	 140.472
| 11> C 	 -74.7481 	 52.4425 	 139.925
| 12> H 	 -74.4112 	 54.3603 	 140.631
| 13> C 	 -71.5027 	 54.0221 	 141.128
| 14> H 	 -70.8316 	 53.997 	 140.245
| 15> H 	 -70.9519 	 53.6274 	 141.972
| 16> C 	 -71.9786 	 55.4731 	 141.354
| 17> H 	 -72.5897 	 55.8491 	 140.523
| 18> H 	 -72.525 	 55.5739 	 142.267
| 19> C 	 -70.7366 	 56.3861 	 141.418
| 20> H 	 -69.9762 	 56.0785 	 142.178
| 21> H 	 -70.2175 	 56.4407 	 140.483
| 22> H 	 -71.1064 	 57.38 	 141.797
| 23> S 	 -76.919 	 54.0696 	 139.647
| 24> C 	 -78.4551 	 53.4131 	 139.108
| 25> C 	 -78.3383 	 52.0864 	 138.771
| 26> C 	 -76.9813 	 51.586 	 138.904
| 27> C 	 -76.1294 	 52.5429 	 139.47
| 28> H 	 -79.2665 	 51.5295 	 138.361
| 29> C 	 -76.7636 	 50.1594 	 138.557
| 30> H 	 -77.7664 	 49.6674 	 138.428
| 31> H 	 -76.0845 	 49.6235 	 139.234
| 32> C 	 -75.9241 	 50.0546 	 137.259
| 33> H 	 -74.8183 	 50.2926 	 137.422
| 34> H 	 -76.4026 	 50.7287 	 136.485
| 35> C 	 -75.8227 	 48.6701 	 136.643
| 36> H 	 -75.0904 	 47.9951 	 137.058
| 37> H 	 -75.456 	 48.702 	 135.597
| 38> H 	 -76.7618 	 48.1128 	 136.616
| 39> H 	 -71.4453 	 51.2065 	 140.655
| 40> H 	 -79.3222 	 53.9301 	 139.148
| 41> *
| 42>
| 43>                          ****END OF INPUT****

CARTESIAN COORDINATES (ANGSTROEM)
---------------------------------
  S    -73.872300   50.976100  139.820000
  C    -72.376300   51.709900  140.347000
  C    -72.583200   53.038700  140.721000
  C    -73.962800   53.427700  140.472000
  C    -74.748100   52.442500  139.925000
  H    -74.411200   54.360300  140.631000
  C    -71.502700   54.022100  141.128000
  H    -70.831600   53.997000  140.245000
  H    -70.951900   53.627400  141.972000
  C    -71.978600   55.473100  141.354000
  H    -72.589700   55.849100  140.523000
  H    -72.525000   55.573900  142.267000
  C    -70.736600   56.386100  141.418000
  H    -69.976200   56.078500  142.178000
  H    -70.217500   56.440700  140.483000
  H    -71.106400   57.380000  141.797000
  S    -76.919000   54.069600  139.647000
  C    -78.455100   53.413100  139.108000
  C    -78.338300   52.086400  138.771000
  C    -76.981300   51.586000  138.904000
  C    -76.129400   52.542900  139.470000
  H    -79.266500   51.529500  138.361000
  C    -76.763600   50.159400  138.557000
  H    -77.766400   49.667400  138.428000
  H    -76.084500   49.623500  139.234000
  C    -75.924100   50.054600  137.259000
  H    -74.818300   50.292600  137.422000
  H    -76.402600   50.728700  136.485000
  C    -75.822700   48.670100  136.643000
  H    -75.090400   47.995100  137.058000
  H    -75.456000   48.702000  135.597000
  H    -76.761800   48.112800  136.616000
  H    -71.445300   51.206500  140.655000
  H    -79.322200   53.930100  139.148000

 Total Charge           Charge          ....    0
 Multiplicity           Mult            ....    1
 Number of Electrons    NEL             ....  134
 Basis Dimension        Dim             ....  322

ORBITAL ENERGIES
----------------

  NO   OCC          E(Eh)            E(eV)
   0   2.0000     -88.967728     -2420.9350
   1   2.0000     -88.966708     -2420.9072
   2   2.0000     -10.330320      -281.1023
   3   2.0000     -10.327784      -281.0333
   4   2.0000     -10.312075      -280.6058
   5   2.0000     -10.311780      -280.5978
   6   2.0000     -10.306327      -280.4494
   7   2.0000     -10.304868      -280.4097
   8   2.0000     -10.302990      -280.3586
   9   2.0000     -10.295474      -280.1541
  10   2.0000     -10.294614      -280.1307
  11   2.0000     -10.289048      -279.9792
  12   2.0000     -10.288407      -279.9618
  13   2.0000     -10.287912      -279.9483
  14   2.0000     -10.282955      -279.8134
  15   2.0000     -10.271286      -279.4959
  16   2.0000      -8.082219      -219.9284
  17   2.0000      -8.081676      -219.9136
  18   2.0000      -6.040815      -164.3789
  19   2.0000      -6.040294      -164.3648
  20   2.0000      -6.036689      -164.2666
  21   2.0000      -6.036194      -164.2532
  22   2.0000      -6.032985      -164.1659
  23   2.0000      -6.032307      -164.1474
  24   2.0000      -1.011108       -27.5136
  25   2.0000      -0.985708       -26.8225
  26   2.0000      -0.913730       -24.8638
  27   2.0000      -0.909026       -24.7359
  28   2.0000      -0.873043       -23.7567
  29   2.0000      -0.852258       -23.1911
  30   2.0000      -0.843574       -22.9548
  31   2.0000      -0.815898       -22.2017
  32   2.0000      -0.781843       -21.2750
  33   2.0000      -0.770348       -20.9622
  34   2.0000      -0.714068       -19.4308
  35   2.0000      -0.692166       -18.8348
  36   2.0000      -0.681685       -18.5496
  37   2.0000      -0.672691       -18.3048
  38   2.0000      -0.632864       -17.2211
  39   2.0000      -0.618602       -16.8330
  40   2.0000      -0.599010       -16.2999
  41   2.0000      -0.575982       -15.6733
  42   2.0000      -0.570889       -15.5347
  43   2.0000      -0.561084       -15.2679
  44   2.0000      -0.526583       -14.3291
  45   2.0000      -0.524443       -14.2708
  46   2.0000      -0.515138       -14.0176
  47   2.0000      -0.509795       -13.8722
  48   2.0000      -0.502697       -13.6791
  49   2.0000      -0.498625       -13.5683
  50   2.0000      -0.488088       -13.2815
  51   2.0000      -0.483366       -13.1531
  52   2.0000      -0.477310       -12.9883
  53   2.0000      -0.467982       -12.7344
  54   2.0000      -0.459350       -12.4995
  55   2.0000      -0.450960       -12.2712
  56   2.0000      -0.440752       -11.9935
  57   2.0000      -0.436650       -11.8819
  58   2.0000      -0.434249       -11.8165
  59   2.0000      -0.424335       -11.5468
  60   2.0000      -0.418660       -11.3923
  61   2.0000      -0.409238       -11.1359
  62   2.0000      -0.407259       -11.0821
  63   2.0000      -0.364043        -9.9061
  64   2.0000      -0.329945        -8.9782
  65   2.0000      -0.326617        -8.8877
  66   2.0000      -0.281079        -7.6486
  67   0.0000       0.019721         0.5366
  68   0.0000       0.086167         2.3447
  69   0.0000       0.109673         2.9844
  70   0.0000       0.124675         3.3926
  71   0.0000       0.133979         3.6457

MULLIKEN ATOMIC CHARGES
-----------------------
   0 S :    0.091394
   1 C :   -0.124335
   2 C :   -0.081955
   3 C :   -0.033978
   4 C :   -0.075512
   5 H :   -0.006163
   6 C :    0.036938
   7 H :    0.045862
   8 H :    0.035591
   9 C :   -0.076823
  10 H :    0.044361
  11 H :    0.035123
  12 C :   -0.061931
  13 H :    0.030213
  14 H :    0.036776
  15 H :    0.037289
  16 S :    0.080908
  17 C :   -0.040734
  18 C :   -0.063495
  19 C :   -0.072182
  20 C :   -0.086540
  21 H :    0.056099
  22 C :    0.053546
  23 H :    0.035564
  24 H :    0.037629
  25 C :   -0.134675
  26 H :    0.060508
  27 H :    0.039780
  28 C :   -0.044661
  29 H :    0.022527
  30 H :    0.030884
  31 H :    0.019803
  32 H :    0.056464
  33 H :    0.015728
Sum of atomic charges:    0.0000000

LOEWDIN ATOMIC CHARGES
----------------------
   0 S :    0.447041
   1 C :   -0.220555
   2 C :   -0.053103
   3 C :   -0.078976
   4 C :   -0.190925
   5 H :    0.012468
   6 C :   -0.035194
   7 H :    0.041995
   8 H :    0.031921
   9 C :   -0.039108
  10 H :    0.030231
  11 H :    0.022801
  12 C :   -0.066182
  13 H :    0.026262
  14 H :    0.020808
  15 H :    0.031145
  16 S :    0.413355
  17 C :   -0.165946
  18 C :   -0.074669
  19 C :   -0.059922
  20 C :   -0.196044
  21 H :    0.049585
  22 C :   -0.043887
  23 H :    0.038465
  24 H :    0.024139
  25 C :   -0.054823
  26 H :    0.025604
  27 H :    0.027298
  28 C :   -0.078060
  29 H :    0.020643
  30 H :    0.031835
  31 H :    0.018991
  32 H :    0.035714
  33 H :    0.007092

  Mayer bond orders larger than 0.100000
B(  0-S ,  1-C ) :   1.1319 B(  0-S ,  4-C ) :   1.1517 B(  1-C ,  2-C ) :   1.6188
B(  1-C , 32-H ) :   0.9656 B(  2-C ,  3-C ) :   1.2528 B(  2-C ,  6-C ) :   0.9989
B(  3-C ,  4-C ) :   1.5459 B(  3-C ,  5-H ) :   0.9910 B(  4-C , 20-C ) :   1.0906
B(  6-C ,  7-H ) :   0.9464 B(  6-C ,  8-H ) :   0.9331 B(  6-C ,  9-C ) :   1.0927
B(  9-C , 10-H ) :   0.9470 B(  9-C , 11-H ) :   0.9528 B(  9-C , 12-C ) :   1.0836
B( 12-C , 13-H ) :   0.9740 B( 12-C , 14-H ) :   0.9780 B( 12-C , 15-H ) :   0.9734
B( 16-S , 17-C ) :   1.1446 B( 16-S , 20-C ) :   1.1357 B( 17-C , 18-C ) :   1.6280
B( 17-C , 33-H ) :   0.9809 B( 18-C , 19-C ) :   1.2359 B( 18-C , 21-H ) :   0.9718
B( 19-C , 20-C ) :   1.5528 B( 19-C , 22-C ) :   1.0683 B( 22-C , 23-H ) :   0.9309
B( 22-C , 24-H ) :   0.9255 B( 22-C , 25-C ) :   1.0515 B( 25-C , 26-H ) :   0.9457
B( 25-C , 27-H ) :   0.9565 B( 25-C , 28-C ) :   1.0861 B( 28-C , 29-H ) :   0.9727
B( 28-C , 30-H ) :   0.9717 B( 28-C , 31-H ) :   0.9721

Dispersion correction           -0.013650852
FINAL SINGLE POINT ENERGY     -1339.876956716937

DIPOLE MOMENT
-------------
                                X             Y             Z
Electronic contribution:    -11.66708       0.11026       3.59616
Nuclear contribution   :     11.77952      -0.02718      -3.54288
                        -----------------------------------------
Total Dipole Moment    :      0.11244       0.08308       0.05327
                        -----------------------------------------
Magnitude (a.u.)       :      0.14961
Magnitude (Debye)      :      0.38027

Rotational constants in cm-1:     0.021282     0.008238     0.006225
Rotational constants in MHz :   638.007765   246.976985   186.614785

                             ****ORCA TERMINATED NORMALLY****
TOTAL RUN TIME: 0 days 0 hours 0 minutes 32 seconds 190 msec
