                         Program Version 4.2.1 -  RELEASE  -
|  1> ! wB97X-D3 SP def2-SVP
|  2> %pal
|  3> nprocs 16
|  4> end
|  5>
|  6> * xyz 0 1
|  7> S 	 44.0177 	 14.5359 	 87.1068
|  8> C 	 45.1848 	 14.4513 	 85.7909
|  9> C 	 44.7999 	 13.7561 	 84.7371
| 10> C 	 43.5732 	 13.0699 	 85.0337
| 11> C 	 43.0106 	 13.3061 	 86.3105
| 12> H 	 42.9751 	 12.4492 	 84.4436
| 13> C 	 45.4775 	 13.6385 	 83.4216
| 14> H 	 45.6043 	 14.6632 	 83.0965
| 15> H 	 44.7971 	 13.2161 	 82.6971
| 16> C 	 46.6246 	 12.6541 	 83.3845
| 17> H 	 46.273 	 11.6828 	 83.7952
| 18> H 	 46.9038 	 12.5207 	 82.3329
| 19> C 	 47.9587 	 13.138 	 84.0841
| 20> H 	 48.369 	 12.3596 	 84.7328
| 21> H 	 48.7607 	 13.4608 	 83.4271
| 22> H 	 47.9415 	 14.0746 	 84.7099
| 23> S 	 40.8056 	 13.8588 	 88.021
| 24> C 	 39.3175 	 12.9876 	 87.8459
| 25> C 	 39.5263 	 11.9341 	 86.9493
| 26> C 	 40.8244 	 11.8809 	 86.3871
| 27> C 	 41.6976 	 12.9158 	 86.8017
| 28> H 	 38.6483 	 11.3683 	 86.8141
| 29> C 	 41.1634 	 10.8393 	 85.3742
| 30> H 	 40.5097 	 9.95282 	 85.5367
| 31> H 	 42.2272 	 10.525 	 85.3736
| 32> C 	 40.774 	 11.1799 	 83.9385
| 33> H 	 40.7886 	 12.2157 	 83.6797
| 34> H 	 39.7108 	 11.1161 	 83.8466
| 35> C 	 41.423 	 10.1987 	 82.9092
| 36> H 	 41.2515 	 9.18275 	 83.1863
| 37> H 	 42.4949 	 10.4466 	 82.7657
| 38> H 	 41.0147 	 10.2252 	 82.0058
| 39> H 	 46.0753 	 15.0345 	 85.6293
| 40> H 	 38.4535 	 12.9858 	 88.4825
| 41> *
| 42>
| 43>                          ****END OF INPUT****

CARTESIAN COORDINATES (ANGSTROEM)
---------------------------------
  S     44.017700   14.535900   87.106800
  C     45.184800   14.451300   85.790900
  C     44.799900   13.756100   84.737100
  C     43.573200   13.069900   85.033700
  C     43.010600   13.306100   86.310500
  H     42.975100   12.449200   84.443600
  C     45.477500   13.638500   83.421600
  H     45.604300   14.663200   83.096500
  H     44.797100   13.216100   82.697100
  C     46.624600   12.654100   83.384500
  H     46.273000   11.682800   83.795200
  H     46.903800   12.520700   82.332900
  C     47.958700   13.138000   84.084100
  H     48.369000   12.359600   84.732800
  H     48.760700   13.460800   83.427100
  H     47.941500   14.074600   84.709900
  S     40.805600   13.858800   88.021000
  C     39.317500   12.987600   87.845900
  C     39.526300   11.934100   86.949300
  C     40.824400   11.880900   86.387100
  C     41.697600   12.915800   86.801700
  H     38.648300   11.368300   86.814100
  C     41.163400   10.839300   85.374200
  H     40.509700    9.952820   85.536700
  H     42.227200   10.525000   85.373600
  C     40.774000   11.179900   83.938500
  H     40.788600   12.215700   83.679700
  H     39.710800   11.116100   83.846600
  C     41.423000   10.198700   82.909200
  H     41.251500    9.182750   83.186300
  H     42.494900   10.446600   82.765700
  H     41.014700   10.225200   82.005800
  H     46.075300   15.034500   85.629300
  H     38.453500   12.985800   88.482500

 Total Charge           Charge          ....    0
 Multiplicity           Mult            ....    1
 Number of Electrons    NEL             ....  134
 Basis Dimension        Dim             ....  322

ORBITAL ENERGIES
----------------

  NO   OCC          E(Eh)            E(eV)
   0   2.0000     -88.967195     -2420.9205
   1   2.0000     -88.966751     -2420.9084
   2   2.0000     -10.336520      -281.2710
   3   2.0000     -10.336368      -281.2669
   4   2.0000     -10.317530      -280.7543
   5   2.0000     -10.306569      -280.4560
   6   2.0000     -10.306547      -280.4554
   7   2.0000     -10.298314      -280.2314
   8   2.0000     -10.293097      -280.0894
   9   2.0000     -10.293067      -280.0886
  10   2.0000     -10.292537      -280.0742
  11   2.0000     -10.292407      -280.0706
  12   2.0000     -10.290156      -280.0094
  13   2.0000     -10.283330      -279.8236
  14   2.0000     -10.282755      -279.8080
  15   2.0000     -10.273413      -279.5538
  16   2.0000      -8.081379      -219.9055
  17   2.0000      -8.080725      -219.8877
  18   2.0000      -6.039982      -164.3563
  19   2.0000      -6.039500      -164.3431
  20   2.0000      -6.035767      -164.2416
  21   2.0000      -6.035439      -164.2327
  22   2.0000      -6.032257      -164.1461
  23   2.0000      -6.031159      -164.1162
  24   2.0000      -1.004927       -27.3455
  25   2.0000      -0.985954       -26.8292
  26   2.0000      -0.916994       -24.9527
  27   2.0000      -0.913485       -24.8572
  28   2.0000      -0.871176       -23.7059
  29   2.0000      -0.852605       -23.2006
  30   2.0000      -0.841940       -22.9104
  31   2.0000      -0.815594       -22.1934
  32   2.0000      -0.790020       -21.4975
  33   2.0000      -0.781196       -21.2574
  34   2.0000      -0.718924       -19.5629
  35   2.0000      -0.706328       -19.2202
  36   2.0000      -0.702615       -19.1191
  37   2.0000      -0.664194       -18.0736
  38   2.0000      -0.638108       -17.3638
  39   2.0000      -0.620721       -16.8907
  40   2.0000      -0.598796       -16.2941
  41   2.0000      -0.580421       -15.7941
  42   2.0000      -0.564327       -15.3561
  43   2.0000      -0.545852       -14.8534
  44   2.0000      -0.540180       -14.6990
  45   2.0000      -0.527780       -14.3616
  46   2.0000      -0.522416       -14.2157
  47   2.0000      -0.516081       -14.0433
  48   2.0000      -0.509367       -13.8606
  49   2.0000      -0.502146       -13.6641
  50   2.0000      -0.487633       -13.2692
  51   2.0000      -0.481445       -13.1008
  52   2.0000      -0.477636       -12.9971
  53   2.0000      -0.464852       -12.6493
  54   2.0000      -0.463869       -12.6225
  55   2.0000      -0.447244       -12.1701
  56   2.0000      -0.445697       -12.1280
  57   2.0000      -0.442738       -12.0475
  58   2.0000      -0.436220       -11.8701
  59   2.0000      -0.422999       -11.5104
  60   2.0000      -0.415711       -11.3121
  61   2.0000      -0.414051       -11.2669
  62   2.0000      -0.404409       -11.0045
  63   2.0000      -0.364180        -9.9098
  64   2.0000      -0.333620        -9.0783
  65   2.0000      -0.328475        -8.9383
  66   2.0000      -0.281496        -7.6599
  67   0.0000       0.014697         0.3999
  68   0.0000       0.083452         2.2709
  69   0.0000       0.103290         2.8107
  70   0.0000       0.119760         3.2588
  71   0.0000       0.134474         3.6592

MULLIKEN ATOMIC CHARGES
-----------------------
   0 S :    0.101404
   1 C :   -0.092048
   2 C :   -0.074545
   3 C :    0.040107
   4 C :   -0.132092
   5 H :   -0.060373
   6 C :    0.080782
   7 H :    0.035020
   8 H :    0.013204
   9 C :   -0.044206
  10 H :    0.042205
  11 H :    0.039519
  12 C :   -0.083207
  13 H :    0.041926
  14 H :    0.028522
  15 H :    0.020931
  16 S :    0.098274
  17 C :   -0.091273
  18 C :   -0.044317
  19 C :   -0.020887
  20 C :   -0.103951
  21 H :    0.005563
  22 C :    0.020939
  23 H :    0.028858
  24 H :    0.042618
  25 C :   -0.080346
  26 H :    0.022437
  27 H :    0.001902
  28 C :    0.023677
  29 H :    0.020158
  30 H :    0.034566
  31 H :   -0.004759
  32 H :    0.029146
  33 H :    0.060245
Sum of atomic charges:    0.0000000

LOEWDIN ATOMIC CHARGES
----------------------
   0 S :    0.384137
   1 C :   -0.184314
   2 C :   -0.067438
   3 C :   -0.051123
   4 C :   -0.177229
   5 H :    0.016560
   6 C :   -0.033265
   7 H :    0.034001
   8 H :    0.033354
   9 C :   -0.032202
  10 H :    0.034058
  11 H :    0.028986
  12 C :   -0.083256
  13 H :    0.029375
  14 H :    0.025167
  15 H :    0.026737
  16 S :    0.403748
  17 C :   -0.192976
  18 C :   -0.069947
  19 C :   -0.058252
  20 C :   -0.187115
  21 H :    0.026475
  22 C :   -0.040161
  23 H :    0.038148
  24 H :    0.031722
  25 C :   -0.047906
  26 H :    0.019344
  27 H :    0.020576
  28 C :   -0.050079
  29 H :    0.026053
  30 H :    0.029138
  31 H :    0.007911
  32 H :    0.026718
  33 H :    0.033056

  Mayer bond orders larger than 0.100000
B(  0-S ,  1-C ) :   1.1170 B(  0-S ,  4-C ) :   1.1219 B(  1-C ,  2-C ) :   1.6802
B(  1-C , 32-H ) :   0.9489 B(  2-C ,  3-C ) :   1.2132 B(  2-C ,  6-C ) :   1.0171
B(  3-C ,  4-C ) :   1.5664 B(  3-C ,  5-H ) :   1.0017 B(  4-C , 20-C ) :   1.1142
B(  6-C ,  7-H ) :   0.9379 B(  6-C ,  8-H ) :   0.9327 B(  6-C ,  9-C ) :   1.0789
B(  9-C , 10-H ) :   0.9563 B(  9-C , 11-H ) :   0.9622 B(  9-C , 12-C ) :   1.0457
B( 12-C , 13-H ) :   0.9799 B( 12-C , 14-H ) :   0.9777 B( 12-C , 15-H ) :   0.9799
B( 16-S , 17-C ) :   1.1699 B( 16-S , 20-C ) :   1.1328 B( 17-C , 18-C ) :   1.5832
B( 17-C , 20-C ) :   0.1047 B( 17-C , 33-H ) :   0.9642 B( 18-C , 19-C ) :   1.2689
B( 18-C , 21-H ) :   1.0017 B( 19-C , 20-C ) :   1.5225 B( 19-C , 22-C ) :   1.0631
B( 22-C , 23-H ) :   0.9277 B( 22-C , 24-H ) :   0.9468 B( 22-C , 25-C ) :   1.0396
B( 25-C , 26-H ) :   0.9547 B( 25-C , 27-H ) :   0.9442 B( 25-C , 28-C ) :   1.0771
B( 28-C , 29-H ) :   0.9689 B( 28-C , 30-H ) :   0.9759 B( 28-C , 31-H ) :   0.9671

Dispersion correction           -0.014511993
FINAL SINGLE POINT ENERGY     -1339.844283480460

DIPOLE MOMENT
-------------
                                X             Y             Z
Electronic contribution:    -10.85414      14.33211      24.49145
Nuclear contribution   :     10.74855     -14.72538     -25.29536
                        -----------------------------------------
Total Dipole Moment    :     -0.10559      -0.39327      -0.80391
                        -----------------------------------------
Magnitude (a.u.)       :      0.90116
Magnitude (Debye)      :      2.29056

Rotational constants in cm-1:     0.019588     0.009041     0.006429
Rotational constants in MHz :   587.223579   271.050647   192.749505

                             ****ORCA TERMINATED NORMALLY****
TOTAL RUN TIME: 0 days 0 hours 0 minutes 30 seconds 650 msec
