                         Program Version 4.2.1 -  RELEASE  -
|  1> ! wB97X-D3 SP def2-SVP
|  2> %pal
|  3> nprocs 16
|  4> end
|  5>
|  6> * xyz 0 1
|  7> S 	 46.4593 	 13.1531 	 49.4528
|  8> C 	 46.471 	 13.0949 	 47.7703
|  9> C 	 46.8204 	 14.3213 	 47.2166
| 10> C 	 46.9839 	 15.2927 	 48.2435
| 11> C 	 46.7924 	 14.8512 	 49.5287
| 12> H 	 47.1317 	 16.3889 	 48.0365
| 13> C 	 46.8808 	 14.5318 	 45.7792
| 14> H 	 47.2168 	 13.6906 	 45.2213
| 15> H 	 47.6171 	 15.2638 	 45.5601
| 16> C 	 45.5908 	 14.9562 	 45.0867
| 17> H 	 45.1207 	 15.7628 	 45.6618
| 18> H 	 45.9896 	 15.3066 	 44.1037
| 19> C 	 44.661 	 13.7627 	 44.8764
| 20> H 	 44.4252 	 13.3088 	 45.8507
| 21> H 	 43.6943 	 14.1637 	 44.5003
| 22> H 	 45.0793 	 12.9649 	 44.3131
| 23> S 	 48.1001 	 14.4644 	 51.9634
| 24> C 	 48.4475 	 15.8421 	 52.9168
| 25> C 	 47.581 	 16.8976 	 52.5888
| 26> C 	 46.9153 	 16.6668 	 51.3201
| 27> C 	 47.1789 	 15.4174 	 50.7519
| 28> H 	 47.4597 	 17.8027 	 53.1201
| 29> C 	 46.0513 	 17.7901 	 50.7323
| 30> H 	 45.4876 	 17.3718 	 49.9779
| 31> H 	 46.6548 	 18.4837 	 50.1862
| 32> C 	 44.9734 	 18.5363 	 51.6192
| 33> H 	 45.5126 	 19.1967 	 52.3206
| 34> H 	 44.4168 	 17.8148 	 52.1416
| 35> C 	 43.9496 	 19.3139 	 50.7358
| 36> H 	 43.3767 	 18.6787 	 50.0297
| 37> H 	 44.4875 	 20.0642 	 50.1017
| 38> H 	 43.3095 	 19.8658 	 51.4635
| 39> H 	 46.4381 	 12.2561 	 47.2351
| 40> H 	 49.0135 	 15.6501 	 53.8289
| 41> *
| 42>
| 43>                          ****END OF INPUT****

CARTESIAN COORDINATES (ANGSTROEM)
---------------------------------
  S     46.459300   13.153100   49.452800
  C     46.471000   13.094900   47.770300
  C     46.820400   14.321300   47.216600
  C     46.983900   15.292700   48.243500
  C     46.792400   14.851200   49.528700
  H     47.131700   16.388900   48.036500
  C     46.880800   14.531800   45.779200
  H     47.216800   13.690600   45.221300
  H     47.617100   15.263800   45.560100
  C     45.590800   14.956200   45.086700
  H     45.120700   15.762800   45.661800
  H     45.989600   15.306600   44.103700
  C     44.661000   13.762700   44.876400
  H     44.425200   13.308800   45.850700
  H     43.694300   14.163700   44.500300
  H     45.079300   12.964900   44.313100
  S     48.100100   14.464400   51.963400
  C     48.447500   15.842100   52.916800
  C     47.581000   16.897600   52.588800
  C     46.915300   16.666800   51.320100
  C     47.178900   15.417400   50.751900
  H     47.459700   17.802700   53.120100
  C     46.051300   17.790100   50.732300
  H     45.487600   17.371800   49.977900
  H     46.654800   18.483700   50.186200
  C     44.973400   18.536300   51.619200
  H     45.512600   19.196700   52.320600
  H     44.416800   17.814800   52.141600
  C     43.949600   19.313900   50.735800
  H     43.376700   18.678700   50.029700
  H     44.487500   20.064200   50.101700
  H     43.309500   19.865800   51.463500
  H     46.438100   12.256100   47.235100
  H     49.013500   15.650100   53.828900

 Total Charge           Charge          ....    0
 Multiplicity           Mult            ....    1
 Number of Electrons    NEL             ....  134
 Basis Dimension        Dim             ....  322

ORBITAL ENERGIES
----------------

  NO   OCC          E(Eh)            E(eV)
   0   2.0000     -88.962637     -2420.7964
   1   2.0000     -88.962315     -2420.7877
   2   2.0000     -10.327066      -281.0137
   3   2.0000     -10.323309      -280.9115
   4   2.0000     -10.320243      -280.8281
   5   2.0000     -10.306275      -280.4480
   6   2.0000     -10.300597      -280.2935
   7   2.0000     -10.296760      -280.1891
   8   2.0000     -10.295836      -280.1639
   9   2.0000     -10.295242      -280.1478
  10   2.0000     -10.291586      -280.0483
  11   2.0000     -10.290547      -280.0200
  12   2.0000     -10.287948      -279.9493
  13   2.0000     -10.284227      -279.8481
  14   2.0000     -10.278329      -279.6876
  15   2.0000     -10.276347      -279.6336
  16   2.0000      -8.079249      -219.8475
  17   2.0000      -8.077413      -219.7976
  18   2.0000      -6.037542      -164.2899
  19   2.0000      -6.035972      -164.2471
  20   2.0000      -6.033398      -164.1771
  21   2.0000      -6.031938      -164.1374
  22   2.0000      -6.030225      -164.0908
  23   2.0000      -6.028013      -164.0306
  24   2.0000      -1.015394       -27.6303
  25   2.0000      -0.986187       -26.8355
  26   2.0000      -0.922931       -25.1142
  27   2.0000      -0.903972       -24.5983
  28   2.0000      -0.876684       -23.8558
  29   2.0000      -0.852915       -23.2090
  30   2.0000      -0.844890       -22.9906
  31   2.0000      -0.813959       -22.1489
  32   2.0000      -0.785095       -21.3635
  33   2.0000      -0.774513       -21.0756
  34   2.0000      -0.711387       -19.3578
  35   2.0000      -0.703405       -19.1406
  36   2.0000      -0.695997       -18.9390
  37   2.0000      -0.660346       -17.9689
  38   2.0000      -0.648371       -17.6431
  39   2.0000      -0.623389       -16.9633
  40   2.0000      -0.602938       -16.4068
  41   2.0000      -0.577631       -15.7181
  42   2.0000      -0.568014       -15.4564
  43   2.0000      -0.549848       -14.9621
  44   2.0000      -0.542243       -14.7552
  45   2.0000      -0.524783       -14.2801
  46   2.0000      -0.520546       -14.1648
  47   2.0000      -0.517429       -14.0800
  48   2.0000      -0.511374       -13.9152
  49   2.0000      -0.497090       -13.5265
  50   2.0000      -0.488115       -13.2823
  51   2.0000      -0.478521       -13.0212
  52   2.0000      -0.477520       -12.9940
  53   2.0000      -0.468348       -12.7444
  54   2.0000      -0.462335       -12.5808
  55   2.0000      -0.452592       -12.3156
  56   2.0000      -0.440542       -11.9877
  57   2.0000      -0.435312       -11.8454
  58   2.0000      -0.433241       -11.7891
  59   2.0000      -0.428833       -11.6691
  60   2.0000      -0.423238       -11.5169
  61   2.0000      -0.415129       -11.2962
  62   2.0000      -0.408095       -11.1048
  63   2.0000      -0.357679        -9.7329
  64   2.0000      -0.328565        -8.9407
  65   2.0000      -0.325268        -8.8510
  66   2.0000      -0.283866        -7.7244
  67   0.0000       0.023554         0.6409
  68   0.0000       0.064973         1.7680
  69   0.0000       0.114846         3.1251
  70   0.0000       0.123920         3.3720
  71   0.0000       0.130045         3.5387

MULLIKEN ATOMIC CHARGES
-----------------------
   0 S :    0.104305
   1 C :   -0.046846
   2 C :   -0.105804
   3 C :    0.012370
   4 C :   -0.163360
   5 H :    0.025680
   6 C :    0.078820
   7 H :    0.002703
   8 H :    0.007554
   9 C :   -0.063879
  10 H :    0.030805
  11 H :    0.032482
  12 C :   -0.045483
  13 H :    0.027695
  14 H :    0.041353
  15 H :    0.023349
  16 S :    0.098026
  17 C :   -0.093667
  18 C :   -0.003605
  19 C :   -0.060391
  20 C :   -0.119801
  21 H :    0.006681
  22 C :    0.085238
  23 H :   -0.012447
  24 H :    0.027579
  25 C :   -0.069548
  26 H :    0.038188
  27 H :    0.029555
  28 C :   -0.084299
  29 H :    0.048408
  30 H :    0.033880
  31 H :    0.047458
  32 H :   -0.004554
  33 H :    0.071557
Sum of atomic charges:   -0.0000000

LOEWDIN ATOMIC CHARGES
----------------------
   0 S :    0.442268
   1 C :   -0.193340
   2 C :   -0.063621
   3 C :   -0.064031
   4 C :   -0.205241
   5 H :    0.037523
   6 C :   -0.037999
   7 H :    0.027080
   8 H :    0.026755
   9 C :   -0.032380
  10 H :    0.024556
  11 H :    0.028277
  12 C :   -0.068272
  13 H :    0.026156
  14 H :    0.032131
  15 H :    0.018828
  16 S :    0.400111
  17 C :   -0.191151
  18 C :   -0.065935
  19 C :   -0.047502
  20 C :   -0.191641
  21 H :    0.023080
  22 C :   -0.032673
  23 H :    0.015732
  24 H :    0.027919
  25 C :   -0.029725
  26 H :    0.022980
  27 H :    0.019587
  28 C :   -0.068385
  29 H :    0.029126
  30 H :    0.026304
  31 H :    0.033197
  32 H :    0.000431
  33 H :    0.029856

  Mayer bond orders larger than 0.100000
B(  0-S ,  1-C ) :   1.1680 B(  0-S ,  4-C ) :   1.1501 B(  1-C ,  2-C ) :   1.5549
B(  1-C , 32-H ) :   0.9795 B(  2-C ,  3-C ) :   1.2873 B(  2-C ,  6-C ) :   1.0610
B(  3-C ,  4-C ) :   1.5324 B(  3-C ,  5-H ) :   0.9839 B(  4-C , 20-C ) :   1.1044
B(  6-C ,  7-H ) :   0.9299 B(  6-C ,  8-H ) :   0.9272 B(  6-C ,  9-C ) :   1.0669
B(  9-C , 10-H ) :   0.9553 B(  9-C , 11-H ) :   0.9536 B(  9-C , 12-C ) :   1.0852
B( 12-C , 13-H ) :   0.9693 B( 12-C , 14-H ) :   0.9721 B( 12-C , 15-H ) :   0.9735
B( 16-S , 17-C ) :   1.1807 B( 16-S , 20-C ) :   1.1138 B( 17-C , 18-C ) :   1.5550
B( 17-C , 33-H ) :   0.9672 B( 18-C , 19-C ) :   1.2545 B( 18-C , 21-H ) :   0.9998
B( 19-C , 20-C ) :   1.5767 B( 19-C , 22-C ) :   1.0445 B( 22-C , 23-H ) :   0.9256
B( 22-C , 24-H ) :   0.9319 B( 22-C , 25-C ) :   1.0576 B( 25-C , 26-H ) :   0.9544
B( 25-C , 27-H ) :   0.9591 B( 25-C , 28-C ) :   1.0833 B( 28-C , 29-H ) :   0.9745
B( 28-C , 30-H ) :   0.9769 B( 28-C , 31-H ) :   0.9745

Dispersion correction           -0.013738948
FINAL SINGLE POINT ENERGY     -1339.862584089328

DIPOLE MOMENT
-------------
                                X             Y             Z
Electronic contribution:     14.56589     -16.55568      16.97014
Nuclear contribution   :    -14.71151      17.02175     -17.28090
                        -----------------------------------------
Total Dipole Moment    :     -0.14562       0.46607      -0.31076
                        -----------------------------------------
Magnitude (a.u.)       :      0.57879
Magnitude (Debye)      :      1.47117

Rotational constants in cm-1:     0.018249     0.008457     0.006289
Rotational constants in MHz :   547.101770   253.526250   188.525326

                             ****ORCA TERMINATED NORMALLY****
TOTAL RUN TIME: 0 days 0 hours 0 minutes 33 seconds 813 msec
