                         Program Version 4.2.1 -  RELEASE  -
|  1> ! wB97X-D3 SP def2-SVP
|  2> %pal
|  3> nprocs 16
|  4> end
|  5>
|  6> * xyz 0 1
|  7> S 	 55.079 	 21.1387 	 47.4295
|  8> C 	 56.6365 	 20.9192 	 46.8179
|  9> C 	 57.2022 	 19.6896 	 47.2708
| 10> C 	 56.2785 	 18.9707 	 48.0847
| 11> C 	 55.054 	 19.5621 	 48.1771
| 12> H 	 56.5144 	 17.9694 	 48.438
| 13> C 	 58.5856 	 19.1581 	 46.7223
| 14> H 	 58.7372 	 18.3092 	 47.3955
| 15> H 	 59.3646 	 19.93 	 46.862
| 16> C 	 58.5123 	 18.5642 	 45.3034
| 17> H 	 59.5194 	 17.9933 	 45.2397
| 18> H 	 57.6719 	 17.7786 	 45.2594
| 19> C 	 58.4215 	 19.6325 	 44.2542
| 20> H 	 57.5934 	 20.2788 	 44.4021
| 21> H 	 59.3098 	 20.2171 	 44.256
| 22> H 	 58.2824 	 19.2246 	 43.2709
| 23> S 	 53.6317 	 18.7485 	 50.3803
| 24> C 	 52.0822 	 18.0334 	 50.184
| 25> C 	 51.6803 	 17.9104 	 48.8515
| 26> C 	 52.6268 	 18.6349 	 47.9777
| 27> C 	 53.8075 	 18.9489 	 48.6636
| 28> H 	 50.8139 	 17.4273 	 48.5345
| 29> C 	 52.3892 	 18.6784 	 46.4485
| 30> H 	 52.2497 	 19.6962 	 46.1306
| 31> H 	 51.4532 	 18.216 	 46.2142
| 32> C 	 53.4334 	 18.0032 	 45.5722
| 33> H 	 53.866 	 17.0842 	 45.9914
| 34> H 	 54.2885 	 18.6867 	 45.4645
| 35> C 	 52.9191 	 17.7445 	 44.1452
| 36> H 	 52.6645 	 18.6803 	 43.6154
| 37> H 	 51.9706 	 17.2139 	 44.0098
| 38> H 	 53.6115 	 17.2623 	 43.4261
| 39> H 	 57.2972 	 21.6377 	 46.3587
| 40> H 	 51.5701 	 17.5556 	 51.0307
| 41> *
| 42>
| 43>                          ****END OF INPUT****

CARTESIAN COORDINATES (ANGSTROEM)
---------------------------------
  S     55.079000   21.138700   47.429500
  C     56.636500   20.919200   46.817900
  C     57.202200   19.689600   47.270800
  C     56.278500   18.970700   48.084700
  C     55.054000   19.562100   48.177100
  H     56.514400   17.969400   48.438000
  C     58.585600   19.158100   46.722300
  H     58.737200   18.309200   47.395500
  H     59.364600   19.930000   46.862000
  C     58.512300   18.564200   45.303400
  H     59.519400   17.993300   45.239700
  H     57.671900   17.778600   45.259400
  C     58.421500   19.632500   44.254200
  H     57.593400   20.278800   44.402100
  H     59.309800   20.217100   44.256000
  H     58.282400   19.224600   43.270900
  S     53.631700   18.748500   50.380300
  C     52.082200   18.033400   50.184000
  C     51.680300   17.910400   48.851500
  C     52.626800   18.634900   47.977700
  C     53.807500   18.948900   48.663600
  H     50.813900   17.427300   48.534500
  C     52.389200   18.678400   46.448500
  H     52.249700   19.696200   46.130600
  H     51.453200   18.216000   46.214200
  C     53.433400   18.003200   45.572200
  H     53.866000   17.084200   45.991400
  H     54.288500   18.686700   45.464500
  C     52.919100   17.744500   44.145200
  H     52.664500   18.680300   43.615400
  H     51.970600   17.213900   44.009800
  H     53.611500   17.262300   43.426100
  H     57.297200   21.637700   46.358700
  H     51.570100   17.555600   51.030700

 Total Charge           Charge          ....    0
 Multiplicity           Mult            ....    1
 Number of Electrons    NEL             ....  134
 Basis Dimension        Dim             ....  322

ORBITAL ENERGIES
----------------

  NO   OCC          E(Eh)            E(eV)
   0   2.0000     -88.969196     -2420.9749
   1   2.0000     -88.965854     -2420.8840
   2   2.0000     -10.326925      -281.0099
   3   2.0000     -10.326282      -280.9924
   4   2.0000     -10.316919      -280.7376
   5   2.0000     -10.310714      -280.5688
   6   2.0000     -10.310415      -280.5606
   7   2.0000     -10.302970      -280.3581
   8   2.0000     -10.299036      -280.2510
   9   2.0000     -10.298754      -280.2433
  10   2.0000     -10.296230      -280.1747
  11   2.0000     -10.294563      -280.1293
  12   2.0000     -10.288557      -279.9659
  13   2.0000     -10.284929      -279.8672
  14   2.0000     -10.278322      -279.6874
  15   2.0000     -10.267979      -279.4059
  16   2.0000      -8.084424      -219.9884
  17   2.0000      -8.081364      -219.9051
  18   2.0000      -6.042751      -164.4316
  19   2.0000      -6.039772      -164.3506
  20   2.0000      -6.038683      -164.3209
  21   2.0000      -6.035751      -164.2411
  22   2.0000      -6.035520      -164.2348
  23   2.0000      -6.032212      -164.1448
  24   2.0000      -1.008396       -27.4399
  25   2.0000      -0.985227       -26.8094
  26   2.0000      -0.909382       -24.7455
  27   2.0000      -0.905581       -24.6421
  28   2.0000      -0.866251       -23.5719
  29   2.0000      -0.851386       -23.1674
  30   2.0000      -0.845552       -23.0086
  31   2.0000      -0.811398       -22.0793
  32   2.0000      -0.784377       -21.3440
  33   2.0000      -0.771209       -20.9857
  34   2.0000      -0.705974       -19.2105
  35   2.0000      -0.691938       -18.8286
  36   2.0000      -0.685926       -18.6650
  37   2.0000      -0.664646       -18.0859
  38   2.0000      -0.639109       -17.3910
  39   2.0000      -0.618488       -16.8299
  40   2.0000      -0.596589       -16.2340
  41   2.0000      -0.568288       -15.4639
  42   2.0000      -0.559619       -15.2280
  43   2.0000      -0.549273       -14.9465
  44   2.0000      -0.541722       -14.7410
  45   2.0000      -0.519555       -14.1378
  46   2.0000      -0.516853       -14.0643
  47   2.0000      -0.512167       -13.9368
  48   2.0000      -0.506468       -13.7817
  49   2.0000      -0.496422       -13.5083
  50   2.0000      -0.483411       -13.1543
  51   2.0000      -0.476018       -12.9531
  52   2.0000      -0.474172       -12.9029
  53   2.0000      -0.463796       -12.6205
  54   2.0000      -0.456757       -12.4290
  55   2.0000      -0.452019       -12.3001
  56   2.0000      -0.447844       -12.1865
  57   2.0000      -0.437082       -11.8936
  58   2.0000      -0.433174       -11.7873
  59   2.0000      -0.426937       -11.6175
  60   2.0000      -0.424474       -11.5505
  61   2.0000      -0.408315       -11.1108
  62   2.0000      -0.404473       -11.0063
  63   2.0000      -0.345396        -9.3987
  64   2.0000      -0.331623        -9.0239
  65   2.0000      -0.323120        -8.7926
  66   2.0000      -0.297835        -8.1045
  67   0.0000       0.037252         1.0137
  68   0.0000       0.066214         1.8018
  69   0.0000       0.114171         3.1068
  70   0.0000       0.117675         3.2021
  71   0.0000       0.129383         3.5207

MULLIKEN ATOMIC CHARGES
-----------------------
   0 S :    0.144674
   1 C :   -0.114827
   2 C :   -0.155213
   3 C :    0.056500
   4 C :   -0.169777
   5 H :    0.012747
   6 C :    0.045238
   7 H :    0.020395
   8 H :    0.042149
   9 C :   -0.103804
  10 H :    0.044205
  11 H :    0.045359
  12 C :    0.000809
  13 H :    0.022274
  14 H :    0.017849
  15 H :    0.026496
  16 S :    0.125772
  17 C :   -0.099242
  18 C :   -0.009405
  19 C :   -0.044808
  20 C :   -0.172476
  21 H :    0.002499
  22 C :    0.092959
  23 H :    0.027323
  24 H :   -0.000037
  25 C :   -0.048034
  26 H :    0.035744
  27 H :    0.039018
  28 C :   -0.084391
  29 H :    0.018976
  30 H :    0.024552
  31 H :    0.036363
  32 H :    0.052735
  33 H :    0.067380
Sum of atomic charges:    0.0000000

LOEWDIN ATOMIC CHARGES
----------------------
   0 S :    0.445892
   1 C :   -0.230140
   2 C :   -0.065929
   3 C :   -0.061571
   4 C :   -0.207696
   5 H :    0.033408
   6 C :   -0.032662
   7 H :    0.029248
   8 H :    0.031789
   9 C :   -0.045897
  10 H :    0.033493
  11 H :    0.033045
  12 C :   -0.063302
  13 H :    0.020586
  14 H :    0.022288
  15 H :    0.026080
  16 S :    0.430380
  17 C :   -0.199414
  18 C :   -0.059987
  19 C :   -0.045280
  20 C :   -0.211399
  21 H :    0.020958
  22 C :   -0.029305
  23 H :    0.031427
  24 H :    0.023992
  25 C :   -0.040214
  26 H :    0.026160
  27 H :    0.028933
  28 C :   -0.080320
  29 H :    0.025428
  30 H :    0.021412
  31 H :    0.029386
  32 H :    0.028025
  33 H :    0.031186

  Mayer bond orders larger than 0.100000
B(  0-S ,  1-C ) :   1.1708 B(  0-S ,  4-C ) :   1.1629 B(  1-C ,  2-C ) :   1.5643
B(  1-C , 32-H ) :   0.9585 B(  2-C ,  3-C ) :   1.3063 B(  2-C ,  6-C ) :   1.0132
B(  3-C ,  4-C ) :   1.5528 B(  3-C ,  5-H ) :   0.9892 B(  4-C , 20-C ) :   1.0024
B(  6-C ,  7-H ) :   0.9411 B(  6-C ,  8-H ) :   0.9457 B(  6-C ,  9-C ) :   1.0599
B(  9-C , 10-H ) :   0.9540 B(  9-C , 11-H ) :   0.9523 B(  9-C , 12-C ) :   1.0816
B( 12-C , 13-H ) :   0.9674 B( 12-C , 14-H ) :   0.9719 B( 12-C , 15-H ) :   0.9694
B( 16-S , 17-C ) :   1.1705 B( 16-S , 20-C ) :   1.1565 B( 17-C , 18-C ) :   1.6005
B( 17-C , 33-H ) :   0.9624 B( 18-C , 19-C ) :   1.2341 B( 18-C , 21-H ) :   0.9971
B( 19-C , 20-C ) :   1.5967 B( 19-C , 22-C ) :   1.0439 B( 22-C , 23-H ) :   0.9220
B( 22-C , 24-H ) :   0.9424 B( 22-C , 25-C ) :   1.0612 B( 25-C , 26-H ) :   0.9632
B( 25-C , 27-H ) :   0.9451 B( 25-C , 28-C ) :   1.0773 B( 28-C , 29-H ) :   0.9724
B( 28-C , 30-H ) :   0.9759 B( 28-C , 31-H ) :   0.9754

Dispersion correction           -0.015604960
FINAL SINGLE POINT ENERGY     -1339.880553817735

DIPOLE MOMENT
-------------
                                X             Y             Z
Electronic contribution:     -8.85883       8.51576      25.75939
Nuclear contribution   :      9.01468      -8.82241     -26.19687
                        -----------------------------------------
Total Dipole Moment    :      0.15585      -0.30665      -0.43748
                        -----------------------------------------
Magnitude (a.u.)       :      0.55652
Magnitude (Debye)      :      1.41456

Rotational constants in cm-1:     0.019902     0.009205     0.007448
Rotational constants in MHz :   596.647787   275.973822   223.295446

                             ****ORCA TERMINATED NORMALLY****
TOTAL RUN TIME: 0 days 0 hours 0 minutes 30 seconds 224 msec
