                         Program Version 4.2.1 -  RELEASE  -
|  1> ! wB97X-D3 SP def2-SVP
|  2> %pal
|  3> nprocs 16
|  4> end
|  5>
|  6> * xyz 0 1
|  7> S 	 -6.24914 	 66.0056 	 52.2962
|  8> C 	 -6.89469 	 64.8509 	 51.0753
|  9> C 	 -8.07027 	 65.3488 	 50.4827
| 10> C 	 -8.56505 	 66.4858 	 51.2249
| 11> C 	 -7.70572 	 66.8726 	 52.2137
| 12> H 	 -9.4664 	 67.0188 	 51.0286
| 13> C 	 -8.92852 	 64.6627 	 49.3508
| 14> H 	 -10.0578 	 64.8104 	 49.4874
| 15> H 	 -8.88506 	 63.6387 	 49.5291
| 16> C 	 -8.50788 	 64.9608 	 47.8776
| 17> H 	 -7.5394 	 64.5639 	 47.7339
| 18> H 	 -9.14393 	 64.3615 	 47.2
| 19> C 	 -8.70324 	 66.4204 	 47.4563
| 20> H 	 -8.40441 	 66.6323 	 46.4439
| 21> H 	 -9.71341 	 66.7285 	 47.7288
| 22> H 	 -8.11917 	 67.1068 	 48.0438
| 23> S 	 -6.73441 	 69.3258 	 52.7587
| 24> C 	 -7.39479 	 70.3115 	 54.0757
| 25> C 	 -8.57116 	 69.7295 	 54.6544
| 26> C 	 -8.88415 	 68.4681 	 53.9774
| 27> C 	 -7.94064 	 68.0585 	 53.0463
| 28> H 	 -9.07993 	 70.2092 	 55.386
| 29> C 	 -10.0677 	 67.6019 	 54.464
| 30> H 	 -9.70188 	 66.6649 	 54.8831
| 31> H 	 -10.6855 	 67.3838 	 53.5961
| 32> C 	 -11.0022 	 68.3244 	 55.4922
| 33> H 	 -11.343 	 69.3283 	 55.1646
| 34> H 	 -10.4733 	 68.5325 	 56.4015
| 35> C 	 -12.1662 	 67.4377 	 55.9693
| 36> H 	 -12.6461 	 67.8425 	 56.8342
| 37> H 	 -11.8729 	 66.4595 	 56.2829
| 38> H 	 -12.8559 	 67.2159 	 55.1799
| 39> H 	 -6.43352 	 63.934 	 50.8242
| 40> H 	 -7.0847 	 71.3399 	 54.3642
| 41> *
| 42>
| 43>                          ****END OF INPUT****

CARTESIAN COORDINATES (ANGSTROEM)
---------------------------------
  S     -6.249140   66.005600   52.296200
  C     -6.894690   64.850900   51.075300
  C     -8.070270   65.348800   50.482700
  C     -8.565050   66.485800   51.224900
  C     -7.705720   66.872600   52.213700
  H     -9.466400   67.018800   51.028600
  C     -8.928520   64.662700   49.350800
  H    -10.057800   64.810400   49.487400
  H     -8.885060   63.638700   49.529100
  C     -8.507880   64.960800   47.877600
  H     -7.539400   64.563900   47.733900
  H     -9.143930   64.361500   47.200000
  C     -8.703240   66.420400   47.456300
  H     -8.404410   66.632300   46.443900
  H     -9.713410   66.728500   47.728800
  H     -8.119170   67.106800   48.043800
  S     -6.734410   69.325800   52.758700
  C     -7.394790   70.311500   54.075700
  C     -8.571160   69.729500   54.654400
  C     -8.884150   68.468100   53.977400
  C     -7.940640   68.058500   53.046300
  H     -9.079930   70.209200   55.386000
  C    -10.067700   67.601900   54.464000
  H     -9.701880   66.664900   54.883100
  H    -10.685500   67.383800   53.596100
  C    -11.002200   68.324400   55.492200
  H    -11.343000   69.328300   55.164600
  H    -10.473300   68.532500   56.401500
  C    -12.166200   67.437700   55.969300
  H    -12.646100   67.842500   56.834200
  H    -11.872900   66.459500   56.282900
  H    -12.855900   67.215900   55.179900
  H     -6.433520   63.934000   50.824200
  H     -7.084700   71.339900   54.364200

 Total Charge           Charge          ....    0
 Multiplicity           Mult            ....    1
 Number of Electrons    NEL             ....  134
 Basis Dimension        Dim             ....  322

ORBITAL ENERGIES
----------------

  NO   OCC          E(Eh)            E(eV)
   0   2.0000     -88.971055     -2421.0255
   1   2.0000     -88.965188     -2420.8658
   2   2.0000     -10.326044      -280.9859
   3   2.0000     -10.324988      -280.9572
   4   2.0000     -10.324049      -280.9317
   5   2.0000     -10.319139      -280.7980
   6   2.0000     -10.311975      -280.6031
   7   2.0000     -10.308951      -280.5208
   8   2.0000     -10.300179      -280.2821
   9   2.0000     -10.295158      -280.1455
  10   2.0000     -10.294209      -280.1197
  11   2.0000     -10.290884      -280.0292
  12   2.0000     -10.288755      -279.9713
  13   2.0000     -10.287557      -279.9386
  14   2.0000     -10.272822      -279.5377
  15   2.0000     -10.271534      -279.5026
  16   2.0000      -8.085872      -220.0278
  17   2.0000      -8.079036      -219.8418
  18   2.0000      -6.044308      -164.4740
  19   2.0000      -6.040526      -164.3711
  20   2.0000      -6.037663      -164.2932
  21   2.0000      -6.036525      -164.2622
  22   2.0000      -6.033556      -164.1814
  23   2.0000      -6.029838      -164.0802
  24   2.0000      -1.004847       -27.3433
  25   2.0000      -0.973254       -26.4836
  26   2.0000      -0.905579       -24.6421
  27   2.0000      -0.901634       -24.5347
  28   2.0000      -0.863303       -23.4917
  29   2.0000      -0.849555       -23.1176
  30   2.0000      -0.843721       -22.9588
  31   2.0000      -0.811059       -22.0700
  32   2.0000      -0.784700       -21.3528
  33   2.0000      -0.770855       -20.9760
  34   2.0000      -0.709111       -19.2959
  35   2.0000      -0.704454       -19.1692
  36   2.0000      -0.691856       -18.8264
  37   2.0000      -0.657798       -17.8996
  38   2.0000      -0.644603       -17.5405
  39   2.0000      -0.615533       -16.7495
  40   2.0000      -0.587962       -15.9993
  41   2.0000      -0.569755       -15.5038
  42   2.0000      -0.566207       -15.4073
  43   2.0000      -0.553097       -15.0505
  44   2.0000      -0.543975       -14.8023
  45   2.0000      -0.522602       -14.2207
  46   2.0000      -0.517426       -14.0799
  47   2.0000      -0.507693       -13.8150
  48   2.0000      -0.499682       -13.5970
  49   2.0000      -0.494855       -13.4657
  50   2.0000      -0.486998       -13.2519
  51   2.0000      -0.474117       -12.9014
  52   2.0000      -0.469157       -12.7664
  53   2.0000      -0.466503       -12.6942
  54   2.0000      -0.454509       -12.3678
  55   2.0000      -0.452474       -12.3125
  56   2.0000      -0.445051       -12.1105
  57   2.0000      -0.439575       -11.9614
  58   2.0000      -0.431938       -11.7536
  59   2.0000      -0.427275       -11.6268
  60   2.0000      -0.423611       -11.5270
  61   2.0000      -0.414791       -11.2870
  62   2.0000      -0.413168       -11.2429
  63   2.0000      -0.337714        -9.1897
  64   2.0000      -0.335113        -9.1189
  65   2.0000      -0.327413        -8.9094
  66   2.0000      -0.293733        -7.9929
  67   0.0000       0.035508         0.9662
  68   0.0000       0.056853         1.5471
  69   0.0000       0.107644         2.9291
  70   0.0000       0.115245         3.1360
  71   0.0000       0.126345         3.4380

MULLIKEN ATOMIC CHARGES
-----------------------
   0 S :    0.129952
   1 C :   -0.117153
   2 C :   -0.054829
   3 C :    0.038573
   4 C :   -0.151190
   5 H :    0.005380
   6 C :    0.025575
   7 H :    0.036906
   8 H :    0.011425
   9 C :   -0.045345
  10 H :    0.018757
  11 H :    0.028157
  12 C :   -0.029979
  13 H :    0.036934
  14 H :    0.020069
  15 H :    0.024367
  16 S :    0.099128
  17 C :   -0.096479
  18 C :   -0.016776
  19 C :   -0.035200
  20 C :   -0.166027
  21 H :   -0.017918
  22 C :    0.078216
  23 H :    0.045496
  24 H :    0.027751
  25 C :   -0.122025
  26 H :    0.036147
  27 H :    0.025621
  28 C :    0.001473
  29 H :    0.027078
  30 H :    0.011232
  31 H :    0.021975
  32 H :    0.034597
  33 H :    0.068110
Sum of atomic charges:    0.0000000

LOEWDIN ATOMIC CHARGES
----------------------
   0 S :    0.416648
   1 C :   -0.179442
   2 C :   -0.049247
   3 C :   -0.059412
   4 C :   -0.216901
   5 H :    0.028514
   6 C :   -0.032013
   7 H :    0.037411
   8 H :    0.021264
   9 C :   -0.034766
  10 H :    0.016572
  11 H :    0.027095
  12 C :   -0.065005
  13 H :    0.026327
  14 H :    0.025491
  15 H :    0.023329
  16 S :    0.390140
  17 C :   -0.186886
  18 C :   -0.057738
  19 C :   -0.054144
  20 C :   -0.191812
  21 H :    0.011519
  22 C :   -0.026299
  23 H :    0.035823
  24 H :    0.030113
  25 C :   -0.043706
  26 H :    0.025902
  27 H :    0.019492
  28 C :   -0.059533
  29 H :    0.025118
  30 H :    0.021840
  31 H :    0.020795
  32 H :    0.018018
  33 H :    0.035493

  Mayer bond orders larger than 0.100000
B(  0-S ,  1-C ) :   1.1273 B(  0-S ,  4-C ) :   1.1607 B(  1-C ,  2-C ) :   1.6176
B(  1-C , 32-H ) :   0.9770 B(  2-C ,  3-C ) :   1.2184 B(  2-C ,  6-C ) :   0.9963
B(  3-C ,  4-C ) :   1.5866 B(  3-C ,  5-H ) :   1.0000 B(  4-C , 20-C ) :   1.0079
B(  6-C ,  7-H ) :   0.9532 B(  6-C ,  8-H ) :   0.9423 B(  6-C ,  9-C ) :   1.0762
B(  9-C , 10-H ) :   0.9571 B(  9-C , 11-H ) :   0.9541 B(  9-C , 12-C ) :   1.0723
B( 12-C , 13-H ) :   0.9745 B( 12-C , 14-H ) :   0.9731 B( 12-C , 15-H ) :   0.9745
B( 16-S , 17-C ) :   1.1538 B( 16-S , 20-C ) :   1.1355 B( 17-C , 18-C ) :   1.6022
B( 17-C , 20-C ) :   0.1020 B( 17-C , 33-H ) :   0.9582 B( 18-C , 19-C ) :   1.2254
B( 18-C , 21-H ) :   1.0015 B( 19-C , 20-C ) :   1.6373 B( 19-C , 22-C ) :   1.0219
B( 22-C , 23-H ) :   0.9380 B( 22-C , 24-H ) :   0.9357 B( 22-C , 25-C ) :   1.0848
B( 25-C , 26-H ) :   0.9550 B( 25-C , 27-H ) :   0.9474 B( 25-C , 28-C ) :   1.0836
B( 28-C , 29-H ) :   0.9731 B( 28-C , 30-H ) :   0.9698 B( 28-C , 31-H ) :   0.9743

Dispersion correction           -0.013686934
FINAL SINGLE POINT ENERGY     -1339.862337584847

DIPOLE MOMENT
-------------
                                X             Y             Z
Electronic contribution:     22.50701       5.86425       4.86201
Nuclear contribution   :    -23.06600      -6.08492      -4.91841
                        -----------------------------------------
Total Dipole Moment    :     -0.55898      -0.22067      -0.05640
                        -----------------------------------------
Magnitude (a.u.)       :      0.60360
Magnitude (Debye)      :      1.53423

Rotational constants in cm-1:     0.018200     0.007703     0.006541
Rotational constants in MHz :   545.631047   230.925182   196.108615

                             ****ORCA TERMINATED NORMALLY****
TOTAL RUN TIME: 0 days 0 hours 0 minutes 30 seconds 178 msec
