                         Program Version 4.2.1 -  RELEASE  -
|  1> ! wB97X-D3 SP def2-SVP
|  2> %pal
|  3> nprocs 16
|  4> end
|  5>
|  6> * xyz 0 1
|  7> S 	 47.7387 	 22.7848 	 44.2722
|  8> C 	 46.4598 	 22.9005 	 43.1144
|  9> C 	 45.3485 	 22.1506 	 43.4616
| 10> C 	 45.5429 	 21.4773 	 44.7378
| 11> C 	 46.8272 	 21.658 	 45.1831
| 12> H 	 44.8315 	 20.8166 	 45.2533
| 13> C 	 43.9738 	 22.0281 	 42.7557
| 14> H 	 43.456 	 22.961 	 43.0454
| 15> H 	 43.3878 	 21.2699 	 43.3573
| 16> C 	 43.8182 	 21.6356 	 41.2704
| 17> H 	 44.2908 	 20.6755 	 41.1536
| 18> H 	 42.7127 	 21.5142 	 41.0675
| 19> C 	 44.3287 	 22.7563 	 40.4156
| 20> H 	 45.4591 	 22.8543 	 40.4045
| 21> H 	 44.168 	 22.5341 	 39.3621
| 22> H 	 43.8086 	 23.6801 	 40.5339
| 23> S 	 47.5224 	 21.9311 	 47.8106
| 24> C 	 48.3331 	 20.6171 	 48.6912
| 25> C 	 48.3162 	 19.4912 	 47.9095
| 26> C 	 47.7946 	 19.7347 	 46.5746
| 27> C 	 47.428 	 20.9898 	 46.3461
| 28> H 	 48.5998 	 18.5454 	 48.3205
| 29> C 	 47.6061 	 18.6057 	 45.5747
| 30> H 	 46.924 	 18.9227 	 44.6887
| 31> H 	 46.8988 	 17.9005 	 46.1265
| 32> C 	 48.7826 	 17.8241 	 44.9793
| 33> H 	 49.589 	 18.4552 	 44.5539
| 34> H 	 48.3663 	 17.299 	 44.1127
| 35> C 	 49.5615 	 16.7944 	 45.9936
| 36> H 	 49.7005 	 17.3566 	 46.8765
| 37> H 	 50.5831 	 16.4869 	 45.5976
| 38> H 	 49.0005 	 15.9257 	 46.1453
| 39> H 	 46.4872 	 23.429 	 42.1836
| 40> H 	 48.5651 	 20.5619 	 49.7368
| 41> *
| 42>
| 43>                          ****END OF INPUT****

CARTESIAN COORDINATES (ANGSTROEM)
---------------------------------
  S     47.738700   22.784800   44.272200
  C     46.459800   22.900500   43.114400
  C     45.348500   22.150600   43.461600
  C     45.542900   21.477300   44.737800
  C     46.827200   21.658000   45.183100
  H     44.831500   20.816600   45.253300
  C     43.973800   22.028100   42.755700
  H     43.456000   22.961000   43.045400
  H     43.387800   21.269900   43.357300
  C     43.818200   21.635600   41.270400
  H     44.290800   20.675500   41.153600
  H     42.712700   21.514200   41.067500
  C     44.328700   22.756300   40.415600
  H     45.459100   22.854300   40.404500
  H     44.168000   22.534100   39.362100
  H     43.808600   23.680100   40.533900
  S     47.522400   21.931100   47.810600
  C     48.333100   20.617100   48.691200
  C     48.316200   19.491200   47.909500
  C     47.794600   19.734700   46.574600
  C     47.428000   20.989800   46.346100
  H     48.599800   18.545400   48.320500
  C     47.606100   18.605700   45.574700
  H     46.924000   18.922700   44.688700
  H     46.898800   17.900500   46.126500
  C     48.782600   17.824100   44.979300
  H     49.589000   18.455200   44.553900
  H     48.366300   17.299000   44.112700
  C     49.561500   16.794400   45.993600
  H     49.700500   17.356600   46.876500
  H     50.583100   16.486900   45.597600
  H     49.000500   15.925700   46.145300
  H     46.487200   23.429000   42.183600
  H     48.565100   20.561900   49.736800

 Total Charge           Charge          ....    0
 Multiplicity           Mult            ....    1
 Number of Electrons    NEL             ....  134
 Basis Dimension        Dim             ....  322

ORBITAL ENERGIES
----------------

  NO   OCC          E(Eh)            E(eV)
   0   2.0000     -88.967458     -2420.9276
   1   2.0000     -88.958294     -2420.6783
   2   2.0000     -10.324286      -280.9381
   3   2.0000     -10.318066      -280.7689
   4   2.0000     -10.316932      -280.7380
   5   2.0000     -10.309488      -280.5354
   6   2.0000     -10.304881      -280.4101
   7   2.0000     -10.300748      -280.2976
   8   2.0000     -10.298552      -280.2379
   9   2.0000     -10.298348      -280.2323
  10   2.0000     -10.296277      -280.1759
  11   2.0000     -10.294221      -280.1200
  12   2.0000     -10.293034      -280.0877
  13   2.0000     -10.292587      -280.0755
  14   2.0000     -10.280761      -279.7537
  15   2.0000     -10.278953      -279.7045
  16   2.0000      -8.083159      -219.9539
  17   2.0000      -8.073200      -219.6829
  18   2.0000      -6.041554      -164.3990
  19   2.0000      -6.037516      -164.2892
  20   2.0000      -6.034003      -164.1936
  21   2.0000      -6.031939      -164.1374
  22   2.0000      -6.027705      -164.0222
  23   2.0000      -6.023663      -163.9122
  24   2.0000      -1.010920       -27.5085
  25   2.0000      -0.986333       -26.8395
  26   2.0000      -0.911334       -24.7987
  27   2.0000      -0.894482       -24.3401
  28   2.0000      -0.870396       -23.6847
  29   2.0000      -0.852845       -23.2071
  30   2.0000      -0.836829       -22.7713
  31   2.0000      -0.814330       -22.1591
  32   2.0000      -0.783753       -21.3270
  33   2.0000      -0.774609       -21.0782
  34   2.0000      -0.705736       -19.2041
  35   2.0000      -0.701790       -19.0967
  36   2.0000      -0.689847       -18.7717
  37   2.0000      -0.664789       -18.0898
  38   2.0000      -0.642663       -17.4877
  39   2.0000      -0.609571       -16.5873
  40   2.0000      -0.588770       -16.0212
  41   2.0000      -0.576062       -15.6755
  42   2.0000      -0.550409       -14.9774
  43   2.0000      -0.542373       -14.7587
  44   2.0000      -0.536119       -14.5885
  45   2.0000      -0.532313       -14.4850
  46   2.0000      -0.519931       -14.1480
  47   2.0000      -0.511136       -13.9087
  48   2.0000      -0.503297       -13.6954
  49   2.0000      -0.496576       -13.5125
  50   2.0000      -0.489006       -13.3065
  51   2.0000      -0.482964       -13.1421
  52   2.0000      -0.475759       -12.9461
  53   2.0000      -0.465535       -12.6678
  54   2.0000      -0.461038       -12.5455
  55   2.0000      -0.450450       -12.2574
  56   2.0000      -0.442662       -12.0455
  57   2.0000      -0.440115       -11.9762
  58   2.0000      -0.434149       -11.8138
  59   2.0000      -0.417643       -11.3646
  60   2.0000      -0.414052       -11.2669
  61   2.0000      -0.410113       -11.1597
  62   2.0000      -0.401541       -10.9265
  63   2.0000      -0.336788        -9.1645
  64   2.0000      -0.329708        -8.9718
  65   2.0000      -0.323753        -8.8098
  66   2.0000      -0.310480        -8.4486
  67   0.0000       0.049015         1.3338
  68   0.0000       0.061654         1.6777
  69   0.0000       0.114270         3.1094
  70   0.0000       0.118470         3.2237
  71   0.0000       0.131091         3.5672

MULLIKEN ATOMIC CHARGES
-----------------------
   0 S :    0.142101
   1 C :   -0.111851
   2 C :   -0.098391
   3 C :    0.038129
   4 C :   -0.174565
   5 H :    0.027449
   6 C :    0.007818
   7 H :    0.044505
   8 H :    0.021531
   9 C :   -0.029720
  10 H :    0.034861
  11 H :    0.039161
  12 C :   -0.061082
  13 H :    0.043048
  14 H :    0.019932
  15 H :    0.032318
  16 S :    0.089595
  17 C :   -0.075209
  18 C :   -0.041941
  19 C :    0.017393
  20 C :   -0.179580
  21 H :    0.019469
  22 C :   -0.021140
  23 H :    0.047267
  24 H :    0.039747
  25 C :   -0.067188
  26 H :    0.039984
  27 H :    0.031262
  28 C :   -0.055892
  29 H :    0.023540
  30 H :    0.042127
  31 H :    0.028045
  32 H :    0.033442
  33 H :    0.053837
Sum of atomic charges:    0.0000000

LOEWDIN ATOMIC CHARGES
----------------------
   0 S :    0.438338
   1 C :   -0.209777
   2 C :   -0.060427
   3 C :   -0.059826
   4 C :   -0.208508
   5 H :    0.037445
   6 C :   -0.042219
   7 H :    0.035471
   8 H :    0.031141
   9 C :   -0.038386
  10 H :    0.026309
  11 H :    0.035568
  12 C :   -0.073866
  13 H :    0.032596
  14 H :    0.025379
  15 H :    0.024841
  16 S :    0.386237
  17 C :   -0.171113
  18 C :   -0.068795
  19 C :   -0.064052
  20 C :   -0.201193
  21 H :    0.026260
  22 C :   -0.048773
  23 H :    0.042884
  24 H :    0.038898
  25 C :   -0.040970
  26 H :    0.028703
  27 H :    0.024826
  28 C :   -0.062291
  29 H :    0.015108
  30 H :    0.034624
  31 H :    0.014344
  32 H :    0.020974
  33 H :    0.030250

  Mayer bond orders larger than 0.100000
B(  0-S ,  1-C ) :   1.1338 B(  0-S ,  4-C ) :   1.1760 B(  1-C ,  2-C ) :   1.6355
B(  1-C , 32-H ) :   0.9647 B(  2-C ,  3-C ) :   1.2290 B(  2-C ,  6-C ) :   0.9977
B(  3-C ,  4-C ) :   1.5955 B(  3-C ,  5-H ) :   0.9898 B(  4-C , 20-C ) :   0.9743
B(  6-C ,  7-H ) :   0.9401 B(  6-C ,  8-H ) :   0.9451 B(  6-C ,  9-C ) :   1.0662
B(  9-C , 10-H ) :   0.9555 B(  9-C , 11-H ) :   0.9495 B(  9-C , 12-C ) :   1.0900
B( 12-C , 13-H ) :   0.9660 B( 12-C , 14-H ) :   0.9661 B( 12-C , 15-H ) :   0.9731
B( 16-S , 17-C ) :   1.1325 B( 16-S , 20-C ) :   1.1294 B( 17-C , 18-C ) :   1.6512
B( 17-C , 33-H ) :   0.9668 B( 18-C , 19-C ) :   1.1917 B( 18-C , 21-H ) :   0.9855
B( 19-C , 20-C ) :   1.6881 B( 19-C , 22-C ) :   1.0291 B( 22-C , 23-H ) :   0.9371
B( 22-C , 24-H ) :   0.9375 B( 22-C , 25-C ) :   1.0651 B( 25-C , 26-H ) :   0.9606
B( 25-C , 27-H ) :   0.9592 B( 25-C , 28-C ) :   1.0550 B( 28-C , 29-H ) :   0.9782
B( 28-C , 30-H ) :   0.9771 B( 28-C , 31-H ) :   0.9809

Dispersion correction           -0.014248292
FINAL SINGLE POINT ENERGY     -1339.867496608754

DIPOLE MOMENT
-------------
                                X             Y             Z
Electronic contribution:      7.14593      15.74518      16.99714
Nuclear contribution   :     -7.60563     -16.25579     -17.34786
                        -----------------------------------------
Total Dipole Moment    :     -0.45970      -0.51061      -0.35072
                        -----------------------------------------
Magnitude (a.u.)       :      0.77139
Magnitude (Debye)      :      1.96072

Rotational constants in cm-1:     0.021539     0.007556     0.006350
Rotational constants in MHz :   645.714619   226.519397   190.356976

                             ****ORCA TERMINATED NORMALLY****
TOTAL RUN TIME: 0 days 0 hours 0 minutes 32 seconds 986 msec
