                         Program Version 4.2.1 -  RELEASE  -
|  1> ! wB97X-D3 SP def2-SVP
|  2> %pal
|  3> nprocs 16
|  4> end
|  5>
|  6> * xyz 0 1
|  7> S 	 -39.1323 	 38.0067 	 85.4506
|  8> C 	 -37.5664 	 38.3325 	 84.6959
|  9> C 	 -37.3286 	 37.4422 	 83.6467
| 10> C 	 -38.4319 	 36.5067 	 83.4252
| 11> C 	 -39.4792 	 36.6588 	 84.2665
| 12> H 	 -38.5702 	 35.7824 	 82.6437
| 13> C 	 -36.1785 	 37.4104 	 82.7071
| 14> H 	 -36.4619 	 36.8958 	 81.7623
| 15> H 	 -35.4804 	 36.7858 	 83.1926
| 16> C 	 -35.5728 	 38.8132 	 82.4201
| 17> H 	 -36.2539 	 39.6467 	 82.3164
| 18> H 	 -35.0407 	 39.257 	 83.2747
| 19> C 	 -34.4285 	 38.7623 	 81.3661
| 20> H 	 -33.7629 	 38.0431 	 81.7392
| 21> H 	 -34.913 	 38.4867 	 80.476
| 22> H 	 -33.8505 	 39.6923 	 81.2645
| 23> S 	 -42.0333 	 36.926 	 83.6666
| 24> C 	 -43.1876 	 35.6537 	 83.8571
| 25> C 	 -42.6151 	 34.4774 	 84.3204
| 26> C 	 -41.226 	 34.6785 	 84.6449
| 27> C 	 -40.7442 	 35.9509 	 84.2256
| 28> H 	 -43.1774 	 33.5714 	 84.4607
| 29> C 	 -40.3667 	 33.5739 	 85.1004
| 30> H 	 -41.0194 	 32.8532 	 85.6457
| 31> H 	 -39.7233 	 33.9987 	 85.7946
| 32> C 	 -39.5016 	 32.9079 	 83.9564
| 33> H 	 -38.66 	 33.5335 	 83.7198
| 34> H 	 -40.0646 	 32.9073 	 83.0568
| 35> C 	 -39.0466 	 31.5562 	 84.3963
| 36> H 	 -38.209 	 31.6004 	 85.1883
| 37> H 	 -38.59 	 30.995 	 83.5404
| 38> H 	 -39.788 	 30.9627 	 84.9498
| 39> H 	 -36.8168 	 39.0238 	 85.0721
| 40> H 	 -44.2302 	 35.8049 	 83.6018
| 41> *
| 42>
| 43>                          ****END OF INPUT****

CARTESIAN COORDINATES (ANGSTROEM)
---------------------------------
  S    -39.132300   38.006700   85.450600
  C    -37.566400   38.332500   84.695900
  C    -37.328600   37.442200   83.646700
  C    -38.431900   36.506700   83.425200
  C    -39.479200   36.658800   84.266500
  H    -38.570200   35.782400   82.643700
  C    -36.178500   37.410400   82.707100
  H    -36.461900   36.895800   81.762300
  H    -35.480400   36.785800   83.192600
  C    -35.572800   38.813200   82.420100
  H    -36.253900   39.646700   82.316400
  H    -35.040700   39.257000   83.274700
  C    -34.428500   38.762300   81.366100
  H    -33.762900   38.043100   81.739200
  H    -34.913000   38.486700   80.476000
  H    -33.850500   39.692300   81.264500
  S    -42.033300   36.926000   83.666600
  C    -43.187600   35.653700   83.857100
  C    -42.615100   34.477400   84.320400
  C    -41.226000   34.678500   84.644900
  C    -40.744200   35.950900   84.225600
  H    -43.177400   33.571400   84.460700
  C    -40.366700   33.573900   85.100400
  H    -41.019400   32.853200   85.645700
  H    -39.723300   33.998700   85.794600
  C    -39.501600   32.907900   83.956400
  H    -38.660000   33.533500   83.719800
  H    -40.064600   32.907300   83.056800
  C    -39.046600   31.556200   84.396300
  H    -38.209000   31.600400   85.188300
  H    -38.590000   30.995000   83.540400
  H    -39.788000   30.962700   84.949800
  H    -36.816800   39.023800   85.072100
  H    -44.230200   35.804900   83.601800

 Total Charge           Charge          ....    0
 Multiplicity           Mult            ....    1
 Number of Electrons    NEL             ....  134
 Basis Dimension        Dim             ....  322

ORBITAL ENERGIES
----------------

  NO   OCC          E(Eh)            E(eV)
   0   2.0000     -88.963318     -2420.8150
   1   2.0000     -88.962635     -2420.7964
   2   2.0000     -10.330419      -281.1050
   3   2.0000     -10.321597      -280.8649
   4   2.0000     -10.318379      -280.7774
   5   2.0000     -10.316065      -280.7144
   6   2.0000     -10.304641      -280.4035
   7   2.0000     -10.304236      -280.3925
   8   2.0000     -10.294801      -280.1358
   9   2.0000     -10.294518      -280.1281
  10   2.0000     -10.293765      -280.1076
  11   2.0000     -10.287227      -279.9297
  12   2.0000     -10.284989      -279.8688
  13   2.0000     -10.283903      -279.8392
  14   2.0000     -10.282495      -279.8009
  15   2.0000     -10.272851      -279.5385
  16   2.0000      -8.079253      -219.8476
  17   2.0000      -8.076013      -219.7595
  18   2.0000      -6.037585      -164.2911
  19   2.0000      -6.034759      -164.2141
  20   2.0000      -6.033360      -164.1761
  21   2.0000      -6.030759      -164.1053
  22   2.0000      -6.030356      -164.0943
  23   2.0000      -6.026541      -163.9905
  24   2.0000      -1.005218       -27.3534
  25   2.0000      -0.978107       -26.6156
  26   2.0000      -0.912178       -24.8216
  27   2.0000      -0.910360       -24.7721
  28   2.0000      -0.870526       -23.6882
  29   2.0000      -0.853121       -23.2146
  30   2.0000      -0.848249       -23.0820
  31   2.0000      -0.818146       -22.2629
  32   2.0000      -0.777355       -21.1529
  33   2.0000      -0.762511       -20.7490
  34   2.0000      -0.714978       -19.4555
  35   2.0000      -0.706407       -19.2223
  36   2.0000      -0.690899       -18.8003
  37   2.0000      -0.664592       -18.0845
  38   2.0000      -0.644809       -17.5461
  39   2.0000      -0.612496       -16.6669
  40   2.0000      -0.595269       -16.1981
  41   2.0000      -0.571102       -15.5405
  42   2.0000      -0.565518       -15.3885
  43   2.0000      -0.558259       -15.1910
  44   2.0000      -0.528576       -14.3833
  45   2.0000      -0.526187       -14.3183
  46   2.0000      -0.518539       -14.1102
  47   2.0000      -0.513211       -13.9652
  48   2.0000      -0.511054       -13.9065
  49   2.0000      -0.504960       -13.7407
  50   2.0000      -0.497385       -13.5345
  51   2.0000      -0.483397       -13.1539
  52   2.0000      -0.466743       -12.7007
  53   2.0000      -0.465711       -12.6726
  54   2.0000      -0.453561       -12.3420
  55   2.0000      -0.449075       -12.2199
  56   2.0000      -0.443656       -12.0725
  57   2.0000      -0.437417       -11.9027
  58   2.0000      -0.433852       -11.8057
  59   2.0000      -0.423951       -11.5363
  60   2.0000      -0.419496       -11.4151
  61   2.0000      -0.414243       -11.2721
  62   2.0000      -0.410555       -11.1718
  63   2.0000      -0.341411        -9.2903
  64   2.0000      -0.327498        -8.9117
  65   2.0000      -0.318882        -8.6772
  66   2.0000      -0.300881        -8.1874
  67   0.0000       0.039837         1.0840
  68   0.0000       0.055640         1.5140
  69   0.0000       0.116723         3.1762
  70   0.0000       0.124330         3.3832
  71   0.0000       0.126484         3.4418

MULLIKEN ATOMIC CHARGES
-----------------------
   0 S :    0.100853
   1 C :   -0.124337
   2 C :   -0.093534
   3 C :    0.048993
   4 C :   -0.152403
   5 H :    0.014247
   6 C :    0.100439
   7 H :    0.034942
   8 H :    0.032650
   9 C :   -0.122242
  10 H :    0.028599
  11 H :    0.013567
  12 C :   -0.009202
  13 H :    0.018811
  14 H :    0.026901
  15 H :    0.036844
  16 S :    0.122714
  17 C :   -0.093887
  18 C :   -0.029569
  19 C :   -0.045584
  20 C :   -0.208794
  21 H :    0.019160
  22 C :    0.078447
  23 H :    0.021703
  24 H :    0.016336
  25 C :   -0.023130
  26 H :    0.023439
  27 H :    0.022299
  28 C :   -0.079649
  29 H :    0.031606
  30 H :    0.043500
  31 H :    0.032667
  32 H :    0.054608
  33 H :    0.059005
Sum of atomic charges:    0.0000000

LOEWDIN ATOMIC CHARGES
----------------------
   0 S :    0.358207
   1 C :   -0.193878
   2 C :   -0.058795
   3 C :   -0.056857
   4 C :   -0.178217
   5 H :    0.031104
   6 C :   -0.029955
   7 H :    0.035912
   8 H :    0.033737
   9 C :   -0.047864
  10 H :    0.021537
  11 H :    0.022353
  12 C :   -0.053040
  13 H :    0.019077
  14 H :    0.016780
  15 H :    0.029961
  16 S :    0.446203
  17 C :   -0.189357
  18 C :   -0.072912
  19 C :   -0.048187
  20 C :   -0.226433
  21 H :    0.031829
  22 C :   -0.028735
  23 H :    0.032592
  24 H :    0.025205
  25 C :   -0.033285
  26 H :    0.024683
  27 H :    0.018866
  28 C :   -0.076399
  29 H :    0.032462
  30 H :    0.031038
  31 H :    0.023558
  32 H :    0.031836
  33 H :    0.026976

  Mayer bond orders larger than 0.100000
B(  0-S ,  1-C ) :   1.1162 B(  0-S ,  4-C ) :   1.1066 B(  1-C ,  2-C ) :   1.6457
B(  1-C , 32-H ) :   0.9661 B(  2-C ,  3-C ) :   1.1887 B(  2-C ,  6-C ) :   1.0210
B(  3-C ,  4-C ) :   1.6563 B(  3-C ,  5-H ) :   0.9819 B(  4-C , 20-C ) :   1.0340
B(  6-C ,  7-H ) :   0.9526 B(  6-C ,  8-H ) :   0.9153 B(  6-C ,  9-C ) :   1.0572
B(  9-C , 10-H ) :   0.9658 B(  9-C , 11-H ) :   0.9466 B(  9-C , 12-C ) :   1.0737
B( 12-C , 13-H ) :   0.9746 B( 12-C , 14-H ) :   0.9817 B( 12-C , 15-H ) :   0.9755
B( 16-S , 17-C ) :   1.1868 B( 16-S , 20-C ) :   1.1750 B( 17-C , 18-C ) :   1.5651
B( 17-C , 20-C ) :   0.1041 B( 17-C , 33-H ) :   0.9688 B( 18-C , 19-C ) :   1.2621
B( 18-C , 21-H ) :   0.9943 B( 19-C , 20-C ) :   1.5357 B( 19-C , 22-C ) :   1.0767
B( 22-C , 23-H ) :   0.9394 B( 22-C , 24-H ) :   0.9128 B( 22-C , 25-C ) :   1.0506
B( 25-C , 26-H ) :   0.9411 B( 25-C , 27-H ) :   0.9627 B( 25-C , 28-C ) :   1.0863
B( 28-C , 29-H ) :   0.9712 B( 28-C , 30-H ) :   0.9711 B( 28-C , 31-H ) :   0.9774

Dispersion correction           -0.014031546
FINAL SINGLE POINT ENERGY     -1339.867167365050

DIPOLE MOMENT
-------------
                                X             Y             Z
Electronic contribution:    -21.41744      12.07702       8.74393
Nuclear contribution   :     21.78374     -12.47628      -9.00701
                        -----------------------------------------
Total Dipole Moment    :      0.36630      -0.39926      -0.26309
                        -----------------------------------------
Magnitude (a.u.)       :      0.60232
Magnitude (Debye)      :      1.53099

Rotational constants in cm-1:     0.019383     0.007726     0.006347
Rotational constants in MHz :   581.075988   231.633214   190.291187

                             ****ORCA TERMINATED NORMALLY****
TOTAL RUN TIME: 0 days 0 hours 0 minutes 29 seconds 740 msec
