                         Program Version 4.2.1 -  RELEASE  -
|  1> ! wB97X-D3 SP def2-SVP
|  2> %pal
|  3> nprocs 16
|  4> end
|  5>
|  6> * xyz 0 1
|  7> S 	 58.5824 	 6.79898 	 75.9195
|  8> C 	 58.4674 	 8.26086 	 76.7632
|  9> C 	 57.3322 	 9.03938 	 76.395
| 10> C 	 56.6479 	 8.43712 	 75.2983
| 11> C 	 57.1856 	 7.20319 	 74.9473
| 12> H 	 55.813 	 8.89895 	 74.7685
| 13> C 	 57 	 10.4119 	 76.9938
| 14> H 	 56.1725 	 10.342 	 77.6584
| 15> H 	 56.7023 	 11.106 	 76.176
| 16> C 	 58.1997 	 11.0944 	 77.702
| 17> H 	 58.4125 	 10.5466 	 78.6246
| 18> H 	 59.0447 	 11.0187 	 77.0093
| 19> C 	 57.9636 	 12.6054 	 77.9835
| 20> H 	 57.6435 	 13.0871 	 77.1083
| 21> H 	 57.1527 	 12.7277 	 78.7428
| 22> H 	 58.8583 	 13.1698 	 78.3523
| 23> S 	 54.9676 	 6.05301 	 73.719
| 24> C 	 55.1374 	 5.0178 	 72.2964
| 25> C 	 56.4665 	 4.88022 	 71.95
| 26> C 	 57.3473 	 5.51646 	 72.8805
| 27> C 	 56.6843 	 6.24801 	 73.88
| 28> H 	 56.8189 	 4.25249 	 71.1478
| 29> C 	 58.854 	 5.42035 	 72.5873
| 30> H 	 59.0312 	 4.43945 	 72.2363
| 31> H 	 59.5458 	 5.57629 	 73.4658
| 32> C 	 59.2881 	 6.50223 	 71.5623
| 33> H 	 60.3686 	 6.67638 	 71.7028
| 34> H 	 58.7546 	 7.46908 	 71.8107
| 35> C 	 58.9438 	 6.13161 	 70.1431
| 36> H 	 59.5317 	 6.85974 	 69.5303
| 37> H 	 57.9654 	 6.30611 	 69.796
| 38> H 	 59.3245 	 5.12047 	 69.8925
| 39> H 	 59.1765 	 8.45592 	 77.5839
| 40> H 	 54.3844 	 4.58192 	 71.6608
| 41> *
| 42>
| 43>                          ****END OF INPUT****

CARTESIAN COORDINATES (ANGSTROEM)
---------------------------------
  S     58.582400    6.798980   75.919500
  C     58.467400    8.260860   76.763200
  C     57.332200    9.039380   76.395000
  C     56.647900    8.437120   75.298300
  C     57.185600    7.203190   74.947300
  H     55.813000    8.898950   74.768500
  C     57.000000   10.411900   76.993800
  H     56.172500   10.342000   77.658400
  H     56.702300   11.106000   76.176000
  C     58.199700   11.094400   77.702000
  H     58.412500   10.546600   78.624600
  H     59.044700   11.018700   77.009300
  C     57.963600   12.605400   77.983500
  H     57.643500   13.087100   77.108300
  H     57.152700   12.727700   78.742800
  H     58.858300   13.169800   78.352300
  S     54.967600    6.053010   73.719000
  C     55.137400    5.017800   72.296400
  C     56.466500    4.880220   71.950000
  C     57.347300    5.516460   72.880500
  C     56.684300    6.248010   73.880000
  H     56.818900    4.252490   71.147800
  C     58.854000    5.420350   72.587300
  H     59.031200    4.439450   72.236300
  H     59.545800    5.576290   73.465800
  C     59.288100    6.502230   71.562300
  H     60.368600    6.676380   71.702800
  H     58.754600    7.469080   71.810700
  C     58.943800    6.131610   70.143100
  H     59.531700    6.859740   69.530300
  H     57.965400    6.306110   69.796000
  H     59.324500    5.120470   69.892500
  H     59.176500    8.455920   77.583900
  H     54.384400    4.581920   71.660800

 Total Charge           Charge          ....    0
 Multiplicity           Mult            ....    1
 Number of Electrons    NEL             ....  134
 Basis Dimension        Dim             ....  322

ORBITAL ENERGIES
----------------

  NO   OCC          E(Eh)            E(eV)
   0   2.0000     -88.969616     -2420.9863
   1   2.0000     -88.967699     -2420.9342
   2   2.0000     -10.334574      -281.2181
   3   2.0000     -10.330946      -281.1193
   4   2.0000     -10.317065      -280.7416
   5   2.0000     -10.314781      -280.6794
   6   2.0000     -10.306740      -280.4607
   7   2.0000     -10.302502      -280.3453
   8   2.0000     -10.297761      -280.2163
   9   2.0000     -10.294842      -280.1369
  10   2.0000     -10.291760      -280.0530
  11   2.0000     -10.290053      -280.0066
  12   2.0000     -10.288589      -279.9668
  13   2.0000     -10.286826      -279.9188
  14   2.0000     -10.282271      -279.7948
  15   2.0000     -10.274048      -279.5711
  16   2.0000      -8.084908      -220.0015
  17   2.0000      -8.081891      -219.9194
  18   2.0000      -6.043135      -164.4421
  19   2.0000      -6.040470      -164.3695
  20   2.0000      -6.039301      -164.3377
  21   2.0000      -6.036390      -164.2585
  22   2.0000      -6.035989      -164.2476
  23   2.0000      -6.032698      -164.1581
  24   2.0000      -1.004077       -27.3223
  25   2.0000      -0.984452       -26.7883
  26   2.0000      -0.907483       -24.6939
  27   2.0000      -0.906028       -24.6543
  28   2.0000      -0.862980       -23.4829
  29   2.0000      -0.852989       -23.2110
  30   2.0000      -0.842479       -22.9250
  31   2.0000      -0.812461       -22.1082
  32   2.0000      -0.780561       -21.2401
  33   2.0000      -0.766531       -20.8584
  34   2.0000      -0.706691       -19.2301
  35   2.0000      -0.696367       -18.9491
  36   2.0000      -0.679065       -18.4783
  37   2.0000      -0.662668       -18.0321
  38   2.0000      -0.642389       -17.4803
  39   2.0000      -0.611881       -16.6501
  40   2.0000      -0.593717       -16.1559
  41   2.0000      -0.573016       -15.5926
  42   2.0000      -0.567820       -15.4512
  43   2.0000      -0.547086       -14.8870
  44   2.0000      -0.537286       -14.6203
  45   2.0000      -0.518406       -14.1065
  46   2.0000      -0.514580       -14.0024
  47   2.0000      -0.510980       -13.9045
  48   2.0000      -0.501753       -13.6534
  49   2.0000      -0.493922       -13.4403
  50   2.0000      -0.486149       -13.2288
  51   2.0000      -0.478631       -13.0242
  52   2.0000      -0.477491       -12.9932
  53   2.0000      -0.466719       -12.7001
  54   2.0000      -0.460980       -12.5439
  55   2.0000      -0.451297       -12.2804
  56   2.0000      -0.437044       -11.8926
  57   2.0000      -0.434268       -11.8170
  58   2.0000      -0.429816       -11.6959
  59   2.0000      -0.428811       -11.6685
  60   2.0000      -0.423099       -11.5131
  61   2.0000      -0.418649       -11.3920
  62   2.0000      -0.406672       -11.0661
  63   2.0000      -0.349625        -9.5138
  64   2.0000      -0.334557        -9.1038
  65   2.0000      -0.328190        -8.9305
  66   2.0000      -0.286527        -7.7968
  67   0.0000       0.029976         0.8157
  68   0.0000       0.077808         2.1173
  69   0.0000       0.114852         3.1253
  70   0.0000       0.120566         3.2808
  71   0.0000       0.130750         3.5579

MULLIKEN ATOMIC CHARGES
-----------------------
   0 S :    0.135639
   1 C :   -0.149836
   2 C :   -0.091710
   3 C :    0.007629
   4 C :   -0.139323
   5 H :    0.021837
   6 C :    0.064419
   7 H :    0.034644
   8 H :    0.028835
   9 C :   -0.111856
  10 H :    0.038839
  11 H :    0.038083
  12 C :   -0.041740
  13 H :    0.018802
  14 H :    0.032147
  15 H :    0.045006
  16 S :    0.108756
  17 C :   -0.079996
  18 C :   -0.037282
  19 C :   -0.061187
  20 C :   -0.139867
  21 H :    0.021403
  22 C :    0.060603
  23 H :    0.012616
  24 H :    0.027681
  25 C :   -0.087286
  26 H :    0.035511
  27 H :    0.043639
  28 C :   -0.042692
  29 H :    0.027429
  30 H :    0.035170
  31 H :    0.027952
  32 H :    0.063991
  33 H :    0.052147
Sum of atomic charges:    0.0000000

LOEWDIN ATOMIC CHARGES
----------------------
   0 S :    0.447633
   1 C :   -0.225549
   2 C :   -0.061887
   3 C :   -0.068557
   4 C :   -0.193624
   5 H :    0.034990
   6 C :   -0.029578
   7 H :    0.027321
   8 H :    0.033590
   9 C :   -0.041510
  10 H :    0.022193
  11 H :    0.025273
  12 C :   -0.065901
  13 H :    0.015091
  14 H :    0.027805
  15 H :    0.033047
  16 S :    0.413208
  17 C :   -0.185523
  18 C :   -0.069540
  19 C :   -0.060117
  20 C :   -0.207008
  21 H :    0.031305
  22 C :   -0.035500
  23 H :    0.019568
  24 H :    0.026686
  25 C :   -0.041298
  26 H :    0.025318
  27 H :    0.035631
  28 C :   -0.071134
  29 H :    0.033056
  30 H :    0.019160
  31 H :    0.024380
  32 H :    0.030119
  33 H :    0.031352

  Mayer bond orders larger than 0.100000
B(  0-S ,  1-C ) :   1.1713 B(  0-S ,  4-C ) :   1.1786 B(  1-C ,  2-C ) :   1.5669
B(  1-C , 32-H ) :   0.9607 B(  2-C ,  3-C ) :   1.2856 B(  2-C ,  6-C ) :   1.0139
B(  3-C ,  4-C ) :   1.5481 B(  3-C ,  5-H ) :   0.9917 B(  4-C , 20-C ) :   1.0086
B(  6-C ,  7-H ) :   0.9286 B(  6-C ,  8-H ) :   0.9490 B(  6-C ,  9-C ) :   1.0799
B(  9-C , 10-H ) :   0.9491 B(  9-C , 11-H ) :   0.9589 B(  9-C , 12-C ) :   1.0801
B( 12-C , 13-H ) :   0.9750 B( 12-C , 14-H ) :   0.9757 B( 12-C , 15-H ) :   0.9751
B( 16-S , 17-C ) :   1.1518 B( 16-S , 20-C ) :   1.1474 B( 17-C , 18-C ) :   1.6006
B( 17-C , 33-H ) :   0.9659 B( 18-C , 19-C ) :   1.2749 B( 18-C , 21-H ) :   0.9795
B( 19-C , 20-C ) :   1.5775 B( 19-C , 22-C ) :   1.0393 B( 22-C , 23-H ) :   0.9390
B( 22-C , 24-H ) :   0.9416 B( 22-C , 25-C ) :   1.0582 B( 25-C , 26-H ) :   0.9607
B( 25-C , 27-H ) :   0.9509 B( 25-C , 28-C ) :   1.0899 B( 28-C , 29-H ) :   0.9688
B( 28-C , 30-H ) :   0.9696 B( 28-C , 31-H ) :   0.9733

Dispersion correction           -0.014094626
FINAL SINGLE POINT ENERGY     -1339.891225089413

DIPOLE MOMENT
-------------
                                X             Y             Z
Electronic contribution:    -10.97799     -16.55025       3.15237
Nuclear contribution   :     11.19232      16.87135      -3.33795
                        -----------------------------------------
Total Dipole Moment    :      0.21434       0.32110      -0.18558
                        -----------------------------------------
Magnitude (a.u.)       :      0.42835
Magnitude (Debye)      :      1.08879

Rotational constants in cm-1:     0.023873     0.006835     0.006123
Rotational constants in MHz :   715.682015   204.908937   183.574497

                             ****ORCA TERMINATED NORMALLY****
TOTAL RUN TIME: 0 days 0 hours 0 minutes 29 seconds 139 msec
