                         Program Version 4.2.1 -  RELEASE  -
|  1> ! wB97X-D3 SP def2-SVP
|  2> %pal
|  3> nprocs 16
|  4> end
|  5>
|  6> * xyz 0 1
|  7> S 	 -54.3423 	 59.9461 	 133.678
|  8> C 	 -53.432 	 60.5468 	 132.344
|  9> C 	 -52.4568 	 61.4472 	 132.716
| 10> C 	 -52.7389 	 62.0174 	 134.032
| 11> C 	 -53.7025 	 61.279 	 134.678
| 12> H 	 -52.1563 	 62.8071 	 134.534
| 13> C 	 -51.6302 	 62.1948 	 131.674
| 14> H 	 -51.1964 	 63.0688 	 132.19
| 15> H 	 -52.35 	 62.6437 	 130.972
| 16> C 	 -50.56 	 61.3134 	 130.96
| 17> H 	 -49.9894 	 60.7541 	 131.732
| 18> H 	 -51.062 	 60.5523 	 130.362
| 19> C 	 -49.5454 	 62.1434 	 130.191
| 20> H 	 -48.7521 	 61.4296 	 129.748
| 21> H 	 -50.1003 	 62.6319 	 129.33
| 22> H 	 -49.0689 	 62.9277 	 130.751
| 23> S 	 -55.8638 	 62.2504 	 136.073
| 24> C 	 -55.7935 	 62.2771 	 137.909
| 25> C 	 -54.5703 	 61.7772 	 138.289
| 26> C 	 -53.7471 	 61.4459 	 137.228
| 27> C 	 -54.3093 	 61.6132 	 135.967
| 28> H 	 -54.4083 	 61.4455 	 139.287
| 29> C 	 -52.4308 	 60.8365 	 137.474
| 30> H 	 -51.9256 	 61.1945 	 138.35
| 31> H 	 -51.7797 	 60.8399 	 136.648
| 32> C 	 -52.5182 	 59.3207 	 137.732
| 33> H 	 -53.1322 	 59.0788 	 138.568
| 34> H 	 -51.5135 	 58.8703 	 137.861
| 35> C 	 -52.999 	 58.469 	 136.538
| 36> H 	 -52.3192 	 58.6405 	 135.734
| 37> H 	 -53.9875 	 58.8293 	 136.216
| 38> H 	 -52.9683 	 57.372 	 136.753
| 39> H 	 -53.3826 	 60.0894 	 131.382
| 40> H 	 -56.6052 	 62.328 	 138.65
| 41> *
| 42>
| 43>                          ****END OF INPUT****

CARTESIAN COORDINATES (ANGSTROEM)
---------------------------------
  S    -54.342300   59.946100  133.678000
  C    -53.432000   60.546800  132.344000
  C    -52.456800   61.447200  132.716000
  C    -52.738900   62.017400  134.032000
  C    -53.702500   61.279000  134.678000
  H    -52.156300   62.807100  134.534000
  C    -51.630200   62.194800  131.674000
  H    -51.196400   63.068800  132.190000
  H    -52.350000   62.643700  130.972000
  C    -50.560000   61.313400  130.960000
  H    -49.989400   60.754100  131.732000
  H    -51.062000   60.552300  130.362000
  C    -49.545400   62.143400  130.191000
  H    -48.752100   61.429600  129.748000
  H    -50.100300   62.631900  129.330000
  H    -49.068900   62.927700  130.751000
  S    -55.863800   62.250400  136.073000
  C    -55.793500   62.277100  137.909000
  C    -54.570300   61.777200  138.289000
  C    -53.747100   61.445900  137.228000
  C    -54.309300   61.613200  135.967000
  H    -54.408300   61.445500  139.287000
  C    -52.430800   60.836500  137.474000
  H    -51.925600   61.194500  138.350000
  H    -51.779700   60.839900  136.648000
  C    -52.518200   59.320700  137.732000
  H    -53.132200   59.078800  138.568000
  H    -51.513500   58.870300  137.861000
  C    -52.999000   58.469000  136.538000
  H    -52.319200   58.640500  135.734000
  H    -53.987500   58.829300  136.216000
  H    -52.968300   57.372000  136.753000
  H    -53.382600   60.089400  131.382000
  H    -56.605200   62.328000  138.650000

 Total Charge           Charge          ....    0
 Multiplicity           Mult            ....    1
 Number of Electrons    NEL             ....  134
 Basis Dimension        Dim             ....  322

ORBITAL ENERGIES
----------------

  NO   OCC          E(Eh)            E(eV)
   0   2.0000     -88.969106     -2420.9724
   1   2.0000     -88.967792     -2420.9367
   2   2.0000     -10.330468      -281.1063
   3   2.0000     -10.321824      -280.8711
   4   2.0000     -10.320868      -280.8451
   5   2.0000     -10.310015      -280.5498
   6   2.0000     -10.302193      -280.3369
   7   2.0000     -10.300432      -280.2890
   8   2.0000     -10.294916      -280.1389
   9   2.0000     -10.292291      -280.0675
  10   2.0000     -10.291345      -280.0417
  11   2.0000     -10.288105      -279.9536
  12   2.0000     -10.287453      -279.9358
  13   2.0000     -10.278149      -279.6826
  14   2.0000     -10.277852      -279.6746
  15   2.0000     -10.268340      -279.4157
  16   2.0000      -8.083359      -219.9594
  17   2.0000      -8.082129      -219.9259
  18   2.0000      -6.041890      -164.4082
  19   2.0000      -6.040696      -164.3757
  20   2.0000      -6.038039      -164.3034
  21   2.0000      -6.036605      -164.2644
  22   2.0000      -6.034011      -164.1938
  23   2.0000      -6.032895      -164.1634
  24   2.0000      -1.009890       -27.4805
  25   2.0000      -0.986253       -26.8373
  26   2.0000      -0.911135       -24.7932
  27   2.0000      -0.907582       -24.6966
  28   2.0000      -0.873700       -23.7746
  29   2.0000      -0.851372       -23.1670
  30   2.0000      -0.844341       -22.9757
  31   2.0000      -0.817815       -22.2539
  32   2.0000      -0.779037       -21.1987
  33   2.0000      -0.764153       -20.7937
  34   2.0000      -0.706036       -19.2122
  35   2.0000      -0.697744       -18.9866
  36   2.0000      -0.687083       -18.6965
  37   2.0000      -0.662387       -18.0245
  38   2.0000      -0.643145       -17.5009
  39   2.0000      -0.614258       -16.7148
  40   2.0000      -0.600707       -16.3461
  41   2.0000      -0.568897       -15.4805
  42   2.0000      -0.561267       -15.2729
  43   2.0000      -0.551391       -15.0041
  44   2.0000      -0.543861       -14.7992
  45   2.0000      -0.523075       -14.2336
  46   2.0000      -0.516738       -14.0611
  47   2.0000      -0.506803       -13.7908
  48   2.0000      -0.505103       -13.7445
  49   2.0000      -0.496701       -13.5159
  50   2.0000      -0.493579       -13.4310
  51   2.0000      -0.477036       -12.9808
  52   2.0000      -0.472521       -12.8580
  53   2.0000      -0.465596       -12.6695
  54   2.0000      -0.461231       -12.5507
  55   2.0000      -0.451895       -12.2967
  56   2.0000      -0.435268       -11.8442
  57   2.0000      -0.434845       -11.8327
  58   2.0000      -0.430689       -11.7196
  59   2.0000      -0.423262       -11.5175
  60   2.0000      -0.419230       -11.4078
  61   2.0000      -0.414465       -11.2782
  62   2.0000      -0.405435       -11.0324
  63   2.0000      -0.346871        -9.4388
  64   2.0000      -0.332855        -9.0575
  65   2.0000      -0.319334        -8.6895
  66   2.0000      -0.300364        -8.1733
  67   0.0000       0.030479         0.8294
  68   0.0000       0.060030         1.6335
  69   0.0000       0.102517         2.7896
  70   0.0000       0.115081         3.1315
  71   0.0000       0.122310         3.3282

MULLIKEN ATOMIC CHARGES
-----------------------
   0 S :    0.123072
   1 C :   -0.100109
   2 C :   -0.087297
   3 C :    0.047831
   4 C :   -0.189570
   5 H :    0.037399
   6 C :    0.012808
   7 H :    0.017320
   8 H :    0.046653
   9 C :   -0.077711
  10 H :    0.032952
  11 H :    0.030933
  12 C :   -0.067539
  13 H :    0.049092
  14 H :    0.034616
  15 H :    0.037690
  16 S :    0.117390
  17 C :   -0.108511
  18 C :   -0.026599
  19 C :   -0.026822
  20 C :   -0.165537
  21 H :    0.016566
  22 C :    0.140060
  23 H :    0.019300
  24 H :   -0.001113
  25 C :   -0.096936
  26 H :    0.015365
  27 H :    0.027018
  28 C :   -0.066903
  29 H :    0.021775
  30 H :    0.032743
  31 H :    0.043059
  32 H :    0.044545
  33 H :    0.066460
Sum of atomic charges:   -0.0000000

LOEWDIN ATOMIC CHARGES
----------------------
   0 S :    0.414677
   1 C :   -0.194627
   2 C :   -0.069005
   3 C :   -0.048846
   4 C :   -0.184786
   5 H :    0.040998
   6 C :   -0.036302
   7 H :    0.027654
   8 H :    0.035736
   9 C :   -0.046293
  10 H :    0.027287
  11 H :    0.022507
  12 C :   -0.072673
  13 H :    0.036674
  14 H :    0.029373
  15 H :    0.021479
  16 S :    0.415220
  17 C :   -0.173287
  18 C :   -0.062827
  19 C :   -0.064096
  20 C :   -0.227435
  21 H :    0.030715
  22 C :   -0.027313
  23 H :    0.031204
  24 H :    0.023309
  25 C :   -0.034759
  26 H :    0.010741
  27 H :    0.025754
  28 C :   -0.069607
  29 H :    0.014855
  30 H :    0.012088
  31 H :    0.031341
  32 H :    0.022145
  33 H :    0.038098

  Mayer bond orders larger than 0.100000
B(  0-S ,  1-C ) :   1.1459 B(  0-S ,  4-C ) :   1.1345 B(  1-C ,  2-C ) :   1.6250
B(  1-C , 32-H ) :   0.9647 B(  2-C ,  3-C ) :   1.2053 B(  2-C ,  6-C ) :   1.0273
B(  3-C ,  4-C ) :   1.6279 B(  3-C ,  5-H ) :   0.9815 B(  4-C , 20-C ) :   1.0130
B(  6-C ,  7-H ) :   0.9511 B(  6-C ,  8-H ) :   0.9471 B(  6-C ,  9-C ) :   1.0404
B(  9-C , 10-H ) :   0.9601 B(  9-C , 11-H ) :   0.9564 B(  9-C , 12-C ) :   1.0830
B( 12-C , 13-H ) :   0.9736 B( 12-C , 14-H ) :   0.9728 B( 12-C , 15-H ) :   0.9761
B( 16-S , 17-C ) :   1.1415 B( 16-S , 20-C ) :   1.1634 B( 17-C , 18-C ) :   1.6040
B( 17-C , 20-C ) :   0.1027 B( 17-C , 33-H ) :   0.9603 B( 18-C , 19-C ) :   1.2780
B( 18-C , 21-H ) :   0.9826 B( 19-C , 20-C ) :   1.5594 B( 19-C , 22-C ) :   1.0758
B( 22-C , 23-H ) :   0.9276 B( 22-C , 24-H ) :   0.9177 B( 22-C , 25-C ) :   1.0686
B( 25-C , 26-H ) :   0.9574 B( 25-C , 27-H ) :   0.9585 B( 25-C , 28-C ) :   1.0754
B( 28-C , 29-H ) :   0.9739 B( 28-C , 30-H ) :   0.9727 B( 28-C , 31-H ) :   0.9729

Dispersion correction           -0.015373283
FINAL SINGLE POINT ENERGY     -1339.865271332589

DIPOLE MOMENT
-------------
                                X             Y             Z
Electronic contribution:    -22.46951       4.69292       7.13618
Nuclear contribution   :     22.98078      -4.76677      -7.14116
                        -----------------------------------------
Total Dipole Moment    :      0.51126      -0.07384      -0.00498
                        -----------------------------------------
Magnitude (a.u.)       :      0.51659
Magnitude (Debye)      :      1.31307

Rotational constants in cm-1:     0.024074     0.007578     0.007004
Rotational constants in MHz :   721.731089   227.194420   209.967585

                             ****ORCA TERMINATED NORMALLY****
TOTAL RUN TIME: 0 days 0 hours 0 minutes 34 seconds 581 msec
