                         Program Version 4.2.1 -  RELEASE  -
|  1> ! wB97X-D3 SP def2-SVP
|  2> %pal
|  3> nprocs 16
|  4> end
|  5>
|  6> * xyz 0 1
|  7> S 	 -45.7406 	 27.4483 	 86.3417
|  8> C 	 -46.6153 	 28.9511 	 86.6014
|  9> C 	 -45.7346 	 30.0612 	 86.7189
| 10> C 	 -44.3415 	 29.5982 	 86.6793
| 11> C 	 -44.1952 	 28.2233 	 86.6612
| 12> H 	 -43.4139 	 30.1626 	 86.5785
| 13> C 	 -46.0777 	 31.5659 	 86.6315
| 14> H 	 -45.7558 	 32.1217 	 87.5449
| 15> H 	 -47.1038 	 31.6254 	 86.5507
| 16> C 	 -45.7443 	 32.2053 	 85.2513
| 17> H 	 -46.2193 	 33.1695 	 85.2393
| 18> H 	 -44.7098 	 32.4598 	 85.1366
| 19> C 	 -46.2328 	 31.4364 	 84.0285
| 20> H 	 -45.7816 	 30.4469 	 83.9991
| 21> H 	 -47.297 	 31.2474 	 83.9924
| 22> H 	 -45.8649 	 32.0198 	 83.1489
| 23> S 	 -42.7671 	 26.5 	 84.9954
| 24> C 	 -41.0717 	 26.2783 	 85.3911
| 25> C 	 -40.6329 	 26.9196 	 86.4961
| 26> C 	 -41.733 	 27.4837 	 87.2187
| 27> C 	 -42.9466 	 27.437 	 86.5081
| 28> H 	 -39.6108 	 26.9006 	 86.8319
| 29> C 	 -41.5761 	 28.2244 	 88.5557
| 30> H 	 -41.4031 	 27.5596 	 89.3419
| 31> H 	 -42.542 	 28.6567 	 88.7705
| 32> C 	 -40.5357 	 29.3437 	 88.6806
| 33> H 	 -39.5262 	 28.8831 	 88.445
| 34> H 	 -40.5218 	 29.5591 	 89.722
| 35> C 	 -40.9569 	 30.5579 	 87.9997
| 36> H 	 -40.3104 	 31.463 	 88.1386
| 37> H 	 -41.9523 	 30.8568 	 88.1214
| 38> H 	 -40.8213 	 30.4807 	 86.8745
| 39> H 	 -47.627 	 29.0074 	 86.5245
| 40> H 	 -40.3301 	 25.8506 	 84.6882
| 41> *
| 42>
| 43>                          ****END OF INPUT****

CARTESIAN COORDINATES (ANGSTROEM)
---------------------------------
  S    -45.740600   27.448300   86.341700
  C    -46.615300   28.951100   86.601400
  C    -45.734600   30.061200   86.718900
  C    -44.341500   29.598200   86.679300
  C    -44.195200   28.223300   86.661200
  H    -43.413900   30.162600   86.578500
  C    -46.077700   31.565900   86.631500
  H    -45.755800   32.121700   87.544900
  H    -47.103800   31.625400   86.550700
  C    -45.744300   32.205300   85.251300
  H    -46.219300   33.169500   85.239300
  H    -44.709800   32.459800   85.136600
  C    -46.232800   31.436400   84.028500
  H    -45.781600   30.446900   83.999100
  H    -47.297000   31.247400   83.992400
  H    -45.864900   32.019800   83.148900
  S    -42.767100   26.500000   84.995400
  C    -41.071700   26.278300   85.391100
  C    -40.632900   26.919600   86.496100
  C    -41.733000   27.483700   87.218700
  C    -42.946600   27.437000   86.508100
  H    -39.610800   26.900600   86.831900
  C    -41.576100   28.224400   88.555700
  H    -41.403100   27.559600   89.341900
  H    -42.542000   28.656700   88.770500
  C    -40.535700   29.343700   88.680600
  H    -39.526200   28.883100   88.445000
  H    -40.521800   29.559100   89.722000
  C    -40.956900   30.557900   87.999700
  H    -40.310400   31.463000   88.138600
  H    -41.952300   30.856800   88.121400
  H    -40.821300   30.480700   86.874500
  H    -47.627000   29.007400   86.524500
  H    -40.330100   25.850600   84.688200

 Total Charge           Charge          ....    0
 Multiplicity           Mult            ....    1
 Number of Electrons    NEL             ....  134
 Basis Dimension        Dim             ....  322

ORBITAL ENERGIES
----------------

  NO   OCC          E(Eh)            E(eV)
   0   2.0000     -88.967216     -2420.9210
   1   2.0000     -88.965162     -2420.8651
   2   2.0000     -10.331291      -281.1287
   3   2.0000     -10.330993      -281.1206
   4   2.0000     -10.317946      -280.7656
   5   2.0000     -10.315498      -280.6990
   6   2.0000     -10.312880      -280.6277
   7   2.0000     -10.306775      -280.4616
   8   2.0000     -10.297385      -280.2061
   9   2.0000     -10.294067      -280.1158
  10   2.0000     -10.292454      -280.0719
  11   2.0000     -10.286043      -279.8975
  12   2.0000     -10.284285      -279.8496
  13   2.0000     -10.282085      -279.7898
  14   2.0000     -10.276744      -279.6444
  15   2.0000     -10.276461      -279.6367
  16   2.0000      -8.081420      -219.9066
  17   2.0000      -8.079695      -219.8597
  18   2.0000      -6.039936      -164.3550
  19   2.0000      -6.038227      -164.3085
  20   2.0000      -6.036192      -164.2531
  21   2.0000      -6.034309      -164.2019
  22   2.0000      -6.031996      -164.1389
  23   2.0000      -6.030387      -164.0952
  24   2.0000      -1.000369       -27.2214
  25   2.0000      -0.978104       -26.6156
  26   2.0000      -0.917154       -24.9570
  27   2.0000      -0.910126       -24.7658
  28   2.0000      -0.866081       -23.5673
  29   2.0000      -0.851696       -23.1758
  30   2.0000      -0.840819       -22.8798
  31   2.0000      -0.816175       -22.2093
  32   2.0000      -0.785543       -21.3757
  33   2.0000      -0.774782       -21.0829
  34   2.0000      -0.707968       -19.2648
  35   2.0000      -0.698247       -19.0003
  36   2.0000      -0.693455       -18.8699
  37   2.0000      -0.654014       -17.7966
  38   2.0000      -0.647702       -17.6249
  39   2.0000      -0.616743       -16.7824
  40   2.0000      -0.597421       -16.2566
  41   2.0000      -0.565204       -15.3800
  42   2.0000      -0.557811       -15.1788
  43   2.0000      -0.555943       -15.1280
  44   2.0000      -0.544241       -14.8096
  45   2.0000      -0.537687       -14.6312
  46   2.0000      -0.518622       -14.1124
  47   2.0000      -0.515594       -14.0300
  48   2.0000      -0.497613       -13.5407
  49   2.0000      -0.496801       -13.5186
  50   2.0000      -0.489095       -13.3090
  51   2.0000      -0.479520       -13.0484
  52   2.0000      -0.468928       -12.7602
  53   2.0000      -0.462961       -12.5978
  54   2.0000      -0.459590       -12.5061
  55   2.0000      -0.446261       -12.1434
  56   2.0000      -0.443786       -12.0760
  57   2.0000      -0.439977       -11.9724
  58   2.0000      -0.438184       -11.9236
  59   2.0000      -0.422186       -11.4883
  60   2.0000      -0.420459       -11.4413
  61   2.0000      -0.413844       -11.2613
  62   2.0000      -0.407081       -11.0772
  63   2.0000      -0.347637        -9.4597
  64   2.0000      -0.332209        -9.0399
  65   2.0000      -0.326227        -8.8771
  66   2.0000      -0.292004        -7.9458
  67   0.0000       0.029433         0.8009
  68   0.0000       0.063844         1.7373
  69   0.0000       0.101692         2.7672
  70   0.0000       0.118640         3.2284
  71   0.0000       0.127525         3.4701

MULLIKEN ATOMIC CHARGES
-----------------------
   0 S :    0.092883
   1 C :   -0.074129
   2 C :   -0.121166
   3 C :    0.033123
   4 C :   -0.166358
   5 H :    0.016986
   6 C :    0.103257
   7 H :    0.052517
   8 H :   -0.006682
   9 C :   -0.075986
  10 H :    0.023529
  11 H :    0.023291
  12 C :   -0.061401
  13 H :    0.046393
  14 H :    0.028553
  15 H :    0.042919
  16 S :    0.102189
  17 C :   -0.087694
  18 C :   -0.028950
  19 C :   -0.050119
  20 C :   -0.141170
  21 H :    0.020624
  22 C :    0.077797
  23 H :    0.017221
  24 H :    0.011657
  25 C :   -0.045816
  26 H :    0.034477
  27 H :    0.020712
  28 C :   -0.057614
  29 H :    0.032409
  30 H :    0.024609
  31 H :    0.034947
  32 H :    0.012469
  33 H :    0.064525
Sum of atomic charges:   -0.0000000

LOEWDIN ATOMIC CHARGES
----------------------
   0 S :    0.394312
   1 C :   -0.178492
   2 C :   -0.054349
   3 C :   -0.064395
   4 C :   -0.192190
   5 H :    0.033551
   6 C :   -0.030432
   7 H :    0.039063
   8 H :    0.018921
   9 C :   -0.037258
  10 H :    0.023399
  11 H :    0.017052
  12 C :   -0.064072
  13 H :    0.028093
  14 H :    0.021332
  15 H :    0.035592
  16 S :    0.384048
  17 C :   -0.179377
  18 C :   -0.072642
  19 C :   -0.047970
  20 C :   -0.192154
  21 H :    0.033052
  22 C :   -0.025224
  23 H :    0.024761
  24 H :    0.027672
  25 C :   -0.042695
  26 H :    0.029475
  27 H :    0.024392
  28 C :   -0.073312
  29 H :    0.031771
  30 H :    0.016252
  31 H :    0.032097
  32 H :    0.004709
  33 H :    0.035022

  Mayer bond orders larger than 0.100000
B(  0-S ,  1-C ) :   1.1440 B(  0-S ,  4-C ) :   1.1424 B(  1-C ,  2-C ) :   1.5992
B(  1-C , 32-H ) :   0.9827 B(  2-C ,  3-C ) :   1.2079 B(  2-C ,  6-C ) :   1.0370
B(  3-C ,  4-C ) :   1.5976 B(  3-C ,  5-H ) :   0.9821 B(  4-C , 20-C ) :   1.0190
B(  6-C ,  7-H ) :   0.9435 B(  6-C ,  8-H ) :   0.9339 B(  6-C ,  9-C ) :   1.0533
B(  9-C , 10-H ) :   0.9578 B(  9-C , 11-H ) :   0.9566 B(  9-C , 12-C ) :   1.0786
B( 12-C , 13-H ) :   0.9711 B( 12-C , 14-H ) :   0.9765 B( 12-C , 15-H ) :   0.9712
B( 16-S , 17-C ) :   1.1441 B( 16-S , 20-C ) :   1.1227 B( 17-C , 18-C ) :   1.6519
B( 17-C , 33-H ) :   0.9551 B( 18-C , 19-C ) :   1.2182 B( 18-C , 21-H ) :   0.9902
B( 19-C , 20-C ) :   1.6230 B( 19-C , 22-C ) :   1.0350 B( 22-C , 23-H ) :   0.9282
B( 22-C , 24-H ) :   0.9341 B( 22-C , 25-C ) :   1.0874 B( 25-C , 26-H ) :   0.9500
B( 25-C , 27-H ) :   0.9458 B( 25-C , 28-C ) :   1.0864 B( 28-C , 29-H ) :   0.9655
B( 28-C , 30-H ) :   0.9654 B( 28-C , 31-H ) :   0.9667

Dispersion correction           -0.015562522
FINAL SINGLE POINT ENERGY     -1339.861011589251

DIPOLE MOMENT
-------------
                                X             Y             Z
Electronic contribution:     -4.39310     -24.15837      -3.92871
Nuclear contribution   :      4.72590      24.82017       3.98158
                        -----------------------------------------
Total Dipole Moment    :      0.33279       0.66179       0.05287
                        -----------------------------------------
Magnitude (a.u.)       :      0.74264
Magnitude (Debye)      :      1.88765

Rotational constants in cm-1:     0.018545     0.009512     0.007659
Rotational constants in MHz :   555.953407   285.160434   229.612030

                             ****ORCA TERMINATED NORMALLY****
TOTAL RUN TIME: 0 days 0 hours 0 minutes 32 seconds 665 msec
