                         Program Version 4.2.1 -  RELEASE  -
|  1> ! wB97X-D3 SP def2-SVP
|  2> %pal
|  3> nprocs 16
|  4> end
|  5>
|  6> * xyz 0 1
|  7> S 	 -7.89834 	 51.882 	 46.1436
|  8> C 	 -9.45324 	 52.4198 	 45.6637
|  9> C 	 -10.3578 	 51.3602 	 45.4656
| 10> C 	 -9.76684 	 50.1357 	 45.8465
| 11> C 	 -8.41101 	 50.1853 	 46.2389
| 12> H 	 -10.287 	 49.204 	 45.6956
| 13> C 	 -11.7844 	 51.5059 	 44.9584
| 14> H 	 -11.7454 	 51.167 	 43.9637
| 15> H 	 -12.0685 	 52.5326 	 44.9771
| 16> C 	 -12.7874 	 50.6146 	 45.6774
| 17> H 	 -13.8115 	 50.6017 	 45.1782
| 18> H 	 -12.4498 	 49.589 	 45.6761
| 19> C 	 -13.0525 	 51.2254 	 47.0618
| 20> H 	 -13.533 	 52.2253 	 46.9919
| 21> H 	 -13.6788 	 50.5303 	 47.5905
| 22> H 	 -12.1176 	 51.3995 	 47.5451
| 23> S 	 -6.30789 	 48.8352 	 44.9676
| 24> C 	 -5.5672 	 47.5851 	 45.8802
| 25> C 	 -6.39017 	 47.0706 	 46.8512
| 26> C 	 -7.49574 	 47.9431 	 47.1174
| 27> C 	 -7.48225 	 49.1047 	 46.3136
| 28> H 	 -6.12143 	 46.1629 	 47.3471
| 29> C 	 -8.54315 	 47.6154 	 48.0808
| 30> H 	 -8.61135 	 46.5218 	 48.1156
| 31> H 	 -9.47381 	 47.8849 	 47.708
| 32> C 	 -8.42503 	 48.2017 	 49.4765
| 33> H 	 -8.16011 	 49.1952 	 49.4821
| 34> H 	 -7.4652 	 47.6962 	 49.8348
| 35> C 	 -9.62396 	 47.8536 	 50.4013
| 36> H 	 -9.59041 	 46.7954 	 50.5954
| 37> H 	 -10.5641 	 48.1499 	 49.9017
| 38> H 	 -9.44656 	 48.3573 	 51.3838
| 39> H 	 -9.67477 	 53.3796 	 45.3809
| 40> H 	 -4.71037 	 47.0981 	 45.6236
| 41> *
| 42>
| 43>                          ****END OF INPUT****

CARTESIAN COORDINATES (ANGSTROEM)
---------------------------------
  S     -7.898340   51.882000   46.143600
  C     -9.453240   52.419800   45.663700
  C    -10.357800   51.360200   45.465600
  C     -9.766840   50.135700   45.846500
  C     -8.411010   50.185300   46.238900
  H    -10.287000   49.204000   45.695600
  C    -11.784400   51.505900   44.958400
  H    -11.745400   51.167000   43.963700
  H    -12.068500   52.532600   44.977100
  C    -12.787400   50.614600   45.677400
  H    -13.811500   50.601700   45.178200
  H    -12.449800   49.589000   45.676100
  C    -13.052500   51.225400   47.061800
  H    -13.533000   52.225300   46.991900
  H    -13.678800   50.530300   47.590500
  H    -12.117600   51.399500   47.545100
  S     -6.307890   48.835200   44.967600
  C     -5.567200   47.585100   45.880200
  C     -6.390170   47.070600   46.851200
  C     -7.495740   47.943100   47.117400
  C     -7.482250   49.104700   46.313600
  H     -6.121430   46.162900   47.347100
  C     -8.543150   47.615400   48.080800
  H     -8.611350   46.521800   48.115600
  H     -9.473810   47.884900   47.708000
  C     -8.425030   48.201700   49.476500
  H     -8.160110   49.195200   49.482100
  H     -7.465200   47.696200   49.834800
  C     -9.623960   47.853600   50.401300
  H     -9.590410   46.795400   50.595400
  H    -10.564100   48.149900   49.901700
  H     -9.446560   48.357300   51.383800
  H     -9.674770   53.379600   45.380900
  H     -4.710370   47.098100   45.623600

 Total Charge           Charge          ....    0
 Multiplicity           Mult            ....    1
 Number of Electrons    NEL             ....  134
 Basis Dimension        Dim             ....  322

ORBITAL ENERGIES
----------------

  NO   OCC          E(Eh)            E(eV)
   0   2.0000     -88.968073     -2420.9444
   1   2.0000     -88.962693     -2420.7980
   2   2.0000     -10.329841      -281.0893
   3   2.0000     -10.325015      -280.9579
   4   2.0000     -10.310211      -280.5551
   5   2.0000     -10.305954      -280.4393
   6   2.0000     -10.301763      -280.3252
   7   2.0000     -10.301725      -280.3242
   8   2.0000     -10.296753      -280.1889
   9   2.0000     -10.290427      -280.0168
  10   2.0000     -10.289173      -279.9826
  11   2.0000     -10.287229      -279.9297
  12   2.0000     -10.281794      -279.7818
  13   2.0000     -10.279429      -279.7175
  14   2.0000     -10.277424      -279.6629
  15   2.0000     -10.272996      -279.5424
  16   2.0000      -8.082757      -219.9430
  17   2.0000      -8.077332      -219.7954
  18   2.0000      -6.041084      -164.3863
  19   2.0000      -6.037097      -164.2778
  20   2.0000      -6.035741      -164.2409
  21   2.0000      -6.033883      -164.1903
  22   2.0000      -6.032220      -164.1451
  23   2.0000      -6.027826      -164.0255
  24   2.0000      -1.004104       -27.3231
  25   2.0000      -0.983940       -26.7744
  26   2.0000      -0.918017       -24.9805
  27   2.0000      -0.913168       -24.8486
  28   2.0000      -0.871341       -23.7104
  29   2.0000      -0.849643       -23.1200
  30   2.0000      -0.845652       -23.0113
  31   2.0000      -0.813200       -22.1283
  32   2.0000      -0.785488       -21.3742
  33   2.0000      -0.771112       -20.9830
  34   2.0000      -0.715762       -19.4769
  35   2.0000      -0.699401       -19.0317
  36   2.0000      -0.694483       -18.8978
  37   2.0000      -0.659567       -17.9477
  38   2.0000      -0.642528       -17.4841
  39   2.0000      -0.626945       -17.0601
  40   2.0000      -0.601607       -16.3706
  41   2.0000      -0.572081       -15.5671
  42   2.0000      -0.563280       -15.3276
  43   2.0000      -0.560456       -15.2508
  44   2.0000      -0.541096       -14.7240
  45   2.0000      -0.523984       -14.2583
  46   2.0000      -0.522589       -14.2204
  47   2.0000      -0.511318       -13.9137
  48   2.0000      -0.503187       -13.6924
  49   2.0000      -0.500060       -13.6073
  50   2.0000      -0.488413       -13.2904
  51   2.0000      -0.486072       -13.2267
  52   2.0000      -0.470216       -12.7952
  53   2.0000      -0.465251       -12.6601
  54   2.0000      -0.461239       -12.5509
  55   2.0000      -0.448280       -12.1983
  56   2.0000      -0.444387       -12.0924
  57   2.0000      -0.442298       -12.0355
  58   2.0000      -0.435020       -11.8375
  59   2.0000      -0.429038       -11.6747
  60   2.0000      -0.425873       -11.5886
  61   2.0000      -0.411198       -11.1893
  62   2.0000      -0.407262       -11.0822
  63   2.0000      -0.341779        -9.3003
  64   2.0000      -0.325694        -8.8626
  65   2.0000      -0.322854        -8.7853
  66   2.0000      -0.291826        -7.9410
  67   0.0000       0.022393         0.6093
  68   0.0000       0.058934         1.6037
  69   0.0000       0.099980         2.7206
  70   0.0000       0.126077         3.4307
  71   0.0000       0.129757         3.5309

MULLIKEN ATOMIC CHARGES
-----------------------
   0 S :    0.125180
   1 C :   -0.074780
   2 C :   -0.146842
   3 C :    0.042554
   4 C :   -0.186987
   5 H :    0.012340
   6 C :    0.141534
   7 H :    0.027662
   8 H :    0.008622
   9 C :   -0.115999
  10 H :    0.037074
  11 H :    0.030028
  12 C :   -0.036703
  13 H :    0.031943
  14 H :    0.032826
  15 H :    0.032873
  16 S :    0.107794
  17 C :   -0.039826
  18 C :   -0.032777
  19 C :   -0.034283
  20 C :   -0.147528
  21 H :    0.010609
  22 C :    0.109333
  23 H :    0.012610
  24 H :   -0.022864
  25 C :   -0.067765
  26 H :    0.017058
  27 H :    0.016078
  28 C :   -0.035402
  29 H :    0.028366
  30 H :    0.043135
  31 H :    0.045571
  32 H :    0.013312
  33 H :    0.015254
Sum of atomic charges:   -0.0000000

LOEWDIN ATOMIC CHARGES
----------------------
   0 S :    0.427796
   1 C :   -0.193736
   2 C :   -0.063118
   3 C :   -0.053175
   4 C :   -0.204952
   5 H :    0.026106
   6 C :   -0.022948
   7 H :    0.030022
   8 H :    0.025749
   9 C :   -0.042353
  10 H :    0.031487
  11 H :    0.018866
  12 C :   -0.061184
  13 H :    0.029590
  14 H :    0.022146
  15 H :    0.020851
  16 S :    0.395570
  17 C :   -0.171687
  18 C :   -0.068028
  19 C :   -0.041646
  20 C :   -0.193361
  21 H :    0.029095
  22 C :   -0.035971
  23 H :    0.033088
  24 H :    0.013954
  25 C :   -0.032576
  26 H :    0.011756
  27 H :    0.027690
  28 C :   -0.062571
  29 H :    0.022889
  30 H :    0.028256
  31 H :    0.034726
  32 H :    0.009304
  33 H :    0.008364

  Mayer bond orders larger than 0.100000
B(  0-S ,  1-C ) :   1.1778 B(  0-S ,  4-C ) :   1.1540 B(  1-C ,  2-C ) :   1.5554
B(  1-C ,  4-C ) :   0.1068 B(  1-C , 32-H ) :   0.9748 B(  2-C ,  3-C ) :   1.3024
B(  2-C ,  6-C ) :   1.0131 B(  3-C ,  4-C ) :   1.5170 B(  3-C ,  5-H ) :   0.9840
B(  4-C , 20-C ) :   1.0896 B(  6-C ,  7-H ) :   0.9221 B(  6-C ,  8-H ) :   0.9434
B(  6-C ,  9-C ) :   1.0843 B(  9-C , 10-H ) :   0.9543 B(  9-C , 11-H ) :   0.9518
B(  9-C , 12-C ) :   1.0705 B( 12-C , 13-H ) :   0.9726 B( 12-C , 14-H ) :   0.9747
B( 12-C , 15-H ) :   0.9785 B( 16-S , 17-C ) :   1.1649 B( 16-S , 20-C ) :   1.1226
B( 17-C , 18-C ) :   1.6036 B( 17-C , 33-H ) :   0.9750 B( 18-C , 19-C ) :   1.2359
B( 18-C , 21-H ) :   0.9973 B( 19-C , 20-C ) :   1.5655 B( 19-C , 22-C ) :   1.0655
B( 22-C , 23-H ) :   0.9282 B( 22-C , 24-H ) :   0.9113 B( 22-C , 25-C ) :   1.0567
B( 25-C , 26-H ) :   0.9612 B( 25-C , 27-H ) :   0.9520 B( 25-C , 28-C ) :   1.0727
B( 28-C , 29-H ) :   0.9756 B( 28-C , 30-H ) :   0.9756 B( 28-C , 31-H ) :   0.9740

Dispersion correction           -0.014453812
FINAL SINGLE POINT ENERGY     -1339.859250888808

DIPOLE MOMENT
-------------
                                X             Y             Z
Electronic contribution:     23.92881       5.47681     -14.79852
Nuclear contribution   :    -24.47145      -5.78934      14.78788
                        -----------------------------------------
Total Dipole Moment    :     -0.54264      -0.31252      -0.01065
                        -----------------------------------------
Magnitude (a.u.)       :      0.62629
Magnitude (Debye)      :      1.59191

Rotational constants in cm-1:     0.017029     0.009710     0.007287
Rotational constants in MHz :   510.524297   291.107254   218.472280

                             ****ORCA TERMINATED NORMALLY****
TOTAL RUN TIME: 0 days 0 hours 0 minutes 34 seconds 759 msec
