                         Program Version 4.2.1 -  RELEASE  -
|  1> ! wB97X-D3 SP def2-SVP
|  2> %pal
|  3> nprocs 16
|  4> end
|  5>
|  6> * xyz 0 1
|  7> S 	 36.4992 	 32.7907 	 55.3938
|  8> C 	 37.4804 	 33.5737 	 54.1373
|  9> C 	 38.3942 	 34.4483 	 54.6543
| 10> C 	 38.3528 	 34.4952 	 56.1114
| 11> C 	 37.3747 	 33.628 	 56.6431
| 12> H 	 39.0419 	 35.1253 	 56.7045
| 13> C 	 39.3332 	 35.2979 	 53.7818
| 14> H 	 39.6354 	 34.6965 	 52.8657
| 15> H 	 40.2558 	 35.4529 	 54.3297
| 16> C 	 38.6558 	 36.615 	 53.2738
| 17> H 	 37.7208 	 36.4651 	 52.7457
| 18> H 	 38.3569 	 37.3052 	 54.1522
| 19> C 	 39.6045 	 37.618 	 52.5164
| 20> H 	 40.5109 	 37.8895 	 53.0936
| 21> H 	 39.9583 	 37.1941 	 51.6119
| 22> H 	 38.9634 	 38.437 	 52.1748
| 23> S 	 36.9666 	 31.6424 	 58.4011
| 24> C 	 36.7598 	 31.9585 	 60.0571
| 25> C 	 36.6288 	 33.2905 	 60.2419
| 26> C 	 36.8743 	 34.0842 	 59.1057
| 27> C 	 36.9966 	 33.2974 	 57.9862
| 28> H 	 36.4985 	 33.6419 	 61.2891
| 29> C 	 37.0038 	 35.6044 	 59.1797
| 30> H 	 36.1561 	 36.016 	 59.6866
| 31> H 	 37.0535 	 36.0543 	 58.1821
| 32> C 	 38.2266 	 36.1292 	 59.8815
| 33> H 	 38.9197 	 35.3631 	 59.5436
| 34> H 	 37.9229 	 36.0957 	 60.9353
| 35> C 	 38.4396 	 37.6785 	 59.7263
| 36> H 	 37.6145 	 38.2598 	 60.1819
| 37> H 	 38.5133 	 38.0264 	 58.7313
| 38> H 	 39.3361 	 37.8025 	 60.291
| 39> H 	 37.3337 	 33.42 	 53.0317
| 40> H 	 36.8168 	 31.2024 	 60.8787
| 41> *
| 42>
| 43>                          ****END OF INPUT****

CARTESIAN COORDINATES (ANGSTROEM)
---------------------------------
  S     36.499200   32.790700   55.393800
  C     37.480400   33.573700   54.137300
  C     38.394200   34.448300   54.654300
  C     38.352800   34.495200   56.111400
  C     37.374700   33.628000   56.643100
  H     39.041900   35.125300   56.704500
  C     39.333200   35.297900   53.781800
  H     39.635400   34.696500   52.865700
  H     40.255800   35.452900   54.329700
  C     38.655800   36.615000   53.273800
  H     37.720800   36.465100   52.745700
  H     38.356900   37.305200   54.152200
  C     39.604500   37.618000   52.516400
  H     40.510900   37.889500   53.093600
  H     39.958300   37.194100   51.611900
  H     38.963400   38.437000   52.174800
  S     36.966600   31.642400   58.401100
  C     36.759800   31.958500   60.057100
  C     36.628800   33.290500   60.241900
  C     36.874300   34.084200   59.105700
  C     36.996600   33.297400   57.986200
  H     36.498500   33.641900   61.289100
  C     37.003800   35.604400   59.179700
  H     36.156100   36.016000   59.686600
  H     37.053500   36.054300   58.182100
  C     38.226600   36.129200   59.881500
  H     38.919700   35.363100   59.543600
  H     37.922900   36.095700   60.935300
  C     38.439600   37.678500   59.726300
  H     37.614500   38.259800   60.181900
  H     38.513300   38.026400   58.731300
  H     39.336100   37.802500   60.291000
  H     37.333700   33.420000   53.031700
  H     36.816800   31.202400   60.878700

 Total Charge           Charge          ....    0
 Multiplicity           Mult            ....    1
 Number of Electrons    NEL             ....  134
 Basis Dimension        Dim             ....  322

ORBITAL ENERGIES
----------------

  NO   OCC          E(Eh)            E(eV)
   0   2.0000     -88.965148     -2420.8647
   1   2.0000     -88.963297     -2420.8144
   2   2.0000     -10.331980      -281.1475
   3   2.0000     -10.319391      -280.8049
   4   2.0000     -10.314929      -280.6835
   5   2.0000     -10.313984      -280.6578
   6   2.0000     -10.303533      -280.3734
   7   2.0000     -10.303365      -280.3688
   8   2.0000     -10.303014      -280.3593
   9   2.0000     -10.299285      -280.2578
  10   2.0000     -10.297513      -280.2096
  11   2.0000     -10.290010      -280.0054
  12   2.0000     -10.284848      -279.8649
  13   2.0000     -10.281669      -279.7784
  14   2.0000     -10.281090      -279.7627
  15   2.0000     -10.280470      -279.7458
  16   2.0000      -8.080049      -219.8693
  17   2.0000      -8.079806      -219.8627
  18   2.0000      -6.038447      -164.3145
  19   2.0000      -6.038406      -164.3134
  20   2.0000      -6.034292      -164.2014
  21   2.0000      -6.034172      -164.1982
  22   2.0000      -6.030897      -164.1090
  23   2.0000      -6.030483      -164.0978
  24   2.0000      -1.019802       -27.7502
  25   2.0000      -0.984671       -26.7943
  26   2.0000      -0.915558       -24.9136
  27   2.0000      -0.904551       -24.6141
  28   2.0000      -0.870851       -23.6970
  29   2.0000      -0.853251       -23.2181
  30   2.0000      -0.841235       -22.8912
  31   2.0000      -0.812429       -22.1073
  32   2.0000      -0.786911       -21.4129
  33   2.0000      -0.774114       -21.0647
  34   2.0000      -0.704657       -19.1747
  35   2.0000      -0.697348       -18.9758
  36   2.0000      -0.691536       -18.8177
  37   2.0000      -0.660317       -17.9681
  38   2.0000      -0.631063       -17.1721
  39   2.0000      -0.618881       -16.8406
  40   2.0000      -0.599968       -16.3260
  41   2.0000      -0.580478       -15.7956
  42   2.0000      -0.565890       -15.3987
  43   2.0000      -0.550330       -14.9752
  44   2.0000      -0.530969       -14.4484
  45   2.0000      -0.526778       -14.3343
  46   2.0000      -0.517162       -14.0727
  47   2.0000      -0.510669       -13.8960
  48   2.0000      -0.503600       -13.7036
  49   2.0000      -0.500805       -13.6276
  50   2.0000      -0.492874       -13.4118
  51   2.0000      -0.485018       -13.1980
  52   2.0000      -0.472714       -12.8632
  53   2.0000      -0.463425       -12.6104
  54   2.0000      -0.459481       -12.5031
  55   2.0000      -0.451256       -12.2793
  56   2.0000      -0.446952       -12.1622
  57   2.0000      -0.442255       -12.0344
  58   2.0000      -0.424441       -11.5496
  59   2.0000      -0.423005       -11.5106
  60   2.0000      -0.418262       -11.3815
  61   2.0000      -0.409471       -11.1423
  62   2.0000      -0.408101       -11.1050
  63   2.0000      -0.352587        -9.5944
  64   2.0000      -0.332436        -9.0461
  65   2.0000      -0.329536        -8.9671
  66   2.0000      -0.290721        -7.9109
  67   0.0000       0.033456         0.9104
  68   0.0000       0.074227         2.0198
  69   0.0000       0.110914         3.0181
  70   0.0000       0.124238         3.3807
  71   0.0000       0.127816         3.4781

MULLIKEN ATOMIC CHARGES
-----------------------
   0 S :    0.099509
   1 C :   -0.137537
   2 C :   -0.095303
   3 C :    0.030616
   4 C :   -0.154561
   5 H :    0.020261
   6 C :    0.063462
   7 H :    0.037752
   8 H :    0.022818
   9 C :   -0.115590
  10 H :    0.034945
  11 H :    0.036464
  12 C :   -0.035300
  13 H :    0.042534
  14 H :    0.012310
  15 H :    0.038737
  16 S :    0.121157
  17 C :   -0.109261
  18 C :   -0.046535
  19 C :   -0.041093
  20 C :   -0.136637
  21 H :    0.025304
  22 C :    0.087705
  23 H :    0.010271
  24 H :    0.015238
  25 C :   -0.120355
  26 H :    0.044448
  27 H :    0.028825
  28 C :   -0.021758
  29 H :    0.036056
  30 H :    0.026009
  31 H :    0.040848
  32 H :    0.064032
  33 H :    0.074629
Sum of atomic charges:   -0.0000000

LOEWDIN ATOMIC CHARGES
----------------------
   0 S :    0.399276
   1 C :   -0.201581
   2 C :   -0.064292
   3 C :   -0.070425
   4 C :   -0.185603
   5 H :    0.033901
   6 C :   -0.033484
   7 H :    0.037757
   8 H :    0.028073
   9 C :   -0.045837
  10 H :    0.023208
  11 H :    0.031974
  12 C :   -0.068195
  13 H :    0.029773
  14 H :    0.012884
  15 H :    0.031342
  16 S :    0.445999
  17 C :   -0.207357
  18 C :   -0.079026
  19 C :   -0.058672
  20 C :   -0.222373
  21 H :    0.035941
  22 C :   -0.033434
  23 H :    0.022984
  24 H :    0.025633
  25 C :   -0.045456
  26 H :    0.026634
  27 H :    0.027167
  28 C :   -0.055770
  29 H :    0.032719
  30 H :    0.015391
  31 H :    0.029004
  32 H :    0.038455
  33 H :    0.043388

  Mayer bond orders larger than 0.100000
B(  0-S ,  1-C ) :   1.1166 B(  0-S ,  4-C ) :   1.1632 B(  1-C ,  2-C ) :   1.6468
B(  1-C , 32-H ) :   0.9597 B(  2-C ,  3-C ) :   1.2316 B(  2-C ,  6-C ) :   1.0224
B(  3-C ,  4-C ) :   1.5622 B(  3-C ,  5-H ) :   0.9894 B(  4-C , 20-C ) :   1.0249
B(  6-C ,  7-H ) :   0.9447 B(  6-C ,  8-H ) :   0.9423 B(  6-C ,  9-C ) :   1.0474
B(  9-C , 10-H ) :   0.9602 B(  9-C , 11-H ) :   0.9605 B(  9-C , 12-C ) :   1.0728
B( 12-C , 13-H ) :   0.9761 B( 12-C , 14-H ) :   0.9753 B( 12-C , 15-H ) :   0.9743
B( 16-S , 17-C ) :   1.1689 B( 16-S , 20-C ) :   1.1630 B( 17-C , 18-C ) :   1.5969
B( 17-C , 33-H ) :   0.9623 B( 18-C , 19-C ) :   1.2494 B( 18-C , 21-H ) :   0.9873
B( 19-C , 20-C ) :   1.5785 B( 19-C , 22-C ) :   1.0569 B( 22-C , 23-H ) :   0.9292
B( 22-C , 24-H ) :   0.9343 B( 22-C , 25-C ) :   1.0490 B( 25-C , 26-H ) :   0.9649
B( 25-C , 27-H ) :   0.9551 B( 25-C , 28-C ) :   1.0692 B( 28-C , 29-H ) :   0.9722
B( 28-C , 30-H ) :   0.9781 B( 28-C , 31-H ) :   0.9768

Dispersion correction           -0.013821047
FINAL SINGLE POINT ENERGY     -1339.868230287960

DIPOLE MOMENT
-------------
                                X             Y             Z
Electronic contribution:    -12.46790     -29.49036       3.97916
Nuclear contribution   :     12.79919      30.05439      -3.83313
                        -----------------------------------------
Total Dipole Moment    :      0.33129       0.56403       0.14603
                        -----------------------------------------
Magnitude (a.u.)       :      0.67023
Magnitude (Debye)      :      1.70359

Rotational constants in cm-1:     0.018003     0.008707     0.006161
Rotational constants in MHz :   539.715194   261.038409   184.696876

                             ****ORCA TERMINATED NORMALLY****
TOTAL RUN TIME: 0 days 0 hours 0 minutes 33 seconds 537 msec
