                         Program Version 4.2.1 -  RELEASE  -
|  1> ! wB97X-D3 SP def2-SVP
|  2> %pal
|  3> nprocs 16
|  4> end
|  5>
|  6> * xyz 0 1
|  7> S 	 -3.36362 	 -15.3615 	 91.1128
|  8> C 	 -4.96869 	 -15.958 	 91.1854
|  9> C 	 -5.41019 	 -16.3059 	 89.9588
| 10> C 	 -4.52638 	 -16.0552 	 88.905
| 11> C 	 -3.3791 	 -15.4789 	 89.3129
| 12> H 	 -4.83029 	 -16.2102 	 87.8863
| 13> C 	 -6.74177 	 -16.8638 	 89.6779
| 14> H 	 -6.76862 	 -17.8365 	 90.0925
| 15> H 	 -6.7282 	 -17.0871 	 88.5713
| 16> C 	 -8.02505 	 -16.0475 	 90.0001
| 17> H 	 -8.07351 	 -15.881 	 91.0931
| 18> H 	 -7.99957 	 -15.0565 	 89.5858
| 19> C 	 -9.23651 	 -16.7774 	 89.4742
| 20> H 	 -10.1614 	 -16.7059 	 90.0835
| 21> H 	 -9.35935 	 -16.3946 	 88.4605
| 22> H 	 -9.06407 	 -17.8897 	 89.4708
| 23> S 	 -1.3269 	 -13.7401 	 89.0467
| 24> C 	 -0.212867 	 -13.8274 	 87.6701
| 25> C 	 -0.570596 	 -14.8528 	 86.8458
| 26> C 	 -1.80654 	 -15.5021 	 87.2115
| 27> C 	 -2.24355 	 -15.1453 	 88.4914
| 28> H 	 0.00166233 	 -15.0364 	 85.9489
| 29> C 	 -2.43988 	 -16.5838 	 86.3459
| 30> H 	 -2.98913 	 -17.2316 	 87.0413
| 31> H 	 -1.61052 	 -17.0733 	 85.8436
| 32> C 	 -3.51348 	 -15.9689 	 85.3748
| 33> H 	 -4.19198 	 -15.3989 	 85.9917
| 34> H 	 -3.98836 	 -16.664 	 84.7086
| 35> C 	 -2.84071 	 -15.2263 	 84.2376
| 36> H 	 -3.70298 	 -14.7104 	 83.7412
| 37> H 	 -2.29508 	 -15.8626 	 83.5365
| 38> H 	 -2.0995 	 -14.4419 	 84.464
| 39> H 	 -5.56225 	 -16.275 	 92.0652
| 40> H 	 0.777042 	 -13.2791 	 87.5266
| 41> *
| 42>
| 43>                          ****END OF INPUT****

CARTESIAN COORDINATES (ANGSTROEM)
---------------------------------
  S     -3.363620  -15.361500   91.112800
  C     -4.968690  -15.958000   91.185400
  C     -5.410190  -16.305900   89.958800
  C     -4.526380  -16.055200   88.905000
  C     -3.379100  -15.478900   89.312900
  H     -4.830290  -16.210200   87.886300
  C     -6.741770  -16.863800   89.677900
  H     -6.768620  -17.836500   90.092500
  H     -6.728200  -17.087100   88.571300
  C     -8.025050  -16.047500   90.000100
  H     -8.073510  -15.881000   91.093100
  H     -7.999570  -15.056500   89.585800
  C     -9.236510  -16.777400   89.474200
  H    -10.161400  -16.705900   90.083500
  H     -9.359350  -16.394600   88.460500
  H     -9.064070  -17.889700   89.470800
  S     -1.326900  -13.740100   89.046700
  C     -0.212867  -13.827400   87.670100
  C     -0.570596  -14.852800   86.845800
  C     -1.806540  -15.502100   87.211500
  C     -2.243550  -15.145300   88.491400
  H      0.001662  -15.036400   85.948900
  C     -2.439880  -16.583800   86.345900
  H     -2.989130  -17.231600   87.041300
  H     -1.610520  -17.073300   85.843600
  C     -3.513480  -15.968900   85.374800
  H     -4.191980  -15.398900   85.991700
  H     -3.988360  -16.664000   84.708600
  C     -2.840710  -15.226300   84.237600
  H     -3.702980  -14.710400   83.741200
  H     -2.295080  -15.862600   83.536500
  H     -2.099500  -14.441900   84.464000
  H     -5.562250  -16.275000   92.065200
  H      0.777042  -13.279100   87.526600

 Total Charge           Charge          ....    0
 Multiplicity           Mult            ....    1
 Number of Electrons    NEL             ....  134
 Basis Dimension        Dim             ....  322

ORBITAL ENERGIES
----------------

  NO   OCC          E(Eh)            E(eV)
   0   2.0000     -88.968945     -2420.9681
   1   2.0000     -88.962045     -2420.7803
   2   2.0000     -10.331595      -281.1370
   3   2.0000     -10.329034      -281.0673
   4   2.0000     -10.321735      -280.8687
   5   2.0000     -10.309163      -280.5266
   6   2.0000     -10.306377      -280.4508
   7   2.0000     -10.294105      -280.1169
   8   2.0000     -10.293876      -280.1106
   9   2.0000     -10.289300      -279.9861
  10   2.0000     -10.287755      -279.9440
  11   2.0000     -10.287724      -279.9432
  12   2.0000     -10.287712      -279.9429
  13   2.0000     -10.286583      -279.9122
  14   2.0000     -10.282942      -279.8131
  15   2.0000     -10.279415      -279.7171
  16   2.0000      -8.083311      -219.9581
  17   2.0000      -8.076350      -219.7686
  18   2.0000      -6.041981      -164.4107
  19   2.0000      -6.037946      -164.3009
  20   2.0000      -6.035066      -164.2225
  21   2.0000      -6.033825      -164.1887
  22   2.0000      -6.030875      -164.1084
  23   2.0000      -6.026950      -164.0016
  24   2.0000      -1.012132       -27.5415
  25   2.0000      -0.986264       -26.8376
  26   2.0000      -0.915026       -24.8991
  27   2.0000      -0.910224       -24.7685
  28   2.0000      -0.876401       -23.8481
  29   2.0000      -0.859696       -23.3935
  30   2.0000      -0.846302       -23.0290
  31   2.0000      -0.820693       -22.3322
  32   2.0000      -0.778332       -21.1795
  33   2.0000      -0.766042       -20.8451
  34   2.0000      -0.712593       -19.3906
  35   2.0000      -0.704184       -19.1618
  36   2.0000      -0.692921       -18.8553
  37   2.0000      -0.664028       -18.0691
  38   2.0000      -0.635376       -17.2895
  39   2.0000      -0.627646       -17.0791
  40   2.0000      -0.587583       -15.9889
  41   2.0000      -0.570778       -15.5317
  42   2.0000      -0.567390       -15.4395
  43   2.0000      -0.560399       -15.2492
  44   2.0000      -0.544675       -14.8213
  45   2.0000      -0.526232       -14.3195
  46   2.0000      -0.523476       -14.2445
  47   2.0000      -0.512389       -13.9428
  48   2.0000      -0.505629       -13.7589
  49   2.0000      -0.500432       -13.6175
  50   2.0000      -0.491234       -13.3672
  51   2.0000      -0.485652       -13.2153
  52   2.0000      -0.469165       -12.7666
  53   2.0000      -0.463477       -12.6119
  54   2.0000      -0.460372       -12.5274
  55   2.0000      -0.449826       -12.2404
  56   2.0000      -0.446747       -12.1566
  57   2.0000      -0.436826       -11.8866
  58   2.0000      -0.430924       -11.7260
  59   2.0000      -0.422744       -11.5035
  60   2.0000      -0.417708       -11.3664
  61   2.0000      -0.410375       -11.1669
  62   2.0000      -0.408119       -11.1055
  63   2.0000      -0.364476        -9.9179
  64   2.0000      -0.335107        -9.1187
  65   2.0000      -0.326820        -8.8932
  66   2.0000      -0.285302        -7.7635
  67   0.0000       0.020677         0.5627
  68   0.0000       0.078285         2.1302
  69   0.0000       0.104763         2.8508
  70   0.0000       0.122429         3.3315
  71   0.0000       0.129711         3.5296

MULLIKEN ATOMIC CHARGES
-----------------------
   0 S :    0.114957
   1 C :   -0.115431
   2 C :   -0.091003
   3 C :   -0.020405
   4 C :   -0.068360
   5 H :   -0.002939
   6 C :    0.035650
   7 H :    0.025206
   8 H :    0.010083
   9 C :   -0.041878
  10 H :    0.024943
  11 H :    0.029294
  12 C :   -0.069898
  13 H :    0.041066
  14 H :    0.043221
  15 H :    0.033037
  16 S :    0.078526
  17 C :   -0.107191
  18 C :   -0.025142
  19 C :   -0.088664
  20 C :   -0.122511
  21 H :    0.018865
  22 C :    0.061389
  23 H :    0.030661
  24 H :    0.025291
  25 C :   -0.048859
  26 H :    0.044151
  27 H :    0.034326
  28 C :   -0.088901
  29 H :    0.037761
  30 H :    0.031091
  31 H :    0.033097
  32 H :    0.056055
  33 H :    0.082513
Sum of atomic charges:   -0.0000000

LOEWDIN ATOMIC CHARGES
----------------------
   0 S :    0.400476
   1 C :   -0.209769
   2 C :   -0.076299
   3 C :   -0.064231
   4 C :   -0.170669
   5 H :    0.029498
   6 C :   -0.035612
   7 H :    0.027203
   8 H :    0.030917
   9 C :   -0.038875
  10 H :    0.021835
  11 H :    0.024025
  12 C :   -0.071870
  13 H :    0.030310
  14 H :    0.029516
  15 H :    0.029106
  16 S :    0.382137
  17 C :   -0.192185
  18 C :   -0.075200
  19 C :   -0.055641
  20 C :   -0.183988
  21 H :    0.030729
  22 C :   -0.028485
  23 H :    0.029306
  24 H :    0.028952
  25 C :   -0.037633
  26 H :    0.022297
  27 H :    0.029357
  28 C :   -0.072141
  29 H :    0.033281
  30 H :    0.023526
  31 H :    0.019458
  32 H :    0.041173
  33 H :    0.049494

  Mayer bond orders larger than 0.100000
B(  0-S ,  1-C ) :   1.1244 B(  0-S ,  4-C ) :   1.1299 B(  1-C ,  2-C ) :   1.6283
B(  1-C , 32-H ) :   0.9590 B(  2-C ,  3-C ) :   1.2684 B(  2-C ,  6-C ) :   1.0223
B(  3-C ,  4-C ) :   1.5632 B(  3-C ,  5-H ) :   0.9922 B(  4-C , 20-C ) :   1.0683
B(  6-C ,  7-H ) :   0.9199 B(  6-C ,  8-H ) :   0.9452 B(  6-C ,  9-C ) :   1.0622
B(  9-C , 10-H ) :   0.9536 B(  9-C , 11-H ) :   0.9623 B(  9-C , 12-C ) :   1.0678
B( 12-C , 13-H ) :   0.9738 B( 12-C , 14-H ) :   0.9789 B( 12-C , 15-H ) :   0.9746
B( 16-S , 17-C ) :   1.1344 B( 16-S , 20-C ) :   1.1240 B( 17-C , 18-C ) :   1.6412
B( 17-C , 33-H ) :   0.9534 B( 18-C , 19-C ) :   1.2252 B( 18-C , 21-H ) :   0.9819
B( 19-C , 20-C ) :   1.5991 B( 19-C , 22-C ) :   1.0327 B( 22-C , 23-H ) :   0.9368
B( 22-C , 24-H ) :   0.9414 B( 22-C , 25-C ) :   1.0642 B( 25-C , 26-H ) :   0.9510
B( 25-C , 27-H ) :   0.9596 B( 25-C , 28-C ) :   1.0592 B( 28-C , 29-H ) :   0.9729
B( 28-C , 30-H ) :   0.9789 B( 28-C , 31-H ) :   0.9728

Dispersion correction           -0.014224618
FINAL SINGLE POINT ENERGY     -1339.866831326346

DIPOLE MOMENT
-------------
                                X             Y             Z
Electronic contribution:     21.38806       9.58631      17.59924
Nuclear contribution   :    -21.78406      -9.97927     -18.12140
                        -----------------------------------------
Total Dipole Moment    :     -0.39600      -0.39296      -0.52216
                        -----------------------------------------
Magnitude (a.u.)       :      0.76412
Magnitude (Debye)      :      1.94224

Rotational constants in cm-1:     0.019916     0.008477     0.006319
Rotational constants in MHz :   597.062233   254.133383   189.426651

                             ****ORCA TERMINATED NORMALLY****
TOTAL RUN TIME: 0 days 0 hours 0 minutes 34 seconds 574 msec
