                         Program Version 4.2.1 -  RELEASE  -
|  1> ! wB97X-D3 SP def2-SVP
|  2> %pal
|  3> nprocs 16
|  4> end
|  5>
|  6> * xyz 0 1
|  7> S 	 13.7091 	 23.2158 	 49.9233
|  8> C 	 13.9826 	 22.6754 	 51.5567
|  9> C 	 12.8125 	 22.2771 	 52.2966
| 10> C 	 11.6963 	 22.4052 	 51.4325
| 11> C 	 11.9728 	 22.9203 	 50.1646
| 12> H 	 10.6788 	 22.0799 	 51.6934
| 13> C 	 12.8432 	 21.8684 	 53.7275
| 14> H 	 11.7654 	 21.8597 	 54.0591
| 15> H 	 13.3546 	 22.6065 	 54.3082
| 16> C 	 13.4288 	 20.513 	 54.0452
| 17> H 	 13.0102 	 19.6467 	 53.5447
| 18> H 	 14.4681 	 20.5059 	 53.7091
| 19> C 	 13.4091 	 20.2675 	 55.549
| 20> H 	 12.3195 	 19.9966 	 55.8334
| 21> H 	 14.074 	 19.3903 	 55.6781
| 22> H 	 13.9031 	 21.16 	 56.1335
| 23> S 	 10.4088 	 21.7938 	 48.3252
| 24> C 	 9.5496 	 22.7564 	 47.259
| 25> C 	 9.71833 	 24.0693 	 47.5417
| 26> C 	 10.6132 	 24.4309 	 48.5512
| 27> C 	 10.988 	 23.2297 	 49.1184
| 28> H 	 9.18915 	 24.7624 	 46.9124
| 29> C 	 11.0152 	 25.8652 	 48.9003
| 30> H 	 12.0898 	 25.7794 	 48.9729
| 31> H 	 10.6897 	 26.1401 	 49.8599
| 32> C 	 10.6512 	 26.9371 	 47.9395
| 33> H 	 9.556 	 27.0203 	 47.7873
| 34> H 	 11.0815 	 26.5927 	 46.9812
| 35> C 	 11.1912 	 28.3317 	 48.3292
| 36> H 	 10.8779 	 28.7355 	 49.2552
| 37> H 	 10.817 	 29.0141 	 47.5176
| 38> H 	 12.3075 	 28.3857 	 48.3589
| 39> H 	 14.9619 	 22.4436 	 51.9809
| 40> H 	 8.77712 	 22.3748 	 46.5714
| 41> *
| 42>
| 43>                          ****END OF INPUT****

CARTESIAN COORDINATES (ANGSTROEM)
---------------------------------
  S     13.709100   23.215800   49.923300
  C     13.982600   22.675400   51.556700
  C     12.812500   22.277100   52.296600
  C     11.696300   22.405200   51.432500
  C     11.972800   22.920300   50.164600
  H     10.678800   22.079900   51.693400
  C     12.843200   21.868400   53.727500
  H     11.765400   21.859700   54.059100
  H     13.354600   22.606500   54.308200
  C     13.428800   20.513000   54.045200
  H     13.010200   19.646700   53.544700
  H     14.468100   20.505900   53.709100
  C     13.409100   20.267500   55.549000
  H     12.319500   19.996600   55.833400
  H     14.074000   19.390300   55.678100
  H     13.903100   21.160000   56.133500
  S     10.408800   21.793800   48.325200
  C      9.549600   22.756400   47.259000
  C      9.718330   24.069300   47.541700
  C     10.613200   24.430900   48.551200
  C     10.988000   23.229700   49.118400
  H      9.189150   24.762400   46.912400
  C     11.015200   25.865200   48.900300
  H     12.089800   25.779400   48.972900
  H     10.689700   26.140100   49.859900
  C     10.651200   26.937100   47.939500
  H      9.556000   27.020300   47.787300
  H     11.081500   26.592700   46.981200
  C     11.191200   28.331700   48.329200
  H     10.877900   28.735500   49.255200
  H     10.817000   29.014100   47.517600
  H     12.307500   28.385700   48.358900
  H     14.961900   22.443600   51.980900
  H      8.777120   22.374800   46.571400

 Total Charge           Charge          ....    0
 Multiplicity           Mult            ....    1
 Number of Electrons    NEL             ....  134
 Basis Dimension        Dim             ....  322

ORBITAL ENERGIES
----------------

  NO   OCC          E(Eh)            E(eV)
   0   2.0000     -88.970557     -2421.0119
   1   2.0000     -88.961556     -2420.7670
   2   2.0000     -10.324590      -280.9464
   3   2.0000     -10.318261      -280.7742
   4   2.0000     -10.313880      -280.6550
   5   2.0000     -10.303432      -280.3706
   6   2.0000     -10.300800      -280.2990
   7   2.0000     -10.299343      -280.2594
   8   2.0000     -10.295025      -280.1419
   9   2.0000     -10.294675      -280.1323
  10   2.0000     -10.291680      -280.0508
  11   2.0000     -10.289575      -279.9936
  12   2.0000     -10.285617      -279.8859
  13   2.0000     -10.283802      -279.8365
  14   2.0000     -10.283699      -279.8337
  15   2.0000     -10.279659      -279.7237
  16   2.0000      -8.084223      -219.9829
  17   2.0000      -8.078149      -219.8176
  18   2.0000      -6.042528      -164.4255
  19   2.0000      -6.038936      -164.3278
  20   2.0000      -6.036343      -164.2572
  21   2.0000      -6.035236      -164.2271
  22   2.0000      -6.032388      -164.1496
  23   2.0000      -6.029142      -164.0613
  24   2.0000      -1.012412       -27.5491
  25   2.0000      -0.981136       -26.6981
  26   2.0000      -0.917576       -24.9685
  27   2.0000      -0.916517       -24.9397
  28   2.0000      -0.862972       -23.4827
  29   2.0000      -0.855425       -23.2773
  30   2.0000      -0.850539       -23.1444
  31   2.0000      -0.807166       -21.9641
  32   2.0000      -0.788233       -21.4489
  33   2.0000      -0.764610       -20.8061
  34   2.0000      -0.704998       -19.1840
  35   2.0000      -0.694930       -18.9100
  36   2.0000      -0.691019       -18.8036
  37   2.0000      -0.650027       -17.6881
  38   2.0000      -0.633210       -17.2305
  39   2.0000      -0.619553       -16.8589
  40   2.0000      -0.604462       -16.4482
  41   2.0000      -0.575283       -15.6542
  42   2.0000      -0.569860       -15.5067
  43   2.0000      -0.557942       -15.1824
  44   2.0000      -0.528435       -14.3794
  45   2.0000      -0.525476       -14.2989
  46   2.0000      -0.512002       -13.9323
  47   2.0000      -0.507661       -13.8142
  48   2.0000      -0.500246       -13.6124
  49   2.0000      -0.493759       -13.4359
  50   2.0000      -0.491804       -13.3827
  51   2.0000      -0.474335       -12.9073
  52   2.0000      -0.471287       -12.8244
  53   2.0000      -0.460695       -12.5362
  54   2.0000      -0.452437       -12.3114
  55   2.0000      -0.447811       -12.1856
  56   2.0000      -0.446834       -12.1590
  57   2.0000      -0.439707       -11.9650
  58   2.0000      -0.432243       -11.7619
  59   2.0000      -0.429789       -11.6952
  60   2.0000      -0.426238       -11.5985
  61   2.0000      -0.418751       -11.3948
  62   2.0000      -0.412891       -11.2353
  63   2.0000      -0.337415        -9.1815
  64   2.0000      -0.333714        -9.0808
  65   2.0000      -0.322499        -8.7756
  66   2.0000      -0.292082        -7.9480
  67   0.0000       0.040306         1.0968
  68   0.0000       0.062923         1.7122
  69   0.0000       0.111914         3.0453
  70   0.0000       0.118760         3.2316
  71   0.0000       0.136670         3.7190

MULLIKEN ATOMIC CHARGES
-----------------------
   0 S :    0.131064
   1 C :   -0.128001
   2 C :   -0.082411
   3 C :    0.030672
   4 C :   -0.170999
   5 H :    0.015642
   6 C :    0.070701
   7 H :    0.022286
   8 H :    0.028481
   9 C :   -0.080465
  10 H :    0.030874
  11 H :    0.017084
  12 C :   -0.092397
  13 H :    0.054361
  14 H :    0.040851
  15 H :    0.050581
  16 S :    0.132103
  17 C :   -0.084398
  18 C :   -0.066178
  19 C :   -0.009678
  20 C :   -0.228476
  21 H :   -0.000912
  22 C :    0.166438
  23 H :    0.012902
  24 H :    0.018057
  25 C :   -0.123398
  26 H :    0.040565
  27 H :    0.032115
  28 C :   -0.039330
  29 H :    0.026474
  30 H :    0.041765
  31 H :    0.036762
  32 H :    0.047324
  33 H :    0.059540
Sum of atomic charges:    0.0000000

LOEWDIN ATOMIC CHARGES
----------------------
   0 S :    0.407950
   1 C :   -0.207129
   2 C :   -0.062035
   3 C :   -0.061308
   4 C :   -0.202454
   5 H :    0.033659
   6 C :   -0.035950
   7 H :    0.036063
   8 H :    0.032006
   9 C :   -0.046842
  10 H :    0.025907
  11 H :    0.019560
  12 C :   -0.077317
  13 H :    0.035625
  14 H :    0.028328
  15 H :    0.036289
  16 S :    0.448425
  17 C :   -0.220558
  18 C :   -0.078466
  19 C :   -0.050960
  20 C :   -0.204397
  21 H :    0.023418
  22 C :   -0.025169
  23 H :    0.031650
  24 H :    0.026917
  25 C :   -0.045564
  26 H :    0.026675
  27 H :    0.028690
  28 C :   -0.063443
  29 H :    0.017786
  30 H :    0.035560
  31 H :    0.029765
  32 H :    0.022843
  33 H :    0.034475

  Mayer bond orders larger than 0.100000
B(  0-S ,  1-C ) :   1.1649 B(  0-S ,  4-C ) :   1.1427 B(  1-C ,  2-C ) :   1.5674
B(  1-C ,  4-C ) :   0.1059 B(  1-C , 32-H ) :   0.9623 B(  2-C ,  3-C ) :   1.2828
B(  2-C ,  6-C ) :   1.0216 B(  3-C ,  4-C ) :   1.5673 B(  3-C ,  5-H ) :   0.9856
B(  4-C , 20-C ) :   1.0053 B(  6-C ,  7-H ) :   0.9390 B(  6-C ,  8-H ) :   0.9345
B(  6-C ,  9-C ) :   1.0699 B(  9-C , 10-H ) :   0.9521 B(  9-C , 11-H ) :   0.9531
B(  9-C , 12-C ) :   1.0824 B( 12-C , 13-H ) :   0.9728 B( 12-C , 14-H ) :   0.9737
B( 12-C , 15-H ) :   0.9697 B( 16-S , 17-C ) :   1.1609 B( 16-S , 20-C ) :   1.1936
B( 17-C , 18-C ) :   1.6039 B( 17-C , 33-H ) :   0.9573 B( 18-C , 19-C ) :   1.2609
B( 18-C , 21-H ) :   0.9839 B( 19-C , 20-C ) :   1.5782 B( 19-C , 22-C ) :   1.0089
B( 22-C , 23-H ) :   0.9172 B( 22-C , 24-H ) :   0.9203 B( 22-C , 25-C ) :   1.0948
B( 25-C , 26-H ) :   0.9452 B( 25-C , 27-H ) :   0.9509 B( 25-C , 28-C ) :   1.0828
B( 28-C , 29-H ) :   0.9752 B( 28-C , 30-H ) :   0.9737 B( 28-C , 31-H ) :   0.9740

Dispersion correction           -0.013307305
FINAL SINGLE POINT ENERGY     -1339.872144008225

DIPOLE MOMENT
-------------
                                X             Y             Z
Electronic contribution:     -1.35610      -9.33516     -15.05761
Nuclear contribution   :      1.26525       9.49394      15.32428
                        -----------------------------------------
Total Dipole Moment    :     -0.09086       0.15878       0.26667
                        -----------------------------------------
Magnitude (a.u.)       :      0.32339
Magnitude (Debye)      :      0.82200

Rotational constants in cm-1:     0.022365     0.006746     0.005784
Rotational constants in MHz :   670.484878   202.225284   173.409989

                             ****ORCA TERMINATED NORMALLY****
TOTAL RUN TIME: 0 days 0 hours 0 minutes 32 seconds 622 msec
