                         Program Version 4.2.1 -  RELEASE  -
|  1> ! wB97X-D3 SP def2-SVP
|  2> %pal
|  3> nprocs 16
|  4> end
|  5>
|  6> * xyz 0 1
|  7> S 	 -44.246 	 37.3102 	 81.5147
|  8> C 	 -42.8134 	 38.0983 	 80.8284
|  9> C 	 -42.9745 	 38.1437 	 79.4427
| 10> C 	 -44.2649 	 37.705 	 79.001
| 11> C 	 -45.0873 	 37.1991 	 79.9868
| 12> H 	 -44.724 	 37.706 	 78.0222
| 13> C 	 -41.9282 	 38.6271 	 78.524
| 14> H 	 -41.4021 	 39.4861 	 79.0102
| 15> H 	 -42.4628 	 39.1031 	 77.6558
| 16> C 	 -40.9219 	 37.5462 	 78.1235
| 17> H 	 -40.1971 	 38.1107 	 77.4642
| 18> H 	 -40.3608 	 37.1885 	 79.0375
| 19> C 	 -41.4942 	 36.3301 	 77.3542
| 20> H 	 -41.6444 	 36.5727 	 76.3309
| 21> H 	 -40.7235 	 35.6091 	 77.401
| 22> H 	 -42.3955 	 35.9231 	 77.9048
| 23> S 	 -46.5497 	 35.2359 	 78.8909
| 24> C 	 -48.2398 	 34.9361 	 79.3891
| 25> C 	 -48.644 	 35.926 	 80.2847
| 26> C 	 -47.5786 	 36.769 	 80.7493
| 27> C 	 -46.3883 	 36.6237 	 79.9474
| 28> H 	 -49.6223 	 35.8495 	 80.709
| 29> C 	 -47.8718 	 37.7956 	 81.8111
| 30> H 	 -46.9099 	 37.8241 	 82.3198
| 31> H 	 -48.7758 	 37.5562 	 82.3662
| 32> C 	 -48.0708 	 39.2666 	 81.4073
| 33> H 	 -47.382 	 39.6244 	 80.6829
| 34> H 	 -47.8872 	 39.8853 	 82.2783
| 35> C 	 -49.5194 	 39.6297 	 80.9205
| 36> H 	 -49.94 	 40.2828 	 81.6576
| 37> H 	 -50.2513 	 38.8375 	 80.8549
| 38> H 	 -49.4388 	 40.2018 	 80.0617
| 39> H 	 -41.8542 	 38.2244 	 81.3625
| 40> H 	 -48.8725 	 34.0588 	 79.1438
| 41> *
| 42>
| 43>                          ****END OF INPUT****

CARTESIAN COORDINATES (ANGSTROEM)
---------------------------------
  S    -44.246000   37.310200   81.514700
  C    -42.813400   38.098300   80.828400
  C    -42.974500   38.143700   79.442700
  C    -44.264900   37.705000   79.001000
  C    -45.087300   37.199100   79.986800
  H    -44.724000   37.706000   78.022200
  C    -41.928200   38.627100   78.524000
  H    -41.402100   39.486100   79.010200
  H    -42.462800   39.103100   77.655800
  C    -40.921900   37.546200   78.123500
  H    -40.197100   38.110700   77.464200
  H    -40.360800   37.188500   79.037500
  C    -41.494200   36.330100   77.354200
  H    -41.644400   36.572700   76.330900
  H    -40.723500   35.609100   77.401000
  H    -42.395500   35.923100   77.904800
  S    -46.549700   35.235900   78.890900
  C    -48.239800   34.936100   79.389100
  C    -48.644000   35.926000   80.284700
  C    -47.578600   36.769000   80.749300
  C    -46.388300   36.623700   79.947400
  H    -49.622300   35.849500   80.709000
  C    -47.871800   37.795600   81.811100
  H    -46.909900   37.824100   82.319800
  H    -48.775800   37.556200   82.366200
  C    -48.070800   39.266600   81.407300
  H    -47.382000   39.624400   80.682900
  H    -47.887200   39.885300   82.278300
  C    -49.519400   39.629700   80.920500
  H    -49.940000   40.282800   81.657600
  H    -50.251300   38.837500   80.854900
  H    -49.438800   40.201800   80.061700
  H    -41.854200   38.224400   81.362500
  H    -48.872500   34.058800   79.143800

 Total Charge           Charge          ....    0
 Multiplicity           Mult            ....    1
 Number of Electrons    NEL             ....  134
 Basis Dimension        Dim             ....  322

ORBITAL ENERGIES
----------------

  NO   OCC          E(Eh)            E(eV)
   0   2.0000     -88.970131     -2421.0003
   1   2.0000     -88.963067     -2420.8081
   2   2.0000     -10.332356      -281.1577
   3   2.0000     -10.329714      -281.0858
   4   2.0000     -10.324910      -280.9551
   5   2.0000     -10.318000      -280.7670
   6   2.0000     -10.311811      -280.5986
   7   2.0000     -10.302110      -280.3347
   8   2.0000     -10.295570      -280.1567
   9   2.0000     -10.294546      -280.1288
  10   2.0000     -10.294303      -280.1222
  11   2.0000     -10.292135      -280.0632
  12   2.0000     -10.288683      -279.9693
  13   2.0000     -10.279183      -279.7108
  14   2.0000     -10.273778      -279.5637
  15   2.0000     -10.265090      -279.3273
  16   2.0000      -8.083770      -219.9706
  17   2.0000      -8.077342      -219.7957
  18   2.0000      -6.042349      -164.4207
  19   2.0000      -6.038244      -164.3090
  20   2.0000      -6.035907      -164.2454
  21   2.0000      -6.034697      -164.2125
  22   2.0000      -6.031758      -164.1325
  23   2.0000      -6.028203      -164.0357
  24   2.0000      -1.005286       -27.3552
  25   2.0000      -0.978768       -26.6336
  26   2.0000      -0.912868       -24.8404
  27   2.0000      -0.905517       -24.6404
  28   2.0000      -0.871047       -23.7024
  29   2.0000      -0.847968       -23.0744
  30   2.0000      -0.840040       -22.8587
  31   2.0000      -0.816862       -22.2280
  32   2.0000      -0.785964       -21.3872
  33   2.0000      -0.769778       -20.9467
  34   2.0000      -0.711823       -19.3697
  35   2.0000      -0.696393       -18.9498
  36   2.0000      -0.688872       -18.7452
  37   2.0000      -0.663636       -18.0585
  38   2.0000      -0.638919       -17.3859
  39   2.0000      -0.609736       -16.5918
  40   2.0000      -0.589029       -16.0283
  41   2.0000      -0.574531       -15.6338
  42   2.0000      -0.558510       -15.1978
  43   2.0000      -0.545321       -14.8389
  44   2.0000      -0.541945       -14.7471
  45   2.0000      -0.537380       -14.6229
  46   2.0000      -0.522201       -14.2098
  47   2.0000      -0.516215       -14.0469
  48   2.0000      -0.508943       -13.8491
  49   2.0000      -0.493541       -13.4299
  50   2.0000      -0.490957       -13.3596
  51   2.0000      -0.478827       -13.0295
  52   2.0000      -0.470728       -12.8092
  53   2.0000      -0.463195       -12.6042
  54   2.0000      -0.461525       -12.5587
  55   2.0000      -0.441700       -12.0193
  56   2.0000      -0.437340       -11.9006
  57   2.0000      -0.434886       -11.8338
  58   2.0000      -0.431970       -11.7545
  59   2.0000      -0.423191       -11.5156
  60   2.0000      -0.418711       -11.3937
  61   2.0000      -0.409903       -11.1540
  62   2.0000      -0.403633       -10.9834
  63   2.0000      -0.348747        -9.4899
  64   2.0000      -0.330738        -8.9998
  65   2.0000      -0.326830        -8.8935
  66   2.0000      -0.287431        -7.8214
  67   0.0000       0.021849         0.5945
  68   0.0000       0.063293         1.7223
  69   0.0000       0.108122         2.9421
  70   0.0000       0.116619         3.1734
  71   0.0000       0.124714         3.3936

MULLIKEN ATOMIC CHARGES
-----------------------
   0 S :    0.092795
   1 C :   -0.126195
   2 C :   -0.095128
   3 C :    0.027857
   4 C :   -0.153069
   5 H :    0.008166
   6 C :    0.040602
   7 H :    0.034046
   8 H :    0.030941
   9 C :   -0.110499
  10 H :    0.036269
  11 H :    0.035490
  12 C :   -0.024522
  13 H :    0.029976
  14 H :    0.022882
  15 H :    0.058429
  16 S :    0.111632
  17 C :   -0.114419
  18 C :   -0.027065
  19 C :   -0.038401
  20 C :   -0.153472
  21 H :    0.016101
  22 C :    0.081035
  23 H :    0.023454
  24 H :    0.026419
  25 C :   -0.062808
  26 H :    0.022112
  27 H :    0.027627
  28 C :   -0.026837
  29 H :    0.015795
  30 H :    0.025584
  31 H :    0.021362
  32 H :    0.068401
  33 H :    0.075440
Sum of atomic charges:    0.0000000

LOEWDIN ATOMIC CHARGES
----------------------
   0 S :    0.401829
   1 C :   -0.200905
   2 C :   -0.064921
   3 C :   -0.074271
   4 C :   -0.196055
   5 H :    0.031704
   6 C :   -0.046481
   7 H :    0.036474
   8 H :    0.034948
   9 C :   -0.043435
  10 H :    0.028184
  11 H :    0.027081
  12 C :   -0.062899
  13 H :    0.021389
  14 H :    0.022316
  15 H :    0.037441
  16 S :    0.408717
  17 C :   -0.184859
  18 C :   -0.070140
  19 C :   -0.045985
  20 C :   -0.210001
  21 H :    0.028129
  22 C :   -0.035316
  23 H :    0.029375
  24 H :    0.032711
  25 C :   -0.030336
  26 H :    0.020127
  27 H :    0.025347
  28 C :   -0.063910
  29 H :    0.024593
  30 H :    0.021569
  31 H :    0.018863
  32 H :    0.038033
  33 H :    0.040683

  Mayer bond orders larger than 0.100000
B(  0-S ,  1-C ) :   1.1305 B(  0-S ,  4-C ) :   1.1506 B(  1-C ,  2-C ) :   1.6004
B(  1-C ,  4-C ) :   0.1007 B(  1-C , 32-H ) :   0.9652 B(  2-C ,  3-C ) :   1.2185
B(  2-C ,  6-C ) :   1.0280 B(  3-C ,  4-C ) :   1.5695 B(  3-C ,  5-H ) :   0.9991
B(  4-C , 20-C ) :   1.0679 B(  6-C ,  7-H ) :   0.9409 B(  6-C ,  8-H ) :   0.9414
B(  6-C ,  9-C ) :   1.0650 B(  9-C , 10-H ) :   0.9554 B(  9-C , 11-H ) :   0.9584
B(  9-C , 12-C ) :   1.0738 B( 12-C , 13-H ) :   0.9755 B( 12-C , 14-H ) :   0.9724
B( 12-C , 15-H ) :   0.9700 B( 16-S , 17-C ) :   1.1557 B( 16-S , 20-C ) :   1.1497
B( 17-C , 18-C ) :   1.5916 B( 17-C , 20-C ) :   0.1115 B( 17-C , 33-H ) :   0.9623
B( 18-C , 19-C ) :   1.2667 B( 18-C , 21-H ) :   0.9846 B( 19-C , 20-C ) :   1.5087
B( 19-C , 22-C ) :   1.0638 B( 22-C , 23-H ) :   0.9103 B( 22-C , 24-H ) :   0.9388
B( 22-C , 25-C ) :   1.0781 B( 25-C , 26-H ) :   0.9622 B( 25-C , 27-H ) :   0.9634
B( 25-C , 28-C ) :   1.0566 B( 28-C , 29-H ) :   0.9784 B( 28-C , 30-H ) :   0.9816
B( 28-C , 31-H ) :   0.9794

Dispersion correction           -0.014694390
FINAL SINGLE POINT ENERGY     -1339.863346710957

DIPOLE MOMENT
-------------
                                X             Y             Z
Electronic contribution:     -2.22189     -11.63801       4.01747
Nuclear contribution   :      2.20028      11.81554      -4.07901
                        -----------------------------------------
Total Dipole Moment    :     -0.02161       0.17754      -0.06155
                        -----------------------------------------
Magnitude (a.u.)       :      0.18914
Magnitude (Debye)      :      0.48076

Rotational constants in cm-1:     0.022086     0.008261     0.006885
Rotational constants in MHz :   662.114674   247.664912   206.410488

                             ****ORCA TERMINATED NORMALLY****
TOTAL RUN TIME: 0 days 0 hours 0 minutes 28 seconds 119 msec
