                         Program Version 4.2.1 -  RELEASE  -
|  1> ! wB97X-D3 SP def2-SVP
|  2> %pal
|  3> nprocs 16
|  4> end
|  5>
|  6> * xyz 0 1
|  7> S 	 -36.5552 	 51.1403 	 102.203
|  8> C 	 -35.0478 	 50.5029 	 101.487
|  9> C 	 -34.757 	 51.2212 	 100.367
| 10> C 	 -35.6807 	 52.2499 	 100.074
| 11> C 	 -36.8061 	 52.2251 	 100.89
| 12> H 	 -35.6304 	 53.082 	 99.3978
| 13> C 	 -33.5898 	 50.9679 	 99.5166
| 14> H 	 -32.6724 	 51.1032 	 100.163
| 15> H 	 -33.5223 	 51.7099 	 98.7287
| 16> C 	 -33.655 	 49.6784 	 98.6546
| 17> H 	 -32.6659 	 49.3855 	 98.3207
| 18> H 	 -34.0153 	 48.8356 	 99.1987
| 19> C 	 -34.7194 	 49.7838 	 97.5427
| 20> H 	 -34.9507 	 48.775 	 97.0908
| 21> H 	 -35.6522 	 50.1772 	 98.0108
| 22> H 	 -34.4733 	 50.4979 	 96.7552
| 23> S 	 -38.6268 	 53.7785 	 102.299
| 24> C 	 -40.159 	 54.1978 	 101.39
| 25> C 	 -40.1219 	 53.7219 	 100.109
| 26> C 	 -38.9096 	 53.0676 	 99.7826
| 27> C 	 -38.0521 	 53.0041 	 100.844
| 28> H 	 -40.9297 	 53.7407 	 99.4745
| 29> C 	 -38.5902 	 52.519 	 98.3578
| 30> H 	 -39.4974 	 52.1236 	 98.0316
| 31> H 	 -37.8684 	 51.7574 	 98.3284
| 32> C 	 -38.0459 	 53.7018 	 97.4337
| 33> H 	 -36.9587 	 53.8388 	 97.5546
| 34> H 	 -38.4759 	 54.5774 	 97.7674
| 35> C 	 -38.301 	 53.5385 	 95.9355
| 36> H 	 -37.8499 	 54.3401 	 95.365
| 37> H 	 -39.3342 	 53.5997 	 95.6188
| 38> H 	 -37.8326 	 52.6516 	 95.5063
| 39> H 	 -34.488 	 49.7021 	 101.904
| 40> H 	 -41.0645 	 54.4897 	 101.836
| 41> *
| 42>
| 43>                          ****END OF INPUT****

CARTESIAN COORDINATES (ANGSTROEM)
---------------------------------
  S    -36.555200   51.140300  102.203000
  C    -35.047800   50.502900  101.487000
  C    -34.757000   51.221200  100.367000
  C    -35.680700   52.249900  100.074000
  C    -36.806100   52.225100  100.890000
  H    -35.630400   53.082000   99.397800
  C    -33.589800   50.967900   99.516600
  H    -32.672400   51.103200  100.163000
  H    -33.522300   51.709900   98.728700
  C    -33.655000   49.678400   98.654600
  H    -32.665900   49.385500   98.320700
  H    -34.015300   48.835600   99.198700
  C    -34.719400   49.783800   97.542700
  H    -34.950700   48.775000   97.090800
  H    -35.652200   50.177200   98.010800
  H    -34.473300   50.497900   96.755200
  S    -38.626800   53.778500  102.299000
  C    -40.159000   54.197800  101.390000
  C    -40.121900   53.721900  100.109000
  C    -38.909600   53.067600   99.782600
  C    -38.052100   53.004100  100.844000
  H    -40.929700   53.740700   99.474500
  C    -38.590200   52.519000   98.357800
  H    -39.497400   52.123600   98.031600
  H    -37.868400   51.757400   98.328400
  C    -38.045900   53.701800   97.433700
  H    -36.958700   53.838800   97.554600
  H    -38.475900   54.577400   97.767400
  C    -38.301000   53.538500   95.935500
  H    -37.849900   54.340100   95.365000
  H    -39.334200   53.599700   95.618800
  H    -37.832600   52.651600   95.506300
  H    -34.488000   49.702100  101.904000
  H    -41.064500   54.489700  101.836000

 Total Charge           Charge          ....    0
 Multiplicity           Mult            ....    1
 Number of Electrons    NEL             ....  134
 Basis Dimension        Dim             ....  322

ORBITAL ENERGIES
----------------

  NO   OCC          E(Eh)            E(eV)
   0   2.0000     -88.968638     -2420.9597
   1   2.0000     -88.962658     -2420.7970
   2   2.0000     -10.327258      -281.0190
   3   2.0000     -10.325007      -280.9577
   4   2.0000     -10.319565      -280.8096
   5   2.0000     -10.311063      -280.5783
   6   2.0000     -10.301062      -280.3061
   7   2.0000     -10.296376      -280.1786
   8   2.0000     -10.291143      -280.0362
   9   2.0000     -10.291015      -280.0328
  10   2.0000     -10.290890      -280.0294
  11   2.0000     -10.289444      -279.9900
  12   2.0000     -10.286031      -279.8971
  13   2.0000     -10.285337      -279.8782
  14   2.0000     -10.283631      -279.8318
  15   2.0000     -10.276126      -279.6276
  16   2.0000      -8.082315      -219.9310
  17   2.0000      -8.077549      -219.8013
  18   2.0000      -6.040941      -164.3824
  19   2.0000      -6.037166      -164.2796
  20   2.0000      -6.035976      -164.2473
  21   2.0000      -6.032821      -164.1614
  22   2.0000      -6.031988      -164.1387
  23   2.0000      -6.028419      -164.0416
  24   2.0000      -1.008454       -27.4414
  25   2.0000      -0.984697       -26.7950
  26   2.0000      -0.915470       -24.9112
  27   2.0000      -0.901888       -24.5416
  28   2.0000      -0.870255       -23.6808
  29   2.0000      -0.851008       -23.1571
  30   2.0000      -0.844144       -22.9703
  31   2.0000      -0.818570       -22.2744
  32   2.0000      -0.783594       -21.3227
  33   2.0000      -0.772033       -21.0081
  34   2.0000      -0.709148       -19.2969
  35   2.0000      -0.705623       -19.2010
  36   2.0000      -0.700842       -19.0709
  37   2.0000      -0.670720       -18.2512
  38   2.0000      -0.646777       -17.5997
  39   2.0000      -0.610648       -16.6166
  40   2.0000      -0.597332       -16.2542
  41   2.0000      -0.578368       -15.7382
  42   2.0000      -0.563393       -15.3307
  43   2.0000      -0.557323       -15.1655
  44   2.0000      -0.536815       -14.6075
  45   2.0000      -0.523340       -14.2408
  46   2.0000      -0.519367       -14.1327
  47   2.0000      -0.514567       -14.0021
  48   2.0000      -0.510093       -13.8803
  49   2.0000      -0.497835       -13.5468
  50   2.0000      -0.484869       -13.1940
  51   2.0000      -0.482650       -13.1336
  52   2.0000      -0.469125       -12.7655
  53   2.0000      -0.468603       -12.7513
  54   2.0000      -0.457047       -12.4369
  55   2.0000      -0.455826       -12.4037
  56   2.0000      -0.440017       -11.9735
  57   2.0000      -0.436057       -11.8657
  58   2.0000      -0.432320       -11.7640
  59   2.0000      -0.428735       -11.6665
  60   2.0000      -0.422255       -11.4901
  61   2.0000      -0.420817       -11.4510
  62   2.0000      -0.413385       -11.2488
  63   2.0000      -0.346928        -9.4404
  64   2.0000      -0.334005        -9.0887
  65   2.0000      -0.328785        -8.9467
  66   2.0000      -0.294092        -8.0026
  67   0.0000       0.027414         0.7460
  68   0.0000       0.068168         1.8550
  69   0.0000       0.101258         2.7554
  70   0.0000       0.124592         3.3903
  71   0.0000       0.130426         3.5491

MULLIKEN ATOMIC CHARGES
-----------------------
   0 S :    0.096126
   1 C :   -0.117244
   2 C :   -0.070132
   3 C :    0.021161
   4 C :   -0.153592
   5 H :    0.007143
   6 C :    0.051966
   7 H :    0.050104
   8 H :    0.010022
   9 C :   -0.029850
  10 H :    0.027057
  11 H :    0.015239
  12 C :   -0.100758
  13 H :    0.046831
  14 H :    0.048420
  15 H :    0.029489
  16 S :    0.099007
  17 C :   -0.067265
  18 C :    0.006569
  19 C :   -0.069310
  20 C :   -0.158240
  21 H :   -0.012104
  22 C :    0.142400
  23 H :    0.003766
  24 H :    0.018341
  25 C :   -0.048918
  26 H :    0.028647
  27 H :    0.013127
  28 C :   -0.049553
  29 H :    0.021980
  30 H :    0.028839
  31 H :    0.029508
  32 H :    0.037408
  33 H :    0.043819
Sum of atomic charges:    0.0000000

LOEWDIN ATOMIC CHARGES
----------------------
   0 S :    0.402505
   1 C :   -0.179995
   2 C :   -0.069898
   3 C :   -0.071319
   4 C :   -0.187694
   5 H :    0.029152
   6 C :   -0.036765
   7 H :    0.040965
   8 H :    0.026973
   9 C :   -0.035819
  10 H :    0.021832
  11 H :    0.018278
  12 C :   -0.070898
  13 H :    0.033373
  14 H :    0.030512
  15 H :    0.018972
  16 S :    0.372013
  17 C :   -0.150872
  18 C :   -0.051485
  19 C :   -0.051881
  20 C :   -0.200757
  21 H :    0.020116
  22 C :   -0.008504
  23 H :    0.019821
  24 H :    0.021522
  25 C :   -0.028086
  26 H :    0.026062
  27 H :    0.012524
  28 C :   -0.069398
  29 H :    0.026568
  30 H :    0.022600
  31 H :    0.024979
  32 H :    0.023865
  33 H :    0.020737

  Mayer bond orders larger than 0.100000
B(  0-S ,  1-C ) :   1.1256 B(  0-S ,  4-C ) :   1.1759 B(  1-C ,  2-C ) :   1.5975
B(  1-C ,  4-C ) :   0.1002 B(  1-C , 32-H ) :   0.9821 B(  2-C ,  3-C ) :   1.2256
B(  2-C ,  6-C ) :   1.0332 B(  3-C ,  4-C ) :   1.5577 B(  3-C ,  5-H ) :   1.0026
B(  4-C , 20-C ) :   1.0185 B(  6-C ,  7-H ) :   0.9374 B(  6-C ,  8-H ) :   0.9437
B(  6-C ,  9-C ) :   1.0553 B(  9-C , 10-H ) :   0.9583 B(  9-C , 11-H ) :   0.9605
B(  9-C , 12-C ) :   1.0639 B( 12-C , 13-H ) :   0.9736 B( 12-C , 14-H ) :   0.9756
B( 12-C , 15-H ) :   0.9747 B( 16-S , 17-C ) :   1.1150 B( 16-S , 20-C ) :   1.1330
B( 17-C , 18-C ) :   1.6400 B( 17-C , 33-H ) :   0.9699 B( 18-C , 19-C ) :   1.2315
B( 18-C , 21-H ) :   0.9965 B( 19-C , 20-C ) :   1.6254 B( 19-C , 22-C ) :   1.0445
B( 22-C , 23-H ) :   0.9348 B( 22-C , 24-H ) :   0.9305 B( 22-C , 25-C ) :   1.0460
B( 25-C , 26-H ) :   0.9505 B( 25-C , 27-H ) :   0.9612 B( 25-C , 28-C ) :   1.0896
B( 28-C , 29-H ) :   0.9703 B( 28-C , 30-H ) :   0.9766 B( 28-C , 31-H ) :   0.9746

Dispersion correction           -0.015267560
FINAL SINGLE POINT ENERGY     -1339.870353385427

DIPOLE MOMENT
-------------
                                X             Y             Z
Electronic contribution:     -8.36157       5.22827      29.95822
Nuclear contribution   :      8.38444      -5.33094     -30.62100
                        -----------------------------------------
Total Dipole Moment    :      0.02286      -0.10267      -0.66277
                        -----------------------------------------
Magnitude (a.u.)       :      0.67107
Magnitude (Debye)      :      1.70572

Rotational constants in cm-1:     0.017349     0.010504     0.006984
Rotational constants in MHz :   520.097408   314.889750   209.383708

                             ****ORCA TERMINATED NORMALLY****
TOTAL RUN TIME: 0 days 0 hours 0 minutes 31 seconds 993 msec
