                         Program Version 4.2.1 -  RELEASE  -
|  1> ! wB97X-D3 SP def2-SVP
|  2> %pal
|  3> nprocs 16
|  4> end
|  5>
|  6> * xyz 0 1
|  7> S 	 4.97064 	 26.579 	 69.0832
|  8> C 	 3.31233 	 26.2783 	 68.4109
|  9> C 	 3.33258 	 25.8334 	 67.1407
| 10> C 	 4.63393 	 25.9962 	 66.5561
| 11> C 	 5.62433 	 26.5336 	 67.4169
| 12> H 	 4.8685 	 25.8497 	 65.537
| 13> C 	 2.08427 	 25.3702 	 66.3126
| 14> H 	 2.01358 	 26.0374 	 65.4773
| 15> H 	 1.17321 	 25.5682 	 66.8867
| 16> C 	 2.30974 	 23.9012 	 65.8461
| 17> H 	 3.37459 	 23.6922 	 65.6058
| 18> H 	 1.95851 	 23.2127 	 66.5698
| 19> C 	 1.62991 	 23.6496 	 64.431
| 20> H 	 2.0382 	 24.3527 	 63.7091
| 21> H 	 1.84225 	 22.646 	 64.189
| 22> H 	 0.553924 	 23.7453 	 64.5213
| 23> S 	 7.95921 	 27.413 	 68.6672
| 24> C 	 9.4088 	 27.7087 	 67.7918
| 25> C 	 9.0685 	 27.7829 	 66.496
| 26> C 	 7.81238 	 27.2476 	 66.1345
| 27> C 	 7.02024 	 26.894 	 67.2472
| 28> H 	 9.80636 	 28.3159 	 65.8572
| 29> C 	 7.31678 	 27.4242 	 64.7027
| 30> H 	 6.80953 	 26.5139 	 64.4085
| 31> H 	 8.21162 	 27.5484 	 64.1148
| 32> C 	 6.37636 	 28.6057 	 64.4778
| 33> H 	 7.06236 	 29.4588 	 64.5622
| 34> H 	 5.69497 	 28.6914 	 65.355
| 35> C 	 5.6031 	 28.6869 	 63.0674
| 36> H 	 5.34595 	 27.6875 	 62.6279
| 37> H 	 6.32921 	 28.9483 	 62.3032
| 38> H 	 4.81016 	 29.4547 	 62.9668
| 39> H 	 2.45476 	 26.2856 	 69.0246
| 40> H 	 10.3015 	 28.2595 	 68.1241
| 41> *
| 42>
| 43>                          ****END OF INPUT****

CARTESIAN COORDINATES (ANGSTROEM)
---------------------------------
  S      4.970640   26.579000   69.083200
  C      3.312330   26.278300   68.410900
  C      3.332580   25.833400   67.140700
  C      4.633930   25.996200   66.556100
  C      5.624330   26.533600   67.416900
  H      4.868500   25.849700   65.537000
  C      2.084270   25.370200   66.312600
  H      2.013580   26.037400   65.477300
  H      1.173210   25.568200   66.886700
  C      2.309740   23.901200   65.846100
  H      3.374590   23.692200   65.605800
  H      1.958510   23.212700   66.569800
  C      1.629910   23.649600   64.431000
  H      2.038200   24.352700   63.709100
  H      1.842250   22.646000   64.189000
  H      0.553924   23.745300   64.521300
  S      7.959210   27.413000   68.667200
  C      9.408800   27.708700   67.791800
  C      9.068500   27.782900   66.496000
  C      7.812380   27.247600   66.134500
  C      7.020240   26.894000   67.247200
  H      9.806360   28.315900   65.857200
  C      7.316780   27.424200   64.702700
  H      6.809530   26.513900   64.408500
  H      8.211620   27.548400   64.114800
  C      6.376360   28.605700   64.477800
  H      7.062360   29.458800   64.562200
  H      5.694970   28.691400   65.355000
  C      5.603100   28.686900   63.067400
  H      5.345950   27.687500   62.627900
  H      6.329210   28.948300   62.303200
  H      4.810160   29.454700   62.966800
  H      2.454760   26.285600   69.024600
  H     10.301500   28.259500   68.124100

 Total Charge           Charge          ....    0
 Multiplicity           Mult            ....    1
 Number of Electrons    NEL             ....  134
 Basis Dimension        Dim             ....  322

ORBITAL ENERGIES
----------------

  NO   OCC          E(Eh)            E(eV)
   0   2.0000     -88.964567     -2420.8490
   1   2.0000     -88.962600     -2420.7954
   2   2.0000     -10.341779      -281.4141
   3   2.0000     -10.336961      -281.2830
   4   2.0000     -10.313060      -280.6326
   5   2.0000     -10.312134      -280.6074
   6   2.0000     -10.306164      -280.4450
   7   2.0000     -10.303899      -280.3834
   8   2.0000     -10.300127      -280.2807
   9   2.0000     -10.299790      -280.2715
  10   2.0000     -10.293787      -280.1082
  11   2.0000     -10.292176      -280.0643
  12   2.0000     -10.291490      -280.0457
  13   2.0000     -10.290989      -280.0321
  14   2.0000     -10.290396      -280.0159
  15   2.0000     -10.278128      -279.6821
  16   2.0000      -8.079441      -219.8528
  17   2.0000      -8.076204      -219.7647
  18   2.0000      -6.038105      -164.3052
  19   2.0000      -6.034971      -164.2199
  20   2.0000      -6.034057      -164.1950
  21   2.0000      -6.031235      -164.1182
  22   2.0000      -6.029856      -164.0807
  23   2.0000      -6.026391      -163.9864
  24   2.0000      -1.008915       -27.4540
  25   2.0000      -0.981643       -26.7119
  26   2.0000      -0.907078       -24.6828
  27   2.0000      -0.906285       -24.6613
  28   2.0000      -0.873279       -23.7631
  29   2.0000      -0.844050       -22.9678
  30   2.0000      -0.836542       -22.7635
  31   2.0000      -0.817092       -22.2342
  32   2.0000      -0.783562       -21.3218
  33   2.0000      -0.776000       -21.1160
  34   2.0000      -0.716538       -19.4980
  35   2.0000      -0.701549       -19.0901
  36   2.0000      -0.694870       -18.9084
  37   2.0000      -0.660609       -17.9761
  38   2.0000      -0.639478       -17.4011
  39   2.0000      -0.623669       -16.9709
  40   2.0000      -0.592752       -16.1296
  41   2.0000      -0.566786       -15.4230
  42   2.0000      -0.564601       -15.3636
  43   2.0000      -0.556246       -15.1362
  44   2.0000      -0.528474       -14.3805
  45   2.0000      -0.520308       -14.1583
  46   2.0000      -0.519243       -14.1293
  47   2.0000      -0.509197       -13.8560
  48   2.0000      -0.506354       -13.7786
  49   2.0000      -0.504310       -13.7230
  50   2.0000      -0.487496       -13.2654
  51   2.0000      -0.485983       -13.2243
  52   2.0000      -0.472996       -12.8709
  53   2.0000      -0.465916       -12.6782
  54   2.0000      -0.457821       -12.4579
  55   2.0000      -0.449138       -12.2217
  56   2.0000      -0.444793       -12.1034
  57   2.0000      -0.442338       -12.0366
  58   2.0000      -0.436080       -11.8663
  59   2.0000      -0.430733       -11.7209
  60   2.0000      -0.419165       -11.4061
  61   2.0000      -0.410997       -11.1838
  62   2.0000      -0.401501       -10.9254
  63   2.0000      -0.367311        -9.9950
  64   2.0000      -0.333094        -9.0639
  65   2.0000      -0.323825        -8.8117
  66   2.0000      -0.281870        -7.6701
  67   0.0000       0.007164         0.1949
  68   0.0000       0.077690         2.1140
  69   0.0000       0.095349         2.5946
  70   0.0000       0.117703         3.2029
  71   0.0000       0.131220         3.5707

MULLIKEN ATOMIC CHARGES
-----------------------
   0 S :    0.065716
   1 C :   -0.107192
   2 C :   -0.072737
   3 C :    0.028824
   4 C :   -0.123119
   5 H :   -0.013039
   6 C :    0.097875
   7 H :    0.026341
   8 H :    0.025228
   9 C :   -0.103403
  10 H :    0.047687
  11 H :    0.035722
  12 C :   -0.049282
  13 H :    0.038732
  14 H :    0.026918
  15 H :    0.033118
  16 S :    0.076012
  17 C :   -0.067764
  18 C :   -0.083453
  19 C :   -0.065611
  20 C :   -0.096016
  21 H :    0.033443
  22 C :    0.066727
  23 H :    0.020082
  24 H :    0.018330
  25 C :   -0.076229
  26 H :    0.023122
  27 H :    0.049728
  28 C :   -0.056413
  29 H :    0.028990
  30 H :    0.019111
  31 H :    0.054593
  32 H :    0.026862
  33 H :    0.071099
Sum of atomic charges:    0.0000000

LOEWDIN ATOMIC CHARGES
----------------------
   0 S :    0.347455
   1 C :   -0.163183
   2 C :   -0.058564
   3 C :   -0.059801
   4 C :   -0.162949
   5 H :    0.019107
   6 C :   -0.019468
   7 H :    0.026906
   8 H :    0.031391
   9 C :   -0.032329
  10 H :    0.030642
  11 H :    0.020819
  12 C :   -0.057736
  13 H :    0.024347
  14 H :    0.019218
  15 H :    0.021899
  16 S :    0.404783
  17 C :   -0.202637
  18 C :   -0.082555
  19 C :   -0.061402
  20 C :   -0.183498
  21 H :    0.037783
  22 C :   -0.030402
  23 H :    0.022795
  24 H :    0.027185
  25 C :   -0.042261
  26 H :    0.024884
  27 H :    0.029442
  28 C :   -0.079450
  29 H :    0.028386
  30 H :    0.024811
  31 H :    0.033931
  32 H :    0.017233
  33 H :    0.043217

  Mayer bond orders larger than 0.100000
B(  0-S ,  1-C ) :   1.1016 B(  0-S ,  4-C ) :   1.1210 B(  1-C ,  2-C ) :   1.6752
B(  1-C , 32-H ) :   0.9706 B(  2-C ,  3-C ) :   1.1988 B(  2-C ,  6-C ) :   1.0093
B(  3-C ,  4-C ) :   1.5805 B(  3-C ,  5-H ) :   0.9946 B(  4-C , 20-C ) :   1.1240
B(  6-C ,  7-H ) :   0.9518 B(  6-C ,  8-H ) :   0.9445 B(  6-C ,  9-C ) :   1.0331
B(  9-C , 10-H ) :   0.9694 B(  9-C , 11-H ) :   0.9593 B(  9-C , 12-C ) :   1.0706
B( 12-C , 13-H ) :   0.9800 B( 12-C , 14-H ) :   0.9769 B( 12-C , 15-H ) :   0.9779
B( 16-S , 17-C ) :   1.1530 B( 16-S , 20-C ) :   1.1434 B( 17-C , 18-C ) :   1.6152
B( 17-C , 33-H ) :   0.9574 B( 18-C , 19-C ) :   1.2817 B( 18-C , 21-H ) :   0.9767
B( 19-C , 20-C ) :   1.5238 B( 19-C , 22-C ) :   1.0569 B( 22-C , 23-H ) :   0.9304
B( 22-C , 24-H ) :   0.9342 B( 22-C , 25-C ) :   1.0510 B( 25-C , 26-H ) :   0.9568
B( 25-C , 27-H ) :   0.9633 B( 25-C , 28-C ) :   1.0541 B( 28-C , 29-H ) :   0.9773
B( 28-C , 30-H ) :   0.9726 B( 28-C , 31-H ) :   0.9777

Dispersion correction           -0.014067638
FINAL SINGLE POINT ENERGY     -1339.848984045162

DIPOLE MOMENT
-------------
                                X             Y             Z
Electronic contribution:     15.25588       3.68686      27.50090
Nuclear contribution   :    -15.52138      -3.53962     -28.26212
                        -----------------------------------------
Total Dipole Moment    :     -0.26549       0.14725      -0.76122
                        -----------------------------------------
Magnitude (a.u.)       :      0.81953
Magnitude (Debye)      :      2.08308

Rotational constants in cm-1:     0.018177     0.008893     0.006590
Rotational constants in MHz :   544.946442   266.591449   197.562699

                             ****ORCA TERMINATED NORMALLY****
TOTAL RUN TIME: 0 days 0 hours 0 minutes 34 seconds 808 msec
