                         Program Version 4.2.1 -  RELEASE  -
|  1> ! wB97X-D3 SP def2-SVP
|  2> %pal
|  3> nprocs 16
|  4> end
|  5>
|  6> * xyz 0 1
|  7> S 	 -30.8519 	 71.2308 	 110.159
|  8> C 	 -32.053 	 70.05 	 109.528
|  9> C 	 -33.1987 	 70.7423 	 109.149
| 10> C 	 -33.2138 	 72.1319 	 109.58
| 11> C 	 -32.0182 	 72.5402 	 110.135
| 12> H 	 -34.0691 	 72.7972 	 109.428
| 13> C 	 -34.4561 	 70.2043 	 108.548
| 14> H 	 -34.9148 	 71.0451 	 108.134
| 15> H 	 -35.0528 	 69.8238 	 109.316
| 16> C 	 -34.3042 	 68.9795 	 107.587
| 17> H 	 -33.6923 	 69.1203 	 106.781
| 18> H 	 -33.7445 	 68.2549 	 108.156
| 19> C 	 -35.6276 	 68.4991 	 107.075
| 20> H 	 -35.9775 	 68.9749 	 106.187
| 21> H 	 -35.619 	 67.4131 	 106.769
| 22> H 	 -36.4405 	 68.5739 	 107.802
| 23> S 	 -31.1295 	 74.0441 	 112.216
| 24> C 	 -31.1105 	 75.6953 	 112.121
| 25> C 	 -31.5392 	 76.1074 	 110.877
| 26> C 	 -32.0341 	 75.1066 	 110.033
| 27> C 	 -31.7837 	 73.8363 	 110.635
| 28> H 	 -31.512 	 77.1468 	 110.613
| 29> C 	 -32.7648 	 75.3954 	 108.756
| 30> H 	 -33.5338 	 76.0353 	 108.93
| 31> H 	 -33.2431 	 74.5217 	 108.294
| 32> C 	 -31.9232 	 76.1535 	 107.768
| 33> H 	 -30.992 	 75.5644 	 107.642
| 34> H 	 -31.7581 	 77.1539 	 108.142
| 35> C 	 -32.6654 	 76.4585 	 106.42
| 36> H 	 -33.0393 	 75.5136 	 106.008
| 37> H 	 -31.9304 	 76.9164 	 105.733
| 38> H 	 -33.4784 	 77.1533 	 106.58
| 39> H 	 -31.8404 	 69.0256 	 109.192
| 40> H 	 -30.62 	 76.4035 	 112.777
| 41> *
| 42>
| 43>                          ****END OF INPUT****

CARTESIAN COORDINATES (ANGSTROEM)
---------------------------------
  S    -30.851900   71.230800  110.159000
  C    -32.053000   70.050000  109.528000
  C    -33.198700   70.742300  109.149000
  C    -33.213800   72.131900  109.580000
  C    -32.018200   72.540200  110.135000
  H    -34.069100   72.797200  109.428000
  C    -34.456100   70.204300  108.548000
  H    -34.914800   71.045100  108.134000
  H    -35.052800   69.823800  109.316000
  C    -34.304200   68.979500  107.587000
  H    -33.692300   69.120300  106.781000
  H    -33.744500   68.254900  108.156000
  C    -35.627600   68.499100  107.075000
  H    -35.977500   68.974900  106.187000
  H    -35.619000   67.413100  106.769000
  H    -36.440500   68.573900  107.802000
  S    -31.129500   74.044100  112.216000
  C    -31.110500   75.695300  112.121000
  C    -31.539200   76.107400  110.877000
  C    -32.034100   75.106600  110.033000
  C    -31.783700   73.836300  110.635000
  H    -31.512000   77.146800  110.613000
  C    -32.764800   75.395400  108.756000
  H    -33.533800   76.035300  108.930000
  H    -33.243100   74.521700  108.294000
  C    -31.923200   76.153500  107.768000
  H    -30.992000   75.564400  107.642000
  H    -31.758100   77.153900  108.142000
  C    -32.665400   76.458500  106.420000
  H    -33.039300   75.513600  106.008000
  H    -31.930400   76.916400  105.733000
  H    -33.478400   77.153300  106.580000
  H    -31.840400   69.025600  109.192000
  H    -30.620000   76.403500  112.777000

 Total Charge           Charge          ....    0
 Multiplicity           Mult            ....    1
 Number of Electrons    NEL             ....  134
 Basis Dimension        Dim             ....  322

ORBITAL ENERGIES
----------------

  NO   OCC          E(Eh)            E(eV)
   0   2.0000     -88.966620     -2420.9048
   1   2.0000     -88.965571     -2420.8763
   2   2.0000     -10.326601      -281.0011
   3   2.0000     -10.321667      -280.8668
   4   2.0000     -10.317095      -280.7424
   5   2.0000     -10.307664      -280.4858
   6   2.0000     -10.302583      -280.3475
   7   2.0000     -10.301001      -280.3045
   8   2.0000     -10.292583      -280.0754
   9   2.0000     -10.285434      -279.8809
  10   2.0000     -10.284502      -279.8555
  11   2.0000     -10.282236      -279.7939
  12   2.0000     -10.281884      -279.7843
  13   2.0000     -10.280999      -279.7602
  14   2.0000     -10.279737      -279.7259
  15   2.0000     -10.278127      -279.6820
  16   2.0000      -8.083378      -219.9599
  17   2.0000      -8.079318      -219.8494
  18   2.0000      -6.041546      -164.3988
  19   2.0000      -6.038104      -164.3052
  20   2.0000      -6.037404      -164.2861
  21   2.0000      -6.034559      -164.2087
  22   2.0000      -6.033953      -164.1922
  23   2.0000      -6.029857      -164.0808
  24   2.0000      -1.015721       -27.6392
  25   2.0000      -0.983566       -26.7642
  26   2.0000      -0.920054       -25.0359
  27   2.0000      -0.917077       -24.9549
  28   2.0000      -0.873860       -23.7789
  29   2.0000      -0.854908       -23.2632
  30   2.0000      -0.848163       -23.0797
  31   2.0000      -0.810253       -22.0481
  32   2.0000      -0.786981       -21.4149
  33   2.0000      -0.772820       -21.0295
  34   2.0000      -0.720981       -19.6189
  35   2.0000      -0.703277       -19.1371
  36   2.0000      -0.695136       -18.9156
  37   2.0000      -0.658005       -17.9052
  38   2.0000      -0.633871       -17.2485
  39   2.0000      -0.621913       -16.9231
  40   2.0000      -0.605048       -16.4642
  41   2.0000      -0.577443       -15.7130
  42   2.0000      -0.570626       -15.5275
  43   2.0000      -0.566731       -15.4215
  44   2.0000      -0.526222       -14.3192
  45   2.0000      -0.520580       -14.1657
  46   2.0000      -0.517817       -14.0905
  47   2.0000      -0.513374       -13.9696
  48   2.0000      -0.508951       -13.8493
  49   2.0000      -0.505640       -13.7592
  50   2.0000      -0.498632       -13.5685
  51   2.0000      -0.482985       -13.1427
  52   2.0000      -0.478607       -13.0236
  53   2.0000      -0.467445       -12.7198
  54   2.0000      -0.459950       -12.5159
  55   2.0000      -0.456029       -12.4092
  56   2.0000      -0.447517       -12.1775
  57   2.0000      -0.436180       -11.8691
  58   2.0000      -0.431939       -11.7537
  59   2.0000      -0.426861       -11.6155
  60   2.0000      -0.419928       -11.4268
  61   2.0000      -0.418948       -11.4001
  62   2.0000      -0.413035       -11.2393
  63   2.0000      -0.347716        -9.4618
  64   2.0000      -0.331796        -9.0286
  65   2.0000      -0.325259        -8.8507
  66   2.0000      -0.287987        -7.8365
  67   0.0000       0.027767         0.7556
  68   0.0000       0.076435         2.0799
  69   0.0000       0.109511         2.9799
  70   0.0000       0.121573         3.3082
  71   0.0000       0.133426         3.6307

MULLIKEN ATOMIC CHARGES
-----------------------
   0 S :    0.103834
   1 C :   -0.142914
   2 C :   -0.098624
   3 C :   -0.005843
   4 C :   -0.122225
   5 H :    0.026770
   6 C :    0.103853
   7 H :    0.007424
   8 H :    0.032538
   9 C :   -0.044239
  10 H :    0.007045
  11 H :    0.017713
  12 C :   -0.045593
  13 H :    0.027344
  14 H :    0.031481
  15 H :    0.022062
  16 S :    0.145537
  17 C :   -0.077249
  18 C :   -0.064952
  19 C :   -0.001474
  20 C :   -0.199322
  21 H :    0.006201
  22 C :    0.147569
  23 H :   -0.009480
  24 H :    0.010307
  25 C :   -0.138842
  26 H :    0.046266
  27 H :    0.028609
  28 C :   -0.040024
  29 H :    0.030677
  30 H :    0.044531
  31 H :    0.029798
  32 H :    0.063308
  33 H :    0.057914
Sum of atomic charges:    0.0000000

LOEWDIN ATOMIC CHARGES
----------------------
   0 S :    0.383227
   1 C :   -0.202028
   2 C :   -0.053793
   3 C :   -0.066882
   4 C :   -0.190061
   5 H :    0.032239
   6 C :   -0.020109
   7 H :    0.020850
   8 H :    0.032422
   9 C :   -0.033490
  10 H :    0.013463
  11 H :    0.022318
  12 C :   -0.066490
  13 H :    0.022403
  14 H :    0.033939
  15 H :    0.022778
  16 S :    0.472125
  17 C :   -0.225186
  18 C :   -0.073264
  19 C :   -0.043498
  20 C :   -0.217653
  21 H :    0.024829
  22 C :   -0.030747
  23 H :    0.019326
  24 H :    0.029110
  25 C :   -0.036234
  26 H :    0.028539
  27 H :    0.020575
  28 C :   -0.062474
  29 H :    0.022561
  30 H :    0.031687
  31 H :    0.022117
  32 H :    0.032691
  33 H :    0.034711

  Mayer bond orders larger than 0.100000
B(  0-S ,  1-C ) :   1.1039 B(  0-S ,  4-C ) :   1.1415 B(  1-C ,  2-C ) :   1.6239
B(  1-C , 32-H ) :   0.9620 B(  2-C ,  3-C ) :   1.2244 B(  2-C ,  6-C ) :   1.0261
B(  3-C ,  4-C ) :   1.5691 B(  3-C ,  5-H ) :   0.9867 B(  4-C , 20-C ) :   1.0877
B(  6-C ,  7-H ) :   0.9418 B(  6-C ,  8-H ) :   0.9297 B(  6-C ,  9-C ) :   1.0607
B(  9-C , 10-H ) :   0.9593 B(  9-C , 11-H ) :   0.9498 B(  9-C , 12-C ) :   1.0877
B( 12-C , 13-H ) :   0.9754 B( 12-C , 14-H ) :   0.9704 B( 12-C , 15-H ) :   0.9747
B( 16-S , 17-C ) :   1.1897 B( 16-S , 20-C ) :   1.1826 B( 17-C , 18-C ) :   1.5549
B( 17-C , 20-C ) :   0.1054 B( 17-C , 33-H ) :   0.9648 B( 18-C , 19-C ) :   1.3054
B( 18-C , 21-H ) :   0.9905 B( 19-C , 20-C ) :   1.4942 B( 19-C , 22-C ) :   1.0537
B( 22-C , 23-H ) :   0.9128 B( 22-C , 24-H ) :   0.9271 B( 22-C , 25-C ) :   1.0645
B( 25-C , 26-H ) :   0.9619 B( 25-C , 27-H ) :   0.9526 B( 25-C , 28-C ) :   1.0815
B( 28-C , 29-H ) :   0.9760 B( 28-C , 30-H ) :   0.9754 B( 28-C , 31-H ) :   0.9737

Dispersion correction           -0.013297469
FINAL SINGLE POINT ENERGY     -1339.866347137072

DIPOLE MOMENT
-------------
                                X             Y             Z
Electronic contribution:     17.45972       0.82731      24.33886
Nuclear contribution   :    -17.93625      -0.56656     -24.84413
                        -----------------------------------------
Total Dipole Moment    :     -0.47653       0.26075      -0.50528
                        -----------------------------------------
Magnitude (a.u.)       :      0.74187
Magnitude (Debye)      :      1.88568

Rotational constants in cm-1:     0.018363     0.007971     0.006085
Rotational constants in MHz :   550.502458   238.965475   182.428533

                             ****ORCA TERMINATED NORMALLY****
TOTAL RUN TIME: 0 days 0 hours 0 minutes 27 seconds 704 msec
