                         Program Version 4.2.1 -  RELEASE  -
|  1> ! wB97X-D3 SP def2-SVP
|  2> %pal
|  3> nprocs 16
|  4> end
|  5>
|  6> * xyz 0 1
|  7> S 	 -4.77571 	 -8.68088 	 80.7249
|  8> C 	 -5.00084 	 -10.1623 	 79.7922
|  9> C 	 -5.30906 	 -11.2115 	 80.6545
| 10> C 	 -5.39248 	 -10.8819 	 82.0715
| 11> C 	 -5.23414 	 -9.5123 	 82.2658
| 12> H 	 -5.47017 	 -11.5809 	 82.8765
| 13> C 	 -5.59575 	 -12.5805 	 80.1353
| 14> H 	 -6.59009 	 -12.5573 	 79.7705
| 15> H 	 -5.78312 	 -13.2132 	 81.0045
| 16> C 	 -4.66257 	 -13.1373 	 79.1111
| 17> H 	 -4.96072 	 -14.1731 	 78.7385
| 18> H 	 -4.77319 	 -12.5914 	 78.1736
| 19> C 	 -3.20944 	 -13.0878 	 79.6636
| 20> H 	 -3.05739 	 -12.1071 	 80.0507
| 21> H 	 -3.08584 	 -13.8922 	 80.4128
| 22> H 	 -2.42221 	 -13.182 	 78.9083
| 23> S 	 -3.99641 	 -7.61428 	 83.8639
| 24> C 	 -4.73264 	 -7.10127 	 85.3844
| 25> C 	 -5.97458 	 -7.70714 	 85.6127
| 26> C 	 -6.2779 	 -8.65252 	 84.5263
| 27> C 	 -5.29354 	 -8.73952 	 83.5272
| 28> H 	 -6.51399 	 -7.56795 	 86.4917
| 29> C 	 -7.5886 	 -9.47828 	 84.5023
| 30> H 	 -8.06081 	 -9.52823 	 85.5104
| 31> H 	 -7.31214 	 -10.4758 	 84.2637
| 32> C 	 -8.49966 	 -9.10399 	 83.3707
| 33> H 	 -9.34519 	 -9.81109 	 83.4436
| 34> H 	 -8.20762 	 -9.38739 	 82.4121
| 35> C 	 -8.94865 	 -7.59596 	 83.2655
| 36> H 	 -8.09581 	 -6.90459 	 83.1252
| 37> H 	 -9.5398 	 -7.32056 	 84.1844
| 38> H 	 -9.60879 	 -7.45326 	 82.4095
| 39> H 	 -5.07154 	 -10.1699 	 78.6713
| 40> H 	 -4.19602 	 -6.57059 	 86.1621
| 41> *
| 42>
| 43>                          ****END OF INPUT****

CARTESIAN COORDINATES (ANGSTROEM)
---------------------------------
  S     -4.775710   -8.680880   80.724900
  C     -5.000840  -10.162300   79.792200
  C     -5.309060  -11.211500   80.654500
  C     -5.392480  -10.881900   82.071500
  C     -5.234140   -9.512300   82.265800
  H     -5.470170  -11.580900   82.876500
  C     -5.595750  -12.580500   80.135300
  H     -6.590090  -12.557300   79.770500
  H     -5.783120  -13.213200   81.004500
  C     -4.662570  -13.137300   79.111100
  H     -4.960720  -14.173100   78.738500
  H     -4.773190  -12.591400   78.173600
  C     -3.209440  -13.087800   79.663600
  H     -3.057390  -12.107100   80.050700
  H     -3.085840  -13.892200   80.412800
  H     -2.422210  -13.182000   78.908300
  S     -3.996410   -7.614280   83.863900
  C     -4.732640   -7.101270   85.384400
  C     -5.974580   -7.707140   85.612700
  C     -6.277900   -8.652520   84.526300
  C     -5.293540   -8.739520   83.527200
  H     -6.513990   -7.567950   86.491700
  C     -7.588600   -9.478280   84.502300
  H     -8.060810   -9.528230   85.510400
  H     -7.312140  -10.475800   84.263700
  C     -8.499660   -9.103990   83.370700
  H     -9.345190   -9.811090   83.443600
  H     -8.207620   -9.387390   82.412100
  C     -8.948650   -7.595960   83.265500
  H     -8.095810   -6.904590   83.125200
  H     -9.539800   -7.320560   84.184400
  H     -9.608790   -7.453260   82.409500
  H     -5.071540  -10.169900   78.671300
  H     -4.196020   -6.570590   86.162100

 Total Charge           Charge          ....    0
 Multiplicity           Mult            ....    1
 Number of Electrons    NEL             ....  134
 Basis Dimension        Dim             ....  322

ORBITAL ENERGIES
----------------

  NO   OCC          E(Eh)            E(eV)
   0   2.0000     -88.967447     -2420.9273
   1   2.0000     -88.967176     -2420.9199
   2   2.0000     -10.342351      -281.4297
   3   2.0000     -10.331087      -281.1232
   4   2.0000     -10.322579      -280.8916
   5   2.0000     -10.320086      -280.8238
   6   2.0000     -10.311430      -280.5883
   7   2.0000     -10.305641      -280.4308
   8   2.0000     -10.302235      -280.3381
   9   2.0000     -10.299113      -280.2531
  10   2.0000     -10.291270      -280.0397
  11   2.0000     -10.291140      -280.0361
  12   2.0000     -10.283527      -279.8290
  13   2.0000     -10.278084      -279.6809
  14   2.0000     -10.277549      -279.6663
  15   2.0000     -10.272792      -279.5369
  16   2.0000      -8.081557      -219.9104
  17   2.0000      -8.080947      -219.8937
  18   2.0000      -6.040108      -164.3597
  19   2.0000      -6.039633      -164.3468
  20   2.0000      -6.036038      -164.2489
  21   2.0000      -6.035613      -164.2374
  22   2.0000      -6.032365      -164.1490
  23   2.0000      -6.031601      -164.1282
  24   2.0000      -0.998370       -27.1670
  25   2.0000      -0.976835       -26.5810
  26   2.0000      -0.915702       -24.9175
  27   2.0000      -0.905093       -24.6288
  28   2.0000      -0.863584       -23.4993
  29   2.0000      -0.845665       -23.0117
  30   2.0000      -0.836502       -22.7624
  31   2.0000      -0.812898       -22.1201
  32   2.0000      -0.782262       -21.2864
  33   2.0000      -0.771440       -20.9919
  34   2.0000      -0.707647       -19.2561
  35   2.0000      -0.705128       -19.1875
  36   2.0000      -0.685266       -18.6470
  37   2.0000      -0.666623       -18.1397
  38   2.0000      -0.639528       -17.4024
  39   2.0000      -0.610916       -16.6239
  40   2.0000      -0.587593       -15.9892
  41   2.0000      -0.574855       -15.6426
  42   2.0000      -0.559104       -15.2140
  43   2.0000      -0.552730       -15.0406
  44   2.0000      -0.540241       -14.7007
  45   2.0000      -0.536705       -14.6045
  46   2.0000      -0.516344       -14.0504
  47   2.0000      -0.512433       -13.9440
  48   2.0000      -0.498694       -13.5701
  49   2.0000      -0.489134       -13.3100
  50   2.0000      -0.486634       -13.2420
  51   2.0000      -0.477007       -12.9800
  52   2.0000      -0.467932       -12.7331
  53   2.0000      -0.463276       -12.6064
  54   2.0000      -0.459340       -12.4993
  55   2.0000      -0.444511       -12.0958
  56   2.0000      -0.441917       -12.0252
  57   2.0000      -0.438508       -11.9324
  58   2.0000      -0.432673       -11.7736
  59   2.0000      -0.424405       -11.5486
  60   2.0000      -0.416788       -11.3414
  61   2.0000      -0.410068       -11.1585
  62   2.0000      -0.402632       -10.9562
  63   2.0000      -0.350714        -9.5434
  64   2.0000      -0.331179        -9.0118
  65   2.0000      -0.327340        -8.9074
  66   2.0000      -0.289331        -7.8731
  67   0.0000       0.024775         0.6742
  68   0.0000       0.059532         1.6200
  69   0.0000       0.103849         2.8259
  70   0.0000       0.115036         3.1303
  71   0.0000       0.134466         3.6590

MULLIKEN ATOMIC CHARGES
-----------------------
   0 S :    0.096114
   1 C :   -0.146979
   2 C :   -0.142821
   3 C :    0.043493
   4 C :   -0.134296
   5 H :    0.023374
   6 C :    0.111650
   7 H :    0.024858
   8 H :    0.003269
   9 C :   -0.081292
  10 H :    0.032546
  11 H :    0.019405
  12 C :   -0.043281
  13 H :    0.042369
  14 H :    0.038232
  15 H :    0.027601
  16 S :    0.102714
  17 C :   -0.097245
  18 C :   -0.003188
  19 C :   -0.076481
  20 C :   -0.154427
  21 H :    0.003233
  22 C :    0.116427
  23 H :    0.029360
  24 H :    0.003896
  25 C :   -0.061106
  26 H :    0.013580
  27 H :    0.016809
  28 C :   -0.072618
  29 H :    0.054278
  30 H :    0.032971
  31 H :    0.031930
  32 H :    0.079592
  33 H :    0.066033
Sum of atomic charges:    0.0000000

LOEWDIN ATOMIC CHARGES
----------------------
   0 S :    0.374273
   1 C :   -0.208409
   2 C :   -0.057899
   3 C :   -0.062119
   4 C :   -0.161466
   5 H :    0.032118
   6 C :   -0.041962
   7 H :    0.033251
   8 H :    0.028536
   9 C :   -0.045096
  10 H :    0.030934
  11 H :    0.019562
  12 C :   -0.063835
  13 H :    0.023088
  14 H :    0.028957
  15 H :    0.024503
  16 S :    0.401792
  17 C :   -0.178416
  18 C :   -0.060468
  19 C :   -0.046862
  20 C :   -0.209394
  21 H :    0.022773
  22 C :   -0.031174
  23 H :    0.033884
  24 H :    0.027605
  25 C :   -0.042813
  26 H :    0.027045
  27 H :    0.017003
  28 C :   -0.070268
  29 H :    0.030703
  30 H :    0.026115
  31 H :    0.024944
  32 H :    0.042516
  33 H :    0.030579

  Mayer bond orders larger than 0.100000
B(  0-S ,  1-C ) :   1.1159 B(  0-S ,  4-C ) :   1.1463 B(  1-C ,  2-C ) :   1.6148
B(  1-C , 32-H ) :   0.9646 B(  2-C ,  3-C ) :   1.2184 B(  2-C ,  6-C ) :   1.0197
B(  3-C ,  4-C ) :   1.5837 B(  3-C ,  5-H ) :   0.9907 B(  4-C , 20-C ) :   1.0374
B(  6-C ,  7-H ) :   0.9215 B(  6-C ,  8-H ) :   0.9351 B(  6-C ,  9-C ) :   1.0781
B(  9-C , 10-H ) :   0.9538 B(  9-C , 11-H ) :   0.9491 B(  9-C , 12-C ) :   1.0676
B( 12-C , 13-H ) :   0.9725 B( 12-C , 14-H ) :   0.9774 B( 12-C , 15-H ) :   0.9751
B( 16-S , 17-C ) :   1.1603 B( 16-S , 20-C ) :   1.1348 B( 17-C , 18-C ) :   1.5989
B( 17-C , 33-H ) :   0.9650 B( 18-C , 19-C ) :   1.2355 B( 18-C , 21-H ) :   1.0001
B( 19-C , 20-C ) :   1.5909 B( 19-C , 22-C ) :   1.0361 B( 22-C , 23-H ) :   0.9417
B( 22-C , 24-H ) :   0.9242 B( 22-C , 25-C ) :   1.0786 B( 25-C , 26-H ) :   0.9475
B( 25-C , 27-H ) :   0.9518 B( 25-C , 28-C ) :   1.0687 B( 28-C , 29-H ) :   0.9735
B( 28-C , 30-H ) :   0.9789 B( 28-C , 31-H ) :   0.9759

Dispersion correction           -0.015445516
FINAL SINGLE POINT ENERGY     -1339.872683973786

DIPOLE MOMENT
-------------
                                X             Y             Z
Electronic contribution:     12.03301      15.78693       5.61157
Nuclear contribution   :    -12.45265     -16.32235      -5.50404
                        -----------------------------------------
Total Dipole Moment    :     -0.41964      -0.53542       0.10753
                        -----------------------------------------
Magnitude (a.u.)       :      0.68872
Magnitude (Debye)      :      1.75058

Rotational constants in cm-1:     0.022975     0.008219     0.007167
Rotational constants in MHz :   688.768741   246.399853   214.871335

                             ****ORCA TERMINATED NORMALLY****
TOTAL RUN TIME: 0 days 0 hours 0 minutes 35 seconds 373 msec
