                         Program Version 4.2.1 -  RELEASE  -
|  1> ! wB97X-D3 SP def2-SVP
|  2> %pal
|  3> nprocs 16
|  4> end
|  5>
|  6> * xyz 0 1
|  7> S 	 22.4306 	 0.428754 	 88.1163
|  8> C 	 24.0939 	 0.7188 	 87.8347
|  9> C 	 24.3137 	 1.1134 	 86.5025
| 10> C 	 23.086 	 1.16101 	 85.8154
| 11> C 	 21.9792 	 0.678689 	 86.4797
| 12> H 	 22.8484 	 1.5282 	 84.8056
| 13> C 	 25.6347 	 1.67172 	 85.9657
| 14> H 	 25.7811 	 1.44455 	 84.9196
| 15> H 	 26.3781 	 1.20549 	 86.5335
| 16> C 	 25.7593 	 3.28711 	 86.0525
| 17> H 	 25.2009 	 3.64492 	 85.1249
| 18> H 	 25.3115 	 3.51457 	 86.9532
| 19> C 	 27.1589 	 3.92272 	 85.937
| 20> H 	 27.0077 	 4.98578 	 85.7236
| 21> H 	 27.6535 	 3.81803 	 86.9136
| 22> H 	 27.7472 	 3.4185 	 85.1584
| 23> S 	 19.6995 	 -0.79193 	 86.8897
| 24> C 	 18.3243 	 -0.686074 	 85.7679
| 25> C 	 18.6725 	 0.111396 	 84.7117
| 26> C 	 19.8958 	 0.858894 	 84.8891
| 27> C 	 20.5897 	 0.476661 	 86.0389
| 28> H 	 17.9394 	 0.200633 	 83.8881
| 29> C 	 20.3297 	 1.93095 	 83.9229
| 30> H 	 20.9279 	 2.66811 	 84.4252
| 31> H 	 19.4602 	 2.47293 	 83.6229
| 32> C 	 20.9211 	 1.36796 	 82.6356
| 33> H 	 20.1448 	 0.759369 	 82.1721
| 34> H 	 21.604 	 0.627088 	 83.0112
| 35> C 	 21.5479 	 2.42988 	 81.7076
| 36> H 	 22.4614 	 2.97823 	 82.0849
| 37> H 	 20.812 	 3.16587 	 81.4062
| 38> H 	 21.9811 	 1.90512 	 80.7791
| 39> H 	 24.9234 	 0.71458 	 88.5299
| 40> H 	 17.3994 	 -1.2418 	 85.7067
| 41> *
| 42>
| 43>                          ****END OF INPUT****

CARTESIAN COORDINATES (ANGSTROEM)
---------------------------------
  S     22.430600    0.428754   88.116300
  C     24.093900    0.718800   87.834700
  C     24.313700    1.113400   86.502500
  C     23.086000    1.161010   85.815400
  C     21.979200    0.678689   86.479700
  H     22.848400    1.528200   84.805600
  C     25.634700    1.671720   85.965700
  H     25.781100    1.444550   84.919600
  H     26.378100    1.205490   86.533500
  C     25.759300    3.287110   86.052500
  H     25.200900    3.644920   85.124900
  H     25.311500    3.514570   86.953200
  C     27.158900    3.922720   85.937000
  H     27.007700    4.985780   85.723600
  H     27.653500    3.818030   86.913600
  H     27.747200    3.418500   85.158400
  S     19.699500   -0.791930   86.889700
  C     18.324300   -0.686074   85.767900
  C     18.672500    0.111396   84.711700
  C     19.895800    0.858894   84.889100
  C     20.589700    0.476661   86.038900
  H     17.939400    0.200633   83.888100
  C     20.329700    1.930950   83.922900
  H     20.927900    2.668110   84.425200
  H     19.460200    2.472930   83.622900
  C     20.921100    1.367960   82.635600
  H     20.144800    0.759369   82.172100
  H     21.604000    0.627088   83.011200
  C     21.547900    2.429880   81.707600
  H     22.461400    2.978230   82.084900
  H     20.812000    3.165870   81.406200
  H     21.981100    1.905120   80.779100
  H     24.923400    0.714580   88.529900
  H     17.399400   -1.241800   85.706700

 Total Charge           Charge          ....    0
 Multiplicity           Mult            ....    1
 Number of Electrons    NEL             ....  134
 Basis Dimension        Dim             ....  322

ORBITAL ENERGIES
----------------

  NO   OCC          E(Eh)            E(eV)
   0   2.0000     -88.967703     -2420.9343
   1   2.0000     -88.966213     -2420.8937
   2   2.0000     -10.334325      -281.2113
   3   2.0000     -10.328722      -281.0588
   4   2.0000     -10.319217      -280.8002
   5   2.0000     -10.315103      -280.6882
   6   2.0000     -10.306923      -280.4656
   7   2.0000     -10.303410      -280.3701
   8   2.0000     -10.297810      -280.2176
   9   2.0000     -10.293357      -280.0965
  10   2.0000     -10.292010      -280.0598
  11   2.0000     -10.291932      -280.0577
  12   2.0000     -10.290096      -280.0078
  13   2.0000     -10.287944      -279.9492
  14   2.0000     -10.286046      -279.8976
  15   2.0000     -10.283986      -279.8415
  16   2.0000      -8.083393      -219.9603
  17   2.0000      -8.080154      -219.8722
  18   2.0000      -6.041834      -164.4067
  19   2.0000      -6.038919      -164.3274
  20   2.0000      -6.037633      -164.2923
  21   2.0000      -6.034744      -164.2137
  22   2.0000      -6.034298      -164.2016
  23   2.0000      -6.030687      -164.1033
  24   2.0000      -1.012624       -27.5549
  25   2.0000      -0.986073       -26.8324
  26   2.0000      -0.913938       -24.8695
  27   2.0000      -0.904195       -24.6044
  28   2.0000      -0.870637       -23.6912
  29   2.0000      -0.851899       -23.1813
  30   2.0000      -0.843142       -22.9431
  31   2.0000      -0.819836       -22.3089
  32   2.0000      -0.782693       -21.2982
  33   2.0000      -0.773309       -21.0428
  34   2.0000      -0.708925       -19.2908
  35   2.0000      -0.700295       -19.0560
  36   2.0000      -0.695105       -18.9148
  37   2.0000      -0.663373       -18.0513
  38   2.0000      -0.642197       -17.4751
  39   2.0000      -0.618635       -16.8339
  40   2.0000      -0.594647       -16.1812
  41   2.0000      -0.578172       -15.7329
  42   2.0000      -0.566410       -15.4128
  43   2.0000      -0.557903       -15.1813
  44   2.0000      -0.525054       -14.2874
  45   2.0000      -0.523376       -14.2418
  46   2.0000      -0.516474       -14.0540
  47   2.0000      -0.513170       -13.9641
  48   2.0000      -0.508214       -13.8292
  49   2.0000      -0.499389       -13.5891
  50   2.0000      -0.494808       -13.4644
  51   2.0000      -0.490091       -13.3360
  52   2.0000      -0.473651       -12.8887
  53   2.0000      -0.466598       -12.6968
  54   2.0000      -0.465695       -12.6722
  55   2.0000      -0.449822       -12.2403
  56   2.0000      -0.442003       -12.0275
  57   2.0000      -0.436023       -11.8648
  58   2.0000      -0.430698       -11.7199
  59   2.0000      -0.427226       -11.6254
  60   2.0000      -0.421002       -11.4560
  61   2.0000      -0.416938       -11.3455
  62   2.0000      -0.412343       -11.2204
  63   2.0000      -0.360386        -9.8066
  64   2.0000      -0.332696        -9.0531
  65   2.0000      -0.327439        -8.9101
  66   2.0000      -0.285350        -7.7648
  67   0.0000       0.020595         0.5604
  68   0.0000       0.083078         2.2607
  69   0.0000       0.104572         2.8456
  70   0.0000       0.115276         3.1368
  71   0.0000       0.124604         3.3907

MULLIKEN ATOMIC CHARGES
-----------------------
   0 S :    0.119201
   1 C :   -0.101786
   2 C :   -0.106055
   3 C :    0.003569
   4 C :   -0.144645
   5 H :   -0.001490
   6 C :    0.096397
   7 H :    0.023371
   8 H :    0.004175
   9 C :   -0.094297
  10 H :    0.038664
  11 H :    0.021667
  12 C :   -0.049642
  13 H :    0.046279
  14 H :    0.036683
  15 H :    0.037957
  16 S :    0.086346
  17 C :   -0.073365
  18 C :   -0.054701
  19 C :   -0.089588
  20 C :   -0.079379
  21 H :    0.030423
  22 C :    0.064980
  23 H :    0.025445
  24 H :    0.009041
  25 C :   -0.063321
  26 H :    0.024473
  27 H :    0.024273
  28 C :   -0.062520
  29 H :    0.041928
  30 H :    0.038884
  31 H :    0.046761
  32 H :    0.044040
  33 H :    0.056233
Sum of atomic charges:    0.0000000

LOEWDIN ATOMIC CHARGES
----------------------
   0 S :    0.441033
   1 C :   -0.210306
   2 C :   -0.064054
   3 C :   -0.072857
   4 C :   -0.205241
   5 H :    0.031924
   6 C :   -0.023593
   7 H :    0.027422
   8 H :    0.017427
   9 C :   -0.031932
  10 H :    0.029856
  11 H :    0.010042
  12 C :   -0.066953
  13 H :    0.031753
  14 H :    0.026401
  15 H :    0.026896
  16 S :    0.384374
  17 C :   -0.179645
  18 C :   -0.072832
  19 C :   -0.057430
  20 C :   -0.184663
  21 H :    0.035686
  22 C :   -0.034606
  23 H :    0.026337
  24 H :    0.025870
  25 C :   -0.042946
  26 H :    0.026846
  27 H :    0.020267
  28 C :   -0.074033
  29 H :    0.031247
  30 H :    0.024571
  31 H :    0.037563
  32 H :    0.029993
  33 H :    0.035586

  Mayer bond orders larger than 0.100000
B(  0-S ,  1-C ) :   1.1677 B(  0-S ,  4-C ) :   1.1638 B(  1-C ,  2-C ) :   1.5600
B(  1-C ,  4-C ) :   0.1063 B(  1-C , 32-H ) :   0.9680 B(  2-C ,  3-C ) :   1.2721
B(  2-C ,  6-C ) :   1.0454 B(  3-C ,  4-C ) :   1.5602 B(  3-C ,  5-H ) :   0.9854
B(  4-C , 20-C ) :   1.0397 B(  6-C ,  7-H ) :   0.9406 B(  6-C ,  8-H ) :   0.9388
B(  6-C ,  9-C ) :   1.0432 B(  9-C , 10-H ) :   0.9615 B(  9-C , 11-H ) :   0.9645
B(  9-C , 12-C ) :   1.0801 B( 12-C , 13-H ) :   0.9744 B( 12-C , 14-H ) :   0.9767
B( 12-C , 15-H ) :   0.9753 B( 16-S , 17-C ) :   1.1271 B( 16-S , 20-C ) :   1.1280
B( 17-C , 18-C ) :   1.6533 B( 17-C , 33-H ) :   0.9647 B( 18-C , 19-C ) :   1.2282
B( 18-C , 21-H ) :   0.9784 B( 19-C , 20-C ) :   1.6044 B( 19-C , 22-C ) :   1.0500
B( 22-C , 23-H ) :   0.9433 B( 22-C , 24-H ) :   0.9220 B( 22-C , 25-C ) :   1.0470
B( 25-C , 26-H ) :   0.9510 B( 25-C , 27-H ) :   0.9571 B( 25-C , 28-C ) :   1.0726
B( 28-C , 29-H ) :   0.9751 B( 28-C , 30-H ) :   0.9732 B( 28-C , 31-H ) :   0.9732

Dispersion correction           -0.013957374
FINAL SINGLE POINT ENERGY     -1339.870627153793

DIPOLE MOMENT
-------------
                                X             Y             Z
Electronic contribution:    -17.45342     -17.92782      20.92570
Nuclear contribution   :     17.65148      18.33274     -21.54390
                        -----------------------------------------
Total Dipole Moment    :      0.19806       0.40492      -0.61820
                        -----------------------------------------
Magnitude (a.u.)       :      0.76509
Magnitude (Debye)      :      1.94470

Rotational constants in cm-1:     0.018318     0.008817     0.006169
Rotational constants in MHz :   549.164780   264.331636   184.943503

                             ****ORCA TERMINATED NORMALLY****
TOTAL RUN TIME: 0 days 0 hours 0 minutes 34 seconds 905 msec
