                         Program Version 4.2.1 -  RELEASE  -
|  1> ! wB97X-D3 SP def2-SVP
|  2> %pal
|  3> nprocs 16
|  4> end
|  5>
|  6> * xyz 0 1
|  7> S 	 -41.6641 	 51.9109 	 107.291
|  8> C 	 -42.4402 	 53.4237 	 107.155
|  9> C 	 -41.713 	 54.5008 	 107.717
| 10> C 	 -40.3427 	 54.1273 	 107.849
| 11> C 	 -40.16 	 52.7612 	 107.672
| 12> H 	 -39.6841 	 54.7788 	 108.259
| 13> C 	 -42.272 	 55.9011 	 108.09
| 14> H 	 -43.3563 	 55.7917 	 108.258
| 15> H 	 -42.2284 	 56.4425 	 107.173
| 16> C 	 -41.5577 	 56.685 	 109.196
| 17> H 	 -41.5223 	 55.9952 	 110.07
| 18> H 	 -40.6038 	 57.1006 	 109.049
| 19> C 	 -42.3353 	 57.8976 	 109.722
| 20> H 	 -43.358 	 57.6307 	 109.866
| 21> H 	 -42.0589 	 58.1229 	 110.757
| 22> H 	 -42.3803 	 58.7112 	 109.009
| 23> S 	 -39.0328 	 50.7575 	 109.235
| 24> C 	 -37.3189 	 50.466 	 109.115
| 25> C 	 -36.6658 	 51.409 	 108.36
| 26> C 	 -37.6094 	 52.405 	 107.828
| 27> C 	 -38.9147 	 52.0689 	 108.03
| 28> H 	 -35.5591 	 51.3257 	 108.247
| 29> C 	 -37.1077 	 53.5655 	 106.989
| 30> H 	 -37.9418 	 53.988 	 106.561
| 31> H 	 -36.5311 	 53.1654 	 106.192
| 32> C 	 -36.2243 	 54.5956 	 107.767
| 33> H 	 -35.3278 	 54.0303 	 108.169
| 34> H 	 -36.7603 	 55.0476 	 108.607
| 35> C 	 -35.7095 	 55.6881 	 106.834
| 36> H 	 -36.5338 	 56.2498 	 106.343
| 37> H 	 -34.9199 	 55.3551 	 106.149
| 38> H 	 -35.1686 	 56.4836 	 107.42
| 39> H 	 -43.4231 	 53.577 	 106.819
| 40> H 	 -36.7737 	 49.6658 	 109.688
| 41> *
| 42>
| 43>                          ****END OF INPUT****

CARTESIAN COORDINATES (ANGSTROEM)
---------------------------------
  S    -41.664100   51.910900  107.291000
  C    -42.440200   53.423700  107.155000
  C    -41.713000   54.500800  107.717000
  C    -40.342700   54.127300  107.849000
  C    -40.160000   52.761200  107.672000
  H    -39.684100   54.778800  108.259000
  C    -42.272000   55.901100  108.090000
  H    -43.356300   55.791700  108.258000
  H    -42.228400   56.442500  107.173000
  C    -41.557700   56.685000  109.196000
  H    -41.522300   55.995200  110.070000
  H    -40.603800   57.100600  109.049000
  C    -42.335300   57.897600  109.722000
  H    -43.358000   57.630700  109.866000
  H    -42.058900   58.122900  110.757000
  H    -42.380300   58.711200  109.009000
  S    -39.032800   50.757500  109.235000
  C    -37.318900   50.466000  109.115000
  C    -36.665800   51.409000  108.360000
  C    -37.609400   52.405000  107.828000
  C    -38.914700   52.068900  108.030000
  H    -35.559100   51.325700  108.247000
  C    -37.107700   53.565500  106.989000
  H    -37.941800   53.988000  106.561000
  H    -36.531100   53.165400  106.192000
  C    -36.224300   54.595600  107.767000
  H    -35.327800   54.030300  108.169000
  H    -36.760300   55.047600  108.607000
  C    -35.709500   55.688100  106.834000
  H    -36.533800   56.249800  106.343000
  H    -34.919900   55.355100  106.149000
  H    -35.168600   56.483600  107.420000
  H    -43.423100   53.577000  106.819000
  H    -36.773700   49.665800  109.688000

 Total Charge           Charge          ....    0
 Multiplicity           Mult            ....    1
 Number of Electrons    NEL             ....  134
 Basis Dimension        Dim             ....  322

ORBITAL ENERGIES
----------------

  NO   OCC          E(Eh)            E(eV)
   0   2.0000     -88.973260     -2421.0855
   1   2.0000     -88.958687     -2420.6889
   2   2.0000     -10.330731      -281.1135
   3   2.0000     -10.323779      -280.9243
   4   2.0000     -10.316165      -280.7171
   5   2.0000     -10.308788      -280.5164
   6   2.0000     -10.304764      -280.4069
   7   2.0000     -10.300289      -280.2851
   8   2.0000     -10.298565      -280.2382
   9   2.0000     -10.296140      -280.1722
  10   2.0000     -10.293470      -280.0996
  11   2.0000     -10.290288      -280.0130
  12   2.0000     -10.288182      -279.9557
  13   2.0000     -10.283926      -279.8399
  14   2.0000     -10.279508      -279.7196
  15   2.0000     -10.277352      -279.6610
  16   2.0000      -8.087907      -220.0831
  17   2.0000      -8.073471      -219.6903
  18   2.0000      -6.046306      -164.5283
  19   2.0000      -6.042633      -164.4284
  20   2.0000      -6.038600      -164.3187
  21   2.0000      -6.032137      -164.1428
  22   2.0000      -6.028140      -164.0340
  23   2.0000      -6.023899      -163.9186
  24   2.0000      -1.004120       -27.3235
  25   2.0000      -0.980597       -26.6834
  26   2.0000      -0.912519       -24.8309
  27   2.0000      -0.904837       -24.6219
  28   2.0000      -0.867565       -23.6077
  29   2.0000      -0.857746       -23.3404
  30   2.0000      -0.843525       -22.9535
  31   2.0000      -0.813585       -22.1388
  32   2.0000      -0.782267       -21.2866
  33   2.0000      -0.769493       -20.9390
  34   2.0000      -0.711006       -19.3475
  35   2.0000      -0.696797       -18.9608
  36   2.0000      -0.690543       -18.7906
  37   2.0000      -0.656953       -17.8766
  38   2.0000      -0.639163       -17.3925
  39   2.0000      -0.625641       -17.0246
  40   2.0000      -0.588821       -16.0226
  41   2.0000      -0.577232       -15.7073
  42   2.0000      -0.567771       -15.4498
  43   2.0000      -0.560284       -15.2461
  44   2.0000      -0.531773       -14.4703
  45   2.0000      -0.519626       -14.1397
  46   2.0000      -0.515094       -14.0164
  47   2.0000      -0.510120       -13.8811
  48   2.0000      -0.505234       -13.7481
  49   2.0000      -0.501472       -13.6457
  50   2.0000      -0.491379       -13.3711
  51   2.0000      -0.473784       -12.8923
  52   2.0000      -0.469564       -12.7775
  53   2.0000      -0.463132       -12.6025
  54   2.0000      -0.458015       -12.4632
  55   2.0000      -0.450644       -12.2627
  56   2.0000      -0.447119       -12.1667
  57   2.0000      -0.435280       -11.8446
  58   2.0000      -0.430304       -11.7092
  59   2.0000      -0.429921       -11.6988
  60   2.0000      -0.424734       -11.5576
  61   2.0000      -0.422929       -11.5085
  62   2.0000      -0.413218       -11.2442
  63   2.0000      -0.351260        -9.5583
  64   2.0000      -0.329965        -8.9788
  65   2.0000      -0.323861        -8.8127
  66   2.0000      -0.283005        -7.7010
  67   0.0000       0.030652         0.8341
  68   0.0000       0.069192         1.8828
  69   0.0000       0.108151         2.9429
  70   0.0000       0.121784         3.3139
  71   0.0000       0.130118         3.5407

MULLIKEN ATOMIC CHARGES
-----------------------
   0 S :    0.142443
   1 C :   -0.099990
   2 C :   -0.130163
   3 C :    0.068995
   4 C :   -0.151348
   5 H :   -0.027626
   6 C :    0.092293
   7 H :    0.025283
   8 H :    0.032469
   9 C :   -0.094510
  10 H :    0.039157
  11 H :    0.034287
  12 C :   -0.033313
  13 H :    0.004727
  14 H :    0.036680
  15 H :    0.033753
  16 S :    0.082532
  17 C :   -0.109107
  18 C :   -0.044253
  19 C :   -0.063187
  20 C :   -0.120188
  21 H :    0.037937
  22 C :    0.120337
  23 H :   -0.007908
  24 H :    0.017727
  25 C :   -0.097410
  26 H :    0.036945
  27 H :    0.035858
  28 C :   -0.067744
  29 H :    0.039650
  30 H :    0.039340
  31 H :    0.031190
  32 H :    0.023036
  33 H :    0.072110
Sum of atomic charges:   -0.0000000

LOEWDIN ATOMIC CHARGES
----------------------
   0 S :    0.430025
   1 C :   -0.211614
   2 C :   -0.050398
   3 C :   -0.045833
   4 C :   -0.188989
   5 H :    0.013634
   6 C :   -0.032487
   7 H :    0.035261
   8 H :    0.031017
   9 C :   -0.043184
  10 H :    0.032450
  11 H :    0.019732
  12 C :   -0.062094
  13 H :    0.018149
  14 H :    0.032616
  15 H :    0.023166
  16 S :    0.373703
  17 C :   -0.193723
  18 C :   -0.079424
  19 C :   -0.055810
  20 C :   -0.183703
  21 H :    0.039824
  22 C :   -0.022734
  23 H :    0.014473
  24 H :    0.029156
  25 C :   -0.039170
  26 H :    0.030013
  27 H :    0.023558
  28 C :   -0.076567
  29 H :    0.028063
  30 H :    0.026775
  31 H :    0.029984
  32 H :    0.014458
  33 H :    0.039670

  Mayer bond orders larger than 0.100000
B(  0-S ,  1-C ) :   1.1576 B(  0-S ,  4-C ) :   1.1576 B(  1-C ,  2-C ) :   1.5865
B(  1-C ,  4-C ) :   0.1014 B(  1-C , 32-H ) :   0.9724 B(  2-C ,  3-C ) :   1.2865
B(  2-C ,  6-C ) :   1.0090 B(  3-C ,  4-C ) :   1.5256 B(  3-C ,  5-H ) :   1.0000
B(  4-C , 20-C ) :   1.0429 B(  6-C ,  7-H ) :   0.9421 B(  6-C ,  8-H ) :   0.9308
B(  6-C ,  9-C ) :   1.0650 B(  9-C , 10-H ) :   0.9607 B(  9-C , 11-H ) :   0.9519
B(  9-C , 12-C ) :   1.0902 B( 12-C , 13-H ) :   0.9705 B( 12-C , 14-H ) :   0.9727
B( 12-C , 15-H ) :   0.9757 B( 16-S , 17-C ) :   1.1358 B( 16-S , 20-C ) :   1.1084
B( 17-C , 18-C ) :   1.6646 B( 17-C , 33-H ) :   0.9577 B( 18-C , 19-C ) :   1.1708
B( 18-C , 21-H ) :   0.9839 B( 19-C , 20-C ) :   1.6642 B( 19-C , 22-C ) :   1.0522
B( 22-C , 23-H ) :   0.9282 B( 22-C , 24-H ) :   0.9343 B( 22-C , 25-C ) :   1.0545
B( 25-C , 26-H ) :   0.9542 B( 25-C , 27-H ) :   0.9571 B( 25-C , 28-C ) :   1.0903
B( 28-C , 29-H ) :   0.9728 B( 28-C , 30-H ) :   0.9737 B( 28-C , 31-H ) :   0.9731

Dispersion correction           -0.013735719
FINAL SINGLE POINT ENERGY     -1339.859998637099

DIPOLE MOMENT
-------------
                                X             Y             Z
Electronic contribution:     -7.42423     -29.99364      -0.78727
Nuclear contribution   :      7.56203      30.73069       0.88439
                        -----------------------------------------
Total Dipole Moment    :      0.13780       0.73705       0.09712
                        -----------------------------------------
Magnitude (a.u.)       :      0.75608
Magnitude (Debye)      :      1.92181

Rotational constants in cm-1:     0.015413     0.009231     0.006710
Rotational constants in MHz :   462.064451   276.741304   201.154368

                             ****ORCA TERMINATED NORMALLY****
TOTAL RUN TIME: 0 days 0 hours 0 minutes 29 seconds 349 msec
