                         Program Version 4.2.1 -  RELEASE  -
|  1> ! wB97X-D3 SP def2-SVP
|  2> %pal
|  3> nprocs 16
|  4> end
|  5>
|  6> * xyz 0 1
|  7> S 	 -117.485 	 49.4305 	 128.056
|  8> C 	 -117.598 	 50.5774 	 126.753
|  9> C 	 -117.488 	 51.8536 	 127.273
| 10> C 	 -117.089 	 51.9658 	 128.677
| 11> C 	 -117.142 	 50.6757 	 129.288
| 12> H 	 -116.859 	 52.8888 	 129.215
| 13> C 	 -117.514 	 53.1956 	 126.477
| 14> H 	 -116.544 	 53.4132 	 126.003
| 15> H 	 -117.575 	 53.9722 	 127.246
| 16> C 	 -118.673 	 53.4547 	 125.456
| 17> H 	 -118.424 	 54.416 	 124.988
| 18> H 	 -118.842 	 52.5874 	 124.779
| 19> C 	 -120.025 	 53.7744 	 126.058
| 20> H 	 -119.955 	 54.7285 	 126.593
| 21> H 	 -120.718 	 54.1052 	 125.242
| 22> H 	 -120.445 	 52.9965 	 126.698
| 23> S 	 -117.775 	 48.6631 	 131.049
| 24> C 	 -117.319 	 48.8116 	 132.689
| 25> C 	 -116.785 	 50.049 	 132.943
| 26> C 	 -116.543 	 50.8275 	 131.795
| 27> C 	 -116.999 	 50.2287 	 130.631
| 28> H 	 -116.465 	 50.1703 	 133.997
| 29> C 	 -115.801 	 52.1588 	 131.85
| 30> H 	 -115.237 	 52.2899 	 130.915
| 31> H 	 -115.062 	 52.0079 	 132.623
| 32> C 	 -116.724 	 53.4367 	 131.995
| 33> H 	 -117.151 	 53.4353 	 132.944
| 34> H 	 -117.573 	 53.3667 	 131.284
| 35> C 	 -116.038 	 54.7298 	 131.68
| 36> H 	 -115.054 	 54.8802 	 132.087
| 37> H 	 -116.669 	 55.5607 	 132.03
| 38> H 	 -116.2 	 54.8281 	 130.598
| 39> H 	 -118.006 	 50.3523 	 125.747
| 40> H 	 -117.337 	 47.9979 	 133.379
| 41> *
| 42>
| 43>                          ****END OF INPUT****

CARTESIAN COORDINATES (ANGSTROEM)
---------------------------------
  S    -117.485000   49.430500  128.056000
  C    -117.598000   50.577400  126.753000
  C    -117.488000   51.853600  127.273000
  C    -117.089000   51.965800  128.677000
  C    -117.142000   50.675700  129.288000
  H    -116.859000   52.888800  129.215000
  C    -117.514000   53.195600  126.477000
  H    -116.544000   53.413200  126.003000
  H    -117.575000   53.972200  127.246000
  C    -118.673000   53.454700  125.456000
  H    -118.424000   54.416000  124.988000
  H    -118.842000   52.587400  124.779000
  C    -120.025000   53.774400  126.058000
  H    -119.955000   54.728500  126.593000
  H    -120.718000   54.105200  125.242000
  H    -120.445000   52.996500  126.698000
  S    -117.775000   48.663100  131.049000
  C    -117.319000   48.811600  132.689000
  C    -116.785000   50.049000  132.943000
  C    -116.543000   50.827500  131.795000
  C    -116.999000   50.228700  130.631000
  H    -116.465000   50.170300  133.997000
  C    -115.801000   52.158800  131.850000
  H    -115.237000   52.289900  130.915000
  H    -115.062000   52.007900  132.623000
  C    -116.724000   53.436700  131.995000
  H    -117.151000   53.435300  132.944000
  H    -117.573000   53.366700  131.284000
  C    -116.038000   54.729800  131.680000
  H    -115.054000   54.880200  132.087000
  H    -116.669000   55.560700  132.030000
  H    -116.200000   54.828100  130.598000
  H    -118.006000   50.352300  125.747000
  H    -117.337000   47.997900  133.379000

 Total Charge           Charge          ....    0
 Multiplicity           Mult            ....    1
 Number of Electrons    NEL             ....  134
 Basis Dimension        Dim             ....  322

ORBITAL ENERGIES
----------------

  NO   OCC          E(Eh)            E(eV)
   0   2.0000     -88.965415     -2420.8720
   1   2.0000     -88.963603     -2420.8227
   2   2.0000     -10.339397      -281.3493
   3   2.0000     -10.328080      -281.0414
   4   2.0000     -10.316875      -280.7364
   5   2.0000     -10.313369      -280.6410
   6   2.0000     -10.308065      -280.4967
   7   2.0000     -10.305811      -280.4354
   8   2.0000     -10.305739      -280.4334
   9   2.0000     -10.295920      -280.1662
  10   2.0000     -10.295691      -280.1600
  11   2.0000     -10.293866      -280.1103
  12   2.0000     -10.291101      -280.0351
  13   2.0000     -10.286382      -279.9067
  14   2.0000     -10.280201      -279.7385
  15   2.0000     -10.276804      -279.6461
  16   2.0000      -8.079817      -219.8630
  17   2.0000      -8.078720      -219.8332
  18   2.0000      -6.038577      -164.3180
  19   2.0000      -6.037185      -164.2802
  20   2.0000      -6.034263      -164.2006
  21   2.0000      -6.033187      -164.1714
  22   2.0000      -6.030428      -164.0963
  23   2.0000      -6.029478      -164.0704
  24   2.0000      -1.007895       -27.4262
  25   2.0000      -0.980941       -26.6928
  26   2.0000      -0.911037       -24.7906
  27   2.0000      -0.904761       -24.6198
  28   2.0000      -0.873527       -23.7699
  29   2.0000      -0.860606       -23.4183
  30   2.0000      -0.844556       -22.9815
  31   2.0000      -0.810978       -22.0678
  32   2.0000      -0.783442       -21.3186
  33   2.0000      -0.771290       -20.9879
  34   2.0000      -0.710282       -19.3278
  35   2.0000      -0.699917       -19.0457
  36   2.0000      -0.692061       -18.8319
  37   2.0000      -0.665022       -18.0962
  38   2.0000      -0.633508       -17.2386
  39   2.0000      -0.611873       -16.6499
  40   2.0000      -0.595188       -16.1959
  41   2.0000      -0.574839       -15.6422
  42   2.0000      -0.573221       -15.5981
  43   2.0000      -0.546570       -14.8729
  44   2.0000      -0.540289       -14.7020
  45   2.0000      -0.530315       -14.4306
  46   2.0000      -0.519497       -14.1362
  47   2.0000      -0.513227       -13.9656
  48   2.0000      -0.511298       -13.9131
  49   2.0000      -0.504923       -13.7397
  50   2.0000      -0.491011       -13.3611
  51   2.0000      -0.476964       -12.9788
  52   2.0000      -0.471680       -12.8351
  53   2.0000      -0.465586       -12.6692
  54   2.0000      -0.456429       -12.4201
  55   2.0000      -0.449147       -12.2219
  56   2.0000      -0.442035       -12.0284
  57   2.0000      -0.439446       -11.9579
  58   2.0000      -0.431663       -11.7461
  59   2.0000      -0.426511       -11.6060
  60   2.0000      -0.417360       -11.3570
  61   2.0000      -0.407913       -11.0999
  62   2.0000      -0.405950       -11.0465
  63   2.0000      -0.363860        -9.9011
  64   2.0000      -0.335038        -9.1168
  65   2.0000      -0.327258        -8.9051
  66   2.0000      -0.279957        -7.6180
  67   0.0000       0.011169         0.3039
  68   0.0000       0.081735         2.2241
  69   0.0000       0.099057         2.6955
  70   0.0000       0.116369         3.1666
  71   0.0000       0.124140         3.3780

MULLIKEN ATOMIC CHARGES
-----------------------
   0 S :    0.084379
   1 C :   -0.114677
   2 C :   -0.097744
   3 C :    0.012307
   4 C :   -0.115980
   5 H :    0.002134
   6 C :    0.047646
   7 H :    0.049236
   8 H :    0.002785
   9 C :   -0.081428
  10 H :    0.031449
  11 H :    0.040850
  12 C :   -0.071871
  13 H :    0.016732
  14 H :    0.035715
  15 H :    0.051237
  16 S :    0.089455
  17 C :   -0.084859
  18 C :   -0.050968
  19 C :   -0.055346
  20 C :   -0.100473
  21 H :    0.028705
  22 C :    0.052032
  23 H :    0.025333
  24 H :    0.026116
  25 C :   -0.065886
  26 H :    0.012852
  27 H :    0.031749
  28 C :   -0.024124
  29 H :    0.044901
  30 H :    0.026881
  31 H :    0.026234
  32 H :    0.071003
  33 H :    0.053626
Sum of atomic charges:   -0.0000000

LOEWDIN ATOMIC CHARGES
----------------------
   0 S :    0.394963
   1 C :   -0.214719
   2 C :   -0.061360
   3 C :   -0.070496
   4 C :   -0.166990
   5 H :    0.030630
   6 C :   -0.035985
   7 H :    0.035580
   8 H :    0.024077
   9 C :   -0.047049
  10 H :    0.031333
  11 H :    0.025340
  12 C :   -0.073406
  13 H :    0.021600
  14 H :    0.032401
  15 H :    0.025259
  16 S :    0.398264
  17 C :   -0.186299
  18 C :   -0.081981
  19 C :   -0.054004
  20 C :   -0.186315
  21 H :    0.038816
  22 C :   -0.027874
  23 H :    0.030485
  24 H :    0.029520
  25 C :   -0.037039
  26 H :    0.012526
  27 H :    0.028455
  28 C :   -0.067120
  29 H :    0.025023
  30 H :    0.032374
  31 H :    0.027554
  32 H :    0.039598
  33 H :    0.026838

  Mayer bond orders larger than 0.100000
B(  0-S ,  1-C ) :   1.1203 B(  0-S ,  4-C ) :   1.1484 B(  1-C ,  2-C ) :   1.6239
B(  1-C , 32-H ) :   0.9619 B(  2-C ,  3-C ) :   1.2381 B(  2-C ,  6-C ) :   1.0043
B(  3-C ,  4-C ) :   1.5292 B(  3-C ,  5-H ) :   0.9826 B(  4-C , 20-C ) :   1.1194
B(  6-C ,  7-H ) :   0.9460 B(  6-C ,  8-H ) :   0.9431 B(  6-C ,  9-C ) :   1.0683
B(  9-C , 10-H ) :   0.9529 B(  9-C , 11-H ) :   0.9600 B(  9-C , 12-C ) :   1.0856
B( 12-C , 13-H ) :   0.9709 B( 12-C , 14-H ) :   0.9719 B( 12-C , 15-H ) :   0.9768
B( 16-S , 17-C ) :   1.1686 B( 16-S , 20-C ) :   1.1181 B( 17-C , 18-C ) :   1.6003
B( 17-C , 20-C ) :   0.1020 B( 17-C , 33-H ) :   0.9691 B( 18-C , 19-C ) :   1.2493
B( 18-C , 21-H ) :   0.9874 B( 19-C , 20-C ) :   1.5787 B( 19-C , 22-C ) :   1.0377
B( 22-C , 23-H ) :   0.9410 B( 22-C , 24-H ) :   0.9346 B( 22-C , 25-C ) :   1.0450
B( 25-C , 26-H ) :   0.9547 B( 25-C , 27-H ) :   0.9589 B( 25-C , 28-C ) :   1.0857
B( 28-C , 29-H ) :   0.9729 B( 28-C , 30-H ) :   0.9651 B( 28-C , 31-H ) :   0.9759

Dispersion correction           -0.014154164
FINAL SINGLE POINT ENERGY     -1339.868485957997

DIPOLE MOMENT
-------------
                                X             Y             Z
Electronic contribution:      1.38009     -29.71100       4.95904
Nuclear contribution   :     -1.29589      30.38694      -4.71719
                        -----------------------------------------
Total Dipole Moment    :      0.08420       0.67594       0.24186
                        -----------------------------------------
Magnitude (a.u.)       :      0.72283
Magnitude (Debye)      :      1.83728

Rotational constants in cm-1:     0.018131     0.009107     0.006597
Rotational constants in MHz :   543.566949   273.031956   197.771696

                             ****ORCA TERMINATED NORMALLY****
TOTAL RUN TIME: 0 days 0 hours 0 minutes 31 seconds 777 msec
