                         Program Version 4.2.1 -  RELEASE  -
|  1> ! wB97X-D3 SP def2-SVP
|  2> %pal
|  3> nprocs 16
|  4> end
|  5>
|  6> * xyz 0 1
|  7> S 	 52.5891 	 18.1625 	 80.326
|  8> C 	 53.7186 	 18.599 	 81.521
|  9> C 	 53.1416 	 19.1728 	 82.6601
| 10> C 	 51.7683 	 19.2997 	 82.471
| 11> C 	 51.3003 	 18.8692 	 81.263
| 12> H 	 51.1176 	 19.8646 	 83.1309
| 13> C 	 53.871 	 19.7645 	 83.8464
| 14> H 	 53.8145 	 20.8445 	 83.7853
| 15> H 	 54.9364 	 19.5029 	 83.7332
| 16> C 	 53.3545 	 19.1082 	 85.1733
| 17> H 	 53.5973 	 19.7638 	 85.9992
| 18> H 	 52.3092 	 19.2199 	 85.1614
| 19> C 	 53.661 	 17.6276 	 85.1648
| 20> H 	 53.0697 	 17.084 	 84.4535
| 21> H 	 54.668 	 17.4449 	 84.8116
| 22> H 	 53.6656 	 17.0917 	 86.1748
| 23> S 	 49.2557 	 17.2839 	 80.4669
| 24> C 	 47.7159 	 18.0074 	 80.2095
| 25> C 	 47.6727 	 19.36 	 80.2595
| 26> C 	 49.0188 	 19.8628 	 80.4831
| 27> C 	 49.9442 	 18.8494 	 80.7133
| 28> H 	 46.7904 	 19.9276 	 80.0602
| 29> C 	 49.3361 	 21.3528 	 80.5204
| 30> H 	 49.1482 	 21.7304 	 79.5331
| 31> H 	 50.431 	 21.3616 	 80.6974
| 32> C 	 48.5877 	 22.2315 	 81.564
| 33> H 	 49.448 	 22.6891 	 82.143
| 34> H 	 48.0091 	 21.62 	 82.2861
| 35> C 	 47.6839 	 23.268 	 80.9004
| 36> H 	 48.1639 	 23.6923 	 79.9805
| 37> H 	 47.55 	 24.1179 	 81.5548
| 38> H 	 46.7367 	 22.8147 	 80.6876
| 39> H 	 54.7371 	 18.3831 	 81.4509
| 40> H 	 46.8826 	 17.4681 	 79.8409
| 41> *
| 42>
| 43>                          ****END OF INPUT****

CARTESIAN COORDINATES (ANGSTROEM)
---------------------------------
  S     52.589100   18.162500   80.326000
  C     53.718600   18.599000   81.521000
  C     53.141600   19.172800   82.660100
  C     51.768300   19.299700   82.471000
  C     51.300300   18.869200   81.263000
  H     51.117600   19.864600   83.130900
  C     53.871000   19.764500   83.846400
  H     53.814500   20.844500   83.785300
  H     54.936400   19.502900   83.733200
  C     53.354500   19.108200   85.173300
  H     53.597300   19.763800   85.999200
  H     52.309200   19.219900   85.161400
  C     53.661000   17.627600   85.164800
  H     53.069700   17.084000   84.453500
  H     54.668000   17.444900   84.811600
  H     53.665600   17.091700   86.174800
  S     49.255700   17.283900   80.466900
  C     47.715900   18.007400   80.209500
  C     47.672700   19.360000   80.259500
  C     49.018800   19.862800   80.483100
  C     49.944200   18.849400   80.713300
  H     46.790400   19.927600   80.060200
  C     49.336100   21.352800   80.520400
  H     49.148200   21.730400   79.533100
  H     50.431000   21.361600   80.697400
  C     48.587700   22.231500   81.564000
  H     49.448000   22.689100   82.143000
  H     48.009100   21.620000   82.286100
  C     47.683900   23.268000   80.900400
  H     48.163900   23.692300   79.980500
  H     47.550000   24.117900   81.554800
  H     46.736700   22.814700   80.687600
  H     54.737100   18.383100   81.450900
  H     46.882600   17.468100   79.840900

 Total Charge           Charge          ....    0
 Multiplicity           Mult            ....    1
 Number of Electrons    NEL             ....  134
 Basis Dimension        Dim             ....  322

ORBITAL ENERGIES
----------------

  NO   OCC          E(Eh)            E(eV)
   0   2.0000     -88.964997     -2420.8606
   1   2.0000     -88.962609     -2420.7956
   2   2.0000     -10.323775      -280.9242
   3   2.0000     -10.319998      -280.8214
   4   2.0000     -10.308214      -280.5008
   5   2.0000     -10.306218      -280.4464
   6   2.0000     -10.302528      -280.3460
   7   2.0000     -10.295356      -280.1509
   8   2.0000     -10.294162      -280.1184
   9   2.0000     -10.291981      -280.0590
  10   2.0000     -10.290234      -280.0115
  11   2.0000     -10.287799      -279.9452
  12   2.0000     -10.287150      -279.9276
  13   2.0000     -10.283493      -279.8281
  14   2.0000     -10.279979      -279.7324
  15   2.0000     -10.277443      -279.6634
  16   2.0000      -8.080914      -219.8929
  17   2.0000      -8.078571      -219.8291
  18   2.0000      -6.039137      -164.3333
  19   2.0000      -6.036985      -164.2747
  20   2.0000      -6.035251      -164.2275
  21   2.0000      -6.033012      -164.1666
  22   2.0000      -6.031929      -164.1371
  23   2.0000      -6.029259      -164.0645
  24   2.0000      -1.012650       -27.5556
  25   2.0000      -0.990419       -26.9507
  26   2.0000      -0.914549       -24.8861
  27   2.0000      -0.905439       -24.6383
  28   2.0000      -0.869728       -23.6665
  29   2.0000      -0.852445       -23.1962
  30   2.0000      -0.847609       -23.0646
  31   2.0000      -0.816811       -22.2266
  32   2.0000      -0.781983       -21.2788
  33   2.0000      -0.768957       -20.9244
  34   2.0000      -0.713801       -19.4235
  35   2.0000      -0.697985       -18.9931
  36   2.0000      -0.690357       -18.7856
  37   2.0000      -0.661066       -17.9885
  38   2.0000      -0.645592       -17.5674
  39   2.0000      -0.626731       -17.0542
  40   2.0000      -0.596384       -16.2284
  41   2.0000      -0.569745       -15.5035
  42   2.0000      -0.555772       -15.1233
  43   2.0000      -0.550953       -14.9922
  44   2.0000      -0.535843       -14.5810
  45   2.0000      -0.533345       -14.5131
  46   2.0000      -0.515682       -14.0324
  47   2.0000      -0.513257       -13.9664
  48   2.0000      -0.502397       -13.6709
  49   2.0000      -0.496780       -13.5181
  50   2.0000      -0.486490       -13.2381
  51   2.0000      -0.481576       -13.1044
  52   2.0000      -0.466719       -12.7001
  53   2.0000      -0.463044       -12.6001
  54   2.0000      -0.461505       -12.5582
  55   2.0000      -0.453474       -12.3397
  56   2.0000      -0.448012       -12.1910
  57   2.0000      -0.442475       -12.0404
  58   2.0000      -0.435388       -11.8475
  59   2.0000      -0.423704       -11.5296
  60   2.0000      -0.419778       -11.4227
  61   2.0000      -0.416877       -11.3438
  62   2.0000      -0.410480       -11.1697
  63   2.0000      -0.344093        -9.3633
  64   2.0000      -0.332465        -9.0468
  65   2.0000      -0.324868        -8.8401
  66   2.0000      -0.296289        -8.0624
  67   0.0000       0.042590         1.1589
  68   0.0000       0.068118         1.8536
  69   0.0000       0.119315         3.2467
  70   0.0000       0.124865         3.3977
  71   0.0000       0.127708         3.4751

MULLIKEN ATOMIC CHARGES
-----------------------
   0 S :    0.123274
   1 C :   -0.092465
   2 C :   -0.117742
   3 C :    0.047451
   4 C :   -0.192903
   5 H :    0.009629
   6 C :    0.051275
   7 H :    0.041793
   8 H :    0.019168
   9 C :   -0.031438
  10 H :    0.023908
  11 H :    0.011369
  12 C :   -0.047921
  13 H :    0.045118
  14 H :    0.011502
  15 H :    0.047090
  16 S :    0.117855
  17 C :   -0.066894
  18 C :   -0.023757
  19 C :   -0.060401
  20 C :   -0.156437
  21 H :    0.011206
  22 C :    0.067100
  23 H :    0.028790
  24 H :    0.034880
  25 C :   -0.100592
  26 H :    0.037910
  27 H :    0.042229
  28 C :   -0.045098
  29 H :    0.037073
  30 H :    0.032388
  31 H :    0.034533
  32 H :    0.020293
  33 H :    0.039813
Sum of atomic charges:   -0.0000000

LOEWDIN ATOMIC CHARGES
----------------------
   0 S :    0.431806
   1 C :   -0.201960
   2 C :   -0.068758
   3 C :   -0.062387
   4 C :   -0.201455
   5 H :    0.031512
   6 C :   -0.024229
   7 H :    0.031228
   8 H :    0.027936
   9 C :   -0.039839
  10 H :    0.024833
  11 H :    0.016792
  12 C :   -0.067208
  13 H :    0.029152
  14 H :    0.020310
  15 H :    0.036874
  16 S :    0.421726
  17 C :   -0.181591
  18 C :   -0.069862
  19 C :   -0.049224
  20 C :   -0.219677
  21 H :    0.029925
  22 C :   -0.034817
  23 H :    0.028116
  24 H :    0.034914
  25 C :   -0.048561
  26 H :    0.031468
  27 H :    0.026575
  28 C :   -0.064606
  29 H :    0.029927
  30 H :    0.025919
  31 H :    0.022571
  32 H :    0.012542
  33 H :    0.020051

  Mayer bond orders larger than 0.100000
B(  0-S ,  1-C ) :   1.1682 B(  0-S ,  4-C ) :   1.1690 B(  1-C ,  2-C ) :   1.5790
B(  1-C ,  4-C ) :   0.1065 B(  1-C , 32-H ) :   0.9711 B(  2-C ,  3-C ) :   1.2647
B(  2-C ,  6-C ) :   1.0148 B(  3-C ,  4-C ) :   1.5824 B(  3-C ,  5-H ) :   0.9939
B(  4-C , 20-C ) :   0.9882 B(  6-C ,  7-H ) :   0.9448 B(  6-C ,  8-H ) :   0.9455
B(  6-C ,  9-C ) :   1.0637 B(  9-C , 10-H ) :   0.9592 B(  9-C , 11-H ) :   0.9575
B(  9-C , 12-C ) :   1.0542 B( 12-C , 13-H ) :   0.9687 B( 12-C , 14-H ) :   0.9775
B( 12-C , 15-H ) :   0.9739 B( 16-S , 17-C ) :   1.1602 B( 16-S , 20-C ) :   1.1414
B( 17-C , 18-C ) :   1.6318 B( 17-C , 33-H ) :   0.9651 B( 18-C , 19-C ) :   1.2107
B( 18-C , 21-H ) :   0.9968 B( 19-C , 20-C ) :   1.6245 B( 19-C , 22-C ) :   1.0493
B( 22-C , 23-H ) :   0.9390 B( 22-C , 24-H ) :   0.9376 B( 22-C , 25-C ) :   1.0245
B( 25-C , 26-H ) :   0.9629 B( 25-C , 27-H ) :   0.9684 B( 25-C , 28-C ) :   1.0717
B( 28-C , 29-H ) :   0.9771 B( 28-C , 30-H ) :   0.9719 B( 28-C , 31-H ) :   0.9779

Dispersion correction           -0.014523074
FINAL SINGLE POINT ENERGY     -1339.880761054847

DIPOLE MOMENT
-------------
                                X             Y             Z
Electronic contribution:     -0.49454     -17.17503     -16.00007
Nuclear contribution   :      0.39666      17.70028      16.26751
                        -----------------------------------------
Total Dipole Moment    :     -0.09789       0.52525       0.26744
                        -----------------------------------------
Magnitude (a.u.)       :      0.59749
Magnitude (Debye)      :      1.51869

Rotational constants in cm-1:     0.018581     0.008508     0.006993
Rotational constants in MHz :   557.036694   255.071463   209.632548

                             ****ORCA TERMINATED NORMALLY****
TOTAL RUN TIME: 0 days 0 hours 0 minutes 30 seconds 647 msec
