                         Program Version 4.2.1 -  RELEASE  -
|  1> ! wB97X-D3 SP def2-SVP
|  2> %pal
|  3> nprocs 16
|  4> end
|  5>
|  6> * xyz 0 1
|  7> S 	 15.5149 	 -8.17391 	 81.3566
|  8> C 	 14.742 	 -6.95703 	 80.5078
|  9> C 	 15.3305 	 -6.62339 	 79.2799
| 10> C 	 16.409 	 -7.45929 	 79.0751
| 11> C 	 16.6194 	 -8.42783 	 80.0016
| 12> H 	 16.8446 	 -7.52482 	 78.116
| 13> C 	 14.7148 	 -5.73708 	 78.1992
| 14> H 	 14.35 	 -6.21873 	 77.3019
| 15> H 	 15.5369 	 -5.09552 	 77.8671
| 16> C 	 13.7036 	 -4.66452 	 78.7431
| 17> H 	 12.7443 	 -5.12418 	 78.7599
| 18> H 	 13.991 	 -4.43456 	 79.7708
| 19> C 	 13.5816 	 -3.43722 	 77.7865
| 20> H 	 13.1533 	 -3.7231 	 76.8386
| 21> H 	 12.8516 	 -2.70353 	 78.1321
| 22> H 	 14.4977 	 -2.8963 	 77.6418
| 23> S 	 16.8203 	 -11.1109 	 79.8637
| 24> C 	 18.3429 	 -11.8902 	 79.665
| 25> C 	 19.3819 	 -11.0209 	 79.7032
| 26> C 	 18.9004 	 -9.61888 	 79.867
| 27> C 	 17.4973 	 -9.54988 	 79.931
| 28> H 	 20.427 	 -11.4381 	 79.6076
| 29> C 	 19.9317 	 -8.52574 	 79.9885
| 30> H 	 19.4687 	 -7.70746 	 79.473
| 31> H 	 20.7847 	 -8.65388 	 79.4055
| 32> C 	 20.2918 	 -8.05632 	 81.4317
| 33> H 	 21.2099 	 -8.64113 	 81.6503
| 34> H 	 19.5939 	 -8.44793 	 82.1191
| 35> C 	 20.509 	 -6.57296 	 81.6465
| 36> H 	 19.6236 	 -6.02971 	 81.3848
| 37> H 	 21.2659 	 -6.21347 	 80.9953
| 38> H 	 20.7285 	 -6.31446 	 82.7055
| 39> H 	 13.7398 	 -6.71667 	 80.7301
| 40> H 	 18.4854 	 -12.959 	 79.7018
| 41> *
| 42>
| 43>                          ****END OF INPUT****

CARTESIAN COORDINATES (ANGSTROEM)
---------------------------------
  S     15.514900   -8.173910   81.356600
  C     14.742000   -6.957030   80.507800
  C     15.330500   -6.623390   79.279900
  C     16.409000   -7.459290   79.075100
  C     16.619400   -8.427830   80.001600
  H     16.844600   -7.524820   78.116000
  C     14.714800   -5.737080   78.199200
  H     14.350000   -6.218730   77.301900
  H     15.536900   -5.095520   77.867100
  C     13.703600   -4.664520   78.743100
  H     12.744300   -5.124180   78.759900
  H     13.991000   -4.434560   79.770800
  C     13.581600   -3.437220   77.786500
  H     13.153300   -3.723100   76.838600
  H     12.851600   -2.703530   78.132100
  H     14.497700   -2.896300   77.641800
  S     16.820300  -11.110900   79.863700
  C     18.342900  -11.890200   79.665000
  C     19.381900  -11.020900   79.703200
  C     18.900400   -9.618880   79.867000
  C     17.497300   -9.549880   79.931000
  H     20.427000  -11.438100   79.607600
  C     19.931700   -8.525740   79.988500
  H     19.468700   -7.707460   79.473000
  H     20.784700   -8.653880   79.405500
  C     20.291800   -8.056320   81.431700
  H     21.209900   -8.641130   81.650300
  H     19.593900   -8.447930   82.119100
  C     20.509000   -6.572960   81.646500
  H     19.623600   -6.029710   81.384800
  H     21.265900   -6.213470   80.995300
  H     20.728500   -6.314460   82.705500
  H     13.739800   -6.716670   80.730100
  H     18.485400  -12.959000   79.701800

 Total Charge           Charge          ....    0
 Multiplicity           Mult            ....    1
 Number of Electrons    NEL             ....  134
 Basis Dimension        Dim             ....  322

ORBITAL ENERGIES
----------------

  NO   OCC          E(Eh)            E(eV)
   0   2.0000     -88.965274     -2420.8682
   1   2.0000     -88.961670     -2420.7701
   2   2.0000     -10.322031      -280.8767
   3   2.0000     -10.321418      -280.8601
   4   2.0000     -10.310306      -280.5577
   5   2.0000     -10.309342      -280.5315
   6   2.0000     -10.304189      -280.3912
   7   2.0000     -10.297005      -280.1958
   8   2.0000     -10.296789      -280.1899
   9   2.0000     -10.294216      -280.1199
  10   2.0000     -10.287986      -279.9503
  11   2.0000     -10.283291      -279.8226
  12   2.0000     -10.279777      -279.7269
  13   2.0000     -10.278896      -279.7030
  14   2.0000     -10.278458      -279.6911
  15   2.0000     -10.270885      -279.4850
  16   2.0000      -8.081389      -219.9058
  17   2.0000      -8.078027      -219.8143
  18   2.0000      -6.039534      -164.3441
  19   2.0000      -6.036548      -164.2628
  20   2.0000      -6.035676      -164.2391
  21   2.0000      -6.032475      -164.1520
  22   2.0000      -6.032215      -164.1449
  23   2.0000      -6.028756      -164.0508
  24   2.0000      -1.015261       -27.6267
  25   2.0000      -0.991049       -26.9678
  26   2.0000      -0.907584       -24.6966
  27   2.0000      -0.905372       -24.6364
  28   2.0000      -0.874187       -23.7878
  29   2.0000      -0.858373       -23.3575
  30   2.0000      -0.846304       -23.0291
  31   2.0000      -0.816685       -22.2231
  32   2.0000      -0.783425       -21.3181
  33   2.0000      -0.768632       -20.9155
  34   2.0000      -0.712766       -19.3954
  35   2.0000      -0.704148       -19.1609
  36   2.0000      -0.691850       -18.8262
  37   2.0000      -0.658685       -17.9237
  38   2.0000      -0.646132       -17.5821
  39   2.0000      -0.622057       -16.9270
  40   2.0000      -0.595498       -16.2043
  41   2.0000      -0.575524       -15.6608
  42   2.0000      -0.567033       -15.4297
  43   2.0000      -0.554607       -15.0916
  44   2.0000      -0.525536       -14.3006
  45   2.0000      -0.522077       -14.2064
  46   2.0000      -0.516504       -14.0548
  47   2.0000      -0.505726       -13.7615
  48   2.0000      -0.500942       -13.6313
  49   2.0000      -0.499452       -13.5908
  50   2.0000      -0.494609       -13.4590
  51   2.0000      -0.489989       -13.3333
  52   2.0000      -0.474773       -12.9192
  53   2.0000      -0.466561       -12.6958
  54   2.0000      -0.462980       -12.5983
  55   2.0000      -0.450297       -12.2532
  56   2.0000      -0.438826       -11.9411
  57   2.0000      -0.435414       -11.8482
  58   2.0000      -0.433791       -11.8041
  59   2.0000      -0.428695       -11.6654
  60   2.0000      -0.419224       -11.4077
  61   2.0000      -0.416640       -11.3374
  62   2.0000      -0.410484       -11.1698
  63   2.0000      -0.345897        -9.4123
  64   2.0000      -0.331652        -9.0247
  65   2.0000      -0.321650        -8.7525
  66   2.0000      -0.297217        -8.0877
  67   0.0000       0.034036         0.9262
  68   0.0000       0.071290         1.9399
  69   0.0000       0.123275         3.3545
  70   0.0000       0.125683         3.4200
  71   0.0000       0.130978         3.5641

MULLIKEN ATOMIC CHARGES
-----------------------
   0 S :    0.131145
   1 C :   -0.115252
   2 C :   -0.092997
   3 C :    0.066642
   4 C :   -0.187566
   5 H :   -0.004381
   6 C :    0.048270
   7 H :    0.045078
   8 H :    0.023895
   9 C :   -0.082931
  10 H :    0.026187
  11 H :    0.037961
  12 C :   -0.042809
  13 H :    0.024694
  14 H :    0.028988
  15 H :    0.034281
  16 S :    0.116994
  17 C :   -0.089202
  18 C :   -0.054646
  19 C :   -0.067673
  20 C :   -0.156198
  21 H :    0.043161
  22 C :    0.113831
  23 H :   -0.001831
  24 H :    0.005888
  25 C :   -0.047548
  26 H :    0.021375
  27 H :    0.020648
  28 C :   -0.034570
  29 H :    0.029768
  30 H :    0.022050
  31 H :    0.040044
  32 H :    0.041918
  33 H :    0.054785
Sum of atomic charges:   -0.0000000

LOEWDIN ATOMIC CHARGES
----------------------
   0 S :    0.434345
   1 C :   -0.215692
   2 C :   -0.067046
   3 C :   -0.052579
   4 C :   -0.197094
   5 H :    0.027829
   6 C :   -0.030199
   7 H :    0.031414
   8 H :    0.033008
   9 C :   -0.036113
  10 H :    0.018504
  11 H :    0.024925
  12 C :   -0.064145
  13 H :    0.024356
  14 H :    0.028522
  15 H :    0.021401
  16 S :    0.435138
  17 C :   -0.196575
  18 C :   -0.081031
  19 C :   -0.041974
  20 C :   -0.227055
  21 H :    0.043773
  22 C :   -0.033511
  23 H :    0.027566
  24 H :    0.021750
  25 C :   -0.035319
  26 H :    0.025239
  27 H :    0.018280
  28 C :   -0.060702
  29 H :    0.024096
  30 H :    0.019277
  31 H :    0.033275
  32 H :    0.017031
  33 H :    0.029306

  Mayer bond orders larger than 0.100000
B(  0-S ,  1-C ) :   1.1836 B(  0-S ,  4-C ) :   1.1466 B(  1-C ,  2-C ) :   1.5707
B(  1-C , 32-H ) :   0.9617 B(  2-C ,  3-C ) :   1.3046 B(  2-C ,  6-C ) :   1.0084
B(  3-C ,  4-C ) :   1.5760 B(  3-C ,  5-H ) :   0.9973 B(  4-C , 20-C ) :   1.0381
B(  6-C ,  7-H ) :   0.9444 B(  6-C ,  8-H ) :   0.9427 B(  6-C ,  9-C ) :   1.0624
B(  9-C , 10-H ) :   0.9522 B(  9-C , 11-H ) :   0.9589 B(  9-C , 12-C ) :   1.0858
B( 12-C , 13-H ) :   0.9736 B( 12-C , 14-H ) :   0.9732 B( 12-C , 15-H ) :   0.9780
B( 16-S , 17-C ) :   1.1585 B( 16-S , 20-C ) :   1.1520 B( 17-C , 18-C ) :   1.6359
B( 17-C , 33-H ) :   0.9641 B( 18-C , 19-C ) :   1.2183 B( 18-C , 21-H ) :   0.9819
B( 19-C , 20-C ) :   1.5825 B( 19-C , 22-C ) :   1.0604 B( 22-C , 23-H ) :   0.9262
B( 22-C , 24-H ) :   0.9310 B( 22-C , 25-C ) :   1.0362 B( 25-C , 26-H ) :   0.9541
B( 25-C , 27-H ) :   0.9631 B( 25-C , 28-C ) :   1.0876 B( 28-C , 29-H ) :   0.9734
B( 28-C , 30-H ) :   0.9764 B( 28-C , 31-H ) :   0.9721

Dispersion correction           -0.013812871
FINAL SINGLE POINT ENERGY     -1339.866711322207

DIPOLE MOMENT
-------------
                                X             Y             Z
Electronic contribution:     -4.80762     -24.29979       5.71665
Nuclear contribution   :      4.92600      24.53763      -6.08375
                        -----------------------------------------
Total Dipole Moment    :      0.11838       0.23783      -0.36710
                        -----------------------------------------
Magnitude (a.u.)       :      0.45315
Magnitude (Debye)      :      1.15181

Rotational constants in cm-1:     0.020357     0.007564     0.006420
Rotational constants in MHz :   610.286586   226.760578   192.461233

                             ****ORCA TERMINATED NORMALLY****
TOTAL RUN TIME: 0 days 0 hours 0 minutes 29 seconds 34 msec
