                         Program Version 4.2.1 -  RELEASE  -
|  1> ! wB97X-D3 SP def2-SVP
|  2> %pal
|  3> nprocs 16
|  4> end
|  5>
|  6> * xyz 0 1
|  7> S 	 25.246 	 -9.60185 	 77.08
|  8> C 	 25.5123 	 -10.8508 	 75.7838
|  9> C 	 26.6504 	 -11.6145 	 76.0703
| 10> C 	 27.2336 	 -11.2301 	 77.3633
| 11> C 	 26.5032 	 -10.2598 	 78.037
| 12> H 	 28.1443 	 -11.5733 	 77.8235
| 13> C 	 27.2082 	 -12.6679 	 75.1551
| 14> H 	 26.3012 	 -13.2823 	 74.9106
| 15> H 	 28.0271 	 -13.1618 	 75.6733
| 16> C 	 27.6916 	 -12.101 	 73.7918
| 17> H 	 26.7777 	 -11.7645 	 73.2681
| 18> H 	 28.4318 	 -11.3196 	 73.9127
| 19> C 	 28.4377 	 -13.2278 	 73.0273
| 20> H 	 27.9926 	 -14.2714 	 73.1325
| 21> H 	 28.7616 	 -12.961 	 71.9997
| 22> H 	 29.3874 	 -13.3751 	 73.6172
| 23> S 	 26.865 	 -10.7385 	 80.7593
| 24> C 	 27.4534 	 -9.45152 	 81.7558
| 25> C 	 27.4107 	 -8.25647 	 81.1116
| 26> C 	 26.9633 	 -8.38788 	 79.7287
| 27> C 	 26.7879 	 -9.71486 	 79.3253
| 28> H 	 27.6736 	 -7.37575 	 81.6612
| 29> C 	 26.8888 	 -7.23565 	 78.8249
| 30> H 	 26.9734 	 -6.34383 	 79.356
| 31> H 	 25.9481 	 -7.25814 	 78.2918
| 32> C 	 27.9319 	 -7.26725 	 77.6317
| 33> H 	 27.7672 	 -8.14068 	 76.9821
| 34> H 	 28.9176 	 -7.42615 	 77.9561
| 35> C 	 27.8285 	 -5.94043 	 76.9254
| 36> H 	 26.9189 	 -5.96247 	 76.3608
| 37> H 	 28.6473 	 -5.77691 	 76.2415
| 38> H 	 27.8162 	 -5.09654 	 77.547
| 39> H 	 24.949 	 -10.8142 	 74.8569
| 40> H 	 27.8417 	 -9.5819 	 82.7591
| 41> *
| 42>
| 43>                          ****END OF INPUT****

CARTESIAN COORDINATES (ANGSTROEM)
---------------------------------
  S     25.246000   -9.601850   77.080000
  C     25.512300  -10.850800   75.783800
  C     26.650400  -11.614500   76.070300
  C     27.233600  -11.230100   77.363300
  C     26.503200  -10.259800   78.037000
  H     28.144300  -11.573300   77.823500
  C     27.208200  -12.667900   75.155100
  H     26.301200  -13.282300   74.910600
  H     28.027100  -13.161800   75.673300
  C     27.691600  -12.101000   73.791800
  H     26.777700  -11.764500   73.268100
  H     28.431800  -11.319600   73.912700
  C     28.437700  -13.227800   73.027300
  H     27.992600  -14.271400   73.132500
  H     28.761600  -12.961000   71.999700
  H     29.387400  -13.375100   73.617200
  S     26.865000  -10.738500   80.759300
  C     27.453400   -9.451520   81.755800
  C     27.410700   -8.256470   81.111600
  C     26.963300   -8.387880   79.728700
  C     26.787900   -9.714860   79.325300
  H     27.673600   -7.375750   81.661200
  C     26.888800   -7.235650   78.824900
  H     26.973400   -6.343830   79.356000
  H     25.948100   -7.258140   78.291800
  C     27.931900   -7.267250   77.631700
  H     27.767200   -8.140680   76.982100
  H     28.917600   -7.426150   77.956100
  C     27.828500   -5.940430   76.925400
  H     26.918900   -5.962470   76.360800
  H     28.647300   -5.776910   76.241500
  H     27.816200   -5.096540   77.547000
  H     24.949000  -10.814200   74.856900
  H     27.841700   -9.581900   82.759100

 Total Charge           Charge          ....    0
 Multiplicity           Mult            ....    1
 Number of Electrons    NEL             ....  134
 Basis Dimension        Dim             ....  322

ORBITAL ENERGIES
----------------

  NO   OCC          E(Eh)            E(eV)
   0   2.0000     -88.966538     -2420.9026
   1   2.0000     -88.961770     -2420.7728
   2   2.0000     -10.327144      -281.0159
   3   2.0000     -10.321740      -280.8688
   4   2.0000     -10.321059      -280.8503
   5   2.0000     -10.312482      -280.6169
   6   2.0000     -10.311265      -280.5838
   7   2.0000     -10.301563      -280.3198
   8   2.0000     -10.299115      -280.2532
   9   2.0000     -10.298624      -280.2398
  10   2.0000     -10.294453      -280.1263
  11   2.0000     -10.291230      -280.0386
  12   2.0000     -10.290949      -280.0310
  13   2.0000     -10.279657      -279.7237
  14   2.0000     -10.275686      -279.6156
  15   2.0000     -10.263291      -279.2783
  16   2.0000      -8.080557      -219.8831
  17   2.0000      -8.076633      -219.7764
  18   2.0000      -6.039178      -164.3344
  19   2.0000      -6.035225      -164.2268
  20   2.0000      -6.035113      -164.2238
  21   2.0000      -6.031301      -164.1200
  22   2.0000      -6.031086      -164.1142
  23   2.0000      -6.027340      -164.0123
  24   2.0000      -1.006103       -27.3775
  25   2.0000      -0.979703       -26.6591
  26   2.0000      -0.916547       -24.9405
  27   2.0000      -0.909224       -24.7412
  28   2.0000      -0.869733       -23.6666
  29   2.0000      -0.851036       -23.1579
  30   2.0000      -0.843737       -22.9592
  31   2.0000      -0.814211       -22.1558
  32   2.0000      -0.780066       -21.2267
  33   2.0000      -0.765802       -20.8385
  34   2.0000      -0.710264       -19.3273
  35   2.0000      -0.701976       -19.1017
  36   2.0000      -0.693401       -18.8684
  37   2.0000      -0.662407       -18.0250
  38   2.0000      -0.640637       -17.4326
  39   2.0000      -0.614653       -16.7255
  40   2.0000      -0.595588       -16.2068
  41   2.0000      -0.577008       -15.7012
  42   2.0000      -0.567950       -15.4547
  43   2.0000      -0.563737       -15.3401
  44   2.0000      -0.524882       -14.2828
  45   2.0000      -0.520942       -14.1756
  46   2.0000      -0.518534       -14.1100
  47   2.0000      -0.516884       -14.0651
  48   2.0000      -0.506099       -13.7717
  49   2.0000      -0.502590       -13.6762
  50   2.0000      -0.488659       -13.2971
  51   2.0000      -0.476316       -12.9612
  52   2.0000      -0.468997       -12.7620
  53   2.0000      -0.467294       -12.7157
  54   2.0000      -0.462301       -12.5799
  55   2.0000      -0.450961       -12.2713
  56   2.0000      -0.442965       -12.0537
  57   2.0000      -0.439291       -11.9537
  58   2.0000      -0.427472       -11.6321
  59   2.0000      -0.425052       -11.5663
  60   2.0000      -0.421814       -11.4782
  61   2.0000      -0.418252       -11.3812
  62   2.0000      -0.413128       -11.2418
  63   2.0000      -0.340895        -9.2762
  64   2.0000      -0.329072        -8.9545
  65   2.0000      -0.324073        -8.8185
  66   2.0000      -0.291785        -7.9399
  67   0.0000       0.024570         0.6686
  68   0.0000       0.072808         1.9812
  69   0.0000       0.104711         2.8493
  70   0.0000       0.115062         3.1310
  71   0.0000       0.123610         3.3636

MULLIKEN ATOMIC CHARGES
-----------------------
   0 S :    0.094528
   1 C :   -0.142221
   2 C :   -0.066556
   3 C :    0.033507
   4 C :   -0.183195
   5 H :    0.008871
   6 C :    0.046106
   7 H :    0.054768
   8 H :    0.024908
   9 C :   -0.073414
  10 H :    0.036408
  11 H :    0.038776
  12 C :   -0.084893
  13 H :    0.041649
  14 H :    0.050754
  15 H :    0.026489
  16 S :    0.112415
  17 C :   -0.094466
  18 C :   -0.026901
  19 C :   -0.019328
  20 C :   -0.141874
  21 H :    0.011866
  22 C :    0.074588
  23 H :   -0.002995
  24 H :    0.023469
  25 C :   -0.068565
  26 H :    0.044080
  27 H :    0.009304
  28 C :    0.002993
  29 H :    0.018696
  30 H :    0.023143
  31 H :    0.012232
  32 H :    0.057210
  33 H :    0.057648
Sum of atomic charges:   -0.0000000

LOEWDIN ATOMIC CHARGES
----------------------
   0 S :    0.405091
   1 C :   -0.184374
   2 C :   -0.052564
   3 C :   -0.063399
   4 C :   -0.202985
   5 H :    0.029794
   6 C :   -0.034295
   7 H :    0.047334
   8 H :    0.029074
   9 C :   -0.036236
  10 H :    0.022880
  11 H :    0.025468
  12 C :   -0.082039
  13 H :    0.031237
  14 H :    0.028782
  15 H :    0.028400
  16 S :    0.406094
  17 C :   -0.188032
  18 C :   -0.072540
  19 C :   -0.048840
  20 C :   -0.205633
  21 H :    0.030410
  22 C :   -0.031784
  23 H :    0.020078
  24 H :    0.023929
  25 C :   -0.029412
  26 H :    0.026158
  27 H :    0.011743
  28 C :   -0.056989
  29 H :    0.024011
  30 H :    0.024525
  31 H :    0.016227
  32 H :    0.026193
  33 H :    0.031698

  Mayer bond orders larger than 0.100000
B(  0-S ,  1-C ) :   1.1168 B(  0-S ,  4-C ) :   1.1579 B(  1-C ,  2-C ) :   1.6047
B(  1-C , 32-H ) :   0.9735 B(  2-C ,  3-C ) :   1.2139 B(  2-C ,  6-C ) :   1.0226
B(  3-C ,  4-C ) :   1.5748 B(  3-C ,  5-H ) :   0.9964 B(  4-C , 20-C ) :   1.0592
B(  6-C ,  7-H ) :   0.9338 B(  6-C ,  8-H ) :   0.9465 B(  6-C ,  9-C ) :   1.0650
B(  9-C , 10-H ) :   0.9550 B(  9-C , 11-H ) :   0.9611 B(  9-C , 12-C ) :   1.0713
B( 12-C , 13-H ) :   0.9721 B( 12-C , 14-H ) :   0.9738 B( 12-C , 15-H ) :   0.9743
B( 16-S , 17-C ) :   1.1573 B( 16-S , 20-C ) :   1.1282 B( 17-C , 18-C ) :   1.6185
B( 17-C , 33-H ) :   0.9639 B( 18-C , 19-C ) :   1.2239 B( 18-C , 21-H ) :   0.9972
B( 19-C , 20-C ) :   1.5606 B( 19-C , 22-C ) :   1.0782 B( 22-C , 23-H ) :   0.9310
B( 22-C , 24-H ) :   0.9200 B( 22-C , 25-C ) :   1.0543 B( 25-C , 26-H ) :   0.9507
B( 25-C , 27-H ) :   0.9581 B( 25-C , 28-C ) :   1.0883 B( 28-C , 29-H ) :   0.9729
B( 28-C , 30-H ) :   0.9712 B( 28-C , 31-H ) :   0.9731

Dispersion correction           -0.014467586
FINAL SINGLE POINT ENERGY     -1339.875098927092

DIPOLE MOMENT
-------------
                                X             Y             Z
Electronic contribution:    -11.47133      -3.08656      21.71080
Nuclear contribution   :     11.92112       3.22454     -22.05545
                        -----------------------------------------
Total Dipole Moment    :      0.44978       0.13797      -0.34465
                        -----------------------------------------
Magnitude (a.u.)       :      0.58320
Magnitude (Debye)      :      1.48237

Rotational constants in cm-1:     0.020425     0.008073     0.006764
Rotational constants in MHz :   612.318957   242.012215   202.769046

                             ****ORCA TERMINATED NORMALLY****
TOTAL RUN TIME: 0 days 0 hours 0 minutes 28 seconds 665 msec
