                         Program Version 4.2.1 -  RELEASE  -
|  1> ! wB97X-D3 SP def2-SVP
|  2> %pal
|  3> nprocs 16
|  4> end
|  5>
|  6> * xyz 0 1
|  7> S 	 -38.5951 	 42.6824 	 94.1842
|  8> C 	 -39.7054 	 43.9451 	 94.8278
|  9> C 	 -40.9567 	 43.4236 	 95.1197
| 10> C 	 -41.046 	 42.0024 	 94.8992
| 11> C 	 -39.7869 	 41.4508 	 94.6763
| 12> H 	 -41.9346 	 41.2814 	 94.9153
| 13> C 	 -42.09 	 44.3116 	 95.602
| 14> H 	 -41.7519 	 44.871 	 96.4335
| 15> H 	 -42.9774 	 43.675 	 95.9495
| 16> C 	 -42.5788 	 45.2643 	 94.5288
| 17> H 	 -41.8443 	 45.9527 	 94.1673
| 18> H 	 -42.7207 	 44.5959 	 93.6637
| 19> C 	 -43.769 	 46.0717 	 94.9182
| 20> H 	 -44.678 	 45.4377 	 95.0938
| 21> H 	 -43.4722 	 46.6619 	 95.8451
| 22> H 	 -43.9928 	 46.8052 	 94.1297
| 23> S 	 -38.3658 	 39.5772 	 96.0202
| 24> C 	 -38.3 	 37.9341 	 95.4201
| 25> C 	 -39.1601 	 37.7949 	 94.2704
| 26> C 	 -39.8487 	 38.9681 	 93.9404
| 27> C 	 -39.4968 	 40.0566 	 94.7794
| 28> H 	 -39.1034 	 36.8481 	 93.6944
| 29> C 	 -40.6016 	 39.0277 	 92.5756
| 30> H 	 -39.9071 	 38.7883 	 91.8069
| 31> H 	 -40.8556 	 40.0495 	 92.288
| 32> C 	 -41.7134 	 37.9571 	 92.5504
| 33> H 	 -42.2744 	 37.8107 	 93.4992
| 34> H 	 -41.1913 	 36.986 	 92.4148
| 35> C 	 -42.7906 	 37.9926 	 91.4872
| 36> H 	 -42.4563 	 38.5321 	 90.68
| 37> H 	 -43.6919 	 38.56 	 91.785
| 38> H 	 -42.9633 	 36.9922 	 91.1988
| 39> H 	 -39.5515 	 44.9963 	 94.7946
| 40> H 	 -37.6931 	 37.1194 	 95.6998
| 41> *
| 42>
| 43>                          ****END OF INPUT****

CARTESIAN COORDINATES (ANGSTROEM)
---------------------------------
  S    -38.595100   42.682400   94.184200
  C    -39.705400   43.945100   94.827800
  C    -40.956700   43.423600   95.119700
  C    -41.046000   42.002400   94.899200
  C    -39.786900   41.450800   94.676300
  H    -41.934600   41.281400   94.915300
  C    -42.090000   44.311600   95.602000
  H    -41.751900   44.871000   96.433500
  H    -42.977400   43.675000   95.949500
  C    -42.578800   45.264300   94.528800
  H    -41.844300   45.952700   94.167300
  H    -42.720700   44.595900   93.663700
  C    -43.769000   46.071700   94.918200
  H    -44.678000   45.437700   95.093800
  H    -43.472200   46.661900   95.845100
  H    -43.992800   46.805200   94.129700
  S    -38.365800   39.577200   96.020200
  C    -38.300000   37.934100   95.420100
  C    -39.160100   37.794900   94.270400
  C    -39.848700   38.968100   93.940400
  C    -39.496800   40.056600   94.779400
  H    -39.103400   36.848100   93.694400
  C    -40.601600   39.027700   92.575600
  H    -39.907100   38.788300   91.806900
  H    -40.855600   40.049500   92.288000
  C    -41.713400   37.957100   92.550400
  H    -42.274400   37.810700   93.499200
  H    -41.191300   36.986000   92.414800
  C    -42.790600   37.992600   91.487200
  H    -42.456300   38.532100   90.680000
  H    -43.691900   38.560000   91.785000
  H    -42.963300   36.992200   91.198800
  H    -39.551500   44.996300   94.794600
  H    -37.693100   37.119400   95.699800

 Total Charge           Charge          ....    0
 Multiplicity           Mult            ....    1
 Number of Electrons    NEL             ....  134
 Basis Dimension        Dim             ....  322

ORBITAL ENERGIES
----------------

  NO   OCC          E(Eh)            E(eV)
   0   2.0000     -88.970881     -2421.0207
   1   2.0000     -88.967827     -2420.9376
   2   2.0000     -10.328396      -281.0499
   3   2.0000     -10.324692      -280.9492
   4   2.0000     -10.317730      -280.7597
   5   2.0000     -10.313382      -280.6414
   6   2.0000     -10.306458      -280.4530
   7   2.0000     -10.304110      -280.3891
   8   2.0000     -10.303343      -280.3682
   9   2.0000     -10.296839      -280.1912
  10   2.0000     -10.293207      -280.0924
  11   2.0000     -10.291840      -280.0552
  12   2.0000     -10.286689      -279.9150
  13   2.0000     -10.285399      -279.8799
  14   2.0000     -10.279631      -279.7230
  15   2.0000     -10.266756      -279.3726
  16   2.0000      -8.084972      -220.0033
  17   2.0000      -8.081115      -219.8983
  18   2.0000      -6.043425      -164.4499
  19   2.0000      -6.039774      -164.3506
  20   2.0000      -6.039356      -164.3392
  21   2.0000      -6.036098      -164.2506
  22   2.0000      -6.036029      -164.2487
  23   2.0000      -6.031526      -164.1262
  24   2.0000      -1.000899       -27.2358
  25   2.0000      -0.975754       -26.5516
  26   2.0000      -0.916553       -24.9407
  27   2.0000      -0.907171       -24.6854
  28   2.0000      -0.867387       -23.6028
  29   2.0000      -0.853843       -23.2342
  30   2.0000      -0.844296       -22.9745
  31   2.0000      -0.809501       -22.0276
  32   2.0000      -0.784561       -21.3490
  33   2.0000      -0.768036       -20.8993
  34   2.0000      -0.704592       -19.1729
  35   2.0000      -0.697921       -18.9914
  36   2.0000      -0.694881       -18.9087
  37   2.0000      -0.655604       -17.8399
  38   2.0000      -0.638399       -17.3717
  39   2.0000      -0.610645       -16.6165
  40   2.0000      -0.591786       -16.1033
  41   2.0000      -0.572401       -15.5758
  42   2.0000      -0.563126       -15.3234
  43   2.0000      -0.560379       -15.2487
  44   2.0000      -0.537174       -14.6173
  45   2.0000      -0.521470       -14.1899
  46   2.0000      -0.520862       -14.1734
  47   2.0000      -0.508352       -13.8330
  48   2.0000      -0.501187       -13.6380
  49   2.0000      -0.497791       -13.5456
  50   2.0000      -0.491372       -13.3709
  51   2.0000      -0.481993       -13.1157
  52   2.0000      -0.473178       -12.8758
  53   2.0000      -0.466707       -12.6997
  54   2.0000      -0.455195       -12.3865
  55   2.0000      -0.446222       -12.1423
  56   2.0000      -0.439870       -11.9695
  57   2.0000      -0.434322       -11.8185
  58   2.0000      -0.431701       -11.7472
  59   2.0000      -0.425603       -11.5812
  60   2.0000      -0.424034       -11.5385
  61   2.0000      -0.413661       -11.2563
  62   2.0000      -0.406941       -11.0734
  63   2.0000      -0.336810        -9.1651
  64   2.0000      -0.330959        -9.0059
  65   2.0000      -0.324139        -8.8203
  66   2.0000      -0.290913        -7.9161
  67   0.0000       0.026685         0.7261
  68   0.0000       0.054745         1.4897
  69   0.0000       0.102507         2.7894
  70   0.0000       0.117980         3.2104
  71   0.0000       0.129705         3.5295

MULLIKEN ATOMIC CHARGES
-----------------------
   0 S :    0.112651
   1 C :   -0.104381
   2 C :   -0.088912
   3 C :    0.029631
   4 C :   -0.185079
   5 H :    0.049823
   6 C :    0.071884
   7 H :    0.021863
   8 H :    0.032529
   9 C :   -0.094662
  10 H :    0.017995
  11 H :    0.025591
  12 C :   -0.051458
  13 H :    0.042449
  14 H :    0.036783
  15 H :    0.039547
  16 S :    0.140409
  17 C :   -0.089514
  18 C :   -0.080235
  19 C :    0.008611
  20 C :   -0.202006
  21 H :    0.039167
  22 C :    0.107741
  23 H :    0.025007
  24 H :    0.022997
  25 C :   -0.162579
  26 H :    0.039756
  27 H :    0.027088
  28 C :    0.032559
  29 H :   -0.004747
  30 H :    0.035172
  31 H :    0.025103
  32 H :    0.036225
  33 H :    0.042992
Sum of atomic charges:    0.0000000

LOEWDIN ATOMIC CHARGES
----------------------
   0 S :    0.371157
   1 C :   -0.180851
   2 C :   -0.058362
   3 C :   -0.059943
   4 C :   -0.190832
   5 H :    0.048925
   6 C :   -0.031057
   7 H :    0.024026
   8 H :    0.038026
   9 C :   -0.052433
  10 H :    0.018920
  11 H :    0.025547
  12 C :   -0.070131
  13 H :    0.028908
  14 H :    0.032957
  15 H :    0.028959
  16 S :    0.433264
  17 C :   -0.192478
  18 C :   -0.073456
  19 C :   -0.050495
  20 C :   -0.214529
  21 H :    0.036584
  22 C :   -0.026201
  23 H :    0.030658
  24 H :    0.026495
  25 C :   -0.050159
  26 H :    0.028451
  27 H :    0.025026
  28 C :   -0.057305
  29 H :    0.012137
  30 H :    0.030351
  31 H :    0.025199
  32 H :    0.020814
  33 H :    0.021826

  Mayer bond orders larger than 0.100000
B(  0-S ,  1-C ) :   1.1084 B(  0-S ,  4-C ) :   1.1380 B(  1-C ,  2-C ) :   1.6307
B(  1-C , 32-H ) :   0.9727 B(  2-C ,  3-C ) :   1.2183 B(  2-C ,  6-C ) :   1.0205
B(  3-C ,  4-C ) :   1.5852 B(  3-C ,  5-H ) :   0.9818 B(  4-C , 20-C ) :   1.0651
B(  6-C ,  7-H ) :   0.9345 B(  6-C ,  8-H ) :   0.9462 B(  6-C ,  9-C ) :   1.0608
B(  9-C , 10-H ) :   0.9517 B(  9-C , 11-H ) :   0.9527 B(  9-C , 12-C ) :   1.0928
B( 12-C , 13-H ) :   0.9730 B( 12-C , 14-H ) :   0.9680 B( 12-C , 15-H ) :   0.9721
B( 16-S , 17-C ) :   1.1735 B( 16-S , 20-C ) :   1.1620 B( 17-C , 18-C ) :   1.5707
B( 17-C , 20-C ) :   0.1180 B( 17-C , 33-H ) :   0.9732 B( 18-C , 19-C ) :   1.2864
B( 18-C , 21-H ) :   0.9794 B( 19-C , 20-C ) :   1.5379 B( 19-C , 22-C ) :   1.0362
B( 22-C , 23-H ) :   0.9359 B( 22-C , 24-H ) :   0.9442 B( 22-C , 25-C ) :   1.0325
B( 25-C , 26-H ) :   0.9680 B( 25-C , 27-H ) :   0.9599 B( 25-C , 28-C ) :   1.0848
B( 28-C , 29-H ) :   0.9676 B( 28-C , 30-H ) :   0.9751 B( 28-C , 31-H ) :   0.9737

Dispersion correction           -0.013533618
FINAL SINGLE POINT ENERGY     -1339.849853736142

DIPOLE MOMENT
-------------
                                X             Y             Z
Electronic contribution:     25.42516      -4.61760      10.76056
Nuclear contribution   :    -25.85192       4.58845     -11.14569
                        -----------------------------------------
Total Dipole Moment    :     -0.42676      -0.02914      -0.38512
                        -----------------------------------------
Magnitude (a.u.)       :      0.57558
Magnitude (Debye)      :      1.46302

Rotational constants in cm-1:     0.018049     0.007780     0.006041
Rotational constants in MHz :   541.081423   233.229264   181.107474

                             ****ORCA TERMINATED NORMALLY****
TOTAL RUN TIME: 0 days 0 hours 0 minutes 27 seconds 13 msec
