                         Program Version 4.2.1 -  RELEASE  -
|  1> ! wB97X-D3 SP def2-SVP
|  2> %pal
|  3> nprocs 16
|  4> end
|  5>
|  6> * xyz 0 1
|  7> S 	 -4.14759 	 73.8956 	 46.2111
|  8> C 	 -3.1593 	 75.2368 	 45.7988
|  9> C 	 -4.03182 	 76.2319 	 45.2913
| 10> C 	 -5.41311 	 75.8422 	 45.2985
| 11> C 	 -5.67974 	 74.6232 	 45.8158
| 12> H 	 -6.15696 	 76.5355 	 44.9319
| 13> C 	 -3.60702 	 77.6187 	 44.9672
| 14> H 	 -4.30797 	 78.019 	 44.2004
| 15> H 	 -2.61644 	 77.5021 	 44.5546
| 16> C 	 -3.69236 	 78.773 	 45.9816
| 17> H 	 -4.74094 	 78.8133 	 46.2332
| 18> H 	 -3.19123 	 78.5288 	 46.9473
| 19> C 	 -3.28882 	 80.1141 	 45.4553
| 20> H 	 -3.83313 	 80.2759 	 44.5287
| 21> H 	 -3.77355 	 80.8892 	 46.0218
| 22> H 	 -2.20362 	 80.2869 	 45.3357
| 23> S 	 -6.91119 	 72.207 	 46.2729
| 24> C 	 -8.60999 	 72.1442 	 46.5816
| 25> C 	 -9.12596 	 73.3847 	 46.4874
| 26> C 	 -8.22154 	 74.4148 	 46.1539
| 27> C 	 -6.93033 	 73.9606 	 46.0555
| 28> H 	 -10.1693 	 73.549 	 46.6534
| 29> C 	 -8.74991 	 75.7632 	 46.2539
| 30> H 	 -9.81435 	 75.5987 	 46.2505
| 31> H 	 -8.41072 	 76.1669 	 45.3207
| 32> C 	 -8.33965 	 76.6857 	 47.3722
| 33> H 	 -7.31265 	 76.9326 	 47.2535
| 34> H 	 -8.4158 	 76.1452 	 48.2968
| 35> C 	 -9.17425 	 77.9081 	 47.6041
| 36> H 	 -9.19786 	 78.4663 	 46.7081
| 37> H 	 -8.67189 	 78.4948 	 48.3517
| 38> H 	 -10.2407 	 77.7236 	 47.9501
| 39> H 	 -2.18367 	 75.4441 	 46.2236
| 40> H 	 -9.17939 	 71.307 	 46.9223
| 41> *
| 42>
| 43>                          ****END OF INPUT****

CARTESIAN COORDINATES (ANGSTROEM)
---------------------------------
  S     -4.147590   73.895600   46.211100
  C     -3.159300   75.236800   45.798800
  C     -4.031820   76.231900   45.291300
  C     -5.413110   75.842200   45.298500
  C     -5.679740   74.623200   45.815800
  H     -6.156960   76.535500   44.931900
  C     -3.607020   77.618700   44.967200
  H     -4.307970   78.019000   44.200400
  H     -2.616440   77.502100   44.554600
  C     -3.692360   78.773000   45.981600
  H     -4.740940   78.813300   46.233200
  H     -3.191230   78.528800   46.947300
  C     -3.288820   80.114100   45.455300
  H     -3.833130   80.275900   44.528700
  H     -3.773550   80.889200   46.021800
  H     -2.203620   80.286900   45.335700
  S     -6.911190   72.207000   46.272900
  C     -8.609990   72.144200   46.581600
  C     -9.125960   73.384700   46.487400
  C     -8.221540   74.414800   46.153900
  C     -6.930330   73.960600   46.055500
  H    -10.169300   73.549000   46.653400
  C     -8.749910   75.763200   46.253900
  H     -9.814350   75.598700   46.250500
  H     -8.410720   76.166900   45.320700
  C     -8.339650   76.685700   47.372200
  H     -7.312650   76.932600   47.253500
  H     -8.415800   76.145200   48.296800
  C     -9.174250   77.908100   47.604100
  H     -9.197860   78.466300   46.708100
  H     -8.671890   78.494800   48.351700
  H    -10.240700   77.723600   47.950100
  H     -2.183670   75.444100   46.223600
  H     -9.179390   71.307000   46.922300

 Total Charge           Charge          ....    0
 Multiplicity           Mult            ....    1
 Number of Electrons    NEL             ....  134
 Basis Dimension        Dim             ....  322

ORBITAL ENERGIES
----------------

  NO   OCC          E(Eh)            E(eV)
   0   2.0000     -88.964444     -2420.8456
   1   2.0000     -88.963709     -2420.8256
   2   2.0000     -10.330779      -281.1148
   3   2.0000     -10.328481      -281.0523
   4   2.0000     -10.314925      -280.6834
   5   2.0000     -10.312108      -280.6067
   6   2.0000     -10.303059      -280.3605
   7   2.0000     -10.295535      -280.1557
   8   2.0000     -10.291744      -280.0526
   9   2.0000     -10.288945      -279.9764
  10   2.0000     -10.287244      -279.9301
  11   2.0000     -10.284531      -279.8563
  12   2.0000     -10.281894      -279.7846
  13   2.0000     -10.278947      -279.7044
  14   2.0000     -10.277074      -279.6534
  15   2.0000     -10.276969      -279.6506
  16   2.0000      -8.079529      -219.8552
  17   2.0000      -8.079155      -219.8450
  18   2.0000      -6.038162      -164.3067
  19   2.0000      -6.037740      -164.2953
  20   2.0000      -6.033968      -164.1926
  21   2.0000      -6.033352      -164.1758
  22   2.0000      -6.030150      -164.0887
  23   2.0000      -6.029976      -164.0840
  24   2.0000      -1.016987       -27.6736
  25   2.0000      -0.993774       -27.0420
  26   2.0000      -0.923789       -25.1376
  27   2.0000      -0.917272       -24.9602
  28   2.0000      -0.879537       -23.9334
  29   2.0000      -0.864854       -23.5339
  30   2.0000      -0.852097       -23.1867
  31   2.0000      -0.823963       -22.4212
  32   2.0000      -0.785952       -21.3868
  33   2.0000      -0.773499       -21.0480
  34   2.0000      -0.716284       -19.4911
  35   2.0000      -0.703200       -19.1350
  36   2.0000      -0.696437       -18.9510
  37   2.0000      -0.670906       -18.2563
  38   2.0000      -0.640664       -17.4334
  39   2.0000      -0.629529       -17.1304
  40   2.0000      -0.599506       -16.3134
  41   2.0000      -0.578322       -15.7369
  42   2.0000      -0.573986       -15.6190
  43   2.0000      -0.565493       -15.3878
  44   2.0000      -0.535480       -14.5712
  45   2.0000      -0.532829       -14.4990
  46   2.0000      -0.525415       -14.2973
  47   2.0000      -0.519104       -14.1255
  48   2.0000      -0.513928       -13.9847
  49   2.0000      -0.501083       -13.6352
  50   2.0000      -0.500117       -13.6089
  51   2.0000      -0.486826       -13.2472
  52   2.0000      -0.471805       -12.8385
  53   2.0000      -0.471380       -12.8269
  54   2.0000      -0.459703       -12.5092
  55   2.0000      -0.455717       -12.4007
  56   2.0000      -0.451494       -12.2858
  57   2.0000      -0.437698       -11.9104
  58   2.0000      -0.427995       -11.6463
  59   2.0000      -0.426415       -11.6033
  60   2.0000      -0.420035       -11.4297
  61   2.0000      -0.412808       -11.2331
  62   2.0000      -0.404575       -11.0090
  63   2.0000      -0.367735       -10.0066
  64   2.0000      -0.333695        -9.0803
  65   2.0000      -0.324936        -8.8420
  66   2.0000      -0.284535        -7.7426
  67   0.0000       0.017436         0.4745
  68   0.0000       0.080331         2.1859
  69   0.0000       0.105641         2.8746
  70   0.0000       0.121902         3.3171
  71   0.0000       0.124481         3.3873

MULLIKEN ATOMIC CHARGES
-----------------------
   0 S :    0.096474
   1 C :   -0.101352
   2 C :   -0.123692
   3 C :   -0.017214
   4 C :   -0.078985
   5 H :   -0.002084
   6 C :    0.036685
   7 H :    0.017449
   8 H :    0.024593
   9 C :   -0.057832
  10 H :    0.009205
  11 H :    0.026575
  12 C :   -0.020596
  13 H :    0.011092
  14 H :    0.024532
  15 H :    0.050839
  16 S :    0.098072
  17 C :   -0.058120
  18 C :   -0.048137
  19 C :   -0.059510
  20 C :   -0.119431
  21 H :    0.006387
  22 C :    0.090056
  23 H :    0.002881
  24 H :    0.015513
  25 C :   -0.026761
  26 H :    0.018211
  27 H :    0.015556
  28 C :   -0.033808
  29 H :    0.015069
  30 H :    0.031112
  31 H :    0.040913
  32 H :    0.067596
  33 H :    0.048713
Sum of atomic charges:    0.0000000

LOEWDIN ATOMIC CHARGES
----------------------
   0 S :    0.422263
   1 C :   -0.216930
   2 C :   -0.060872
   3 C :   -0.076382
   4 C :   -0.186482
   5 H :    0.026571
   6 C :   -0.041670
   7 H :    0.033327
   8 H :    0.027946
   9 C :   -0.043595
  10 H :    0.020952
  11 H :    0.022468
  12 C :   -0.066731
  13 H :    0.025789
  14 H :    0.029255
  15 H :    0.030987
  16 S :    0.405086
  17 C :   -0.181934
  18 C :   -0.072949
  19 C :   -0.057472
  20 C :   -0.185911
  21 H :    0.027227
  22 C :   -0.032325
  23 H :    0.029451
  24 H :    0.028563
  25 C :   -0.036777
  26 H :    0.021121
  27 H :    0.024038
  28 C :   -0.058712
  29 H :    0.015740
  30 H :    0.028125
  31 H :    0.032196
  32 H :    0.036411
  33 H :    0.031222

  Mayer bond orders larger than 0.100000
B(  0-S ,  1-C ) :   1.1500 B(  0-S ,  4-C ) :   1.1564 B(  1-C ,  2-C ) :   1.5644
B(  1-C , 32-H ) :   0.9679 B(  2-C ,  3-C ) :   1.2768 B(  2-C ,  6-C ) :   1.0498
B(  3-C ,  4-C ) :   1.5316 B(  3-C ,  5-H ) :   0.9971 B(  4-C , 20-C ) :   1.0903
B(  6-C ,  7-H ) :   0.9332 B(  6-C ,  8-H ) :   0.9388 B(  6-C ,  9-C ) :   1.0592
B(  9-C , 10-H ) :   0.9479 B(  9-C , 11-H ) :   0.9522 B(  9-C , 12-C ) :   1.0961
B( 12-C , 13-H ) :   0.9635 B( 12-C , 14-H ) :   0.9675 B( 12-C , 15-H ) :   0.9753
B( 16-S , 17-C ) :   1.1475 B( 16-S , 20-C ) :   1.1257 B( 17-C , 18-C ) :   1.6150
B( 17-C , 33-H ) :   0.9671 B( 18-C , 19-C ) :   1.2579 B( 18-C , 21-H ) :   0.9890
B( 19-C , 20-C ) :   1.5746 B( 19-C , 22-C ) :   1.0582 B( 22-C , 23-H ) :   0.9257
B( 22-C , 24-H ) :   0.9000 B( 22-C , 25-C ) :   1.0814 B( 25-C , 26-H ) :   0.9422
B( 25-C , 27-H ) :   0.9492 B( 25-C , 28-C ) :   1.0986 B( 28-C , 29-H ) :   0.9736
B( 28-C , 30-H ) :   0.9706 B( 28-C , 31-H ) :   0.9725

Dispersion correction           -0.014043097
FINAL SINGLE POINT ENERGY     -1339.868510672065

DIPOLE MOMENT
-------------
                                X             Y             Z
Electronic contribution:      4.01257     -32.91349      -1.88377
Nuclear contribution   :     -4.39552      33.66604       2.11883
                        -----------------------------------------
Total Dipole Moment    :     -0.38296       0.75255       0.23506
                        -----------------------------------------
Magnitude (a.u.)       :      0.87649
Magnitude (Debye)      :      2.22786

Rotational constants in cm-1:     0.018646     0.009228     0.006457
Rotational constants in MHz :   558.997705   276.635852   193.564069

                             ****ORCA TERMINATED NORMALLY****
TOTAL RUN TIME: 0 days 0 hours 0 minutes 32 seconds 739 msec
