                         Program Version 4.2.1 -  RELEASE  -
|  1> ! wB97X-D3 SP def2-SVP
|  2> %pal
|  3> nprocs 16
|  4> end
|  5>
|  6> * xyz 0 1
|  7> S 	 -102.856 	 48.5275 	 120.735
|  8> C 	 -103.291 	 49.5956 	 122.011
|  9> C 	 -103.908 	 48.9252 	 123.064
| 10> C 	 -104.003 	 47.5082 	 122.805
| 11> C 	 -103.319 	 47.1212 	 121.664
| 12> H 	 -104.476 	 46.8413 	 123.391
| 13> C 	 -104.442 	 49.5846 	 124.359
| 14> H 	 -105.496 	 49.2789 	 124.502
| 15> H 	 -104.416 	 50.7033 	 124.216
| 16> C 	 -103.459 	 49.2101 	 125.517
| 17> H 	 -104.062 	 49.3682 	 126.327
| 18> H 	 -103.326 	 48.1302 	 125.48
| 19> C 	 -102.174 	 49.9799 	 125.525
| 20> H 	 -101.677 	 49.8621 	 124.571
| 21> H 	 -102.397 	 51.0834 	 125.616
| 22> H 	 -101.526 	 49.6942 	 126.353
| 23> S 	 -103.766 	 45.3327 	 119.645
| 24> C 	 -103.114 	 43.6463 	 119.843
| 25> C 	 -102.49 	 43.499 	 121.072
| 26> C 	 -102.467 	 44.7483 	 121.829
| 27> C 	 -103.113 	 45.7814 	 121.185
| 28> H 	 -101.936 	 42.5916 	 121.397
| 29> C 	 -101.512 	 44.8538 	 123.033
| 30> H 	 -101.706 	 45.8964 	 123.434
| 31> H 	 -100.442 	 44.7603 	 122.736
| 32> C 	 -101.987 	 43.891 	 124.146
| 33> H 	 -101.204 	 43.9791 	 124.923
| 34> H 	 -102.039 	 42.9157 	 123.742
| 35> C 	 -103.47 	 44.1226 	 124.622
| 36> H 	 -103.531 	 45.0098 	 125.171
| 37> H 	 -103.784 	 43.3216 	 125.268
| 38> H 	 -104.188 	 44.0504 	 123.81
| 39> H 	 -103.121 	 50.6901 	 122.067
| 40> H 	 -103.334 	 42.8186 	 119.107
| 41> *
| 42>
| 43>                          ****END OF INPUT****

CARTESIAN COORDINATES (ANGSTROEM)
---------------------------------
  S    -102.856000   48.527500  120.735000
  C    -103.291000   49.595600  122.011000
  C    -103.908000   48.925200  123.064000
  C    -104.003000   47.508200  122.805000
  C    -103.319000   47.121200  121.664000
  H    -104.476000   46.841300  123.391000
  C    -104.442000   49.584600  124.359000
  H    -105.496000   49.278900  124.502000
  H    -104.416000   50.703300  124.216000
  C    -103.459000   49.210100  125.517000
  H    -104.062000   49.368200  126.327000
  H    -103.326000   48.130200  125.480000
  C    -102.174000   49.979900  125.525000
  H    -101.677000   49.862100  124.571000
  H    -102.397000   51.083400  125.616000
  H    -101.526000   49.694200  126.353000
  S    -103.766000   45.332700  119.645000
  C    -103.114000   43.646300  119.843000
  C    -102.490000   43.499000  121.072000
  C    -102.467000   44.748300  121.829000
  C    -103.113000   45.781400  121.185000
  H    -101.936000   42.591600  121.397000
  C    -101.512000   44.853800  123.033000
  H    -101.706000   45.896400  123.434000
  H    -100.442000   44.760300  122.736000
  C    -101.987000   43.891000  124.146000
  H    -101.204000   43.979100  124.923000
  H    -102.039000   42.915700  123.742000
  C    -103.470000   44.122600  124.622000
  H    -103.531000   45.009800  125.171000
  H    -103.784000   43.321600  125.268000
  H    -104.188000   44.050400  123.810000
  H    -103.121000   50.690100  122.067000
  H    -103.334000   42.818600  119.107000

 Total Charge           Charge          ....    0
 Multiplicity           Mult            ....    1
 Number of Electrons    NEL             ....  134
 Basis Dimension        Dim             ....  322

ORBITAL ENERGIES
----------------

  NO   OCC          E(Eh)            E(eV)
   0   2.0000     -88.966017     -2420.8884
   1   2.0000     -88.965170     -2420.8653
   2   2.0000     -10.329194      -281.0717
   3   2.0000     -10.326118      -280.9880
   4   2.0000     -10.323502      -280.9168
   5   2.0000     -10.312809      -280.6258
   6   2.0000     -10.302363      -280.3416
   7   2.0000     -10.302059      -280.3333
   8   2.0000     -10.301060      -280.3061
   9   2.0000     -10.300829      -280.2998
  10   2.0000     -10.297030      -280.1964
  11   2.0000     -10.287512      -279.9374
  12   2.0000     -10.287330      -279.9325
  13   2.0000     -10.279612      -279.7225
  14   2.0000     -10.278805      -279.7005
  15   2.0000     -10.273951      -279.5684
  16   2.0000      -8.080395      -219.8787
  17   2.0000      -8.080179      -219.8729
  18   2.0000      -6.038895      -164.3267
  19   2.0000      -6.038815      -164.3245
  20   2.0000      -6.034861      -164.2169
  21   2.0000      -6.034835      -164.2162
  22   2.0000      -6.031112      -164.1149
  23   2.0000      -6.030769      -164.1056
  24   2.0000      -1.006056       -27.3762
  25   2.0000      -0.979301       -26.6481
  26   2.0000      -0.911914       -24.8144
  27   2.0000      -0.903490       -24.5852
  28   2.0000      -0.869512       -23.6606
  29   2.0000      -0.848129       -23.0788
  30   2.0000      -0.839503       -22.8441
  31   2.0000      -0.812425       -22.1072
  32   2.0000      -0.781096       -21.2547
  33   2.0000      -0.771836       -21.0027
  34   2.0000      -0.709964       -19.3191
  35   2.0000      -0.694938       -18.9102
  36   2.0000      -0.689949       -18.7745
  37   2.0000      -0.657696       -17.8968
  38   2.0000      -0.643295       -17.5049
  39   2.0000      -0.620091       -16.8735
  40   2.0000      -0.595174       -16.1955
  41   2.0000      -0.568328       -15.4650
  42   2.0000      -0.551958       -15.0195
  43   2.0000      -0.548253       -14.9187
  44   2.0000      -0.542235       -14.7550
  45   2.0000      -0.539945       -14.6926
  46   2.0000      -0.516946       -14.0668
  47   2.0000      -0.510610       -13.8944
  48   2.0000      -0.497623       -13.5410
  49   2.0000      -0.491268       -13.3681
  50   2.0000      -0.488375       -13.2894
  51   2.0000      -0.482178       -13.1207
  52   2.0000      -0.470007       -12.7895
  53   2.0000      -0.466589       -12.6965
  54   2.0000      -0.455489       -12.3945
  55   2.0000      -0.450619       -12.2620
  56   2.0000      -0.445501       -12.1227
  57   2.0000      -0.441428       -12.0119
  58   2.0000      -0.437004       -11.8915
  59   2.0000      -0.427759       -11.6399
  60   2.0000      -0.413677       -11.2567
  61   2.0000      -0.412181       -11.2160
  62   2.0000      -0.410515       -11.1707
  63   2.0000      -0.345298        -9.3960
  64   2.0000      -0.329021        -8.9531
  65   2.0000      -0.327251        -8.9049
  66   2.0000      -0.294085        -8.0025
  67   0.0000       0.033933         0.9234
  68   0.0000       0.067104         1.8260
  69   0.0000       0.105147         2.8612
  70   0.0000       0.121011         3.2929
  71   0.0000       0.127315         3.4644

MULLIKEN ATOMIC CHARGES
-----------------------
   0 S :    0.119286
   1 C :   -0.119646
   2 C :   -0.125989
   3 C :    0.098501
   4 C :   -0.175626
   5 H :   -0.046194
   6 C :    0.018720
   7 H :    0.046267
   8 H :    0.025019
   9 C :   -0.025284
  10 H :    0.003000
  11 H :    0.024205
  12 C :   -0.042223
  13 H :    0.038091
  14 H :    0.029474
  15 H :    0.044033
  16 S :    0.100026
  17 C :   -0.122572
  18 C :   -0.031748
  19 C :   -0.069498
  20 C :   -0.143776
  21 H :    0.044222
  22 C :    0.040698
  23 H :    0.036190
  24 H :    0.059979
  25 C :   -0.075858
  26 H :    0.037383
  27 H :    0.015653
  28 C :   -0.043238
  29 H :    0.026574
  30 H :    0.026118
  31 H :    0.048523
  32 H :    0.056549
  33 H :    0.083142
Sum of atomic charges:    0.0000000

LOEWDIN ATOMIC CHARGES
----------------------
   0 S :    0.417127
   1 C :   -0.220963
   2 C :   -0.063338
   3 C :   -0.044193
   4 C :   -0.192497
   5 H :    0.008843
   6 C :   -0.027703
   7 H :    0.034962
   8 H :    0.030334
   9 C :   -0.036668
  10 H :    0.010310
  11 H :    0.022735
  12 C :   -0.063799
  13 H :    0.026332
  14 H :    0.030537
  15 H :    0.029837
  16 S :    0.382820
  17 C :   -0.174019
  18 C :   -0.072853
  19 C :   -0.060624
  20 C :   -0.208132
  21 H :    0.039531
  22 C :   -0.034796
  23 H :    0.034417
  24 H :    0.038354
  25 C :   -0.036193
  26 H :    0.026944
  27 H :    0.012557
  28 C :   -0.058324
  29 H :    0.013973
  30 H :    0.027187
  31 H :    0.029588
  32 H :    0.035959
  33 H :    0.041753

  Mayer bond orders larger than 0.100000
B(  0-S ,  1-C ) :   1.1400 B(  0-S ,  4-C ) :   1.1538 B(  1-C ,  2-C ) :   1.6175
B(  1-C , 32-H ) :   0.9596 B(  2-C ,  3-C ) :   1.2346 B(  2-C ,  6-C ) :   1.0217
B(  3-C ,  4-C ) :   1.5612 B(  3-C ,  5-H ) :   1.0139 B(  4-C , 20-C ) :   1.0302
B(  6-C ,  7-H ) :   0.9451 B(  6-C ,  8-H ) :   0.9460 B(  6-C ,  9-C ) :   1.0524
B(  9-C , 10-H ) :   0.9522 B(  9-C , 11-H ) :   0.9563 B(  9-C , 12-C ) :   1.0769
B( 12-C , 13-H ) :   0.9736 B( 12-C , 14-H ) :   0.9711 B( 12-C , 15-H ) :   0.9714
B( 16-S , 17-C ) :   1.1262 B( 16-S , 20-C ) :   1.1357 B( 17-C , 18-C ) :   1.6412
B( 17-C , 33-H ) :   0.9603 B( 18-C , 19-C ) :   1.2052 B( 18-C , 21-H ) :   0.9770
B( 19-C , 20-C ) :   1.6312 B( 19-C , 22-C ) :   1.0284 B( 22-C , 23-H ) :   0.9347
B( 22-C , 24-H ) :   0.9505 B( 22-C , 25-C ) :   1.0486 B( 25-C , 26-H ) :   0.9596
B( 25-C , 27-H ) :   0.9615 B( 25-C , 28-C ) :   1.0761 B( 28-C , 29-H ) :   0.9775
B( 28-C , 30-H ) :   0.9706 B( 28-C , 31-H ) :   0.9661

Dispersion correction           -0.015910843
FINAL SINGLE POINT ENERGY     -1339.874666460830

DIPOLE MOMENT
-------------
                                X             Y             Z
Electronic contribution:     -3.07282      -0.60395     -28.42183
Nuclear contribution   :      3.12826       0.41496      29.10542
                        -----------------------------------------
Total Dipole Moment    :      0.05544      -0.18898       0.68360
                        -----------------------------------------
Magnitude (a.u.)       :      0.71140
Magnitude (Debye)      :      1.80824

Rotational constants in cm-1:     0.019679     0.009922     0.007359
Rotational constants in MHz :   589.954920   297.450996   220.607711

                             ****ORCA TERMINATED NORMALLY****
TOTAL RUN TIME: 0 days 0 hours 0 minutes 34 seconds 141 msec
