                         Program Version 4.2.1 -  RELEASE  -
|  1> ! wB97X-D3 SP def2-SVP
|  2> %pal
|  3> nprocs 16
|  4> end
|  5>
|  6> * xyz 0 1
|  7> S 	 -28.2561 	 68.369 	 106.488
|  8> C 	 -29.2459 	 67.9961 	 105.07
|  9> C 	 -30.6071 	 67.8217 	 105.36
| 10> C 	 -30.893 	 67.9861 	 106.725
| 11> C 	 -29.7573 	 68.222 	 107.464
| 12> H 	 -31.7752 	 67.9861 	 107.352
| 13> C 	 -31.6346 	 67.4203 	 104.303
| 14> H 	 -31.6596 	 68.0443 	 103.455
| 15> H 	 -32.6726 	 67.4931 	 104.62
| 16> C 	 -31.315 	 66.004 	 103.764
| 17> H 	 -30.2406 	 65.9517 	 103.54
| 18> H 	 -31.4315 	 65.2039 	 104.574
| 19> C 	 -32.1112 	 65.5475 	 102.496
| 20> H 	 -33.1522 	 65.8371 	 102.517
| 21> H 	 -31.7849 	 65.973 	 101.494
| 22> H 	 -32.078 	 64.4231 	 102.419
| 23> S 	 -28.7774 	 67.4727 	 109.878
| 24> C 	 -28.8363 	 68.5015 	 111.233
| 25> C 	 -29.7622 	 69.5453 	 111.059
| 26> C 	 -30.2673 	 69.5714 	 109.728
| 27> C 	 -29.7972 	 68.5113 	 108.904
| 28> H 	 -30.0078 	 70.3594 	 111.765
| 29> C 	 -31.0856 	 70.8254 	 109.306
| 30> H 	 -31.072 	 70.8156 	 108.234
| 31> H 	 -30.4068 	 71.6307 	 109.385
| 32> C 	 -32.3969 	 71.1624 	 110.018
| 33> H 	 -32.2856 	 71.5711 	 110.997
| 34> H 	 -32.798 	 70.1727 	 110.397
| 35> C 	 -33.4947 	 72.0028 	 109.41
| 36> H 	 -34.397 	 72.0594 	 110.082
| 37> H 	 -33.7876 	 71.5797 	 108.462
| 38> H 	 -33.2383 	 73.0503 	 109.25
| 39> H 	 -28.8239 	 67.9563 	 104.105
| 40> H 	 -28.2881 	 68.418 	 112.198
| 41> *
| 42>
| 43>                          ****END OF INPUT****

CARTESIAN COORDINATES (ANGSTROEM)
---------------------------------
  S    -28.256100   68.369000  106.488000
  C    -29.245900   67.996100  105.070000
  C    -30.607100   67.821700  105.360000
  C    -30.893000   67.986100  106.725000
  C    -29.757300   68.222000  107.464000
  H    -31.775200   67.986100  107.352000
  C    -31.634600   67.420300  104.303000
  H    -31.659600   68.044300  103.455000
  H    -32.672600   67.493100  104.620000
  C    -31.315000   66.004000  103.764000
  H    -30.240600   65.951700  103.540000
  H    -31.431500   65.203900  104.574000
  C    -32.111200   65.547500  102.496000
  H    -33.152200   65.837100  102.517000
  H    -31.784900   65.973000  101.494000
  H    -32.078000   64.423100  102.419000
  S    -28.777400   67.472700  109.878000
  C    -28.836300   68.501500  111.233000
  C    -29.762200   69.545300  111.059000
  C    -30.267300   69.571400  109.728000
  C    -29.797200   68.511300  108.904000
  H    -30.007800   70.359400  111.765000
  C    -31.085600   70.825400  109.306000
  H    -31.072000   70.815600  108.234000
  H    -30.406800   71.630700  109.385000
  C    -32.396900   71.162400  110.018000
  H    -32.285600   71.571100  110.997000
  H    -32.798000   70.172700  110.397000
  C    -33.494700   72.002800  109.410000
  H    -34.397000   72.059400  110.082000
  H    -33.787600   71.579700  108.462000
  H    -33.238300   73.050300  109.250000
  H    -28.823900   67.956300  104.105000
  H    -28.288100   68.418000  112.198000

 Total Charge           Charge          ....    0
 Multiplicity           Mult            ....    1
 Number of Electrons    NEL             ....  134
 Basis Dimension        Dim             ....  322

ORBITAL ENERGIES
----------------

  NO   OCC          E(Eh)            E(eV)
   0   2.0000     -88.971793     -2421.0456
   1   2.0000     -88.965406     -2420.8718
   2   2.0000     -10.329676      -281.0848
   3   2.0000     -10.326931      -281.0101
   4   2.0000     -10.319683      -280.8129
   5   2.0000     -10.316654      -280.7304
   6   2.0000     -10.308809      -280.5170
   7   2.0000     -10.307146      -280.4717
   8   2.0000     -10.294703      -280.1331
   9   2.0000     -10.294342      -280.1233
  10   2.0000     -10.294015      -280.1144
  11   2.0000     -10.290790      -280.0266
  12   2.0000     -10.287825      -279.9460
  13   2.0000     -10.287792      -279.9451
  14   2.0000     -10.287266      -279.9307
  15   2.0000     -10.281898      -279.7847
  16   2.0000      -8.085281      -220.0117
  17   2.0000      -8.080829      -219.8905
  18   2.0000      -6.043715      -164.4578
  19   2.0000      -6.040135      -164.3604
  20   2.0000      -6.039198      -164.3349
  21   2.0000      -6.036015      -164.2483
  22   2.0000      -6.035000      -164.2207
  23   2.0000      -6.031931      -164.1372
  24   2.0000      -1.003505       -27.3068
  25   2.0000      -0.982048       -26.7229
  26   2.0000      -0.906666       -24.6716
  27   2.0000      -0.904590       -24.6151
  28   2.0000      -0.863603       -23.4998
  29   2.0000      -0.853764       -23.2321
  30   2.0000      -0.848069       -23.0771
  31   2.0000      -0.810975       -22.0678
  32   2.0000      -0.784759       -21.3544
  33   2.0000      -0.769136       -20.9293
  34   2.0000      -0.706793       -19.2328
  35   2.0000      -0.701673       -19.0935
  36   2.0000      -0.691952       -18.8290
  37   2.0000      -0.657736       -17.8979
  38   2.0000      -0.650736       -17.7074
  39   2.0000      -0.615119       -16.7382
  40   2.0000      -0.593177       -16.1412
  41   2.0000      -0.567130       -15.4324
  42   2.0000      -0.557135       -15.1604
  43   2.0000      -0.547803       -14.9065
  44   2.0000      -0.525462       -14.2985
  45   2.0000      -0.521399       -14.1880
  46   2.0000      -0.516220       -14.0471
  47   2.0000      -0.510127       -13.8813
  48   2.0000      -0.506720       -13.7885
  49   2.0000      -0.497362       -13.5339
  50   2.0000      -0.488940       -13.3047
  51   2.0000      -0.478585       -13.0230
  52   2.0000      -0.472180       -12.8487
  53   2.0000      -0.462833       -12.5943
  54   2.0000      -0.459870       -12.5137
  55   2.0000      -0.449953       -12.2438
  56   2.0000      -0.444364       -12.0918
  57   2.0000      -0.438156       -11.9228
  58   2.0000      -0.432054       -11.7568
  59   2.0000      -0.430011       -11.7012
  60   2.0000      -0.422137       -11.4869
  61   2.0000      -0.412325       -11.2199
  62   2.0000      -0.397956       -10.8289
  63   2.0000      -0.342635        -9.3236
  64   2.0000      -0.332093        -9.0367
  65   2.0000      -0.327760        -8.9188
  66   2.0000      -0.294495        -8.0136
  67   0.0000       0.029933         0.8145
  68   0.0000       0.058934         1.6037
  69   0.0000       0.108668         2.9570
  70   0.0000       0.122764         3.3406
  71   0.0000       0.127418         3.4672

MULLIKEN ATOMIC CHARGES
-----------------------
   0 S :    0.126498
   1 C :   -0.117265
   2 C :   -0.044147
   3 C :    0.035297
   4 C :   -0.155944
   5 H :    0.018678
   6 C :    0.118327
   7 H :    0.011558
   8 H :    0.017751
   9 C :   -0.121555
  10 H :    0.031829
  11 H :    0.041967
  12 C :   -0.071841
  13 H :    0.026037
  14 H :    0.038104
  15 H :    0.045333
  16 S :    0.118840
  17 C :   -0.100814
  18 C :   -0.051115
  19 C :   -0.050704
  20 C :   -0.216286
  21 H :    0.032850
  22 C :    0.117397
  23 H :    0.003151
  24 H :    0.015358
  25 C :   -0.073937
  26 H :    0.010328
  27 H :    0.026204
  28 C :   -0.043618
  29 H :    0.039385
  30 H :    0.029036
  31 H :    0.032263
  32 H :    0.037842
  33 H :    0.073195
Sum of atomic charges:   -0.0000000

LOEWDIN ATOMIC CHARGES
----------------------
   0 S :    0.387822
   1 C :   -0.178293
   2 C :   -0.055647
   3 C :   -0.053734
   4 C :   -0.189087
   5 H :    0.040993
   6 C :   -0.030445
   7 H :    0.024351
   8 H :    0.029497
   9 C :   -0.045415
  10 H :    0.023162
  11 H :    0.032071
  12 C :   -0.080361
  13 H :    0.019748
  14 H :    0.029380
  15 H :    0.034347
  16 S :    0.434440
  17 C :   -0.207856
  18 C :   -0.082229
  19 C :   -0.048342
  20 C :   -0.215667
  21 H :    0.036818
  22 C :   -0.035593
  23 H :    0.029191
  24 H :    0.029594
  25 C :   -0.055877
  26 H :    0.019855
  27 H :    0.031956
  28 C :   -0.063315
  29 H :    0.036615
  30 H :    0.020956
  31 H :    0.024139
  32 H :    0.016830
  33 H :    0.040097

  Mayer bond orders larger than 0.100000
B(  0-S ,  1-C ) :   1.1428 B(  0-S ,  4-C ) :   1.1339 B(  1-C ,  2-C ) :   1.5959
B(  1-C ,  4-C ) :   0.1015 B(  1-C , 32-H ) :   0.9731 B(  2-C ,  3-C ) :   1.2141
B(  2-C ,  6-C ) :   1.0238 B(  3-C ,  4-C ) :   1.5914 B(  3-C ,  5-H ) :   1.0022
B(  4-C , 20-C ) :   1.0340 B(  6-C ,  7-H ) :   0.9365 B(  6-C ,  8-H ) :   0.9427
B(  6-C ,  9-C ) :   1.0510 B(  9-C , 10-H ) :   0.9612 B(  9-C , 11-H ) :   0.9585
B(  9-C , 12-C ) :   1.0651 B( 12-C , 13-H ) :   0.9763 B( 12-C , 14-H ) :   0.9750
B( 12-C , 15-H ) :   0.9768 B( 16-S , 17-C ) :   1.1896 B( 16-S , 20-C ) :   1.1508
B( 17-C , 18-C ) :   1.5551 B( 17-C , 20-C ) :   0.1013 B( 17-C , 33-H ) :   0.9619
B( 18-C , 19-C ) :   1.2917 B( 18-C , 21-H ) :   0.9845 B( 19-C , 20-C ) :   1.5543
B( 19-C , 22-C ) :   1.0375 B( 22-C , 23-H ) :   0.9341 B( 22-C , 24-H ) :   0.9286
B( 22-C , 25-C ) :   1.0297 B( 25-C , 26-H ) :   0.9450 B( 25-C , 27-H ) :   0.9583
B( 25-C , 28-C ) :   1.0985 B( 28-C , 29-H ) :   0.9705 B( 28-C , 30-H ) :   0.9757
B( 28-C , 31-H ) :   0.9742

Dispersion correction           -0.013436501
FINAL SINGLE POINT ENERGY     -1339.858231299925

DIPOLE MOMENT
-------------
                                X             Y             Z
Electronic contribution:     23.05967      -5.27616      11.56143
Nuclear contribution   :    -23.45910       5.62929     -11.69194
                        -----------------------------------------
Total Dipole Moment    :     -0.39943       0.35313      -0.13051
                        -----------------------------------------
Magnitude (a.u.)       :      0.54888
Magnitude (Debye)      :      1.39515

Rotational constants in cm-1:     0.018285     0.007474     0.005938
Rotational constants in MHz :   548.176597   224.079097   178.017448

                             ****ORCA TERMINATED NORMALLY****
TOTAL RUN TIME: 0 days 0 hours 0 minutes 28 seconds 342 msec
