                         Program Version 4.2.1 -  RELEASE  -
|  1> ! wB97X-D3 SP def2-SVP
|  2> %pal
|  3> nprocs 16
|  4> end
|  5>
|  6> * xyz 0 1
|  7> S 	 -112.12 	 45.4993 	 130.388
|  8> C 	 -111.965 	 46.6911 	 131.629
|  9> C 	 -110.837 	 46.4752 	 132.412
| 10> C 	 -110.018 	 45.4963 	 131.906
| 11> C 	 -110.56 	 44.831 	 130.792
| 12> H 	 -109.058 	 45.2915 	 132.228
| 13> C 	 -110.486 	 47.392 	 133.605
| 14> H 	 -110.577 	 46.7436 	 134.458
| 15> H 	 -111.268 	 48.1237 	 133.652
| 16> C 	 -109.182 	 48.0795 	 133.398
| 17> H 	 -108.519 	 47.2557 	 133.223
| 18> H 	 -109.262 	 48.6249 	 132.5
| 19> C 	 -108.635 	 48.7864 	 134.616
| 20> H 	 -109.03 	 49.795 	 134.499
| 21> H 	 -108.968 	 48.4109 	 135.514
| 22> H 	 -107.494 	 48.7446 	 134.595
| 23> S 	 -110.548 	 43.5375 	 128.427
| 24> C 	 -109.701 	 42.0282 	 128.233
| 25> C 	 -108.833 	 41.7812 	 129.29
| 26> C 	 -109.151 	 42.6383 	 130.392
| 27> C 	 -110.032 	 43.6717 	 130.071
| 28> H 	 -108.226 	 40.9197 	 129.271
| 29> C 	 -108.379 	 42.4542 	 131.68
| 30> H 	 -108.553 	 41.5177 	 132.13
| 31> H 	 -108.667 	 43.1885 	 132.401
| 32> C 	 -106.876 	 42.8216 	 131.475
| 33> H 	 -106.704 	 43.808 	 130.977
| 34> H 	 -106.474 	 42.1712 	 130.635
| 35> C 	 -105.854 	 42.5842 	 132.65
| 36> H 	 -106.147 	 43.1775 	 133.467
| 37> H 	 -104.847 	 42.7585 	 132.377
| 38> H 	 -105.812 	 41.5395 	 133.015
| 39> H 	 -112.757 	 47.3576 	 132.001
| 40> H 	 -109.661 	 41.4385 	 127.31
| 41> *
| 42>
| 43>                          ****END OF INPUT****

CARTESIAN COORDINATES (ANGSTROEM)
---------------------------------
  S    -112.120000   45.499300  130.388000
  C    -111.965000   46.691100  131.629000
  C    -110.837000   46.475200  132.412000
  C    -110.018000   45.496300  131.906000
  C    -110.560000   44.831000  130.792000
  H    -109.058000   45.291500  132.228000
  C    -110.486000   47.392000  133.605000
  H    -110.577000   46.743600  134.458000
  H    -111.268000   48.123700  133.652000
  C    -109.182000   48.079500  133.398000
  H    -108.519000   47.255700  133.223000
  H    -109.262000   48.624900  132.500000
  C    -108.635000   48.786400  134.616000
  H    -109.030000   49.795000  134.499000
  H    -108.968000   48.410900  135.514000
  H    -107.494000   48.744600  134.595000
  S    -110.548000   43.537500  128.427000
  C    -109.701000   42.028200  128.233000
  C    -108.833000   41.781200  129.290000
  C    -109.151000   42.638300  130.392000
  C    -110.032000   43.671700  130.071000
  H    -108.226000   40.919700  129.271000
  C    -108.379000   42.454200  131.680000
  H    -108.553000   41.517700  132.130000
  H    -108.667000   43.188500  132.401000
  C    -106.876000   42.821600  131.475000
  H    -106.704000   43.808000  130.977000
  H    -106.474000   42.171200  130.635000
  C    -105.854000   42.584200  132.650000
  H    -106.147000   43.177500  133.467000
  H    -104.847000   42.758500  132.377000
  H    -105.812000   41.539500  133.015000
  H    -112.757000   47.357600  132.001000
  H    -109.661000   41.438500  127.310000

 Total Charge           Charge          ....    0
 Multiplicity           Mult            ....    1
 Number of Electrons    NEL             ....  134
 Basis Dimension        Dim             ....  322

ORBITAL ENERGIES
----------------

  NO   OCC          E(Eh)            E(eV)
   0   2.0000     -88.969753     -2420.9901
   1   2.0000     -88.965648     -2420.8784
   2   2.0000     -10.332245      -281.1547
   3   2.0000     -10.327832      -281.0346
   4   2.0000     -10.317868      -280.7635
   5   2.0000     -10.310145      -280.5533
   6   2.0000     -10.304970      -280.4125
   7   2.0000     -10.296893      -280.1927
   8   2.0000     -10.293906      -280.1114
   9   2.0000     -10.292689      -280.0783
  10   2.0000     -10.288877      -279.9746
  11   2.0000     -10.285908      -279.8938
  12   2.0000     -10.285478      -279.8821
  13   2.0000     -10.277423      -279.6629
  14   2.0000     -10.276332      -279.6332
  15   2.0000     -10.274756      -279.5903
  16   2.0000      -8.084553      -219.9919
  17   2.0000      -8.081025      -219.8959
  18   2.0000      -6.042899      -164.4356
  19   2.0000      -6.039484      -164.3427
  20   2.0000      -6.038947      -164.3281
  21   2.0000      -6.035595      -164.2369
  22   2.0000      -6.035490      -164.2340
  23   2.0000      -6.031754      -164.1324
  24   2.0000      -1.011732       -27.5306
  25   2.0000      -0.988965       -26.9111
  26   2.0000      -0.922482       -25.1020
  27   2.0000      -0.905016       -24.6267
  28   2.0000      -0.871564       -23.7165
  29   2.0000      -0.854524       -23.2528
  30   2.0000      -0.846291       -23.0287
  31   2.0000      -0.817186       -22.2368
  32   2.0000      -0.786798       -21.4099
  33   2.0000      -0.773348       -21.0439
  34   2.0000      -0.711683       -19.3659
  35   2.0000      -0.700054       -19.0494
  36   2.0000      -0.692312       -18.8388
  37   2.0000      -0.666820       -18.1451
  38   2.0000      -0.638908       -17.3856
  39   2.0000      -0.630294       -17.1512
  40   2.0000      -0.597949       -16.2710
  41   2.0000      -0.578335       -15.7373
  42   2.0000      -0.566874       -15.4254
  43   2.0000      -0.555070       -15.1042
  44   2.0000      -0.531679       -14.4677
  45   2.0000      -0.524172       -14.2634
  46   2.0000      -0.520560       -14.1652
  47   2.0000      -0.515916       -14.0388
  48   2.0000      -0.506682       -13.7875
  49   2.0000      -0.502684       -13.6787
  50   2.0000      -0.494995       -13.4695
  51   2.0000      -0.482492       -13.1293
  52   2.0000      -0.471524       -12.8308
  53   2.0000      -0.468832       -12.7576
  54   2.0000      -0.463031       -12.5997
  55   2.0000      -0.458087       -12.4652
  56   2.0000      -0.449703       -12.2370
  57   2.0000      -0.443432       -12.0664
  58   2.0000      -0.437519       -11.9055
  59   2.0000      -0.423593       -11.5265
  60   2.0000      -0.414026       -11.2662
  61   2.0000      -0.410767       -11.1775
  62   2.0000      -0.404008       -10.9936
  63   2.0000      -0.356194        -9.6925
  64   2.0000      -0.338216        -9.2033
  65   2.0000      -0.331150        -9.0110
  66   2.0000      -0.280802        -7.6410
  67   0.0000       0.020583         0.5601
  68   0.0000       0.082628         2.2484
  69   0.0000       0.101673         2.7667
  70   0.0000       0.122227         3.3260
  71   0.0000       0.131848         3.5878

MULLIKEN ATOMIC CHARGES
-----------------------
   0 S :    0.121223
   1 C :   -0.122144
   2 C :   -0.120439
   3 C :    0.022742
   4 C :   -0.122573
   5 H :   -0.016519
   6 C :    0.117777
   7 H :    0.027748
   8 H :   -0.003693
   9 C :   -0.087951
  10 H :    0.012091
  11 H :    0.028528
  12 C :    0.002983
  13 H :    0.031632
  14 H :    0.010910
  15 H :    0.045057
  16 S :    0.098300
  17 C :   -0.095384
  18 C :   -0.023315
  19 C :   -0.076626
  20 C :   -0.116211
  21 H :    0.015245
  22 C :    0.135507
  23 H :    0.021442
  24 H :   -0.004634
  25 C :   -0.156000
  26 H :    0.041123
  27 H :    0.023073
  28 C :   -0.005765
  29 H :    0.020570
  30 H :    0.028593
  31 H :    0.027212
  32 H :    0.056694
  33 H :    0.062804
Sum of atomic charges:   -0.0000000

LOEWDIN ATOMIC CHARGES
----------------------
   0 S :    0.424821
   1 C :   -0.219096
   2 C :   -0.060788
   3 C :   -0.062745
   4 C :   -0.187107
   5 H :    0.015747
   6 C :   -0.018744
   7 H :    0.027933
   8 H :    0.019612
   9 C :   -0.041079
  10 H :    0.018590
  11 H :    0.024125
  12 C :   -0.055514
  13 H :    0.029441
  14 H :    0.012380
  15 H :    0.037479
  16 S :    0.414545
  17 C :   -0.186358
  18 C :   -0.061822
  19 C :   -0.054934
  20 C :   -0.202379
  21 H :    0.026871
  22 C :   -0.025604
  23 H :    0.026510
  24 H :    0.022390
  25 C :   -0.048425
  26 H :    0.030800
  27 H :    0.022442
  28 C :   -0.062527
  29 H :    0.015118
  30 H :    0.023942
  31 H :    0.029100
  32 H :    0.033312
  33 H :    0.031962

  Mayer bond orders larger than 0.100000
B(  0-S ,  1-C ) :   1.1465 B(  0-S ,  4-C ) :   1.1779 B(  1-C ,  2-C ) :   1.5866
B(  1-C ,  4-C ) :   0.1109 B(  1-C , 32-H ) :   0.9569 B(  2-C ,  3-C ) :   1.2963
B(  2-C ,  6-C ) :   1.0113 B(  3-C ,  4-C ) :   1.5205 B(  3-C ,  5-H ) :   0.9997
B(  4-C , 20-C ) :   1.0585 B(  6-C ,  7-H ) :   0.9297 B(  6-C ,  8-H ) :   0.9364
B(  6-C ,  9-C ) :   1.0738 B(  9-C , 10-H ) :   0.9578 B(  9-C , 11-H ) :   0.9588
B(  9-C , 12-C ) :   1.0712 B( 12-C , 13-H ) :   0.9754 B( 12-C , 14-H ) :   0.9732
B( 12-C , 15-H ) :   0.9767 B( 16-S , 17-C ) :   1.1593 B( 16-S , 20-C ) :   1.1412
B( 17-C , 18-C ) :   1.6096 B( 17-C , 33-H ) :   0.9649 B( 18-C , 19-C ) :   1.2353
B( 18-C , 21-H ) :   0.9912 B( 19-C , 20-C ) :   1.5872 B( 19-C , 22-C ) :   1.0566
B( 22-C , 23-H ) :   0.9287 B( 22-C , 24-H ) :   0.9338 B( 22-C , 25-C ) :   1.0405
B( 25-C , 26-H ) :   0.9562 B( 25-C , 27-H ) :   0.9572 B( 25-C , 28-C ) :   1.0716
B( 28-C , 29-H ) :   0.9777 B( 28-C , 30-H ) :   0.9741 B( 28-C , 31-H ) :   0.9741

Dispersion correction           -0.013705345
FINAL SINGLE POINT ENERGY     -1339.860974391025

DIPOLE MOMENT
-------------
                                X             Y             Z
Electronic contribution:    -22.03189      -6.37421     -22.75344
Nuclear contribution   :     22.51583       6.30350      23.22822
                        -----------------------------------------
Total Dipole Moment    :      0.48394      -0.07071       0.47478
                        -----------------------------------------
Magnitude (a.u.)       :      0.68163
Magnitude (Debye)      :      1.73256

Rotational constants in cm-1:     0.016539     0.009444     0.006309
Rotational constants in MHz :   495.822607   283.110775   189.133051

                             ****ORCA TERMINATED NORMALLY****
TOTAL RUN TIME: 0 days 0 hours 0 minutes 33 seconds 894 msec
