                         Program Version 4.2.1 -  RELEASE  -
|  1> ! wB97X-D3 SP def2-SVP
|  2> %pal
|  3> nprocs 16
|  4> end
|  5>
|  6> * xyz 0 1
|  7> S 	 -47.8445 	 28.7827 	 88.5573
|  8> C 	 -49.4749 	 28.0435 	 88.443
|  9> C 	 -50.2561 	 28.7448 	 87.5717
| 10> C 	 -49.618 	 29.936 	 87.062
| 11> C 	 -48.3589 	 30.1077 	 87.553
| 12> H 	 -50.1421 	 30.7079 	 86.4434
| 13> C 	 -51.6793 	 28.3074 	 87.1552
| 14> H 	 -52.3357 	 28.817 	 87.8985
| 15> H 	 -51.9118 	 27.2819 	 87.3581
| 16> C 	 -52.1254 	 28.6915 	 85.7003
| 17> H 	 -52.2787 	 29.7597 	 85.6101
| 18> H 	 -51.3831 	 28.4159 	 84.9922
| 19> C 	 -53.4128 	 27.8872 	 85.2826
| 20> H 	 -54.177 	 28.0334 	 86.0298
| 21> H 	 -53.7474 	 28.0445 	 84.2055
| 22> H 	 -53.2461 	 26.8198 	 85.3609
| 23> S 	 -46.7112 	 30.837 	 85.4733
| 24> C 	 -45.9729 	 32.3818 	 85.5634
| 25> C 	 -46.3878 	 33.1323 	 86.6609
| 26> C 	 -47.2248 	 32.3737 	 87.5226
| 27> C 	 -47.4313 	 31.0819 	 87.0461
| 28> H 	 -45.8793 	 34.0962 	 86.8306
| 29> C 	 -47.7552 	 32.9315 	 88.8701
| 30> H 	 -47.0155 	 32.7404 	 89.6429
| 31> H 	 -48.5586 	 32.2115 	 89.1081
| 32> C 	 -48.397 	 34.2708 	 88.8543
| 33> H 	 -49.1927 	 34.2066 	 88.0866
| 34> H 	 -47.8065 	 35.0239 	 88.4168
| 35> C 	 -48.8687 	 34.8246 	 90.1879
| 36> H 	 -47.9934 	 35.0011 	 90.8109
| 37> H 	 -49.5764 	 34.0817 	 90.672
| 38> H 	 -49.4325 	 35.8446 	 90.0662
| 39> H 	 -49.7134 	 27.0714 	 88.8856
| 40> H 	 -45.2346 	 32.6084 	 84.814
| 41> *
| 42>
| 43>                          ****END OF INPUT****

CARTESIAN COORDINATES (ANGSTROEM)
---------------------------------
  S    -47.844500   28.782700   88.557300
  C    -49.474900   28.043500   88.443000
  C    -50.256100   28.744800   87.571700
  C    -49.618000   29.936000   87.062000
  C    -48.358900   30.107700   87.553000
  H    -50.142100   30.707900   86.443400
  C    -51.679300   28.307400   87.155200
  H    -52.335700   28.817000   87.898500
  H    -51.911800   27.281900   87.358100
  C    -52.125400   28.691500   85.700300
  H    -52.278700   29.759700   85.610100
  H    -51.383100   28.415900   84.992200
  C    -53.412800   27.887200   85.282600
  H    -54.177000   28.033400   86.029800
  H    -53.747400   28.044500   84.205500
  H    -53.246100   26.819800   85.360900
  S    -46.711200   30.837000   85.473300
  C    -45.972900   32.381800   85.563400
  C    -46.387800   33.132300   86.660900
  C    -47.224800   32.373700   87.522600
  C    -47.431300   31.081900   87.046100
  H    -45.879300   34.096200   86.830600
  C    -47.755200   32.931500   88.870100
  H    -47.015500   32.740400   89.642900
  H    -48.558600   32.211500   89.108100
  C    -48.397000   34.270800   88.854300
  H    -49.192700   34.206600   88.086600
  H    -47.806500   35.023900   88.416800
  C    -48.868700   34.824600   90.187900
  H    -47.993400   35.001100   90.810900
  H    -49.576400   34.081700   90.672000
  H    -49.432500   35.844600   90.066200
  H    -49.713400   27.071400   88.885600
  H    -45.234600   32.608400   84.814000

 Total Charge           Charge          ....    0
 Multiplicity           Mult            ....    1
 Number of Electrons    NEL             ....  134
 Basis Dimension        Dim             ....  322

ORBITAL ENERGIES
----------------

  NO   OCC          E(Eh)            E(eV)
   0   2.0000     -88.964894     -2420.8578
   1   2.0000     -88.962882     -2420.8031
   2   2.0000     -10.322385      -280.8864
   3   2.0000     -10.318965      -280.7933
   4   2.0000     -10.314508      -280.6720
   5   2.0000     -10.314205      -280.6638
   6   2.0000     -10.304618      -280.4029
   7   2.0000     -10.303346      -280.3683
   8   2.0000     -10.297540      -280.2103
   9   2.0000     -10.295836      -280.1639
  10   2.0000     -10.294859      -280.1374
  11   2.0000     -10.290245      -280.0118
  12   2.0000     -10.289766      -279.9988
  13   2.0000     -10.288734      -279.9707
  14   2.0000     -10.284532      -279.8563
  15   2.0000     -10.278782      -279.6999
  16   2.0000      -8.080533      -219.8825
  17   2.0000      -8.077302      -219.7946
  18   2.0000      -6.038752      -164.3228
  19   2.0000      -6.035823      -164.2431
  20   2.0000      -6.034981      -164.2202
  21   2.0000      -6.031971      -164.1383
  22   2.0000      -6.031491      -164.1252
  23   2.0000      -6.027949      -164.0288
  24   2.0000      -1.007872       -27.4256
  25   2.0000      -0.982647       -26.7392
  26   2.0000      -0.912207       -24.8224
  27   2.0000      -0.904241       -24.6056
  28   2.0000      -0.869190       -23.6519
  29   2.0000      -0.851119       -23.1601
  30   2.0000      -0.841581       -22.9006
  31   2.0000      -0.810033       -22.0421
  32   2.0000      -0.781017       -21.2525
  33   2.0000      -0.769065       -20.9273
  34   2.0000      -0.711451       -19.3596
  35   2.0000      -0.699047       -19.0220
  36   2.0000      -0.691457       -18.8155
  37   2.0000      -0.654191       -17.8015
  38   2.0000      -0.639256       -17.3950
  39   2.0000      -0.616801       -16.7840
  40   2.0000      -0.599036       -16.3006
  41   2.0000      -0.565213       -15.3802
  42   2.0000      -0.562696       -15.3117
  43   2.0000      -0.557815       -15.1789
  44   2.0000      -0.527231       -14.3467
  45   2.0000      -0.523242       -14.2381
  46   2.0000      -0.512374       -13.9424
  47   2.0000      -0.510917       -13.9028
  48   2.0000      -0.507190       -13.8014
  49   2.0000      -0.490933       -13.3590
  50   2.0000      -0.489745       -13.3266
  51   2.0000      -0.473279       -12.8786
  52   2.0000      -0.466515       -12.6945
  53   2.0000      -0.465020       -12.6538
  54   2.0000      -0.455564       -12.3965
  55   2.0000      -0.450041       -12.2462
  56   2.0000      -0.447882       -12.1875
  57   2.0000      -0.438771       -11.9396
  58   2.0000      -0.431698       -11.7471
  59   2.0000      -0.430025       -11.7016
  60   2.0000      -0.425024       -11.5655
  61   2.0000      -0.412640       -11.2285
  62   2.0000      -0.407460       -11.0876
  63   2.0000      -0.337445        -9.1824
  64   2.0000      -0.326627        -8.8880
  65   2.0000      -0.319467        -8.6931
  66   2.0000      -0.311941        -8.4883
  67   0.0000       0.049802         1.3552
  68   0.0000       0.050876         1.3844
  69   0.0000       0.113679         3.0934
  70   0.0000       0.121762         3.3133
  71   0.0000       0.131094         3.5672

MULLIKEN ATOMIC CHARGES
-----------------------
   0 S :    0.099372
   1 C :   -0.141142
   2 C :   -0.069041
   3 C :    0.011898
   4 C :   -0.178556
   5 H :    0.037212
   6 C :    0.052231
   7 H :    0.043016
   8 H :    0.008845
   9 C :   -0.069232
  10 H :    0.038472
  11 H :    0.034391
  12 C :   -0.069959
  13 H :    0.025918
  14 H :    0.053324
  15 H :    0.024826
  16 S :    0.127914
  17 C :   -0.112169
  18 C :   -0.032814
  19 C :   -0.042318
  20 C :   -0.167749
  21 H :    0.035492
  22 C :    0.098563
  23 H :    0.036214
  24 H :    0.025665
  25 C :   -0.068781
  26 H :    0.022200
  27 H :    0.010162
  28 C :   -0.079099
  29 H :    0.038743
  30 H :    0.042768
  31 H :    0.052547
  32 H :    0.053262
  33 H :    0.057826
Sum of atomic charges:    0.0000000

LOEWDIN ATOMIC CHARGES
----------------------
   0 S :    0.387743
   1 C :   -0.188523
   2 C :   -0.061179
   3 C :   -0.066547
   4 C :   -0.202584
   5 H :    0.042267
   6 C :   -0.031635
   7 H :    0.039575
   8 H :    0.023186
   9 C :   -0.035464
  10 H :    0.022224
  11 H :    0.021520
  12 C :   -0.070632
  13 H :    0.021105
  14 H :    0.036331
  15 H :    0.022414
  16 S :    0.428948
  17 C :   -0.188119
  18 C :   -0.080201
  19 C :   -0.046600
  20 C :   -0.215194
  21 H :    0.038378
  22 C :   -0.032056
  23 H :    0.031330
  24 H :    0.035243
  25 C :   -0.052943
  26 H :    0.029021
  27 H :    0.013749
  28 C :   -0.069903
  29 H :    0.024876
  30 H :    0.029803
  31 H :    0.039938
  32 H :    0.030840
  33 H :    0.023091

  Mayer bond orders larger than 0.100000
B(  0-S ,  1-C ) :   1.1154 B(  0-S ,  4-C ) :   1.1491 B(  1-C ,  2-C ) :   1.6513
B(  1-C , 32-H ) :   0.9693 B(  2-C ,  3-C ) :   1.2141 B(  2-C ,  6-C ) :   1.0078
B(  3-C ,  4-C ) :   1.6084 B(  3-C ,  5-H ) :   0.9883 B(  4-C , 20-C ) :   1.0049
B(  6-C ,  7-H ) :   0.9318 B(  6-C ,  8-H ) :   0.9529 B(  6-C ,  9-C ) :   1.0560
B(  9-C , 10-H ) :   0.9507 B(  9-C , 11-H ) :   0.9654 B(  9-C , 12-C ) :   1.0776
B( 12-C , 13-H ) :   0.9761 B( 12-C , 14-H ) :   0.9749 B( 12-C , 15-H ) :   0.9753
B( 16-S , 17-C ) :   1.1865 B( 16-S , 20-C ) :   1.1535 B( 17-C , 18-C ) :   1.5808
B( 17-C , 20-C ) :   0.1016 B( 17-C , 33-H ) :   0.9692 B( 18-C , 19-C ) :   1.2510
B( 18-C , 21-H ) :   0.9895 B( 19-C , 20-C ) :   1.6004 B( 19-C , 22-C ) :   1.0261
B( 22-C , 23-H ) :   0.9375 B( 22-C , 24-H ) :   0.9229 B( 22-C , 25-C ) :   1.0606
B( 25-C , 26-H ) :   0.9485 B( 25-C , 27-H ) :   0.9524 B( 25-C , 28-C ) :   1.0844
B( 28-C , 29-H ) :   0.9731 B( 28-C , 30-H ) :   0.9748 B( 28-C , 31-H ) :   0.9722

Dispersion correction           -0.013743793
FINAL SINGLE POINT ENERGY     -1339.880830491222

DIPOLE MOMENT
-------------
                                X             Y             Z
Electronic contribution:     21.70713      -8.45041      -3.62720
Nuclear contribution   :    -22.08456       8.64249       3.55134
                        -----------------------------------------
Total Dipole Moment    :     -0.37743       0.19208      -0.07586
                        -----------------------------------------
Magnitude (a.u.)       :      0.43024
Magnitude (Debye)      :      1.09358

Rotational constants in cm-1:     0.017030     0.007674     0.006931
Rotational constants in MHz :   510.551576   230.066761   207.795886

                             ****ORCA TERMINATED NORMALLY****
TOTAL RUN TIME: 0 days 0 hours 0 minutes 27 seconds 116 msec
