                         Program Version 4.2.1 -  RELEASE  -
|  1> ! wB97X-D3 SP def2-SVP
|  2> %pal
|  3> nprocs 16
|  4> end
|  5>
|  6> * xyz 0 1
|  7> S 	 -13.1631 	 34.8087 	 38.1184
|  8> C 	 -13.3987 	 36.0709 	 39.2467
|  9> C 	 -13.779 	 37.2335 	 38.6265
| 10> C 	 -14.0053 	 37.017 	 37.232
| 11> C 	 -13.6662 	 35.7438 	 36.7727
| 12> H 	 -14.2949 	 37.765 	 36.5463
| 13> C 	 -13.9261 	 38.5578 	 39.2697
| 14> H 	 -13.7179 	 39.3162 	 38.4513
| 15> H 	 -13.0861 	 38.522 	 40.018
| 16> C 	 -15.2431 	 38.906 	 40.0474
| 17> H 	 -15.202 	 38.4047 	 40.9773
| 18> H 	 -15.341 	 39.9459 	 40.3364
| 19> C 	 -16.5101 	 38.5293 	 39.1988
| 20> H 	 -17.4232 	 38.9703 	 39.6476
| 21> H 	 -16.4649 	 38.9702 	 38.1272
| 22> H 	 -16.6274 	 37.4537 	 39.1143
| 23> S 	 -12.5799 	 33.8287 	 35.1022
| 24> C 	 -12.9592 	 33.8382 	 33.467
| 25> C 	 -13.7969 	 34.8634 	 33.1427
| 26> C 	 -14.1923 	 35.6382 	 34.262
| 27> C 	 -13.6333 	 35.2096 	 35.4388
| 28> H 	 -14.0369 	 35.0372 	 32.0938
| 29> C 	 -15.2413 	 36.6985 	 34.0091
| 30> H 	 -15.696 	 36.8743 	 34.9808
| 31> H 	 -15.8657 	 36.1743 	 33.3393
| 32> C 	 -14.7622 	 37.9441 	 33.4357
| 33> H 	 -14.5089 	 37.8956 	 32.3487
| 34> H 	 -13.8796 	 38.2319 	 34.0093
| 35> C 	 -15.6718 	 39.1203 	 33.6521
| 36> H 	 -15.3026 	 40.0601 	 33.3069
| 37> H 	 -15.9686 	 39.2527 	 34.7482
| 38> H 	 -16.507 	 38.9874 	 32.9379
| 39> H 	 -13.1653 	 36.0365 	 40.2638
| 40> H 	 -12.5461 	 33.2474 	 32.6353
| 41> *
| 42>
| 43>                          ****END OF INPUT****

CARTESIAN COORDINATES (ANGSTROEM)
---------------------------------
  S    -13.163100   34.808700   38.118400
  C    -13.398700   36.070900   39.246700
  C    -13.779000   37.233500   38.626500
  C    -14.005300   37.017000   37.232000
  C    -13.666200   35.743800   36.772700
  H    -14.294900   37.765000   36.546300
  C    -13.926100   38.557800   39.269700
  H    -13.717900   39.316200   38.451300
  H    -13.086100   38.522000   40.018000
  C    -15.243100   38.906000   40.047400
  H    -15.202000   38.404700   40.977300
  H    -15.341000   39.945900   40.336400
  C    -16.510100   38.529300   39.198800
  H    -17.423200   38.970300   39.647600
  H    -16.464900   38.970200   38.127200
  H    -16.627400   37.453700   39.114300
  S    -12.579900   33.828700   35.102200
  C    -12.959200   33.838200   33.467000
  C    -13.796900   34.863400   33.142700
  C    -14.192300   35.638200   34.262000
  C    -13.633300   35.209600   35.438800
  H    -14.036900   35.037200   32.093800
  C    -15.241300   36.698500   34.009100
  H    -15.696000   36.874300   34.980800
  H    -15.865700   36.174300   33.339300
  C    -14.762200   37.944100   33.435700
  H    -14.508900   37.895600   32.348700
  H    -13.879600   38.231900   34.009300
  C    -15.671800   39.120300   33.652100
  H    -15.302600   40.060100   33.306900
  H    -15.968600   39.252700   34.748200
  H    -16.507000   38.987400   32.937900
  H    -13.165300   36.036500   40.263800
  H    -12.546100   33.247400   32.635300

 Total Charge           Charge          ....    0
 Multiplicity           Mult            ....    1
 Number of Electrons    NEL             ....  134
 Basis Dimension        Dim             ....  322

ORBITAL ENERGIES
----------------

  NO   OCC          E(Eh)            E(eV)
   0   2.0000     -88.965963     -2420.8869
   1   2.0000     -88.965388     -2420.8713
   2   2.0000     -10.328713      -281.0586
   3   2.0000     -10.326505      -280.9985
   4   2.0000     -10.311985      -280.6034
   5   2.0000     -10.305127      -280.4168
   6   2.0000     -10.299605      -280.2665
   7   2.0000     -10.297972      -280.2221
   8   2.0000     -10.296988      -280.1953
   9   2.0000     -10.289787      -279.9993
  10   2.0000     -10.289664      -279.9960
  11   2.0000     -10.286676      -279.9147
  12   2.0000     -10.286116      -279.8994
  13   2.0000     -10.282996      -279.8145
  14   2.0000     -10.282457      -279.7999
  15   2.0000     -10.281528      -279.7746
  16   2.0000      -8.081752      -219.9157
  17   2.0000      -8.081436      -219.9071
  18   2.0000      -6.040260      -164.3638
  19   2.0000      -6.039903      -164.3541
  20   2.0000      -6.036126      -164.2513
  21   2.0000      -6.035640      -164.2381
  22   2.0000      -6.032425      -164.1506
  23   2.0000      -6.032293      -164.1470
  24   2.0000      -1.017938       -27.6995
  25   2.0000      -0.996034       -27.1035
  26   2.0000      -0.928101       -25.2549
  27   2.0000      -0.911228       -24.7958
  28   2.0000      -0.873444       -23.7676
  29   2.0000      -0.859701       -23.3937
  30   2.0000      -0.845012       -22.9940
  31   2.0000      -0.817022       -22.2323
  32   2.0000      -0.786984       -21.4149
  33   2.0000      -0.773205       -21.0400
  34   2.0000      -0.710162       -19.3245
  35   2.0000      -0.708163       -19.2701
  36   2.0000      -0.692390       -18.8409
  37   2.0000      -0.667342       -18.1593
  38   2.0000      -0.640705       -17.4345
  39   2.0000      -0.620009       -16.8713
  40   2.0000      -0.595236       -16.1972
  41   2.0000      -0.583939       -15.8898
  42   2.0000      -0.569535       -15.4978
  43   2.0000      -0.550627       -14.9833
  44   2.0000      -0.545241       -14.8368
  45   2.0000      -0.527304       -14.3487
  46   2.0000      -0.518472       -14.1084
  47   2.0000      -0.513482       -13.9726
  48   2.0000      -0.508732       -13.8433
  49   2.0000      -0.505813       -13.7639
  50   2.0000      -0.492618       -13.4048
  51   2.0000      -0.487534       -13.2665
  52   2.0000      -0.471077       -12.8187
  53   2.0000      -0.468234       -12.7413
  54   2.0000      -0.464829       -12.6486
  55   2.0000      -0.451089       -12.2748
  56   2.0000      -0.444748       -12.1022
  57   2.0000      -0.437056       -11.8929
  58   2.0000      -0.430537       -11.7155
  59   2.0000      -0.427202       -11.6247
  60   2.0000      -0.422960       -11.5093
  61   2.0000      -0.413726       -11.2580
  62   2.0000      -0.402521       -10.9532
  63   2.0000      -0.365944        -9.9578
  64   2.0000      -0.333931        -9.0867
  65   2.0000      -0.327951        -8.9240
  66   2.0000      -0.283019        -7.7013
  67   0.0000       0.024352         0.6627
  68   0.0000       0.086522         2.3544
  69   0.0000       0.109744         2.9863
  70   0.0000       0.112773         3.0687
  71   0.0000       0.123597         3.3633

MULLIKEN ATOMIC CHARGES
-----------------------
   0 S :    0.108440
   1 C :   -0.085012
   2 C :   -0.090282
   3 C :    0.015271
   4 C :   -0.127760
   5 H :   -0.031693
   6 C :    0.015880
   7 H :    0.042339
   8 H :    0.035679
   9 C :   -0.019634
  10 H :    0.017364
  11 H :    0.031178
  12 C :   -0.102357
  13 H :    0.038467
  14 H :    0.037890
  15 H :    0.054310
  16 S :    0.110458
  17 C :   -0.071528
  18 C :   -0.066347
  19 C :   -0.082278
  20 C :   -0.103926
  21 H :    0.017975
  22 C :    0.118518
  23 H :    0.013614
  24 H :    0.016471
  25 C :   -0.069415
  26 H :    0.033202
  27 H :    0.025027
  28 C :   -0.053136
  29 H :    0.021808
  30 H :    0.045042
  31 H :    0.022740
  32 H :    0.020100
  33 H :    0.061596
Sum of atomic charges:    0.0000000

LOEWDIN ATOMIC CHARGES
----------------------
   0 S :    0.437277
   1 C :   -0.203212
   2 C :   -0.066527
   3 C :   -0.069764
   4 C :   -0.196264
   5 H :    0.016647
   6 C :   -0.039119
   7 H :    0.038075
   8 H :    0.038230
   9 C :   -0.035337
  10 H :    0.017872
  11 H :    0.025742
  12 C :   -0.074050
  13 H :    0.026673
  14 H :    0.030905
  15 H :    0.026050
  16 S :    0.422658
  17 C :   -0.207486
  18 C :   -0.081169
  19 C :   -0.051141
  20 C :   -0.195011
  21 H :    0.031972
  22 C :   -0.026427
  23 H :    0.030367
  24 H :    0.029008
  25 C :   -0.049493
  26 H :    0.030440
  27 H :    0.024640
  28 C :   -0.067589
  29 H :    0.020371
  30 H :    0.031117
  31 H :    0.026006
  32 H :    0.017581
  33 H :    0.040958

  Mayer bond orders larger than 0.100000
B(  0-S ,  1-C ) :   1.1475 B(  0-S ,  4-C ) :   1.1669 B(  1-C ,  2-C ) :   1.5872
B(  1-C , 32-H ) :   0.9741 B(  2-C ,  3-C ) :   1.2650 B(  2-C ,  6-C ) :   1.0178
B(  3-C ,  4-C ) :   1.5322 B(  3-C ,  5-H ) :   0.9965 B(  4-C , 20-C ) :   1.0862
B(  6-C ,  7-H ) :   0.9429 B(  6-C ,  8-H ) :   0.9421 B(  6-C ,  9-C ) :   1.0655
B(  9-C , 10-H ) :   0.9545 B(  9-C , 11-H ) :   0.9593 B(  9-C , 12-C ) :   1.0708
B( 12-C , 13-H ) :   0.9758 B( 12-C , 14-H ) :   0.9764 B( 12-C , 15-H ) :   0.9730
B( 16-S , 17-C ) :   1.1668 B( 16-S , 20-C ) :   1.1187 B( 17-C , 18-C ) :   1.6196
B( 17-C , 33-H ) :   0.9580 B( 18-C , 19-C ) :   1.2482 B( 18-C , 21-H ) :   0.9881
B( 19-C , 20-C ) :   1.6045 B( 19-C , 22-C ) :   1.0295 B( 22-C , 23-H ) :   0.9284
B( 22-C , 24-H ) :   0.9225 B( 22-C , 25-C ) :   1.0840 B( 25-C , 26-H ) :   0.9426
B( 25-C , 27-H ) :   0.9505 B( 25-C , 28-C ) :   1.1018 B( 28-C , 29-H ) :   0.9716
B( 28-C , 30-H ) :   0.9708 B( 28-C , 31-H ) :   0.9694

Dispersion correction           -0.014657203
FINAL SINGLE POINT ENERGY     -1339.875881748956

DIPOLE MOMENT
-------------
                                X             Y             Z
Electronic contribution:     16.22306     -26.43018       0.38980
Nuclear contribution   :    -16.41472      27.01493      -0.61329
                        -----------------------------------------
Total Dipole Moment    :     -0.19165       0.58475      -0.22350
                        -----------------------------------------
Magnitude (a.u.)       :      0.65468
Magnitude (Debye)      :      1.66408

Rotational constants in cm-1:     0.017997     0.009985     0.006762
Rotational constants in MHz :   539.540750   299.338985   202.725191

                             ****ORCA TERMINATED NORMALLY****
TOTAL RUN TIME: 0 days 0 hours 0 minutes 35 seconds 814 msec
