                         Program Version 4.2.1 -  RELEASE  -
|  1> ! wB97X-D3 SP def2-SVP
|  2> %pal
|  3> nprocs 16
|  4> end
|  5>
|  6> * xyz 0 1
|  7> S 	 10.7442 	 -13.931 	 67.4524
|  8> C 	 9.59082 	 -13.999 	 66.1449
|  9> C 	 8.31203 	 -14.4059 	 66.4952
| 10> C 	 8.25587 	 -14.4617 	 67.9528
| 11> C 	 9.49629 	 -14.1472 	 68.6001
| 12> H 	 7.46424 	 -14.7664 	 68.576
| 13> C 	 7.25333 	 -14.6921 	 65.4814
| 14> H 	 7.62317 	 -15.3354 	 64.6889
| 15> H 	 6.99224 	 -13.6891 	 65.0224
| 16> C 	 5.99741 	 -15.3657 	 65.9869
| 17> H 	 5.37723 	 -14.8311 	 66.7206
| 18> H 	 5.29703 	 -15.3052 	 65.1503
| 19> C 	 6.10779 	 -16.8664 	 66.4732
| 20> H 	 5.06805 	 -17.1964 	 66.6027
| 21> H 	 6.63766 	 -17.4771 	 65.7763
| 22> H 	 6.55908 	 -16.9732 	 67.4267
| 23> S 	 10.5432 	 -12.5957 	 70.6143
| 24> C 	 10.218 	 -13.0191 	 72.2695
| 25> C 	 9.56513 	 -14.2111 	 72.3545
| 26> C 	 9.3471 	 -14.8281 	 71.09
| 27> C 	 9.75387 	 -14.0451 	 70.0474
| 28> H 	 9.24719 	 -14.5781 	 73.3023
| 29> C 	 8.74046 	 -16.2252 	 70.873
| 30> H 	 8.75877 	 -16.4174 	 69.8292
| 31> H 	 7.75835 	 -16.1348 	 71.2535
| 32> C 	 9.35857 	 -17.3935 	 71.7312
| 33> H 	 8.82103 	 -18.3434 	 71.5602
| 34> H 	 9.32134 	 -17.1509 	 72.8398
| 35> C 	 10.8342 	 -17.6615 	 71.2869
| 36> H 	 11.2707 	 -16.7116 	 70.9923
| 37> H 	 10.9259 	 -18.3706 	 70.5344
| 38> H 	 11.3403 	 -18.1278 	 72.1518
| 39> H 	 9.81416 	 -13.9531 	 65.0825
| 40> H 	 10.539 	 -12.4443 	 73.1437
| 41> *
| 42>
| 43>                          ****END OF INPUT****

CARTESIAN COORDINATES (ANGSTROEM)
---------------------------------
  S     10.744200  -13.931000   67.452400
  C      9.590820  -13.999000   66.144900
  C      8.312030  -14.405900   66.495200
  C      8.255870  -14.461700   67.952800
  C      9.496290  -14.147200   68.600100
  H      7.464240  -14.766400   68.576000
  C      7.253330  -14.692100   65.481400
  H      7.623170  -15.335400   64.688900
  H      6.992240  -13.689100   65.022400
  C      5.997410  -15.365700   65.986900
  H      5.377230  -14.831100   66.720600
  H      5.297030  -15.305200   65.150300
  C      6.107790  -16.866400   66.473200
  H      5.068050  -17.196400   66.602700
  H      6.637660  -17.477100   65.776300
  H      6.559080  -16.973200   67.426700
  S     10.543200  -12.595700   70.614300
  C     10.218000  -13.019100   72.269500
  C      9.565130  -14.211100   72.354500
  C      9.347100  -14.828100   71.090000
  C      9.753870  -14.045100   70.047400
  H      9.247190  -14.578100   73.302300
  C      8.740460  -16.225200   70.873000
  H      8.758770  -16.417400   69.829200
  H      7.758350  -16.134800   71.253500
  C      9.358570  -17.393500   71.731200
  H      8.821030  -18.343400   71.560200
  H      9.321340  -17.150900   72.839800
  C     10.834200  -17.661500   71.286900
  H     11.270700  -16.711600   70.992300
  H     10.925900  -18.370600   70.534400
  H     11.340300  -18.127800   72.151800
  H      9.814160  -13.953100   65.082500
  H     10.539000  -12.444300   73.143700

 Total Charge           Charge          ....    0
 Multiplicity           Mult            ....    1
 Number of Electrons    NEL             ....  134
 Basis Dimension        Dim             ....  322

ORBITAL ENERGIES
----------------

  NO   OCC          E(Eh)            E(eV)
   0   2.0000     -88.969152     -2420.9737
   1   2.0000     -88.962103     -2420.7819
   2   2.0000     -10.330159      -281.0979
   3   2.0000     -10.322879      -280.8998
   4   2.0000     -10.316181      -280.7175
   5   2.0000     -10.308608      -280.5115
   6   2.0000     -10.303600      -280.3752
   7   2.0000     -10.300234      -280.2836
   8   2.0000     -10.299397      -280.2608
   9   2.0000     -10.298056      -280.2244
  10   2.0000     -10.294521      -280.1282
  11   2.0000     -10.290994      -280.0322
  12   2.0000     -10.290044      -280.0063
  13   2.0000     -10.286957      -279.9223
  14   2.0000     -10.278515      -279.6926
  15   2.0000     -10.266966      -279.3783
  16   2.0000      -8.084264      -219.9840
  17   2.0000      -8.077486      -219.7996
  18   2.0000      -6.042652      -164.4289
  19   2.0000      -6.038714      -164.3218
  20   2.0000      -6.035967      -164.2470
  21   2.0000      -6.035166      -164.2252
  22   2.0000      -6.031926      -164.1371
  23   2.0000      -6.028206      -164.0358
  24   2.0000      -1.008570       -27.4446
  25   2.0000      -0.985423       -26.8147
  26   2.0000      -0.914890       -24.8954
  27   2.0000      -0.901516       -24.5315
  28   2.0000      -0.868357       -23.6292
  29   2.0000      -0.846982       -23.0475
  30   2.0000      -0.841553       -22.8998
  31   2.0000      -0.813658       -22.1407
  32   2.0000      -0.788277       -21.4501
  33   2.0000      -0.775307       -21.0972
  34   2.0000      -0.712154       -19.3787
  35   2.0000      -0.694946       -18.9104
  36   2.0000      -0.690060       -18.7775
  37   2.0000      -0.657349       -17.8874
  38   2.0000      -0.638641       -17.3783
  39   2.0000      -0.618603       -16.8330
  40   2.0000      -0.592903       -16.1337
  41   2.0000      -0.572599       -15.5812
  42   2.0000      -0.553990       -15.0748
  43   2.0000      -0.552945       -15.0464
  44   2.0000      -0.543137       -14.7795
  45   2.0000      -0.531804       -14.4711
  46   2.0000      -0.521177       -14.1819
  47   2.0000      -0.512111       -13.9352
  48   2.0000      -0.502831       -13.6827
  49   2.0000      -0.490989       -13.3605
  50   2.0000      -0.488744       -13.2994
  51   2.0000      -0.483462       -13.1557
  52   2.0000      -0.471564       -12.8319
  53   2.0000      -0.466624       -12.6975
  54   2.0000      -0.459474       -12.5029
  55   2.0000      -0.447090       -12.1659
  56   2.0000      -0.444842       -12.1048
  57   2.0000      -0.436049       -11.8655
  58   2.0000      -0.434156       -11.8140
  59   2.0000      -0.431648       -11.7457
  60   2.0000      -0.422453       -11.4955
  61   2.0000      -0.415824       -11.3152
  62   2.0000      -0.409893       -11.1538
  63   2.0000      -0.344676        -9.3791
  64   2.0000      -0.330223        -8.9858
  65   2.0000      -0.327739        -8.9182
  66   2.0000      -0.290303        -7.8996
  67   0.0000       0.031699         0.8626
  68   0.0000       0.074255         2.0206
  69   0.0000       0.108401         2.9497
  70   0.0000       0.124312         3.3827
  71   0.0000       0.133935         3.6446

MULLIKEN ATOMIC CHARGES
-----------------------
   0 S :    0.134839
   1 C :   -0.114200
   2 C :   -0.092925
   3 C :    0.048237
   4 C :   -0.182751
   5 H :   -0.007325
   6 C :    0.061813
   7 H :    0.035875
   8 H :    0.056521
   9 C :   -0.100480
  10 H :    0.026908
  11 H :    0.019950
  12 C :   -0.030002
  13 H :    0.034976
  14 H :    0.028884
  15 H :    0.027757
  16 S :    0.105459
  17 C :   -0.091535
  18 C :   -0.027470
  19 C :   -0.064458
  20 C :   -0.155955
  21 H :    0.004859
  22 C :    0.112328
  23 H :    0.027546
  24 H :    0.020868
  25 C :   -0.116014
  26 H :    0.037299
  27 H :    0.041456
  28 C :   -0.035035
  29 H :    0.044955
  30 H :    0.018250
  31 H :    0.029318
  32 H :    0.037097
  33 H :    0.062952
Sum of atomic charges:   -0.0000000

LOEWDIN ATOMIC CHARGES
----------------------
   0 S :    0.432595
   1 C :   -0.205717
   2 C :   -0.061052
   3 C :   -0.057406
   4 C :   -0.210971
   5 H :    0.018833
   6 C :   -0.038219
   7 H :    0.035108
   8 H :    0.048687
   9 C :   -0.049588
  10 H :    0.024972
  11 H :    0.026913
  12 C :   -0.057116
  13 H :    0.032098
  14 H :    0.020469
  15 H :    0.018543
  16 S :    0.406726
  17 C :   -0.183603
  18 C :   -0.070763
  19 C :   -0.058383
  20 C :   -0.206639
  21 H :    0.026512
  22 C :   -0.023722
  23 H :    0.024777
  24 H :    0.026785
  25 C :   -0.040473
  26 H :    0.026778
  27 H :    0.026808
  28 C :   -0.063270
  29 H :    0.026717
  30 H :    0.013945
  31 H :    0.029142
  32 H :    0.025436
  33 H :    0.035078

  Mayer bond orders larger than 0.100000
B(  0-S ,  1-C ) :   1.1465 B(  0-S ,  4-C ) :   1.1806 B(  1-C ,  2-C ) :   1.6111
B(  1-C , 32-H ) :   0.9668 B(  2-C ,  3-C ) :   1.2463 B(  2-C ,  6-C ) :   1.0153
B(  3-C ,  4-C ) :   1.5360 B(  3-C ,  5-H ) :   0.9997 B(  4-C , 20-C ) :   1.0214
B(  6-C ,  7-H ) :   0.9382 B(  6-C ,  8-H ) :   0.9321 B(  6-C ,  9-C ) :   1.0960
B(  9-C , 10-H ) :   0.9497 B(  9-C , 11-H ) :   0.9505 B(  9-C , 12-C ) :   1.0697
B( 12-C , 13-H ) :   0.9739 B( 12-C , 14-H ) :   0.9768 B( 12-C , 15-H ) :   0.9781
B( 16-S , 17-C ) :   1.1528 B( 16-S , 20-C ) :   1.1381 B( 17-C , 18-C ) :   1.6187
B( 17-C , 33-H ) :   0.9653 B( 18-C , 19-C ) :   1.2227 B( 18-C , 21-H ) :   0.9993
B( 19-C , 20-C ) :   1.6119 B( 19-C , 22-C ) :   1.0329 B( 22-C , 23-H ) :   0.9385
B( 22-C , 24-H ) :   0.9233 B( 22-C , 25-C ) :   1.0717 B( 25-C , 26-H ) :   0.9586
B( 25-C , 27-H ) :   0.9608 B( 25-C , 28-C ) :   1.0622 B( 28-C , 29-H ) :   0.9811
B( 28-C , 30-H ) :   0.9778 B( 28-C , 31-H ) :   0.9758

Dispersion correction           -0.014726146
FINAL SINGLE POINT ENERGY     -1339.878709689082

DIPOLE MOMENT
-------------
                                X             Y             Z
Electronic contribution:     15.53865      21.55109       1.93101
Nuclear contribution   :    -16.09633     -22.01614      -1.95286
                        -----------------------------------------
Total Dipole Moment    :     -0.55767      -0.46505      -0.02185
                        -----------------------------------------
Magnitude (a.u.)       :      0.72646
Magnitude (Debye)      :      1.84652

Rotational constants in cm-1:     0.018358     0.009140     0.007310
Rotational constants in MHz :   550.366840   273.995814   219.163071

                             ****ORCA TERMINATED NORMALLY****
TOTAL RUN TIME: 0 days 0 hours 0 minutes 35 seconds 711 msec
