                         Program Version 4.2.1 -  RELEASE  -
|  1> ! wB97X-D3 SP def2-SVP
|  2> %pal
|  3> nprocs 16
|  4> end
|  5>
|  6> * xyz 0 1
|  7> S 	 3.85843 	 -25.761 	 60.5808
|  8> C 	 2.57436 	 -26.6026 	 61.3272
|  9> C 	 2.93259 	 -27.7334 	 62.0712
| 10> C 	 4.33678 	 -27.8237 	 62.0724
| 11> C 	 5.03088 	 -26.7631 	 61.487
| 12> H 	 4.99582 	 -28.6242 	 62.4068
| 13> C 	 1.97785 	 -28.7725 	 62.578
| 14> H 	 1.01154 	 -28.3571 	 62.881
| 15> H 	 2.38082 	 -29.2247 	 63.4046
| 16> C 	 1.81727 	 -29.8768 	 61.4816
| 17> H 	 2.70832 	 -30.4169 	 61.2668
| 18> H 	 1.23958 	 -30.6691 	 62.009
| 19> C 	 1.07548 	 -29.6399 	 60.1152
| 20> H 	 0.793556 	 -30.5934 	 59.6845
| 21> H 	 0.0847504 	 -29.1994 	 60.3759
| 22> H 	 1.65767 	 -29.0723 	 59.4293
| 23> S 	 6.90185 	 -26.8354 	 59.4788
| 24> C 	 8.57068 	 -26.5212 	 59.8778
| 25> C 	 8.79449 	 -26.3433 	 61.2725
| 26> C 	 7.52192 	 -26.3843 	 61.9817
| 27> C 	 6.43423 	 -26.703 	 61.1987
| 28> H 	 9.76761 	 -26.1492 	 61.6709
| 29> C 	 7.51168 	 -26.1952 	 63.4267
| 30> H 	 6.56897 	 -26.3014 	 63.8423
| 31> H 	 7.91338 	 -25.1858 	 63.5441
| 32> C 	 8.31118 	 -27.2735 	 64.2141
| 33> H 	 8.58539 	 -26.7041 	 65.0665
| 34> H 	 9.24105 	 -27.4454 	 63.7633
| 35> C 	 7.59507 	 -28.6351 	 64.502
| 36> H 	 8.21662 	 -29.3426 	 65.0811
| 37> H 	 7.48507 	 -29.1628 	 63.5708
| 38> H 	 6.60418 	 -28.6465 	 64.9065
| 39> H 	 1.55525 	 -26.3645 	 61.1703
| 40> H 	 9.39793 	 -26.5909 	 59.2232
| 41> *
| 42>
| 43>                          ****END OF INPUT****

CARTESIAN COORDINATES (ANGSTROEM)
---------------------------------
  S      3.858430  -25.761000   60.580800
  C      2.574360  -26.602600   61.327200
  C      2.932590  -27.733400   62.071200
  C      4.336780  -27.823700   62.072400
  C      5.030880  -26.763100   61.487000
  H      4.995820  -28.624200   62.406800
  C      1.977850  -28.772500   62.578000
  H      1.011540  -28.357100   62.881000
  H      2.380820  -29.224700   63.404600
  C      1.817270  -29.876800   61.481600
  H      2.708320  -30.416900   61.266800
  H      1.239580  -30.669100   62.009000
  C      1.075480  -29.639900   60.115200
  H      0.793556  -30.593400   59.684500
  H      0.084750  -29.199400   60.375900
  H      1.657670  -29.072300   59.429300
  S      6.901850  -26.835400   59.478800
  C      8.570680  -26.521200   59.877800
  C      8.794490  -26.343300   61.272500
  C      7.521920  -26.384300   61.981700
  C      6.434230  -26.703000   61.198700
  H      9.767610  -26.149200   61.670900
  C      7.511680  -26.195200   63.426700
  H      6.568970  -26.301400   63.842300
  H      7.913380  -25.185800   63.544100
  C      8.311180  -27.273500   64.214100
  H      8.585390  -26.704100   65.066500
  H      9.241050  -27.445400   63.763300
  C      7.595070  -28.635100   64.502000
  H      8.216620  -29.342600   65.081100
  H      7.485070  -29.162800   63.570800
  H      6.604180  -28.646500   64.906500
  H      1.555250  -26.364500   61.170300
  H      9.397930  -26.590900   59.223200

 Total Charge           Charge          ....    0
 Multiplicity           Mult            ....    1
 Number of Electrons    NEL             ....  134
 Basis Dimension        Dim             ....  322

ORBITAL ENERGIES
----------------

  NO   OCC          E(Eh)            E(eV)
   0   2.0000     -88.965388     -2420.8713
   1   2.0000     -88.963217     -2420.8122
   2   2.0000     -10.324303      -280.9386
   3   2.0000     -10.320344      -280.8308
   4   2.0000     -10.318896      -280.7914
   5   2.0000     -10.308269      -280.5023
   6   2.0000     -10.298763      -280.2436
   7   2.0000     -10.298539      -280.2375
   8   2.0000     -10.296630      -280.1855
   9   2.0000     -10.294094      -280.1165
  10   2.0000     -10.292468      -280.0723
  11   2.0000     -10.288818      -279.9730
  12   2.0000     -10.282457      -279.7999
  13   2.0000     -10.279871      -279.7295
  14   2.0000     -10.279757      -279.7264
  15   2.0000     -10.279001      -279.7058
  16   2.0000      -8.080230      -219.8742
  17   2.0000      -8.077513      -219.8003
  18   2.0000      -6.038588      -164.3183
  19   2.0000      -6.036114      -164.2510
  20   2.0000      -6.034802      -164.2153
  21   2.0000      -6.032105      -164.1419
  22   2.0000      -6.031070      -164.1138
  23   2.0000      -6.028184      -164.0352
  24   2.0000      -1.003092       -27.2955
  25   2.0000      -0.979306       -26.6483
  26   2.0000      -0.911671       -24.8078
  27   2.0000      -0.908192       -24.7132
  28   2.0000      -0.865514       -23.5518
  29   2.0000      -0.848463       -23.0878
  30   2.0000      -0.844981       -22.9931
  31   2.0000      -0.811847       -22.0915
  32   2.0000      -0.787962       -21.4415
  33   2.0000      -0.775418       -21.1002
  34   2.0000      -0.714827       -19.4514
  35   2.0000      -0.701210       -19.0809
  36   2.0000      -0.694526       -18.8990
  37   2.0000      -0.660810       -17.9816
  38   2.0000      -0.646632       -17.5958
  39   2.0000      -0.616532       -16.7767
  40   2.0000      -0.599358       -16.3094
  41   2.0000      -0.570114       -15.5136
  42   2.0000      -0.558431       -15.1957
  43   2.0000      -0.548374       -14.9220
  44   2.0000      -0.538385       -14.6502
  45   2.0000      -0.530676       -14.4404
  46   2.0000      -0.519711       -14.1420
  47   2.0000      -0.511942       -13.9307
  48   2.0000      -0.498015       -13.5517
  49   2.0000      -0.494319       -13.4511
  50   2.0000      -0.489810       -13.3284
  51   2.0000      -0.477418       -12.9912
  52   2.0000      -0.471065       -12.8183
  53   2.0000      -0.465250       -12.6601
  54   2.0000      -0.460207       -12.5229
  55   2.0000      -0.447194       -12.1688
  56   2.0000      -0.445379       -12.1194
  57   2.0000      -0.444619       -12.0987
  58   2.0000      -0.434892       -11.8340
  59   2.0000      -0.429053       -11.6751
  60   2.0000      -0.425349       -11.5743
  61   2.0000      -0.414976       -11.2921
  62   2.0000      -0.408032       -11.1031
  63   2.0000      -0.340405        -9.2629
  64   2.0000      -0.327337        -8.9073
  65   2.0000      -0.322062        -8.7637
  66   2.0000      -0.291010        -7.9188
  67   0.0000       0.035422         0.9639
  68   0.0000       0.056259         1.5309
  69   0.0000       0.113108         3.0778
  70   0.0000       0.124914         3.3991
  71   0.0000       0.128411         3.4942

MULLIKEN ATOMIC CHARGES
-----------------------
   0 S :    0.116654
   1 C :   -0.099977
   2 C :   -0.083644
   3 C :    0.015724
   4 C :   -0.174747
   5 H :    0.012278
   6 C :    0.161204
   7 H :    0.024272
   8 H :   -0.001968
   9 C :   -0.118107
  10 H :    0.021944
  11 H :    0.020775
  12 C :   -0.031166
  13 H :    0.030766
  14 H :    0.024356
  15 H :    0.048065
  16 S :    0.101372
  17 C :   -0.070973
  18 C :   -0.042836
  19 C :   -0.038214
  20 C :   -0.174837
  21 H :    0.017894
  22 C :    0.090810
  23 H :    0.004156
  24 H :    0.036054
  25 C :   -0.032594
  26 H :    0.014531
  27 H :    0.004942
  28 C :   -0.047647
  29 H :    0.036420
  30 H :    0.027675
  31 H :    0.033235
  32 H :    0.029381
  33 H :    0.044205
Sum of atomic charges:    0.0000000

LOEWDIN ATOMIC CHARGES
----------------------
   0 S :    0.410651
   1 C :   -0.196539
   2 C :   -0.067856
   3 C :   -0.053367
   4 C :   -0.196104
   5 H :    0.031945
   6 C :   -0.017284
   7 H :    0.033908
   8 H :    0.021796
   9 C :   -0.039580
  10 H :    0.018274
  11 H :    0.024492
  12 C :   -0.061141
  13 H :    0.028626
  14 H :    0.027115
  15 H :    0.021186
  16 S :    0.387452
  17 C :   -0.174208
  18 C :   -0.068074
  19 C :   -0.049414
  20 C :   -0.203029
  21 H :    0.027304
  22 C :   -0.025275
  23 H :    0.020653
  24 H :    0.039280
  25 C :   -0.025738
  26 H :    0.021104
  27 H :    0.013983
  28 C :   -0.067375
  29 H :    0.033044
  30 H :    0.025237
  31 H :    0.021857
  32 H :    0.016877
  33 H :    0.020202

  Mayer bond orders larger than 0.100000
B(  0-S ,  1-C ) :   1.1724 B(  0-S ,  4-C ) :   1.1338 B(  1-C ,  2-C ) :   1.5731
B(  1-C ,  4-C ) :   0.1021 B(  1-C , 32-H ) :   0.9664 B(  2-C ,  3-C ) :   1.2520
B(  2-C ,  6-C ) :   1.0434 B(  3-C ,  4-C ) :   1.5716 B(  3-C ,  5-H ) :   0.9873
B(  4-C , 20-C ) :   1.0610 B(  6-C ,  7-H ) :   0.9376 B(  6-C ,  8-H ) :   0.9217
B(  6-C ,  9-C ) :   1.0689 B(  9-C , 10-H ) :   0.9580 B(  9-C , 11-H ) :   0.9566
B(  9-C , 12-C ) :   1.0749 B( 12-C , 13-H ) :   0.9724 B( 12-C , 14-H ) :   0.9748
B( 12-C , 15-H ) :   0.9771 B( 16-S , 17-C ) :   1.1608 B( 16-S , 20-C ) :   1.1047
B( 17-C , 18-C ) :   1.6183 B( 17-C , 33-H ) :   0.9682 B( 18-C , 19-C ) :   1.2042
B( 18-C , 21-H ) :   0.9905 B( 19-C , 20-C ) :   1.6239 B( 19-C , 22-C ) :   1.0725
B( 22-C , 23-H ) :   0.9283 B( 22-C , 24-H ) :   0.9231 B( 22-C , 25-C ) :   1.0642
B( 25-C , 26-H ) :   0.9546 B( 25-C , 27-H ) :   0.9572 B( 25-C , 28-C ) :   1.0646
B( 28-C , 29-H ) :   0.9723 B( 28-C , 30-H ) :   0.9722 B( 28-C , 31-H ) :   0.9769

Dispersion correction           -0.015027872
FINAL SINGLE POINT ENERGY     -1339.859975518322

DIPOLE MOMENT
-------------
                                X             Y             Z
Electronic contribution:      5.13141      15.93034     -14.86907
Nuclear contribution   :     -5.09931     -16.39176      15.27342
                        -----------------------------------------
Total Dipole Moment    :      0.03210      -0.46142       0.40435
                        -----------------------------------------
Magnitude (a.u.)       :      0.61436
Magnitude (Debye)      :      1.56158

Rotational constants in cm-1:     0.020365     0.008628     0.007186
Rotational constants in MHz :   610.535526   258.664965   215.443595

                             ****ORCA TERMINATED NORMALLY****
TOTAL RUN TIME: 0 days 0 hours 0 minutes 35 seconds 658 msec
