                         Program Version 4.2.1 -  RELEASE  -
|  1> ! wB97X-D3 SP def2-SVP
|  2> %pal
|  3> nprocs 16
|  4> end
|  5>
|  6> * xyz 0 1
|  7> S 	 -28.7018 	 60.0343 	 108.992
|  8> C 	 -27.4017 	 60.3234 	 107.879
|  9> C 	 -27.7597 	 60.021 	 106.548
| 10> C 	 -29.1514 	 59.6417 	 106.475
| 11> C 	 -29.82 	 59.6117 	 107.703
| 12> H 	 -29.7191 	 59.4076 	 105.619
| 13> C 	 -26.7742 	 59.965 	 105.364
| 14> H 	 -26.4336 	 58.9236 	 105.073
| 15> H 	 -25.8906 	 60.5636 	 105.612
| 16> C 	 -27.3097 	 60.6431 	 104.164
| 17> H 	 -28.2922 	 60.1162 	 103.872
| 18> H 	 -27.5588 	 61.6464 	 104.628
| 19> C 	 -26.2787 	 60.8749 	 103.047
| 20> H 	 -25.2555 	 61.1497 	 103.396
| 21> H 	 -26.1384 	 59.8944 	 102.57
| 22> H 	 -26.6658 	 61.6642 	 102.311
| 23> S 	 -32.2988 	 59.1717 	 106.433
| 24> C 	 -33.6963 	 59.1158 	 107.391
| 25> C 	 -33.4884 	 59.4319 	 108.69
| 26> C 	 -32.1059 	 59.5911 	 108.999
| 27> C 	 -31.2667 	 59.4993 	 107.862
| 28> H 	 -34.2283 	 59.3664 	 109.443
| 29> C 	 -31.6786 	 59.8971 	 110.385
| 30> H 	 -32.5413 	 60.4294 	 110.933
| 31> H 	 -30.8929 	 60.6311 	 110.369
| 32> C 	 -31.2892 	 58.6046 	 111.159
| 33> H 	 -30.3859 	 58.0773 	 110.861
| 34> H 	 -32.1128 	 57.8119 	 111.147
| 35> C 	 -31.1373 	 58.8358 	 112.657
| 36> H 	 -32.1294 	 58.779 	 113.038
| 37> H 	 -30.7102 	 59.8089 	 112.922
| 38> H 	 -30.6256 	 58.0247 	 113.108
| 39> H 	 -26.4362 	 60.6118 	 108.233
| 40> H 	 -34.6441 	 58.9967 	 107.011
| 41> *
| 42>
| 43>                          ****END OF INPUT****

CARTESIAN COORDINATES (ANGSTROEM)
---------------------------------
  S    -28.701800   60.034300  108.992000
  C    -27.401700   60.323400  107.879000
  C    -27.759700   60.021000  106.548000
  C    -29.151400   59.641700  106.475000
  C    -29.820000   59.611700  107.703000
  H    -29.719100   59.407600  105.619000
  C    -26.774200   59.965000  105.364000
  H    -26.433600   58.923600  105.073000
  H    -25.890600   60.563600  105.612000
  C    -27.309700   60.643100  104.164000
  H    -28.292200   60.116200  103.872000
  H    -27.558800   61.646400  104.628000
  C    -26.278700   60.874900  103.047000
  H    -25.255500   61.149700  103.396000
  H    -26.138400   59.894400  102.570000
  H    -26.665800   61.664200  102.311000
  S    -32.298800   59.171700  106.433000
  C    -33.696300   59.115800  107.391000
  C    -33.488400   59.431900  108.690000
  C    -32.105900   59.591100  108.999000
  C    -31.266700   59.499300  107.862000
  H    -34.228300   59.366400  109.443000
  C    -31.678600   59.897100  110.385000
  H    -32.541300   60.429400  110.933000
  H    -30.892900   60.631100  110.369000
  C    -31.289200   58.604600  111.159000
  H    -30.385900   58.077300  110.861000
  H    -32.112800   57.811900  111.147000
  C    -31.137300   58.835800  112.657000
  H    -32.129400   58.779000  113.038000
  H    -30.710200   59.808900  112.922000
  H    -30.625600   58.024700  113.108000
  H    -26.436200   60.611800  108.233000
  H    -34.644100   58.996700  107.011000

 Total Charge           Charge          ....    0
 Multiplicity           Mult            ....    1
 Number of Electrons    NEL             ....  134
 Basis Dimension        Dim             ....  322

ORBITAL ENERGIES
----------------

  NO   OCC          E(Eh)            E(eV)
   0   2.0000     -88.970557     -2421.0119
   1   2.0000     -88.967310     -2420.9236
   2   2.0000     -10.334412      -281.2136
   3   2.0000     -10.332844      -281.1710
   4   2.0000     -10.316695      -280.7315
   5   2.0000     -10.310175      -280.5541
   6   2.0000     -10.308175      -280.4997
   7   2.0000     -10.302305      -280.3400
   8   2.0000     -10.297294      -280.2036
   9   2.0000     -10.295248      -280.1479
  10   2.0000     -10.293444      -280.0988
  11   2.0000     -10.290633      -280.0224
  12   2.0000     -10.289956      -280.0039
  13   2.0000     -10.288927      -279.9759
  14   2.0000     -10.286540      -279.9110
  15   2.0000     -10.266963      -279.3783
  16   2.0000      -8.084605      -219.9933
  17   2.0000      -8.082242      -219.9290
  18   2.0000      -6.043214      -164.4442
  19   2.0000      -6.040835      -164.3795
  20   2.0000      -6.039076      -164.3316
  21   2.0000      -6.036777      -164.2691
  22   2.0000      -6.035444      -164.2328
  23   2.0000      -6.032890      -164.1633
  24   2.0000      -1.006465       -27.3873
  25   2.0000      -0.985354       -26.8128
  26   2.0000      -0.917540       -24.9675
  27   2.0000      -0.910617       -24.7792
  28   2.0000      -0.871983       -23.7279
  29   2.0000      -0.857809       -23.3422
  30   2.0000      -0.844120       -22.9697
  31   2.0000      -0.813532       -22.1373
  32   2.0000      -0.782775       -21.3004
  33   2.0000      -0.771083       -20.9822
  34   2.0000      -0.706945       -19.2370
  35   2.0000      -0.692202       -18.8358
  36   2.0000      -0.681143       -18.5348
  37   2.0000      -0.672335       -18.2952
  38   2.0000      -0.638429       -17.3725
  39   2.0000      -0.619161       -16.8482
  40   2.0000      -0.603699       -16.4275
  41   2.0000      -0.574733       -15.6393
  42   2.0000      -0.566281       -15.4093
  43   2.0000      -0.561790       -15.2871
  44   2.0000      -0.532215       -14.4823
  45   2.0000      -0.520359       -14.1597
  46   2.0000      -0.516921       -14.0661
  47   2.0000      -0.512867       -13.9558
  48   2.0000      -0.508974       -13.8499
  49   2.0000      -0.498162       -13.5557
  50   2.0000      -0.493895       -13.4396
  51   2.0000      -0.478484       -13.0202
  52   2.0000      -0.477758       -13.0005
  53   2.0000      -0.467774       -12.7288
  54   2.0000      -0.462609       -12.5882
  55   2.0000      -0.451622       -12.2893
  56   2.0000      -0.440822       -11.9954
  57   2.0000      -0.436778       -11.8853
  58   2.0000      -0.426501       -11.6057
  59   2.0000      -0.423109       -11.5134
  60   2.0000      -0.417228       -11.3533
  61   2.0000      -0.410298       -11.1648
  62   2.0000      -0.406522       -11.0620
  63   2.0000      -0.366777        -9.9805
  64   2.0000      -0.333143        -9.0653
  65   2.0000      -0.330640        -8.9972
  66   2.0000      -0.277218        -7.5435
  67   0.0000       0.017968         0.4889
  68   0.0000       0.085540         2.3277
  69   0.0000       0.108716         2.9583
  70   0.0000       0.118003         3.2110
  71   0.0000       0.125345         3.4108

MULLIKEN ATOMIC CHARGES
-----------------------
   0 S :    0.096891
   1 C :   -0.116128
   2 C :   -0.060176
   3 C :   -0.023844
   4 C :   -0.093998
   5 H :    0.002408
   6 C :    0.080044
   7 H :    0.047121
   8 H :    0.010366
   9 C :   -0.163073
  10 H :    0.051643
  11 H :    0.037564
  12 C :   -0.046008
  13 H :    0.034212
  14 H :    0.031481
  15 H :    0.059760
  16 S :    0.085943
  17 C :   -0.030644
  18 C :   -0.003438
  19 C :   -0.076008
  20 C :   -0.110833
  21 H :    0.002328
  22 C :    0.022616
  23 H :    0.036161
  24 H :    0.032283
  25 C :   -0.099274
  26 H :    0.035191
  27 H :    0.032972
  28 C :   -0.016112
  29 H :    0.015612
  30 H :    0.032048
  31 H :    0.024316
  32 H :    0.042659
  33 H :    0.025917
Sum of atomic charges:   -0.0000000

LOEWDIN ATOMIC CHARGES
----------------------
   0 S :    0.424552
   1 C :   -0.198504
   2 C :   -0.054387
   3 C :   -0.069555
   4 C :   -0.181334
   5 H :    0.014602
   6 C :   -0.037325
   7 H :    0.033197
   8 H :    0.027949
   9 C :   -0.061046
  10 H :    0.030375
  11 H :    0.029995
  12 C :   -0.073724
  13 H :    0.028233
  14 H :    0.026248
  15 H :    0.039679
  16 S :    0.411806
  17 C :   -0.178872
  18 C :   -0.067451
  19 C :   -0.053724
  20 C :   -0.182463
  21 H :    0.025979
  22 C :   -0.041312
  23 H :    0.041912
  24 H :    0.017014
  25 C :   -0.043341
  26 H :    0.019791
  27 H :    0.031712
  28 C :   -0.062497
  29 H :    0.019272
  30 H :    0.023566
  31 H :    0.022231
  32 H :    0.022147
  33 H :    0.015273

  Mayer bond orders larger than 0.100000
B(  0-S ,  1-C ) :   1.1496 B(  0-S ,  4-C ) :   1.1430 B(  1-C ,  2-C ) :   1.5845
B(  1-C , 32-H ) :   0.9728 B(  2-C ,  3-C ) :   1.2474 B(  2-C ,  6-C ) :   1.0258
B(  3-C ,  4-C ) :   1.5467 B(  3-C ,  5-H ) :   0.9916 B(  4-C , 20-C ) :   1.1106
B(  6-C ,  7-H ) :   0.9378 B(  6-C ,  8-H ) :   0.9402 B(  6-C ,  9-C ) :   1.0501
B(  9-C , 10-H ) :   0.9506 B(  9-C , 11-H ) :   0.9600 B(  9-C , 12-C ) :   1.0748
B( 12-C , 13-H ) :   0.9710 B( 12-C , 14-H ) :   0.9712 B( 12-C , 15-H ) :   0.9747
B( 16-S , 17-C ) :   1.1675 B( 16-S , 20-C ) :   1.1219 B( 17-C , 18-C ) :   1.5988
B( 17-C , 33-H ) :   0.9703 B( 18-C , 19-C ) :   1.2676 B( 18-C , 21-H ) :   0.9924
B( 19-C , 20-C ) :   1.5499 B( 19-C , 22-C ) :   1.0521 B( 22-C , 23-H ) :   0.9398
B( 22-C , 24-H ) :   0.9271 B( 22-C , 25-C ) :   1.0441 B( 25-C , 26-H ) :   0.9614
B( 25-C , 27-H ) :   0.9648 B( 25-C , 28-C ) :   1.0756 B( 28-C , 29-H ) :   0.9808
B( 28-C , 30-H ) :   0.9730 B( 28-C , 31-H ) :   0.9736

Dispersion correction           -0.013652219
FINAL SINGLE POINT ENERGY     -1339.875071907214

DIPOLE MOMENT
-------------
                                X             Y             Z
Electronic contribution:     -9.61257      -1.33830      -0.79367
Nuclear contribution   :      9.63427       1.35073       0.86894
                        -----------------------------------------
Total Dipole Moment    :      0.02169       0.01243       0.07527
                        -----------------------------------------
Magnitude (a.u.)       :      0.07931
Magnitude (Debye)      :      0.20159

Rotational constants in cm-1:     0.022291     0.007803     0.005932
Rotational constants in MHz :   668.256262   233.916904   177.837360

                             ****ORCA TERMINATED NORMALLY****
TOTAL RUN TIME: 0 days 0 hours 0 minutes 29 seconds 157 msec
