                         Program Version 4.2.1 -  RELEASE  -
|  1> ! wB97X-D3 SP def2-SVP
|  2> %pal
|  3> nprocs 16
|  4> end
|  5>
|  6> * xyz 0 1
|  7> S 	 39.7459 	 25.4951 	 95.6514
|  8> C 	 39.1132 	 26.6378 	 94.5214
|  9> C 	 38.7516 	 26.0439 	 93.3476
| 10> C 	 39.0271 	 24.6266 	 93.3685
| 11> C 	 39.6634 	 24.2223 	 94.5383
| 12> H 	 38.7414 	 23.9329 	 92.5618
| 13> C 	 38.1343 	 26.8111 	 92.2454
| 14> H 	 37.1444 	 27.2356 	 92.6458
| 15> H 	 37.7584 	 26.1443 	 91.4206
| 16> C 	 39.0172 	 27.8095 	 91.5133
| 17> H 	 39.943 	 27.2334 	 91.339
| 18> H 	 38.4959 	 28.0589 	 90.5905
| 19> C 	 39.1166 	 29.1309 	 92.244
| 20> H 	 39.3807 	 29.8867 	 91.568
| 21> H 	 38.1688 	 29.4581 	 92.7396
| 22> H 	 39.8307 	 29.1246 	 93.0049
| 23> S 	 39.1599 	 21.9854 	 96.0412
| 24> C 	 40.0487 	 20.5412 	 95.8914
| 25> C 	 40.8461 	 20.5898 	 94.7544
| 26> C 	 40.8884 	 21.8426 	 94.0899
| 27> C 	 40.1191 	 22.7914 	 94.7744
| 28> H 	 41.386 	 19.7302 	 94.4454
| 29> C 	 41.6463 	 22.0422 	 92.7795
| 30> H 	 41.4438 	 23.1093 	 92.56
| 31> H 	 41.2478 	 21.3525 	 92.024
| 32> C 	 43.158 	 21.7284 	 92.754
| 33> H 	 43.4621 	 21.9074 	 91.8083
| 34> H 	 43.4306 	 20.6995 	 92.8576
| 35> C 	 43.9209 	 22.552 	 93.8312
| 36> H 	 43.8919 	 22.1275 	 94.7972
| 37> H 	 43.4257 	 23.5813 	 94.0252
| 38> H 	 45.0407 	 22.7156 	 93.615
| 39> H 	 38.8667 	 27.6755 	 94.7902
| 40> H 	 39.9355 	 19.6682 	 96.588
| 41> *
| 42>
| 43>                          ****END OF INPUT****

CARTESIAN COORDINATES (ANGSTROEM)
---------------------------------
  S     39.745900   25.495100   95.651400
  C     39.113200   26.637800   94.521400
  C     38.751600   26.043900   93.347600
  C     39.027100   24.626600   93.368500
  C     39.663400   24.222300   94.538300
  H     38.741400   23.932900   92.561800
  C     38.134300   26.811100   92.245400
  H     37.144400   27.235600   92.645800
  H     37.758400   26.144300   91.420600
  C     39.017200   27.809500   91.513300
  H     39.943000   27.233400   91.339000
  H     38.495900   28.058900   90.590500
  C     39.116600   29.130900   92.244000
  H     39.380700   29.886700   91.568000
  H     38.168800   29.458100   92.739600
  H     39.830700   29.124600   93.004900
  S     39.159900   21.985400   96.041200
  C     40.048700   20.541200   95.891400
  C     40.846100   20.589800   94.754400
  C     40.888400   21.842600   94.089900
  C     40.119100   22.791400   94.774400
  H     41.386000   19.730200   94.445400
  C     41.646300   22.042200   92.779500
  H     41.443800   23.109300   92.560000
  H     41.247800   21.352500   92.024000
  C     43.158000   21.728400   92.754000
  H     43.462100   21.907400   91.808300
  H     43.430600   20.699500   92.857600
  C     43.920900   22.552000   93.831200
  H     43.891900   22.127500   94.797200
  H     43.425700   23.581300   94.025200
  H     45.040700   22.715600   93.615000
  H     38.866700   27.675500   94.790200
  H     39.935500   19.668200   96.588000

 Total Charge           Charge          ....    0
 Multiplicity           Mult            ....    1
 Number of Electrons    NEL             ....  134
 Basis Dimension        Dim             ....  322

ORBITAL ENERGIES
----------------

  NO   OCC          E(Eh)            E(eV)
   0   2.0000     -88.967437     -2420.9270
   1   2.0000     -88.960789     -2420.7461
   2   2.0000     -10.332293      -281.1560
   3   2.0000     -10.329987      -281.0932
   4   2.0000     -10.317605      -280.7563
   5   2.0000     -10.310026      -280.5501
   6   2.0000     -10.305915      -280.4382
   7   2.0000     -10.296559      -280.1836
   8   2.0000     -10.296259      -280.1754
   9   2.0000     -10.296209      -280.1741
  10   2.0000     -10.293145      -280.0907
  11   2.0000     -10.287975      -279.9500
  12   2.0000     -10.286960      -279.9224
  13   2.0000     -10.280591      -279.7491
  14   2.0000     -10.279270      -279.7132
  15   2.0000     -10.269932      -279.4591
  16   2.0000      -8.083393      -219.9603
  17   2.0000      -8.076187      -219.7642
  18   2.0000      -6.041801      -164.4058
  19   2.0000      -6.037569      -164.2906
  20   2.0000      -6.034562      -164.2088
  21   2.0000      -6.034354      -164.2031
  22   2.0000      -6.030587      -164.1006
  23   2.0000      -6.027058      -164.0046
  24   2.0000      -1.009526       -27.4706
  25   2.0000      -0.988733       -26.9048
  26   2.0000      -0.918486       -24.9933
  27   2.0000      -0.907204       -24.6863
  28   2.0000      -0.864119       -23.5139
  29   2.0000      -0.850763       -23.1504
  30   2.0000      -0.844134       -22.9700
  31   2.0000      -0.808655       -22.0046
  32   2.0000      -0.784550       -21.3487
  33   2.0000      -0.773849       -21.0575
  34   2.0000      -0.711876       -19.3711
  35   2.0000      -0.699510       -19.0346
  36   2.0000      -0.687996       -18.7213
  37   2.0000      -0.657103       -17.8807
  38   2.0000      -0.639880       -17.4120
  39   2.0000      -0.612977       -16.6800
  40   2.0000      -0.591618       -16.0987
  41   2.0000      -0.578531       -15.7426
  42   2.0000      -0.553707       -15.0671
  43   2.0000      -0.549584       -14.9549
  44   2.0000      -0.540374       -14.7043
  45   2.0000      -0.534578       -14.5466
  46   2.0000      -0.517534       -14.0828
  47   2.0000      -0.512984       -13.9590
  48   2.0000      -0.502201       -13.6656
  49   2.0000      -0.495146       -13.4736
  50   2.0000      -0.486297       -13.2328
  51   2.0000      -0.482414       -13.1271
  52   2.0000      -0.471636       -12.8339
  53   2.0000      -0.465822       -12.6757
  54   2.0000      -0.453927       -12.3520
  55   2.0000      -0.448675       -12.2091
  56   2.0000      -0.444159       -12.0862
  57   2.0000      -0.436724       -11.8839
  58   2.0000      -0.429647       -11.6913
  59   2.0000      -0.424139       -11.5414
  60   2.0000      -0.423610       -11.5270
  61   2.0000      -0.414514       -11.2795
  62   2.0000      -0.407432       -11.0868
  63   2.0000      -0.335283        -9.1235
  64   2.0000      -0.331000        -9.0070
  65   2.0000      -0.325814        -8.8659
  66   2.0000      -0.301620        -8.2075
  67   0.0000       0.035964         0.9786
  68   0.0000       0.069779         1.8988
  69   0.0000       0.111120         3.0237
  70   0.0000       0.118834         3.2336
  71   0.0000       0.137292         3.7359

MULLIKEN ATOMIC CHARGES
-----------------------
   0 S :    0.135031
   1 C :   -0.137028
   2 C :   -0.079886
   3 C :    0.032948
   4 C :   -0.159913
   5 H :    0.024175
   6 C :   -0.012292
   7 H :    0.043535
   8 H :    0.020116
   9 C :   -0.043619
  10 H :    0.043843
  11 H :    0.028722
  12 C :   -0.020248
  13 H :    0.020808
  14 H :    0.025126
  15 H :    0.020901
  16 S :    0.098071
  17 C :   -0.100668
  18 C :   -0.040888
  19 C :   -0.015015
  20 C :   -0.183457
  21 H :    0.002418
  22 C :    0.044111
  23 H :    0.037062
  24 H :    0.038805
  25 C :    0.008623
  26 H :   -0.000165
  27 H :    0.017357
  28 C :   -0.100716
  29 H :    0.031647
  30 H :    0.040454
  31 H :    0.044763
  32 H :    0.057283
  33 H :    0.078093
Sum of atomic charges:   -0.0000000

LOEWDIN ATOMIC CHARGES
----------------------
   0 S :    0.446189
   1 C :   -0.208218
   2 C :   -0.072572
   3 C :   -0.064804
   4 C :   -0.227632
   5 H :    0.035902
   6 C :   -0.047330
   7 H :    0.037124
   8 H :    0.032224
   9 C :   -0.035869
  10 H :    0.034281
  11 H :    0.026717
  12 C :   -0.062471
  13 H :    0.020416
  14 H :    0.029879
  15 H :    0.015142
  16 S :    0.412685
  17 C :   -0.204263
  18 C :   -0.075772
  19 C :   -0.056857
  20 C :   -0.188363
  21 H :    0.023526
  22 C :   -0.026327
  23 H :    0.035100
  24 H :    0.037205
  25 C :   -0.033093
  26 H :    0.011658
  27 H :    0.022208
  28 C :   -0.077257
  29 H :    0.018826
  30 H :    0.034823
  31 H :    0.032884
  32 H :    0.032904
  33 H :    0.041137

  Mayer bond orders larger than 0.100000
B(  0-S ,  1-C ) :   1.1497 B(  0-S ,  4-C ) :   1.1898 B(  1-C ,  2-C ) :   1.5962
B(  1-C , 32-H ) :   0.9604 B(  2-C ,  3-C ) :   1.2681 B(  2-C ,  6-C ) :   1.0280
B(  3-C ,  4-C ) :   1.5323 B(  3-C ,  5-H ) :   0.9953 B(  4-C , 20-C ) :   0.9781
B(  6-C ,  7-H ) :   0.9378 B(  6-C ,  8-H ) :   0.9421 B(  6-C ,  9-C ) :   1.0724
B(  9-C , 10-H ) :   0.9505 B(  9-C , 11-H ) :   0.9562 B(  9-C , 12-C ) :   1.0807
B( 12-C , 13-H ) :   0.9711 B( 12-C , 14-H ) :   0.9726 B( 12-C , 15-H ) :   0.9704
B( 16-S , 17-C ) :   1.1712 B( 16-S , 20-C ) :   1.1669 B( 17-C , 18-C ) :   1.5779
B( 17-C , 20-C ) :   0.1033 B( 17-C , 33-H ) :   0.9635 B( 18-C , 19-C ) :   1.2473
B( 18-C , 21-H ) :   0.9988 B( 19-C , 20-C ) :   1.5870 B( 19-C , 22-C ) :   1.0367
B( 22-C , 23-H ) :   0.9359 B( 22-C , 24-H ) :   0.9337 B( 22-C , 25-C ) :   1.0849
B( 25-C , 26-H ) :   0.9523 B( 25-C , 27-H ) :   0.9499 B( 25-C , 28-C ) :   1.0558
B( 28-C , 29-H ) :   0.9742 B( 28-C , 30-H ) :   0.9782 B( 28-C , 31-H ) :   0.9768

Dispersion correction           -0.014461779
FINAL SINGLE POINT ENERGY     -1339.867153138974

DIPOLE MOMENT
-------------
                                X             Y             Z
Electronic contribution:     -9.68382     -10.19363      19.34276
Nuclear contribution   :      9.69557      10.16189     -19.95360
                        -----------------------------------------
Total Dipole Moment    :      0.01175      -0.03174      -0.61084
                        -----------------------------------------
Magnitude (a.u.)       :      0.61178
Magnitude (Debye)      :      1.55502

Rotational constants in cm-1:     0.021454     0.007824     0.006589
Rotational constants in MHz :   643.185087   234.557109   197.524156

                             ****ORCA TERMINATED NORMALLY****
TOTAL RUN TIME: 0 days 0 hours 0 minutes 29 seconds 722 msec
