                         Program Version 4.2.1 -  RELEASE  -
|  1> ! wB97X-D3 SP def2-SVP
|  2> %pal
|  3> nprocs 16
|  4> end
|  5>
|  6> * xyz 0 1
|  7> S 	 -40.2914 	 32.1976 	 83.5677
|  8> C 	 -38.8225 	 32.8353 	 83.031
|  9> C 	 -38.5553 	 32.4599 	 81.7587
| 10> C 	 -39.5539 	 31.5214 	 81.2481
| 11> C 	 -40.6667 	 31.3334 	 82.0642
| 12> H 	 -39.6598 	 31.0802 	 80.2186
| 13> C 	 -37.3917 	 32.978 	 80.876
| 14> H 	 -36.9129 	 32.0817 	 80.4253
| 15> H 	 -36.629 	 33.3923 	 81.5115
| 16> C 	 -37.6069 	 33.9788 	 79.6355
| 17> H 	 -38.4144 	 33.614 	 78.9779
| 18> H 	 -38.0412 	 34.9031 	 80.0172
| 19> C 	 -36.3457 	 34.3497 	 78.8012
| 20> H 	 -36.5458 	 34.8521 	 77.8584
| 21> H 	 -35.4518 	 34.8675 	 79.2642
| 22> H 	 -35.8728 	 33.4347 	 78.5986
| 23> S 	 -41.7047 	 28.9285 	 82.8525
| 24> C 	 -43.1386 	 28.3053 	 82.1204
| 25> C 	 -43.4953 	 29.0757 	 81.0377
| 26> C 	 -42.8167 	 30.3149 	 80.8833
| 27> C 	 -41.8114 	 30.4346 	 81.8574
| 28> H 	 -44.4951 	 28.888 	 80.5628
| 29> C 	 -43.2491 	 31.295 	 79.8055
| 30> H 	 -42.7714 	 32.2178 	 80.121
| 31> H 	 -44.2892 	 31.5152 	 79.9279
| 32> C 	 -42.9492 	 31.0834 	 78.3599
| 33> H 	 -43.5009 	 31.8367 	 77.8115
| 34> H 	 -43.2903 	 30.1724 	 77.9911
| 35> C 	 -41.4633 	 31.2836 	 77.9842
| 36> H 	 -41.2043 	 32.2737 	 78.3284
| 37> H 	 -41.2317 	 31.373 	 76.8672
| 38> H 	 -40.7839 	 30.5812 	 78.4565
| 39> H 	 -38.1662 	 33.4997 	 83.6091
| 40> H 	 -43.6162 	 27.448 	 82.4109
| 41> *
| 42>
| 43>                          ****END OF INPUT****

CARTESIAN COORDINATES (ANGSTROEM)
---------------------------------
  S    -40.291400   32.197600   83.567700
  C    -38.822500   32.835300   83.031000
  C    -38.555300   32.459900   81.758700
  C    -39.553900   31.521400   81.248100
  C    -40.666700   31.333400   82.064200
  H    -39.659800   31.080200   80.218600
  C    -37.391700   32.978000   80.876000
  H    -36.912900   32.081700   80.425300
  H    -36.629000   33.392300   81.511500
  C    -37.606900   33.978800   79.635500
  H    -38.414400   33.614000   78.977900
  H    -38.041200   34.903100   80.017200
  C    -36.345700   34.349700   78.801200
  H    -36.545800   34.852100   77.858400
  H    -35.451800   34.867500   79.264200
  H    -35.872800   33.434700   78.598600
  S    -41.704700   28.928500   82.852500
  C    -43.138600   28.305300   82.120400
  C    -43.495300   29.075700   81.037700
  C    -42.816700   30.314900   80.883300
  C    -41.811400   30.434600   81.857400
  H    -44.495100   28.888000   80.562800
  C    -43.249100   31.295000   79.805500
  H    -42.771400   32.217800   80.121000
  H    -44.289200   31.515200   79.927900
  C    -42.949200   31.083400   78.359900
  H    -43.500900   31.836700   77.811500
  H    -43.290300   30.172400   77.991100
  C    -41.463300   31.283600   77.984200
  H    -41.204300   32.273700   78.328400
  H    -41.231700   31.373000   76.867200
  H    -40.783900   30.581200   78.456500
  H    -38.166200   33.499700   83.609100
  H    -43.616200   27.448000   82.410900

 Total Charge           Charge          ....    0
 Multiplicity           Mult            ....    1
 Number of Electrons    NEL             ....  134
 Basis Dimension        Dim             ....  322

ORBITAL ENERGIES
----------------

  NO   OCC          E(Eh)            E(eV)
   0   2.0000     -88.964355     -2420.8432
   1   2.0000     -88.961795     -2420.7735
   2   2.0000     -10.336237      -281.2633
   3   2.0000     -10.332039      -281.1491
   4   2.0000     -10.313673      -280.6493
   5   2.0000     -10.313048      -280.6323
   6   2.0000     -10.310701      -280.5684
   7   2.0000     -10.305055      -280.4148
   8   2.0000     -10.300890      -280.3015
   9   2.0000     -10.300053      -280.2787
  10   2.0000     -10.296517      -280.1825
  11   2.0000     -10.293445      -280.0989
  12   2.0000     -10.289976      -280.0045
  13   2.0000     -10.283590      -279.8307
  14   2.0000     -10.282633      -279.8047
  15   2.0000     -10.281909      -279.7850
  16   2.0000      -8.078941      -219.8392
  17   2.0000      -8.077488      -219.7996
  18   2.0000      -6.037389      -164.2857
  19   2.0000      -6.035979      -164.2473
  20   2.0000      -6.033478      -164.1793
  21   2.0000      -6.031668      -164.1300
  22   2.0000      -6.029731      -164.0773
  23   2.0000      -6.028365      -164.0401
  24   2.0000      -1.005549       -27.3624
  25   2.0000      -0.986583       -26.8463
  26   2.0000      -0.917382       -24.9632
  27   2.0000      -0.896042       -24.3825
  28   2.0000      -0.871194       -23.7064
  29   2.0000      -0.851983       -23.1836
  30   2.0000      -0.843257       -22.9462
  31   2.0000      -0.812872       -22.1194
  32   2.0000      -0.785825       -21.3834
  33   2.0000      -0.774017       -21.0621
  34   2.0000      -0.714093       -19.4315
  35   2.0000      -0.704459       -19.1693
  36   2.0000      -0.698275       -19.0010
  37   2.0000      -0.657555       -17.8930
  38   2.0000      -0.644281       -17.5318
  39   2.0000      -0.613323       -16.6894
  40   2.0000      -0.601328       -16.3630
  41   2.0000      -0.566309       -15.4101
  42   2.0000      -0.557653       -15.1745
  43   2.0000      -0.547652       -14.9024
  44   2.0000      -0.545470       -14.8430
  45   2.0000      -0.523345       -14.2409
  46   2.0000      -0.519853       -14.1459
  47   2.0000      -0.509683       -13.8692
  48   2.0000      -0.503612       -13.7040
  49   2.0000      -0.502878       -13.6840
  50   2.0000      -0.490870       -13.3573
  51   2.0000      -0.477966       -13.0061
  52   2.0000      -0.472743       -12.8640
  53   2.0000      -0.463548       -12.6138
  54   2.0000      -0.459440       -12.5020
  55   2.0000      -0.447859       -12.1869
  56   2.0000      -0.444165       -12.0864
  57   2.0000      -0.436106       -11.8671
  58   2.0000      -0.433129       -11.7860
  59   2.0000      -0.425655       -11.5827
  60   2.0000      -0.420833       -11.4515
  61   2.0000      -0.417000       -11.3471
  62   2.0000      -0.409285       -11.1372
  63   2.0000      -0.341131        -9.2826
  64   2.0000      -0.332534        -9.0487
  65   2.0000      -0.322131        -8.7656
  66   2.0000      -0.306972        -8.3531
  67   0.0000       0.032069         0.8726
  68   0.0000       0.063946         1.7401
  69   0.0000       0.113167         3.0794
  70   0.0000       0.122827         3.3423
  71   0.0000       0.124984         3.4010

MULLIKEN ATOMIC CHARGES
-----------------------
   0 S :    0.105665
   1 C :   -0.107664
   2 C :   -0.090449
   3 C :    0.043239
   4 C :   -0.186161
   5 H :    0.012728
   6 C :    0.052650
   7 H :    0.030821
   8 H :    0.013815
   9 C :   -0.056975
  10 H :    0.032616
  11 H :    0.026067
  12 C :   -0.061301
  13 H :    0.044399
  14 H :    0.037108
  15 H :    0.009064
  16 S :    0.101402
  17 C :   -0.050020
  18 C :   -0.051931
  19 C :   -0.032714
  20 C :   -0.168160
  21 H :    0.036207
  22 C :    0.073454
  23 H :    0.012774
  24 H :    0.026373
  25 C :   -0.001217
  26 H :    0.023319
  27 H :    0.012053
  28 C :   -0.091783
  29 H :    0.018731
  30 H :    0.043610
  31 H :    0.057522
  32 H :    0.056995
  33 H :    0.027763
Sum of atomic charges:   -0.0000000

LOEWDIN ATOMIC CHARGES
----------------------
   0 S :    0.415947
   1 C :   -0.207194
   2 C :   -0.075837
   3 C :   -0.060557
   4 C :   -0.208309
   5 H :    0.037245
   6 C :   -0.033059
   7 H :    0.032786
   8 H :    0.024015
   9 C :   -0.039504
  10 H :    0.026953
  11 H :    0.020283
  12 C :   -0.075360
  13 H :    0.030790
  14 H :    0.034022
  15 H :    0.016678
  16 S :    0.399401
  17 C :   -0.168876
  18 C :   -0.083404
  19 C :   -0.049760
  20 C :   -0.183116
  21 H :    0.037356
  22 C :   -0.030247
  23 H :    0.033207
  24 H :    0.033786
  25 C :   -0.030417
  26 H :    0.030538
  27 H :    0.013515
  28 C :   -0.068507
  29 H :    0.020028
  30 H :    0.035682
  31 H :    0.020531
  32 H :    0.038636
  33 H :    0.012746

  Mayer bond orders larger than 0.100000
B(  0-S ,  1-C ) :   1.1574 B(  0-S ,  4-C ) :   1.1388 B(  1-C ,  2-C ) :   1.6184
B(  1-C , 32-H ) :   0.9629 B(  2-C ,  3-C ) :   1.2263 B(  2-C ,  6-C ) :   1.0293
B(  3-C ,  4-C ) :   1.5969 B(  3-C ,  5-H ) :   0.9799 B(  4-C , 20-C ) :   1.0148
B(  6-C ,  7-H ) :   0.9397 B(  6-C ,  8-H ) :   0.9458 B(  6-C ,  9-C ) :   1.0473
B(  9-C , 10-H ) :   0.9568 B(  9-C , 11-H ) :   0.9590 B(  9-C , 12-C ) :   1.0658
B( 12-C , 13-H ) :   0.9756 B( 12-C , 14-H ) :   0.9757 B( 12-C , 15-H ) :   0.9738
B( 16-S , 17-C ) :   1.1606 B( 16-S , 20-C ) :   1.1446 B( 17-C , 18-C ) :   1.6135
B( 17-C , 20-C ) :   0.1027 B( 17-C , 33-H ) :   0.9785 B( 18-C , 19-C ) :   1.2448
B( 18-C , 21-H ) :   0.9717 B( 19-C , 20-C ) :   1.6016 B( 19-C , 22-C ) :   1.0374
B( 22-C , 23-H ) :   0.9278 B( 22-C , 24-H ) :   0.9300 B( 22-C , 25-C ) :   1.0867
B( 25-C , 26-H ) :   0.9457 B( 25-C , 27-H ) :   0.9543 B( 25-C , 28-C ) :   1.0734
B( 28-C , 29-H ) :   0.9729 B( 28-C , 30-H ) :   0.9711 B( 28-C , 31-H ) :   0.9693

Dispersion correction           -0.014527457
FINAL SINGLE POINT ENERGY     -1339.863025541926

DIPOLE MOMENT
-------------
                                X             Y             Z
Electronic contribution:     -9.98955     -13.30296      27.13277
Nuclear contribution   :      9.94491      13.49275     -27.78681
                        -----------------------------------------
Total Dipole Moment    :     -0.04463       0.18979      -0.65404
                        -----------------------------------------
Magnitude (a.u.)       :      0.68248
Magnitude (Debye)      :      1.73472

Rotational constants in cm-1:     0.018594     0.008729     0.006519
Rotational constants in MHz :   557.440188   261.691197   195.424532

                             ****ORCA TERMINATED NORMALLY****
TOTAL RUN TIME: 0 days 0 hours 0 minutes 29 seconds 835 msec
