                         Program Version 4.2.1 -  RELEASE  -
|  1> ! wB97X-D3 SP def2-SVP
|  2> %pal
|  3> nprocs 16
|  4> end
|  5>
|  6> * xyz 0 1
|  7> S 	 -67.9072 	 60.9646 	 125.585
|  8> C 	 -67.4167 	 60.9749 	 127.244
|  9> C 	 -66.9834 	 59.6983 	 127.642
| 10> C 	 -66.8827 	 58.7494 	 126.573
| 11> C 	 -67.4767 	 59.2678 	 125.432
| 12> H 	 -66.5326 	 57.7214 	 126.609
| 13> C 	 -66.6788 	 59.2986 	 129.041
| 14> H 	 -66.8205 	 58.2129 	 129.22
| 15> H 	 -67.4223 	 59.7004 	 129.753
| 16> C 	 -65.3138 	 59.8542 	 129.546
| 17> H 	 -65.039 	 59.1938 	 130.448
| 18> H 	 -64.5995 	 59.6057 	 128.77
| 19> C 	 -65.3819 	 61.3954 	 129.824
| 20> H 	 -64.6342 	 61.76 	 130.512
| 21> H 	 -65.4225 	 61.9772 	 128.949
| 22> H 	 -66.2782 	 61.6854 	 130.349
| 23> S 	 -67.7414 	 59.2557 	 122.681
| 24> C 	 -68.3403 	 57.8168 	 121.896
| 25> C 	 -68.3968 	 56.7497 	 122.793
| 26> C 	 -68.073 	 57.0617 	 124.131
| 27> C 	 -67.8209 	 58.4631 	 124.271
| 28> H 	 -68.7855 	 55.8149 	 122.517
| 29> C 	 -68.1603 	 56.0097 	 125.257
| 30> H 	 -68.6306 	 56.5766 	 126.092
| 31> H 	 -67.2971 	 55.5238 	 125.7
| 32> C 	 -69.2492 	 54.9201 	 125.118
| 33> H 	 -68.9217 	 54.2618 	 124.237
| 34> H 	 -70.269 	 55.4032 	 124.957
| 35> C 	 -69.265 	 53.7917 	 126.18
| 36> H 	 -69.844 	 52.9154 	 125.751
| 37> H 	 -69.7625 	 54.1239 	 127.148
| 38> H 	 -68.2594 	 53.5445 	 126.404
| 39> H 	 -67.5301 	 61.7538 	 127.969
| 40> H 	 -68.6443 	 57.6812 	 120.912
| 41> *
| 42>
| 43>                          ****END OF INPUT****

CARTESIAN COORDINATES (ANGSTROEM)
---------------------------------
  S    -67.907200   60.964600  125.585000
  C    -67.416700   60.974900  127.244000
  C    -66.983400   59.698300  127.642000
  C    -66.882700   58.749400  126.573000
  C    -67.476700   59.267800  125.432000
  H    -66.532600   57.721400  126.609000
  C    -66.678800   59.298600  129.041000
  H    -66.820500   58.212900  129.220000
  H    -67.422300   59.700400  129.753000
  C    -65.313800   59.854200  129.546000
  H    -65.039000   59.193800  130.448000
  H    -64.599500   59.605700  128.770000
  C    -65.381900   61.395400  129.824000
  H    -64.634200   61.760000  130.512000
  H    -65.422500   61.977200  128.949000
  H    -66.278200   61.685400  130.349000
  S    -67.741400   59.255700  122.681000
  C    -68.340300   57.816800  121.896000
  C    -68.396800   56.749700  122.793000
  C    -68.073000   57.061700  124.131000
  C    -67.820900   58.463100  124.271000
  H    -68.785500   55.814900  122.517000
  C    -68.160300   56.009700  125.257000
  H    -68.630600   56.576600  126.092000
  H    -67.297100   55.523800  125.700000
  C    -69.249200   54.920100  125.118000
  H    -68.921700   54.261800  124.237000
  H    -70.269000   55.403200  124.957000
  C    -69.265000   53.791700  126.180000
  H    -69.844000   52.915400  125.751000
  H    -69.762500   54.123900  127.148000
  H    -68.259400   53.544500  126.404000
  H    -67.530100   61.753800  127.969000
  H    -68.644300   57.681200  120.912000

 Total Charge           Charge          ....    0
 Multiplicity           Mult            ....    1
 Number of Electrons    NEL             ....  134
 Basis Dimension        Dim             ....  322

ORBITAL ENERGIES
----------------

  NO   OCC          E(Eh)            E(eV)
   0   2.0000     -88.971177     -2421.0288
   1   2.0000     -88.969370     -2420.9796
   2   2.0000     -10.334061      -281.2041
   3   2.0000     -10.329952      -281.0923
   4   2.0000     -10.313488      -280.6443
   5   2.0000     -10.312840      -280.6266
   6   2.0000     -10.312049      -280.6051
   7   2.0000     -10.301458      -280.3169
   8   2.0000     -10.299849      -280.2731
   9   2.0000     -10.299565      -280.2654
  10   2.0000     -10.296038      -280.1694
  11   2.0000     -10.294954      -280.1400
  12   2.0000     -10.290927      -280.0303
  13   2.0000     -10.290407      -280.0162
  14   2.0000     -10.288850      -279.9738
  15   2.0000     -10.276028      -279.6249
  16   2.0000      -8.085709      -220.0233
  17   2.0000      -8.083489      -219.9629
  18   2.0000      -6.044226      -164.4718
  19   2.0000      -6.042058      -164.4127
  20   2.0000      -6.040309      -164.3652
  21   2.0000      -6.038051      -164.3037
  22   2.0000      -6.036405      -164.2589
  23   2.0000      -6.034272      -164.2009
  24   2.0000      -1.005107       -27.3504
  25   2.0000      -0.981739       -26.7145
  26   2.0000      -0.909876       -24.7590
  27   2.0000      -0.907002       -24.6808
  28   2.0000      -0.866782       -23.5863
  29   2.0000      -0.853872       -23.2350
  30   2.0000      -0.845497       -23.0072
  31   2.0000      -0.810184       -22.0462
  32   2.0000      -0.785097       -21.3636
  33   2.0000      -0.774641       -21.0791
  34   2.0000      -0.706800       -19.2330
  35   2.0000      -0.700666       -19.0661
  36   2.0000      -0.691569       -18.8185
  37   2.0000      -0.654800       -17.8180
  38   2.0000      -0.640761       -17.4360
  39   2.0000      -0.620802       -16.8929
  40   2.0000      -0.602580       -16.3970
  41   2.0000      -0.572918       -15.5899
  42   2.0000      -0.570482       -15.5236
  43   2.0000      -0.541148       -14.7254
  44   2.0000      -0.534960       -14.5570
  45   2.0000      -0.524083       -14.2610
  46   2.0000      -0.516920       -14.0661
  47   2.0000      -0.509721       -13.8702
  48   2.0000      -0.500497       -13.6192
  49   2.0000      -0.495293       -13.4776
  50   2.0000      -0.491238       -13.3673
  51   2.0000      -0.488941       -13.3048
  52   2.0000      -0.475227       -12.9316
  53   2.0000      -0.462910       -12.5964
  54   2.0000      -0.460936       -12.5427
  55   2.0000      -0.452177       -12.3044
  56   2.0000      -0.451227       -12.2785
  57   2.0000      -0.437499       -11.9049
  58   2.0000      -0.430577       -11.7166
  59   2.0000      -0.430053       -11.7023
  60   2.0000      -0.422394       -11.4939
  61   2.0000      -0.417462       -11.3597
  62   2.0000      -0.394377       -10.7316
  63   2.0000      -0.352954        -9.6044
  64   2.0000      -0.335010        -9.1161
  65   2.0000      -0.329072        -8.9545
  66   2.0000      -0.279985        -7.6188
  67   0.0000       0.015830         0.4308
  68   0.0000       0.077620         2.1122
  69   0.0000       0.101994         2.7754
  70   0.0000       0.115452         3.1416
  71   0.0000       0.136421         3.7122

MULLIKEN ATOMIC CHARGES
-----------------------
   0 S :    0.127114
   1 C :   -0.089100
   2 C :   -0.107473
   3 C :    0.006725
   4 C :   -0.120718
   5 H :    0.020471
   6 C :    0.016370
   7 H :    0.027404
   8 H :    0.026756
   9 C :   -0.071545
  10 H :    0.041513
  11 H :    0.033025
  12 C :   -0.030725
  13 H :    0.035424
  14 H :    0.034369
  15 H :    0.009829
  16 S :    0.107260
  17 C :   -0.051096
  18 C :   -0.028714
  19 C :   -0.001085
  20 C :   -0.157359
  21 H :   -0.003256
  22 C :    0.026821
  23 H :    0.043430
  24 H :    0.041328
  25 C :   -0.165412
  26 H :    0.037384
  27 H :    0.057858
  28 C :   -0.054471
  29 H :    0.055840
  30 H :    0.040070
  31 H :    0.023025
  32 H :    0.038471
  33 H :    0.030463
Sum of atomic charges:   -0.0000000

LOEWDIN ATOMIC CHARGES
----------------------
   0 S :    0.416346
   1 C :   -0.209663
   2 C :   -0.058979
   3 C :   -0.058871
   4 C :   -0.191535
   5 H :    0.036323
   6 C :   -0.045493
   7 H :    0.031634
   8 H :    0.030707
   9 C :   -0.035898
  10 H :    0.031730
  11 H :    0.022454
  12 C :   -0.066077
  13 H :    0.029445
  14 H :    0.020777
  15 H :    0.021492
  16 S :    0.402149
  17 C :   -0.181152
  18 C :   -0.061389
  19 C :   -0.054281
  20 C :   -0.182736
  21 H :    0.021249
  22 C :   -0.048481
  23 H :    0.041493
  24 H :    0.026951
  25 C :   -0.054824
  26 H :    0.025399
  27 H :    0.033152
  28 C :   -0.067665
  29 H :    0.038603
  30 H :    0.027018
  31 H :    0.017020
  32 H :    0.024912
  33 H :    0.018191

  Mayer bond orders larger than 0.100000
B(  0-S ,  1-C ) :   1.1281 B(  0-S ,  4-C ) :   1.1541 B(  1-C ,  2-C ) :   1.6043
B(  1-C , 32-H ) :   0.9621 B(  2-C ,  3-C ) :   1.2412 B(  2-C ,  6-C ) :   1.0334
B(  3-C ,  4-C ) :   1.5426 B(  3-C ,  5-H ) :   0.9936 B(  4-C , 20-C ) :   1.0808
B(  6-C ,  7-H ) :   0.9467 B(  6-C ,  8-H ) :   0.9428 B(  6-C ,  9-C ) :   1.0561
B(  9-C , 10-H ) :   0.9595 B(  9-C , 11-H ) :   0.9593 B(  9-C , 12-C ) :   1.0649
B( 12-C , 13-H ) :   0.9728 B( 12-C , 14-H ) :   0.9703 B( 12-C , 15-H ) :   0.9740
B( 16-S , 17-C ) :   1.1466 B( 16-S , 20-C ) :   1.1524 B( 17-C , 18-C ) :   1.5861
B( 17-C , 20-C ) :   0.1088 B( 17-C , 33-H ) :   0.9735 B( 18-C , 19-C ) :   1.2848
B( 18-C , 21-H ) :   0.9889 B( 19-C , 20-C ) :   1.5448 B( 19-C , 22-C ) :   1.0121
B( 22-C , 23-H ) :   0.9388 B( 22-C , 24-H ) :   0.9357 B( 22-C , 25-C ) :   1.0660
B( 25-C , 26-H ) :   0.9471 B( 25-C , 27-H ) :   0.9597 B( 25-C , 28-C ) :   1.0683
B( 28-C , 29-H ) :   0.9772 B( 28-C , 30-H ) :   0.9747 B( 28-C , 31-H ) :   0.9714

Dispersion correction           -0.013795893
FINAL SINGLE POINT ENERGY     -1339.859534766469

DIPOLE MOMENT
-------------
                                X             Y             Z
Electronic contribution:     -2.13160      16.02201     -22.80050
Nuclear contribution   :      2.03823     -16.56726      23.31442
                        -----------------------------------------
Total Dipole Moment    :     -0.09338      -0.54525       0.51392
                        -----------------------------------------
Magnitude (a.u.)       :      0.75507
Magnitude (Debye)      :      1.91923

Rotational constants in cm-1:     0.018375     0.008362     0.006073
Rotational constants in MHz :   550.872016   250.683576   182.070035

                             ****ORCA TERMINATED NORMALLY****
TOTAL RUN TIME: 0 days 0 hours 0 minutes 33 seconds 527 msec
