                         Program Version 4.2.1 -  RELEASE  -
|  1> ! wB97X-D3 SP def2-SVP
|  2> %pal
|  3> nprocs 16
|  4> end
|  5>
|  6> * xyz 0 1
|  7> S 	 53.5462 	 12.5993 	 50.3728
|  8> C 	 53.3324 	 13.8337 	 49.2181
|  9> C 	 53.0187 	 15.075 	 49.7603
| 10> C 	 53.0468 	 14.9899 	 51.1927
| 11> C 	 53.423 	 13.7863 	 51.6679
| 12> H 	 52.9425 	 15.7872 	 52.0028
| 13> C 	 52.6739 	 16.3252 	 48.9236
| 14> H 	 51.8953 	 16.7326 	 49.5162
| 15> H 	 52.0825 	 16.0282 	 48.0521
| 16> C 	 53.6873 	 17.4179 	 48.5731
| 17> H 	 54.4884 	 16.9998 	 47.8634
| 18> H 	 53.1953 	 18.2446 	 48.0907
| 19> C 	 54.2319 	 18.098 	 49.8296
| 20> H 	 53.394 	 18.5709 	 50.3159
| 21> H 	 54.7101 	 17.4561 	 50.6185
| 22> H 	 55.0179 	 18.8162 	 49.6734
| 23> S 	 55.2804 	 13.1653 	 53.5337
| 24> C 	 54.7429 	 12.8016 	 55.1588
| 25> C 	 53.431 	 12.9336 	 55.335
| 26> C 	 52.7982 	 13.2859 	 54.122
| 27> C 	 53.6741 	 13.4201 	 53.0286
| 28> H 	 52.9547 	 12.5687 	 56.2722
| 29> C 	 51.3174 	 13.2998 	 54.0076
| 30> H 	 50.8176 	 12.6956 	 54.7637
| 31> H 	 51.1577 	 12.8527 	 52.9817
| 32> C 	 50.563 	 14.647 	 54.0017
| 33> H 	 51.134 	 15.4756 	 53.5066
| 34> H 	 50.6161 	 14.9595 	 55.066
| 35> C 	 49.1185 	 14.566 	 53.392
| 36> H 	 48.8445 	 15.5876 	 53.5404
| 37> H 	 48.5141 	 13.8775 	 54.014
| 38> H 	 49.1173 	 14.4286 	 52.3337
| 39> H 	 53.3882 	 13.6203 	 48.2047
| 40> H 	 55.4328 	 12.533 	 55.9192
| 41> *
| 42>
| 43>                          ****END OF INPUT****

CARTESIAN COORDINATES (ANGSTROEM)
---------------------------------
  S     53.546200   12.599300   50.372800
  C     53.332400   13.833700   49.218100
  C     53.018700   15.075000   49.760300
  C     53.046800   14.989900   51.192700
  C     53.423000   13.786300   51.667900
  H     52.942500   15.787200   52.002800
  C     52.673900   16.325200   48.923600
  H     51.895300   16.732600   49.516200
  H     52.082500   16.028200   48.052100
  C     53.687300   17.417900   48.573100
  H     54.488400   16.999800   47.863400
  H     53.195300   18.244600   48.090700
  C     54.231900   18.098000   49.829600
  H     53.394000   18.570900   50.315900
  H     54.710100   17.456100   50.618500
  H     55.017900   18.816200   49.673400
  S     55.280400   13.165300   53.533700
  C     54.742900   12.801600   55.158800
  C     53.431000   12.933600   55.335000
  C     52.798200   13.285900   54.122000
  C     53.674100   13.420100   53.028600
  H     52.954700   12.568700   56.272200
  C     51.317400   13.299800   54.007600
  H     50.817600   12.695600   54.763700
  H     51.157700   12.852700   52.981700
  C     50.563000   14.647000   54.001700
  H     51.134000   15.475600   53.506600
  H     50.616100   14.959500   55.066000
  C     49.118500   14.566000   53.392000
  H     48.844500   15.587600   53.540400
  H     48.514100   13.877500   54.014000
  H     49.117300   14.428600   52.333700
  H     53.388200   13.620300   48.204700
  H     55.432800   12.533000   55.919200

 Total Charge           Charge          ....    0
 Multiplicity           Mult            ....    1
 Number of Electrons    NEL             ....  134
 Basis Dimension        Dim             ....  322

ORBITAL ENERGIES
----------------

  NO   OCC          E(Eh)            E(eV)
   0   2.0000     -88.963296     -2420.8144
   1   2.0000     -88.962149     -2420.7832
   2   2.0000     -10.320143      -280.8254
   3   2.0000     -10.316751      -280.7331
   4   2.0000     -10.307793      -280.4893
   5   2.0000     -10.307683      -280.4863
   6   2.0000     -10.305529      -280.4277
   7   2.0000     -10.297766      -280.2164
   8   2.0000     -10.297619      -280.2125
   9   2.0000     -10.294233      -280.1203
  10   2.0000     -10.291584      -280.0482
  11   2.0000     -10.288360      -279.9605
  12   2.0000     -10.288147      -279.9547
  13   2.0000     -10.284380      -279.8522
  14   2.0000     -10.277801      -279.6732
  15   2.0000     -10.275686      -279.6156
  16   2.0000      -8.079080      -219.8429
  17   2.0000      -8.078034      -219.8145
  18   2.0000      -6.037365      -164.2850
  19   2.0000      -6.036352      -164.2575
  20   2.0000      -6.033485      -164.1795
  21   2.0000      -6.032357      -164.1488
  22   2.0000      -6.029977      -164.0840
  23   2.0000      -6.028960      -164.0563
  24   2.0000      -1.014126       -27.5958
  25   2.0000      -0.990963       -26.9655
  26   2.0000      -0.910227       -24.7685
  27   2.0000      -0.902914       -24.5695
  28   2.0000      -0.877981       -23.8911
  29   2.0000      -0.850453       -23.1420
  30   2.0000      -0.848207       -23.0809
  31   2.0000      -0.820920       -22.3384
  32   2.0000      -0.783833       -21.3292
  33   2.0000      -0.767668       -20.8893
  34   2.0000      -0.705157       -19.1883
  35   2.0000      -0.702717       -19.1219
  36   2.0000      -0.687492       -18.7076
  37   2.0000      -0.660570       -17.9750
  38   2.0000      -0.649782       -17.6815
  39   2.0000      -0.610475       -16.6119
  40   2.0000      -0.595328       -16.1997
  41   2.0000      -0.572359       -15.5747
  42   2.0000      -0.560608       -15.2549
  43   2.0000      -0.549362       -14.9489
  44   2.0000      -0.543852       -14.7990
  45   2.0000      -0.520651       -14.1676
  46   2.0000      -0.518028       -14.0963
  47   2.0000      -0.508822       -13.8458
  48   2.0000      -0.504170       -13.7192
  49   2.0000      -0.496181       -13.5018
  50   2.0000      -0.490875       -13.3574
  51   2.0000      -0.484275       -13.1778
  52   2.0000      -0.473629       -12.8881
  53   2.0000      -0.468072       -12.7369
  54   2.0000      -0.458516       -12.4769
  55   2.0000      -0.441497       -12.0137
  56   2.0000      -0.438194       -11.9239
  57   2.0000      -0.436101       -11.8669
  58   2.0000      -0.430781       -11.7221
  59   2.0000      -0.428494       -11.6599
  60   2.0000      -0.414952       -11.2914
  61   2.0000      -0.413857       -11.2616
  62   2.0000      -0.411113       -11.1869
  63   2.0000      -0.346970        -9.4415
  64   2.0000      -0.332636        -9.0515
  65   2.0000      -0.319800        -8.7022
  66   2.0000      -0.300453        -8.1757
  67   0.0000       0.041147         1.1197
  68   0.0000       0.065887         1.7929
  69   0.0000       0.111196         3.0258
  70   0.0000       0.123965         3.3733
  71   0.0000       0.136223         3.7068

MULLIKEN ATOMIC CHARGES
-----------------------
   0 S :    0.122315
   1 C :   -0.091535
   2 C :   -0.090337
   3 C :    0.031076
   4 C :   -0.204256
   5 H :    0.044725
   6 C :    0.076926
   7 H :    0.003764
   8 H :    0.021474
   9 C :   -0.029742
  10 H :    0.045207
  11 H :    0.030622
  12 C :   -0.078818
  13 H :    0.021352
  14 H :    0.039898
  15 H :    0.030348
  16 S :    0.119311
  17 C :   -0.086814
  18 C :   -0.034638
  19 C :   -0.005803
  20 C :   -0.179571
  21 H :    0.036371
  22 C :    0.047862
  23 H :    0.019881
  24 H :    0.030416
  25 C :   -0.117916
  26 H :    0.017235
  27 H :    0.022480
  28 C :   -0.013681
  29 H :    0.025148
  30 H :    0.044162
  31 H :    0.041350
  32 H :    0.020682
  33 H :    0.040510
Sum of atomic charges:   -0.0000000

LOEWDIN ATOMIC CHARGES
----------------------
   0 S :    0.416853
   1 C :   -0.188446
   2 C :   -0.064066
   3 C :   -0.063528
   4 C :   -0.202944
   5 H :    0.045708
   6 C :   -0.036177
   7 H :    0.026822
   8 H :    0.032838
   9 C :   -0.039059
  10 H :    0.031819
  11 H :    0.027962
  12 C :   -0.073172
  13 H :    0.022200
  14 H :    0.029311
  15 H :    0.023661
  16 S :    0.428465
  17 C :   -0.173988
  18 C :   -0.080140
  19 C :   -0.054419
  20 C :   -0.227343
  21 H :    0.044106
  22 C :   -0.043943
  23 H :    0.027615
  24 H :    0.035895
  25 C :   -0.045070
  26 H :    0.019527
  27 H :    0.021776
  28 C :   -0.057492
  29 H :    0.026935
  30 H :    0.030224
  31 H :    0.025524
  32 H :    0.012022
  33 H :    0.020522

  Mayer bond orders larger than 0.100000
B(  0-S ,  1-C ) :   1.1612 B(  0-S ,  4-C ) :   1.1374 B(  1-C ,  2-C ) :   1.6081
B(  1-C , 32-H ) :   0.9801 B(  2-C ,  3-C ) :   1.2190 B(  2-C ,  6-C ) :   1.0023
B(  3-C ,  4-C ) :   1.6378 B(  3-C ,  5-H ) :   0.9713 B(  4-C , 20-C ) :   1.0187
B(  6-C ,  7-H ) :   0.9327 B(  6-C ,  8-H ) :   0.9394 B(  6-C ,  9-C ) :   1.0776
B(  9-C , 10-H ) :   0.9563 B(  9-C , 11-H ) :   0.9495 B(  9-C , 12-C ) :   1.0673
B( 12-C , 13-H ) :   0.9754 B( 12-C , 14-H ) :   0.9755 B( 12-C , 15-H ) :   0.9738
B( 16-S , 17-C ) :   1.1654 B( 16-S , 20-C ) :   1.1598 B( 17-C , 18-C ) :   1.6152
B( 17-C , 33-H ) :   0.9674 B( 18-C , 19-C ) :   1.2499 B( 18-C , 21-H ) :   0.9845
B( 19-C , 20-C ) :   1.5769 B( 19-C , 22-C ) :   1.0526 B( 22-C , 23-H ) :   0.9406
B( 22-C , 24-H ) :   0.9297 B( 22-C , 25-C ) :   1.0504 B( 25-C , 26-H ) :   0.9576
B( 25-C , 27-H ) :   0.9540 B( 25-C , 28-C ) :   1.0695 B( 28-C , 29-H ) :   0.9737
B( 28-C , 30-H ) :   0.9758 B( 28-C , 31-H ) :   0.9750

Dispersion correction           -0.014796897
FINAL SINGLE POINT ENERGY     -1339.870556992475

DIPOLE MOMENT
-------------
                                X             Y             Z
Electronic contribution:     15.88390     -19.62899       2.85776
Nuclear contribution   :    -16.24269      20.00119      -2.80795
                        -----------------------------------------
Total Dipole Moment    :     -0.35878       0.37220       0.04981
                        -----------------------------------------
Magnitude (a.u.)       :      0.51937
Magnitude (Debye)      :      1.32012

Rotational constants in cm-1:     0.017215     0.009120     0.007721
Rotational constants in MHz :   516.081325   273.402069   231.464131

                             ****ORCA TERMINATED NORMALLY****
TOTAL RUN TIME: 0 days 0 hours 0 minutes 30 seconds 474 msec
