                         Program Version 4.2.1 -  RELEASE  -
|  1> ! wB97X-D3 SP def2-SVP
|  2> %pal
|  3> nprocs 16
|  4> end
|  5>
|  6> * xyz 0 1
|  7> S 	 -47.78 	 67.4423 	 126.746
|  8> C 	 -47.6728 	 65.7664 	 126.631
|  9> C 	 -46.7337 	 65.2963 	 127.559
| 10> C 	 -46.2672 	 66.3578 	 128.487
| 11> C 	 -46.6162 	 67.5897 	 128.043
| 12> H 	 -45.7324 	 66.1943 	 129.374
| 13> C 	 -46.153 	 63.9074 	 127.555
| 14> H 	 -46.7578 	 63.2184 	 126.97
| 15> H 	 -46.2411 	 63.6517 	 128.624
| 16> C 	 -44.6957 	 63.8672 	 126.926
| 17> H 	 -44.628 	 62.937 	 126.435
| 18> H 	 -44.5378 	 64.711 	 126.236
| 19> C 	 -43.7165 	 63.8984 	 128.122
| 20> H 	 -44.1129 	 63.1572 	 128.878
| 21> H 	 -42.7007 	 63.6283 	 127.811
| 22> H 	 -43.6747 	 64.8687 	 128.634
| 23> S 	 -44.8574 	 69.5652 	 128.275
| 24> C 	 -45.1165 	 70.8373 	 129.49
| 25> C 	 -46.3061 	 70.714 	 130.123
| 26> C 	 -46.9558 	 69.5072 	 129.741
| 27> C 	 -46.3103 	 68.7832 	 128.744
| 28> H 	 -46.5244 	 71.4274 	 130.928
| 29> C 	 -48.2669 	 69.0131 	 130.378
| 30> H 	 -48.2581 	 67.9495 	 130.489
| 31> H 	 -48.9809 	 69.2716 	 129.658
| 32> C 	 -48.6704 	 69.5693 	 131.768
| 33> H 	 -48.7492 	 70.6571 	 131.813
| 34> H 	 -47.8297 	 69.4457 	 132.448
| 35> C 	 -50.0367 	 69.0118 	 132.271
| 36> H 	 -49.9787 	 67.9601 	 132.386
| 37> H 	 -50.8272 	 69.2993 	 131.55
| 38> H 	 -50.5157 	 69.4044 	 133.19
| 39> H 	 -48.1369 	 65.1618 	 125.813
| 40> H 	 -44.4441 	 71.6006 	 129.622
| 41> *
| 42>
| 43>                          ****END OF INPUT****

CARTESIAN COORDINATES (ANGSTROEM)
---------------------------------
  S    -47.780000   67.442300  126.746000
  C    -47.672800   65.766400  126.631000
  C    -46.733700   65.296300  127.559000
  C    -46.267200   66.357800  128.487000
  C    -46.616200   67.589700  128.043000
  H    -45.732400   66.194300  129.374000
  C    -46.153000   63.907400  127.555000
  H    -46.757800   63.218400  126.970000
  H    -46.241100   63.651700  128.624000
  C    -44.695700   63.867200  126.926000
  H    -44.628000   62.937000  126.435000
  H    -44.537800   64.711000  126.236000
  C    -43.716500   63.898400  128.122000
  H    -44.112900   63.157200  128.878000
  H    -42.700700   63.628300  127.811000
  H    -43.674700   64.868700  128.634000
  S    -44.857400   69.565200  128.275000
  C    -45.116500   70.837300  129.490000
  C    -46.306100   70.714000  130.123000
  C    -46.955800   69.507200  129.741000
  C    -46.310300   68.783200  128.744000
  H    -46.524400   71.427400  130.928000
  C    -48.266900   69.013100  130.378000
  H    -48.258100   67.949500  130.489000
  H    -48.980900   69.271600  129.658000
  C    -48.670400   69.569300  131.768000
  H    -48.749200   70.657100  131.813000
  H    -47.829700   69.445700  132.448000
  C    -50.036700   69.011800  132.271000
  H    -49.978700   67.960100  132.386000
  H    -50.827200   69.299300  131.550000
  H    -50.515700   69.404400  133.190000
  H    -48.136900   65.161800  125.813000
  H    -44.444100   71.600600  129.622000

 Total Charge           Charge          ....    0
 Multiplicity           Mult            ....    1
 Number of Electrons    NEL             ....  134
 Basis Dimension        Dim             ....  322

ORBITAL ENERGIES
----------------

  NO   OCC          E(Eh)            E(eV)
   0   2.0000     -88.961271     -2420.7592
   1   2.0000     -88.961127     -2420.7553
   2   2.0000     -10.321449      -280.8609
   3   2.0000     -10.316821      -280.7350
   4   2.0000     -10.313189      -280.6361
   5   2.0000     -10.309896      -280.5465
   6   2.0000     -10.304396      -280.3969
   7   2.0000     -10.302708      -280.3509
   8   2.0000     -10.293495      -280.1002
   9   2.0000     -10.293193      -280.0920
  10   2.0000     -10.290893      -280.0294
  11   2.0000     -10.288817      -279.9729
  12   2.0000     -10.287366      -279.9335
  13   2.0000     -10.283912      -279.8395
  14   2.0000     -10.281364      -279.7701
  15   2.0000     -10.280393      -279.7437
  16   2.0000      -8.077113      -219.7894
  17   2.0000      -8.076558      -219.7743
  18   2.0000      -6.035599      -164.2370
  19   2.0000      -6.034994      -164.2205
  20   2.0000      -6.031299      -164.1200
  21   2.0000      -6.030904      -164.1092
  22   2.0000      -6.027960      -164.0291
  23   2.0000      -6.027451      -164.0153
  24   2.0000      -1.012181       -27.5428
  25   2.0000      -0.987218       -26.8636
  26   2.0000      -0.907474       -24.6936
  27   2.0000      -0.902366       -24.5546
  28   2.0000      -0.880623       -23.9630
  29   2.0000      -0.845055       -22.9951
  30   2.0000      -0.842363       -22.9219
  31   2.0000      -0.820711       -22.3327
  32   2.0000      -0.777275       -21.1507
  33   2.0000      -0.763027       -20.7630
  34   2.0000      -0.709282       -19.3005
  35   2.0000      -0.703615       -19.1464
  36   2.0000      -0.699508       -19.0346
  37   2.0000      -0.655471       -17.8363
  38   2.0000      -0.649447       -17.6724
  39   2.0000      -0.616304       -16.7705
  40   2.0000      -0.598647       -16.2900
  41   2.0000      -0.570912       -15.5353
  42   2.0000      -0.566175       -15.4064
  43   2.0000      -0.548582       -14.9277
  44   2.0000      -0.538495       -14.6532
  45   2.0000      -0.525437       -14.2979
  46   2.0000      -0.514553       -14.0017
  47   2.0000      -0.514090       -13.9891
  48   2.0000      -0.509720       -13.8702
  49   2.0000      -0.504172       -13.7192
  50   2.0000      -0.487522       -13.2661
  51   2.0000      -0.477069       -12.9817
  52   2.0000      -0.470285       -12.7971
  53   2.0000      -0.462835       -12.5944
  54   2.0000      -0.459094       -12.4926
  55   2.0000      -0.451301       -12.2805
  56   2.0000      -0.443878       -12.0785
  57   2.0000      -0.436494       -11.8776
  58   2.0000      -0.425989       -11.5918
  59   2.0000      -0.424237       -11.5441
  60   2.0000      -0.421135       -11.4597
  61   2.0000      -0.417813       -11.3693
  62   2.0000      -0.404193       -10.9987
  63   2.0000      -0.338533        -9.2119
  64   2.0000      -0.335440        -9.1278
  65   2.0000      -0.309966        -8.4346
  66   2.0000      -0.307902        -8.3784
  67   0.0000       0.049213         1.3392
  68   0.0000       0.058380         1.5886
  69   0.0000       0.114014         3.1025
  70   0.0000       0.123740         3.3671
  71   0.0000       0.136477         3.7137

MULLIKEN ATOMIC CHARGES
-----------------------
   0 S :    0.119208
   1 C :   -0.125844
   2 C :   -0.124421
   3 C :    0.052433
   4 C :   -0.152496
   5 H :    0.005168
   6 C :    0.034559
   7 H :    0.013108
   8 H :    0.037611
   9 C :   -0.033639
  10 H :    0.024563
  11 H :    0.051353
  12 C :   -0.080682
  13 H :    0.032669
  14 H :    0.036081
  15 H :    0.039813
  16 S :    0.103277
  17 C :   -0.062519
  18 C :   -0.040625
  19 C :   -0.037791
  20 C :   -0.188210
  21 H :    0.032699
  22 C :    0.123000
  23 H :    0.024585
  24 H :    0.022501
  25 C :   -0.093792
  26 H :    0.021801
  27 H :    0.025013
  28 C :   -0.048291
  29 H :    0.029880
  30 H :    0.032640
  31 H :    0.034120
  32 H :    0.071324
  33 H :    0.020908
Sum of atomic charges:   -0.0000000

LOEWDIN ATOMIC CHARGES
----------------------
   0 S :    0.427288
   1 C :   -0.230180
   2 C :   -0.063729
   3 C :   -0.046538
   4 C :   -0.210498
   5 H :    0.024040
   6 C :   -0.034330
   7 H :    0.024895
   8 H :    0.033327
   9 C :   -0.028376
  10 H :    0.018178
  11 H :    0.031247
  12 C :   -0.069525
  13 H :    0.028712
  14 H :    0.022355
  15 H :    0.024689
  16 S :    0.412107
  17 C :   -0.155952
  18 C :   -0.075180
  19 C :   -0.047685
  20 C :   -0.218694
  21 H :    0.041116
  22 C :   -0.023676
  23 H :    0.030123
  24 H :    0.027863
  25 C :   -0.045304
  26 H :    0.019760
  27 H :    0.021238
  28 C :   -0.068419
  29 H :    0.018528
  30 H :    0.031148
  31 H :    0.030872
  32 H :    0.041765
  33 H :    0.008834

  Mayer bond orders larger than 0.100000
B(  0-S ,  1-C ) :   1.1523 B(  0-S ,  4-C ) :   1.1393 B(  1-C ,  2-C ) :   1.6026
B(  1-C , 32-H ) :   0.9633 B(  2-C ,  3-C ) :   1.2111 B(  2-C ,  6-C ) :   1.0439
B(  3-C ,  4-C ) :   1.5932 B(  3-C ,  5-H ) :   0.9992 B(  4-C , 20-C ) :   1.0220
B(  6-C ,  7-H ) :   0.9442 B(  6-C ,  8-H ) :   0.9437 B(  6-C ,  9-C ) :   1.0347
B(  9-C , 10-H ) :   0.9595 B(  9-C , 11-H ) :   0.9607 B(  9-C , 12-C ) :   1.0734
B( 12-C , 13-H ) :   0.9782 B( 12-C , 14-H ) :   0.9736 B( 12-C , 15-H ) :   0.9747
B( 16-S , 17-C ) :   1.1594 B( 16-S , 20-C ) :   1.1520 B( 17-C , 18-C ) :   1.6178
B( 17-C , 20-C ) :   0.1044 B( 17-C , 33-H ) :   0.9743 B( 18-C , 19-C ) :   1.2297
B( 18-C , 21-H ) :   0.9879 B( 19-C , 20-C ) :   1.6160 B( 19-C , 22-C ) :   1.0203
B( 22-C , 23-H ) :   0.9382 B( 22-C , 24-H ) :   0.9231 B( 22-C , 25-C ) :   1.0666
B( 25-C , 26-H ) :   0.9489 B( 25-C , 27-H ) :   0.9603 B( 25-C , 28-C ) :   1.0729
B( 28-C , 29-H ) :   0.9794 B( 28-C , 30-H ) :   0.9739 B( 28-C , 31-H ) :   0.9752

Dispersion correction           -0.014407348
FINAL SINGLE POINT ENERGY     -1339.864920113971

DIPOLE MOMENT
-------------
                                X             Y             Z
Electronic contribution:      3.60664      12.49856     -14.00868
Nuclear contribution   :     -3.66020     -12.77356      14.34669
                        -----------------------------------------
Total Dipole Moment    :     -0.05355      -0.27499       0.33801
                        -----------------------------------------
Magnitude (a.u.)       :      0.43902
Magnitude (Debye)      :      1.11590

Rotational constants in cm-1:     0.018511     0.008171     0.007079
Rotational constants in MHz :   554.947732   244.960252   212.232303

                             ****ORCA TERMINATED NORMALLY****
TOTAL RUN TIME: 0 days 0 hours 0 minutes 33 seconds 798 msec
