                         Program Version 4.2.1 -  RELEASE  -
|  1> ! wB97X-D3 SP def2-SVP
|  2> %pal
|  3> nprocs 16
|  4> end
|  5>
|  6> * xyz 0 1
|  7> S 	 11.6869 	 2.03627 	 87.7166
|  8> C 	 12.9276 	 2.29671 	 88.8206
|  9> C 	 13.5063 	 3.55663 	 88.6426
| 10> C 	 12.882 	 4.27896 	 87.6292
| 11> C 	 11.8214 	 3.5931 	 86.9984
| 12> H 	 13.2527 	 5.25441 	 87.411
| 13> C 	 14.7451 	 3.87215 	 89.4788
| 14> H 	 14.5536 	 3.40314 	 90.4804
| 15> H 	 14.8745 	 4.94414 	 89.6801
| 16> C 	 16.0866 	 3.41534 	 88.8113
| 17> H 	 16.3835 	 4.00097 	 87.8883
| 18> H 	 16.9032 	 3.59971 	 89.5432
| 19> C 	 16.1038 	 1.86919 	 88.4384
| 20> H 	 15.5401 	 1.68733 	 87.5085
| 21> H 	 17.1192 	 1.45015 	 88.2914
| 22> H 	 15.6604 	 1.32527 	 89.2291
| 23> S 	 9.17365 	 4.05917 	 86.5901
| 24> C 	 8.6627 	 5.04889 	 85.3249
| 25> C 	 9.74406 	 5.5681 	 84.6388
| 26> C 	 11.011 	 5.04207 	 85.054
| 27> C 	 10.856 	 4.15928 	 86.0997
| 28> H 	 9.57538 	 6.32845 	 83.9288
| 29> C 	 12.3053 	 5.44857 	 84.4118
| 30> H 	 12.6729 	 6.1963 	 85.1788
| 31> H 	 12.1044 	 5.9273 	 83.4641
| 32> C 	 13.3667 	 4.36383 	 84.1828
| 33> H 	 13.6533 	 3.82764 	 85.032
| 34> H 	 14.3108 	 4.77024 	 83.8691
| 35> C 	 12.906 	 3.35826 	 83.0655
| 36> H 	 11.8715 	 2.98223 	 83.1839
| 37> H 	 13.6419 	 2.50032 	 82.9898
| 38> H 	 12.9371 	 3.90733 	 82.0951
| 39> H 	 13.2265 	 1.50903 	 89.496
| 40> H 	 7.73312 	 5.45912 	 85.1958
| 41> *
| 42>
| 43>                          ****END OF INPUT****

CARTESIAN COORDINATES (ANGSTROEM)
---------------------------------
  S     11.686900    2.036270   87.716600
  C     12.927600    2.296710   88.820600
  C     13.506300    3.556630   88.642600
  C     12.882000    4.278960   87.629200
  C     11.821400    3.593100   86.998400
  H     13.252700    5.254410   87.411000
  C     14.745100    3.872150   89.478800
  H     14.553600    3.403140   90.480400
  H     14.874500    4.944140   89.680100
  C     16.086600    3.415340   88.811300
  H     16.383500    4.000970   87.888300
  H     16.903200    3.599710   89.543200
  C     16.103800    1.869190   88.438400
  H     15.540100    1.687330   87.508500
  H     17.119200    1.450150   88.291400
  H     15.660400    1.325270   89.229100
  S      9.173650    4.059170   86.590100
  C      8.662700    5.048890   85.324900
  C      9.744060    5.568100   84.638800
  C     11.011000    5.042070   85.054000
  C     10.856000    4.159280   86.099700
  H      9.575380    6.328450   83.928800
  C     12.305300    5.448570   84.411800
  H     12.672900    6.196300   85.178800
  H     12.104400    5.927300   83.464100
  C     13.366700    4.363830   84.182800
  H     13.653300    3.827640   85.032000
  H     14.310800    4.770240   83.869100
  C     12.906000    3.358260   83.065500
  H     11.871500    2.982230   83.183900
  H     13.641900    2.500320   82.989800
  H     12.937100    3.907330   82.095100
  H     13.226500    1.509030   89.496000
  H      7.733120    5.459120   85.195800

 Total Charge           Charge          ....    0
 Multiplicity           Mult            ....    1
 Number of Electrons    NEL             ....  134
 Basis Dimension        Dim             ....  322

ORBITAL ENERGIES
----------------

  NO   OCC          E(Eh)            E(eV)
   0   2.0000     -88.967580     -2420.9309
   1   2.0000     -88.962834     -2420.8018
   2   2.0000     -10.326963      -281.0109
   3   2.0000     -10.320477      -280.8345
   4   2.0000     -10.307898      -280.4922
   5   2.0000     -10.304725      -280.4058
   6   2.0000     -10.300900      -280.3017
   7   2.0000     -10.300629      -280.2944
   8   2.0000     -10.299655      -280.2679
   9   2.0000     -10.297046      -280.1969
  10   2.0000     -10.296086      -280.1708
  11   2.0000     -10.292022      -280.0602
  12   2.0000     -10.287170      -279.9281
  13   2.0000     -10.281203      -279.7657
  14   2.0000     -10.278381      -279.6890
  15   2.0000     -10.278101      -279.6813
  16   2.0000      -8.083823      -219.9720
  17   2.0000      -8.078741      -219.8337
  18   2.0000      -6.041892      -164.4082
  19   2.0000      -6.037875      -164.2989
  20   2.0000      -6.037160      -164.2795
  21   2.0000      -6.035210      -164.2264
  22   2.0000      -6.033030      -164.1671
  23   2.0000      -6.029562      -164.0727
  24   2.0000      -1.015860       -27.6430
  25   2.0000      -0.993450       -27.0331
  26   2.0000      -0.909492       -24.7485
  27   2.0000      -0.904761       -24.6198
  28   2.0000      -0.868701       -23.6386
  29   2.0000      -0.849969       -23.1288
  30   2.0000      -0.845203       -22.9992
  31   2.0000      -0.810895       -22.0656
  32   2.0000      -0.781512       -21.2660
  33   2.0000      -0.771676       -20.9984
  34   2.0000      -0.714545       -19.4438
  35   2.0000      -0.698801       -19.0154
  36   2.0000      -0.688496       -18.7349
  37   2.0000      -0.666014       -18.1232
  38   2.0000      -0.643540       -17.5116
  39   2.0000      -0.623208       -16.9584
  40   2.0000      -0.590768       -16.0756
  41   2.0000      -0.569421       -15.4947
  42   2.0000      -0.553084       -15.0502
  43   2.0000      -0.546453       -14.8697
  44   2.0000      -0.544818       -14.8253
  45   2.0000      -0.536870       -14.6090
  46   2.0000      -0.518784       -14.1168
  47   2.0000      -0.508313       -13.8319
  48   2.0000      -0.504939       -13.7401
  49   2.0000      -0.495036       -13.4706
  50   2.0000      -0.483001       -13.1431
  51   2.0000      -0.480893       -13.0858
  52   2.0000      -0.470688       -12.8081
  53   2.0000      -0.466807       -12.7025
  54   2.0000      -0.464555       -12.6412
  55   2.0000      -0.444866       -12.1054
  56   2.0000      -0.441837       -12.0230
  57   2.0000      -0.435338       -11.8461
  58   2.0000      -0.432157       -11.7596
  59   2.0000      -0.425811       -11.5869
  60   2.0000      -0.420893       -11.4531
  61   2.0000      -0.416943       -11.3456
  62   2.0000      -0.413093       -11.2408
  63   2.0000      -0.349344        -9.5061
  64   2.0000      -0.333919        -9.0864
  65   2.0000      -0.326805        -8.8928
  66   2.0000      -0.285502        -7.7689
  67   0.0000       0.029404         0.8001
  68   0.0000       0.074346         2.0230
  69   0.0000       0.120926         3.2906
  70   0.0000       0.126159         3.4330
  71   0.0000       0.129426         3.5218

MULLIKEN ATOMIC CHARGES
-----------------------
   0 S :    0.135057
   1 C :   -0.141505
   2 C :   -0.096281
   3 C :    0.056009
   4 C :   -0.177151
   5 H :   -0.012529
   6 C :    0.049374
   7 H :    0.040551
   8 H :    0.026894
   9 C :   -0.100046
  10 H :    0.043955
  11 H :    0.037804
  12 C :   -0.060914
  13 H :    0.051504
  14 H :    0.037617
  15 H :    0.014659
  16 S :    0.117091
  17 C :   -0.041513
  18 C :   -0.051282
  19 C :   -0.044868
  20 C :   -0.134320
  21 H :   -0.001412
  22 C :    0.058895
  23 H :    0.051177
  24 H :    0.019493
  25 C :   -0.017022
  26 H :    0.023924
  27 H :    0.013562
  28 C :   -0.100683
  29 H :    0.052553
  30 H :    0.043571
  31 H :    0.028539
  32 H :    0.053269
  33 H :    0.024028
Sum of atomic charges:    0.0000000

LOEWDIN ATOMIC CHARGES
----------------------
   0 S :    0.462294
   1 C :   -0.217805
   2 C :   -0.071255
   3 C :   -0.058790
   4 C :   -0.214895
   5 H :    0.024933
   6 C :   -0.035242
   7 H :    0.037871
   8 H :    0.029905
   9 C :   -0.043049
  10 H :    0.029477
  11 H :    0.025515
  12 C :   -0.070022
  13 H :    0.029393
  14 H :    0.028442
  15 H :    0.012994
  16 S :    0.433966
  17 C :   -0.193399
  18 C :   -0.067429
  19 C :   -0.055197
  20 C :   -0.204740
  21 H :    0.021915
  22 C :   -0.030279
  23 H :    0.043584
  24 H :    0.029556
  25 C :   -0.037694
  26 H :    0.015084
  27 H :    0.023334
  28 C :   -0.070734
  29 H :    0.028083
  30 H :    0.030766
  31 H :    0.023628
  32 H :    0.025209
  33 H :    0.014580

  Mayer bond orders larger than 0.100000
B(  0-S ,  1-C ) :   1.1925 B(  0-S ,  4-C ) :   1.1954 B(  1-C ,  2-C ) :   1.5091
B(  1-C ,  4-C ) :   0.1104 B(  1-C , 32-H ) :   0.9718 B(  2-C ,  3-C ) :   1.3657
B(  2-C ,  6-C ) :   1.0189 B(  3-C ,  4-C ) :   1.4505 B(  3-C ,  5-H ) :   0.9989
B(  4-C , 20-C ) :   1.0603 B(  6-C ,  7-H ) :   0.9443 B(  6-C ,  8-H ) :   0.9407
B(  6-C ,  9-C ) :   1.0644 B(  9-C , 10-H ) :   0.9599 B(  9-C , 11-H ) :   0.9593
B(  9-C , 12-C ) :   1.0689 B( 12-C , 13-H ) :   0.9734 B( 12-C , 14-H ) :   0.9752
B( 12-C , 15-H ) :   0.9758 B( 16-S , 17-C ) :   1.1734 B( 16-S , 20-C ) :   1.1489
B( 17-C , 18-C ) :   1.5921 B( 17-C , 33-H ) :   0.9742 B( 18-C , 19-C ) :   1.2519
B( 18-C , 21-H ) :   0.9990 B( 19-C , 20-C ) :   1.5716 B( 19-C , 22-C ) :   1.0344
B( 22-C , 23-H ) :   0.9203 B( 22-C , 24-H ) :   0.9398 B( 22-C , 25-C ) :   1.0831
B( 25-C , 26-H ) :   0.9511 B( 25-C , 27-H ) :   0.9496 B( 25-C , 28-C ) :   1.0650
B( 28-C , 29-H ) :   0.9788 B( 28-C , 30-H ) :   0.9761 B( 28-C , 31-H ) :   0.9771

Dispersion correction           -0.015752207
FINAL SINGLE POINT ENERGY     -1339.885102608623

DIPOLE MOMENT
-------------
                                X             Y             Z
Electronic contribution:    -25.25944      -1.33110       5.56161
Nuclear contribution   :     25.77652       1.71504      -5.54116
                        -----------------------------------------
Total Dipole Moment    :      0.51708       0.38394       0.02045
                        -----------------------------------------
Magnitude (a.u.)       :      0.64436
Magnitude (Debye)      :      1.63784

Rotational constants in cm-1:     0.022006     0.009180     0.007598
Rotational constants in MHz :   659.729253   275.221502   227.779777

                             ****ORCA TERMINATED NORMALLY****
TOTAL RUN TIME: 0 days 0 hours 0 minutes 37 seconds 285 msec
