                         Program Version 4.2.1 -  RELEASE  -
|  1> ! wB97X-D3 SP def2-SVP
|  2> %pal
|  3> nprocs 16
|  4> end
|  5>
|  6> * xyz 0 1
|  7> S 	 -15.6733 	 74.8781 	 56.3484
|  8> C 	 -16.9357 	 74.0188 	 55.4739
|  9> C 	 -16.4113 	 72.937 	 54.7304
| 10> C 	 -15.0623 	 72.6627 	 55.0513
| 11> C 	 -14.493 	 73.6625 	 55.8225
| 12> H 	 -14.5071 	 71.8397 	 54.8497
| 13> C 	 -17.2842 	 72.1571 	 53.8098
| 14> H 	 -18.28 	 72.205 	 54.3077
| 15> H 	 -16.9502 	 71.1238 	 53.7699
| 16> C 	 -17.2509 	 72.7336 	 52.3754
| 17> H 	 -17.4364 	 73.763 	 52.376
| 18> H 	 -16.1971 	 72.6625 	 51.945
| 19> C 	 -18.297 	 71.9691 	 51.421
| 20> H 	 -18.2852 	 72.3815 	 50.398
| 21> H 	 -17.8473 	 70.9686 	 51.3362
| 22> H 	 -19.3856 	 71.9163 	 51.7296
| 23> S 	 -12.6541 	 73.3635 	 57.8919
| 24> C 	 -10.9829 	 73.7058 	 57.586
| 25> C 	 -10.7957 	 74.1459 	 56.3037
| 26> C 	 -12.0263 	 74.2365 	 55.5499
| 27> C 	 -13.1179 	 73.7932 	 56.2851
| 28> H 	 -9.77136 	 74.4415 	 56.0697
| 29> C 	 -12.0895 	 74.8892 	 54.1566
| 30> H 	 -12.3309 	 75.9448 	 54.2651
| 31> H 	 -12.8788 	 74.4192 	 53.5515
| 32> C 	 -10.8208 	 74.8963 	 53.3529
| 33> H 	 -10.6253 	 73.7999 	 53.2004
| 34> H 	 -10.0277 	 75.3491 	 53.9372
| 35> C 	 -10.9253 	 75.527 	 51.9867
| 36> H 	 -11.7818 	 75.1449 	 51.4957
| 37> H 	 -10.0836 	 75.3258 	 51.346
| 38> H 	 -11.1656 	 76.5788 	 52.0648
| 39> H 	 -17.9622 	 74.2725 	 55.4223
| 40> H 	 -10.1144 	 73.5652 	 58.2615
| 41> *
| 42>
| 43>                          ****END OF INPUT****

CARTESIAN COORDINATES (ANGSTROEM)
---------------------------------
  S    -15.673300   74.878100   56.348400
  C    -16.935700   74.018800   55.473900
  C    -16.411300   72.937000   54.730400
  C    -15.062300   72.662700   55.051300
  C    -14.493000   73.662500   55.822500
  H    -14.507100   71.839700   54.849700
  C    -17.284200   72.157100   53.809800
  H    -18.280000   72.205000   54.307700
  H    -16.950200   71.123800   53.769900
  C    -17.250900   72.733600   52.375400
  H    -17.436400   73.763000   52.376000
  H    -16.197100   72.662500   51.945000
  C    -18.297000   71.969100   51.421000
  H    -18.285200   72.381500   50.398000
  H    -17.847300   70.968600   51.336200
  H    -19.385600   71.916300   51.729600
  S    -12.654100   73.363500   57.891900
  C    -10.982900   73.705800   57.586000
  C    -10.795700   74.145900   56.303700
  C    -12.026300   74.236500   55.549900
  C    -13.117900   73.793200   56.285100
  H     -9.771360   74.441500   56.069700
  C    -12.089500   74.889200   54.156600
  H    -12.330900   75.944800   54.265100
  H    -12.878800   74.419200   53.551500
  C    -10.820800   74.896300   53.352900
  H    -10.625300   73.799900   53.200400
  H    -10.027700   75.349100   53.937200
  C    -10.925300   75.527000   51.986700
  H    -11.781800   75.144900   51.495700
  H    -10.083600   75.325800   51.346000
  H    -11.165600   76.578800   52.064800
  H    -17.962200   74.272500   55.422300
  H    -10.114400   73.565200   58.261500

 Total Charge           Charge          ....    0
 Multiplicity           Mult            ....    1
 Number of Electrons    NEL             ....  134
 Basis Dimension        Dim             ....  322

ORBITAL ENERGIES
----------------

  NO   OCC          E(Eh)            E(eV)
   0   2.0000     -88.966978     -2420.9146
   1   2.0000     -88.964781     -2420.8548
   2   2.0000     -10.328372      -281.0493
   3   2.0000     -10.321619      -280.8655
   4   2.0000     -10.316311      -280.7211
   5   2.0000     -10.312530      -280.6182
   6   2.0000     -10.306458      -280.4530
   7   2.0000     -10.299920      -280.2751
   8   2.0000     -10.294226      -280.1201
   9   2.0000     -10.293315      -280.0953
  10   2.0000     -10.292678      -280.0780
  11   2.0000     -10.289418      -279.9893
  12   2.0000     -10.289289      -279.9858
  13   2.0000     -10.287779      -279.9447
  14   2.0000     -10.281902      -279.7848
  15   2.0000     -10.271039      -279.4892
  16   2.0000      -8.080982      -219.8947
  17   2.0000      -8.080168      -219.8726
  18   2.0000      -6.039419      -164.3409
  19   2.0000      -6.038658      -164.3202
  20   2.0000      -6.035580      -164.2365
  21   2.0000      -6.034471      -164.2063
  22   2.0000      -6.031889      -164.1360
  23   2.0000      -6.031019      -164.1124
  24   2.0000      -1.006134       -27.3783
  25   2.0000      -0.982826       -26.7441
  26   2.0000      -0.913992       -24.8710
  27   2.0000      -0.908247       -24.7146
  28   2.0000      -0.865735       -23.5579
  29   2.0000      -0.849282       -23.1101
  30   2.0000      -0.846287       -23.0286
  31   2.0000      -0.817314       -22.2403
  32   2.0000      -0.782917       -21.3042
  33   2.0000      -0.766466       -20.8566
  34   2.0000      -0.706035       -19.2122
  35   2.0000      -0.699653       -19.0385
  36   2.0000      -0.694974       -18.9112
  37   2.0000      -0.650708       -17.7067
  38   2.0000      -0.645281       -17.5590
  39   2.0000      -0.619425       -16.8554
  40   2.0000      -0.596332       -16.2270
  41   2.0000      -0.576156       -15.6780
  42   2.0000      -0.574491       -15.6327
  43   2.0000      -0.552777       -15.0418
  44   2.0000      -0.526159       -14.3175
  45   2.0000      -0.520657       -14.1678
  46   2.0000      -0.514968       -14.0130
  47   2.0000      -0.511271       -13.9124
  48   2.0000      -0.508356       -13.8331
  49   2.0000      -0.498172       -13.5559
  50   2.0000      -0.490639       -13.3510
  51   2.0000      -0.479572       -13.0498
  52   2.0000      -0.473335       -12.8801
  53   2.0000      -0.462543       -12.5864
  54   2.0000      -0.460526       -12.5316
  55   2.0000      -0.449957       -12.2440
  56   2.0000      -0.442282       -12.0351
  57   2.0000      -0.440190       -11.9782
  58   2.0000      -0.427345       -11.6287
  59   2.0000      -0.426743       -11.6123
  60   2.0000      -0.422764       -11.5040
  61   2.0000      -0.418352       -11.3839
  62   2.0000      -0.412502       -11.2247
  63   2.0000      -0.338373        -9.2076
  64   2.0000      -0.329920        -8.9776
  65   2.0000      -0.320083        -8.7099
  66   2.0000      -0.303786        -8.2664
  67   0.0000       0.040313         1.0970
  68   0.0000       0.057773         1.5721
  69   0.0000       0.118960         3.2371
  70   0.0000       0.127060         3.4575
  71   0.0000       0.127736         3.4759

MULLIKEN ATOMIC CHARGES
-----------------------
   0 S :    0.116384
   1 C :   -0.099950
   2 C :   -0.108715
   3 C :    0.106422
   4 C :   -0.200487
   5 H :   -0.027652
   6 C :    0.067814
   7 H :    0.034606
   8 H :    0.020150
   9 C :   -0.072783
  10 H :    0.017250
  11 H :    0.038629
  12 C :   -0.077766
  13 H :    0.039253
  14 H :    0.034228
  15 H :    0.052524
  16 S :    0.126746
  17 C :   -0.105443
  18 C :   -0.058101
  19 C :   -0.003185
  20 C :   -0.177062
  21 H :    0.024701
  22 C :    0.078337
  23 H :    0.030560
  24 H :    0.027540
  25 C :   -0.124350
  26 H :    0.029296
  27 H :    0.032545
  28 C :    0.015220
  29 H :    0.004348
  30 H :    0.038818
  31 H :    0.020473
  32 H :    0.032984
  33 H :    0.066666
Sum of atomic charges:   -0.0000000

LOEWDIN ATOMIC CHARGES
----------------------
   0 S :    0.399000
   1 C :   -0.193733
   2 C :   -0.058500
   3 C :   -0.043646
   4 C :   -0.181421
   5 H :    0.017995
   6 C :   -0.034529
   7 H :    0.037026
   8 H :    0.028109
   9 C :   -0.034332
  10 H :    0.011261
  11 H :    0.033863
  12 C :   -0.077668
  13 H :    0.026624
  14 H :    0.026128
  15 H :    0.032786
  16 S :    0.424576
  17 C :   -0.197044
  18 C :   -0.081236
  19 C :   -0.047644
  20 C :   -0.225158
  21 H :    0.034140
  22 C :   -0.032508
  23 H :    0.031729
  24 H :    0.031027
  25 C :   -0.047390
  26 H :    0.028038
  27 H :    0.019042
  28 C :   -0.058995
  29 H :    0.020258
  30 H :    0.028751
  31 H :    0.024367
  32 H :    0.018766
  33 H :    0.040316

  Mayer bond orders larger than 0.100000
B(  0-S ,  1-C ) :   1.1419 B(  0-S ,  4-C ) :   1.1567 B(  1-C ,  2-C ) :   1.5953
B(  1-C ,  4-C ) :   0.1069 B(  1-C , 32-H ) :   0.9712 B(  2-C ,  3-C ) :   1.2318
B(  2-C ,  6-C ) :   1.0322 B(  3-C ,  4-C ) :   1.5864 B(  3-C ,  5-H ) :   1.0117
B(  4-C , 20-C ) :   1.0123 B(  6-C ,  7-H ) :   0.9429 B(  6-C ,  8-H ) :   0.9382
B(  6-C ,  9-C ) :   1.0504 B(  9-C , 10-H ) :   0.9619 B(  9-C , 11-H ) :   0.9559
B(  9-C , 12-C ) :   1.0610 B( 12-C , 13-H ) :   0.9772 B( 12-C , 14-H ) :   0.9768
B( 12-C , 15-H ) :   0.9784 B( 16-S , 17-C ) :   1.1590 B( 16-S , 20-C ) :   1.1524
B( 17-C , 18-C ) :   1.6316 B( 17-C , 33-H ) :   0.9572 B( 18-C , 19-C ) :   1.2279
B( 18-C , 21-H ) :   0.9870 B( 19-C , 20-C ) :   1.6010 B( 19-C , 22-C ) :   1.0358
B( 22-C , 23-H ) :   0.9291 B( 22-C , 24-H ) :   0.9290 B( 22-C , 25-C ) :   1.0793
B( 25-C , 26-H ) :   0.9574 B( 25-C , 27-H ) :   0.9446 B( 25-C , 28-C ) :   1.0938
B( 28-C , 29-H ) :   0.9664 B( 28-C , 30-H ) :   0.9713 B( 28-C , 31-H ) :   0.9684

Dispersion correction           -0.013649705
FINAL SINGLE POINT ENERGY     -1339.878545096368

DIPOLE MOMENT
-------------
                                X             Y             Z
Electronic contribution:      2.15603       2.14607      29.60342
Nuclear contribution   :     -2.04749      -2.24364     -30.16814
                        -----------------------------------------
Total Dipole Moment    :      0.10855      -0.09757      -0.56472
                        -----------------------------------------
Magnitude (a.u.)       :      0.58327
Magnitude (Debye)      :      1.48257

Rotational constants in cm-1:     0.017361     0.008237     0.006287
Rotational constants in MHz :   520.455802   246.949661   188.486749

                             ****ORCA TERMINATED NORMALLY****
TOTAL RUN TIME: 0 days 0 hours 0 minutes 33 seconds 131 msec
