                         Program Version 4.2.1 -  RELEASE  -
|  1> ! wB97X-D3 SP def2-SVP
|  2> %pal
|  3> nprocs 16
|  4> end
|  5>
|  6> * xyz 0 1
|  7> S 	 -2.67726 	 -22.7927 	 60.3933
|  8> C 	 -1.4239 	 -21.6747 	 60.8049
|  9> C 	 -0.169319 	 -22.201 	 60.4559
| 10> C 	 -0.263085 	 -23.6123 	 60.0939
| 11> C 	 -1.52485 	 -24.0806 	 59.9455
| 12> H 	 0.516796 	 -24.277 	 59.9209
| 13> C 	 1.22248 	 -21.5884 	 60.751
| 14> H 	 1.84849 	 -22.4095 	 61.1216
| 15> H 	 1.12935 	 -21.134 	 61.6619
| 16> C 	 1.83269 	 -20.6397 	 59.6682
| 17> H 	 2.68849 	 -20.1028 	 60.0996
| 18> H 	 2.18425 	 -21.2611 	 58.7828
| 19> C 	 0.878732 	 -19.4952 	 59.1148
| 20> H 	 1.26567 	 -19.0715 	 58.1477
| 21> H 	 -0.122266 	 -19.8 	 58.7915
| 22> H 	 0.650961 	 -18.6346 	 59.735
| 23> S 	 -3.19849 	 -25.884 	 61.0579
| 24> C 	 -3.15846 	 -27.549 	 60.539
| 25> C 	 -2.24695 	 -27.7294 	 59.5723
| 26> C 	 -1.57629 	 -26.5683 	 59.1522
| 27> C 	 -1.99923 	 -25.4271 	 59.8733
| 28> H 	 -2.1159 	 -28.7173 	 59.269
| 29> C 	 -0.447263 	 -26.6386 	 58.1083
| 30> H 	 0.521274 	 -26.942 	 58.4858
| 31> H 	 -0.330533 	 -25.5171 	 58.0293
| 32> C 	 -0.76656 	 -27.3636 	 56.7976
| 33> H 	 -1.71499 	 -27.02 	 56.3774
| 34> H 	 -0.84737 	 -28.4524 	 56.9033
| 35> C 	 0.361118 	 -27.1419 	 55.7308
| 36> H 	 1.28017 	 -27.5071 	 56.1227
| 37> H 	 0.615314 	 -26.1095 	 55.422
| 38> H 	 0.190854 	 -27.6825 	 54.8252
| 39> H 	 -1.56554 	 -20.5906 	 61.1016
| 40> H 	 -3.74717 	 -28.3067 	 60.9473
| 41> *
| 42>
| 43>                          ****END OF INPUT****

CARTESIAN COORDINATES (ANGSTROEM)
---------------------------------
  S     -2.677260  -22.792700   60.393300
  C     -1.423900  -21.674700   60.804900
  C     -0.169319  -22.201000   60.455900
  C     -0.263085  -23.612300   60.093900
  C     -1.524850  -24.080600   59.945500
  H      0.516796  -24.277000   59.920900
  C      1.222480  -21.588400   60.751000
  H      1.848490  -22.409500   61.121600
  H      1.129350  -21.134000   61.661900
  C      1.832690  -20.639700   59.668200
  H      2.688490  -20.102800   60.099600
  H      2.184250  -21.261100   58.782800
  C      0.878732  -19.495200   59.114800
  H      1.265670  -19.071500   58.147700
  H     -0.122266  -19.800000   58.791500
  H      0.650961  -18.634600   59.735000
  S     -3.198490  -25.884000   61.057900
  C     -3.158460  -27.549000   60.539000
  C     -2.246950  -27.729400   59.572300
  C     -1.576290  -26.568300   59.152200
  C     -1.999230  -25.427100   59.873300
  H     -2.115900  -28.717300   59.269000
  C     -0.447263  -26.638600   58.108300
  H      0.521274  -26.942000   58.485800
  H     -0.330533  -25.517100   58.029300
  C     -0.766560  -27.363600   56.797600
  H     -1.714990  -27.020000   56.377400
  H     -0.847370  -28.452400   56.903300
  C      0.361118  -27.141900   55.730800
  H      1.280170  -27.507100   56.122700
  H      0.615314  -26.109500   55.422000
  H      0.190854  -27.682500   54.825200
  H     -1.565540  -20.590600   61.101600
  H     -3.747170  -28.306700   60.947300

 Total Charge           Charge          ....    0
 Multiplicity           Mult            ....    1
 Number of Electrons    NEL             ....  134
 Basis Dimension        Dim             ....  322

ORBITAL ENERGIES
----------------

  NO   OCC          E(Eh)            E(eV)
   0   2.0000     -88.964105     -2420.8364
   1   2.0000     -88.963015     -2420.8067
   2   2.0000     -10.327903      -281.0365
   3   2.0000     -10.327420      -281.0234
   4   2.0000     -10.323294      -280.9111
   5   2.0000     -10.307900      -280.4922
   6   2.0000     -10.306123      -280.4439
   7   2.0000     -10.304307      -280.3945
   8   2.0000     -10.303998      -280.3860
   9   2.0000     -10.296083      -280.1707
  10   2.0000     -10.292598      -280.0758
  11   2.0000     -10.291499      -280.0459
  12   2.0000     -10.290963      -280.0314
  13   2.0000     -10.283238      -279.8211
  14   2.0000     -10.280271      -279.7404
  15   2.0000     -10.275289      -279.6048
  16   2.0000      -8.078892      -219.8378
  17   2.0000      -8.078078      -219.8157
  18   2.0000      -6.037554      -164.2902
  19   2.0000      -6.036590      -164.2640
  20   2.0000      -6.033305      -164.1746
  21   2.0000      -6.032472      -164.1519
  22   2.0000      -6.029536      -164.0720
  23   2.0000      -6.028845      -164.0532
  24   2.0000      -1.009836       -27.4790
  25   2.0000      -0.983906       -26.7734
  26   2.0000      -0.904503       -24.6128
  27   2.0000      -0.901653       -24.5352
  28   2.0000      -0.873663       -23.7736
  29   2.0000      -0.851138       -23.1606
  30   2.0000      -0.840663       -22.8756
  31   2.0000      -0.818021       -22.2595
  32   2.0000      -0.783836       -21.3293
  33   2.0000      -0.772389       -21.0178
  34   2.0000      -0.712322       -19.3833
  35   2.0000      -0.703895       -19.1540
  36   2.0000      -0.699967       -19.0471
  37   2.0000      -0.660822       -17.9819
  38   2.0000      -0.642419       -17.4811
  39   2.0000      -0.621079       -16.9004
  40   2.0000      -0.598782       -16.2937
  41   2.0000      -0.567851       -15.4520
  42   2.0000      -0.561114       -15.2687
  43   2.0000      -0.542438       -14.7605
  44   2.0000      -0.537922       -14.6376
  45   2.0000      -0.527254       -14.3473
  46   2.0000      -0.513849       -13.9826
  47   2.0000      -0.511450       -13.9173
  48   2.0000      -0.505831       -13.7644
  49   2.0000      -0.496610       -13.5134
  50   2.0000      -0.490159       -13.3379
  51   2.0000      -0.479370       -13.0443
  52   2.0000      -0.469756       -12.7827
  53   2.0000      -0.462795       -12.5933
  54   2.0000      -0.456710       -12.4277
  55   2.0000      -0.445731       -12.1290
  56   2.0000      -0.444992       -12.1089
  57   2.0000      -0.437351       -11.9009
  58   2.0000      -0.433345       -11.7919
  59   2.0000      -0.423842       -11.5333
  60   2.0000      -0.421534       -11.4705
  61   2.0000      -0.412530       -11.2255
  62   2.0000      -0.411899       -11.2083
  63   2.0000      -0.359238        -9.7754
  64   2.0000      -0.330993        -9.0068
  65   2.0000      -0.327165        -8.9026
  66   2.0000      -0.289510        -7.8780
  67   0.0000       0.024920         0.6781
  68   0.0000       0.075194         2.0461
  69   0.0000       0.113121         3.0782
  70   0.0000       0.120460         3.2779
  71   0.0000       0.130940         3.5631

MULLIKEN ATOMIC CHARGES
-----------------------
   0 S :    0.094435
   1 C :   -0.129437
   2 C :   -0.111895
   3 C :    0.046196
   4 C :   -0.151162
   5 H :   -0.010798
   6 C :    0.086946
   7 H :    0.022967
   8 H :   -0.001954
   9 C :   -0.051407
  10 H :    0.041582
  11 H :    0.048403
  12 C :   -0.092041
  13 H :    0.034466
  14 H :    0.032279
  15 H :    0.030824
  16 S :    0.103310
  17 C :   -0.067738
  18 C :   -0.011232
  19 C :   -0.025210
  20 C :   -0.135616
  21 H :   -0.009356
  22 C :    0.047918
  23 H :    0.033665
  24 H :    0.026011
  25 C :   -0.065987
  26 H :    0.035943
  27 H :    0.037319
  28 C :   -0.039514
  29 H :    0.010418
  30 H :    0.032155
  31 H :    0.026690
  32 H :    0.080887
  33 H :    0.030931
Sum of atomic charges:   -0.0000000

LOEWDIN ATOMIC CHARGES
----------------------
   0 S :    0.393461
   1 C :   -0.207713
   2 C :   -0.061218
   3 C :   -0.051047
   4 C :   -0.185966
   5 H :    0.020571
   6 C :   -0.037176
   7 H :    0.037769
   8 H :    0.019220
   9 C :   -0.035961
  10 H :    0.029169
  11 H :    0.034275
  12 C :   -0.082712
  13 H :    0.033347
  14 H :    0.023966
  15 H :    0.021472
  16 S :    0.411832
  17 C :   -0.172674
  18 C :   -0.068135
  19 C :   -0.057399
  20 C :   -0.200195
  21 H :    0.023295
  22 C :   -0.038968
  23 H :    0.027516
  24 H :    0.038375
  25 C :   -0.035669
  26 H :    0.027074
  27 H :    0.026806
  28 C :   -0.064530
  29 H :    0.017416
  30 H :    0.027570
  31 H :    0.022237
  32 H :    0.045663
  33 H :    0.018328

  Mayer bond orders larger than 0.100000
B(  0-S ,  1-C ) :   1.1466 B(  0-S ,  4-C ) :   1.1207 B(  1-C ,  2-C ) :   1.6095
B(  1-C , 32-H ) :   0.9568 B(  2-C ,  3-C ) :   1.2216 B(  2-C ,  6-C ) :   1.0090
B(  3-C ,  4-C ) :   1.5984 B(  3-C ,  5-H ) :   0.9963 B(  4-C , 20-C ) :   1.0557
B(  6-C ,  7-H ) :   0.9465 B(  6-C ,  8-H ) :   0.9400 B(  6-C ,  9-C ) :   1.0499
B(  9-C , 10-H ) :   0.9580 B(  9-C , 11-H ) :   0.9607 B(  9-C , 12-C ) :   1.0648
B( 12-C , 13-H ) :   0.9760 B( 12-C , 14-H ) :   0.9729 B( 12-C , 15-H ) :   0.9791
B( 16-S , 17-C ) :   1.1450 B( 16-S , 20-C ) :   1.1525 B( 17-C , 18-C ) :   1.6184
B( 17-C , 33-H ) :   0.9735 B( 18-C , 19-C ) :   1.2380 B( 18-C , 21-H ) :   1.0049
B( 19-C , 20-C ) :   1.5661 B( 19-C , 22-C ) :   1.0276 B( 22-C , 23-H ) :   0.9396
B( 22-C , 24-H ) :   0.9322 B( 22-C , 25-C ) :   1.0586 B( 25-C , 26-H ) :   0.9594
B( 25-C , 27-H ) :   0.9511 B( 25-C , 28-C ) :   1.0815 B( 28-C , 29-H ) :   0.9728
B( 28-C , 30-H ) :   0.9779 B( 28-C , 31-H ) :   0.9761

Dispersion correction           -0.013686449
FINAL SINGLE POINT ENERGY     -1339.860645982854

DIPOLE MOMENT
-------------
                                X             Y             Z
Electronic contribution:    -21.82309      -4.87922      16.61699
Nuclear contribution   :     22.45208       4.74980     -16.70004
                        -----------------------------------------
Total Dipole Moment    :      0.62899      -0.12942      -0.08305
                        -----------------------------------------
Magnitude (a.u.)       :      0.64752
Magnitude (Debye)      :      1.64587

Rotational constants in cm-1:     0.017977     0.008301     0.006158
Rotational constants in MHz :   538.950768   248.856048   184.604576

                             ****ORCA TERMINATED NORMALLY****
TOTAL RUN TIME: 0 days 0 hours 0 minutes 34 seconds 29 msec
