                         Program Version 4.2.1 -  RELEASE  -
|  1> ! wB97X-D3 SP def2-SVP
|  2> %pal
|  3> nprocs 16
|  4> end
|  5>
|  6> * xyz 0 1
|  7> S 	 13.6021 	 -2.91107 	 64.2356
|  8> C 	 13.5076 	 -4.22409 	 63.0479
|  9> C 	 14.1853 	 -3.97375 	 61.8801
| 10> C 	 14.887 	 -2.7454 	 62.0022
| 11> C 	 14.7303 	 -2.0471 	 63.1607
| 12> H 	 15.623 	 -2.34577 	 61.3941
| 13> C 	 14.324 	 -4.93649 	 60.7093
| 14> H 	 13.9153 	 -4.43932 	 59.9424
| 15> H 	 13.6765 	 -5.81064 	 60.8545
| 16> C 	 15.7603 	 -5.14683 	 60.2473
| 17> H 	 16.1709 	 -4.28246 	 59.8351
| 18> H 	 16.4471 	 -5.32203 	 61.0587
| 19> C 	 15.8497 	 -6.25753 	 59.1702
| 20> H 	 16.8852 	 -6.29151 	 58.785
| 21> H 	 15.7305 	 -7.33033 	 59.5913
| 22> H 	 15.2212 	 -6.24504 	 58.3155
| 23> S 	 16.9766 	 -0.999869 	 64.343
| 24> C 	 17.2655 	 0.746542 	 64.0758
| 25> C 	 16.1301 	 1.45692 	 63.7576
| 26> C 	 15.0875 	 0.563598 	 63.4276
| 27> C 	 15.3499 	 -0.809879 	 63.6419
| 28> H 	 16.1738 	 2.5354 	 63.6622
| 29> C 	 13.7229 	 0.94712 	 62.8146
| 30> H 	 12.9984 	 0.133569 	 62.9709
| 31> H 	 13.9372 	 0.990511 	 61.7794
| 32> C 	 13.1543 	 2.28612 	 63.2736
| 33> H 	 12.2216 	 2.50138 	 62.8072
| 34> H 	 13.8116 	 3.09518 	 63.0041
| 35> C 	 12.9894 	 2.37899 	 64.8292
| 36> H 	 13.8834 	 2.41292 	 65.428
| 37> H 	 12.4385 	 1.51953 	 65.2625
| 38> H 	 12.5091 	 3.3388 	 65.03
| 39> H 	 12.8637 	 -5.14563 	 63.2675
| 40> H 	 18.1733 	 1.28814 	 64.3426
| 41> *
| 42>
| 43>                          ****END OF INPUT****

CARTESIAN COORDINATES (ANGSTROEM)
---------------------------------
  S     13.602100   -2.911070   64.235600
  C     13.507600   -4.224090   63.047900
  C     14.185300   -3.973750   61.880100
  C     14.887000   -2.745400   62.002200
  C     14.730300   -2.047100   63.160700
  H     15.623000   -2.345770   61.394100
  C     14.324000   -4.936490   60.709300
  H     13.915300   -4.439320   59.942400
  H     13.676500   -5.810640   60.854500
  C     15.760300   -5.146830   60.247300
  H     16.170900   -4.282460   59.835100
  H     16.447100   -5.322030   61.058700
  C     15.849700   -6.257530   59.170200
  H     16.885200   -6.291510   58.785000
  H     15.730500   -7.330330   59.591300
  H     15.221200   -6.245040   58.315500
  S     16.976600   -0.999869   64.343000
  C     17.265500    0.746542   64.075800
  C     16.130100    1.456920   63.757600
  C     15.087500    0.563598   63.427600
  C     15.349900   -0.809879   63.641900
  H     16.173800    2.535400   63.662200
  C     13.722900    0.947120   62.814600
  H     12.998400    0.133569   62.970900
  H     13.937200    0.990511   61.779400
  C     13.154300    2.286120   63.273600
  H     12.221600    2.501380   62.807200
  H     13.811600    3.095180   63.004100
  C     12.989400    2.378990   64.829200
  H     13.883400    2.412920   65.428000
  H     12.438500    1.519530   65.262500
  H     12.509100    3.338800   65.030000
  H     12.863700   -5.145630   63.267500
  H     18.173300    1.288140   64.342600

 Total Charge           Charge          ....    0
 Multiplicity           Mult            ....    1
 Number of Electrons    NEL             ....  134
 Basis Dimension        Dim             ....  322

ORBITAL ENERGIES
----------------

  NO   OCC          E(Eh)            E(eV)
   0   2.0000     -88.964995     -2420.8606
   1   2.0000     -88.959636     -2420.7148
   2   2.0000     -10.327455      -281.0244
   3   2.0000     -10.325706      -280.9768
   4   2.0000     -10.322458      -280.8883
   5   2.0000     -10.318730      -280.7869
   6   2.0000     -10.308945      -280.5206
   7   2.0000     -10.300921      -280.3023
   8   2.0000     -10.297216      -280.2015
   9   2.0000     -10.287812      -279.9456
  10   2.0000     -10.285896      -279.8935
  11   2.0000     -10.285640      -279.8865
  12   2.0000     -10.285187      -279.8742
  13   2.0000     -10.284719      -279.8614
  14   2.0000     -10.284069      -279.8437
  15   2.0000     -10.274028      -279.5705
  16   2.0000      -8.078700      -219.8326
  17   2.0000      -8.073908      -219.7022
  18   2.0000      -6.037220      -164.2811
  19   2.0000      -6.033434      -164.1781
  20   2.0000      -6.032311      -164.1475
  21   2.0000      -6.029412      -164.0686
  22   2.0000      -6.028547      -164.0451
  23   2.0000      -6.024748      -163.9417
  24   2.0000      -1.000171       -27.2160
  25   2.0000      -0.979347       -26.6494
  26   2.0000      -0.915232       -24.9047
  27   2.0000      -0.903561       -24.5871
  28   2.0000      -0.868980       -23.6461
  29   2.0000      -0.844735       -22.9864
  30   2.0000      -0.839962       -22.8565
  31   2.0000      -0.817632       -22.2489
  32   2.0000      -0.784730       -21.3536
  33   2.0000      -0.769667       -20.9437
  34   2.0000      -0.716455       -19.4957
  35   2.0000      -0.700660       -19.0659
  36   2.0000      -0.691724       -18.8228
  37   2.0000      -0.655016       -17.8239
  38   2.0000      -0.646613       -17.5952
  39   2.0000      -0.618602       -16.8330
  40   2.0000      -0.590579       -16.0705
  41   2.0000      -0.574275       -15.6268
  42   2.0000      -0.559311       -15.2196
  43   2.0000      -0.554470       -15.0879
  44   2.0000      -0.538734       -14.6597
  45   2.0000      -0.525315       -14.2945
  46   2.0000      -0.513395       -13.9702
  47   2.0000      -0.508123       -13.8267
  48   2.0000      -0.503898       -13.7118
  49   2.0000      -0.492605       -13.4045
  50   2.0000      -0.491310       -13.3692
  51   2.0000      -0.472321       -12.8525
  52   2.0000      -0.466084       -12.6828
  53   2.0000      -0.464705       -12.6453
  54   2.0000      -0.462624       -12.5886
  55   2.0000      -0.451108       -12.2753
  56   2.0000      -0.447324       -12.1723
  57   2.0000      -0.436005       -11.8643
  58   2.0000      -0.428906       -11.6711
  59   2.0000      -0.422331       -11.4922
  60   2.0000      -0.420670       -11.4470
  61   2.0000      -0.418636       -11.3917
  62   2.0000      -0.415140       -11.2965
  63   2.0000      -0.339511        -9.2386
  64   2.0000      -0.329202        -8.9580
  65   2.0000      -0.314656        -8.5622
  66   2.0000      -0.307862        -8.3773
  67   0.0000       0.041171         1.1203
  68   0.0000       0.051485         1.4010
  69   0.0000       0.109462         2.9786
  70   0.0000       0.119620         3.2550
  71   0.0000       0.132368         3.6019

MULLIKEN ATOMIC CHARGES
-----------------------
   0 S :    0.091122
   1 C :   -0.168801
   2 C :   -0.076082
   3 C :    0.068417
   4 C :   -0.189514
   5 H :   -0.019602
   6 C :    0.172483
   7 H :   -0.004853
   8 H :    0.020325
   9 C :   -0.059267
  10 H :    0.017394
  11 H :    0.031227
  12 C :   -0.077338
  13 H :    0.030904
  14 H :    0.037240
  15 H :    0.028970
  16 S :    0.103730
  17 C :   -0.095252
  18 C :   -0.039084
  19 C :   -0.039138
  20 C :   -0.173905
  21 H :    0.028111
  22 C :    0.102137
  23 H :    0.036963
  24 H :    0.027193
  25 C :   -0.052007
  26 H :    0.027036
  27 H :    0.016633
  28 C :   -0.071766
  29 H :    0.029002
  30 H :    0.038553
  31 H :    0.030774
  32 H :    0.072544
  33 H :    0.055851
Sum of atomic charges:    0.0000000

LOEWDIN ATOMIC CHARGES
----------------------
   0 S :    0.371181
   1 C :   -0.193790
   2 C :   -0.063455
   3 C :   -0.051825
   4 C :   -0.186231
   5 H :    0.021315
   6 C :   -0.019236
   7 H :    0.020230
   8 H :    0.034326
   9 C :   -0.031129
  10 H :    0.018262
  11 H :    0.026454
  12 C :   -0.071337
  13 H :    0.028886
  14 H :    0.033297
  15 H :    0.017955
  16 S :    0.381228
  17 C :   -0.162893
  18 C :   -0.077679
  19 C :   -0.038692
  20 C :   -0.209778
  21 H :    0.036935
  22 C :   -0.027919
  23 H :    0.032022
  24 H :    0.029949
  25 C :   -0.036431
  26 H :    0.023799
  27 H :    0.019330
  28 C :   -0.069988
  29 H :    0.021619
  30 H :    0.028984
  31 H :    0.025887
  32 H :    0.039758
  33 H :    0.028965

  Mayer bond orders larger than 0.100000
B(  0-S ,  1-C ) :   1.1400 B(  0-S ,  4-C ) :   1.1261 B(  1-C ,  2-C ) :   1.6390
B(  1-C , 32-H ) :   0.9556 B(  2-C ,  3-C ) :   1.1909 B(  2-C ,  6-C ) :   1.0223
B(  3-C ,  4-C ) :   1.6501 B(  3-C ,  5-H ) :   1.0027 B(  4-C , 20-C ) :   0.9918
B(  6-C ,  7-H ) :   0.9077 B(  6-C ,  8-H ) :   0.9475 B(  6-C ,  9-C ) :   1.0591
B(  9-C , 10-H ) :   0.9446 B(  9-C , 11-H ) :   0.9608 B(  9-C , 12-C ) :   1.0823
B( 12-C , 13-H ) :   0.9743 B( 12-C , 14-H ) :   0.9769 B( 12-C , 15-H ) :   0.9777
B( 16-S , 17-C ) :   1.1663 B( 16-S , 20-C ) :   1.1220 B( 17-C , 18-C ) :   1.6166
B( 17-C , 20-C ) :   0.1045 B( 17-C , 33-H ) :   0.9584 B( 18-C , 19-C ) :   1.2355
B( 18-C , 21-H ) :   0.9896 B( 19-C , 20-C ) :   1.6094 B( 19-C , 22-C ) :   1.0140
B( 22-C , 23-H ) :   0.9391 B( 22-C , 24-H ) :   0.9270 B( 22-C , 25-C ) :   1.0865
B( 25-C , 26-H ) :   0.9560 B( 25-C , 27-H ) :   0.9477 B( 25-C , 28-C ) :   1.0744
B( 28-C , 29-H ) :   0.9737 B( 28-C , 30-H ) :   0.9778 B( 28-C , 31-H ) :   0.9755

Dispersion correction           -0.014269693
FINAL SINGLE POINT ENERGY     -1339.860056990791

DIPOLE MOMENT
-------------
                                X             Y             Z
Electronic contribution:      5.20797      -0.29589      14.69421
Nuclear contribution   :     -5.16797       0.51728     -15.32722
                        -----------------------------------------
Total Dipole Moment    :      0.03999       0.22139      -0.63301
                        -----------------------------------------
Magnitude (a.u.)       :      0.67180
Magnitude (Debye)      :      1.70759

Rotational constants in cm-1:     0.022453     0.007114     0.006513
Rotational constants in MHz :   673.121517   213.270536   195.258416

                             ****ORCA TERMINATED NORMALLY****
TOTAL RUN TIME: 0 days 0 hours 0 minutes 34 seconds 427 msec
