                         Program Version 4.2.1 -  RELEASE  -
|  1> ! wB97X-D3 SP def2-SVP
|  2> %pal
|  3> nprocs 16
|  4> end
|  5>
|  6> * xyz 0 1
|  7> S 	 44.7548 	 20.6464 	 46.541
|  8> C 	 43.1813 	 20.5682 	 45.7311
|  9> C 	 42.1012 	 20.6827 	 46.5723
| 10> C 	 42.5659 	 20.8202 	 47.9428
| 11> C 	 43.9552 	 20.8655 	 48.0813
| 12> H 	 42.0148 	 20.8072 	 48.7957
| 13> C 	 40.6052 	 20.5023 	 46.1275
| 14> H 	 40.6161 	 19.8469 	 45.1905
| 15> H 	 40.5016 	 21.4601 	 45.7192
| 16> C 	 39.5874 	 20.3796 	 47.2042
| 17> H 	 39.5911 	 21.134 	 47.9771
| 18> H 	 38.6091 	 20.5719 	 46.6697
| 19> C 	 39.4328 	 18.8831 	 47.7859
| 20> H 	 38.505 	 18.9262 	 48.3947
| 21> H 	 39.2556 	 18.1287 	 47.1436
| 22> H 	 40.1971 	 18.6857 	 48.493
| 23> S 	 45.8217 	 22.1467 	 49.7087
| 24> C 	 46.168 	 21.5704 	 51.3648
| 25> C 	 45.6269 	 20.3067 	 51.4478
| 26> C 	 44.6922 	 19.906 	 50.3775
| 27> C 	 44.6394 	 20.8855 	 49.3814
| 28> H 	 45.7889 	 19.7861 	 52.3829
| 29> C 	 43.9578 	 18.5778 	 50.3812
| 30> H 	 44.6623 	 17.8669 	 49.9874
| 31> H 	 43.0435 	 18.6128 	 49.6999
| 32> C 	 43.494 	 18.0426 	 51.7785
| 33> H 	 44.3359 	 17.9888 	 52.4936
| 34> H 	 43.1703 	 16.9507 	 51.7035
| 35> C 	 42.344 	 18.893 	 52.2722
| 36> H 	 42.0836 	 18.5458 	 53.2595
| 37> H 	 41.4913 	 18.7186 	 51.5827
| 38> H 	 42.5763 	 19.9493 	 52.2477
| 39> H 	 42.9843 	 20.6025 	 44.6656
| 40> H 	 46.9805 	 21.9781 	 51.9713
| 41> *
| 42>
| 43>                          ****END OF INPUT****

CARTESIAN COORDINATES (ANGSTROEM)
---------------------------------
  S     44.754800   20.646400   46.541000
  C     43.181300   20.568200   45.731100
  C     42.101200   20.682700   46.572300
  C     42.565900   20.820200   47.942800
  C     43.955200   20.865500   48.081300
  H     42.014800   20.807200   48.795700
  C     40.605200   20.502300   46.127500
  H     40.616100   19.846900   45.190500
  H     40.501600   21.460100   45.719200
  C     39.587400   20.379600   47.204200
  H     39.591100   21.134000   47.977100
  H     38.609100   20.571900   46.669700
  C     39.432800   18.883100   47.785900
  H     38.505000   18.926200   48.394700
  H     39.255600   18.128700   47.143600
  H     40.197100   18.685700   48.493000
  S     45.821700   22.146700   49.708700
  C     46.168000   21.570400   51.364800
  C     45.626900   20.306700   51.447800
  C     44.692200   19.906000   50.377500
  C     44.639400   20.885500   49.381400
  H     45.788900   19.786100   52.382900
  C     43.957800   18.577800   50.381200
  H     44.662300   17.866900   49.987400
  H     43.043500   18.612800   49.699900
  C     43.494000   18.042600   51.778500
  H     44.335900   17.988800   52.493600
  H     43.170300   16.950700   51.703500
  C     42.344000   18.893000   52.272200
  H     42.083600   18.545800   53.259500
  H     41.491300   18.718600   51.582700
  H     42.576300   19.949300   52.247700
  H     42.984300   20.602500   44.665600
  H     46.980500   21.978100   51.971300

 Total Charge           Charge          ....    0
 Multiplicity           Mult            ....    1
 Number of Electrons    NEL             ....  134
 Basis Dimension        Dim             ....  322

ORBITAL ENERGIES
----------------

  NO   OCC          E(Eh)            E(eV)
   0   2.0000     -88.968491     -2420.9557
   1   2.0000     -88.958948     -2420.6961
   2   2.0000     -10.329698      -281.0854
   3   2.0000     -10.329090      -281.0688
   4   2.0000     -10.322541      -280.8906
   5   2.0000     -10.311889      -280.6008
   6   2.0000     -10.310139      -280.5532
   7   2.0000     -10.303323      -280.3677
   8   2.0000     -10.300845      -280.3002
   9   2.0000     -10.299274      -280.2575
  10   2.0000     -10.298463      -280.2354
  11   2.0000     -10.296653      -280.1862
  12   2.0000     -10.293727      -280.1066
  13   2.0000     -10.289225      -279.9841
  14   2.0000     -10.275256      -279.6039
  15   2.0000     -10.274946      -279.5955
  16   2.0000      -8.082481      -219.9355
  17   2.0000      -8.073377      -219.6878
  18   2.0000      -6.041133      -164.3876
  19   2.0000      -6.037158      -164.2794
  20   2.0000      -6.033072      -164.1682
  21   2.0000      -6.031997      -164.1390
  22   2.0000      -6.027933      -164.0284
  23   2.0000      -6.024007      -163.9216
  24   2.0000      -0.998928       -27.1822
  25   2.0000      -0.976426       -26.5699
  26   2.0000      -0.911350       -24.7991
  27   2.0000      -0.906252       -24.6604
  28   2.0000      -0.868260       -23.6266
  29   2.0000      -0.844607       -22.9829
  30   2.0000      -0.838569       -22.8186
  31   2.0000      -0.816805       -22.2264
  32   2.0000      -0.789855       -21.4930
  33   2.0000      -0.771870       -21.0037
  34   2.0000      -0.713481       -19.4148
  35   2.0000      -0.696251       -18.9460
  36   2.0000      -0.691153       -18.8072
  37   2.0000      -0.650538       -17.7020
  38   2.0000      -0.640366       -17.4253
  39   2.0000      -0.618086       -16.8190
  40   2.0000      -0.594396       -16.1743
  41   2.0000      -0.566954       -15.4276
  42   2.0000      -0.557012       -15.1571
  43   2.0000      -0.549511       -14.9529
  44   2.0000      -0.538540       -14.6544
  45   2.0000      -0.535323       -14.5669
  46   2.0000      -0.525562       -14.3013
  47   2.0000      -0.518116       -14.0987
  48   2.0000      -0.497494       -13.5375
  49   2.0000      -0.494198       -13.4478
  50   2.0000      -0.488744       -13.2994
  51   2.0000      -0.482145       -13.1198
  52   2.0000      -0.471434       -12.8284
  53   2.0000      -0.465511       -12.6672
  54   2.0000      -0.457979       -12.4622
  55   2.0000      -0.449541       -12.2326
  56   2.0000      -0.446104       -12.1391
  57   2.0000      -0.439968       -11.9721
  58   2.0000      -0.430988       -11.7278
  59   2.0000      -0.424764       -11.5584
  60   2.0000      -0.422698       -11.5022
  61   2.0000      -0.408049       -11.1036
  62   2.0000      -0.407061       -11.0767
  63   2.0000      -0.337363        -9.1801
  64   2.0000      -0.328111        -8.9283
  65   2.0000      -0.322260        -8.7691
  66   2.0000      -0.299589        -8.1522
  67   0.0000       0.034681         0.9437
  68   0.0000       0.061110         1.6629
  69   0.0000       0.112555         3.0628
  70   0.0000       0.115702         3.1484
  71   0.0000       0.125214         3.4072

MULLIKEN ATOMIC CHARGES
-----------------------
   0 S :    0.127093
   1 C :   -0.135545
   2 C :   -0.101807
   3 C :    0.050893
   4 C :   -0.140403
   5 H :   -0.035123
   6 C :    0.099109
   7 H :    0.048175
   8 H :    0.022585
   9 C :   -0.096215
  10 H :    0.039561
  11 H :    0.034700
  12 C :   -0.010607
  13 H :    0.023831
  14 H :    0.016905
  15 H :    0.028789
  16 S :    0.076256
  17 C :   -0.099167
  18 C :   -0.040680
  19 C :   -0.039168
  20 C :   -0.177291
  21 H :    0.026002
  22 C :    0.060146
  23 H :    0.041210
  24 H :    0.041215
  25 C :   -0.117415
  26 H :    0.031251
  27 H :    0.038007
  28 C :   -0.031129
  29 H :    0.031479
  30 H :    0.026709
  31 H :    0.044875
  32 H :    0.039526
  33 H :    0.076231
Sum of atomic charges:    0.0000000

LOEWDIN ATOMIC CHARGES
----------------------
   0 S :    0.402236
   1 C :   -0.203182
   2 C :   -0.055548
   3 C :   -0.053009
   4 C :   -0.194756
   5 H :    0.009311
   6 C :   -0.038861
   7 H :    0.045385
   8 H :    0.031842
   9 C :   -0.039750
  10 H :    0.029238
  11 H :    0.036190
  12 C :   -0.052780
  13 H :    0.031896
  14 H :    0.009740
  15 H :    0.018099
  16 S :    0.377387
  17 C :   -0.176153
  18 C :   -0.072129
  19 C :   -0.053374
  20 C :   -0.198577
  21 H :    0.028223
  22 C :   -0.035207
  23 H :    0.034766
  24 H :    0.038671
  25 C :   -0.047740
  26 H :    0.018880
  27 H :    0.031717
  28 C :   -0.063895
  29 H :    0.023528
  30 H :    0.027490
  31 H :    0.025940
  32 H :    0.026974
  33 H :    0.037449

  Mayer bond orders larger than 0.100000
B(  0-S ,  1-C ) :   1.1260 B(  0-S ,  4-C ) :   1.1479 B(  1-C ,  2-C ) :   1.6572
B(  1-C , 32-H ) :   0.9611 B(  2-C ,  3-C ) :   1.2227 B(  2-C ,  6-C ) :   0.9706
B(  3-C ,  4-C ) :   1.5849 B(  3-C ,  5-H ) :   1.0072 B(  4-C , 20-C ) :   1.0337
B(  6-C ,  7-H ) :   0.9483 B(  6-C ,  8-H ) :   0.9204 B(  6-C ,  9-C ) :   1.0922
B(  9-C , 10-H ) :   0.9475 B(  9-C , 11-H ) :   0.9518 B(  9-C , 12-C ) :   1.0692
B( 12-C , 13-H ) :   0.9742 B( 12-C , 14-H ) :   0.9783 B( 12-C , 15-H ) :   0.9803
B( 16-S , 17-C ) :   1.1360 B( 16-S , 20-C ) :   1.1367 B( 17-C , 18-C ) :   1.6386
B( 17-C , 33-H ) :   0.9646 B( 18-C , 19-C ) :   1.2103 B( 18-C , 21-H ) :   0.9806
B( 19-C , 20-C ) :   1.5990 B( 19-C , 22-C ) :   1.0358 B( 22-C , 23-H ) :   0.9244
B( 22-C , 24-H ) :   0.9393 B( 22-C , 25-C ) :   1.0731 B( 25-C , 26-H ) :   0.9524
B( 25-C , 27-H ) :   0.9540 B( 25-C , 28-C ) :   1.0712 B( 28-C , 29-H ) :   0.9726
B( 28-C , 30-H ) :   0.9726 B( 28-C , 31-H ) :   0.9763

Dispersion correction           -0.014963240
FINAL SINGLE POINT ENERGY     -1339.851878654721

DIPOLE MOMENT
-------------
                                X             Y             Z
Electronic contribution:     24.99491      14.57990      -8.82120
Nuclear contribution   :    -25.58979     -15.02870       9.01109
                        -----------------------------------------
Total Dipole Moment    :     -0.59488      -0.44880       0.18989
                        -----------------------------------------
Magnitude (a.u.)       :      0.76900
Magnitude (Debye)      :      1.95464

Rotational constants in cm-1:     0.017044     0.009962     0.007056
Rotational constants in MHz :   510.964695   298.656449   211.544725

                             ****ORCA TERMINATED NORMALLY****
TOTAL RUN TIME: 0 days 0 hours 0 minutes 35 seconds 449 msec
