                         Program Version 4.2.1 -  RELEASE  -
|  1> ! wB97X-D3 SP def2-SVP
|  2> %pal
|  3> nprocs 16
|  4> end
|  5>
|  6> * xyz 0 1
|  7> S 	 8.30181 	 -5.00531 	 90.1655
|  8> C 	 8.80085 	 -3.58766 	 89.3038
|  9> C 	 8.41474 	 -3.66077 	 87.9361
| 10> C 	 7.70305 	 -4.89081 	 87.6159
| 11> C 	 7.42464 	 -5.66899 	 88.7647
| 12> H 	 7.2297 	 -4.97403 	 86.6333
| 13> C 	 8.68279 	 -2.53703 	 86.8964
| 14> H 	 8.95133 	 -3.0094 	 85.9696
| 15> H 	 9.51435 	 -1.94329 	 87.2121
| 16> C 	 7.56954 	 -1.5261 	 86.7707
| 17> H 	 6.64267 	 -2.06749 	 86.949
| 18> H 	 7.70552 	 -0.789362 	 87.5666
| 19> C 	 7.49511 	 -0.731883 	 85.4292
| 20> H 	 6.69588 	 0.0562783 	 85.6087
| 21> H 	 8.44841 	 -0.177388 	 85.2166
| 22> H 	 7.2525 	 -1.43039 	 84.6132
| 23> S 	 6.9714 	 -8.36734 	 88.7198
| 24> C 	 5.35248 	 -8.96067 	 89.1396
| 25> C 	 4.48339 	 -7.94254 	 89.505
| 26> C 	 5.06885 	 -6.59334 	 89.3477
| 27> C 	 6.43745 	 -6.6485 	 88.8769
| 28> H 	 3.46069 	 -8.12812 	 89.7366
| 29> C 	 4.2669 	 -5.37619 	 89.6634
| 30> H 	 5.06978 	 -4.61634 	 89.9213
| 31> H 	 3.71281 	 -5.45426 	 90.591
| 32> C 	 3.45901 	 -4.75533 	 88.5142
| 33> H 	 3.03037 	 -5.44836 	 87.8309
| 34> H 	 4.10434 	 -4.13452 	 87.8626
| 35> C 	 2.37567 	 -3.76721 	 89.0564
| 36> H 	 2.82531 	 -2.95442 	 89.63
| 37> H 	 1.56771 	 -4.24192 	 89.5667
| 38> H 	 2.03761 	 -3.20339 	 88.184
| 39> H 	 9.20046 	 -2.62216 	 89.7536
| 40> H 	 5.1041 	 -9.99484 	 89.3589
| 41> *
| 42>
| 43>                          ****END OF INPUT****

CARTESIAN COORDINATES (ANGSTROEM)
---------------------------------
  S      8.301810   -5.005310   90.165500
  C      8.800850   -3.587660   89.303800
  C      8.414740   -3.660770   87.936100
  C      7.703050   -4.890810   87.615900
  C      7.424640   -5.668990   88.764700
  H      7.229700   -4.974030   86.633300
  C      8.682790   -2.537030   86.896400
  H      8.951330   -3.009400   85.969600
  H      9.514350   -1.943290   87.212100
  C      7.569540   -1.526100   86.770700
  H      6.642670   -2.067490   86.949000
  H      7.705520   -0.789362   87.566600
  C      7.495110   -0.731883   85.429200
  H      6.695880    0.056278   85.608700
  H      8.448410   -0.177388   85.216600
  H      7.252500   -1.430390   84.613200
  S      6.971400   -8.367340   88.719800
  C      5.352480   -8.960670   89.139600
  C      4.483390   -7.942540   89.505000
  C      5.068850   -6.593340   89.347700
  C      6.437450   -6.648500   88.876900
  H      3.460690   -8.128120   89.736600
  C      4.266900   -5.376190   89.663400
  H      5.069780   -4.616340   89.921300
  H      3.712810   -5.454260   90.591000
  C      3.459010   -4.755330   88.514200
  H      3.030370   -5.448360   87.830900
  H      4.104340   -4.134520   87.862600
  C      2.375670   -3.767210   89.056400
  H      2.825310   -2.954420   89.630000
  H      1.567710   -4.241920   89.566700
  H      2.037610   -3.203390   88.184000
  H      9.200460   -2.622160   89.753600
  H      5.104100   -9.994840   89.358900

 Total Charge           Charge          ....    0
 Multiplicity           Mult            ....    1
 Number of Electrons    NEL             ....  134
 Basis Dimension        Dim             ....  322

ORBITAL ENERGIES
----------------

  NO   OCC          E(Eh)            E(eV)
   0   2.0000     -88.970436     -2421.0086
   1   2.0000     -88.964546     -2420.8484
   2   2.0000     -10.331231      -281.1271
   3   2.0000     -10.330227      -281.0998
   4   2.0000     -10.323234      -280.9095
   5   2.0000     -10.320759      -280.8421
   6   2.0000     -10.315240      -280.6919
   7   2.0000     -10.308743      -280.5152
   8   2.0000     -10.304774      -280.4072
   9   2.0000     -10.296003      -280.1685
  10   2.0000     -10.291882      -280.0563
  11   2.0000     -10.291682      -280.0509
  12   2.0000     -10.288260      -279.9578
  13   2.0000     -10.287022      -279.9241
  14   2.0000     -10.286008      -279.8965
  15   2.0000     -10.276831      -279.6468
  16   2.0000      -8.084437      -219.9887
  17   2.0000      -8.078015      -219.8140
  18   2.0000      -6.042927      -164.4364
  19   2.0000      -6.038888      -164.3265
  20   2.0000      -6.036658      -164.2658
  21   2.0000      -6.035389      -164.2313
  22   2.0000      -6.032660      -164.1570
  23   2.0000      -6.028750      -164.0506
  24   2.0000      -0.996165       -27.1070
  25   2.0000      -0.968838       -26.3634
  26   2.0000      -0.910897       -24.7868
  27   2.0000      -0.904664       -24.6172
  28   2.0000      -0.870222       -23.6799
  29   2.0000      -0.845016       -22.9941
  30   2.0000      -0.844265       -22.9736
  31   2.0000      -0.808939       -22.0123
  32   2.0000      -0.781527       -21.2664
  33   2.0000      -0.762548       -20.7500
  34   2.0000      -0.709418       -19.3042
  35   2.0000      -0.694639       -18.9021
  36   2.0000      -0.692725       -18.8500
  37   2.0000      -0.657501       -17.8915
  38   2.0000      -0.635825       -17.3017
  39   2.0000      -0.619544       -16.8586
  40   2.0000      -0.591698       -16.1009
  41   2.0000      -0.567653       -15.4466
  42   2.0000      -0.564194       -15.3525
  43   2.0000      -0.557175       -15.1615
  44   2.0000      -0.524181       -14.2637
  45   2.0000      -0.520920       -14.1750
  46   2.0000      -0.513896       -13.9838
  47   2.0000      -0.511471       -13.9178
  48   2.0000      -0.507733       -13.8161
  49   2.0000      -0.503081       -13.6895
  50   2.0000      -0.495360       -13.4794
  51   2.0000      -0.470890       -12.8136
  52   2.0000      -0.470375       -12.7995
  53   2.0000      -0.464307       -12.6344
  54   2.0000      -0.452144       -12.3035
  55   2.0000      -0.446607       -12.1528
  56   2.0000      -0.446235       -12.1427
  57   2.0000      -0.436814       -11.8863
  58   2.0000      -0.433642       -11.8000
  59   2.0000      -0.421474       -11.4689
  60   2.0000      -0.420156       -11.4330
  61   2.0000      -0.414595       -11.2817
  62   2.0000      -0.408993       -11.1293
  63   2.0000      -0.335715        -9.1353
  64   2.0000      -0.328943        -8.9510
  65   2.0000      -0.308915        -8.4060
  66   2.0000      -0.308123        -8.3845
  67   0.0000       0.032610         0.8874
  68   0.0000       0.040632         1.1056
  69   0.0000       0.107537         2.9262
  70   0.0000       0.117323         3.1925
  71   0.0000       0.122417         3.3311

MULLIKEN ATOMIC CHARGES
-----------------------
   0 S :    0.134825
   1 C :   -0.137942
   2 C :   -0.153729
   3 C :    0.074213
   4 C :   -0.183364
   5 H :    0.027356
   6 C :    0.091894
   7 H :    0.021930
   8 H :    0.011725
   9 C :   -0.085440
  10 H :    0.030390
  11 H :    0.023874
  12 C :   -0.081737
  13 H :    0.049333
  14 H :    0.042046
  15 H :    0.045889
  16 S :    0.094882
  17 C :   -0.082621
  18 C :   -0.027477
  19 C :   -0.029557
  20 C :   -0.173514
  21 H :    0.016259
  22 C :    0.046700
  23 H :    0.033912
  24 H :    0.031787
  25 C :   -0.059587
  26 H :    0.024902
  27 H :    0.027917
  28 C :   -0.052180
  29 H :    0.028459
  30 H :    0.041273
  31 H :    0.025345
  32 H :    0.078406
  33 H :    0.063830
Sum of atomic charges:    0.0000000

LOEWDIN ATOMIC CHARGES
----------------------
   0 S :    0.414509
   1 C :   -0.221602
   2 C :   -0.062465
   3 C :   -0.048184
   4 C :   -0.207243
   5 H :    0.036061
   6 C :   -0.032593
   7 H :    0.026229
   8 H :    0.027086
   9 C :   -0.045193
  10 H :    0.020706
  11 H :    0.022832
  12 C :   -0.070897
  13 H :    0.035963
  14 H :    0.028548
  15 H :    0.026045
  16 S :    0.377798
  17 C :   -0.177128
  18 C :   -0.069579
  19 C :   -0.034183
  20 C :   -0.200012
  21 H :    0.027307
  22 C :   -0.046199
  23 H :    0.042268
  24 H :    0.031156
  25 C :   -0.033949
  26 H :    0.017081
  27 H :    0.027800
  28 C :   -0.064062
  29 H :    0.026390
  30 H :    0.019788
  31 H :    0.028289
  32 H :    0.045762
  33 H :    0.031673

  Mayer bond orders larger than 0.100000
B(  0-S ,  1-C ) :   1.1527 B(  0-S ,  4-C ) :   1.1387 B(  1-C ,  2-C ) :   1.5974
B(  1-C , 32-H ) :   0.9556 B(  2-C ,  3-C ) :   1.2670 B(  2-C ,  6-C ) :   1.0305
B(  3-C ,  4-C ) :   1.5388 B(  3-C ,  5-H ) :   0.9840 B(  4-C , 20-C ) :   1.0832
B(  6-C ,  7-H ) :   0.9472 B(  6-C ,  8-H ) :   0.9395 B(  6-C ,  9-C ) :   1.0511
B(  9-C , 10-H ) :   0.9629 B(  9-C , 11-H ) :   0.9566 B(  9-C , 12-C ) :   1.0771
B( 12-C , 13-H ) :   0.9751 B( 12-C , 14-H ) :   0.9748 B( 12-C , 15-H ) :   0.9769
B( 16-S , 17-C ) :   1.1507 B( 16-S , 20-C ) :   1.1173 B( 17-C , 18-C ) :   1.6277
B( 17-C , 33-H ) :   0.9619 B( 18-C , 19-C ) :   1.2245 B( 18-C , 21-H ) :   0.9896
B( 19-C , 20-C ) :   1.5766 B( 19-C , 22-C ) :   1.0580 B( 22-C , 23-H ) :   0.9181
B( 22-C , 24-H ) :   0.9472 B( 22-C , 25-C ) :   1.0477 B( 25-C , 26-H ) :   0.9643
B( 25-C , 27-H ) :   0.9535 B( 25-C , 28-C ) :   1.0814 B( 28-C , 29-H ) :   0.9735
B( 28-C , 30-H ) :   0.9797 B( 28-C , 31-H ) :   0.9730

Dispersion correction           -0.014305770
FINAL SINGLE POINT ENERGY     -1339.861945544057

DIPOLE MOMENT
-------------
                                X             Y             Z
Electronic contribution:     14.25851     -25.68935      11.61577
Nuclear contribution   :    -14.74096      26.30252     -11.75352
                        -----------------------------------------
Total Dipole Moment    :     -0.48245       0.61317      -0.13776
                        -----------------------------------------
Magnitude (a.u.)       :      0.79228
Magnitude (Debye)      :      2.01381

Rotational constants in cm-1:     0.016924     0.008778     0.006832
Rotational constants in MHz :   507.382522   263.147274   204.821528

                             ****ORCA TERMINATED NORMALLY****
TOTAL RUN TIME: 0 days 0 hours 0 minutes 32 seconds 231 msec
