                         Program Version 4.2.1 -  RELEASE  -
|  1> ! wB97X-D3 SP def2-SVP
|  2> %pal
|  3> nprocs 16
|  4> end
|  5>
|  6> * xyz 0 1
|  7> S 	 9.22547 	 21.1989 	 64.3383
|  8> C 	 10.8495 	 20.8002 	 64.9108
|  9> C 	 11.668 	 21.9185 	 64.8283
| 10> C 	 11.0796 	 22.9574 	 64.0613
| 11> C 	 9.80757 	 22.6868 	 63.6022
| 12> H 	 11.5684 	 23.7904 	 63.7148
| 13> C 	 13.1501 	 21.9432 	 65.1562
| 14> H 	 13.7059 	 22.3416 	 64.3324
| 15> H 	 13.4355 	 20.8932 	 65.2429
| 16> C 	 13.5293 	 22.6191 	 66.4672
| 17> H 	 14.6528 	 22.5491 	 66.5462
| 18> H 	 13.3237 	 23.6404 	 66.3686
| 19> C 	 12.8825 	 21.9494 	 67.6669
| 20> H 	 11.8079 	 22.0106 	 67.6448
| 21> H 	 13.1308 	 20.9055 	 67.8502
| 22> H 	 13.0939 	 22.4762 	 68.5482
| 23> S 	 7.19188 	 23.4877 	 63.206
| 24> C 	 6.86957 	 24.6931 	 61.9473
| 25> C 	 7.99175 	 24.9712 	 61.2308
| 26> C 	 9.17517 	 24.429 	 61.7548
| 27> C 	 8.93227 	 23.5895 	 62.8784
| 28> H 	 7.94272 	 25.5947 	 60.33
| 29> C 	 10.4992 	 24.6972 	 61.0875
| 30> H 	 10.3029 	 24.4016 	 60.115
| 31> H 	 11.2624 	 24.1452 	 61.5668
| 32> C 	 10.8544 	 26.1906 	 61.2335
| 33> H 	 11.3632 	 26.4098 	 62.2485
| 34> H 	 10.0411 	 26.8132 	 61.4337
| 35> C 	 11.5989 	 26.7346 	 60.0186
| 36> H 	 12.5482 	 26.232 	 59.7224
| 37> H 	 11.8492 	 27.7683 	 60.1252
| 38> H 	 11.0541 	 26.6376 	 59.1072
| 39> H 	 11.0805 	 19.9482 	 65.5767
| 40> H 	 5.98446 	 25.1743 	 61.6758
| 41> *
| 42>
| 43>                          ****END OF INPUT****

CARTESIAN COORDINATES (ANGSTROEM)
---------------------------------
  S      9.225470   21.198900   64.338300
  C     10.849500   20.800200   64.910800
  C     11.668000   21.918500   64.828300
  C     11.079600   22.957400   64.061300
  C      9.807570   22.686800   63.602200
  H     11.568400   23.790400   63.714800
  C     13.150100   21.943200   65.156200
  H     13.705900   22.341600   64.332400
  H     13.435500   20.893200   65.242900
  C     13.529300   22.619100   66.467200
  H     14.652800   22.549100   66.546200
  H     13.323700   23.640400   66.368600
  C     12.882500   21.949400   67.666900
  H     11.807900   22.010600   67.644800
  H     13.130800   20.905500   67.850200
  H     13.093900   22.476200   68.548200
  S      7.191880   23.487700   63.206000
  C      6.869570   24.693100   61.947300
  C      7.991750   24.971200   61.230800
  C      9.175170   24.429000   61.754800
  C      8.932270   23.589500   62.878400
  H      7.942720   25.594700   60.330000
  C     10.499200   24.697200   61.087500
  H     10.302900   24.401600   60.115000
  H     11.262400   24.145200   61.566800
  C     10.854400   26.190600   61.233500
  H     11.363200   26.409800   62.248500
  H     10.041100   26.813200   61.433700
  C     11.598900   26.734600   60.018600
  H     12.548200   26.232000   59.722400
  H     11.849200   27.768300   60.125200
  H     11.054100   26.637600   59.107200
  H     11.080500   19.948200   65.576700
  H      5.984460   25.174300   61.675800

 Total Charge           Charge          ....    0
 Multiplicity           Mult            ....    1
 Number of Electrons    NEL             ....  134
 Basis Dimension        Dim             ....  322

ORBITAL ENERGIES
----------------

  NO   OCC          E(Eh)            E(eV)
   0   2.0000     -88.968091     -2420.9448
   1   2.0000     -88.965286     -2420.8685
   2   2.0000     -10.331237      -281.1273
   3   2.0000     -10.330291      -281.1015
   4   2.0000     -10.316249      -280.7194
   5   2.0000     -10.314092      -280.6607
   6   2.0000     -10.303419      -280.3703
   7   2.0000     -10.299163      -280.2545
   8   2.0000     -10.291066      -280.0342
   9   2.0000     -10.290472      -280.0180
  10   2.0000     -10.286562      -279.9116
  11   2.0000     -10.285710      -279.8884
  12   2.0000     -10.284927      -279.8671
  13   2.0000     -10.284721      -279.8615
  14   2.0000     -10.277188      -279.6565
  15   2.0000     -10.269055      -279.4352
  16   2.0000      -8.081949      -219.9210
  17   2.0000      -8.079692      -219.8596
  18   2.0000      -6.040610      -164.3733
  19   2.0000      -6.038289      -164.3102
  20   2.0000      -6.036694      -164.2668
  21   2.0000      -6.034341      -164.2028
  22   2.0000      -6.032490      -164.1524
  23   2.0000      -6.030280      -164.0923
  24   2.0000      -1.005634       -27.3647
  25   2.0000      -0.983350       -26.7583
  26   2.0000      -0.916440       -24.9376
  27   2.0000      -0.913285       -24.8517
  28   2.0000      -0.870828       -23.6964
  29   2.0000      -0.853680       -23.2298
  30   2.0000      -0.845318       -23.0023
  31   2.0000      -0.817035       -22.2326
  32   2.0000      -0.786951       -21.4140
  33   2.0000      -0.775552       -21.1038
  34   2.0000      -0.715459       -19.4686
  35   2.0000      -0.707544       -19.2532
  36   2.0000      -0.699423       -19.0323
  37   2.0000      -0.662388       -18.0245
  38   2.0000      -0.640221       -17.4213
  39   2.0000      -0.624256       -16.9869
  40   2.0000      -0.598883       -16.2964
  41   2.0000      -0.568001       -15.4561
  42   2.0000      -0.562823       -15.3152
  43   2.0000      -0.554783       -15.0964
  44   2.0000      -0.540018       -14.6946
  45   2.0000      -0.532275       -14.4839
  46   2.0000      -0.518141       -14.0993
  47   2.0000      -0.516483       -14.0542
  48   2.0000      -0.505548       -13.7567
  49   2.0000      -0.498731       -13.5711
  50   2.0000      -0.489855       -13.3296
  51   2.0000      -0.484994       -13.1974
  52   2.0000      -0.472180       -12.8487
  53   2.0000      -0.467922       -12.7328
  54   2.0000      -0.460987       -12.5441
  55   2.0000      -0.453203       -12.3323
  56   2.0000      -0.447549       -12.1784
  57   2.0000      -0.443220       -12.0606
  58   2.0000      -0.437776       -11.9125
  59   2.0000      -0.429870       -11.6974
  60   2.0000      -0.416538       -11.3346
  61   2.0000      -0.412558       -11.2263
  62   2.0000      -0.409933       -11.1548
  63   2.0000      -0.357273        -9.7219
  64   2.0000      -0.335047        -9.1171
  65   2.0000      -0.327621        -8.9150
  66   2.0000      -0.281016        -7.6468
  67   0.0000       0.020707         0.5635
  68   0.0000       0.070291         1.9127
  69   0.0000       0.100944         2.7468
  70   0.0000       0.120355         3.2750
  71   0.0000       0.131948         3.5905

MULLIKEN ATOMIC CHARGES
-----------------------
   0 S :    0.090767
   1 C :   -0.119265
   2 C :   -0.084484
   3 C :    0.038087
   4 C :   -0.118110
   5 H :   -0.028770
   6 C :    0.053008
   7 H :    0.025761
   8 H :    0.013738
   9 C :   -0.045845
  10 H :    0.034114
  11 H :    0.015959
  12 C :   -0.029185
  13 H :    0.030177
  14 H :    0.027438
  15 H :    0.015308
  16 S :    0.095491
  17 C :   -0.050544
  18 C :   -0.047976
  19 C :   -0.094792
  20 C :   -0.140660
  21 H :    0.025301
  22 C :    0.164676
  23 H :    0.019184
  24 H :    0.014049
  25 C :   -0.078348
  26 H :    0.028916
  27 H :    0.016632
  28 C :   -0.037189
  29 H :    0.028020
  30 H :    0.026784
  31 H :    0.019413
  32 H :    0.062672
  33 H :    0.029676
Sum of atomic charges:   -0.0000000

LOEWDIN ATOMIC CHARGES
----------------------
   0 S :    0.388268
   1 C :   -0.198405
   2 C :   -0.059967
   3 C :   -0.060893
   4 C :   -0.178301
   5 H :    0.012980
   6 C :   -0.028770
   7 H :    0.027297
   8 H :    0.028999
   9 C :   -0.034907
  10 H :    0.030704
  11 H :    0.015744
  12 C :   -0.064170
  13 H :    0.026125
  14 H :    0.025821
  15 H :    0.021182
  16 S :    0.385024
  17 C :   -0.168611
  18 C :   -0.071744
  19 C :   -0.050537
  20 C :   -0.190501
  21 H :    0.035854
  22 C :   -0.013164
  23 H :    0.026662
  24 H :    0.025526
  25 C :   -0.041302
  26 H :    0.034637
  27 H :    0.015652
  28 C :   -0.067636
  29 H :    0.028376
  30 H :    0.023535
  31 H :    0.020449
  32 H :    0.034744
  33 H :    0.021330

  Mayer bond orders larger than 0.100000
B(  0-S ,  1-C ) :   1.1280 B(  0-S ,  4-C ) :   1.1399 B(  1-C ,  2-C ) :   1.6080
B(  1-C , 32-H ) :   0.9593 B(  2-C ,  3-C ) :   1.2431 B(  2-C ,  6-C ) :   1.0161
B(  3-C ,  4-C ) :   1.5544 B(  3-C ,  5-H ) :   1.0055 B(  4-C , 20-C ) :   1.0896
B(  6-C ,  7-H ) :   0.9490 B(  6-C ,  8-H ) :   0.9448 B(  6-C ,  9-C ) :   1.0734
B(  9-C , 10-H ) :   0.9542 B(  9-C , 11-H ) :   0.9549 B(  9-C , 12-C ) :   1.0816
B( 12-C , 13-H ) :   0.9696 B( 12-C , 14-H ) :   0.9747 B( 12-C , 15-H ) :   0.9692
B( 16-S , 17-C ) :   1.1367 B( 16-S , 20-C ) :   1.1250 B( 17-C , 18-C ) :   1.6247
B( 17-C , 33-H ) :   0.9708 B( 18-C , 19-C ) :   1.2598 B( 18-C , 21-H ) :   0.9816
B( 19-C , 20-C ) :   1.5641 B( 19-C , 22-C ) :   1.0383 B( 22-C , 23-H ) :   0.9401
B( 22-C , 24-H ) :   0.9237 B( 22-C , 25-C ) :   1.0419 B( 25-C , 26-H ) :   0.9464
B( 25-C , 27-H ) :   0.9635 B( 25-C , 28-C ) :   1.0736 B( 28-C , 29-H ) :   0.9741
B( 28-C , 30-H ) :   0.9726 B( 28-C , 31-H ) :   0.9757

Dispersion correction           -0.014093570
FINAL SINGLE POINT ENERGY     -1339.862727024147

DIPOLE MOMENT
-------------
                                X             Y             Z
Electronic contribution:    -24.62752     -11.23492      -0.04860
Nuclear contribution   :     25.14931      11.69960      -0.18841
                        -----------------------------------------
Total Dipole Moment    :      0.52179       0.46468      -0.23701
                        -----------------------------------------
Magnitude (a.u.)       :      0.73781
Magnitude (Debye)      :      1.87536

Rotational constants in cm-1:     0.018519     0.008529     0.006308
Rotational constants in MHz :   555.176223   255.683861   189.108563

                             ****ORCA TERMINATED NORMALLY****
TOTAL RUN TIME: 0 days 0 hours 0 minutes 34 seconds 664 msec
