                         Program Version 4.2.1 -  RELEASE  -
|  1> ! wB97X-D3 SP def2-SVP
|  2> %pal
|  3> nprocs 16
|  4> end
|  5>
|  6> * xyz 0 1
|  7> S 	 -13.4693 	 50.5048 	 32.8869
|  8> C 	 -12.4963 	 50.9103 	 31.5467
|  9> C 	 -11.261 	 50.2707 	 31.6017
| 10> C 	 -11.1161 	 49.4531 	 32.7874
| 11> C 	 -12.2265 	 49.532 	 33.5605
| 12> H 	 -10.3031 	 48.8426 	 33.1582
| 13> C 	 -10.0769 	 50.4095 	 30.6305
| 14> H 	 -9.49232 	 49.5328 	 30.7783
| 15> H 	 -9.38827 	 51.1488 	 30.9947
| 16> C 	 -10.2872 	 50.6527 	 29.1376
| 17> H 	 -11.1292 	 50.0159 	 28.883
| 18> H 	 -10.5902 	 51.7378 	 29.013
| 19> C 	 -9.05224 	 50.3591 	 28.2439
| 20> H 	 -8.26963 	 51.0403 	 28.6724
| 21> H 	 -8.68789 	 49.3642 	 28.3208
| 22> H 	 -9.3381 	 50.5586 	 27.1606
| 23> S 	 -12.5132 	 49.8721 	 36.272
| 24> C 	 -12.6011 	 48.5426 	 37.3878
| 25> C 	 -12.2921 	 47.4046 	 36.695
| 26> C 	 -12.2307 	 47.5291 	 35.2647
| 27> C 	 -12.3124 	 48.8396 	 34.8565
| 28> H 	 -12.0843 	 46.5742 	 37.2342
| 29> C 	 -11.9237 	 46.3428 	 34.39
| 30> H 	 -11.3677 	 45.6064 	 34.9613
| 31> H 	 -11.2783 	 46.6464 	 33.5896
| 32> C 	 -13.2536 	 45.6406 	 33.8977
| 33> H 	 -13.7693 	 46.3808 	 33.3023
| 34> H 	 -13.8724 	 45.3489 	 34.6959
| 35> C 	 -12.9558 	 44.4875 	 32.8377
| 36> H 	 -12.4682 	 43.616 	 33.3512
| 37> H 	 -12.2853 	 44.7798 	 31.9871
| 38> H 	 -13.9061 	 44.0888 	 32.4459
| 39> H 	 -12.8215 	 51.4723 	 30.7112
| 40> H 	 -12.4666 	 48.6258 	 38.4148
| 41> *
| 42>
| 43>                          ****END OF INPUT****

CARTESIAN COORDINATES (ANGSTROEM)
---------------------------------
  S    -13.469300   50.504800   32.886900
  C    -12.496300   50.910300   31.546700
  C    -11.261000   50.270700   31.601700
  C    -11.116100   49.453100   32.787400
  C    -12.226500   49.532000   33.560500
  H    -10.303100   48.842600   33.158200
  C    -10.076900   50.409500   30.630500
  H     -9.492320   49.532800   30.778300
  H     -9.388270   51.148800   30.994700
  C    -10.287200   50.652700   29.137600
  H    -11.129200   50.015900   28.883000
  H    -10.590200   51.737800   29.013000
  C     -9.052240   50.359100   28.243900
  H     -8.269630   51.040300   28.672400
  H     -8.687890   49.364200   28.320800
  H     -9.338100   50.558600   27.160600
  S    -12.513200   49.872100   36.272000
  C    -12.601100   48.542600   37.387800
  C    -12.292100   47.404600   36.695000
  C    -12.230700   47.529100   35.264700
  C    -12.312400   48.839600   34.856500
  H    -12.084300   46.574200   37.234200
  C    -11.923700   46.342800   34.390000
  H    -11.367700   45.606400   34.961300
  H    -11.278300   46.646400   33.589600
  C    -13.253600   45.640600   33.897700
  H    -13.769300   46.380800   33.302300
  H    -13.872400   45.348900   34.695900
  C    -12.955800   44.487500   32.837700
  H    -12.468200   43.616000   33.351200
  H    -12.285300   44.779800   31.987100
  H    -13.906100   44.088800   32.445900
  H    -12.821500   51.472300   30.711200
  H    -12.466600   48.625800   38.414800

 Total Charge           Charge          ....    0
 Multiplicity           Mult            ....    1
 Number of Electrons    NEL             ....  134
 Basis Dimension        Dim             ....  322

ORBITAL ENERGIES
----------------

  NO   OCC          E(Eh)            E(eV)
   0   2.0000     -88.969347     -2420.9790
   1   2.0000     -88.958335     -2420.6794
   2   2.0000     -10.326482      -280.9979
   3   2.0000     -10.324457      -280.9428
   4   2.0000     -10.310425      -280.5609
   5   2.0000     -10.308398      -280.5058
   6   2.0000     -10.307174      -280.4725
   7   2.0000     -10.301099      -280.3072
   8   2.0000     -10.293294      -280.0948
   9   2.0000     -10.291321      -280.0411
  10   2.0000     -10.290222      -280.0112
  11   2.0000     -10.289076      -279.9800
  12   2.0000     -10.286852      -279.9195
  13   2.0000     -10.286565      -279.9117
  14   2.0000     -10.286365      -279.9062
  15   2.0000     -10.284318      -279.8505
  16   2.0000      -8.085239      -220.0105
  17   2.0000      -8.073416      -219.6888
  18   2.0000      -6.043640      -164.4558
  19   2.0000      -6.039537      -164.3442
  20   2.0000      -6.036080      -164.2501
  21   2.0000      -6.031994      -164.1389
  22   2.0000      -6.027754      -164.0235
  23   2.0000      -6.024198      -163.9268
  24   2.0000      -1.013213       -27.5709
  25   2.0000      -0.989232       -26.9184
  26   2.0000      -0.910148       -24.7664
  27   2.0000      -0.901024       -24.5181
  28   2.0000      -0.873411       -23.7667
  29   2.0000      -0.853932       -23.2367
  30   2.0000      -0.841074       -22.8868
  31   2.0000      -0.817609       -22.2483
  32   2.0000      -0.780759       -21.2455
  33   2.0000      -0.770334       -20.9619
  34   2.0000      -0.709463       -19.3055
  35   2.0000      -0.702360       -19.1122
  36   2.0000      -0.691762       -18.8238
  37   2.0000      -0.668386       -18.1877
  38   2.0000      -0.652252       -17.7487
  39   2.0000      -0.612283       -16.6611
  40   2.0000      -0.594479       -16.1766
  41   2.0000      -0.575846       -15.6696
  42   2.0000      -0.566278       -15.4092
  43   2.0000      -0.559926       -15.2364
  44   2.0000      -0.524629       -14.2759
  45   2.0000      -0.523087       -14.2339
  46   2.0000      -0.517539       -14.0830
  47   2.0000      -0.512977       -13.9588
  48   2.0000      -0.509750       -13.8710
  49   2.0000      -0.500260       -13.6128
  50   2.0000      -0.489961       -13.3325
  51   2.0000      -0.481285       -13.0964
  52   2.0000      -0.478117       -13.0102
  53   2.0000      -0.465333       -12.6623
  54   2.0000      -0.461786       -12.5658
  55   2.0000      -0.450541       -12.2598
  56   2.0000      -0.445376       -12.1193
  57   2.0000      -0.434397       -11.8205
  58   2.0000      -0.431059       -11.7297
  59   2.0000      -0.423869       -11.5341
  60   2.0000      -0.421088       -11.4584
  61   2.0000      -0.418615       -11.3911
  62   2.0000      -0.410991       -11.1836
  63   2.0000      -0.347256        -9.4493
  64   2.0000      -0.329911        -8.9773
  65   2.0000      -0.324371        -8.8266
  66   2.0000      -0.302188        -8.2230
  67   0.0000       0.040534         1.1030
  68   0.0000       0.066956         1.8220
  69   0.0000       0.116090         3.1590
  70   0.0000       0.124307         3.3826
  71   0.0000       0.130452         3.5498

MULLIKEN ATOMIC CHARGES
-----------------------
   0 S :    0.143885
   1 C :   -0.114681
   2 C :   -0.081019
   3 C :    0.021824
   4 C :   -0.145794
   5 H :    0.022598
   6 C :    0.084725
   7 H :   -0.001048
   8 H :    0.028687
   9 C :   -0.104061
  10 H :    0.029328
  11 H :    0.041485
  12 C :   -0.060325
  13 H :    0.039532
  14 H :    0.031547
  15 H :    0.056082
  16 S :    0.084329
  17 C :   -0.051561
  18 C :   -0.021842
  19 C :   -0.025967
  20 C :   -0.182801
  21 H :   -0.022971
  22 C :    0.085864
  23 H :    0.014943
  24 H :    0.008146
  25 C :   -0.060112
  26 H :    0.033132
  27 H :    0.028275
  28 C :   -0.080475
  29 H :    0.030994
  30 H :    0.045731
  31 H :    0.039502
  32 H :    0.038472
  33 H :    0.043578
Sum of atomic charges:    0.0000000

LOEWDIN ATOMIC CHARGES
----------------------
   0 S :    0.445116
   1 C :   -0.211172
   2 C :   -0.053889
   3 C :   -0.060163
   4 C :   -0.210739
   5 H :    0.035592
   6 C :   -0.038882
   7 H :    0.023583
   8 H :    0.030818
   9 C :   -0.048234
  10 H :    0.019683
  11 H :    0.029082
  12 C :   -0.065545
  13 H :    0.032245
  14 H :    0.018150
  15 H :    0.038754
  16 S :    0.398959
  17 C :   -0.180330
  18 C :   -0.057270
  19 C :   -0.059865
  20 C :   -0.187925
  21 H :    0.011342
  22 C :   -0.025739
  23 H :    0.027085
  24 H :    0.023711
  25 C :   -0.026077
  26 H :    0.024816
  27 H :    0.018794
  28 C :   -0.075866
  29 H :    0.023886
  30 H :    0.030536
  31 H :    0.026420
  32 H :    0.022906
  33 H :    0.020218

  Mayer bond orders larger than 0.100000
B(  0-S ,  1-C ) :   1.1410 B(  0-S ,  4-C ) :   1.1671 B(  1-C ,  2-C ) :   1.6081
B(  1-C , 32-H ) :   0.9751 B(  2-C ,  3-C ) :   1.2247 B(  2-C ,  6-C ) :   1.0177
B(  3-C ,  4-C ) :   1.5960 B(  3-C ,  5-H ) :   0.9915 B(  4-C , 20-C ) :   0.9995
B(  6-C ,  7-H ) :   0.9377 B(  6-C ,  8-H ) :   0.9266 B(  6-C ,  9-C ) :   1.0608
B(  9-C , 10-H ) :   0.9625 B(  9-C , 11-H ) :   0.9508 B(  9-C , 12-C ) :   1.0796
B( 12-C , 13-H ) :   0.9752 B( 12-C , 14-H ) :   0.9766 B( 12-C , 15-H ) :   0.9739
B( 16-S , 17-C ) :   1.1501 B( 16-S , 20-C ) :   1.1532 B( 17-C , 18-C ) :   1.6183
B( 17-C , 33-H ) :   0.9690 B( 18-C , 19-C ) :   1.2307 B( 18-C , 21-H ) :   1.0003
B( 19-C , 20-C ) :   1.6092 B( 19-C , 22-C ) :   1.0500 B( 22-C , 23-H ) :   0.9348
B( 22-C , 24-H ) :   0.9363 B( 22-C , 25-C ) :   1.0518 B( 25-C , 26-H ) :   0.9611
B( 25-C , 27-H ) :   0.9612 B( 25-C , 28-C ) :   1.0713 B( 28-C , 29-H ) :   0.9770
B( 28-C , 30-H ) :   0.9761 B( 28-C , 31-H ) :   0.9767

Dispersion correction           -0.013637770
FINAL SINGLE POINT ENERGY     -1339.875235081163

DIPOLE MOMENT
-------------
                                X             Y             Z
Electronic contribution:    -11.53588      14.70905      21.48212
Nuclear contribution   :     12.03360     -15.11518     -21.78402
                        -----------------------------------------
Total Dipole Moment    :      0.49772      -0.40613      -0.30190
                        -----------------------------------------
Magnitude (a.u.)       :      0.70980
Magnitude (Debye)      :      1.80416

Rotational constants in cm-1:     0.018645     0.007729     0.006293
Rotational constants in MHz :   558.952279   231.698800   188.655571

                             ****ORCA TERMINATED NORMALLY****
TOTAL RUN TIME: 0 days 0 hours 0 minutes 30 seconds 284 msec
