                         Program Version 4.2.1 -  RELEASE  -
|  1> ! wB97X-D3 SP def2-SVP
|  2> %pal
|  3> nprocs 16
|  4> end
|  5>
|  6> * xyz 0 1
|  7> S 	 46.8461 	 8.69839 	 75.4405
|  8> C 	 45.1532 	 8.45185 	 75.369
|  9> C 	 44.4957 	 9.60538 	 75.7433
| 10> C 	 45.3629 	 10.7356 	 75.7991
| 11> C 	 46.7137 	 10.3954 	 75.6673
| 12> H 	 45.001 	 11.7616 	 75.9671
| 13> C 	 43.0572 	 9.62179 	 76.0064
| 14> H 	 42.6484 	 8.68376 	 75.7284
| 15> H 	 42.685 	 10.5016 	 75.4088
| 16> C 	 42.741 	 9.82435 	 77.4616
| 17> H 	 42.9691 	 8.9723 	 78.0198
| 18> H 	 43.3991 	 10.5133 	 77.8706
| 19> C 	 41.3051 	 10.2035 	 77.6968
| 20> H 	 41.2486 	 10.471 	 78.7452
| 21> H 	 40.9833 	 10.9136 	 76.912
| 22> H 	 40.7007 	 9.26887 	 77.5112
| 23> S 	 48.9187 	 11.3933 	 74.5522
| 24> C 	 49.7905 	 12.6436 	 75.26
| 25> C 	 49.13 	 13.1133 	 76.3979
| 26> C 	 47.9426 	 12.3736 	 76.7408
| 27> C 	 47.7776 	 11.3444 	 75.8287
| 28> H 	 49.634 	 13.9481 	 76.7842
| 29> C 	 47.0401 	 12.7912 	 77.8869
| 30> H 	 47.7362 	 12.9612 	 78.7412
| 31> H 	 46.342 	 12.0168 	 78.1688
| 32> C 	 46.233 	 14.086 	 77.6469
| 33> H 	 45.5341 	 14.1691 	 76.8455
| 34> H 	 46.9294 	 14.8726 	 77.3873
| 35> C 	 45.6013 	 14.5015 	 78.94
| 36> H 	 45.0846 	 13.7376 	 79.4488
| 37> H 	 44.8819 	 15.3435 	 78.7722
| 38> H 	 46.2989 	 14.8341 	 79.6692
| 39> H 	 44.68 	 7.54083 	 75.163
| 40> H 	 50.5644 	 13.2115 	 74.7836
| 41> *
| 42>
| 43>                          ****END OF INPUT****

CARTESIAN COORDINATES (ANGSTROEM)
---------------------------------
  S     46.846100    8.698390   75.440500
  C     45.153200    8.451850   75.369000
  C     44.495700    9.605380   75.743300
  C     45.362900   10.735600   75.799100
  C     46.713700   10.395400   75.667300
  H     45.001000   11.761600   75.967100
  C     43.057200    9.621790   76.006400
  H     42.648400    8.683760   75.728400
  H     42.685000   10.501600   75.408800
  C     42.741000    9.824350   77.461600
  H     42.969100    8.972300   78.019800
  H     43.399100   10.513300   77.870600
  C     41.305100   10.203500   77.696800
  H     41.248600   10.471000   78.745200
  H     40.983300   10.913600   76.912000
  H     40.700700    9.268870   77.511200
  S     48.918700   11.393300   74.552200
  C     49.790500   12.643600   75.260000
  C     49.130000   13.113300   76.397900
  C     47.942600   12.373600   76.740800
  C     47.777600   11.344400   75.828700
  H     49.634000   13.948100   76.784200
  C     47.040100   12.791200   77.886900
  H     47.736200   12.961200   78.741200
  H     46.342000   12.016800   78.168800
  C     46.233000   14.086000   77.646900
  H     45.534100   14.169100   76.845500
  H     46.929400   14.872600   77.387300
  C     45.601300   14.501500   78.940000
  H     45.084600   13.737600   79.448800
  H     44.881900   15.343500   78.772200
  H     46.298900   14.834100   79.669200
  H     44.680000    7.540830   75.163000
  H     50.564400   13.211500   74.783600

 Total Charge           Charge          ....    0
 Multiplicity           Mult            ....    1
 Number of Electrons    NEL             ....  134
 Basis Dimension        Dim             ....  322

ORBITAL ENERGIES
----------------

  NO   OCC          E(Eh)            E(eV)
   0   2.0000     -88.963819     -2420.8286
   1   2.0000     -88.962207     -2420.7847
   2   2.0000     -10.324015      -280.9307
   3   2.0000     -10.320475      -280.8344
   4   2.0000     -10.308734      -280.5149
   5   2.0000     -10.306742      -280.4607
   6   2.0000     -10.303262      -280.3660
   7   2.0000     -10.297013      -280.1960
   8   2.0000     -10.292176      -280.0644
   9   2.0000     -10.291613      -280.0490
  10   2.0000     -10.289926      -280.0031
  11   2.0000     -10.284028      -279.8426
  12   2.0000     -10.283924      -279.8398
  13   2.0000     -10.280419      -279.7444
  14   2.0000     -10.272061      -279.5170
  15   2.0000     -10.268076      -279.4086
  16   2.0000      -8.079602      -219.8571
  17   2.0000      -8.079050      -219.8421
  18   2.0000      -6.038023      -164.3030
  19   2.0000      -6.037271      -164.2825
  20   2.0000      -6.033875      -164.1901
  21   2.0000      -6.033092      -164.1688
  22   2.0000      -6.030479      -164.0977
  23   2.0000      -6.030155      -164.0889
  24   2.0000      -1.016162       -27.6512
  25   2.0000      -0.993315       -27.0295
  26   2.0000      -0.926027       -25.1985
  27   2.0000      -0.916605       -24.9421
  28   2.0000      -0.876150       -23.8413
  29   2.0000      -0.859087       -23.3770
  30   2.0000      -0.850306       -23.1380
  31   2.0000      -0.815390       -22.1879
  32   2.0000      -0.783282       -21.3142
  33   2.0000      -0.771064       -20.9817
  34   2.0000      -0.713320       -19.4104
  35   2.0000      -0.705609       -19.2006
  36   2.0000      -0.698438       -19.0055
  37   2.0000      -0.664124       -18.0717
  38   2.0000      -0.639670       -17.4063
  39   2.0000      -0.627466       -17.0742
  40   2.0000      -0.600025       -16.3275
  41   2.0000      -0.575596       -15.6628
  42   2.0000      -0.571261       -15.5448
  43   2.0000      -0.563464       -15.3326
  44   2.0000      -0.534628       -14.5480
  45   2.0000      -0.527520       -14.3545
  46   2.0000      -0.525133       -14.2896
  47   2.0000      -0.513728       -13.9793
  48   2.0000      -0.505407       -13.7528
  49   2.0000      -0.502917       -13.6851
  50   2.0000      -0.501041       -13.6340
  51   2.0000      -0.486516       -13.2388
  52   2.0000      -0.470061       -12.7910
  53   2.0000      -0.465806       -12.6752
  54   2.0000      -0.459767       -12.5109
  55   2.0000      -0.451252       -12.2792
  56   2.0000      -0.447617       -12.1803
  57   2.0000      -0.444904       -12.1065
  58   2.0000      -0.440327       -11.9819
  59   2.0000      -0.424977       -11.5642
  60   2.0000      -0.419991       -11.4285
  61   2.0000      -0.416904       -11.3445
  62   2.0000      -0.411737       -11.2039
  63   2.0000      -0.345188        -9.3930
  64   2.0000      -0.330085        -8.9821
  65   2.0000      -0.323968        -8.8156
  66   2.0000      -0.291921        -7.9436
  67   0.0000       0.034501         0.9388
  68   0.0000       0.079447         2.1619
  69   0.0000       0.118832         3.2336
  70   0.0000       0.123909         3.3717
  71   0.0000       0.129865         3.5338

MULLIKEN ATOMIC CHARGES
-----------------------
   0 S :    0.125571
   1 C :   -0.105446
   2 C :   -0.112281
   3 C :    0.015245
   4 C :   -0.136049
   5 H :    0.009840
   6 C :    0.091781
   7 H :    0.000314
   8 H :    0.033426
   9 C :   -0.042822
  10 H :    0.003443
  11 H :   -0.002032
  12 C :   -0.028310
  13 H :    0.041426
  14 H :    0.033765
  15 H :    0.029005
  16 S :    0.126436
  17 C :   -0.091517
  18 C :   -0.058134
  19 C :    0.021515
  20 C :   -0.177048
  21 H :   -0.002284
  22 C :    0.049585
  23 H :    0.036100
  24 H :    0.027919
  25 C :   -0.048011
  26 H :    0.025507
  27 H :    0.015745
  28 C :   -0.024528
  29 H :    0.011204
  30 H :    0.034067
  31 H :    0.017728
  32 H :    0.025545
  33 H :    0.053294
Sum of atomic charges:    0.0000000

LOEWDIN ATOMIC CHARGES
----------------------
   0 S :    0.435944
   1 C :   -0.207924
   2 C :   -0.063598
   3 C :   -0.066636
   4 C :   -0.212550
   5 H :    0.031914
   6 C :   -0.027468
   7 H :    0.023835
   8 H :    0.037287
   9 C :   -0.038829
  10 H :    0.019164
  11 H :    0.010761
  12 C :   -0.061445
  13 H :    0.028799
  14 H :    0.026719
  15 H :    0.029906
  16 S :    0.454607
  17 C :   -0.210001
  18 C :   -0.069306
  19 C :   -0.050456
  20 C :   -0.212424
  21 H :    0.022208
  22 C :   -0.026637
  23 H :    0.040520
  24 H :    0.026679
  25 C :   -0.038870
  26 H :    0.019937
  27 H :    0.025113
  28 C :   -0.061533
  29 H :    0.015890
  30 H :    0.031877
  31 H :    0.020771
  32 H :    0.018077
  33 H :    0.027670

  Mayer bond orders larger than 0.100000
B(  0-S ,  1-C ) :   1.1453 B(  0-S ,  4-C ) :   1.1788 B(  1-C ,  2-C ) :   1.5731
B(  1-C , 32-H ) :   0.9772 B(  2-C ,  3-C ) :   1.2653 B(  2-C ,  6-C ) :   1.0499
B(  3-C ,  4-C ) :   1.5148 B(  3-C ,  5-H ) :   0.9947 B(  4-C , 20-C ) :   1.0397
B(  6-C ,  7-H ) :   0.9301 B(  6-C ,  8-H ) :   0.9327 B(  6-C ,  9-C ) :   1.0719
B(  9-C , 10-H ) :   0.9395 B(  9-C , 11-H ) :   0.9547 B(  9-C , 12-C ) :   1.0851
B( 12-C , 13-H ) :   0.9715 B( 12-C , 14-H ) :   0.9758 B( 12-C , 15-H ) :   0.9723
B( 16-S , 17-C ) :   1.1803 B( 16-S , 20-C ) :   1.1773 B( 17-C , 18-C ) :   1.5955
B( 17-C , 33-H ) :   0.9685 B( 18-C , 19-C ) :   1.2190 B( 18-C , 21-H ) :   1.0030
B( 19-C , 20-C ) :   1.5713 B( 19-C , 22-C ) :   1.0460 B( 22-C , 23-H ) :   0.9347
B( 22-C , 24-H ) :   0.9331 B( 22-C , 25-C ) :   1.0609 B( 25-C , 26-H ) :   0.9562
B( 25-C , 27-H ) :   0.9477 B( 25-C , 28-C ) :   1.0880 B( 28-C , 29-H ) :   0.9710
B( 28-C , 30-H ) :   0.9718 B( 28-C , 31-H ) :   0.9726

Dispersion correction           -0.014191000
FINAL SINGLE POINT ENERGY     -1339.871051356186

DIPOLE MOMENT
-------------
                                X             Y             Z
Electronic contribution:     24.47398     -12.79892     -18.02455
Nuclear contribution   :    -24.88374      13.25713      18.39327
                        -----------------------------------------
Total Dipole Moment    :     -0.40975       0.45822       0.36871
                        -----------------------------------------
Magnitude (a.u.)       :      0.71681
Magnitude (Debye)      :      1.82197

Rotational constants in cm-1:     0.017088     0.010017     0.006644
Rotational constants in MHz :   512.276436   300.293465   199.172960

                             ****ORCA TERMINATED NORMALLY****
TOTAL RUN TIME: 0 days 0 hours 0 minutes 31 seconds 148 msec
