                         Program Version 4.2.1 -  RELEASE  -
|  1> ! wB97X-D3 SP def2-SVP
|  2> %pal
|  3> nprocs 16
|  4> end
|  5>
|  6> * xyz 0 1
|  7> S 	 3.37856 	 10.8753 	 86.4334
|  8> C 	 1.96194 	 11.0335 	 85.3749
|  9> C 	 2.11886 	 11.9212 	 84.3572
| 10> C 	 3.38302 	 12.5067 	 84.3551
| 11> C 	 4.20681 	 12.0734 	 85.4146
| 12> H 	 3.7243 	 13.2482 	 83.787
| 13> C 	 1.19391 	 12.1147 	 83.2129
| 14> H 	 0.185215 	 11.6946 	 83.2459
| 15> H 	 1.70982 	 11.5827 	 82.395
| 16> C 	 0.929696 	 13.574 	 82.8166
| 17> H 	 0.239022 	 14.0337 	 83.5279
| 18> H 	 1.8451 	 14.2044 	 82.7503
| 19> C 	 0.364225 	 13.6089 	 81.3825
| 20> H 	 1.13241 	 13.4665 	 80.6543
| 21> H 	 -0.496136 	 12.9442 	 81.1107
| 22> H 	 -0.0559906 	 14.6304 	 81.0928
| 23> S 	 5.86868 	 13.4797 	 87.1707
| 24> C 	 7.57121 	 13.8147 	 86.7219
| 25> C 	 7.8046 	 13.1938 	 85.5279
| 26> C 	 6.75144 	 12.4464 	 84.9301
| 27> C 	 5.57439 	 12.517 	 85.7412
| 28> H 	 8.82743 	 13.3504 	 85.1963
| 29> C 	 6.91684 	 11.7247 	 83.6783
| 30> H 	 6.24784 	 10.8848 	 83.7866
| 31> H 	 7.92493 	 11.3194 	 83.6351
| 32> C 	 6.7197 	 12.6402 	 82.409
| 33> H 	 7.36296 	 13.489 	 82.6178
| 34> H 	 5.63654 	 13.104 	 82.2628
| 35> C 	 7.12242 	 12.0402 	 81.1004
| 36> H 	 8.10231 	 11.6821 	 81.2549
| 37> H 	 6.97481 	 12.6567 	 80.2787
| 38> H 	 6.68593 	 11.0925 	 80.9333
| 39> H 	 1.11233 	 10.3698 	 85.5368
| 40> H 	 8.24885 	 14.3935 	 87.3609
| 41> *
| 42>
| 43>                          ****END OF INPUT****

CARTESIAN COORDINATES (ANGSTROEM)
---------------------------------
  S      3.378560   10.875300   86.433400
  C      1.961940   11.033500   85.374900
  C      2.118860   11.921200   84.357200
  C      3.383020   12.506700   84.355100
  C      4.206810   12.073400   85.414600
  H      3.724300   13.248200   83.787000
  C      1.193910   12.114700   83.212900
  H      0.185215   11.694600   83.245900
  H      1.709820   11.582700   82.395000
  C      0.929696   13.574000   82.816600
  H      0.239022   14.033700   83.527900
  H      1.845100   14.204400   82.750300
  C      0.364225   13.608900   81.382500
  H      1.132410   13.466500   80.654300
  H     -0.496136   12.944200   81.110700
  H     -0.055991   14.630400   81.092800
  S      5.868680   13.479700   87.170700
  C      7.571210   13.814700   86.721900
  C      7.804600   13.193800   85.527900
  C      6.751440   12.446400   84.930100
  C      5.574390   12.517000   85.741200
  H      8.827430   13.350400   85.196300
  C      6.916840   11.724700   83.678300
  H      6.247840   10.884800   83.786600
  H      7.924930   11.319400   83.635100
  C      6.719700   12.640200   82.409000
  H      7.362960   13.489000   82.617800
  H      5.636540   13.104000   82.262800
  C      7.122420   12.040200   81.100400
  H      8.102310   11.682100   81.254900
  H      6.974810   12.656700   80.278700
  H      6.685930   11.092500   80.933300
  H      1.112330   10.369800   85.536800
  H      8.248850   14.393500   87.360900

 Total Charge           Charge          ....    0
 Multiplicity           Mult            ....    1
 Number of Electrons    NEL             ....  134
 Basis Dimension        Dim             ....  322

ORBITAL ENERGIES
----------------

  NO   OCC          E(Eh)            E(eV)
   0   2.0000     -88.965950     -2420.8866
   1   2.0000     -88.961723     -2420.7715
   2   2.0000     -10.333773      -281.1962
   3   2.0000     -10.329787      -281.0878
   4   2.0000     -10.320095      -280.8241
   5   2.0000     -10.312901      -280.6283
   6   2.0000     -10.303508      -280.3727
   7   2.0000     -10.296457      -280.1808
   8   2.0000     -10.295168      -280.1458
   9   2.0000     -10.293258      -280.0938
  10   2.0000     -10.293172      -280.0915
  11   2.0000     -10.291948      -280.0581
  12   2.0000     -10.289448      -279.9901
  13   2.0000     -10.287086      -279.9258
  14   2.0000     -10.284701      -279.8609
  15   2.0000     -10.263737      -279.2905
  16   2.0000      -8.080025      -219.8687
  17   2.0000      -8.075931      -219.7573
  18   2.0000      -6.038376      -164.3126
  19   2.0000      -6.034710      -164.2128
  20   2.0000      -6.034428      -164.2051
  21   2.0000      -6.030913      -164.1095
  22   2.0000      -6.030372      -164.0948
  23   2.0000      -6.026860      -163.9992
  24   2.0000      -1.001226       -27.2448
  25   2.0000      -0.981807       -26.7163
  26   2.0000      -0.914600       -24.8875
  27   2.0000      -0.911768       -24.8105
  28   2.0000      -0.867707       -23.6115
  29   2.0000      -0.857347       -23.3296
  30   2.0000      -0.849814       -23.1246
  31   2.0000      -0.816533       -22.2190
  32   2.0000      -0.781909       -21.2768
  33   2.0000      -0.768689       -20.9171
  34   2.0000      -0.709309       -19.3013
  35   2.0000      -0.700487       -19.0612
  36   2.0000      -0.693671       -18.8758
  37   2.0000      -0.657519       -17.8920
  38   2.0000      -0.647761       -17.6265
  39   2.0000      -0.628590       -17.1048
  40   2.0000      -0.595578       -16.2065
  41   2.0000      -0.570216       -15.5164
  42   2.0000      -0.567800       -15.4506
  43   2.0000      -0.561206       -15.2712
  44   2.0000      -0.537406       -14.6236
  45   2.0000      -0.521044       -14.1783
  46   2.0000      -0.518042       -14.0966
  47   2.0000      -0.516652       -14.0588
  48   2.0000      -0.506991       -13.7959
  49   2.0000      -0.506093       -13.7715
  50   2.0000      -0.488028       -13.2799
  51   2.0000      -0.472429       -12.8554
  52   2.0000      -0.471296       -12.8246
  53   2.0000      -0.468150       -12.7390
  54   2.0000      -0.454519       -12.3681
  55   2.0000      -0.450515       -12.2591
  56   2.0000      -0.442972       -12.0539
  57   2.0000      -0.437511       -11.9053
  58   2.0000      -0.434127       -11.8132
  59   2.0000      -0.428703       -11.6656
  60   2.0000      -0.419573       -11.4172
  61   2.0000      -0.415877       -11.3166
  62   2.0000      -0.408865       -11.1258
  63   2.0000      -0.341181        -9.2840
  64   2.0000      -0.332702        -9.0533
  65   2.0000      -0.321896        -8.7592
  66   2.0000      -0.296556        -8.0697
  67   0.0000       0.031944         0.8692
  68   0.0000       0.061543         1.6747
  69   0.0000       0.113691         3.0937
  70   0.0000       0.120211         3.2711
  71   0.0000       0.130615         3.5542

MULLIKEN ATOMIC CHARGES
-----------------------
   0 S :    0.105541
   1 C :   -0.144180
   2 C :    0.002035
   3 C :    0.090727
   4 C :   -0.188902
   5 H :   -0.047559
   6 C :    0.041071
   7 H :    0.024308
   8 H :    0.044636
   9 C :   -0.082412
  10 H :    0.043005
  11 H :    0.040825
  12 C :   -0.090269
  13 H :    0.028806
  14 H :    0.036247
  15 H :    0.032152
  16 S :    0.094180
  17 C :   -0.119481
  18 C :   -0.035347
  19 C :   -0.025028
  20 C :   -0.156356
  21 H :    0.018362
  22 C :    0.096779
  23 H :    0.031279
  24 H :    0.017686
  25 C :   -0.132418
  26 H :    0.025439
  27 H :    0.039586
  28 C :    0.058195
  29 H :   -0.003020
  30 H :    0.031674
  31 H :    0.005395
  32 H :    0.047967
  33 H :    0.069077
Sum of atomic charges:    0.0000000

LOEWDIN ATOMIC CHARGES
----------------------
   0 S :    0.385211
   1 C :   -0.183143
   2 C :   -0.068070
   3 C :   -0.035530
   4 C :   -0.179410
   5 H :    0.006144
   6 C :   -0.032756
   7 H :    0.032264
   8 H :    0.039558
   9 C :   -0.039275
  10 H :    0.027447
  11 H :    0.028075
  12 C :   -0.077037
  13 H :    0.019667
  14 H :    0.026427
  15 H :    0.031111
  16 S :    0.389601
  17 C :   -0.177136
  18 C :   -0.076729
  19 C :   -0.056431
  20 C :   -0.207162
  21 H :    0.032368
  22 C :   -0.032319
  23 H :    0.033152
  24 H :    0.033505
  25 C :   -0.039440
  26 H :    0.021368
  27 H :    0.030563
  28 C :   -0.059853
  29 H :    0.021342
  30 H :    0.021075
  31 H :    0.023113
  32 H :    0.026356
  33 H :    0.035948

  Mayer bond orders larger than 0.100000
B(  0-S ,  1-C ) :   1.1336 B(  0-S ,  4-C ) :   1.1563 B(  1-C ,  2-C ) :   1.6135
B(  1-C , 32-H ) :   0.9689 B(  2-C ,  3-C ) :   1.2246 B(  2-C ,  6-C ) :   1.0155
B(  3-C ,  4-C ) :   1.5752 B(  3-C ,  5-H ) :   1.0139 B(  4-C , 20-C ) :   1.0238
B(  6-C ,  7-H ) :   0.9459 B(  6-C ,  8-H ) :   0.9453 B(  6-C ,  9-C ) :   1.0482
B(  9-C , 10-H ) :   0.9587 B(  9-C , 11-H ) :   0.9570 B(  9-C , 12-C ) :   1.0723
B( 12-C , 13-H ) :   0.9780 B( 12-C , 14-H ) :   0.9749 B( 12-C , 15-H ) :   0.9732
B( 16-S , 17-C ) :   1.1425 B( 16-S , 20-C ) :   1.1629 B( 17-C , 18-C ) :   1.6066
B( 17-C , 20-C ) :   0.1036 B( 17-C , 33-H ) :   0.9684 B( 18-C , 19-C ) :   1.2359
B( 18-C , 21-H ) :   0.9885 B( 19-C , 20-C ) :   1.5470 B( 19-C , 22-C ) :   1.0701
B( 22-C , 23-H ) :   0.9179 B( 22-C , 24-H ) :   0.9287 B( 22-C , 25-C ) :   1.0462
B( 25-C , 26-H ) :   0.9578 B( 25-C , 27-H ) :   0.9501 B( 25-C , 28-C ) :   1.0928
B( 28-C , 29-H ) :   0.9600 B( 28-C , 30-H ) :   0.9720 B( 28-C , 31-H ) :   0.9631

Dispersion correction           -0.014118440
FINAL SINGLE POINT ENERGY     -1339.862790752241

DIPOLE MOMENT
-------------
                                X             Y             Z
Electronic contribution:      5.18732      -3.90571      30.24081
Nuclear contribution   :     -5.10012       3.97852     -30.96953
                        -----------------------------------------
Total Dipole Moment    :      0.08720       0.07281      -0.72872
                        -----------------------------------------
Magnitude (a.u.)       :      0.73752
Magnitude (Debye)      :      1.87463

Rotational constants in cm-1:     0.016228     0.009097     0.006930
Rotational constants in MHz :   486.513338   272.720192   207.753961

                             ****ORCA TERMINATED NORMALLY****
TOTAL RUN TIME: 0 days 0 hours 0 minutes 35 seconds 143 msec
