                         Program Version 4.2.1 -  RELEASE  -
|  1> ! wB97X-D3 SP def2-SVP
|  2> %pal
|  3> nprocs 16
|  4> end
|  5>
|  6> * xyz 0 1
|  7> S 	 -29.3529 	 59.6614 	 109.004
|  8> C 	 -28.189 	 60.1122 	 107.803
|  9> C 	 -28.6027 	 59.946 	 106.491
| 10> C 	 -29.8414 	 59.2404 	 106.541
| 11> C 	 -30.3586 	 58.963 	 107.774
| 12> H 	 -30.3922 	 58.829 	 105.704
| 13> C 	 -27.8142 	 60.3831 	 105.274
| 14> H 	 -27.5536 	 59.4279 	 104.73
| 15> H 	 -26.795 	 60.7442 	 105.605
| 16> C 	 -28.5378 	 61.53 	 104.516
| 17> H 	 -29.5965 	 61.2586 	 104.261
| 18> H 	 -28.7748 	 62.2879 	 105.318
| 19> C 	 -27.7635 	 62.1305 	 103.302
| 20> H 	 -26.6799 	 62.1881 	 103.41
| 21> H 	 -27.939 	 61.4709 	 102.501
| 22> H 	 -28.1481 	 63.1192 	 102.932
| 23> S 	 -32.193 	 57.0033 	 107.177
| 24> C 	 -33.6281 	 56.7909 	 108.088
| 25> C 	 -33.7629 	 57.7843 	 109.019
| 26> C 	 -32.6935 	 58.7233 	 108.984
| 27> C 	 -31.6794 	 58.4187 	 108.045
| 28> H 	 -34.5922 	 57.8422 	 109.673
| 29> C 	 -32.5901 	 59.7142 	 110.053
| 30> H 	 -33.474 	 60.2988 	 110.319
| 31> H 	 -31.8566 	 60.4965 	 109.716
| 32> C 	 -32.3073 	 59.1418 	 111.495
| 33> H 	 -31.315 	 58.7079 	 111.438
| 34> H 	 -33.0695 	 58.3929 	 111.798
| 35> C 	 -32.3533 	 60.1362 	 112.626
| 36> H 	 -33.3716 	 60.4897 	 112.841
| 37> H 	 -31.6428 	 60.9494 	 112.423
| 38> H 	 -32.0866 	 59.6835 	 113.587
| 39> H 	 -27.1641 	 60.3679 	 108.121
| 40> H 	 -34.2939 	 55.95 	 108.006
| 41> *
| 42>
| 43>                          ****END OF INPUT****

CARTESIAN COORDINATES (ANGSTROEM)
---------------------------------
  S    -29.352900   59.661400  109.004000
  C    -28.189000   60.112200  107.803000
  C    -28.602700   59.946000  106.491000
  C    -29.841400   59.240400  106.541000
  C    -30.358600   58.963000  107.774000
  H    -30.392200   58.829000  105.704000
  C    -27.814200   60.383100  105.274000
  H    -27.553600   59.427900  104.730000
  H    -26.795000   60.744200  105.605000
  C    -28.537800   61.530000  104.516000
  H    -29.596500   61.258600  104.261000
  H    -28.774800   62.287900  105.318000
  C    -27.763500   62.130500  103.302000
  H    -26.679900   62.188100  103.410000
  H    -27.939000   61.470900  102.501000
  H    -28.148100   63.119200  102.932000
  S    -32.193000   57.003300  107.177000
  C    -33.628100   56.790900  108.088000
  C    -33.762900   57.784300  109.019000
  C    -32.693500   58.723300  108.984000
  C    -31.679400   58.418700  108.045000
  H    -34.592200   57.842200  109.673000
  C    -32.590100   59.714200  110.053000
  H    -33.474000   60.298800  110.319000
  H    -31.856600   60.496500  109.716000
  C    -32.307300   59.141800  111.495000
  H    -31.315000   58.707900  111.438000
  H    -33.069500   58.392900  111.798000
  C    -32.353300   60.136200  112.626000
  H    -33.371600   60.489700  112.841000
  H    -31.642800   60.949400  112.423000
  H    -32.086600   59.683500  113.587000
  H    -27.164100   60.367900  108.121000
  H    -34.293900   55.950000  108.006000

 Total Charge           Charge          ....    0
 Multiplicity           Mult            ....    1
 Number of Electrons    NEL             ....  134
 Basis Dimension        Dim             ....  322

ORBITAL ENERGIES
----------------

  NO   OCC          E(Eh)            E(eV)
   0   2.0000     -88.968268     -2420.9496
   1   2.0000     -88.963958     -2420.8324
   2   2.0000     -10.328458      -281.0516
   3   2.0000     -10.327557      -281.0271
   4   2.0000     -10.315985      -280.7122
   5   2.0000     -10.312285      -280.6115
   6   2.0000     -10.307184      -280.4727
   7   2.0000     -10.305713      -280.4327
   8   2.0000     -10.300468      -280.2900
   9   2.0000     -10.299212      -280.2558
  10   2.0000     -10.293169      -280.0914
  11   2.0000     -10.287194      -279.9288
  12   2.0000     -10.287056      -279.9250
  13   2.0000     -10.284491      -279.8552
  14   2.0000     -10.282990      -279.8144
  15   2.0000     -10.276285      -279.6319
  16   2.0000      -8.083262      -219.9567
  17   2.0000      -8.079475      -219.8537
  18   2.0000      -6.041669      -164.4022
  19   2.0000      -6.037948      -164.3009
  20   2.0000      -6.037788      -164.2966
  21   2.0000      -6.034062      -164.1952
  22   2.0000      -6.033724      -164.1860
  23   2.0000      -6.030390      -164.0952
  24   2.0000      -1.012976       -27.5645
  25   2.0000      -0.991268       -26.9738
  26   2.0000      -0.909509       -24.7490
  27   2.0000      -0.907522       -24.6949
  28   2.0000      -0.872106       -23.7312
  29   2.0000      -0.855128       -23.2692
  30   2.0000      -0.848192       -23.0805
  31   2.0000      -0.816867       -22.2281
  32   2.0000      -0.783665       -21.3246
  33   2.0000      -0.768296       -20.9064
  34   2.0000      -0.708122       -19.2690
  35   2.0000      -0.695886       -18.9360
  36   2.0000      -0.687997       -18.7214
  37   2.0000      -0.669376       -18.2146
  38   2.0000      -0.639384       -17.3985
  39   2.0000      -0.621166       -16.9028
  40   2.0000      -0.600974       -16.3533
  41   2.0000      -0.568773       -15.4771
  42   2.0000      -0.567210       -15.4346
  43   2.0000      -0.552397       -15.0315
  44   2.0000      -0.527190       -14.3456
  45   2.0000      -0.523937       -14.2571
  46   2.0000      -0.521100       -14.1799
  47   2.0000      -0.513062       -13.9611
  48   2.0000      -0.505643       -13.7593
  49   2.0000      -0.501972       -13.6594
  50   2.0000      -0.495534       -13.4842
  51   2.0000      -0.472959       -12.8699
  52   2.0000      -0.467896       -12.7321
  53   2.0000      -0.463507       -12.6127
  54   2.0000      -0.459780       -12.5112
  55   2.0000      -0.454557       -12.3691
  56   2.0000      -0.450342       -12.2544
  57   2.0000      -0.443670       -12.0729
  58   2.0000      -0.432143       -11.7592
  59   2.0000      -0.420368       -11.4388
  60   2.0000      -0.417574       -11.3628
  61   2.0000      -0.409881       -11.1534
  62   2.0000      -0.407001       -11.0751
  63   2.0000      -0.357390        -9.7251
  64   2.0000      -0.333727        -9.0812
  65   2.0000      -0.325789        -8.8652
  66   2.0000      -0.285403        -7.7662
  67   0.0000       0.030637         0.8337
  68   0.0000       0.073922         2.0115
  69   0.0000       0.106389         2.8950
  70   0.0000       0.123260         3.3541
  71   0.0000       0.133345         3.6285

MULLIKEN ATOMIC CHARGES
-----------------------
   0 S :    0.107643
   1 C :   -0.137256
   2 C :   -0.073019
   3 C :   -0.000579
   4 C :   -0.124261
   5 H :    0.009909
   6 C :    0.059841
   7 H :    0.049049
   8 H :    0.023771
   9 C :   -0.114187
  10 H :    0.039175
  11 H :    0.038909
  12 C :   -0.022501
  13 H :    0.034571
  14 H :    0.022653
  15 H :    0.043335
  16 S :    0.101565
  17 C :   -0.079346
  18 C :   -0.022423
  19 C :   -0.014324
  20 C :   -0.137491
  21 H :    0.005120
  22 C :    0.003687
  23 H :    0.012770
  24 H :    0.032850
  25 C :   -0.078186
  26 H :    0.025247
  27 H :    0.032387
  28 C :   -0.048492
  29 H :    0.027887
  30 H :    0.035970
  31 H :    0.031535
  32 H :    0.059425
  33 H :    0.054763
Sum of atomic charges:   -0.0000000

LOEWDIN ATOMIC CHARGES
----------------------
   0 S :    0.426251
   1 C :   -0.198850
   2 C :   -0.063382
   3 C :   -0.062703
   4 C :   -0.200024
   5 H :    0.026731
   6 C :   -0.036166
   7 H :    0.037379
   8 H :    0.034227
   9 C :   -0.048946
  10 H :    0.029359
  11 H :    0.031600
  12 C :   -0.068341
  13 H :    0.026330
  14 H :    0.021126
  15 H :    0.035161
  16 S :    0.429384
  17 C :   -0.193652
  18 C :   -0.063195
  19 C :   -0.065656
  20 C :   -0.198569
  21 H :    0.025822
  22 C :   -0.052508
  23 H :    0.029334
  24 H :    0.025329
  25 C :   -0.039288
  26 H :    0.017236
  27 H :    0.027216
  28 C :   -0.069848
  29 H :    0.023636
  30 H :    0.026196
  31 H :    0.029466
  32 H :    0.029411
  33 H :    0.029934

  Mayer bond orders larger than 0.100000
B(  0-S ,  1-C ) :   1.1569 B(  0-S ,  4-C ) :   1.1409 B(  1-C ,  2-C ) :   1.5984
B(  1-C , 32-H ) :   0.9612 B(  2-C ,  3-C ) :   1.2411 B(  2-C ,  6-C ) :   1.0238
B(  3-C ,  4-C ) :   1.5791 B(  3-C ,  5-H ) :   0.9926 B(  4-C , 20-C ) :   1.0340
B(  6-C ,  7-H ) :   0.9401 B(  6-C ,  8-H ) :   0.9397 B(  6-C ,  9-C ) :   1.0380
B(  9-C , 10-H ) :   0.9623 B(  9-C , 11-H ) :   0.9554 B(  9-C , 12-C ) :   1.0635
B( 12-C , 13-H ) :   0.9767 B( 12-C , 14-H ) :   0.9750 B( 12-C , 15-H ) :   0.9758
B( 16-S , 17-C ) :   1.1687 B( 16-S , 20-C ) :   1.1522 B( 17-C , 18-C ) :   1.5772
B( 17-C , 33-H ) :   0.9696 B( 18-C , 19-C ) :   1.2568 B( 18-C , 21-H ) :   1.0017
B( 19-C , 20-C ) :   1.5390 B( 19-C , 22-C ) :   1.0869 B( 22-C , 23-H ) :   0.9266
B( 22-C , 24-H ) :   0.9295 B( 22-C , 25-C ) :   1.0433 B( 25-C , 26-H ) :   0.9536
B( 25-C , 27-H ) :   0.9545 B( 25-C , 28-C ) :   1.0959 B( 28-C , 29-H ) :   0.9704
B( 28-C , 30-H ) :   0.9741 B( 28-C , 31-H ) :   0.9703

Dispersion correction           -0.013839530
FINAL SINGLE POINT ENERGY     -1339.881662015335

DIPOLE MOMENT
-------------
                                X             Y             Z
Electronic contribution:     -3.86615     -14.93635       0.15162
Nuclear contribution   :      3.93351      15.10142      -0.19720
                        -----------------------------------------
Total Dipole Moment    :      0.06736       0.16506      -0.04557
                        -----------------------------------------
Magnitude (a.u.)       :      0.18401
Magnitude (Debye)      :      0.46771

Rotational constants in cm-1:     0.021478     0.007467     0.006090
Rotational constants in MHz :   643.884247   223.869851   182.567443

                             ****ORCA TERMINATED NORMALLY****
TOTAL RUN TIME: 0 days 0 hours 0 minutes 29 seconds 178 msec
