                         Program Version 4.2.1 -  RELEASE  -
|  1> ! wB97X-D3 SP def2-SVP
|  2> %pal
|  3> nprocs 16
|  4> end
|  5>
|  6> * xyz 0 1
|  7> S 	 10.3799 	 -6.20435 	 91.5709
|  8> C 	 10.8293 	 -4.69262 	 92.2221
|  9> C 	 9.99508 	 -3.62816 	 91.8512
| 10> C 	 8.85705 	 -4.13786 	 91.103
| 11> C 	 8.86136 	 -5.51264 	 90.9332
| 12> H 	 8.16308 	 -3.44157 	 90.6793
| 13> C 	 10.1748 	 -2.14055 	 92.1528
| 14> H 	 10.4027 	 -2.01185 	 93.1707
| 15> H 	 9.26842 	 -1.58295 	 92.0665
| 16> C 	 11.2179 	 -1.33799 	 91.2845
| 17> H 	 11.0379 	 -0.272121 	 91.5859
| 18> H 	 12.1704 	 -1.80491 	 91.5262
| 19> C 	 10.9179 	 -1.43821 	 89.6876
| 20> H 	 11.6431 	 -0.895271 	 89.0285
| 21> H 	 10.9992 	 -2.48144 	 89.3285
| 22> H 	 9.95499 	 -0.960275 	 89.4797
| 23> S 	 8.84172 	 -7.36198 	 88.8531
| 24> C 	 7.39311 	 -7.50057 	 87.908
| 25> C 	 6.29917 	 -6.79252 	 88.4519
| 26> C 	 6.73319 	 -6.04953 	 89.5856
| 27> C 	 8.02335 	 -6.29536 	 90.0262
| 28> H 	 5.39314 	 -6.83265 	 87.8863
| 29> C 	 5.73533 	 -5.09188 	 90.3391
| 30> H 	 5.87045 	 -4.16234 	 89.844
| 31> H 	 6.07854 	 -4.8063 	 91.3832
| 32> C 	 4.26062 	 -5.4765 	 90.1616
| 33> H 	 4.02354 	 -6.53124 	 90.5901
| 34> H 	 4.11257 	 -5.44779 	 89.1292
| 35> C 	 3.43017 	 -4.3845 	 90.8014
| 36> H 	 2.35272 	 -4.35909 	 90.5929
| 37> H 	 3.83999 	 -3.4255 	 90.4566
| 38> H 	 3.47761 	 -4.42825 	 91.8699
| 39> H 	 11.7883 	 -4.54062 	 92.6981
| 40> H 	 7.30226 	 -7.99761 	 86.945
| 41> *
| 42>
| 43>                          ****END OF INPUT****

CARTESIAN COORDINATES (ANGSTROEM)
---------------------------------
  S     10.379900   -6.204350   91.570900
  C     10.829300   -4.692620   92.222100
  C      9.995080   -3.628160   91.851200
  C      8.857050   -4.137860   91.103000
  C      8.861360   -5.512640   90.933200
  H      8.163080   -3.441570   90.679300
  C     10.174800   -2.140550   92.152800
  H     10.402700   -2.011850   93.170700
  H      9.268420   -1.582950   92.066500
  C     11.217900   -1.337990   91.284500
  H     11.037900   -0.272121   91.585900
  H     12.170400   -1.804910   91.526200
  C     10.917900   -1.438210   89.687600
  H     11.643100   -0.895271   89.028500
  H     10.999200   -2.481440   89.328500
  H      9.954990   -0.960275   89.479700
  S      8.841720   -7.361980   88.853100
  C      7.393110   -7.500570   87.908000
  C      6.299170   -6.792520   88.451900
  C      6.733190   -6.049530   89.585600
  C      8.023350   -6.295360   90.026200
  H      5.393140   -6.832650   87.886300
  C      5.735330   -5.091880   90.339100
  H      5.870450   -4.162340   89.844000
  H      6.078540   -4.806300   91.383200
  C      4.260620   -5.476500   90.161600
  H      4.023540   -6.531240   90.590100
  H      4.112570   -5.447790   89.129200
  C      3.430170   -4.384500   90.801400
  H      2.352720   -4.359090   90.592900
  H      3.839990   -3.425500   90.456600
  H      3.477610   -4.428250   91.869900
  H     11.788300   -4.540620   92.698100
  H      7.302260   -7.997610   86.945000

 Total Charge           Charge          ....    0
 Multiplicity           Mult            ....    1
 Number of Electrons    NEL             ....  134
 Basis Dimension        Dim             ....  322

ORBITAL ENERGIES
----------------

  NO   OCC          E(Eh)            E(eV)
   0   2.0000     -88.968112     -2420.9454
   1   2.0000     -88.966692     -2420.9068
   2   2.0000     -10.334018      -281.2029
   3   2.0000     -10.326482      -280.9979
   4   2.0000     -10.320569      -280.8370
   5   2.0000     -10.314028      -280.6590
   6   2.0000     -10.307605      -280.4842
   7   2.0000     -10.305313      -280.4218
   8   2.0000     -10.301002      -280.3045
   9   2.0000     -10.296440      -280.1804
  10   2.0000     -10.296126      -280.1718
  11   2.0000     -10.294669      -280.1322
  12   2.0000     -10.289802      -279.9998
  13   2.0000     -10.289622      -279.9948
  14   2.0000     -10.286991      -279.9233
  15   2.0000     -10.276585      -279.6401
  16   2.0000      -8.083033      -219.9505
  17   2.0000      -8.081125      -219.8986
  18   2.0000      -6.041509      -164.3978
  19   2.0000      -6.039654      -164.3473
  20   2.0000      -6.037604      -164.2916
  21   2.0000      -6.035638      -164.2381
  22   2.0000      -6.033749      -164.1867
  23   2.0000      -6.031910      -164.1366
  24   2.0000      -1.003427       -27.3046
  25   2.0000      -0.980785       -26.6885
  26   2.0000      -0.912044       -24.8180
  27   2.0000      -0.901536       -24.5320
  28   2.0000      -0.867126       -23.5957
  29   2.0000      -0.850403       -23.1407
  30   2.0000      -0.839712       -22.8497
  31   2.0000      -0.808874       -22.0106
  32   2.0000      -0.781568       -21.2676
  33   2.0000      -0.770255       -20.9597
  34   2.0000      -0.705870       -19.2077
  35   2.0000      -0.699370       -19.0308
  36   2.0000      -0.696005       -18.9393
  37   2.0000      -0.656430       -17.8624
  38   2.0000      -0.637510       -17.3475
  39   2.0000      -0.621152       -16.9024
  40   2.0000      -0.593373       -16.1465
  41   2.0000      -0.577359       -15.7107
  42   2.0000      -0.571135       -15.5414
  43   2.0000      -0.551786       -15.0149
  44   2.0000      -0.531722       -14.4689
  45   2.0000      -0.520005       -14.1501
  46   2.0000      -0.514897       -14.0111
  47   2.0000      -0.506049       -13.7703
  48   2.0000      -0.498806       -13.5732
  49   2.0000      -0.494052       -13.4438
  50   2.0000      -0.483903       -13.1677
  51   2.0000      -0.476216       -12.9585
  52   2.0000      -0.469848       -12.7852
  53   2.0000      -0.463120       -12.6021
  54   2.0000      -0.456918       -12.4334
  55   2.0000      -0.453254       -12.3337
  56   2.0000      -0.446600       -12.1526
  57   2.0000      -0.436429       -11.8758
  58   2.0000      -0.431800       -11.7499
  59   2.0000      -0.431328       -11.7370
  60   2.0000      -0.427527       -11.6336
  61   2.0000      -0.412889       -11.2353
  62   2.0000      -0.409417       -11.1408
  63   2.0000      -0.357040        -9.7156
  64   2.0000      -0.333579        -9.0771
  65   2.0000      -0.327825        -8.9206
  66   2.0000      -0.282033        -7.6745
  67   0.0000       0.024908         0.6778
  68   0.0000       0.068320         1.8591
  69   0.0000       0.103099         2.8055
  70   0.0000       0.118257         3.2179
  71   0.0000       0.133890         3.6433

MULLIKEN ATOMIC CHARGES
-----------------------
   0 S :    0.102654
   1 C :   -0.110900
   2 C :   -0.106485
   3 C :    0.017196
   4 C :   -0.125387
   5 H :    0.003996
   6 C :    0.080312
   7 H :    0.022096
   8 H :    0.004651
   9 C :   -0.079812
  10 H :    0.047738
  11 H :    0.037736
  12 C :   -0.099724
  13 H :    0.040101
  14 H :    0.057422
  15 H :    0.032736
  16 S :    0.096122
  17 C :   -0.096636
  18 C :   -0.048688
  19 C :   -0.043512
  20 C :   -0.095757
  21 H :    0.020499
  22 C :    0.004763
  23 H :    0.021425
  24 H :    0.043103
  25 C :   -0.054695
  26 H :    0.055981
  27 H :    0.021171
  28 C :   -0.032409
  29 H :    0.031954
  30 H :    0.017019
  31 H :    0.028324
  32 H :    0.047878
  33 H :    0.059129
Sum of atomic charges:    0.0000000

LOEWDIN ATOMIC CHARGES
----------------------
   0 S :    0.407242
   1 C :   -0.208611
   2 C :   -0.060448
   3 C :   -0.055460
   4 C :   -0.180470
   5 H :    0.027089
   6 C :   -0.033871
   7 H :    0.027293
   8 H :    0.023953
   9 C :   -0.029733
  10 H :    0.031687
  11 H :    0.020704
  12 C :   -0.078842
  13 H :    0.029461
  14 H :    0.031343
  15 H :    0.022632
  16 S :    0.398704
  17 C :   -0.183163
  18 C :   -0.077777
  19 C :   -0.048380
  20 C :   -0.198740
  21 H :    0.032009
  22 C :   -0.034342
  23 H :    0.023746
  24 H :    0.035272
  25 C :   -0.039518
  26 H :    0.037103
  27 H :    0.015118
  28 C :   -0.064022
  29 H :    0.025706
  30 H :    0.024863
  31 H :    0.022904
  32 H :    0.025527
  33 H :    0.031024

  Mayer bond orders larger than 0.100000
B(  0-S ,  1-C ) :   1.1550 B(  0-S ,  4-C ) :   1.1401 B(  1-C ,  2-C ) :   1.6027
B(  1-C , 32-H ) :   0.9652 B(  2-C ,  3-C ) :   1.2618 B(  2-C ,  6-C ) :   1.0205
B(  3-C ,  4-C ) :   1.5473 B(  3-C ,  5-H ) :   0.9926 B(  4-C , 20-C ) :   1.0567
B(  6-C ,  7-H ) :   0.9405 B(  6-C ,  8-H ) :   0.9420 B(  6-C ,  9-C ) :   1.0579
B(  9-C , 10-H ) :   0.9598 B(  9-C , 11-H ) :   0.9631 B(  9-C , 12-C ) :   1.0599
B( 12-C , 13-H ) :   0.9788 B( 12-C , 14-H ) :   0.9759 B( 12-C , 15-H ) :   0.9779
B( 16-S , 17-C ) :   1.1831 B( 16-S , 20-C ) :   1.1093 B( 17-C , 18-C ) :   1.5905
B( 17-C , 33-H ) :   0.9606 B( 18-C , 19-C ) :   1.2376 B( 18-C , 21-H ) :   0.9969
B( 19-C , 20-C ) :   1.6225 B( 19-C , 22-C ) :   1.0033 B( 22-C , 23-H ) :   0.9231
B( 22-C , 24-H ) :   0.9505 B( 22-C , 25-C ) :   1.0679 B( 25-C , 26-H ) :   0.9581
B( 25-C , 27-H ) :   0.9376 B( 25-C , 28-C ) :   1.0877 B( 28-C , 29-H ) :   0.9731
B( 28-C , 30-H ) :   0.9701 B( 28-C , 31-H ) :   0.9751

Dispersion correction           -0.013982706
FINAL SINGLE POINT ENERGY     -1339.866255097393

DIPOLE MOMENT
-------------
                                X             Y             Z
Electronic contribution:     12.64188     -23.52909      -1.24357
Nuclear contribution   :    -12.95042      24.23686       1.01110
                        -----------------------------------------
Total Dipole Moment    :     -0.30855       0.70777      -0.23247
                        -----------------------------------------
Magnitude (a.u.)       :      0.80634
Magnitude (Debye)      :      2.04956

Rotational constants in cm-1:     0.016937     0.008637     0.006862
Rotational constants in MHz :   507.756669   258.939085   205.713607

                             ****ORCA TERMINATED NORMALLY****
TOTAL RUN TIME: 0 days 0 hours 0 minutes 33 seconds 844 msec
