                         Program Version 4.2.1 -  RELEASE  -
|  1> ! wB97X-D3 SP def2-SVP
|  2> %pal
|  3> nprocs 16
|  4> end
|  5>
|  6> * xyz 0 1
|  7> S 	 -43.3223 	 26.9857 	 88.208
|  8> C 	 -42.9141 	 28.542 	 88.997
|  9> C 	 -42.5966 	 29.5089 	 88.0004
| 10> C 	 -42.5087 	 28.9497 	 86.7261
| 11> C 	 -42.7823 	 27.5588 	 86.6519
| 12> H 	 -42.2072 	 29.4702 	 85.8146
| 13> C 	 -42.3291 	 30.957 	 88.2443
| 14> H 	 -41.4396 	 31.3069 	 87.7175
| 15> H 	 -42.0004 	 31.0474 	 89.2884
| 16> C 	 -43.4595 	 31.9348 	 87.8974
| 17> H 	 -43.808 	 31.8268 	 86.8611
| 18> H 	 -44.3764 	 31.7808 	 88.4904
| 19> C 	 -42.8532 	 33.3302 	 88.1283
| 20> H 	 -41.988 	 33.4444 	 87.4452
| 21> H 	 -43.5627 	 34.1387 	 87.8764
| 22> H 	 -42.4653 	 33.4482 	 89.1447
| 23> S 	 -44.2413 	 25.8812 	 85.1888
| 24> C 	 -43.6731 	 25.2493 	 83.6033
| 25> C 	 -42.3449 	 25.614 	 83.3786
| 26> C 	 -41.8492 	 26.4909 	 84.4411
| 27> C 	 -42.7083 	 26.6937 	 85.5191
| 28> H 	 -41.7172 	 25.2271 	 82.5404
| 29> C 	 -40.5005 	 27.1228 	 84.3722
| 30> H 	 -39.8793 	 26.257 	 84.1425
| 31> H 	 -40.2212 	 27.4614 	 85.3656
| 32> C 	 -40.2631 	 28.3454 	 83.5141
| 33> H 	 -39.4038 	 28.9579 	 83.8478
| 34> H 	 -40.9389 	 29.1607 	 83.6943
| 35> C 	 -40.4611 	 28.1945 	 82.1005
| 36> H 	 -40.3393 	 29.1091 	 81.4587
| 37> H 	 -41.4444 	 27.7126 	 81.9014
| 38> H 	 -39.7756 	 27.4603 	 81.6549
| 39> H 	 -43.1271 	 28.8856 	 90.0323
| 40> H 	 -44.3273 	 24.5578 	 83.0657
| 41> *
| 42>
| 43>                          ****END OF INPUT****

CARTESIAN COORDINATES (ANGSTROEM)
---------------------------------
  S    -43.322300   26.985700   88.208000
  C    -42.914100   28.542000   88.997000
  C    -42.596600   29.508900   88.000400
  C    -42.508700   28.949700   86.726100
  C    -42.782300   27.558800   86.651900
  H    -42.207200   29.470200   85.814600
  C    -42.329100   30.957000   88.244300
  H    -41.439600   31.306900   87.717500
  H    -42.000400   31.047400   89.288400
  C    -43.459500   31.934800   87.897400
  H    -43.808000   31.826800   86.861100
  H    -44.376400   31.780800   88.490400
  C    -42.853200   33.330200   88.128300
  H    -41.988000   33.444400   87.445200
  H    -43.562700   34.138700   87.876400
  H    -42.465300   33.448200   89.144700
  S    -44.241300   25.881200   85.188800
  C    -43.673100   25.249300   83.603300
  C    -42.344900   25.614000   83.378600
  C    -41.849200   26.490900   84.441100
  C    -42.708300   26.693700   85.519100
  H    -41.717200   25.227100   82.540400
  C    -40.500500   27.122800   84.372200
  H    -39.879300   26.257000   84.142500
  H    -40.221200   27.461400   85.365600
  C    -40.263100   28.345400   83.514100
  H    -39.403800   28.957900   83.847800
  H    -40.938900   29.160700   83.694300
  C    -40.461100   28.194500   82.100500
  H    -40.339300   29.109100   81.458700
  H    -41.444400   27.712600   81.901400
  H    -39.775600   27.460300   81.654900
  H    -43.127100   28.885600   90.032300
  H    -44.327300   24.557800   83.065700

 Total Charge           Charge          ....    0
 Multiplicity           Mult            ....    1
 Number of Electrons    NEL             ....  134
 Basis Dimension        Dim             ....  322

ORBITAL ENERGIES
----------------

  NO   OCC          E(Eh)            E(eV)
   0   2.0000     -88.972473     -2421.0641
   1   2.0000     -88.961430     -2420.7636
   2   2.0000     -10.333310      -281.1837
   3   2.0000     -10.329533      -281.0809
   4   2.0000     -10.328353      -281.0488
   5   2.0000     -10.323838      -280.9259
   6   2.0000     -10.309380      -280.5325
   7   2.0000     -10.309123      -280.5255
   8   2.0000     -10.302131      -280.3352
   9   2.0000     -10.295568      -280.1566
  10   2.0000     -10.292692      -280.0784
  11   2.0000     -10.291302      -280.0406
  12   2.0000     -10.287975      -279.9500
  13   2.0000     -10.283686      -279.8333
  14   2.0000     -10.280148      -279.7371
  15   2.0000     -10.275470      -279.6098
  16   2.0000      -8.086074      -220.0333
  17   2.0000      -8.075746      -219.7522
  18   2.0000      -6.044662      -164.4836
  19   2.0000      -6.040616      -164.3735
  20   2.0000      -6.036938      -164.2734
  21   2.0000      -6.034404      -164.2045
  22   2.0000      -6.030222      -164.0907
  23   2.0000      -6.026438      -163.9877
  24   2.0000      -1.003937       -27.3185
  25   2.0000      -0.977331       -26.5945
  26   2.0000      -0.921423       -25.0732
  27   2.0000      -0.915816       -24.9206
  28   2.0000      -0.871807       -23.7231
  29   2.0000      -0.855204       -23.2713
  30   2.0000      -0.846598       -23.0371
  31   2.0000      -0.811605       -22.0849
  32   2.0000      -0.780992       -21.2519
  33   2.0000      -0.768194       -20.9036
  34   2.0000      -0.711894       -19.3716
  35   2.0000      -0.704310       -19.1652
  36   2.0000      -0.694284       -18.8924
  37   2.0000      -0.668181       -18.1821
  38   2.0000      -0.639261       -17.3952
  39   2.0000      -0.617200       -16.7949
  40   2.0000      -0.593848       -16.1594
  41   2.0000      -0.571871       -15.5614
  42   2.0000      -0.562563       -15.3081
  43   2.0000      -0.556718       -15.1491
  44   2.0000      -0.546957       -14.8835
  45   2.0000      -0.530781       -14.4433
  46   2.0000      -0.518887       -14.1196
  47   2.0000      -0.510125       -13.8812
  48   2.0000      -0.506156       -13.7732
  49   2.0000      -0.501797       -13.6546
  50   2.0000      -0.495769       -13.4906
  51   2.0000      -0.484207       -13.1759
  52   2.0000      -0.463515       -12.6129
  53   2.0000      -0.461174       -12.5492
  54   2.0000      -0.456273       -12.4158
  55   2.0000      -0.448246       -12.1974
  56   2.0000      -0.442989       -12.0543
  57   2.0000      -0.442541       -12.0421
  58   2.0000      -0.434349       -11.8192
  59   2.0000      -0.426459       -11.6045
  60   2.0000      -0.423307       -11.5188
  61   2.0000      -0.417558       -11.3623
  62   2.0000      -0.390478       -10.6255
  63   2.0000      -0.347531        -9.4568
  64   2.0000      -0.334586        -9.1046
  65   2.0000      -0.325083        -8.8460
  66   2.0000      -0.290050        -7.8927
  67   0.0000       0.020945         0.5699
  68   0.0000       0.060725         1.6524
  69   0.0000       0.102763         2.7963
  70   0.0000       0.117216         3.1896
  71   0.0000       0.124415         3.3855

MULLIKEN ATOMIC CHARGES
-----------------------
   0 S :    0.120399
   1 C :   -0.116538
   2 C :   -0.083340
   3 C :    0.040374
   4 C :   -0.154684
   5 H :    0.006548
   6 C :    0.033833
   7 H :    0.018302
   8 H :    0.016608
   9 C :   -0.062175
  10 H :    0.034013
  11 H :    0.034808
  12 C :   -0.054895
  13 H :    0.027719
  14 H :    0.040821
  15 H :    0.033747
  16 S :    0.068770
  17 C :   -0.105104
  18 C :   -0.020760
  19 C :   -0.083865
  20 C :   -0.118479
  21 H :    0.048279
  22 C :    0.068604
  23 H :    0.031565
  24 H :    0.022555
  25 C :   -0.026324
  26 H :    0.021621
  27 H :    0.005392
  28 C :   -0.068602
  29 H :    0.041467
  30 H :    0.036155
  31 H :    0.009210
  32 H :    0.060958
  33 H :    0.073017
Sum of atomic charges:    0.0000000

LOEWDIN ATOMIC CHARGES
----------------------
   0 S :    0.408532
   1 C :   -0.201631
   2 C :   -0.064045
   3 C :   -0.061797
   4 C :   -0.201771
   5 H :    0.030440
   6 C :   -0.036948
   7 H :    0.030402
   8 H :    0.031583
   9 C :   -0.038244
  10 H :    0.026528
  11 H :    0.026107
  12 C :   -0.066817
  13 H :    0.025646
  14 H :    0.027113
  15 H :    0.025364
  16 S :    0.375180
  17 C :   -0.164673
  18 C :   -0.076118
  19 C :   -0.055071
  20 C :   -0.193240
  21 H :    0.043277
  22 C :   -0.031839
  23 H :    0.035216
  24 H :    0.035112
  25 C :   -0.059058
  26 H :    0.031417
  27 H :    0.026016
  28 C :   -0.074193
  29 H :    0.033284
  30 H :    0.030616
  31 H :    0.015481
  32 H :    0.037253
  33 H :    0.030875

  Mayer bond orders larger than 0.100000
B(  0-S ,  1-C ) :   1.1386 B(  0-S ,  4-C ) :   1.1644 B(  1-C ,  2-C ) :   1.5691
B(  1-C ,  4-C ) :   0.1192 B(  1-C , 32-H ) :   0.9598 B(  2-C ,  3-C ) :   1.2853
B(  2-C ,  6-C ) :   1.0276 B(  3-C ,  4-C ) :   1.5115 B(  3-C ,  5-H ) :   0.9945
B(  4-C , 20-C ) :   1.0423 B(  6-C ,  7-H ) :   0.9443 B(  6-C ,  8-H ) :   0.9381
B(  6-C ,  9-C ) :   1.0534 B(  9-C , 10-H ) :   0.9559 B(  9-C , 11-H ) :   0.9542
B(  9-C , 12-C ) :   1.0756 B( 12-C , 13-H ) :   0.9743 B( 12-C , 14-H ) :   0.9730
B( 12-C , 15-H ) :   0.9742 B( 16-S , 17-C ) :   1.1551 B( 16-S , 20-C ) :   1.1160
B( 17-C , 18-C ) :   1.5950 B( 17-C , 20-C ) :   0.1006 B( 17-C , 33-H ) :   0.9682
B( 18-C , 19-C ) :   1.2118 B( 18-C , 21-H ) :   0.9801 B( 19-C , 20-C ) :   1.6289
B( 19-C , 22-C ) :   1.0462 B( 22-C , 23-H ) :   0.9373 B( 22-C , 24-H ) :   0.9279
B( 22-C , 25-C ) :   1.0726 B( 25-C , 26-H ) :   0.9451 B( 25-C , 27-H ) :   0.9347
B( 25-C , 28-C ) :   1.0883 B( 28-C , 29-H ) :   0.9682 B( 28-C , 30-H ) :   0.9634
B( 28-C , 31-H ) :   0.9714

Dispersion correction           -0.014261637
FINAL SINGLE POINT ENERGY     -1339.866656092894

DIPOLE MOMENT
-------------
                                X             Y             Z
Electronic contribution:    -12.69647     -24.77853       7.50491
Nuclear contribution   :     12.99196      25.32276      -7.75781
                        -----------------------------------------
Total Dipole Moment    :      0.29548       0.54424      -0.25291
                        -----------------------------------------
Magnitude (a.u.)       :      0.66893
Magnitude (Debye)      :      1.70028

Rotational constants in cm-1:     0.018537     0.008500     0.006562
Rotational constants in MHz :   555.734201   254.828845   196.723730

                             ****ORCA TERMINATED NORMALLY****
TOTAL RUN TIME: 0 days 0 hours 0 minutes 30 seconds 208 msec
