                         Program Version 4.2.1 -  RELEASE  -
|  1> ! wB97X-D3 SP def2-SVP
|  2> %pal
|  3> nprocs 16
|  4> end
|  5>
|  6> * xyz 0 1
|  7> S 	 -41.1987 	 50.6773 	 103.015
|  8> C 	 -40.0262 	 49.5912 	 103.849
|  9> C 	 -38.7369 	 50.0361 	 103.675
| 10> C 	 -38.7047 	 51.3024 	 102.979
| 11> C 	 -39.9013 	 51.7022 	 102.454
| 12> H 	 -37.789 	 51.9069 	 102.646
| 13> C 	 -37.5204 	 49.2274 	 104.035
| 14> H 	 -37.5055 	 48.9617 	 105.061
| 15> H 	 -36.548 	 49.6529 	 103.737
| 16> C 	 -37.5618 	 47.86 	 103.348
| 17> H 	 -36.5679 	 47.418 	 103.666
| 18> H 	 -38.3073 	 47.1656 	 103.678
| 19> C 	 -37.5032 	 47.9163 	 101.901
| 20> H 	 -37.3595 	 46.9426 	 101.525
| 21> H 	 -38.4201 	 48.2158 	 101.32
| 22> H 	 -36.6166 	 48.4578 	 101.596
| 23> S 	 -40.8194 	 54.2792 	 102.6
| 24> C 	 -40.8384 	 55.2947 	 101.221
| 25> C 	 -40.424 	 54.6257 	 100.065
| 26> C 	 -40.0898 	 53.2211 	 100.373
| 27> C 	 -40.1094 	 52.9265 	 101.744
| 28> H 	 -40.4014 	 55.0838 	 99.0751
| 29> C 	 -39.6345 	 52.3624 	 99.2147
| 30> H 	 -39.4966 	 52.9677 	 98.3252
| 31> H 	 -40.4798 	 51.727 	 99.003
| 32> C 	 -38.3949 	 51.4307 	 99.4458
| 33> H 	 -38.5292 	 50.8115 	 100.326
| 34> H 	 -37.5394 	 51.9625 	 99.8509
| 35> C 	 -37.9778 	 50.7098 	 98.213
| 36> H 	 -37.9076 	 51.3944 	 97.342
| 37> H 	 -38.7482 	 49.9617 	 98.0714
| 38> H 	 -37.0629 	 50.1476 	 98.4232
| 39> H 	 -40.3005 	 48.7027 	 104.276
| 40> H 	 -41.0281 	 56.3355 	 101.197
| 41> *
| 42>
| 43>                          ****END OF INPUT****

CARTESIAN COORDINATES (ANGSTROEM)
---------------------------------
  S    -41.198700   50.677300  103.015000
  C    -40.026200   49.591200  103.849000
  C    -38.736900   50.036100  103.675000
  C    -38.704700   51.302400  102.979000
  C    -39.901300   51.702200  102.454000
  H    -37.789000   51.906900  102.646000
  C    -37.520400   49.227400  104.035000
  H    -37.505500   48.961700  105.061000
  H    -36.548000   49.652900  103.737000
  C    -37.561800   47.860000  103.348000
  H    -36.567900   47.418000  103.666000
  H    -38.307300   47.165600  103.678000
  C    -37.503200   47.916300  101.901000
  H    -37.359500   46.942600  101.525000
  H    -38.420100   48.215800  101.320000
  H    -36.616600   48.457800  101.596000
  S    -40.819400   54.279200  102.600000
  C    -40.838400   55.294700  101.221000
  C    -40.424000   54.625700  100.065000
  C    -40.089800   53.221100  100.373000
  C    -40.109400   52.926500  101.744000
  H    -40.401400   55.083800   99.075100
  C    -39.634500   52.362400   99.214700
  H    -39.496600   52.967700   98.325200
  H    -40.479800   51.727000   99.003000
  C    -38.394900   51.430700   99.445800
  H    -38.529200   50.811500  100.326000
  H    -37.539400   51.962500   99.850900
  C    -37.977800   50.709800   98.213000
  H    -37.907600   51.394400   97.342000
  H    -38.748200   49.961700   98.071400
  H    -37.062900   50.147600   98.423200
  H    -40.300500   48.702700  104.276000
  H    -41.028100   56.335500  101.197000

 Total Charge           Charge          ....    0
 Multiplicity           Mult            ....    1
 Number of Electrons    NEL             ....  134
 Basis Dimension        Dim             ....  322

ORBITAL ENERGIES
----------------

  NO   OCC          E(Eh)            E(eV)
   0   2.0000     -88.965282     -2420.8684
   1   2.0000     -88.963382     -2420.8167
   2   2.0000     -10.324523      -280.9446
   3   2.0000     -10.322428      -280.8875
   4   2.0000     -10.314163      -280.6627
   5   2.0000     -10.311947      -280.6023
   6   2.0000     -10.308339      -280.5042
   7   2.0000     -10.304392      -280.3968
   8   2.0000     -10.298430      -280.2345
   9   2.0000     -10.296751      -280.1888
  10   2.0000     -10.291185      -280.0374
  11   2.0000     -10.288968      -279.9770
  12   2.0000     -10.284102      -279.8446
  13   2.0000     -10.275872      -279.6207
  14   2.0000     -10.274809      -279.5918
  15   2.0000     -10.269111      -279.4367
  16   2.0000      -8.079311      -219.8492
  17   2.0000      -8.078697      -219.8325
  18   2.0000      -6.037870      -164.2988
  19   2.0000      -6.037218      -164.2811
  20   2.0000      -6.033939      -164.1918
  21   2.0000      -6.032996      -164.1662
  22   2.0000      -6.030028      -164.0854
  23   2.0000      -6.029526      -164.0717
  24   2.0000      -1.005070       -27.3493
  25   2.0000      -0.980816       -26.6894
  26   2.0000      -0.925065       -25.1723
  27   2.0000      -0.907025       -24.6814
  28   2.0000      -0.873087       -23.7579
  29   2.0000      -0.851726       -23.1766
  30   2.0000      -0.845276       -23.0011
  31   2.0000      -0.815047       -22.1786
  32   2.0000      -0.787293       -21.4233
  33   2.0000      -0.770774       -20.9738
  34   2.0000      -0.710267       -19.3273
  35   2.0000      -0.698679       -19.0120
  36   2.0000      -0.690511       -18.7898
  37   2.0000      -0.659507       -17.9461
  38   2.0000      -0.644937       -17.5496
  39   2.0000      -0.607293       -16.5253
  40   2.0000      -0.594233       -16.1699
  41   2.0000      -0.583700       -15.8833
  42   2.0000      -0.565505       -15.3882
  43   2.0000      -0.561622       -15.2825
  44   2.0000      -0.542183       -14.7535
  45   2.0000      -0.524634       -14.2760
  46   2.0000      -0.519435       -14.1346
  47   2.0000      -0.511189       -13.9102
  48   2.0000      -0.506734       -13.7889
  49   2.0000      -0.498849       -13.5744
  50   2.0000      -0.490258       -13.3406
  51   2.0000      -0.486850       -13.2479
  52   2.0000      -0.471252       -12.8234
  53   2.0000      -0.466594       -12.6967
  54   2.0000      -0.458278       -12.4704
  55   2.0000      -0.452787       -12.3210
  56   2.0000      -0.442845       -12.0504
  57   2.0000      -0.436267       -11.8714
  58   2.0000      -0.430118       -11.7041
  59   2.0000      -0.423122       -11.5137
  60   2.0000      -0.421158       -11.4603
  61   2.0000      -0.408013       -11.1026
  62   2.0000      -0.401408       -10.9229
  63   2.0000      -0.333375        -9.0716
  64   2.0000      -0.324368        -8.8265
  65   2.0000      -0.322611        -8.7787
  66   2.0000      -0.308116        -8.3843
  67   0.0000       0.044232         1.2036
  68   0.0000       0.050851         1.3837
  69   0.0000       0.114690         3.1209
  70   0.0000       0.122609         3.3364
  71   0.0000       0.127776         3.4770

MULLIKEN ATOMIC CHARGES
-----------------------
   0 S :    0.110739
   1 C :   -0.100552
   2 C :   -0.065032
   3 C :    0.014740
   4 C :   -0.179699
   5 H :    0.044816
   6 C :    0.120778
   7 H :    0.026226
   8 H :    0.024137
   9 C :   -0.124776
  10 H :    0.025399
  11 H :    0.026654
  12 C :   -0.019205
  13 H :    0.010200
  14 H :    0.052008
  15 H :    0.015742
  16 S :    0.122827
  17 C :   -0.070693
  18 C :   -0.049557
  19 C :   -0.038658
  20 C :   -0.184820
  21 H :    0.027815
  22 C :    0.092843
  23 H :    0.009344
  24 H :    0.030643
  25 C :   -0.099773
  26 H :    0.031231
  27 H :    0.010757
  28 C :   -0.018538
  29 H :    0.038603
  30 H :    0.023071
  31 H :    0.033051
  32 H :    0.012997
  33 H :    0.046683
Sum of atomic charges:    0.0000000

LOEWDIN ATOMIC CHARGES
----------------------
   0 S :    0.386538
   1 C :   -0.163415
   2 C :   -0.057229
   3 C :   -0.064921
   4 C :   -0.205914
   5 H :    0.045656
   6 C :   -0.026859
   7 H :    0.030952
   8 H :    0.032825
   9 C :   -0.043460
  10 H :    0.031167
  11 H :    0.017784
  12 C :   -0.070387
  13 H :    0.021921
  14 H :    0.032632
  15 H :    0.023362
  16 S :    0.427285
  17 C :   -0.190349
  18 C :   -0.076198
  19 C :   -0.040636
  20 C :   -0.218634
  21 H :    0.032897
  22 C :   -0.028661
  23 H :    0.025844
  24 H :    0.035418
  25 C :   -0.051261
  26 H :    0.024110
  27 H :    0.017517
  28 C :   -0.062436
  29 H :    0.028622
  30 H :    0.024145
  31 H :    0.029684
  32 H :    0.007361
  33 H :    0.024639

  Mayer bond orders larger than 0.100000
B(  0-S ,  1-C ) :   1.1235 B(  0-S ,  4-C ) :   1.1407 B(  1-C ,  2-C ) :   1.6173
B(  1-C , 32-H ) :   0.9830 B(  2-C ,  3-C ) :   1.2140 B(  2-C ,  6-C ) :   1.0265
B(  3-C ,  4-C ) :   1.6078 B(  3-C ,  5-H ) :   0.9768 B(  4-C , 20-C ) :   1.0464
B(  6-C ,  7-H ) :   0.9268 B(  6-C ,  8-H ) :   0.9481 B(  6-C ,  9-C ) :   1.0778
B(  9-C , 10-H ) :   0.9525 B(  9-C , 11-H ) :   0.9529 B(  9-C , 12-C ) :   1.1001
B( 12-C , 13-H ) :   0.9620 B( 12-C , 14-H ) :   0.9624 B( 12-C , 15-H ) :   0.9684
B( 16-S , 17-C ) :   1.1795 B( 16-S , 20-C ) :   1.1332 B( 17-C , 18-C ) :   1.5968
B( 17-C , 33-H ) :   0.9685 B( 18-C , 19-C ) :   1.2462 B( 18-C , 21-H ) :   0.9861
B( 19-C , 20-C ) :   1.5903 B( 19-C , 22-C ) :   1.0447 B( 22-C , 23-H ) :   0.9412
B( 22-C , 24-H ) :   0.9167 B( 22-C , 25-C ) :   1.0586 B( 25-C , 26-H ) :   0.9410
B( 25-C , 27-H ) :   0.9527 B( 25-C , 28-C ) :   1.0968 B( 28-C , 29-H ) :   0.9724
B( 28-C , 30-H ) :   0.9741 B( 28-C , 31-H ) :   0.9686

Dispersion correction           -0.015884471
FINAL SINGLE POINT ENERGY     -1339.866843075422

DIPOLE MOMENT
-------------
                                X             Y             Z
Electronic contribution:    -19.33208      18.33851      13.48712
Nuclear contribution   :     19.83887     -18.71585     -13.79492
                        -----------------------------------------
Total Dipole Moment    :      0.50679      -0.37734      -0.30780
                        -----------------------------------------
Magnitude (a.u.)       :      0.70283
Magnitude (Debye)      :      1.78645

Rotational constants in cm-1:     0.019718     0.009919     0.007414
Rotational constants in MHz :   591.128630   297.370269   222.264279

                             ****ORCA TERMINATED NORMALLY****
TOTAL RUN TIME: 0 days 0 hours 0 minutes 30 seconds 312 msec
