                         Program Version 4.2.1 -  RELEASE  -
|  1> ! wB97X-D3 SP def2-SVP
|  2> %pal
|  3> nprocs 16
|  4> end
|  5>
|  6> * xyz 0 1
|  7> S 	 -3.40282 	 -14.3418 	 69.4685
|  8> C 	 -4.09654 	 -15.574 	 68.5138
|  9> C 	 -5.20463 	 -15.2176 	 67.7786
| 10> C 	 -5.42305 	 -13.7813 	 67.9066
| 11> C 	 -4.57059 	 -13.2064 	 68.7454
| 12> H 	 -6.22762 	 -13.2151 	 67.487
| 13> C 	 -5.93306 	 -16.077 	 66.8753
| 14> H 	 -5.29267 	 -16.9711 	 66.6967
| 15> H 	 -6.00084 	 -15.5832 	 65.996
| 16> C 	 -7.29847 	 -16.5656 	 67.1668
| 17> H 	 -7.59772 	 -17.218 	 66.4105
| 18> H 	 -7.34831 	 -17.2145 	 68.0339
| 19> C 	 -8.4419 	 -15.5629 	 67.5237
| 20> H 	 -8.54255 	 -14.7092 	 66.8765
| 21> H 	 -9.46998 	 -16.0121 	 67.5017
| 22> H 	 -8.19226 	 -15.0755 	 68.4792
| 23> S 	 -5.29284 	 -11.653 	 70.9207
| 24> C 	 -5.5457 	 -9.95594 	 70.7026
| 25> C 	 -4.98278 	 -9.54084 	 69.5255
| 26> C 	 -4.52587 	 -10.5467 	 68.6864
| 27> C 	 -4.67091 	 -11.8406 	 69.2554
| 28> H 	 -5.11391 	 -8.49121 	 69.2144
| 29> C 	 -4.129 	 -10.2113 	 67.2441
| 30> H 	 -5.09813 	 -10.0896 	 66.7941
| 31> H 	 -3.63762 	 -11.073 	 66.8422
| 32> C 	 -3.29802 	 -8.96135 	 66.9063
| 33> H 	 -2.46841 	 -8.89757 	 67.6045
| 34> H 	 -3.88585 	 -8.06854 	 67.1335
| 35> C 	 -2.84755 	 -8.98512 	 65.3868
| 36> H 	 -2.47025 	 -9.9816 	 65.1383
| 37> H 	 -2.03291 	 -8.28179 	 65.2199
| 38> H 	 -3.62736 	 -8.69383 	 64.7346
| 39> H 	 -3.72731 	 -16.5916 	 68.7042
| 40> H 	 -6.01756 	 -9.23354 	 71.3489
| 41> *
| 42>
| 43>                          ****END OF INPUT****

CARTESIAN COORDINATES (ANGSTROEM)
---------------------------------
  S     -3.402820  -14.341800   69.468500
  C     -4.096540  -15.574000   68.513800
  C     -5.204630  -15.217600   67.778600
  C     -5.423050  -13.781300   67.906600
  C     -4.570590  -13.206400   68.745400
  H     -6.227620  -13.215100   67.487000
  C     -5.933060  -16.077000   66.875300
  H     -5.292670  -16.971100   66.696700
  H     -6.000840  -15.583200   65.996000
  C     -7.298470  -16.565600   67.166800
  H     -7.597720  -17.218000   66.410500
  H     -7.348310  -17.214500   68.033900
  C     -8.441900  -15.562900   67.523700
  H     -8.542550  -14.709200   66.876500
  H     -9.469980  -16.012100   67.501700
  H     -8.192260  -15.075500   68.479200
  S     -5.292840  -11.653000   70.920700
  C     -5.545700   -9.955940   70.702600
  C     -4.982780   -9.540840   69.525500
  C     -4.525870  -10.546700   68.686400
  C     -4.670910  -11.840600   69.255400
  H     -5.113910   -8.491210   69.214400
  C     -4.129000  -10.211300   67.244100
  H     -5.098130  -10.089600   66.794100
  H     -3.637620  -11.073000   66.842200
  C     -3.298020   -8.961350   66.906300
  H     -2.468410   -8.897570   67.604500
  H     -3.885850   -8.068540   67.133500
  C     -2.847550   -8.985120   65.386800
  H     -2.470250   -9.981600   65.138300
  H     -2.032910   -8.281790   65.219900
  H     -3.627360   -8.693830   64.734600
  H     -3.727310  -16.591600   68.704200
  H     -6.017560   -9.233540   71.348900

 Total Charge           Charge          ....    0
 Multiplicity           Mult            ....    1
 Number of Electrons    NEL             ....  134
 Basis Dimension        Dim             ....  322

ORBITAL ENERGIES
----------------

  NO   OCC          E(Eh)            E(eV)
   0   2.0000     -88.963171     -2420.8109
   1   2.0000     -88.961957     -2420.7779
   2   2.0000     -10.326615      -281.0015
   3   2.0000     -10.323438      -280.9150
   4   2.0000     -10.312693      -280.6226
   5   2.0000     -10.310609      -280.5659
   6   2.0000     -10.302766      -280.3525
   7   2.0000     -10.297886      -280.2197
   8   2.0000     -10.290519      -280.0193
   9   2.0000     -10.290185      -280.0102
  10   2.0000     -10.286313      -279.9048
  11   2.0000     -10.284874      -279.8657
  12   2.0000     -10.280750      -279.7534
  13   2.0000     -10.280199      -279.7384
  14   2.0000     -10.279254      -279.7127
  15   2.0000     -10.278700      -279.6976
  16   2.0000      -8.077673      -219.8047
  17   2.0000      -8.077639      -219.8037
  18   2.0000      -6.036115      -164.2511
  19   2.0000      -6.036077      -164.2500
  20   2.0000      -6.032243      -164.1457
  21   2.0000      -6.032123      -164.1424
  22   2.0000      -6.028516      -164.0442
  23   2.0000      -6.028283      -164.0379
  24   2.0000      -1.007222       -27.4079
  25   2.0000      -0.986134       -26.8341
  26   2.0000      -0.922218       -25.0948
  27   2.0000      -0.904530       -24.6135
  28   2.0000      -0.870649       -23.6916
  29   2.0000      -0.851370       -23.1670
  30   2.0000      -0.846555       -23.0359
  31   2.0000      -0.817793       -22.2533
  32   2.0000      -0.785282       -21.3686
  33   2.0000      -0.771649       -20.9976
  34   2.0000      -0.711834       -19.3700
  35   2.0000      -0.705587       -19.2000
  36   2.0000      -0.696586       -18.9551
  37   2.0000      -0.653827       -17.7915
  38   2.0000      -0.646183       -17.5835
  39   2.0000      -0.617359       -16.7992
  40   2.0000      -0.594504       -16.1773
  41   2.0000      -0.577859       -15.7243
  42   2.0000      -0.567765       -15.4497
  43   2.0000      -0.550805       -14.9882
  44   2.0000      -0.540119       -14.6974
  45   2.0000      -0.522644       -14.2219
  46   2.0000      -0.518729       -14.1153
  47   2.0000      -0.512700       -13.9513
  48   2.0000      -0.501407       -13.6440
  49   2.0000      -0.495214       -13.4755
  50   2.0000      -0.487682       -13.2705
  51   2.0000      -0.479915       -13.0592
  52   2.0000      -0.474128       -12.9017
  53   2.0000      -0.464756       -12.6466
  54   2.0000      -0.463136       -12.6026
  55   2.0000      -0.450444       -12.2572
  56   2.0000      -0.445760       -12.1297
  57   2.0000      -0.439709       -11.9651
  58   2.0000      -0.429261       -11.6808
  59   2.0000      -0.426849       -11.6151
  60   2.0000      -0.423870       -11.5341
  61   2.0000      -0.415935       -11.3182
  62   2.0000      -0.412263       -11.2182
  63   2.0000      -0.346166        -9.4197
  64   2.0000      -0.329056        -8.9541
  65   2.0000      -0.320996        -8.7348
  66   2.0000      -0.297564        -8.0971
  67   0.0000       0.042830         1.1655
  68   0.0000       0.057934         1.5765
  69   0.0000       0.118093         3.2135
  70   0.0000       0.122317         3.3284
  71   0.0000       0.132212         3.5977

MULLIKEN ATOMIC CHARGES
-----------------------
   0 S :    0.106718
   1 C :   -0.130982
   2 C :   -0.085739
   3 C :    0.045189
   4 C :   -0.159373
   5 H :    0.007756
   6 C :    0.122617
   7 H :    0.022437
   8 H :   -0.000213
   9 C :   -0.031905
  10 H :    0.012156
  11 H :    0.015673
  12 C :   -0.088936
  13 H :    0.013625
  14 H :    0.046307
  15 H :    0.044354
  16 S :    0.111239
  17 C :   -0.080671
  18 C :   -0.067650
  19 C :   -0.003852
  20 C :   -0.190009
  21 H :    0.023791
  22 C :    0.068404
  23 H :    0.034935
  24 H :    0.020607
  25 C :   -0.087128
  26 H :    0.032191
  27 H :    0.025726
  28 C :   -0.032190
  29 H :    0.034001
  30 H :    0.033864
  31 H :    0.031554
  32 H :    0.054679
  33 H :    0.050825
Sum of atomic charges:   -0.0000000

LOEWDIN ATOMIC CHARGES
----------------------
   0 S :    0.398248
   1 C :   -0.201524
   2 C :   -0.062378
   3 C :   -0.047947
   4 C :   -0.188527
   5 H :    0.032878
   6 C :   -0.032722
   7 H :    0.043804
   8 H :    0.022115
   9 C :   -0.036020
  10 H :    0.018211
  11 H :    0.024870
  12 C :   -0.074426
  13 H :    0.013078
  14 H :    0.035803
  15 H :    0.029252
  16 S :    0.403690
  17 C :   -0.188716
  18 C :   -0.087498
  19 C :   -0.052245
  20 C :   -0.198364
  21 H :    0.033500
  22 C :   -0.029759
  23 H :    0.033884
  24 H :    0.025189
  25 C :   -0.037723
  26 H :    0.023359
  27 H :    0.020297
  28 C :   -0.055937
  29 H :    0.027225
  30 H :    0.028230
  31 H :    0.021180
  32 H :    0.027170
  33 H :    0.031803

  Mayer bond orders larger than 0.100000
B(  0-S ,  1-C ) :   1.1424 B(  0-S ,  4-C ) :   1.1256 B(  1-C ,  2-C ) :   1.6436
B(  1-C , 32-H ) :   0.9596 B(  2-C ,  3-C ) :   1.1777 B(  2-C ,  6-C ) :   1.0405
B(  3-C ,  4-C ) :   1.6522 B(  3-C ,  5-H ) :   0.9977 B(  4-C , 20-C ) :   1.0127
B(  6-C ,  7-H ) :   0.9276 B(  6-C ,  8-H ) :   0.9212 B(  6-C ,  9-C ) :   1.0890
B(  9-C , 10-H ) :   0.9509 B(  9-C , 11-H ) :   0.9495 B(  9-C , 12-C ) :   1.0705
B( 12-C , 13-H ) :   0.9766 B( 12-C , 14-H ) :   0.9733 B( 12-C , 15-H ) :   0.9732
B( 16-S , 17-C ) :   1.1671 B( 16-S , 20-C ) :   1.1434 B( 17-C , 18-C ) :   1.6008
B( 17-C , 20-C ) :   0.1103 B( 17-C , 33-H ) :   0.9641 B( 18-C , 19-C ) :   1.2703
B( 18-C , 21-H ) :   0.9826 B( 19-C , 20-C ) :   1.5725 B( 19-C , 22-C ) :   1.0305
B( 22-C , 23-H ) :   0.9336 B( 22-C , 24-H ) :   0.9370 B( 22-C , 25-C ) :   1.0669
B( 25-C , 26-H ) :   0.9636 B( 25-C , 27-H ) :   0.9485 B( 25-C , 28-C ) :   1.0757
B( 28-C , 29-H ) :   0.9779 B( 28-C , 30-H ) :   0.9762 B( 28-C , 31-H ) :   0.9776

Dispersion correction           -0.013820862
FINAL SINGLE POINT ENERGY     -1339.865706306793

DIPOLE MOMENT
-------------
                                X             Y             Z
Electronic contribution:      7.59124      -2.52924      21.16186
Nuclear contribution   :     -7.94317       2.65186     -21.75734
                        -----------------------------------------
Total Dipole Moment    :     -0.35194       0.12262      -0.59549
                        -----------------------------------------
Magnitude (a.u.)       :      0.70249
Magnitude (Debye)      :      1.78560

Rotational constants in cm-1:     0.017456     0.007880     0.007021
Rotational constants in MHz :   523.318732   236.232855   210.485170

                             ****ORCA TERMINATED NORMALLY****
TOTAL RUN TIME: 0 days 0 hours 0 minutes 34 seconds 117 msec
