                         Program Version 4.2.1 -  RELEASE  -
|  1> ! wB97X-D3 SP def2-SVP
|  2> %pal
|  3> nprocs 16
|  4> end
|  5>
|  6> * xyz 0 1
|  7> S 	 -33.9717 	 57.0975 	 110.101
|  8> C 	 -32.3591 	 57.6471 	 110.392
|  9> C 	 -31.8864 	 57.2033 	 111.67
| 10> C 	 -32.848 	 56.4318 	 112.385
| 11> C 	 -34.0455 	 56.38 	 111.718
| 12> H 	 -32.715 	 56.1282 	 113.391
| 13> C 	 -30.565 	 57.4427 	 112.315
| 14> H 	 -29.8997 	 57.5635 	 111.484
| 15> H 	 -30.2503 	 56.5463 	 112.901
| 16> C 	 -30.4909 	 58.6989 	 113.163
| 17> H 	 -31.0363 	 58.624 	 114.066
| 18> H 	 -29.4202 	 58.802 	 113.429
| 19> C 	 -31.1389 	 59.9943 	 112.661
| 20> H 	 -30.6463 	 60.496 	 111.868
| 21> H 	 -32.1803 	 59.893 	 112.365
| 22> H 	 -31.0662 	 60.735 	 113.426
| 23> S 	 -36.6986 	 56.7957 	 112.323
| 24> C 	 -37.513 	 55.7854 	 113.462
| 25> C 	 -36.8797 	 54.5369 	 113.546
| 26> C 	 -35.6464 	 54.5906 	 112.832
| 27> C 	 -35.2802 	 55.8485 	 112.314
| 28> H 	 -37.3261 	 53.7069 	 114.067
| 29> C 	 -34.7207 	 53.4169 	 112.813
| 30> H 	 -34.8875 	 52.8148 	 113.739
| 31> H 	 -33.6563 	 53.7551 	 112.939
| 32> C 	 -34.787 	 52.5394 	 111.452
| 33> H 	 -34.0074 	 51.801 	 111.464
| 34> H 	 -34.6884 	 53.1189 	 110.551
| 35> C 	 -36.0933 	 51.8482 	 111.183
| 36> H 	 -36.8789 	 52.5938 	 111.099
| 37> H 	 -36.2917 	 51.2336 	 112.032
| 38> H 	 -36.1683 	 51.2708 	 110.347
| 39> H 	 -31.7659 	 58.1595 	 109.652
| 40> H 	 -38.4939 	 55.9081 	 113.92
| 41> *
| 42>
| 43>                          ****END OF INPUT****

CARTESIAN COORDINATES (ANGSTROEM)
---------------------------------
  S    -33.971700   57.097500  110.101000
  C    -32.359100   57.647100  110.392000
  C    -31.886400   57.203300  111.670000
  C    -32.848000   56.431800  112.385000
  C    -34.045500   56.380000  111.718000
  H    -32.715000   56.128200  113.391000
  C    -30.565000   57.442700  112.315000
  H    -29.899700   57.563500  111.484000
  H    -30.250300   56.546300  112.901000
  C    -30.490900   58.698900  113.163000
  H    -31.036300   58.624000  114.066000
  H    -29.420200   58.802000  113.429000
  C    -31.138900   59.994300  112.661000
  H    -30.646300   60.496000  111.868000
  H    -32.180300   59.893000  112.365000
  H    -31.066200   60.735000  113.426000
  S    -36.698600   56.795700  112.323000
  C    -37.513000   55.785400  113.462000
  C    -36.879700   54.536900  113.546000
  C    -35.646400   54.590600  112.832000
  C    -35.280200   55.848500  112.314000
  H    -37.326100   53.706900  114.067000
  C    -34.720700   53.416900  112.813000
  H    -34.887500   52.814800  113.739000
  H    -33.656300   53.755100  112.939000
  C    -34.787000   52.539400  111.452000
  H    -34.007400   51.801000  111.464000
  H    -34.688400   53.118900  110.551000
  C    -36.093300   51.848200  111.183000
  H    -36.878900   52.593800  111.099000
  H    -36.291700   51.233600  112.032000
  H    -36.168300   51.270800  110.347000
  H    -31.765900   58.159500  109.652000
  H    -38.493900   55.908100  113.920000

 Total Charge           Charge          ....    0
 Multiplicity           Mult            ....    1
 Number of Electrons    NEL             ....  134
 Basis Dimension        Dim             ....  322

ORBITAL ENERGIES
----------------

  NO   OCC          E(Eh)            E(eV)
   0   2.0000     -88.972131     -2421.0548
   1   2.0000     -88.964418     -2420.8449
   2   2.0000     -10.333102      -281.1780
   3   2.0000     -10.323700      -280.9222
   4   2.0000     -10.317913      -280.7647
   5   2.0000     -10.316744      -280.7329
   6   2.0000     -10.302416      -280.3430
   7   2.0000     -10.301234      -280.3108
   8   2.0000     -10.295215      -280.1470
   9   2.0000     -10.294566      -280.1294
  10   2.0000     -10.290290      -280.0130
  11   2.0000     -10.289234      -279.9843
  12   2.0000     -10.283036      -279.8156
  13   2.0000     -10.279978      -279.7324
  14   2.0000     -10.267433      -279.3910
  15   2.0000     -10.257878      -279.1311
  16   2.0000      -8.086531      -220.0457
  17   2.0000      -8.080206      -219.8736
  18   2.0000      -6.045022      -164.4934
  19   2.0000      -6.041054      -164.3854
  20   2.0000      -6.038573      -164.3179
  21   2.0000      -6.037382      -164.2855
  22   2.0000      -6.034554      -164.2086
  23   2.0000      -6.031055      -164.1134
  24   2.0000      -1.009664       -27.4743
  25   2.0000      -0.986776       -26.8515
  26   2.0000      -0.914699       -24.8902
  27   2.0000      -0.900161       -24.4946
  28   2.0000      -0.868096       -23.6221
  29   2.0000      -0.855373       -23.2759
  30   2.0000      -0.849624       -23.1195
  31   2.0000      -0.816703       -22.2236
  32   2.0000      -0.783470       -21.3193
  33   2.0000      -0.766398       -20.8548
  34   2.0000      -0.706671       -19.2295
  35   2.0000      -0.699533       -19.0353
  36   2.0000      -0.688922       -18.7465
  37   2.0000      -0.661692       -18.0055
  38   2.0000      -0.643157       -17.5012
  39   2.0000      -0.624909       -17.0046
  40   2.0000      -0.588340       -16.0095
  41   2.0000      -0.570974       -15.5370
  42   2.0000      -0.550668       -14.9844
  43   2.0000      -0.545418       -14.8416
  44   2.0000      -0.545268       -14.8375
  45   2.0000      -0.541850       -14.7445
  46   2.0000      -0.526362       -14.3230
  47   2.0000      -0.516286       -14.0489
  48   2.0000      -0.505436       -13.7536
  49   2.0000      -0.496538       -13.5115
  50   2.0000      -0.481055       -13.0902
  51   2.0000      -0.478962       -13.0332
  52   2.0000      -0.469603       -12.7786
  53   2.0000      -0.464409       -12.6372
  54   2.0000      -0.458235       -12.4692
  55   2.0000      -0.454475       -12.3669
  56   2.0000      -0.444458       -12.0943
  57   2.0000      -0.441029       -12.0010
  58   2.0000      -0.428395       -11.6572
  59   2.0000      -0.422423       -11.4947
  60   2.0000      -0.414143       -11.2694
  61   2.0000      -0.410153       -11.1608
  62   2.0000      -0.408593       -11.1184
  63   2.0000      -0.349644        -9.5143
  64   2.0000      -0.330586        -8.9957
  65   2.0000      -0.322917        -8.7870
  66   2.0000      -0.287836        -7.8324
  67   0.0000       0.029319         0.7978
  68   0.0000       0.059601         1.6218
  69   0.0000       0.107563         2.9269
  70   0.0000       0.122548         3.3347
  71   0.0000       0.125025         3.4021

MULLIKEN ATOMIC CHARGES
-----------------------
   0 S :    0.126139
   1 C :   -0.121267
   2 C :   -0.128810
   3 C :    0.044737
   4 C :   -0.136980
   5 H :    0.011821
   6 C :    0.094385
   7 H :    0.012268
   8 H :    0.038317
   9 C :   -0.066513
  10 H :    0.017558
  11 H :    0.034073
  12 C :   -0.035750
  13 H :    0.007635
  14 H :    0.050805
  15 H :    0.018857
  16 S :    0.118033
  17 C :   -0.095169
  18 C :   -0.038326
  19 C :   -0.038595
  20 C :   -0.156689
  21 H :    0.022652
  22 C :    0.020428
  23 H :    0.027731
  24 H :    0.030346
  25 C :   -0.046353
  26 H :    0.021833
  27 H :    0.026793
  28 C :   -0.018349
  29 H :    0.027133
  30 H :    0.008983
  31 H :    0.014546
  32 H :    0.048747
  33 H :    0.058984
Sum of atomic charges:   -0.0000000

LOEWDIN ATOMIC CHARGES
----------------------
   0 S :    0.412208
   1 C :   -0.212244
   2 C :   -0.055323
   3 C :   -0.054442
   4 C :   -0.183379
   5 H :    0.029997
   6 C :   -0.036604
   7 H :    0.027307
   8 H :    0.039457
   9 C :   -0.039793
  10 H :    0.020431
  11 H :    0.029465
  12 C :   -0.063038
  13 H :    0.014100
  14 H :    0.030784
  15 H :    0.025201
  16 S :    0.438273
  17 C :   -0.196828
  18 C :   -0.071757
  19 C :   -0.064436
  20 C :   -0.217747
  21 H :    0.032928
  22 C :   -0.037569
  23 H :    0.029943
  24 H :    0.034958
  25 C :   -0.029863
  26 H :    0.017946
  27 H :    0.024203
  28 C :   -0.058674
  29 H :    0.025583
  30 H :    0.017133
  31 H :    0.013389
  32 H :    0.025656
  33 H :    0.032733

  Mayer bond orders larger than 0.100000
B(  0-S ,  1-C ) :   1.1396 B(  0-S ,  4-C ) :   1.1565 B(  1-C ,  2-C ) :   1.5715
B(  1-C ,  4-C ) :   0.1005 B(  1-C , 32-H ) :   0.9716 B(  2-C ,  3-C ) :   1.2574
B(  2-C ,  6-C ) :   1.0344 B(  3-C ,  4-C ) :   1.5653 B(  3-C ,  5-H ) :   0.9940
B(  4-C , 20-C ) :   1.0375 B(  6-C ,  7-H ) :   0.9288 B(  6-C ,  8-H ) :   0.9422
B(  6-C ,  9-C ) :   1.0698 B(  9-C , 10-H ) :   0.9560 B(  9-C , 11-H ) :   0.9551
B(  9-C , 12-C ) :   1.0808 B( 12-C , 13-H ) :   0.9736 B( 12-C , 14-H ) :   0.9671
B( 12-C , 15-H ) :   0.9721 B( 16-S , 17-C ) :   1.1865 B( 16-S , 20-C ) :   1.1520
B( 17-C , 18-C ) :   1.5553 B( 17-C , 20-C ) :   0.1084 B( 17-C , 33-H ) :   0.9672
B( 18-C , 19-C ) :   1.2752 B( 18-C , 21-H ) :   0.9967 B( 19-C , 20-C ) :   1.5352
B( 19-C , 22-C ) :   1.0485 B( 22-C , 23-H ) :   0.9465 B( 22-C , 24-H ) :   0.9388
B( 22-C , 25-C ) :   1.0481 B( 25-C , 26-H ) :   0.9600 B( 25-C , 27-H ) :   0.9621
B( 25-C , 28-C ) :   1.0811 B( 28-C , 29-H ) :   0.9728 B( 28-C , 30-H ) :   0.9741
B( 28-C , 31-H ) :   0.9724

Dispersion correction           -0.014979947
FINAL SINGLE POINT ENERGY     -1339.860502295814

DIPOLE MOMENT
-------------
                                X             Y             Z
Electronic contribution:    -13.33560       6.83519      -5.85724
Nuclear contribution   :     13.66655      -7.03446       6.15507
                        -----------------------------------------
Total Dipole Moment    :      0.33095      -0.19927       0.29783
                        -----------------------------------------
Magnitude (a.u.)       :      0.48778
Magnitude (Debye)      :      1.23985

Rotational constants in cm-1:     0.022348     0.007968     0.007276
Rotational constants in MHz :   669.987289   238.868725   218.115413

                             ****ORCA TERMINATED NORMALLY****
TOTAL RUN TIME: 0 days 0 hours 0 minutes 30 seconds 840 msec
