                         Program Version 4.2.1 -  RELEASE  -
|  1> ! wB97X-D3 SP def2-SVP
|  2> %pal
|  3> nprocs 16
|  4> end
|  5>
|  6> * xyz 0 1
|  7> S 	 -98.8795 	 38.4118 	 126.337
|  8> C 	 -99.798 	 38.4701 	 127.808
|  9> C 	 -99.3341 	 39.4781 	 128.612
| 10> C 	 -98.3025 	 40.2955 	 128.028
| 11> C 	 -97.9853 	 39.8501 	 126.753
| 12> H 	 -97.6347 	 41.1435 	 128.359
| 13> C 	 -99.6542 	 39.6349 	 130.058
| 14> H 	 -100.768 	 39.9035 	 130.181
| 15> H 	 -99.2059 	 40.5376 	 130.494
| 16> C 	 -99.2006 	 38.4884 	 130.982
| 17> H 	 -99.7191 	 37.5846 	 130.677
| 18> H 	 -98.1223 	 38.3415 	 130.955
| 19> C 	 -99.4867 	 38.5844 	 132.469
| 20> H 	 -100.551 	 38.6252 	 132.774
| 21> H 	 -98.9794 	 37.741 	 133.034
| 22> H 	 -99.1245 	 39.4412 	 132.879
| 23> S 	 -95.6333 	 39.4089 	 125.157
| 24> C 	 -94.9401 	 40.7633 	 124.2
| 25> C 	 -95.6957 	 41.87 	 124.522
| 26> C 	 -96.8424 	 41.693 	 125.403
| 27> C 	 -96.9433 	 40.4093 	 125.833
| 28> H 	 -95.3377 	 42.8628 	 124.239
| 29> C 	 -97.7512 	 42.8017 	 125.819
| 30> H 	 -96.8957 	 43.5192 	 126.03
| 31> H 	 -98.2355 	 42.5947 	 126.79
| 32> C 	 -98.6479 	 43.3407 	 124.686
| 33> H 	 -97.8965 	 43.7437 	 124.007
| 34> H 	 -99.3319 	 44.1128 	 125.16
| 35> C 	 -99.5693 	 42.3269 	 124.105
| 36> H 	 -98.9562 	 41.7103 	 123.411
| 37> H 	 -100.284 	 42.8342 	 123.639
| 38> H 	 -100.128 	 41.7439 	 124.808
| 39> H 	 -100.583 	 37.7466 	 128.215
| 40> H 	 -94.0433 	 40.7011 	 123.602
| 41> *
| 42>
| 43>                          ****END OF INPUT****

CARTESIAN COORDINATES (ANGSTROEM)
---------------------------------
  S    -98.879500   38.411800  126.337000
  C    -99.798000   38.470100  127.808000
  C    -99.334100   39.478100  128.612000
  C    -98.302500   40.295500  128.028000
  C    -97.985300   39.850100  126.753000
  H    -97.634700   41.143500  128.359000
  C    -99.654200   39.634900  130.058000
  H    -100.768000   39.903500  130.181000
  H    -99.205900   40.537600  130.494000
  C    -99.200600   38.488400  130.982000
  H    -99.719100   37.584600  130.677000
  H    -98.122300   38.341500  130.955000
  C    -99.486700   38.584400  132.469000
  H    -100.551000   38.625200  132.774000
  H    -98.979400   37.741000  133.034000
  H    -99.124500   39.441200  132.879000
  S    -95.633300   39.408900  125.157000
  C    -94.940100   40.763300  124.200000
  C    -95.695700   41.870000  124.522000
  C    -96.842400   41.693000  125.403000
  C    -96.943300   40.409300  125.833000
  H    -95.337700   42.862800  124.239000
  C    -97.751200   42.801700  125.819000
  H    -96.895700   43.519200  126.030000
  H    -98.235500   42.594700  126.790000
  C    -98.647900   43.340700  124.686000
  H    -97.896500   43.743700  124.007000
  H    -99.331900   44.112800  125.160000
  C    -99.569300   42.326900  124.105000
  H    -98.956200   41.710300  123.411000
  H    -100.284000   42.834200  123.639000
  H    -100.128000   41.743900  124.808000
  H    -100.583000   37.746600  128.215000
  H    -94.043300   40.701100  123.602000

 Total Charge           Charge          ....    0
 Multiplicity           Mult            ....    1
 Number of Electrons    NEL             ....  134
 Basis Dimension        Dim             ....  322

ORBITAL ENERGIES
----------------

  NO   OCC          E(Eh)            E(eV)
   0   2.0000     -88.969010     -2420.9698
   1   2.0000     -88.961920     -2420.7769
   2   2.0000     -10.332089      -281.1504
   3   2.0000     -10.328169      -281.0438
   4   2.0000     -10.326168      -280.9893
   5   2.0000     -10.318420      -280.7785
   6   2.0000     -10.302405      -280.3427
   7   2.0000     -10.301007      -280.3046
   8   2.0000     -10.300923      -280.3024
   9   2.0000     -10.300093      -280.2798
  10   2.0000     -10.295789      -280.1627
  11   2.0000     -10.291925      -280.0575
  12   2.0000     -10.287197      -279.9288
  13   2.0000     -10.285400      -279.8800
  14   2.0000     -10.274460      -279.5823
  15   2.0000     -10.259036      -279.1626
  16   2.0000      -8.083735      -219.9696
  17   2.0000      -8.075633      -219.7492
  18   2.0000      -6.042251      -164.4180
  19   2.0000      -6.038160      -164.3067
  20   2.0000      -6.034553      -164.2085
  21   2.0000      -6.034407      -164.2045
  22   2.0000      -6.030272      -164.0920
  23   2.0000      -6.026167      -163.9803
  24   2.0000      -1.005725       -27.3672
  25   2.0000      -0.983720       -26.7684
  26   2.0000      -0.912711       -24.8361
  27   2.0000      -0.910786       -24.7838
  28   2.0000      -0.869175       -23.6515
  29   2.0000      -0.854886       -23.2626
  30   2.0000      -0.846003       -23.0209
  31   2.0000      -0.816759       -22.2251
  32   2.0000      -0.782621       -21.2962
  33   2.0000      -0.773612       -21.0510
  34   2.0000      -0.703474       -19.1425
  35   2.0000      -0.699138       -19.0245
  36   2.0000      -0.693200       -18.8629
  37   2.0000      -0.657630       -17.8950
  38   2.0000      -0.640656       -17.4331
  39   2.0000      -0.609213       -16.5775
  40   2.0000      -0.595762       -16.2115
  41   2.0000      -0.572988       -15.5918
  42   2.0000      -0.559820       -15.2335
  43   2.0000      -0.556071       -15.1315
  44   2.0000      -0.544085       -14.8053
  45   2.0000      -0.526840       -14.3361
  46   2.0000      -0.522419       -14.2157
  47   2.0000      -0.509123       -13.8540
  48   2.0000      -0.504159       -13.7189
  49   2.0000      -0.499932       -13.6039
  50   2.0000      -0.492315       -13.3966
  51   2.0000      -0.478974       -13.0335
  52   2.0000      -0.476216       -12.9585
  53   2.0000      -0.467779       -12.7289
  54   2.0000      -0.457520       -12.4498
  55   2.0000      -0.444320       -12.0906
  56   2.0000      -0.435539       -11.8516
  57   2.0000      -0.431205       -11.7337
  58   2.0000      -0.428532       -11.6609
  59   2.0000      -0.425053       -11.5663
  60   2.0000      -0.421331       -11.4650
  61   2.0000      -0.410693       -11.1755
  62   2.0000      -0.400534       -10.8991
  63   2.0000      -0.348600        -9.4859
  64   2.0000      -0.331146        -9.0109
  65   2.0000      -0.325413        -8.8549
  66   2.0000      -0.299087        -8.1386
  67   0.0000       0.032840         0.8936
  68   0.0000       0.068643         1.8679
  69   0.0000       0.110074         2.9953
  70   0.0000       0.121459         3.3051
  71   0.0000       0.126878         3.4525

MULLIKEN ATOMIC CHARGES
-----------------------
   0 S :    0.125701
   1 C :   -0.134940
   2 C :   -0.073505
   3 C :    0.017452
   4 C :   -0.184890
   5 H :    0.050249
   6 C :    0.032404
   7 H :    0.039746
   8 H :    0.010771
   9 C :   -0.055011
  10 H :    0.021598
  11 H :    0.035634
  12 C :   -0.043525
  13 H :    0.026185
  14 H :    0.043335
  15 H :   -0.000992
  16 S :    0.078357
  17 C :   -0.095443
  18 C :   -0.032586
  19 C :   -0.057995
  20 C :   -0.149240
  21 H :    0.021758
  22 C :    0.039765
  23 H :    0.035046
  24 H :    0.023969
  25 C :   -0.084652
  26 H :    0.031559
  27 H :    0.036152
  28 C :    0.030937
  29 H :    0.045394
  30 H :   -0.004352
  31 H :    0.025541
  32 H :    0.077240
  33 H :    0.068340
Sum of atomic charges:    0.0000000

LOEWDIN ATOMIC CHARGES
----------------------
   0 S :    0.422794
   1 C :   -0.215912
   2 C :   -0.071976
   3 C :   -0.073299
   4 C :   -0.189585
   5 H :    0.048680
   6 C :   -0.044487
   7 H :    0.039059
   8 H :    0.026888
   9 C :   -0.039500
  10 H :    0.020529
  11 H :    0.030296
  12 C :   -0.066156
  13 H :    0.025359
  14 H :    0.037851
  15 H :    0.005827
  16 S :    0.360248
  17 C :   -0.165542
  18 C :   -0.074566
  19 C :   -0.065097
  20 C :   -0.191923
  21 H :    0.028154
  22 C :   -0.040762
  23 H :    0.040857
  24 H :    0.028111
  25 C :   -0.037252
  26 H :    0.025859
  27 H :    0.031312
  28 C :   -0.054633
  29 H :    0.035233
  30 H :    0.008540
  31 H :    0.028704
  32 H :    0.050973
  33 H :    0.035416

  Mayer bond orders larger than 0.100000
B(  0-S ,  1-C ) :   1.1329 B(  0-S ,  4-C ) :   1.1655 B(  1-C ,  2-C ) :   1.6200
B(  1-C , 32-H ) :   0.9585 B(  2-C ,  3-C ) :   1.2251 B(  2-C ,  6-C ) :   1.0364
B(  3-C ,  4-C ) :   1.5906 B(  3-C ,  5-H ) :   0.9756 B(  4-C , 20-C ) :   1.0112
B(  6-C ,  7-H ) :   0.9335 B(  6-C ,  8-H ) :   0.9420 B(  6-C ,  9-C ) :   1.0608
B(  9-C , 10-H ) :   0.9555 B(  9-C , 11-H ) :   0.9551 B(  9-C , 12-C ) :   1.0869
B( 12-C , 13-H ) :   0.9729 B( 12-C , 14-H ) :   0.9735 B( 12-C , 15-H ) :   0.9717
B( 16-S , 17-C ) :   1.1273 B( 16-S , 20-C ) :   1.1206 B( 17-C , 18-C ) :   1.6308
B( 17-C , 33-H ) :   0.9730 B( 18-C , 19-C ) :   1.2141 B( 18-C , 21-H ) :   0.9781
B( 19-C , 20-C ) :   1.6262 B( 19-C , 22-C ) :   1.0191 B( 22-C , 23-H ) :   0.9362
B( 22-C , 24-H ) :   0.9330 B( 22-C , 25-C ) :   1.0655 B( 25-C , 26-H ) :   0.9556
B( 25-C , 27-H ) :   0.9564 B( 25-C , 28-C ) :   1.0839 B( 28-C , 29-H ) :   0.9696
B( 28-C , 30-H ) :   0.9665 B( 28-C , 31-H ) :   0.9686

Dispersion correction           -0.014702408
FINAL SINGLE POINT ENERGY     -1339.854250153441

DIPOLE MOMENT
-------------
                                X             Y             Z
Electronic contribution:     11.71939     -10.74394     -15.60975
Nuclear contribution   :    -11.77908      11.25434      15.97707
                        -----------------------------------------
Total Dipole Moment    :     -0.05969       0.51040       0.36732
                        -----------------------------------------
Magnitude (a.u.)       :      0.63166
Magnitude (Debye)      :      1.60556

Rotational constants in cm-1:     0.022227     0.007506     0.006812
Rotational constants in MHz :   666.360025   225.029195   204.212927

                             ****ORCA TERMINATED NORMALLY****
TOTAL RUN TIME: 0 days 0 hours 0 minutes 32 seconds 144 msec
