                         Program Version 4.2.1 -  RELEASE  -
|  1> ! wB97X-D3 SP def2-SVP
|  2> %pal
|  3> nprocs 16
|  4> end
|  5>
|  6> * xyz 0 1
|  7> S 	 -77.1664 	 43.6198 	 125.681
|  8> C 	 -78.6111 	 44.2811 	 125.009
|  9> C 	 -79.5287 	 44.4586 	 126.032
| 10> C 	 -79.0848 	 44.0395 	 127.352
| 11> C 	 -77.8288 	 43.5369 	 127.304
| 12> H 	 -79.6315 	 44.201 	 128.211
| 13> C 	 -80.9068 	 45.1005 	 125.786
| 14> H 	 -80.7151 	 46.007 	 125.233
| 15> H 	 -81.3712 	 45.4217 	 126.725
| 16> C 	 -82.0711 	 44.2801 	 125.092
| 17> H 	 -82.2657 	 43.3551 	 125.554
| 18> H 	 -82.9889 	 44.8845 	 125.117
| 19> C 	 -81.6905 	 43.993 	 123.627
| 20> H 	 -81.3554 	 44.8742 	 123.095
| 21> H 	 -80.8897 	 43.2808 	 123.651
| 22> H 	 -82.5351 	 43.597 	 123.088
| 23> S 	 -75.8122 	 44.0019 	 129.002
| 24> C 	 -75.3335 	 42.7636 	 130.158
| 25> C 	 -76.1618 	 41.6422 	 130.062
| 26> C 	 -77.2117 	 41.7813 	 129.098
| 27> C 	 -77.092 	 42.9374 	 128.387
| 28> H 	 -76.0634 	 40.7604 	 130.635
| 29> C 	 -78.1315 	 40.5991 	 128.72
| 30> H 	 -77.5787 	 39.7117 	 128.328
| 31> H 	 -78.5907 	 40.8015 	 127.739
| 32> C 	 -79.2971 	 40.2879 	 129.676
| 33> H 	 -79.9094 	 41.1974 	 129.824
| 34> H 	 -78.9968 	 40.1272 	 130.675
| 35> C 	 -80.0836 	 38.9899 	 129.288
| 36> H 	 -80.7231 	 39.2577 	 128.417
| 37> H 	 -80.7111 	 38.7623 	 130.092
| 38> H 	 -79.4952 	 38.079 	 129.151
| 39> H 	 -78.9348 	 44.362 	 123.952
| 40> H 	 -74.522 	 42.8177 	 130.839
| 41> *
| 42>
| 43>                          ****END OF INPUT****

CARTESIAN COORDINATES (ANGSTROEM)
---------------------------------
  S    -77.166400   43.619800  125.681000
  C    -78.611100   44.281100  125.009000
  C    -79.528700   44.458600  126.032000
  C    -79.084800   44.039500  127.352000
  C    -77.828800   43.536900  127.304000
  H    -79.631500   44.201000  128.211000
  C    -80.906800   45.100500  125.786000
  H    -80.715100   46.007000  125.233000
  H    -81.371200   45.421700  126.725000
  C    -82.071100   44.280100  125.092000
  H    -82.265700   43.355100  125.554000
  H    -82.988900   44.884500  125.117000
  C    -81.690500   43.993000  123.627000
  H    -81.355400   44.874200  123.095000
  H    -80.889700   43.280800  123.651000
  H    -82.535100   43.597000  123.088000
  S    -75.812200   44.001900  129.002000
  C    -75.333500   42.763600  130.158000
  C    -76.161800   41.642200  130.062000
  C    -77.211700   41.781300  129.098000
  C    -77.092000   42.937400  128.387000
  H    -76.063400   40.760400  130.635000
  C    -78.131500   40.599100  128.720000
  H    -77.578700   39.711700  128.328000
  H    -78.590700   40.801500  127.739000
  C    -79.297100   40.287900  129.676000
  H    -79.909400   41.197400  129.824000
  H    -78.996800   40.127200  130.675000
  C    -80.083600   38.989900  129.288000
  H    -80.723100   39.257700  128.417000
  H    -80.711100   38.762300  130.092000
  H    -79.495200   38.079000  129.151000
  H    -78.934800   44.362000  123.952000
  H    -74.522000   42.817700  130.839000

 Total Charge           Charge          ....    0
 Multiplicity           Mult            ....    1
 Number of Electrons    NEL             ....  134
 Basis Dimension        Dim             ....  322

ORBITAL ENERGIES
----------------

  NO   OCC          E(Eh)            E(eV)
   0   2.0000     -88.964817     -2420.8557
   1   2.0000     -88.964474     -2420.8464
   2   2.0000     -10.325337      -280.9667
   3   2.0000     -10.324069      -280.9322
   4   2.0000     -10.317966      -280.7661
   5   2.0000     -10.313962      -280.6572
   6   2.0000     -10.304036      -280.3871
   7   2.0000     -10.301772      -280.3255
   8   2.0000     -10.295085      -280.1435
   9   2.0000     -10.292358      -280.0693
  10   2.0000     -10.291480      -280.0454
  11   2.0000     -10.289782      -279.9992
  12   2.0000     -10.286823      -279.9187
  13   2.0000     -10.286766      -279.9171
  14   2.0000     -10.279097      -279.7085
  15   2.0000     -10.272511      -279.5292
  16   2.0000      -8.079896      -219.8651
  17   2.0000      -8.078920      -219.8386
  18   2.0000      -6.038521      -164.3165
  19   2.0000      -6.037479      -164.2882
  20   2.0000      -6.034214      -164.1993
  21   2.0000      -6.033459      -164.1788
  22   2.0000      -6.030631      -164.1018
  23   2.0000      -6.029645      -164.0750
  24   2.0000      -1.008102       -27.4319
  25   2.0000      -0.982319       -26.7303
  26   2.0000      -0.904707       -24.6183
  27   2.0000      -0.901388       -24.5280
  28   2.0000      -0.870678       -23.6924
  29   2.0000      -0.850241       -23.1362
  30   2.0000      -0.847245       -23.0547
  31   2.0000      -0.813592       -22.1390
  32   2.0000      -0.781683       -21.2707
  33   2.0000      -0.772586       -21.0231
  34   2.0000      -0.709245       -19.2995
  35   2.0000      -0.702008       -19.1026
  36   2.0000      -0.694737       -18.9048
  37   2.0000      -0.667053       -18.1514
  38   2.0000      -0.644542       -17.5389
  39   2.0000      -0.619121       -16.8471
  40   2.0000      -0.599384       -16.3101
  41   2.0000      -0.570656       -15.5283
  42   2.0000      -0.553527       -15.0622
  43   2.0000      -0.545785       -14.8516
  44   2.0000      -0.536369       -14.5953
  45   2.0000      -0.527853       -14.3636
  46   2.0000      -0.520497       -14.1634
  47   2.0000      -0.512526       -13.9465
  48   2.0000      -0.512370       -13.9423
  49   2.0000      -0.499941       -13.6041
  50   2.0000      -0.489451       -13.3186
  51   2.0000      -0.478329       -13.0160
  52   2.0000      -0.467175       -12.7125
  53   2.0000      -0.464882       -12.6501
  54   2.0000      -0.458579       -12.4786
  55   2.0000      -0.449925       -12.2431
  56   2.0000      -0.446570       -12.1518
  57   2.0000      -0.443507       -12.0685
  58   2.0000      -0.439775       -11.9669
  59   2.0000      -0.420876       -11.4526
  60   2.0000      -0.415327       -11.3016
  61   2.0000      -0.411661       -11.2019
  62   2.0000      -0.404395       -11.0041
  63   2.0000      -0.339673        -9.2430
  64   2.0000      -0.333023        -9.0620
  65   2.0000      -0.324590        -8.8325
  66   2.0000      -0.304715        -8.2917
  67   0.0000       0.042036         1.1439
  68   0.0000       0.056717         1.5434
  69   0.0000       0.116639         3.1739
  70   0.0000       0.121791         3.3141
  71   0.0000       0.124555         3.3893

MULLIKEN ATOMIC CHARGES
-----------------------
   0 S :    0.120133
   1 C :   -0.119307
   2 C :   -0.122723
   3 C :    0.093953
   4 C :   -0.152990
   5 H :   -0.015161
   6 C :    0.034116
   7 H :    0.032556
   8 H :    0.017385
   9 C :   -0.044515
  10 H :    0.022820
  11 H :    0.032738
  12 C :   -0.063019
  13 H :    0.023876
  14 H :    0.033991
  15 H :    0.031973
  16 S :    0.104357
  17 C :   -0.066611
  18 C :   -0.018468
  19 C :    0.024387
  20 C :   -0.194874
  21 H :    0.003770
  22 C :    0.026411
  23 H :    0.036540
  24 H :    0.016485
  25 C :   -0.071162
  26 H :    0.029171
  27 H :    0.009994
  28 C :   -0.040741
  29 H :    0.042628
  30 H :    0.019611
  31 H :    0.040577
  32 H :    0.066089
  33 H :    0.046009
Sum of atomic charges:   -0.0000000

LOEWDIN ATOMIC CHARGES
----------------------
   0 S :    0.415504
   1 C :   -0.217515
   2 C :   -0.063361
   3 C :   -0.046097
   4 C :   -0.199133
   5 H :    0.022012
   6 C :   -0.034475
   7 H :    0.029414
   8 H :    0.027869
   9 C :   -0.028056
  10 H :    0.017644
  11 H :    0.025173
  12 C :   -0.065665
  13 H :    0.019367
  14 H :    0.020652
  15 H :    0.024055
  16 S :    0.394917
  17 C :   -0.174911
  18 C :   -0.060613
  19 C :   -0.054536
  20 C :   -0.187348
  21 H :    0.024323
  22 C :   -0.041647
  23 H :    0.037664
  24 H :    0.032640
  25 C :   -0.041019
  26 H :    0.029497
  27 H :    0.012470
  28 C :   -0.061975
  29 H :    0.030831
  30 H :    0.019029
  31 H :    0.029219
  32 H :    0.041426
  33 H :    0.022644

  Mayer bond orders larger than 0.100000
B(  0-S ,  1-C ) :   1.1324 B(  0-S ,  4-C ) :   1.1530 B(  1-C ,  2-C ) :   1.6219
B(  1-C , 32-H ) :   0.9588 B(  2-C ,  3-C ) :   1.2314 B(  2-C ,  6-C ) :   1.0134
B(  3-C ,  4-C ) :   1.5835 B(  3-C ,  5-H ) :   1.0146 B(  4-C , 20-C ) :   0.9910
B(  6-C ,  7-H ) :   0.9491 B(  6-C ,  8-H ) :   0.9453 B(  6-C ,  9-C ) :   1.0670
B(  9-C , 10-H ) :   0.9576 B(  9-C , 11-H ) :   0.9579 B(  9-C , 12-C ) :   1.0802
B( 12-C , 13-H ) :   0.9763 B( 12-C , 14-H ) :   0.9732 B( 12-C , 15-H ) :   0.9716
B( 16-S , 17-C ) :   1.1415 B( 16-S , 20-C ) :   1.1451 B( 17-C , 18-C ) :   1.6141
B( 17-C , 20-C ) :   0.1030 B( 17-C , 33-H ) :   0.9740 B( 18-C , 19-C ) :   1.2197
B( 18-C , 21-H ) :   0.9926 B( 19-C , 20-C ) :   1.6397 B( 19-C , 22-C ) :   1.0326
B( 22-C , 23-H ) :   0.9487 B( 22-C , 24-H ) :   0.9345 B( 22-C , 25-C ) :   1.0432
B( 25-C , 26-H ) :   0.9512 B( 25-C , 27-H ) :   0.9640 B( 25-C , 28-C ) :   1.0773
B( 28-C , 29-H ) :   0.9777 B( 28-C , 30-H ) :   0.9745 B( 28-C , 31-H ) :   0.9752

Dispersion correction           -0.014087227
FINAL SINGLE POINT ENERGY     -1339.871985467832

DIPOLE MOMENT
-------------
                                X             Y             Z
Electronic contribution:     26.04821      11.42659       3.99477
Nuclear contribution   :    -26.65766     -11.75210      -3.85328
                        -----------------------------------------
Total Dipole Moment    :     -0.60946      -0.32551       0.14149
                        -----------------------------------------
Magnitude (a.u.)       :      0.70527
Magnitude (Debye)      :      1.79266

Rotational constants in cm-1:     0.017901     0.008662     0.006516
Rotational constants in MHz :   536.652125   259.666358   195.345336

                             ****ORCA TERMINATED NORMALLY****
TOTAL RUN TIME: 0 days 0 hours 0 minutes 31 seconds 995 msec
