                         Program Version 4.2.1 -  RELEASE  -
|  1> ! wB97X-D3 SP def2-SVP
|  2> %pal
|  3> nprocs 16
|  4> end
|  5>
|  6> * xyz 0 1
|  7> S 	 -6.71293 	 -7.97529 	 80.7964
|  8> C 	 -6.69907 	 -9.52942 	 79.9492
|  9> C 	 -5.71329 	 -10.4441 	 80.4243
| 10> C 	 -5.3089 	 -9.97937 	 81.7342
| 11> C 	 -5.78624 	 -8.73034 	 82.0709
| 12> H 	 -4.61331 	 -10.4732 	 82.3627
| 13> C 	 -5.43336 	 -11.8641 	 79.9986
| 14> H 	 -6.28436 	 -12.524 	 79.8069
| 15> H 	 -4.87673 	 -12.3956 	 80.7595
| 16> C 	 -4.38761 	 -12.0943 	 78.8682
| 17> H 	 -4.63932 	 -13.071 	 78.3781
| 18> H 	 -4.4222 	 -11.2645 	 78.1111
| 19> C 	 -2.95589 	 -12.0991 	 79.4016
| 20> H 	 -2.66965 	 -11.1803 	 79.8485
| 21> H 	 -2.68549 	 -13.0207 	 80.0594
| 22> H 	 -2.31024 	 -12.2101 	 78.5077
| 23> S 	 -4.61087 	 -6.45593 	 82.9709
| 24> C 	 -4.64692 	 -6.15289 	 84.6592
| 25> C 	 -5.33132 	 -7.14684 	 85.3292
| 26> C 	 -5.79942 	 -8.20735 	 84.5016
| 27> C 	 -5.40547 	 -7.98392 	 83.2424
| 28> H 	 -5.32473 	 -7.07809 	 86.4638
| 29> C 	 -6.68577 	 -9.35279 	 84.9873
| 30> H 	 -6.66087 	 -9.47013 	 86.0455
| 31> H 	 -6.17126 	 -10.3293 	 84.7367
| 32> C 	 -8.20327 	 -9.29009 	 84.5247
| 33> H 	 -8.61938 	 -10.2254 	 84.864
| 34> H 	 -8.13999 	 -9.16341 	 83.4317
| 35> C 	 -8.89186 	 -8.05217 	 84.9578
| 36> H 	 -8.52679 	 -7.17874 	 84.3615
| 37> H 	 -8.7173 	 -7.89311 	 86.0662
| 38> H 	 -9.93194 	 -8.10241 	 84.8378
| 39> H 	 -7.1235 	 -9.78838 	 78.9417
| 40> H 	 -4.37722 	 -5.25814 	 85.1568
| 41> *
| 42>
| 43>                          ****END OF INPUT****

CARTESIAN COORDINATES (ANGSTROEM)
---------------------------------
  S     -6.712930   -7.975290   80.796400
  C     -6.699070   -9.529420   79.949200
  C     -5.713290  -10.444100   80.424300
  C     -5.308900   -9.979370   81.734200
  C     -5.786240   -8.730340   82.070900
  H     -4.613310  -10.473200   82.362700
  C     -5.433360  -11.864100   79.998600
  H     -6.284360  -12.524000   79.806900
  H     -4.876730  -12.395600   80.759500
  C     -4.387610  -12.094300   78.868200
  H     -4.639320  -13.071000   78.378100
  H     -4.422200  -11.264500   78.111100
  C     -2.955890  -12.099100   79.401600
  H     -2.669650  -11.180300   79.848500
  H     -2.685490  -13.020700   80.059400
  H     -2.310240  -12.210100   78.507700
  S     -4.610870   -6.455930   82.970900
  C     -4.646920   -6.152890   84.659200
  C     -5.331320   -7.146840   85.329200
  C     -5.799420   -8.207350   84.501600
  C     -5.405470   -7.983920   83.242400
  H     -5.324730   -7.078090   86.463800
  C     -6.685770   -9.352790   84.987300
  H     -6.660870   -9.470130   86.045500
  H     -6.171260  -10.329300   84.736700
  C     -8.203270   -9.290090   84.524700
  H     -8.619380  -10.225400   84.864000
  H     -8.139990   -9.163410   83.431700
  C     -8.891860   -8.052170   84.957800
  H     -8.526790   -7.178740   84.361500
  H     -8.717300   -7.893110   86.066200
  H     -9.931940   -8.102410   84.837800
  H     -7.123500   -9.788380   78.941700
  H     -4.377220   -5.258140   85.156800

 Total Charge           Charge          ....    0
 Multiplicity           Mult            ....    1
 Number of Electrons    NEL             ....  134
 Basis Dimension        Dim             ....  322

ORBITAL ENERGIES
----------------

  NO   OCC          E(Eh)            E(eV)
   0   2.0000     -88.974598     -2421.1219
   1   2.0000     -88.965071     -2420.8626
   2   2.0000     -10.323601      -280.9195
   3   2.0000     -10.322837      -280.8987
   4   2.0000     -10.315047      -280.6867
   5   2.0000     -10.308679      -280.5134
   6   2.0000     -10.308504      -280.5086
   7   2.0000     -10.297029      -280.1964
   8   2.0000     -10.293987      -280.1136
   9   2.0000     -10.293957      -280.1128
  10   2.0000     -10.292802      -280.0814
  11   2.0000     -10.292087      -280.0619
  12   2.0000     -10.291294      -280.0403
  13   2.0000     -10.283079      -279.8168
  14   2.0000     -10.281780      -279.7814
  15   2.0000     -10.271519      -279.5022
  16   2.0000      -8.088385      -220.0961
  17   2.0000      -8.080750      -219.8884
  18   2.0000      -6.046886      -164.5441
  19   2.0000      -6.043213      -164.4442
  20   2.0000      -6.039147      -164.3335
  21   2.0000      -6.039011      -164.3298
  22   2.0000      -6.035243      -164.2273
  23   2.0000      -6.031460      -164.1244
  24   2.0000      -1.013105       -27.5680
  25   2.0000      -0.982994       -26.7486
  26   2.0000      -0.911669       -24.8078
  27   2.0000      -0.906124       -24.6569
  28   2.0000      -0.867360       -23.6021
  29   2.0000      -0.854785       -23.2599
  30   2.0000      -0.846593       -23.0370
  31   2.0000      -0.808244       -21.9934
  32   2.0000      -0.783794       -21.3281
  33   2.0000      -0.773241       -21.0410
  34   2.0000      -0.702681       -19.1209
  35   2.0000      -0.694332       -18.8937
  36   2.0000      -0.683846       -18.6084
  37   2.0000      -0.660144       -17.9634
  38   2.0000      -0.636955       -17.3324
  39   2.0000      -0.616364       -16.7721
  40   2.0000      -0.595923       -16.2159
  41   2.0000      -0.570724       -15.5302
  42   2.0000      -0.553290       -15.0558
  43   2.0000      -0.551285       -15.0012
  44   2.0000      -0.545091       -14.8327
  45   2.0000      -0.533024       -14.5043
  46   2.0000      -0.512666       -13.9504
  47   2.0000      -0.503876       -13.7112
  48   2.0000      -0.499832       -13.6011
  49   2.0000      -0.489934       -13.3318
  50   2.0000      -0.482257       -13.1229
  51   2.0000      -0.475621       -12.9423
  52   2.0000      -0.471643       -12.8341
  53   2.0000      -0.465583       -12.6692
  54   2.0000      -0.459991       -12.5170
  55   2.0000      -0.453459       -12.3392
  56   2.0000      -0.439630       -11.9630
  57   2.0000      -0.434975       -11.8363
  58   2.0000      -0.427884       -11.6433
  59   2.0000      -0.426621       -11.6089
  60   2.0000      -0.421226       -11.4621
  61   2.0000      -0.414107       -11.2684
  62   2.0000      -0.401735       -10.9318
  63   2.0000      -0.340144        -9.2558
  64   2.0000      -0.335522        -9.1300
  65   2.0000      -0.327998        -8.9253
  66   2.0000      -0.295010        -8.0276
  67   0.0000       0.034424         0.9367
  68   0.0000       0.056827         1.5463
  69   0.0000       0.105918         2.8822
  70   0.0000       0.116820         3.1788
  71   0.0000       0.131278         3.5723

MULLIKEN ATOMIC CHARGES
-----------------------
   0 S :    0.129726
   1 C :   -0.119094
   2 C :   -0.060523
   3 C :    0.045441
   4 C :   -0.165584
   5 H :    0.001906
   6 C :    0.040649
   7 H :    0.041606
   8 H :    0.009888
   9 C :   -0.103749
  10 H :    0.037407
  11 H :    0.037414
  12 C :   -0.086634
  13 H :    0.039511
  14 H :    0.046856
  15 H :    0.034671
  16 S :    0.115257
  17 C :   -0.078826
  18 C :   -0.071108
  19 C :   -0.020211
  20 C :   -0.190618
  21 H :    0.037720
  22 C :    0.069535
  23 H :    0.001284
  24 H :    0.029488
  25 C :   -0.051054
  26 H :    0.031928
  27 H :    0.042457
  28 C :   -0.048255
  29 H :    0.049613
  30 H :    0.024942
  31 H :    0.026045
  32 H :    0.061619
  33 H :    0.040694
Sum of atomic charges:   -0.0000000

LOEWDIN ATOMIC CHARGES
----------------------
   0 S :    0.405273
   1 C :   -0.198794
   2 C :   -0.058416
   3 C :   -0.049252
   4 C :   -0.198533
   5 H :    0.024728
   6 C :   -0.042818
   7 H :    0.035676
   8 H :    0.031111
   9 C :   -0.044879
  10 H :    0.028885
  11 H :    0.026113
  12 C :   -0.077199
  13 H :    0.020676
  14 H :    0.033031
  15 H :    0.030103
  16 S :    0.415743
  17 C :   -0.197019
  18 C :   -0.075479
  19 C :   -0.061279
  20 C :   -0.202809
  21 H :    0.040148
  22 C :   -0.032652
  23 H :    0.019857
  24 H :    0.037496
  25 C :   -0.034820
  26 H :    0.022749
  27 H :    0.029213
  28 C :   -0.067086
  29 H :    0.035578
  30 H :    0.025844
  31 H :    0.019022
  32 H :    0.036215
  33 H :    0.023575

  Mayer bond orders larger than 0.100000
B(  0-S ,  1-C ) :   1.1384 B(  0-S ,  4-C ) :   1.1240 B(  1-C ,  2-C ) :   1.6156
B(  1-C , 32-H ) :   0.9554 B(  2-C ,  3-C ) :   1.2260 B(  2-C ,  6-C ) :   1.0255
B(  3-C ,  4-C ) :   1.6060 B(  3-C ,  5-H ) :   0.9916 B(  4-C , 20-C ) :   1.0314
B(  6-C ,  7-H ) :   0.9511 B(  6-C ,  8-H ) :   0.9480 B(  6-C ,  9-C ) :   1.0426
B(  9-C , 10-H ) :   0.9555 B(  9-C , 11-H ) :   0.9609 B(  9-C , 12-C ) :   1.0873
B( 12-C , 13-H ) :   0.9764 B( 12-C , 14-H ) :   0.9684 B( 12-C , 15-H ) :   0.9725
B( 16-S , 17-C ) :   1.1445 B( 16-S , 20-C ) :   1.1420 B( 17-C , 18-C ) :   1.6428
B( 17-C , 33-H ) :   0.9681 B( 18-C , 19-C ) :   1.2252 B( 18-C , 21-H ) :   0.9762
B( 19-C , 20-C ) :   1.6340 B( 19-C , 22-C ) :   1.0384 B( 22-C , 23-H ) :   0.9318
B( 22-C , 24-H ) :   0.9325 B( 22-C , 25-C ) :   1.0581 B( 25-C , 26-H ) :   0.9558
B( 25-C , 27-H ) :   0.9572 B( 25-C , 28-C ) :   1.0793 B( 28-C , 29-H ) :   0.9697
B( 28-C , 30-H ) :   0.9743 B( 28-C , 31-H ) :   0.9707

Dispersion correction           -0.015267007
FINAL SINGLE POINT ENERGY     -1339.857045498773

DIPOLE MOMENT
-------------
                                X             Y             Z
Electronic contribution:      2.02997      19.53468      -0.88395
Nuclear contribution   :     -2.03879     -20.02882       1.00728
                        -----------------------------------------
Total Dipole Moment    :     -0.00882      -0.49414       0.12332
                        -----------------------------------------
Magnitude (a.u.)       :      0.50938
Magnitude (Debye)      :      1.29473

Rotational constants in cm-1:     0.021430     0.008255     0.007515
Rotational constants in MHz :   642.444822   247.481896   225.307721

                             ****ORCA TERMINATED NORMALLY****
TOTAL RUN TIME: 0 days 0 hours 0 minutes 35 seconds 467 msec
