                         Program Version 4.2.1 -  RELEASE  -
|  1> ! wB97X-D3 SP def2-SVP
|  2> %pal
|  3> nprocs 16
|  4> end
|  5>
|  6> * xyz 0 1
|  7> S 	 10.2887 	 -13.4791 	 65.3838
|  8> C 	 10.2736 	 -15.2566 	 65.3721
|  9> C 	 10.1103 	 -15.7317 	 66.6405
| 10> C 	 9.97284 	 -14.7205 	 67.6652
| 11> C 	 10.245 	 -13.4742 	 67.1264
| 12> H 	 9.71686 	 -14.8208 	 68.7001
| 13> C 	 10.2815 	 -17.1452 	 66.9954
| 14> H 	 10.122 	 -17.7078 	 66.0634
| 15> H 	 9.33624 	 -17.2811 	 67.5442
| 16> C 	 11.5519 	 -17.5568 	 67.7621
| 17> H 	 11.7584 	 -17.0196 	 68.6827
| 18> H 	 11.5857 	 -18.5928 	 68.1577
| 19> C 	 12.7296 	 -17.3621 	 66.8027
| 20> H 	 13.53 	 -18.0902 	 67.0432
| 21> H 	 12.4297 	 -17.4731 	 65.7614
| 22> H 	 13.0842 	 -16.3302 	 67.0136
| 23> S 	 8.87112 	 -11.2971 	 68.0646
| 24> C 	 9.76333 	 -10.1228 	 68.8823
| 25> C 	 11.0318 	 -10.5576 	 69.2463
| 26> C 	 11.4053 	 -11.7714 	 68.6975
| 27> C 	 10.3542 	 -12.2265 	 67.8604
| 28> H 	 11.6639 	 -9.8538 	 69.8438
| 29> C 	 12.7224 	 -12.4545 	 68.7957
| 30> H 	 12.779 	 -13.2553 	 68.0932
| 31> H 	 12.6323 	 -12.9382 	 69.8264
| 32> C 	 14.0545 	 -11.6961 	 68.8
| 33> H 	 14.8718 	 -12.4419 	 68.9323
| 34> H 	 14.0082 	 -11.089 	 69.6618
| 35> C 	 14.2045 	 -10.8878 	 67.4835
| 36> H 	 13.4144 	 -10.1274 	 67.5025
| 37> H 	 14.0936 	 -11.4708 	 66.5466
| 38> H 	 15.2204 	 -10.4946 	 67.3565
| 39> H 	 10.3466 	 -15.8973 	 64.5167
| 40> H 	 9.40207 	 -9.18505 	 69.1259
| 41> *
| 42>
| 43>                          ****END OF INPUT****

CARTESIAN COORDINATES (ANGSTROEM)
---------------------------------
  S     10.288700  -13.479100   65.383800
  C     10.273600  -15.256600   65.372100
  C     10.110300  -15.731700   66.640500
  C      9.972840  -14.720500   67.665200
  C     10.245000  -13.474200   67.126400
  H      9.716860  -14.820800   68.700100
  C     10.281500  -17.145200   66.995400
  H     10.122000  -17.707800   66.063400
  H      9.336240  -17.281100   67.544200
  C     11.551900  -17.556800   67.762100
  H     11.758400  -17.019600   68.682700
  H     11.585700  -18.592800   68.157700
  C     12.729600  -17.362100   66.802700
  H     13.530000  -18.090200   67.043200
  H     12.429700  -17.473100   65.761400
  H     13.084200  -16.330200   67.013600
  S      8.871120  -11.297100   68.064600
  C      9.763330  -10.122800   68.882300
  C     11.031800  -10.557600   69.246300
  C     11.405300  -11.771400   68.697500
  C     10.354200  -12.226500   67.860400
  H     11.663900   -9.853800   69.843800
  C     12.722400  -12.454500   68.795700
  H     12.779000  -13.255300   68.093200
  H     12.632300  -12.938200   69.826400
  C     14.054500  -11.696100   68.800000
  H     14.871800  -12.441900   68.932300
  H     14.008200  -11.089000   69.661800
  C     14.204500  -10.887800   67.483500
  H     13.414400  -10.127400   67.502500
  H     14.093600  -11.470800   66.546600
  H     15.220400  -10.494600   67.356500
  H     10.346600  -15.897300   64.516700
  H      9.402070   -9.185050   69.125900

 Total Charge           Charge          ....    0
 Multiplicity           Mult            ....    1
 Number of Electrons    NEL             ....  134
 Basis Dimension        Dim             ....  322

ORBITAL ENERGIES
----------------

  NO   OCC          E(Eh)            E(eV)
   0   2.0000     -88.966548     -2420.9028
   1   2.0000     -88.961628     -2420.7690
   2   2.0000     -10.324544      -280.9451
   3   2.0000     -10.319943      -280.8199
   4   2.0000     -10.309180      -280.5271
   5   2.0000     -10.307208      -280.4734
   6   2.0000     -10.304044      -280.3873
   7   2.0000     -10.295239      -280.1477
   8   2.0000     -10.292793      -280.0811
   9   2.0000     -10.292077      -280.0617
  10   2.0000     -10.290127      -280.0086
  11   2.0000     -10.289369      -279.9880
  12   2.0000     -10.288540      -279.9654
  13   2.0000     -10.288219      -279.9567
  14   2.0000     -10.278221      -279.6846
  15   2.0000     -10.277061      -279.6531
  16   2.0000      -8.082317      -219.9310
  17   2.0000      -8.076209      -219.7648
  18   2.0000      -6.040416      -164.3681
  19   2.0000      -6.036791      -164.2694
  20   2.0000      -6.034765      -164.2143
  21   2.0000      -6.033346      -164.1757
  22   2.0000      -6.030840      -164.1075
  23   2.0000      -6.026839      -163.9986
  24   2.0000      -1.009343       -27.4656
  25   2.0000      -0.986569       -26.8459
  26   2.0000      -0.915120       -24.9017
  27   2.0000      -0.913194       -24.8493
  28   2.0000      -0.866693       -23.5839
  29   2.0000      -0.852901       -23.2086
  30   2.0000      -0.845176       -22.9984
  31   2.0000      -0.811252       -22.0753
  32   2.0000      -0.783165       -21.3110
  33   2.0000      -0.768366       -20.9083
  34   2.0000      -0.711119       -19.3505
  35   2.0000      -0.702548       -19.1173
  36   2.0000      -0.694746       -18.9050
  37   2.0000      -0.650730       -17.7073
  38   2.0000      -0.640997       -17.4424
  39   2.0000      -0.615675       -16.7534
  40   2.0000      -0.601687       -16.3727
  41   2.0000      -0.561763       -15.2864
  42   2.0000      -0.558486       -15.1972
  43   2.0000      -0.550455       -14.9786
  44   2.0000      -0.545684       -14.8488
  45   2.0000      -0.538448       -14.6519
  46   2.0000      -0.519153       -14.1269
  47   2.0000      -0.517776       -14.0894
  48   2.0000      -0.497430       -13.5358
  49   2.0000      -0.490743       -13.3538
  50   2.0000      -0.487762       -13.2727
  51   2.0000      -0.474651       -12.9159
  52   2.0000      -0.469621       -12.7790
  53   2.0000      -0.465283       -12.6610
  54   2.0000      -0.458617       -12.4796
  55   2.0000      -0.450465       -12.2578
  56   2.0000      -0.446140       -12.1401
  57   2.0000      -0.441721       -12.0198
  58   2.0000      -0.433951       -11.8084
  59   2.0000      -0.424093       -11.5401
  60   2.0000      -0.421283       -11.4637
  61   2.0000      -0.415054       -11.2942
  62   2.0000      -0.405151       -11.0247
  63   2.0000      -0.335458        -9.1283
  64   2.0000      -0.324298        -8.8246
  65   2.0000      -0.315203        -8.5771
  66   2.0000      -0.305015        -8.2999
  67   0.0000       0.038753         1.0545
  68   0.0000       0.056931         1.5492
  69   0.0000       0.114940         3.1277
  70   0.0000       0.121889         3.3168
  71   0.0000       0.130174         3.5422

MULLIKEN ATOMIC CHARGES
-----------------------
   0 S :    0.106680
   1 C :   -0.109469
   2 C :   -0.105299
   3 C :    0.059477
   4 C :   -0.194407
   5 H :    0.013410
   6 C :    0.055716
   7 H :    0.018952
   8 H :    0.028000
   9 C :   -0.045718
  10 H :    0.024914
  11 H :    0.030529
  12 C :   -0.072954
  13 H :    0.036094
  14 H :    0.032303
  15 H :    0.049861
  16 S :    0.135349
  17 C :   -0.052881
  18 C :   -0.083289
  19 C :    0.020848
  20 C :   -0.213298
  21 H :    0.028420
  22 C :    0.040064
  23 H :    0.027457
  24 H :    0.041683
  25 C :   -0.036469
  26 H :    0.035657
  27 H :    0.020363
  28 C :   -0.063447
  29 H :    0.043060
  30 H :    0.034679
  31 H :    0.035256
  32 H :    0.036505
  33 H :    0.021954
Sum of atomic charges:    0.0000000

LOEWDIN ATOMIC CHARGES
----------------------
   0 S :    0.391394
   1 C :   -0.192613
   2 C :   -0.065793
   3 C :   -0.054030
   4 C :   -0.196904
   5 H :    0.031967
   6 C :   -0.038862
   7 H :    0.029857
   8 H :    0.034791
   9 C :   -0.043758
  10 H :    0.023520
  11 H :    0.026799
  12 C :   -0.065641
  13 H :    0.027479
  14 H :    0.021428
  15 H :    0.032318
  16 S :    0.437850
  17 C :   -0.190119
  18 C :   -0.083419
  19 C :   -0.048771
  20 C :   -0.212363
  21 H :    0.036290
  22 C :   -0.034857
  23 H :    0.025539
  24 H :    0.045727
  25 C :   -0.035233
  26 H :    0.031010
  27 H :    0.015579
  28 C :   -0.070297
  29 H :    0.028713
  30 H :    0.030238
  31 H :    0.025661
  32 H :    0.024743
  33 H :    0.011757

  Mayer bond orders larger than 0.100000
B(  0-S ,  1-C ) :   1.1079 B(  0-S ,  4-C ) :   1.1551 B(  1-C ,  2-C ) :   1.6447
B(  1-C , 32-H ) :   0.9700 B(  2-C ,  3-C ) :   1.1837 B(  2-C ,  6-C ) :   1.0287
B(  3-C ,  4-C ) :   1.6021 B(  3-C ,  5-H ) :   1.0017 B(  4-C , 20-C ) :   1.0105
B(  6-C ,  7-H ) :   0.9453 B(  6-C ,  8-H ) :   0.9263 B(  6-C ,  9-C ) :   1.0602
B(  9-C , 10-H ) :   0.9594 B(  9-C , 11-H ) :   0.9615 B(  9-C , 12-C ) :   1.0545
B( 12-C , 13-H ) :   0.9753 B( 12-C , 14-H ) :   0.9797 B( 12-C , 15-H ) :   0.9786
B( 16-S , 17-C ) :   1.1848 B( 16-S , 20-C ) :   1.1746 B( 17-C , 18-C ) :   1.5724
B( 17-C , 20-C ) :   0.1147 B( 17-C , 33-H ) :   0.9763 B( 18-C , 19-C ) :   1.2661
B( 18-C , 21-H ) :   0.9853 B( 19-C , 20-C ) :   1.5399 B( 19-C , 22-C ) :   1.0447
B( 22-C , 23-H ) :   0.9340 B( 22-C , 24-H ) :   0.9194 B( 22-C , 25-C ) :   1.0772
B( 25-C , 26-H ) :   0.9516 B( 25-C , 27-H ) :   0.9522 B( 25-C , 28-C ) :   1.0718
B( 28-C , 29-H ) :   0.9733 B( 28-C , 30-H ) :   0.9756 B( 28-C , 31-H ) :   0.9758

Dispersion correction           -0.015542181
FINAL SINGLE POINT ENERGY     -1339.865947409303

DIPOLE MOMENT
-------------
                                X             Y             Z
Electronic contribution:    -21.19310      12.62514      -5.10397
Nuclear contribution   :     21.55270     -12.90536       5.53734
                        -----------------------------------------
Total Dipole Moment    :      0.35961      -0.28022       0.43337
                        -----------------------------------------
Magnitude (a.u.)       :      0.62901
Magnitude (Debye)      :      1.59881

Rotational constants in cm-1:     0.018949     0.009456     0.007696
Rotational constants in MHz :   568.064052   283.486591   230.714214

                             ****ORCA TERMINATED NORMALLY****
TOTAL RUN TIME: 0 days 0 hours 0 minutes 36 seconds 521 msec
