                         Program Version 4.2.1 -  RELEASE  -
|  1> ! wB97X-D3 SP def2-SVP
|  2> %pal
|  3> nprocs 16
|  4> end
|  5>
|  6> * xyz 0 1
|  7> S 	 -4.05546 	 36.4201 	 48.7792
|  8> C 	 -2.6575 	 36.6437 	 49.7713
|  9> C 	 -2.06616 	 35.4438 	 50.0856
| 10> C 	 -2.79513 	 34.346 	 49.5789
| 11> C 	 -3.97732 	 34.6621 	 48.9826
| 12> H 	 -2.61392 	 33.3036 	 49.7014
| 13> C 	 -0.718823 	 35.3508 	 50.8817
| 14> H 	 -0.738592 	 36.1786 	 51.6728
| 15> H 	 0.0481365 	 35.6947 	 50.2004
| 16> C 	 -0.183026 	 33.9102 	 51.3571
| 17> H 	 -0.925156 	 33.4531 	 51.9957
| 18> H 	 -0.0811024 	 33.2625 	 50.4974
| 19> C 	 1.08399 	 33.9644 	 52.1964
| 20> H 	 1.27408 	 32.9161 	 52.5802
| 21> H 	 1.97548 	 34.306 	 51.5999
| 22> H 	 0.937644 	 34.5679 	 53.1113
| 23> S 	 -5.86456 	 32.8756 	 49.9096
| 24> C 	 -6.68568 	 31.8262 	 48.8459
| 25> C 	 -6.37454 	 32.1357 	 47.5286
| 26> C 	 -5.45534 	 33.2548 	 47.3673
| 27> C 	 -5.05109 	 33.7308 	 48.6056
| 28> H 	 -6.6754 	 31.4542 	 46.7449
| 29> C 	 -4.84314 	 33.4696 	 46.0023
| 30> H 	 -4.69247 	 32.5348 	 45.4847
| 31> H 	 -3.82408 	 33.7667 	 46.1372
| 32> C 	 -5.65305 	 34.4664 	 45.0602
| 33> H 	 -6.63748 	 34.1969 	 44.8635
| 34> H 	 -5.14848 	 34.5747 	 44.0885
| 35> C 	 -5.71855 	 35.9177 	 45.5862
| 36> H 	 -6.1744 	 36.6292 	 44.8993
| 37> H 	 -4.65004 	 36.3557 	 45.6761
| 38> H 	 -6.13166 	 36.0297 	 46.6146
| 39> H 	 -2.23722 	 37.6367 	 49.9887
| 40> H 	 -7.1927 	 30.9333 	 49.1762
| 41> *
| 42>
| 43>                          ****END OF INPUT****

CARTESIAN COORDINATES (ANGSTROEM)
---------------------------------
  S     -4.055460   36.420100   48.779200
  C     -2.657500   36.643700   49.771300
  C     -2.066160   35.443800   50.085600
  C     -2.795130   34.346000   49.578900
  C     -3.977320   34.662100   48.982600
  H     -2.613920   33.303600   49.701400
  C     -0.718823   35.350800   50.881700
  H     -0.738592   36.178600   51.672800
  H      0.048136   35.694700   50.200400
  C     -0.183026   33.910200   51.357100
  H     -0.925156   33.453100   51.995700
  H     -0.081102   33.262500   50.497400
  C      1.083990   33.964400   52.196400
  H      1.274080   32.916100   52.580200
  H      1.975480   34.306000   51.599900
  H      0.937644   34.567900   53.111300
  S     -5.864560   32.875600   49.909600
  C     -6.685680   31.826200   48.845900
  C     -6.374540   32.135700   47.528600
  C     -5.455340   33.254800   47.367300
  C     -5.051090   33.730800   48.605600
  H     -6.675400   31.454200   46.744900
  C     -4.843140   33.469600   46.002300
  H     -4.692470   32.534800   45.484700
  H     -3.824080   33.766700   46.137200
  C     -5.653050   34.466400   45.060200
  H     -6.637480   34.196900   44.863500
  H     -5.148480   34.574700   44.088500
  C     -5.718550   35.917700   45.586200
  H     -6.174400   36.629200   44.899300
  H     -4.650040   36.355700   45.676100
  H     -6.131660   36.029700   46.614600
  H     -2.237220   37.636700   49.988700
  H     -7.192700   30.933300   49.176200

 Total Charge           Charge          ....    0
 Multiplicity           Mult            ....    1
 Number of Electrons    NEL             ....  134
 Basis Dimension        Dim             ....  322

ORBITAL ENERGIES
----------------

  NO   OCC          E(Eh)            E(eV)
   0   2.0000     -88.964421     -2420.8450
   1   2.0000     -88.963230     -2420.8126
   2   2.0000     -10.328807      -281.0611
   3   2.0000     -10.326173      -280.9895
   4   2.0000     -10.314631      -280.6754
   5   2.0000     -10.312266      -280.6110
   6   2.0000     -10.306771      -280.4615
   7   2.0000     -10.303468      -280.3716
   8   2.0000     -10.302684      -280.3503
   9   2.0000     -10.293759      -280.1074
  10   2.0000     -10.292897      -280.0840
  11   2.0000     -10.292116      -280.0627
  12   2.0000     -10.289515      -279.9919
  13   2.0000     -10.289224      -279.9840
  14   2.0000     -10.285428      -279.8807
  15   2.0000     -10.277460      -279.6639
  16   2.0000      -8.079881      -219.8648
  17   2.0000      -8.077717      -219.8058
  18   2.0000      -6.038284      -164.3101
  19   2.0000      -6.036155      -164.2521
  20   2.0000      -6.034149      -164.1975
  21   2.0000      -6.032223      -164.1451
  22   2.0000      -6.030836      -164.1074
  23   2.0000      -6.028585      -164.0461
  24   2.0000      -1.007119       -27.4051
  25   2.0000      -0.986749       -26.8508
  26   2.0000      -0.901849       -24.5406
  27   2.0000      -0.898441       -24.4478
  28   2.0000      -0.869912       -23.6715
  29   2.0000      -0.847585       -23.0639
  30   2.0000      -0.845572       -23.0092
  31   2.0000      -0.813709       -22.1422
  32   2.0000      -0.780662       -21.2429
  33   2.0000      -0.765888       -20.8409
  34   2.0000      -0.707270       -19.2458
  35   2.0000      -0.697578       -18.9821
  36   2.0000      -0.684935       -18.6380
  37   2.0000      -0.661786       -18.0081
  38   2.0000      -0.642732       -17.4896
  39   2.0000      -0.616539       -16.7769
  40   2.0000      -0.597959       -16.2713
  41   2.0000      -0.566583       -15.4175
  42   2.0000      -0.560704       -15.2575
  43   2.0000      -0.545149       -14.8343
  44   2.0000      -0.537622       -14.6294
  45   2.0000      -0.519305       -14.1310
  46   2.0000      -0.515351       -14.0234
  47   2.0000      -0.505398       -13.7526
  48   2.0000      -0.501073       -13.6349
  49   2.0000      -0.498629       -13.5684
  50   2.0000      -0.487221       -13.2579
  51   2.0000      -0.479463       -13.0469
  52   2.0000      -0.475144       -12.9293
  53   2.0000      -0.464882       -12.6501
  54   2.0000      -0.454416       -12.3653
  55   2.0000      -0.446671       -12.1545
  56   2.0000      -0.439219       -11.9517
  57   2.0000      -0.433947       -11.8083
  58   2.0000      -0.428593       -11.6626
  59   2.0000      -0.424724       -11.5573
  60   2.0000      -0.420093       -11.4313
  61   2.0000      -0.414886       -11.2896
  62   2.0000      -0.412358       -11.2208
  63   2.0000      -0.339338        -9.2339
  64   2.0000      -0.327975        -8.9246
  65   2.0000      -0.326211        -8.8767
  66   2.0000      -0.303506        -8.2588
  67   0.0000       0.037623         1.0238
  68   0.0000       0.062802         1.7089
  69   0.0000       0.107886         2.9357
  70   0.0000       0.124907         3.3989
  71   0.0000       0.132632         3.6091

MULLIKEN ATOMIC CHARGES
-----------------------
   0 S :    0.111152
   1 C :   -0.135221
   2 C :   -0.050087
   3 C :    0.032316
   4 C :   -0.164022
   5 H :    0.002039
   6 C :    0.019024
   7 H :    0.040132
   8 H :    0.034407
   9 C :   -0.074470
  10 H :    0.032251
  11 H :    0.036979
  12 C :   -0.074157
  13 H :    0.041166
  14 H :    0.045748
  15 H :    0.041923
  16 S :    0.120185
  17 C :   -0.095919
  18 C :   -0.044610
  19 C :    0.001679
  20 C :   -0.195116
  21 H :    0.021562
  22 C :    0.069915
  23 H :    0.024371
  24 H :    0.019652
  25 C :   -0.027459
  26 H :    0.020040
  27 H :    0.030543
  28 C :   -0.115125
  29 H :    0.037024
  30 H :    0.028606
  31 H :    0.047714
  32 H :    0.055217
  33 H :    0.062540
Sum of atomic charges:    0.0000000

LOEWDIN ATOMIC CHARGES
----------------------
   0 S :    0.414832
   1 C :   -0.202560
   2 C :   -0.068017
   3 C :   -0.061924
   4 C :   -0.192636
   5 H :    0.028183
   6 C :   -0.038167
   7 H :    0.037584
   8 H :    0.029490
   9 C :   -0.043240
  10 H :    0.022868
  11 H :    0.023936
  12 C :   -0.071013
  13 H :    0.034380
  14 H :    0.028939
  15 H :    0.028729
  16 S :    0.426459
  17 C :   -0.201597
  18 C :   -0.071174
  19 C :   -0.052147
  20 C :   -0.200907
  21 H :    0.029066
  22 C :   -0.025347
  23 H :    0.032064
  24 H :    0.029398
  25 C :   -0.031733
  26 H :    0.013949
  27 H :    0.028773
  28 C :   -0.081768
  29 H :    0.024426
  30 H :    0.025385
  31 H :    0.020207
  32 H :    0.032815
  33 H :    0.030751

  Mayer bond orders larger than 0.100000
B(  0-S ,  1-C ) :   1.1551 B(  0-S ,  4-C ) :   1.1407 B(  1-C ,  2-C ) :   1.6090
B(  1-C , 32-H ) :   0.9698 B(  2-C ,  3-C ) :   1.2418 B(  2-C ,  6-C ) :   0.9927
B(  3-C ,  4-C ) :   1.5917 B(  3-C ,  5-H ) :   0.9999 B(  4-C , 20-C ) :   1.0188
B(  6-C ,  7-H ) :   0.9505 B(  6-C ,  8-H ) :   0.9423 B(  6-C ,  9-C ) :   1.0562
B(  9-C , 10-H ) :   0.9588 B(  9-C , 11-H ) :   0.9496 B(  9-C , 12-C ) :   1.0909
B( 12-C , 13-H ) :   0.9719 B( 12-C , 14-H ) :   0.9749 B( 12-C , 15-H ) :   0.9742
B( 16-S , 17-C ) :   1.1667 B( 16-S , 20-C ) :   1.1533 B( 17-C , 18-C ) :   1.6027
B( 17-C , 33-H ) :   0.9681 B( 18-C , 19-C ) :   1.2380 B( 18-C , 21-H ) :   0.9880
B( 19-C , 20-C ) :   1.5861 B( 19-C , 22-C ) :   1.0390 B( 22-C , 23-H ) :   0.9460
B( 22-C , 24-H ) :   0.9368 B( 22-C , 25-C ) :   1.0547 B( 25-C , 26-H ) :   0.9617
B( 25-C , 27-H ) :   0.9554 B( 25-C , 28-C ) :   1.0723 B( 28-C , 29-H ) :   0.9738
B( 28-C , 30-H ) :   0.9735 B( 28-C , 31-H ) :   0.9731

Dispersion correction           -0.014625100
FINAL SINGLE POINT ENERGY     -1339.880468698717

DIPOLE MOMENT
-------------
                                X             Y             Z
Electronic contribution:    -15.82815      -0.07802       4.08045
Nuclear contribution   :     16.34745      -0.30579      -4.21840
                        -----------------------------------------
Total Dipole Moment    :      0.51930      -0.38381      -0.13795
                        -----------------------------------------
Magnitude (a.u.)       :      0.66031
Magnitude (Debye)      :      1.67839

Rotational constants in cm-1:     0.020197     0.007954     0.006629
Rotational constants in MHz :   605.493939   238.447444   198.739823

                             ****ORCA TERMINATED NORMALLY****
TOTAL RUN TIME: 0 days 0 hours 0 minutes 31 seconds 838 msec
