                         Program Version 4.2.1 -  RELEASE  -
|  1> ! wB97X-D3 SP def2-SVP
|  2> %pal
|  3> nprocs 16
|  4> end
|  5>
|  6> * xyz 0 1
|  7> S 	 8.98321 	 21.7304 	 60.2717
|  8> C 	 9.13712 	 19.999 	 59.9003
|  9> C 	 8.15373 	 19.1977 	 60.4842
| 10> C 	 7.19765 	 20.0661 	 61.1704
| 11> C 	 7.40262 	 21.4473 	 60.923
| 12> H 	 6.38214 	 19.7783 	 61.7857
| 13> C 	 7.88491 	 17.7095 	 60.2996
| 14> H 	 8.16016 	 17.3774 	 59.3117
| 15> H 	 6.86766 	 17.3002 	 60.3713
| 16> C 	 8.64188 	 16.9033 	 61.4299
| 17> H 	 8.47986 	 15.8398 	 61.2975
| 18> H 	 9.72922 	 16.9641 	 61.2132
| 19> C 	 8.3978 	 17.2879 	 62.9025
| 20> H 	 7.42749 	 16.9574 	 63.1169
| 21> H 	 9.20332 	 16.7754 	 63.5251
| 22> H 	 8.48211 	 18.383 	 63.0517
| 23> S 	 7.52048 	 23.8209 	 62.3352
| 24> C 	 6.13854 	 24.4439 	 62.9983
| 25> C 	 4.98423 	 23.854 	 62.6061
| 26> C 	 5.25696 	 22.6843 	 61.813
| 27> C 	 6.6251 	 22.5011 	 61.5739
| 28> H 	 4.01928 	 24.225 	 62.934
| 29> C 	 4.14352 	 21.7101 	 61.2476
| 30> H 	 4.58762 	 20.9827 	 60.5408
| 31> H 	 3.42978 	 22.3078 	 60.8245
| 32> C 	 3.49056 	 20.7654 	 62.2968
| 33> H 	 3.10262 	 21.4084 	 63.0831
| 34> H 	 4.20856 	 20.0101 	 62.6533
| 35> C 	 2.24229 	 20.0535 	 61.7047
| 36> H 	 1.82154 	 19.2421 	 62.2842
| 37> H 	 2.39157 	 19.5921 	 60.6611
| 38> H 	 1.43768 	 20.8135 	 61.675
| 39> H 	 9.84171 	 19.7612 	 59.1697
| 40> H 	 6.03554 	 25.2186 	 63.7128
| 41> *
| 42>
| 43>                          ****END OF INPUT****

CARTESIAN COORDINATES (ANGSTROEM)
---------------------------------
  S      8.983210   21.730400   60.271700
  C      9.137120   19.999000   59.900300
  C      8.153730   19.197700   60.484200
  C      7.197650   20.066100   61.170400
  C      7.402620   21.447300   60.923000
  H      6.382140   19.778300   61.785700
  C      7.884910   17.709500   60.299600
  H      8.160160   17.377400   59.311700
  H      6.867660   17.300200   60.371300
  C      8.641880   16.903300   61.429900
  H      8.479860   15.839800   61.297500
  H      9.729220   16.964100   61.213200
  C      8.397800   17.287900   62.902500
  H      7.427490   16.957400   63.116900
  H      9.203320   16.775400   63.525100
  H      8.482110   18.383000   63.051700
  S      7.520480   23.820900   62.335200
  C      6.138540   24.443900   62.998300
  C      4.984230   23.854000   62.606100
  C      5.256960   22.684300   61.813000
  C      6.625100   22.501100   61.573900
  H      4.019280   24.225000   62.934000
  C      4.143520   21.710100   61.247600
  H      4.587620   20.982700   60.540800
  H      3.429780   22.307800   60.824500
  C      3.490560   20.765400   62.296800
  H      3.102620   21.408400   63.083100
  H      4.208560   20.010100   62.653300
  C      2.242290   20.053500   61.704700
  H      1.821540   19.242100   62.284200
  H      2.391570   19.592100   60.661100
  H      1.437680   20.813500   61.675000
  H      9.841710   19.761200   59.169700
  H      6.035540   25.218600   63.712800

 Total Charge           Charge          ....    0
 Multiplicity           Mult            ....    1
 Number of Electrons    NEL             ....  134
 Basis Dimension        Dim             ....  322

ORBITAL ENERGIES
----------------

  NO   OCC          E(Eh)            E(eV)
   0   2.0000     -88.967768     -2420.9360
   1   2.0000     -88.964690     -2420.8523
   2   2.0000     -10.332758      -281.1686
   3   2.0000     -10.326750      -281.0052
   4   2.0000     -10.316470      -280.7254
   5   2.0000     -10.314155      -280.6624
   6   2.0000     -10.308418      -280.5063
   7   2.0000     -10.305796      -280.4350
   8   2.0000     -10.299778      -280.2712
   9   2.0000     -10.297635      -280.2129
  10   2.0000     -10.291311      -280.0408
  11   2.0000     -10.290922      -280.0302
  12   2.0000     -10.290770      -280.0261
  13   2.0000     -10.287065      -279.9253
  14   2.0000     -10.286282      -279.9040
  15   2.0000     -10.279555      -279.7209
  16   2.0000      -8.082608      -219.9389
  17   2.0000      -8.081271      -219.9026
  18   2.0000      -6.041131      -164.3875
  19   2.0000      -6.039616      -164.3463
  20   2.0000      -6.037330      -164.2841
  21   2.0000      -6.035544      -164.2355
  22   2.0000      -6.033140      -164.1701
  23   2.0000      -6.032072      -164.1410
  24   2.0000      -1.010459       -27.4960
  25   2.0000      -0.984702       -26.7951
  26   2.0000      -0.907397       -24.6915
  27   2.0000      -0.904725       -24.6188
  28   2.0000      -0.867914       -23.6171
  29   2.0000      -0.850993       -23.1567
  30   2.0000      -0.841898       -22.9092
  31   2.0000      -0.811849       -22.0915
  32   2.0000      -0.786273       -21.3956
  33   2.0000      -0.773817       -21.0566
  34   2.0000      -0.702076       -19.1045
  35   2.0000      -0.696252       -18.9460
  36   2.0000      -0.691166       -18.8076
  37   2.0000      -0.663206       -18.0467
  38   2.0000      -0.643652       -17.5147
  39   2.0000      -0.617716       -16.8089
  40   2.0000      -0.595227       -16.1970
  41   2.0000      -0.575602       -15.6629
  42   2.0000      -0.573725       -15.6119
  43   2.0000      -0.546415       -14.8687
  44   2.0000      -0.538561       -14.6550
  45   2.0000      -0.520801       -14.1717
  46   2.0000      -0.514946       -14.0124
  47   2.0000      -0.510718       -13.8973
  48   2.0000      -0.505007       -13.7419
  49   2.0000      -0.500080       -13.6079
  50   2.0000      -0.492638       -13.4054
  51   2.0000      -0.476236       -12.9590
  52   2.0000      -0.468898       -12.7594
  53   2.0000      -0.465726       -12.6731
  54   2.0000      -0.460724       -12.5369
  55   2.0000      -0.454499       -12.3675
  56   2.0000      -0.440416       -11.9843
  57   2.0000      -0.439250       -11.9526
  58   2.0000      -0.433340       -11.7918
  59   2.0000      -0.422474       -11.4961
  60   2.0000      -0.418855       -11.3976
  61   2.0000      -0.415785       -11.3141
  62   2.0000      -0.410377       -11.1669
  63   2.0000      -0.354148        -9.6369
  64   2.0000      -0.333512        -9.0753
  65   2.0000      -0.328423        -8.9368
  66   2.0000      -0.283835        -7.7235
  67   0.0000       0.025820         0.7026
  68   0.0000       0.071016         1.9324
  69   0.0000       0.101059         2.7500
  70   0.0000       0.113262         3.0820
  71   0.0000       0.131815         3.5869

MULLIKEN ATOMIC CHARGES
-----------------------
   0 S :    0.090356
   1 C :   -0.110498
   2 C :   -0.040437
   3 C :    0.010811
   4 C :   -0.113120
   5 H :   -0.008970
   6 C :    0.072825
   7 H :    0.023588
   8 H :    0.032060
   9 C :   -0.121001
  10 H :    0.022332
  11 H :    0.024563
  12 C :   -0.048215
  13 H :    0.022359
  14 H :    0.050913
  15 H :    0.055573
  16 S :    0.113891
  17 C :   -0.050979
  18 C :   -0.045019
  19 C :   -0.050036
  20 C :   -0.155291
  21 H :    0.014150
  22 C :    0.082772
  23 H :    0.032578
  24 H :    0.005722
  25 C :   -0.082074
  26 H :    0.028894
  27 H :    0.044759
  28 C :   -0.082291
  29 H :    0.034553
  30 H :    0.040995
  31 H :    0.031266
  32 H :    0.036052
  33 H :    0.036919
Sum of atomic charges:    0.0000000

LOEWDIN ATOMIC CHARGES
----------------------
   0 S :    0.394970
   1 C :   -0.173868
   2 C :   -0.049355
   3 C :   -0.056983
   4 C :   -0.192491
   5 H :    0.020298
   6 C :   -0.031290
   7 H :    0.030716
   8 H :    0.032891
   9 C :   -0.045569
  10 H :    0.018120
  11 H :    0.020147
  12 C :   -0.064463
  13 H :    0.014248
  14 H :    0.040204
  15 H :    0.031525
  16 S :    0.431378
  17 C :   -0.205086
  18 C :   -0.077964
  19 C :   -0.050117
  20 C :   -0.197358
  21 H :    0.031463
  22 C :   -0.018351
  23 H :    0.032443
  24 H :    0.015721
  25 C :   -0.038201
  26 H :    0.022425
  27 H :    0.022000
  28 C :   -0.076286
  29 H :    0.023038
  30 H :    0.031182
  31 H :    0.026106
  32 H :    0.012079
  33 H :    0.026427

  Mayer bond orders larger than 0.100000
B(  0-S ,  1-C ) :   1.1329 B(  0-S ,  4-C ) :   1.1508 B(  1-C ,  2-C ) :   1.6074
B(  1-C , 32-H ) :   0.9774 B(  2-C ,  3-C ) :   1.2147 B(  2-C ,  6-C ) :   1.0148
B(  3-C ,  4-C ) :   1.5570 B(  3-C ,  5-H ) :   0.9954 B(  4-C , 20-C ) :   1.0631
B(  6-C ,  7-H ) :   0.9448 B(  6-C ,  8-H ) :   0.9564 B(  6-C ,  9-C ) :   1.0545
B(  9-C , 10-H ) :   0.9595 B(  9-C , 11-H ) :   0.9617 B(  9-C , 12-C ) :   1.0711
B( 12-C , 13-H ) :   0.9774 B( 12-C , 14-H ) :   0.9722 B( 12-C , 15-H ) :   0.9711
B( 16-S , 17-C ) :   1.1793 B( 16-S , 20-C ) :   1.1291 B( 17-C , 18-C ) :   1.6135
B( 17-C , 33-H ) :   0.9633 B( 18-C , 19-C ) :   1.2395 B( 18-C , 21-H ) :   0.9934
B( 19-C , 20-C ) :   1.6077 B( 19-C , 22-C ) :   1.0298 B( 22-C , 23-H ) :   0.9381
B( 22-C , 24-H ) :   0.9388 B( 22-C , 25-C ) :   1.0632 B( 25-C , 26-H ) :   0.9577
B( 25-C , 27-H ) :   0.9556 B( 25-C , 28-C ) :   1.0722 B( 28-C , 29-H ) :   0.9761
B( 28-C , 30-H ) :   0.9742 B( 28-C , 31-H ) :   0.9772

Dispersion correction           -0.014317417
FINAL SINGLE POINT ENERGY     -1339.859590695400

DIPOLE MOMENT
-------------
                                X             Y             Z
Electronic contribution:     16.03726      24.76949      -4.12021
Nuclear contribution   :    -16.51468     -25.22977       4.24151
                        -----------------------------------------
Total Dipole Moment    :     -0.47742      -0.46028       0.12129
                        -----------------------------------------
Magnitude (a.u.)       :      0.67416
Magnitude (Debye)      :      1.71359

Rotational constants in cm-1:     0.016069     0.009821     0.007003
Rotational constants in MHz :   481.744540   294.427672   209.930440

                             ****ORCA TERMINATED NORMALLY****
TOTAL RUN TIME: 0 days 0 hours 0 minutes 35 seconds 352 msec
