                         Program Version 4.2.1 -  RELEASE  -
|  1> ! wB97X-D3 SP def2-SVP
|  2> %pal
|  3> nprocs 16
|  4> end
|  5>
|  6> * xyz 0 1
|  7> S 	 36.7638 	 24.6007 	 84.0218
|  8> C 	 35.3789 	 24.5417 	 85.1292
|  9> C 	 35.7448 	 23.9418 	 86.3149
| 10> C 	 37.1033 	 23.4789 	 86.3686
| 11> C 	 37.7572 	 23.7209 	 85.1727
| 12> H 	 37.668 	 22.9686 	 87.2023
| 13> C 	 34.7913 	 23.6827 	 87.4733
| 14> H 	 34.935 	 22.6051 	 87.7212
| 15> H 	 33.7638 	 23.9049 	 87.0804
| 16> C 	 35.0309 	 24.44 	 88.8053
| 17> H 	 36.1092 	 24.3975 	 88.8738
| 18> H 	 34.7774 	 25.499 	 88.7788
| 19> C 	 34.2931 	 23.9682 	 90.0698
| 20> H 	 34.0971 	 22.9067 	 90.0184
| 21> H 	 34.7162 	 24.109 	 91.0454
| 22> H 	 33.3718 	 24.5408 	 89.9435
| 23> S 	 39.3472 	 21.5192 	 85.2193
| 24> C 	 40.9572 	 21.551 	 84.5609
| 25> C 	 41.3299 	 22.8532 	 84.2715
| 26> C 	 40.2563 	 23.8223 	 84.371
| 27> C 	 39.0577 	 23.2213 	 84.7846
| 28> H 	 42.4044 	 22.9982 	 83.9488
| 29> C 	 40.4607 	 25.2678 	 83.9172
| 30> H 	 39.6797 	 25.5418 	 83.175
| 31> H 	 41.3519 	 25.2737 	 83.3257
| 32> C 	 40.5063 	 26.2604 	 85.1109
| 33> H 	 39.6939 	 26.082 	 85.7968
| 34> H 	 40.2351 	 27.1951 	 84.5932
| 35> C 	 41.8268 	 26.3883 	 85.9059
| 36> H 	 42.6342 	 26.4027 	 85.2561
| 37> H 	 42.1137 	 25.6031 	 86.5634
| 38> H 	 41.7391 	 27.2906 	 86.554
| 39> H 	 34.3618 	 24.9447 	 84.99
| 40> H 	 41.6891 	 20.7271 	 84.4195
| 41> *
| 42>
| 43>                          ****END OF INPUT****

CARTESIAN COORDINATES (ANGSTROEM)
---------------------------------
  S     36.763800   24.600700   84.021800
  C     35.378900   24.541700   85.129200
  C     35.744800   23.941800   86.314900
  C     37.103300   23.478900   86.368600
  C     37.757200   23.720900   85.172700
  H     37.668000   22.968600   87.202300
  C     34.791300   23.682700   87.473300
  H     34.935000   22.605100   87.721200
  H     33.763800   23.904900   87.080400
  C     35.030900   24.440000   88.805300
  H     36.109200   24.397500   88.873800
  H     34.777400   25.499000   88.778800
  C     34.293100   23.968200   90.069800
  H     34.097100   22.906700   90.018400
  H     34.716200   24.109000   91.045400
  H     33.371800   24.540800   89.943500
  S     39.347200   21.519200   85.219300
  C     40.957200   21.551000   84.560900
  C     41.329900   22.853200   84.271500
  C     40.256300   23.822300   84.371000
  C     39.057700   23.221300   84.784600
  H     42.404400   22.998200   83.948800
  C     40.460700   25.267800   83.917200
  H     39.679700   25.541800   83.175000
  H     41.351900   25.273700   83.325700
  C     40.506300   26.260400   85.110900
  H     39.693900   26.082000   85.796800
  H     40.235100   27.195100   84.593200
  C     41.826800   26.388300   85.905900
  H     42.634200   26.402700   85.256100
  H     42.113700   25.603100   86.563400
  H     41.739100   27.290600   86.554000
  H     34.361800   24.944700   84.990000
  H     41.689100   20.727100   84.419500

 Total Charge           Charge          ....    0
 Multiplicity           Mult            ....    1
 Number of Electrons    NEL             ....  134
 Basis Dimension        Dim             ....  322

ORBITAL ENERGIES
----------------

  NO   OCC          E(Eh)            E(eV)
   0   2.0000     -88.968727     -2420.9621
   1   2.0000     -88.966319     -2420.8966
   2   2.0000     -10.332383      -281.1584
   3   2.0000     -10.328668      -281.0573
   4   2.0000     -10.319431      -280.8060
   5   2.0000     -10.317397      -280.7506
   6   2.0000     -10.309139      -280.5259
   7   2.0000     -10.303351      -280.3684
   8   2.0000     -10.299895      -280.2744
   9   2.0000     -10.299444      -280.2621
  10   2.0000     -10.299251      -280.2569
  11   2.0000     -10.293363      -280.0966
  12   2.0000     -10.285819      -279.8914
  13   2.0000     -10.284488      -279.8551
  14   2.0000     -10.276063      -279.6259
  15   2.0000     -10.271749      -279.5085
  16   2.0000      -8.082687      -219.9411
  17   2.0000      -8.080507      -219.8818
  18   2.0000      -6.041349      -164.3935
  19   2.0000      -6.039092      -164.3320
  20   2.0000      -6.037328      -164.2841
  21   2.0000      -6.035090      -164.2232
  22   2.0000      -6.033318      -164.1749
  23   2.0000      -6.031199      -164.1173
  24   2.0000      -1.004236       -27.3266
  25   2.0000      -0.980005       -26.6673
  26   2.0000      -0.907824       -24.7032
  27   2.0000      -0.903422       -24.5834
  28   2.0000      -0.870396       -23.6847
  29   2.0000      -0.850131       -23.1332
  30   2.0000      -0.843281       -22.9468
  31   2.0000      -0.811237       -22.0749
  32   2.0000      -0.785781       -21.3822
  33   2.0000      -0.772348       -21.0167
  34   2.0000      -0.713210       -19.4074
  35   2.0000      -0.696745       -18.9594
  36   2.0000      -0.690463       -18.7884
  37   2.0000      -0.658607       -17.9216
  38   2.0000      -0.631653       -17.1881
  39   2.0000      -0.613428       -16.6922
  40   2.0000      -0.589454       -16.0399
  41   2.0000      -0.570338       -15.5197
  42   2.0000      -0.562781       -15.3140
  43   2.0000      -0.545311       -14.8387
  44   2.0000      -0.535811       -14.5802
  45   2.0000      -0.525307       -14.2943
  46   2.0000      -0.521889       -14.2013
  47   2.0000      -0.511920       -13.9301
  48   2.0000      -0.500332       -13.6147
  49   2.0000      -0.497211       -13.5298
  50   2.0000      -0.486480       -13.2378
  51   2.0000      -0.480962       -13.0877
  52   2.0000      -0.474844       -12.9212
  53   2.0000      -0.466351       -12.6900
  54   2.0000      -0.457430       -12.4473
  55   2.0000      -0.454408       -12.3651
  56   2.0000      -0.443151       -12.0588
  57   2.0000      -0.432641       -11.7728
  58   2.0000      -0.431779       -11.7493
  59   2.0000      -0.423355       -11.5201
  60   2.0000      -0.419882       -11.4256
  61   2.0000      -0.409580       -11.1452
  62   2.0000      -0.406121       -11.0511
  63   2.0000      -0.346359        -9.4249
  64   2.0000      -0.332388        -9.0447
  65   2.0000      -0.328925        -8.9505
  66   2.0000      -0.291178        -7.9234
  67   0.0000       0.028490         0.7753
  68   0.0000       0.064803         1.7634
  69   0.0000       0.105130         2.8607
  70   0.0000       0.113303         3.0831
  71   0.0000       0.127550         3.4708

MULLIKEN ATOMIC CHARGES
-----------------------
   0 S :    0.107087
   1 C :   -0.124200
   2 C :   -0.084680
   3 C :   -0.012240
   4 C :   -0.149955
   5 H :    0.049266
   6 C :    0.051355
   7 H :    0.039282
   8 H :    0.021524
   9 C :   -0.085440
  10 H :    0.016848
  11 H :    0.027168
  12 C :   -0.034946
  13 H :    0.021117
  14 H :    0.040303
  15 H :    0.034248
  16 S :    0.102712
  17 C :   -0.101272
  18 C :   -0.073654
  19 C :   -0.021608
  20 C :   -0.152348
  21 H :    0.040390
  22 C :    0.054273
  23 H :    0.039825
  24 H :    0.010327
  25 C :   -0.064521
  26 H :    0.037163
  27 H :    0.028177
  28 C :   -0.014939
  29 H :    0.006955
  30 H :    0.025625
  31 H :    0.042538
  32 H :    0.054895
  33 H :    0.068722
Sum of atomic charges:    0.0000000

LOEWDIN ATOMIC CHARGES
----------------------
   0 S :    0.394985
   1 C :   -0.200304
   2 C :   -0.063387
   3 C :   -0.081220
   4 C :   -0.187317
   5 H :    0.043663
   6 C :   -0.031245
   7 H :    0.037755
   8 H :    0.028209
   9 C :   -0.046852
  10 H :    0.017089
  11 H :    0.023575
  12 C :   -0.065096
  13 H :    0.020971
  14 H :    0.027324
  15 H :    0.031135
  16 S :    0.405442
  17 C :   -0.199872
  18 C :   -0.085485
  19 C :   -0.051484
  20 C :   -0.194004
  21 H :    0.040467
  22 C :   -0.032965
  23 H :    0.035365
  24 H :    0.024941
  25 C :   -0.035472
  26 H :    0.025209
  27 H :    0.028242
  28 C :   -0.061447
  29 H :    0.013418
  30 H :    0.023363
  31 H :    0.036395
  32 H :    0.037187
  33 H :    0.041413

  Mayer bond orders larger than 0.100000
B(  0-S ,  1-C ) :   1.1102 B(  0-S ,  4-C ) :   1.1503 B(  1-C ,  2-C ) :   1.6512
B(  1-C , 32-H ) :   0.9614 B(  2-C ,  3-C ) :   1.2039 B(  2-C ,  6-C ) :   1.0306
B(  3-C ,  4-C ) :   1.5919 B(  3-C ,  5-H ) :   0.9786 B(  4-C , 20-C ) :   1.0440
B(  6-C ,  7-H ) :   0.9354 B(  6-C ,  8-H ) :   0.9424 B(  6-C ,  9-C ) :   1.0574
B(  9-C , 10-H ) :   0.9587 B(  9-C , 11-H ) :   0.9648 B(  9-C , 12-C ) :   1.0581
B( 12-C , 13-H ) :   0.9771 B( 12-C , 14-H ) :   0.9766 B( 12-C , 15-H ) :   0.9838
B( 16-S , 17-C ) :   1.1537 B( 16-S , 20-C ) :   1.1317 B( 17-C , 18-C ) :   1.6270
B( 17-C , 33-H ) :   0.9608 B( 18-C , 19-C ) :   1.2406 B( 18-C , 21-H ) :   0.9760
B( 19-C , 20-C ) :   1.5738 B( 19-C , 22-C ) :   1.0283 B( 22-C , 23-H ) :   0.9454
B( 22-C , 24-H ) :   0.9367 B( 22-C , 25-C ) :   1.0573 B( 25-C , 26-H ) :   0.9609
B( 25-C , 27-H ) :   0.9564 B( 25-C , 28-C ) :   1.0690 B( 28-C , 29-H ) :   0.9750
B( 28-C , 30-H ) :   0.9746 B( 28-C , 31-H ) :   0.9742

Dispersion correction           -0.014160363
FINAL SINGLE POINT ENERGY     -1339.869038224133

DIPOLE MOMENT
-------------
                                X             Y             Z
Electronic contribution:      1.29623     -12.55558     -16.98173
Nuclear contribution   :     -1.08824      12.75286      17.25604
                        -----------------------------------------
Total Dipole Moment    :      0.20799       0.19728       0.27431
                        -----------------------------------------
Magnitude (a.u.)       :      0.39677
Magnitude (Debye)      :      1.00852

Rotational constants in cm-1:     0.019146     0.007578     0.007096
Rotational constants in MHz :   573.987756   227.190647   212.722387

                             ****ORCA TERMINATED NORMALLY****
TOTAL RUN TIME: 0 days 0 hours 0 minutes 27 seconds 653 msec
