                         Program Version 4.2.1 -  RELEASE  -
|  1> ! wB97X-D3 SP def2-SVP
|  2> %pal
|  3> nprocs 16
|  4> end
|  5>
|  6> * xyz 0 1
|  7> S 	 -43.421 	 41.7788 	 80.2647
|  8> C 	 -42.8008 	 40.3597 	 79.4308
|  9> C 	 -42.8277 	 39.2442 	 80.2696
| 10> C 	 -43.5437 	 39.527 	 81.4682
| 11> C 	 -43.9819 	 40.8235 	 81.6001
| 12> H 	 -43.7213 	 38.8187 	 82.3114
| 13> C 	 -42.295 	 37.8746 	 79.9643
| 14> H 	 -41.8082 	 37.497 	 80.8343
| 15> H 	 -41.4411 	 37.9695 	 79.3623
| 16> C 	 -43.2919 	 36.8012 	 79.5201
| 17> H 	 -42.6928 	 35.9077 	 79.4765
| 18> H 	 -44.0326 	 36.5521 	 80.2293
| 19> C 	 -43.7934 	 37.0914 	 78.0789
| 20> H 	 -44.512 	 37.9066 	 78.1143
| 21> H 	 -42.9778 	 37.3744 	 77.3911
| 22> H 	 -44.2649 	 36.2252 	 77.7126
| 23> S 	 -46.2511 	 42.279 	 82.2087
| 24> C 	 -46.7408 	 42.4956 	 83.8175
| 25> C 	 -45.8976 	 41.8686 	 84.7097
| 26> C 	 -44.7606 	 41.2546 	 84.0289
| 27> C 	 -44.789 	 41.411 	 82.6393
| 28> H 	 -46.1728 	 41.9435 	 85.7607
| 29> C 	 -43.6039 	 40.5932 	 84.7959
| 30> H 	 -43.3946 	 39.6685 	 84.2017
| 31> H 	 -43.9338 	 40.2525 	 85.7157
| 32> C 	 -42.3599 	 41.5148 	 85.0264
| 33> H 	 -41.8564 	 41.7456 	 84.1083
| 34> H 	 -41.7365 	 41.0649 	 85.8287
| 35> C 	 -42.7884 	 42.8185 	 85.6113
| 36> H 	 -43.3526 	 42.7411 	 86.5839
| 37> H 	 -43.2782 	 43.5267 	 84.8863
| 38> H 	 -41.8579 	 43.2365 	 85.9071
| 39> H 	 -42.2702 	 40.264 	 78.4951
| 40> H 	 -47.6802 	 42.8487 	 84.206
| 41> *
| 42>
| 43>                          ****END OF INPUT****

CARTESIAN COORDINATES (ANGSTROEM)
---------------------------------
  S    -43.421000   41.778800   80.264700
  C    -42.800800   40.359700   79.430800
  C    -42.827700   39.244200   80.269600
  C    -43.543700   39.527000   81.468200
  C    -43.981900   40.823500   81.600100
  H    -43.721300   38.818700   82.311400
  C    -42.295000   37.874600   79.964300
  H    -41.808200   37.497000   80.834300
  H    -41.441100   37.969500   79.362300
  C    -43.291900   36.801200   79.520100
  H    -42.692800   35.907700   79.476500
  H    -44.032600   36.552100   80.229300
  C    -43.793400   37.091400   78.078900
  H    -44.512000   37.906600   78.114300
  H    -42.977800   37.374400   77.391100
  H    -44.264900   36.225200   77.712600
  S    -46.251100   42.279000   82.208700
  C    -46.740800   42.495600   83.817500
  C    -45.897600   41.868600   84.709700
  C    -44.760600   41.254600   84.028900
  C    -44.789000   41.411000   82.639300
  H    -46.172800   41.943500   85.760700
  C    -43.603900   40.593200   84.795900
  H    -43.394600   39.668500   84.201700
  H    -43.933800   40.252500   85.715700
  C    -42.359900   41.514800   85.026400
  H    -41.856400   41.745600   84.108300
  H    -41.736500   41.064900   85.828700
  C    -42.788400   42.818500   85.611300
  H    -43.352600   42.741100   86.583900
  H    -43.278200   43.526700   84.886300
  H    -41.857900   43.236500   85.907100
  H    -42.270200   40.264000   78.495100
  H    -47.680200   42.848700   84.206000

 Total Charge           Charge          ....    0
 Multiplicity           Mult            ....    1
 Number of Electrons    NEL             ....  134
 Basis Dimension        Dim             ....  322

ORBITAL ENERGIES
----------------

  NO   OCC          E(Eh)            E(eV)
   0   2.0000     -88.967177     -2420.9200
   1   2.0000     -88.964887     -2420.8577
   2   2.0000     -10.327224      -281.0181
   3   2.0000     -10.325843      -280.9805
   4   2.0000     -10.313831      -280.6536
   5   2.0000     -10.311526      -280.5909
   6   2.0000     -10.307815      -280.4899
   7   2.0000     -10.299338      -280.2592
   8   2.0000     -10.294300      -280.1222
   9   2.0000     -10.293555      -280.1019
  10   2.0000     -10.286611      -279.9129
  11   2.0000     -10.284178      -279.8467
  12   2.0000     -10.283437      -279.8265
  13   2.0000     -10.283084      -279.8169
  14   2.0000     -10.272920      -279.5404
  15   2.0000     -10.271872      -279.5118
  16   2.0000      -8.081823      -219.9176
  17   2.0000      -8.080427      -219.8796
  18   2.0000      -6.040396      -164.3675
  19   2.0000      -6.038868      -164.3260
  20   2.0000      -6.036336      -164.2571
  21   2.0000      -6.034666      -164.2116
  22   2.0000      -6.032520      -164.1532
  23   2.0000      -6.031344      -164.1212
  24   2.0000      -1.008959       -27.4552
  25   2.0000      -0.985734       -26.8232
  26   2.0000      -0.914979       -24.8978
  27   2.0000      -0.909307       -24.7435
  28   2.0000      -0.871023       -23.7018
  29   2.0000      -0.850043       -23.1308
  30   2.0000      -0.842144       -22.9159
  31   2.0000      -0.814721       -22.1697
  32   2.0000      -0.786832       -21.4108
  33   2.0000      -0.774018       -21.0621
  34   2.0000      -0.713626       -19.4187
  35   2.0000      -0.701012       -19.0755
  36   2.0000      -0.683580       -18.6012
  37   2.0000      -0.658997       -17.9322
  38   2.0000      -0.638793       -17.3824
  39   2.0000      -0.619385       -16.8543
  40   2.0000      -0.588682       -16.0188
  41   2.0000      -0.574429       -15.6310
  42   2.0000      -0.556550       -15.1445
  43   2.0000      -0.552133       -15.0243
  44   2.0000      -0.544016       -14.8034
  45   2.0000      -0.538825       -14.6622
  46   2.0000      -0.521724       -14.1968
  47   2.0000      -0.511220       -13.9110
  48   2.0000      -0.506847       -13.7920
  49   2.0000      -0.490381       -13.3439
  50   2.0000      -0.485086       -13.1999
  51   2.0000      -0.476757       -12.9732
  52   2.0000      -0.471607       -12.8331
  53   2.0000      -0.469137       -12.7659
  54   2.0000      -0.460812       -12.5393
  55   2.0000      -0.450872       -12.2689
  56   2.0000      -0.441606       -12.0167
  57   2.0000      -0.436400       -11.8751
  58   2.0000      -0.424121       -11.5409
  59   2.0000      -0.421401       -11.4669
  60   2.0000      -0.419786       -11.4230
  61   2.0000      -0.414203       -11.2710
  62   2.0000      -0.412689       -11.2298
  63   2.0000      -0.349305        -9.5051
  64   2.0000      -0.330237        -8.9862
  65   2.0000      -0.327748        -8.9185
  66   2.0000      -0.291295        -7.9266
  67   0.0000       0.029903         0.8137
  68   0.0000       0.072740         1.9793
  69   0.0000       0.108455         2.9512
  70   0.0000       0.122514         3.3338
  71   0.0000       0.142605         3.8805

MULLIKEN ATOMIC CHARGES
-----------------------
   0 S :    0.116901
   1 C :   -0.104311
   2 C :   -0.112439
   3 C :    0.014222
   4 C :   -0.162585
   5 H :    0.028442
   6 C :    0.089807
   7 H :    0.006394
   8 H :    0.000834
   9 C :   -0.036489
  10 H :    0.016724
  11 H :    0.024192
  12 C :   -0.039026
  13 H :    0.042832
  14 H :    0.028006
  15 H :    0.024417
  16 S :    0.121219
  17 C :   -0.077822
  18 C :   -0.057676
  19 C :   -0.081298
  20 C :   -0.138828
  21 H :    0.023429
  22 C :    0.124477
  23 H :    0.012033
  24 H :   -0.009045
  25 C :   -0.050685
  26 H :    0.039124
  27 H :    0.036382
  28 C :   -0.073663
  29 H :    0.027397
  30 H :    0.059283
  31 H :    0.016266
  32 H :    0.040137
  33 H :    0.051349
Sum of atomic charges:    0.0000000

LOEWDIN ATOMIC CHARGES
----------------------
   0 S :    0.410998
   1 C :   -0.200924
   2 C :   -0.061083
   3 C :   -0.066836
   4 C :   -0.200023
   5 H :    0.035233
   6 C :   -0.032344
   7 H :    0.030324
   8 H :    0.023807
   9 C :   -0.028135
  10 H :    0.023244
  11 H :    0.020324
  12 C :   -0.059183
  13 H :    0.026871
  14 H :    0.026991
  15 H :    0.018372
  16 S :    0.431113
  17 C :   -0.203906
  18 C :   -0.076875
  19 C :   -0.048691
  20 C :   -0.211387
  21 H :    0.033922
  22 C :   -0.030024
  23 H :    0.029658
  24 H :    0.015462
  25 C :   -0.032709
  26 H :    0.026655
  27 H :    0.031165
  28 C :   -0.072954
  29 H :    0.025919
  30 H :    0.033536
  31 H :    0.020210
  32 H :    0.029183
  33 H :    0.032090

  Mayer bond orders larger than 0.100000
B(  0-S ,  1-C ) :   1.1315 B(  0-S ,  4-C ) :   1.1519 B(  1-C ,  2-C ) :   1.6056
B(  1-C , 32-H ) :   0.9662 B(  2-C ,  3-C ) :   1.2444 B(  2-C ,  6-C ) :   1.0344
B(  3-C ,  4-C ) :   1.5843 B(  3-C ,  5-H ) :   0.9803 B(  4-C , 20-C ) :   1.0435
B(  6-C ,  7-H ) :   0.9263 B(  6-C ,  8-H ) :   0.9329 B(  6-C ,  9-C ) :   1.0809
B(  9-C , 10-H ) :   0.9507 B(  9-C , 11-H ) :   0.9569 B(  9-C , 12-C ) :   1.0709
B( 12-C , 13-H ) :   0.9781 B( 12-C , 14-H ) :   0.9754 B( 12-C , 15-H ) :   0.9752
B( 16-S , 17-C ) :   1.1720 B( 16-S , 20-C ) :   1.1409 B( 17-C , 18-C ) :   1.6141
B( 17-C , 33-H ) :   0.9626 B( 18-C , 19-C ) :   1.2335 B( 18-C , 21-H ) :   0.9923
B( 19-C , 20-C ) :   1.5764 B( 19-C , 22-C ) :   1.0436 B( 22-C , 23-H ) :   0.9315
B( 22-C , 24-H ) :   0.9266 B( 22-C , 25-C ) :   1.0692 B( 25-C , 26-H ) :   0.9547
B( 25-C , 27-H ) :   0.9587 B( 25-C , 28-C ) :   1.0865 B( 28-C , 29-H ) :   0.9722
B( 28-C , 30-H ) :   0.9666 B( 28-C , 31-H ) :   0.9705

Dispersion correction           -0.014996869
FINAL SINGLE POINT ENERGY     -1339.874082471762

DIPOLE MOMENT
-------------
                                X             Y             Z
Electronic contribution:    -10.95556      15.14418      -5.00019
Nuclear contribution   :     11.20138     -15.70848       5.40451
                        -----------------------------------------
Total Dipole Moment    :      0.24582      -0.56430       0.40432
                        -----------------------------------------
Magnitude (a.u.)       :      0.73643
Magnitude (Debye)      :      1.87186

Rotational constants in cm-1:     0.022355     0.007954     0.007183
Rotational constants in MHz :   670.176842   238.453866   215.339251

                             ****ORCA TERMINATED NORMALLY****
TOTAL RUN TIME: 0 days 0 hours 0 minutes 30 seconds 441 msec
