                         Program Version 4.2.1 -  RELEASE  -
|  1> ! wB97X-D3 SP def2-SVP
|  2> %pal
|  3> nprocs 16
|  4> end
|  5>
|  6> * xyz 0 1
|  7> S 	 -48.7562 	 66.5055 	 126.254
|  8> C 	 -47.0774 	 66.9356 	 126.068
|  9> C 	 -46.2461 	 65.986 	 126.643
| 10> C 	 -46.9329 	 64.9576 	 127.34
| 11> C 	 -48.2737 	 65.1902 	 127.324
| 12> H 	 -46.4797 	 64.2191 	 127.93
| 13> C 	 -44.7371 	 66.1006 	 126.541
| 14> H 	 -44.2398 	 65.169 	 126.855
| 15> H 	 -44.4516 	 66.9772 	 127.126
| 16> C 	 -44.09 	 66.3781 	 125.122
| 17> H 	 -44.5849 	 65.615 	 124.513
| 18> H 	 -44.2487 	 67.3899 	 124.821
| 19> C 	 -42.6596 	 66.1692 	 124.929
| 20> H 	 -42.0591 	 67.0033 	 125.331
| 21> H 	 -42.2963 	 65.3052 	 125.436
| 22> H 	 -42.5993 	 66.1303 	 123.905
| 23> S 	 -50.0164 	 65.4423 	 129.397
| 24> C 	 -50.9224 	 64.0964 	 129.945
| 25> C 	 -50.532 	 62.9087 	 129.253
| 26> C 	 -49.4759 	 63.1617 	 128.263
| 27> C 	 -49.2327 	 64.5196 	 128.146
| 28> H 	 -51.0983 	 62.0079 	 129.318
| 29> C 	 -48.9003 	 62.0736 	 127.394
| 30> H 	 -47.7965 	 62.2463 	 127.483
| 31> H 	 -49.0823 	 62.4017 	 126.342
| 32> C 	 -49.3173 	 60.6332 	 127.757
| 33> H 	 -50.4458 	 60.5461 	 127.72
| 34> H 	 -49.0491 	 60.5844 	 128.782
| 35> C 	 -48.6755 	 59.4303 	 127.019
| 36> H 	 -47.6351 	 59.4315 	 127.187
| 37> H 	 -48.6185 	 59.4998 	 125.944
| 38> H 	 -49.0352 	 58.4533 	 127.337
| 39> H 	 -46.625 	 67.7924 	 125.498
| 40> H 	 -51.8145 	 64.12 	 130.54
| 41> *
| 42>
| 43>                          ****END OF INPUT****

CARTESIAN COORDINATES (ANGSTROEM)
---------------------------------
  S    -48.756200   66.505500  126.254000
  C    -47.077400   66.935600  126.068000
  C    -46.246100   65.986000  126.643000
  C    -46.932900   64.957600  127.340000
  C    -48.273700   65.190200  127.324000
  H    -46.479700   64.219100  127.930000
  C    -44.737100   66.100600  126.541000
  H    -44.239800   65.169000  126.855000
  H    -44.451600   66.977200  127.126000
  C    -44.090000   66.378100  125.122000
  H    -44.584900   65.615000  124.513000
  H    -44.248700   67.389900  124.821000
  C    -42.659600   66.169200  124.929000
  H    -42.059100   67.003300  125.331000
  H    -42.296300   65.305200  125.436000
  H    -42.599300   66.130300  123.905000
  S    -50.016400   65.442300  129.397000
  C    -50.922400   64.096400  129.945000
  C    -50.532000   62.908700  129.253000
  C    -49.475900   63.161700  128.263000
  C    -49.232700   64.519600  128.146000
  H    -51.098300   62.007900  129.318000
  C    -48.900300   62.073600  127.394000
  H    -47.796500   62.246300  127.483000
  H    -49.082300   62.401700  126.342000
  C    -49.317300   60.633200  127.757000
  H    -50.445800   60.546100  127.720000
  H    -49.049100   60.584400  128.782000
  C    -48.675500   59.430300  127.019000
  H    -47.635100   59.431500  127.187000
  H    -48.618500   59.499800  125.944000
  H    -49.035200   58.453300  127.337000
  H    -46.625000   67.792400  125.498000
  H    -51.814500   64.120000  130.540000

 Total Charge           Charge          ....    0
 Multiplicity           Mult            ....    1
 Number of Electrons    NEL             ....  134
 Basis Dimension        Dim             ....  322

ORBITAL ENERGIES
----------------

  NO   OCC          E(Eh)            E(eV)
   0   2.0000     -88.968667     -2420.9605
   1   2.0000     -88.964369     -2420.8436
   2   2.0000     -10.323564      -280.9184
   3   2.0000     -10.316680      -280.7311
   4   2.0000     -10.314887      -280.6824
   5   2.0000     -10.313960      -280.6571
   6   2.0000     -10.304533      -280.4006
   7   2.0000     -10.298551      -280.2378
   8   2.0000     -10.298483      -280.2360
   9   2.0000     -10.295649      -280.1589
  10   2.0000     -10.294652      -280.1317
  11   2.0000     -10.292123      -280.0629
  12   2.0000     -10.290438      -280.0170
  13   2.0000     -10.280234      -279.7394
  14   2.0000     -10.277512      -279.6653
  15   2.0000     -10.267361      -279.3891
  16   2.0000      -8.083143      -219.9535
  17   2.0000      -8.079616      -219.8575
  18   2.0000      -6.041558      -164.3991
  19   2.0000      -6.038093      -164.3049
  20   2.0000      -6.037813      -164.2972
  21   2.0000      -6.033892      -164.1905
  22   2.0000      -6.033884      -164.1903
  23   2.0000      -6.030544      -164.0994
  24   2.0000      -1.008896       -27.4535
  25   2.0000      -0.982208       -26.7272
  26   2.0000      -0.915447       -24.9106
  27   2.0000      -0.908095       -24.7105
  28   2.0000      -0.873347       -23.7650
  29   2.0000      -0.859700       -23.3936
  30   2.0000      -0.847450       -23.0603
  31   2.0000      -0.814924       -22.1752
  32   2.0000      -0.785433       -21.3727
  33   2.0000      -0.768824       -20.9208
  34   2.0000      -0.713760       -19.4224
  35   2.0000      -0.699760       -19.0414
  36   2.0000      -0.690979       -18.8025
  37   2.0000      -0.652833       -17.7645
  38   2.0000      -0.638669       -17.3791
  39   2.0000      -0.618065       -16.8184
  40   2.0000      -0.591368       -16.0919
  41   2.0000      -0.584346       -15.9009
  42   2.0000      -0.565064       -15.3762
  43   2.0000      -0.561599       -15.2819
  44   2.0000      -0.536645       -14.6029
  45   2.0000      -0.533016       -14.5041
  46   2.0000      -0.519141       -14.1265
  47   2.0000      -0.514022       -13.9872
  48   2.0000      -0.504630       -13.7317
  49   2.0000      -0.498764       -13.5721
  50   2.0000      -0.486648       -13.2424
  51   2.0000      -0.482872       -13.1396
  52   2.0000      -0.478968       -13.0334
  53   2.0000      -0.461508       -12.5583
  54   2.0000      -0.459911       -12.5148
  55   2.0000      -0.457204       -12.4411
  56   2.0000      -0.448622       -12.2076
  57   2.0000      -0.432212       -11.7611
  58   2.0000      -0.430956       -11.7269
  59   2.0000      -0.425793       -11.5864
  60   2.0000      -0.424757       -11.5582
  61   2.0000      -0.417480       -11.3602
  62   2.0000      -0.405292       -11.0286
  63   2.0000      -0.343701        -9.3526
  64   2.0000      -0.324897        -8.8409
  65   2.0000      -0.323141        -8.7931
  66   2.0000      -0.293207        -7.9786
  67   0.0000       0.029085         0.7914
  68   0.0000       0.068776         1.8715
  69   0.0000       0.114687         3.1208
  70   0.0000       0.119558         3.2533
  71   0.0000       0.132912         3.6167

MULLIKEN ATOMIC CHARGES
-----------------------
   0 S :    0.129748
   1 C :   -0.135561
   2 C :   -0.086970
   3 C :    0.063336
   4 C :   -0.188896
   5 H :    0.002422
   6 C :    0.056460
   7 H :    0.016060
   8 H :    0.040978
   9 C :   -0.117482
  10 H :    0.030443
  11 H :    0.021026
  12 C :    0.014803
  13 H :    0.025248
  14 H :    0.014386
  15 H :    0.024112
  16 S :    0.130492
  17 C :   -0.080824
  18 C :   -0.061519
  19 C :   -0.061745
  20 C :   -0.159154
  21 H :    0.015937
  22 C :    0.066058
  23 H :    0.023213
  24 H :    0.045534
  25 C :   -0.101676
  26 H :    0.046439
  27 H :    0.030163
  28 C :    0.012440
  29 H :    0.004728
  30 H :    0.022540
  31 H :    0.038165
  32 H :    0.062982
  33 H :    0.056116
Sum of atomic charges:   -0.0000000

LOEWDIN ATOMIC CHARGES
----------------------
   0 S :    0.408031
   1 C :   -0.210657
   2 C :   -0.065429
   3 C :   -0.048849
   4 C :   -0.189866
   5 H :    0.026599
   6 C :   -0.036608
   7 H :    0.027065
   8 H :    0.034073
   9 C :   -0.041707
  10 H :    0.025530
  11 H :    0.017816
  12 C :   -0.053375
  13 H :    0.026515
  14 H :    0.019005
  15 H :    0.023303
  16 S :    0.433401
  17 C :   -0.203755
  18 C :   -0.072687
  19 C :   -0.050248
  20 C :   -0.218578
  21 H :    0.023778
  22 C :   -0.041302
  23 H :    0.035947
  24 H :    0.039190
  25 C :   -0.041880
  26 H :    0.029816
  27 H :    0.023778
  28 C :   -0.063946
  29 H :    0.020552
  30 H :    0.026070
  31 H :    0.030665
  32 H :    0.039898
  33 H :    0.027856

  Mayer bond orders larger than 0.100000
B(  0-S ,  1-C ) :   1.1270 B(  0-S ,  4-C ) :   1.1536 B(  1-C ,  2-C ) :   1.6156
B(  1-C , 32-H ) :   0.9628 B(  2-C ,  3-C ) :   1.2469 B(  2-C ,  6-C ) :   1.0277
B(  3-C ,  4-C ) :   1.5719 B(  3-C ,  5-H ) :   0.9986 B(  4-C , 20-C ) :   1.0362
B(  6-C ,  7-H ) :   0.9458 B(  6-C ,  8-H ) :   0.9345 B(  6-C ,  9-C ) :   1.0632
B(  9-C , 10-H ) :   0.9642 B(  9-C , 11-H ) :   0.9489 B(  9-C , 12-C ) :   1.0993
B( 12-C , 13-H ) :   0.9710 B( 12-C , 14-H ) :   0.9682 B( 12-C , 15-H ) :   0.9710
B( 16-S , 17-C ) :   1.1746 B( 16-S , 20-C ) :   1.1509 B( 17-C , 18-C ) :   1.5800
B( 17-C , 20-C ) :   0.1021 B( 17-C , 33-H ) :   0.9648 B( 18-C , 19-C ) :   1.2503
B( 18-C , 21-H ) :   0.9852 B( 19-C , 20-C ) :   1.5889 B( 19-C , 22-C ) :   1.0358
B( 22-C , 23-H ) :   0.9215 B( 22-C , 24-H ) :   0.9232 B( 22-C , 25-C ) :   1.0747
B( 25-C , 26-H ) :   0.9504 B( 25-C , 27-H ) :   0.9510 B( 25-C , 28-C ) :   1.0797
B( 28-C , 29-H ) :   0.9667 B( 28-C , 30-H ) :   0.9732 B( 28-C , 31-H ) :   0.9737

Dispersion correction           -0.013363309
FINAL SINGLE POINT ENERGY     -1339.855996092055

DIPOLE MOMENT
-------------
                                X             Y             Z
Electronic contribution:    -20.60489      16.46382       9.86218
Nuclear contribution   :     21.08747     -16.85777     -10.04970
                        -----------------------------------------
Total Dipole Moment    :      0.48257      -0.39395      -0.18752
                        -----------------------------------------
Magnitude (a.u.)       :      0.65057
Magnitude (Debye)      :      1.65362

Rotational constants in cm-1:     0.018298     0.007604     0.005868
Rotational constants in MHz :   548.552497   227.952133   175.917251

                             ****ORCA TERMINATED NORMALLY****
TOTAL RUN TIME: 0 days 0 hours 0 minutes 33 seconds 201 msec
