                         Program Version 4.2.1 -  RELEASE  -
|  1> ! wB97X-D3 SP def2-SVP
|  2> %pal
|  3> nprocs 16
|  4> end
|  5>
|  6> * xyz 0 1
|  7> S 	 -41.8792 	 28.4099 	 76.8788
|  8> C 	 -41.3798 	 29.6304 	 78.0754
|  9> C 	 -40.3335 	 29.1619 	 78.8565
| 10> C 	 -39.9208 	 27.8583 	 78.5643
| 11> C 	 -40.5847 	 27.3084 	 77.4887
| 12> H 	 -39.1513 	 27.2811 	 79.0977
| 13> C 	 -39.783 	 29.9032 	 80.0798
| 14> H 	 -39.6803 	 29.3522 	 80.9203
| 15> H 	 -40.6094 	 30.5005 	 80.4755
| 16> C 	 -38.5346 	 30.7454 	 79.937
| 17> H 	 -37.8865 	 30.3215 	 79.2269
| 18> H 	 -38.9205 	 31.695 	 79.5316
| 19> C 	 -37.6616 	 30.9048 	 81.2037
| 20> H 	 -37.4126 	 29.8816 	 81.4413
| 21> H 	 -36.7774 	 31.4735 	 81
| 22> H 	 -38.2109 	 31.4957 	 82.0062
| 23> S 	 -41.9305 	 24.9986 	 76.4915
| 24> C 	 -40.9954 	 23.6479 	 75.9663
| 25> C 	 -39.7133 	 23.8455 	 76.2427
| 26> C 	 -39.4064 	 25.093 	 76.8686
| 27> C 	 -40.5212 	 25.9079 	 77.0514
| 28> H 	 -38.9821 	 23.0517 	 75.9341
| 29> C 	 -37.9614 	 25.458 	 77.064
| 30> H 	 -37.5541 	 24.7471 	 77.8423
| 31> H 	 -37.8435 	 26.4539 	 77.5649
| 32> C 	 -36.9168 	 25.2524 	 75.9431
| 33> H 	 -36.929 	 24.2825 	 75.544
| 34> H 	 -35.8544 	 25.3001 	 76.2285
| 35> C 	 -37.0516 	 26.2846 	 74.838
| 36> H 	 -36.1514 	 26.2117 	 74.2534
| 37> H 	 -37.0436 	 27.3089 	 75.1431
| 38> H 	 -37.9657 	 26.1052 	 74.2547
| 39> H 	 -41.9509 	 30.5554 	 78.1719
| 40> H 	 -41.3361 	 22.8382 	 75.3522
| 41> *
| 42>
| 43>                          ****END OF INPUT****

CARTESIAN COORDINATES (ANGSTROEM)
---------------------------------
  S    -41.879200   28.409900   76.878800
  C    -41.379800   29.630400   78.075400
  C    -40.333500   29.161900   78.856500
  C    -39.920800   27.858300   78.564300
  C    -40.584700   27.308400   77.488700
  H    -39.151300   27.281100   79.097700
  C    -39.783000   29.903200   80.079800
  H    -39.680300   29.352200   80.920300
  H    -40.609400   30.500500   80.475500
  C    -38.534600   30.745400   79.937000
  H    -37.886500   30.321500   79.226900
  H    -38.920500   31.695000   79.531600
  C    -37.661600   30.904800   81.203700
  H    -37.412600   29.881600   81.441300
  H    -36.777400   31.473500   81.000000
  H    -38.210900   31.495700   82.006200
  S    -41.930500   24.998600   76.491500
  C    -40.995400   23.647900   75.966300
  C    -39.713300   23.845500   76.242700
  C    -39.406400   25.093000   76.868600
  C    -40.521200   25.907900   77.051400
  H    -38.982100   23.051700   75.934100
  C    -37.961400   25.458000   77.064000
  H    -37.554100   24.747100   77.842300
  H    -37.843500   26.453900   77.564900
  C    -36.916800   25.252400   75.943100
  H    -36.929000   24.282500   75.544000
  H    -35.854400   25.300100   76.228500
  C    -37.051600   26.284600   74.838000
  H    -36.151400   26.211700   74.253400
  H    -37.043600   27.308900   75.143100
  H    -37.965700   26.105200   74.254700
  H    -41.950900   30.555400   78.171900
  H    -41.336100   22.838200   75.352200

 Total Charge           Charge          ....    0
 Multiplicity           Mult            ....    1
 Number of Electrons    NEL             ....  134
 Basis Dimension        Dim             ....  322

ORBITAL ENERGIES
----------------

  NO   OCC          E(Eh)            E(eV)
   0   2.0000     -88.969111     -2420.9726
   1   2.0000     -88.962653     -2420.7969
   2   2.0000     -10.336852      -281.2800
   3   2.0000     -10.330964      -281.1198
   4   2.0000     -10.321587      -280.8647
   5   2.0000     -10.310191      -280.5546
   6   2.0000     -10.304502      -280.3998
   7   2.0000     -10.304497      -280.3996
   8   2.0000     -10.296745      -280.1887
   9   2.0000     -10.296724      -280.1881
  10   2.0000     -10.290437      -280.0170
  11   2.0000     -10.283584      -279.8305
  12   2.0000     -10.283520      -279.8288
  13   2.0000     -10.280357      -279.7427
  14   2.0000     -10.279976      -279.7324
  15   2.0000     -10.266058      -279.3536
  16   2.0000      -8.082561      -219.9377
  17   2.0000      -8.077761      -219.8070
  18   2.0000      -6.041112      -164.3870
  19   2.0000      -6.037363      -164.2850
  20   2.0000      -6.036422      -164.2594
  21   2.0000      -6.033237      -164.1727
  22   2.0000      -6.032193      -164.1443
  23   2.0000      -6.028339      -164.0394
  24   2.0000      -1.007316       -27.4105
  25   2.0000      -0.985664       -26.8213
  26   2.0000      -0.913041       -24.8451
  27   2.0000      -0.908471       -24.7208
  28   2.0000      -0.872643       -23.7458
  29   2.0000      -0.853679       -23.2298
  30   2.0000      -0.845297       -23.0017
  31   2.0000      -0.819459       -22.2986
  32   2.0000      -0.784181       -21.3387
  33   2.0000      -0.772946       -21.0329
  34   2.0000      -0.708979       -19.2923
  35   2.0000      -0.700880       -19.0719
  36   2.0000      -0.699099       -19.0235
  37   2.0000      -0.655032       -17.8243
  38   2.0000      -0.643216       -17.5028
  39   2.0000      -0.624617       -16.9967
  40   2.0000      -0.600811       -16.3489
  41   2.0000      -0.573473       -15.6050
  42   2.0000      -0.565461       -15.3870
  43   2.0000      -0.553084       -15.0502
  44   2.0000      -0.533736       -14.5237
  45   2.0000      -0.524780       -14.2800
  46   2.0000      -0.522092       -14.2069
  47   2.0000      -0.510925       -13.9030
  48   2.0000      -0.509132       -13.8542
  49   2.0000      -0.498761       -13.5720
  50   2.0000      -0.493745       -13.4355
  51   2.0000      -0.479258       -13.0413
  52   2.0000      -0.474894       -12.9225
  53   2.0000      -0.464958       -12.6521
  54   2.0000      -0.463441       -12.6109
  55   2.0000      -0.451305       -12.2806
  56   2.0000      -0.442916       -12.0523
  57   2.0000      -0.433647       -11.8001
  58   2.0000      -0.427505       -11.6330
  59   2.0000      -0.422498       -11.4968
  60   2.0000      -0.420191       -11.4340
  61   2.0000      -0.410547       -11.1715
  62   2.0000      -0.405539       -11.0353
  63   2.0000      -0.358591        -9.7578
  64   2.0000      -0.337044        -9.1714
  65   2.0000      -0.327636        -8.9154
  66   2.0000      -0.288035        -7.8378
  67   0.0000       0.020314         0.5528
  68   0.0000       0.079267         2.1570
  69   0.0000       0.106916         2.9093
  70   0.0000       0.124747         3.3945
  71   0.0000       0.130499         3.5510

MULLIKEN ATOMIC CHARGES
-----------------------
   0 S :    0.094583
   1 C :   -0.136221
   2 C :   -0.050549
   3 C :    0.008523
   4 C :   -0.138073
   5 H :    0.033681
   6 C :    0.096577
   7 H :   -0.021238
   8 H :    0.007162
   9 C :   -0.060541
  10 H :    0.017310
  11 H :    0.025878
  12 C :   -0.058325
  13 H :    0.034867
  14 H :    0.035942
  15 H :    0.043274
  16 S :    0.092218
  17 C :   -0.078042
  18 C :   -0.054570
  19 C :   -0.024709
  20 C :   -0.129007
  21 H :    0.036071
  22 C :    0.026669
  23 H :    0.036815
  24 H :    0.022099
  25 C :   -0.049897
  26 H :    0.005837
  27 H :    0.019715
  28 C :   -0.034925
  29 H :    0.018980
  30 H :    0.021857
  31 H :    0.043750
  32 H :    0.060868
  33 H :    0.053422
Sum of atomic charges:   -0.0000000

LOEWDIN ATOMIC CHARGES
----------------------
   0 S :    0.372499
   1 C :   -0.180868
   2 C :   -0.059946
   3 C :   -0.060780
   4 C :   -0.165236
   5 H :    0.039201
   6 C :   -0.032703
   7 H :    0.012531
   8 H :    0.033376
   9 C :   -0.039008
  10 H :    0.016659
  11 H :    0.023780
  12 C :   -0.061795
  13 H :    0.024678
  14 H :    0.024695
  15 H :    0.031803
  16 S :    0.397253
  17 C :   -0.186675
  18 C :   -0.080308
  19 C :   -0.061712
  20 C :   -0.193686
  21 H :    0.040641
  22 C :   -0.042276
  23 H :    0.041001
  24 H :    0.030485
  25 C :   -0.040865
  26 H :    0.014574
  27 H :    0.029279
  28 C :   -0.063859
  29 H :    0.022654
  30 H :    0.021252
  31 H :    0.028720
  32 H :    0.031421
  33 H :    0.033214

  Mayer bond orders larger than 0.100000
B(  0-S ,  1-C ) :   1.1319 B(  0-S ,  4-C ) :   1.1362 B(  1-C ,  2-C ) :   1.6038
B(  1-C ,  4-C ) :   0.1002 B(  1-C , 32-H ) :   0.9694 B(  2-C ,  3-C ) :   1.2541
B(  2-C ,  6-C ) :   1.0163 B(  3-C ,  4-C ) :   1.5644 B(  3-C ,  5-H ) :   0.9848
B(  4-C , 20-C ) :   1.0729 B(  6-C ,  7-H ) :   0.9411 B(  6-C ,  8-H ) :   0.9329
B(  6-C ,  9-C ) :   1.0465 B(  9-C , 10-H ) :   0.9627 B(  9-C , 11-H ) :   0.9557
B(  9-C , 12-C ) :   1.0796 B( 12-C , 13-H ) :   0.9752 B( 12-C , 14-H ) :   0.9750
B( 12-C , 15-H ) :   0.9765 B( 16-S , 17-C ) :   1.1416 B( 16-S , 20-C ) :   1.1218
B( 17-C , 18-C ) :   1.6443 B( 17-C , 33-H ) :   0.9649 B( 18-C , 19-C ) :   1.2315
B( 18-C , 21-H ) :   0.9813 B( 19-C , 20-C ) :   1.5820 B( 19-C , 22-C ) :   1.0547
B( 22-C , 23-H ) :   0.9238 B( 22-C , 24-H ) :   0.9364 B( 22-C , 25-C ) :   1.0777
B( 25-C , 26-H ) :   0.9464 B( 25-C , 27-H ) :   0.9539 B( 25-C , 28-C ) :   1.0833
B( 28-C , 29-H ) :   0.9736 B( 28-C , 30-H ) :   0.9747 B( 28-C , 31-H ) :   0.9770

Dispersion correction           -0.013751539
FINAL SINGLE POINT ENERGY     -1339.863646156978

DIPOLE MOMENT
-------------
                                X             Y             Z
Electronic contribution:    -26.11232     -10.06895      -8.59108
Nuclear contribution   :     26.75039      10.05873       8.81601
                        -----------------------------------------
Total Dipole Moment    :      0.63808      -0.01023       0.22493
                        -----------------------------------------
Magnitude (a.u.)       :      0.67664
Magnitude (Debye)      :      1.71988

Rotational constants in cm-1:     0.018733     0.008277     0.006482
Rotational constants in MHz :   561.587108   248.139069   194.336028

                             ****ORCA TERMINATED NORMALLY****
TOTAL RUN TIME: 0 days 0 hours 0 minutes 29 seconds 928 msec
