                         Program Version 4.2.1 -  RELEASE  -
|  1> ! wB97X-D3 SP def2-SVP
|  2> %pal
|  3> nprocs 16
|  4> end
|  5>
|  6> * xyz 0 1
|  7> S 	 61.2941 	 -8.90107 	 87.425
|  8> C 	 60.9697 	 -7.50615 	 88.3773
|  9> C 	 59.9079 	 -6.79512 	 87.9205
| 10> C 	 59.2938 	 -7.45253 	 86.8051
| 11> C 	 59.9035 	 -8.60537 	 86.3752
| 12> H 	 58.423 	 -7.16454 	 86.2081
| 13> C 	 59.5173 	 -5.44519 	 88.3353
| 14> H 	 59.804 	 -4.76072 	 87.5116
| 15> H 	 60.1607 	 -5.19858 	 89.1298
| 16> C 	 57.9857 	 -5.11948 	 88.4852
| 17> H 	 57.8965 	 -4.1103 	 88.112
| 18> H 	 57.33 	 -5.66134 	 87.7687
| 19> C 	 57.4346 	 -5.32054 	 89.9072
| 20> H 	 56.4361 	 -4.93823 	 90.0341
| 21> H 	 57.6267 	 -6.32564 	 90.1599
| 22> H 	 58.0391 	 -4.71249 	 90.5931
| 23> S 	 59.3206 	 -11.1485 	 85.6655
| 24> C 	 58.3422 	 -11.4975 	 84.2266
| 25> C 	 58.3719 	 -10.4417 	 83.3768
| 26> C 	 59.07 	 -9.31975 	 83.9415
| 27> C 	 59.4692 	 -9.46967 	 85.2849
| 28> H 	 57.9375 	 -10.4397 	 82.3965
| 29> C 	 59.1384 	 -7.96362 	 83.1972
| 30> H 	 59.8636 	 -7.30717 	 83.6761
| 31> H 	 58.157 	 -7.46098 	 83.1298
| 32> C 	 59.6057 	 -7.91086 	 81.7031
| 33> H 	 59.4119 	 -6.87139 	 81.3051
| 34> H 	 58.9876 	 -8.69734 	 81.2275
| 35> C 	 61.1745 	 -8.12791 	 81.6114
| 36> H 	 61.7969 	 -7.34335 	 82.1446
| 37> H 	 61.5649 	 -8.32538 	 80.6193
| 38> H 	 61.3825 	 -9.0487 	 82.1615
| 39> H 	 61.6751 	 -7.18952 	 89.1272
| 40> H 	 57.905 	 -12.4748 	 83.9546
| 41> *
| 42>
| 43>                          ****END OF INPUT****

CARTESIAN COORDINATES (ANGSTROEM)
---------------------------------
  S     61.294100   -8.901070   87.425000
  C     60.969700   -7.506150   88.377300
  C     59.907900   -6.795120   87.920500
  C     59.293800   -7.452530   86.805100
  C     59.903500   -8.605370   86.375200
  H     58.423000   -7.164540   86.208100
  C     59.517300   -5.445190   88.335300
  H     59.804000   -4.760720   87.511600
  H     60.160700   -5.198580   89.129800
  C     57.985700   -5.119480   88.485200
  H     57.896500   -4.110300   88.112000
  H     57.330000   -5.661340   87.768700
  C     57.434600   -5.320540   89.907200
  H     56.436100   -4.938230   90.034100
  H     57.626700   -6.325640   90.159900
  H     58.039100   -4.712490   90.593100
  S     59.320600  -11.148500   85.665500
  C     58.342200  -11.497500   84.226600
  C     58.371900  -10.441700   83.376800
  C     59.070000   -9.319750   83.941500
  C     59.469200   -9.469670   85.284900
  H     57.937500  -10.439700   82.396500
  C     59.138400   -7.963620   83.197200
  H     59.863600   -7.307170   83.676100
  H     58.157000   -7.460980   83.129800
  C     59.605700   -7.910860   81.703100
  H     59.411900   -6.871390   81.305100
  H     58.987600   -8.697340   81.227500
  C     61.174500   -8.127910   81.611400
  H     61.796900   -7.343350   82.144600
  H     61.564900   -8.325380   80.619300
  H     61.382500   -9.048700   82.161500
  H     61.675100   -7.189520   89.127200
  H     57.905000  -12.474800   83.954600

 Total Charge           Charge          ....    0
 Multiplicity           Mult            ....    1
 Number of Electrons    NEL             ....  134
 Basis Dimension        Dim             ....  322

ORBITAL ENERGIES
----------------

  NO   OCC          E(Eh)            E(eV)
   0   2.0000     -88.963754     -2420.8268
   1   2.0000     -88.962756     -2420.7997
   2   2.0000     -10.331675      -281.1392
   3   2.0000     -10.331251      -281.1276
   4   2.0000     -10.321959      -280.8748
   5   2.0000     -10.310998      -280.5765
   6   2.0000     -10.310582      -280.5652
   7   2.0000     -10.298150      -280.2269
   8   2.0000     -10.297366      -280.2056
   9   2.0000     -10.295737      -280.1612
  10   2.0000     -10.292480      -280.0726
  11   2.0000     -10.291729      -280.0522
  12   2.0000     -10.290753      -280.0256
  13   2.0000     -10.290090      -280.0076
  14   2.0000     -10.280230      -279.7393
  15   2.0000     -10.273413      -279.5538
  16   2.0000      -8.078976      -219.8401
  17   2.0000      -8.077898      -219.8108
  18   2.0000      -6.037495      -164.2886
  19   2.0000      -6.036467      -164.2606
  20   2.0000      -6.033436      -164.1781
  21   2.0000      -6.032350      -164.1486
  22   2.0000      -6.029674      -164.0758
  23   2.0000      -6.028525      -164.0445
  24   2.0000      -1.010213       -27.4893
  25   2.0000      -0.989505       -26.9258
  26   2.0000      -0.913091       -24.8465
  27   2.0000      -0.898046       -24.4371
  28   2.0000      -0.876685       -23.8558
  29   2.0000      -0.849473       -23.1153
  30   2.0000      -0.839088       -22.8327
  31   2.0000      -0.820313       -22.3218
  32   2.0000      -0.781707       -21.2713
  33   2.0000      -0.769562       -20.9408
  34   2.0000      -0.715861       -19.4796
  35   2.0000      -0.696558       -18.9543
  36   2.0000      -0.690569       -18.7913
  37   2.0000      -0.657001       -17.8779
  38   2.0000      -0.646593       -17.5947
  39   2.0000      -0.621658       -16.9162
  40   2.0000      -0.596220       -16.2240
  41   2.0000      -0.572766       -15.5858
  42   2.0000      -0.556689       -15.1483
  43   2.0000      -0.548134       -14.9155
  44   2.0000      -0.538562       -14.6550
  45   2.0000      -0.530245       -14.4287
  46   2.0000      -0.522395       -14.2151
  47   2.0000      -0.511959       -13.9311
  48   2.0000      -0.509629       -13.8677
  49   2.0000      -0.496156       -13.5011
  50   2.0000      -0.490375       -13.3438
  51   2.0000      -0.479966       -13.0605
  52   2.0000      -0.474274       -12.9057
  53   2.0000      -0.465482       -12.6664
  54   2.0000      -0.458463       -12.4754
  55   2.0000      -0.444739       -12.1020
  56   2.0000      -0.444206       -12.0875
  57   2.0000      -0.435900       -11.8614
  58   2.0000      -0.429687       -11.6924
  59   2.0000      -0.427143       -11.6232
  60   2.0000      -0.414924       -11.2906
  61   2.0000      -0.412567       -11.2265
  62   2.0000      -0.409965       -11.1557
  63   2.0000      -0.355130        -9.6636
  64   2.0000      -0.329194        -8.9578
  65   2.0000      -0.323360        -8.7991
  66   2.0000      -0.294735        -8.0201
  67   0.0000       0.029940         0.8147
  68   0.0000       0.068834         1.8731
  69   0.0000       0.109168         2.9706
  70   0.0000       0.119296         3.2462
  71   0.0000       0.129290         3.5182

MULLIKEN ATOMIC CHARGES
-----------------------
   0 S :    0.105438
   1 C :   -0.128157
   2 C :   -0.056282
   3 C :    0.013192
   4 C :   -0.145383
   5 H :    0.018511
   6 C :    0.071767
   7 H :    0.042791
   8 H :   -0.000488
   9 C :   -0.088450
  10 H :    0.015655
  11 H :    0.033905
  12 C :   -0.004077
  13 H :    0.037928
  14 H :    0.032655
  15 H :    0.015239
  16 S :    0.094938
  17 C :   -0.091487
  18 C :   -0.025800
  19 C :   -0.018675
  20 C :   -0.157102
  21 H :    0.020898
  22 C :    0.007239
  23 H :    0.024998
  24 H :    0.045456
  25 C :   -0.094868
  26 H :    0.046367
  27 H :    0.033006
  28 C :   -0.078685
  29 H :    0.045650
  30 H :    0.037320
  31 H :    0.031025
  32 H :    0.047605
  33 H :    0.067872
Sum of atomic charges:   -0.0000000

LOEWDIN ATOMIC CHARGES
----------------------
   0 S :    0.401102
   1 C :   -0.198981
   2 C :   -0.071494
   3 C :   -0.058995
   4 C :   -0.192697
   5 H :    0.034160
   6 C :   -0.029668
   7 H :    0.044219
   8 H :    0.023180
   9 C :   -0.038819
  10 H :    0.019301
  11 H :    0.027055
  12 C :   -0.058375
  13 H :    0.026104
  14 H :    0.023442
  15 H :    0.023963
  16 S :    0.404916
  17 C :   -0.175473
  18 C :   -0.072856
  19 C :   -0.058845
  20 C :   -0.199492
  21 H :    0.031369
  22 C :   -0.041884
  23 H :    0.026328
  24 H :    0.032714
  25 C :   -0.041255
  26 H :    0.030847
  27 H :    0.021271
  28 C :   -0.078731
  29 H :    0.033724
  30 H :    0.022514
  31 H :    0.025979
  32 H :    0.027512
  33 H :    0.037864

  Mayer bond orders larger than 0.100000
B(  0-S ,  1-C ) :   1.1390 B(  0-S ,  4-C ) :   1.1361 B(  1-C ,  2-C ) :   1.6115
B(  1-C , 32-H ) :   0.9666 B(  2-C ,  3-C ) :   1.2058 B(  2-C ,  6-C ) :   1.0467
B(  3-C ,  4-C ) :   1.6138 B(  3-C ,  5-H ) :   0.9913 B(  4-C , 20-C ) :   1.0411
B(  6-C ,  7-H ) :   0.9338 B(  6-C ,  8-H ) :   0.9389 B(  6-C ,  9-C ) :   1.0502
B(  9-C , 10-H ) :   0.9586 B(  9-C , 11-H ) :   0.9571 B(  9-C , 12-C ) :   1.0713
B( 12-C , 13-H ) :   0.9736 B( 12-C , 14-H ) :   0.9780 B( 12-C , 15-H ) :   0.9755
B( 16-S , 17-C ) :   1.1505 B( 16-S , 20-C ) :   1.1406 B( 17-C , 18-C ) :   1.6105
B( 17-C , 33-H ) :   0.9645 B( 18-C , 19-C ) :   1.2329 B( 18-C , 21-H ) :   0.9937
B( 19-C , 20-C ) :   1.5787 B( 19-C , 22-C ) :   1.0379 B( 22-C , 23-H ) :   0.9444
B( 22-C , 24-H ) :   0.9434 B( 22-C , 25-C ) :   1.0582 B( 25-C , 26-H ) :   0.9588
B( 25-C , 27-H ) :   0.9577 B( 25-C , 28-C ) :   1.0629 B( 28-C , 29-H ) :   0.9735
B( 28-C , 30-H ) :   0.9777 B( 28-C , 31-H ) :   0.9778

Dispersion correction           -0.013812070
FINAL SINGLE POINT ENERGY     -1339.868288781832

DIPOLE MOMENT
-------------
                                X             Y             Z
Electronic contribution:      6.71187     -21.31940       6.12572
Nuclear contribution   :     -6.99953      21.91599      -6.39497
                        -----------------------------------------
Total Dipole Moment    :     -0.28766       0.59660      -0.26925
                        -----------------------------------------
Magnitude (a.u.)       :      0.71496
Magnitude (Debye)      :      1.81728

Rotational constants in cm-1:     0.018847     0.007762     0.006972
Rotational constants in MHz :   565.014704   232.697711   209.028836

                             ****ORCA TERMINATED NORMALLY****
TOTAL RUN TIME: 0 days 0 hours 0 minutes 29 seconds 593 msec
