                         Program Version 4.2.1 -  RELEASE  -
|  1> ! wB97X-D3 SP def2-SVP
|  2> %pal
|  3> nprocs 16
|  4> end
|  5>
|  6> * xyz 0 1
|  7> S 	 -60.0567 	 48.6544 	 133.052
|  8> C 	 -58.7749 	 47.7767 	 133.865
|  9> C 	 -58.7932 	 47.92 	 135.273
| 10> C 	 -59.8096 	 48.8338 	 135.7
| 11> C 	 -60.5158 	 49.34 	 134.603
| 12> H 	 -60.0407 	 49.0255 	 136.661
| 13> C 	 -57.8177 	 47.3554 	 136.242
| 14> H 	 -57.3739 	 46.4633 	 135.788
| 15> H 	 -58.2523 	 47.1411 	 137.181
| 16> C 	 -56.6621 	 48.4147 	 136.422
| 17> H 	 -57.0112 	 49.3026 	 136.925
| 18> H 	 -56.0078 	 48.074 	 137.222
| 19> C 	 -55.8513 	 48.6211 	 135.082
| 20> H 	 -56.4666 	 49.0485 	 134.257
| 21> H 	 -54.9375 	 49.2097 	 135.145
| 22> H 	 -55.5572 	 47.6604 	 134.721
| 23> S 	 -62.9312 	 50.2261 	 133.771
| 24> C 	 -63.3287 	 51.912 	 134.079
| 25> C 	 -62.5595 	 52.4539 	 135.041
| 26> C 	 -61.4818 	 51.5617 	 135.408
| 27> C 	 -61.5284 	 50.3651 	 134.757
| 28> H 	 -62.632 	 53.5249 	 135.215
| 29> C 	 -60.1636 	 52.1197 	 136.004
| 30> H 	 -59.7935 	 51.4039 	 136.68
| 31> H 	 -60.4718 	 52.9656 	 136.572
| 32> C 	 -59.1266 	 52.5918 	 135.012
| 33> H 	 -59.4784 	 53.5016 	 134.484
| 34> H 	 -58.8968 	 51.8777 	 134.152
| 35> C 	 -57.7609 	 52.8616 	 135.677
| 36> H 	 -57.8261 	 53.8104 	 136.296
| 37> H 	 -56.9728 	 52.8915 	 134.863
| 38> H 	 -57.4657 	 52.0339 	 136.433
| 39> H 	 -58.0513 	 47.1902 	 133.276
| 40> H 	 -64.155 	 52.4694 	 133.617
| 41> *
| 42>
| 43>                          ****END OF INPUT****

CARTESIAN COORDINATES (ANGSTROEM)
---------------------------------
  S    -60.056700   48.654400  133.052000
  C    -58.774900   47.776700  133.865000
  C    -58.793200   47.920000  135.273000
  C    -59.809600   48.833800  135.700000
  C    -60.515800   49.340000  134.603000
  H    -60.040700   49.025500  136.661000
  C    -57.817700   47.355400  136.242000
  H    -57.373900   46.463300  135.788000
  H    -58.252300   47.141100  137.181000
  C    -56.662100   48.414700  136.422000
  H    -57.011200   49.302600  136.925000
  H    -56.007800   48.074000  137.222000
  C    -55.851300   48.621100  135.082000
  H    -56.466600   49.048500  134.257000
  H    -54.937500   49.209700  135.145000
  H    -55.557200   47.660400  134.721000
  S    -62.931200   50.226100  133.771000
  C    -63.328700   51.912000  134.079000
  C    -62.559500   52.453900  135.041000
  C    -61.481800   51.561700  135.408000
  C    -61.528400   50.365100  134.757000
  H    -62.632000   53.524900  135.215000
  C    -60.163600   52.119700  136.004000
  H    -59.793500   51.403900  136.680000
  H    -60.471800   52.965600  136.572000
  C    -59.126600   52.591800  135.012000
  H    -59.478400   53.501600  134.484000
  H    -58.896800   51.877700  134.152000
  C    -57.760900   52.861600  135.677000
  H    -57.826100   53.810400  136.296000
  H    -56.972800   52.891500  134.863000
  H    -57.465700   52.033900  136.433000
  H    -58.051300   47.190200  133.276000
  H    -64.155000   52.469400  133.617000

 Total Charge           Charge          ....    0
 Multiplicity           Mult            ....    1
 Number of Electrons    NEL             ....  134
 Basis Dimension        Dim             ....  322

ORBITAL ENERGIES
----------------

  NO   OCC          E(Eh)            E(eV)
   0   2.0000     -88.972997     -2421.0783
   1   2.0000     -88.960411     -2420.7359
   2   2.0000     -10.329421      -281.0778
   3   2.0000     -10.317841      -280.7627
   4   2.0000     -10.317240      -280.7464
   5   2.0000     -10.313778      -280.6522
   6   2.0000     -10.303174      -280.3636
   7   2.0000     -10.298262      -280.2300
   8   2.0000     -10.292842      -280.0825
   9   2.0000     -10.292678      -280.0780
  10   2.0000     -10.291448      -280.0445
  11   2.0000     -10.291222      -280.0384
  12   2.0000     -10.287749      -279.9439
  13   2.0000     -10.287649      -279.9412
  14   2.0000     -10.282658      -279.8054
  15   2.0000     -10.280046      -279.7343
  16   2.0000      -8.087016      -220.0589
  17   2.0000      -8.076113      -219.7622
  18   2.0000      -6.045446      -164.5049
  19   2.0000      -6.041697      -164.4029
  20   2.0000      -6.037843      -164.2981
  21   2.0000      -6.034609      -164.2101
  22   2.0000      -6.030545      -164.0995
  23   2.0000      -6.026773      -163.9968
  24   2.0000      -1.009616       -27.4731
  25   2.0000      -0.983108       -26.7517
  26   2.0000      -0.911859       -24.8129
  27   2.0000      -0.905095       -24.6289
  28   2.0000      -0.868350       -23.6290
  29   2.0000      -0.850886       -23.1538
  30   2.0000      -0.840900       -22.8820
  31   2.0000      -0.811208       -22.0741
  32   2.0000      -0.781525       -21.2664
  33   2.0000      -0.767686       -20.8898
  34   2.0000      -0.712308       -19.3829
  35   2.0000      -0.697724       -18.9860
  36   2.0000      -0.685725       -18.6595
  37   2.0000      -0.664191       -18.0735
  38   2.0000      -0.644330       -17.5331
  39   2.0000      -0.622143       -16.9294
  40   2.0000      -0.590537       -16.0693
  41   2.0000      -0.568659       -15.4740
  42   2.0000      -0.561134       -15.2692
  43   2.0000      -0.551645       -15.0110
  44   2.0000      -0.537679       -14.6310
  45   2.0000      -0.522527       -14.2187
  46   2.0000      -0.516888       -14.0652
  47   2.0000      -0.502536       -13.6747
  48   2.0000      -0.498235       -13.5577
  49   2.0000      -0.492809       -13.4100
  50   2.0000      -0.488978       -13.3058
  51   2.0000      -0.481589       -13.1047
  52   2.0000      -0.467161       -12.7121
  53   2.0000      -0.463860       -12.6223
  54   2.0000      -0.457156       -12.4398
  55   2.0000      -0.454427       -12.3656
  56   2.0000      -0.443885       -12.0787
  57   2.0000      -0.437589       -11.9074
  58   2.0000      -0.436777       -11.8853
  59   2.0000      -0.433244       -11.7892
  60   2.0000      -0.418007       -11.3746
  61   2.0000      -0.416646       -11.3375
  62   2.0000      -0.403319       -10.9749
  63   2.0000      -0.349751        -9.5172
  64   2.0000      -0.332769        -9.0551
  65   2.0000      -0.329944        -8.9782
  66   2.0000      -0.285268        -7.7625
  67   0.0000       0.025729         0.7001
  68   0.0000       0.074863         2.0371
  69   0.0000       0.107921         2.9367
  70   0.0000       0.120180         3.2703
  71   0.0000       0.127725         3.4756

MULLIKEN ATOMIC CHARGES
-----------------------
   0 S :    0.130149
   1 C :   -0.152984
   2 C :   -0.074006
   3 C :    0.048979
   4 C :   -0.120942
   5 H :   -0.024576
   6 C :    0.092190
   7 H :    0.025411
   8 H :    0.018947
   9 C :   -0.064740
  10 H :    0.018375
  11 H :    0.022282
  12 C :   -0.056432
  13 H :    0.054943
  14 H :    0.038111
  15 H :    0.012146
  16 S :    0.091650
  17 C :   -0.105204
  18 C :   -0.030370
  19 C :   -0.059585
  20 C :   -0.154495
  21 H :    0.028245
  22 C :    0.117755
  23 H :   -0.005270
  24 H :    0.007311
  25 C :   -0.080376
  26 H :    0.028742
  27 H :    0.044185
  28 C :   -0.099806
  29 H :    0.040231
  30 H :    0.050289
  31 H :    0.043737
  32 H :    0.055247
  33 H :    0.059859
Sum of atomic charges:    0.0000000

LOEWDIN ATOMIC CHARGES
----------------------
   0 S :    0.408917
   1 C :   -0.210009
   2 C :   -0.051046
   3 C :   -0.041273
   4 C :   -0.184875
   5 H :    0.012394
   6 C :   -0.023213
   7 H :    0.031404
   8 H :    0.026066
   9 C :   -0.033799
  10 H :    0.017575
  11 H :    0.022288
  12 C :   -0.067376
  13 H :    0.032073
  14 H :    0.026947
  15 H :    0.017918
  16 S :    0.395704
  17 C :   -0.178061
  18 C :   -0.074581
  19 C :   -0.060442
  20 C :   -0.202169
  21 H :    0.036126
  22 C :   -0.024232
  23 H :    0.016816
  24 H :    0.025727
  25 C :   -0.048932
  26 H :    0.026141
  27 H :    0.031040
  28 C :   -0.077953
  29 H :    0.027127
  30 H :    0.033149
  31 H :    0.030175
  32 H :    0.027395
  33 H :    0.032980

  Mayer bond orders larger than 0.100000
B(  0-S ,  1-C ) :   1.1321 B(  0-S ,  4-C ) :   1.1515 B(  1-C ,  2-C ) :   1.5841
B(  1-C , 32-H ) :   0.9654 B(  2-C ,  3-C ) :   1.2373 B(  2-C ,  6-C ) :   1.0492
B(  3-C ,  4-C ) :   1.5394 B(  3-C ,  5-H ) :   1.0143 B(  4-C , 20-C ) :   1.0578
B(  6-C ,  7-H ) :   0.9400 B(  6-C ,  8-H ) :   0.9356 B(  6-C ,  9-C ) :   1.0667
B(  9-C , 10-H ) :   0.9586 B(  9-C , 11-H ) :   0.9556 B(  9-C , 12-C ) :   1.0558
B( 12-C , 13-H ) :   0.9728 B( 12-C , 14-H ) :   0.9756 B( 12-C , 15-H ) :   0.9746
B( 16-S , 17-C ) :   1.1332 B( 16-S , 20-C ) :   1.1283 B( 17-C , 18-C ) :   1.6708
B( 17-C , 33-H ) :   0.9607 B( 18-C , 19-C ) :   1.2072 B( 18-C , 21-H ) :   0.9853
B( 19-C , 20-C ) :   1.6297 B( 19-C , 22-C ) :   1.0547 B( 22-C , 23-H ) :   0.9307
B( 22-C , 24-H ) :   0.9280 B( 22-C , 25-C ) :   1.0582 B( 25-C , 26-H ) :   0.9513
B( 25-C , 27-H ) :   0.9593 B( 25-C , 28-C ) :   1.0693 B( 28-C , 29-H ) :   0.9736
B( 28-C , 30-H ) :   0.9747 B( 28-C , 31-H ) :   0.9742

Dispersion correction           -0.016439881
FINAL SINGLE POINT ENERGY     -1339.872295393981

DIPOLE MOMENT
-------------
                                X             Y             Z
Electronic contribution:    -26.20865      -7.08815     -12.34311
Nuclear contribution   :     26.72413       7.33741      12.64099
                        -----------------------------------------
Total Dipole Moment    :      0.51548       0.24926       0.29788
                        -----------------------------------------
Magnitude (a.u.)       :      0.64544
Magnitude (Debye)      :      1.64057

Rotational constants in cm-1:     0.020774     0.010212     0.007855
Rotational constants in MHz :   622.790424   306.140055   235.488191

                             ****ORCA TERMINATED NORMALLY****
TOTAL RUN TIME: 0 days 0 hours 0 minutes 38 seconds 290 msec
