                         Program Version 4.2.1 -  RELEASE  -
|  1> ! wB97X-D3 SP def2-SVP
|  2> %pal
|  3> nprocs 16
|  4> end
|  5>
|  6> * xyz 0 1
|  7> S 	 -39.294 	 68.4925 	 144.547
|  8> C 	 -39.3798 	 68.0023 	 142.853
|  9> C 	 -38.187 	 67.5911 	 142.299
| 10> C 	 -37.1873 	 67.4384 	 143.321
| 11> C 	 -37.6089 	 67.9172 	 144.582
| 12> H 	 -36.2013 	 67.0263 	 143.204
| 13> C 	 -38.0189 	 66.9808 	 140.9
| 14> H 	 -37.0764 	 66.492 	 140.891
| 15> H 	 -38.0256 	 67.8578 	 140.208
| 16> C 	 -39.108 	 65.9744 	 140.505
| 17> H 	 -40.0506 	 66.5289 	 140.424
| 18> H 	 -38.7388 	 65.7904 	 139.46
| 19> C 	 -39.2068 	 64.6127 	 141.332
| 20> H 	 -39.8293 	 63.9652 	 140.618
| 21> H 	 -38.237 	 64.1628 	 141.603
| 22> H 	 -39.6979 	 64.7677 	 142.202
| 23> S 	 -37.6828 	 68.0254 	 147.431
| 24> C 	 -36.2807 	 68.1088 	 148.292
| 25> C 	 -35.1571 	 68.2834 	 147.478
| 26> C 	 -35.4711 	 68.1549 	 146.066
| 27> C 	 -36.8324 	 68.0649 	 145.824
| 28> H 	 -34.1843 	 68.4351 	 147.873
| 29> C 	 -34.3324 	 68.0836 	 145.045
| 30> H 	 -33.3787 	 68.5596 	 145.256
| 31> H 	 -34.7868 	 68.4792 	 144.104
| 32> C 	 -33.8487 	 66.7196 	 144.65
| 33> H 	 -34.6677 	 65.957 	 144.709
| 34> H 	 -33.2651 	 66.2772 	 145.449
| 35> C 	 -32.9269 	 66.6948 	 143.418
| 36> H 	 -32.3596 	 65.865 	 143.278
| 37> H 	 -32.2213 	 67.5375 	 143.425
| 38> H 	 -33.5865 	 66.8283 	 142.548
| 39> H 	 -40.3356 	 67.9271 	 142.268
| 40> H 	 -36.1351 	 68.4114 	 149.354
| 41> *
| 42>
| 43>                          ****END OF INPUT****

CARTESIAN COORDINATES (ANGSTROEM)
---------------------------------
  S    -39.294000   68.492500  144.547000
  C    -39.379800   68.002300  142.853000
  C    -38.187000   67.591100  142.299000
  C    -37.187300   67.438400  143.321000
  C    -37.608900   67.917200  144.582000
  H    -36.201300   67.026300  143.204000
  C    -38.018900   66.980800  140.900000
  H    -37.076400   66.492000  140.891000
  H    -38.025600   67.857800  140.208000
  C    -39.108000   65.974400  140.505000
  H    -40.050600   66.528900  140.424000
  H    -38.738800   65.790400  139.460000
  C    -39.206800   64.612700  141.332000
  H    -39.829300   63.965200  140.618000
  H    -38.237000   64.162800  141.603000
  H    -39.697900   64.767700  142.202000
  S    -37.682800   68.025400  147.431000
  C    -36.280700   68.108800  148.292000
  C    -35.157100   68.283400  147.478000
  C    -35.471100   68.154900  146.066000
  C    -36.832400   68.064900  145.824000
  H    -34.184300   68.435100  147.873000
  C    -34.332400   68.083600  145.045000
  H    -33.378700   68.559600  145.256000
  H    -34.786800   68.479200  144.104000
  C    -33.848700   66.719600  144.650000
  H    -34.667700   65.957000  144.709000
  H    -33.265100   66.277200  145.449000
  C    -32.926900   66.694800  143.418000
  H    -32.359600   65.865000  143.278000
  H    -32.221300   67.537500  143.425000
  H    -33.586500   66.828300  142.548000
  H    -40.335600   67.927100  142.268000
  H    -36.135100   68.411400  149.354000

 Total Charge           Charge          ....    0
 Multiplicity           Mult            ....    1
 Number of Electrons    NEL             ....  134
 Basis Dimension        Dim             ....  322

ORBITAL ENERGIES
----------------

  NO   OCC          E(Eh)            E(eV)
   0   2.0000     -88.969882     -2420.9936
   1   2.0000     -88.967081     -2420.9174
   2   2.0000     -10.337495      -281.2975
   3   2.0000     -10.334166      -281.2070
   4   2.0000     -10.316567      -280.7281
   5   2.0000     -10.315268      -280.6927
   6   2.0000     -10.309433      -280.5339
   7   2.0000     -10.300676      -280.2957
   8   2.0000     -10.299056      -280.2516
   9   2.0000     -10.296936      -280.1939
  10   2.0000     -10.294753      -280.1345
  11   2.0000     -10.294459      -280.1265
  12   2.0000     -10.292141      -280.0634
  13   2.0000     -10.286267      -279.9036
  14   2.0000     -10.284162      -279.8463
  15   2.0000     -10.278512      -279.6925
  16   2.0000      -8.083675      -219.9680
  17   2.0000      -8.082750      -219.9428
  18   2.0000      -6.042241      -164.4177
  19   2.0000      -6.041303      -164.3922
  20   2.0000      -6.038516      -164.3164
  21   2.0000      -6.037060      -164.2768
  22   2.0000      -6.034247      -164.2002
  23   2.0000      -6.033449      -164.1785
  24   2.0000      -1.003987       -27.3199
  25   2.0000      -0.981881       -26.7183
  26   2.0000      -0.917441       -24.9648
  27   2.0000      -0.908220       -24.7139
  28   2.0000      -0.865388       -23.5484
  29   2.0000      -0.852929       -23.2094
  30   2.0000      -0.842355       -22.9216
  31   2.0000      -0.807926       -21.9848
  32   2.0000      -0.790606       -21.5135
  33   2.0000      -0.778357       -21.1802
  34   2.0000      -0.706506       -19.2250
  35   2.0000      -0.704684       -19.1754
  36   2.0000      -0.690551       -18.7909
  37   2.0000      -0.663046       -18.0424
  38   2.0000      -0.630770       -17.1641
  39   2.0000      -0.614592       -16.7239
  40   2.0000      -0.598652       -16.2901
  41   2.0000      -0.575473       -15.6594
  42   2.0000      -0.566724       -15.4213
  43   2.0000      -0.548072       -14.9138
  44   2.0000      -0.536349       -14.5948
  45   2.0000      -0.525793       -14.3075
  46   2.0000      -0.515575       -14.0295
  47   2.0000      -0.512759       -13.9529
  48   2.0000      -0.507820       -13.8185
  49   2.0000      -0.498181       -13.5562
  50   2.0000      -0.489129       -13.3099
  51   2.0000      -0.481745       -13.1089
  52   2.0000      -0.476874       -12.9764
  53   2.0000      -0.465143       -12.6572
  54   2.0000      -0.461491       -12.5578
  55   2.0000      -0.454460       -12.3665
  56   2.0000      -0.447374       -12.1737
  57   2.0000      -0.437118       -11.8946
  58   2.0000      -0.432395       -11.7661
  59   2.0000      -0.430334       -11.7100
  60   2.0000      -0.420841       -11.4517
  61   2.0000      -0.412443       -11.2232
  62   2.0000      -0.400305       -10.8928
  63   2.0000      -0.355837        -9.6828
  64   2.0000      -0.334017        -9.0891
  65   2.0000      -0.329739        -8.9727
  66   2.0000      -0.282635        -7.6909
  67   0.0000       0.018879         0.5137
  68   0.0000       0.078207         2.1281
  69   0.0000       0.097490         2.6529
  70   0.0000       0.119945         3.2639
  71   0.0000       0.125924         3.4266

MULLIKEN ATOMIC CHARGES
-----------------------
   0 S :    0.107135
   1 C :   -0.142385
   2 C :   -0.079504
   3 C :   -0.001750
   4 C :   -0.122792
   5 H :   -0.004462
   6 C :    0.069890
   7 H :    0.011303
   8 H :    0.048056
   9 C :   -0.117392
  10 H :    0.033295
  11 H :    0.036480
  12 C :   -0.022960
  13 H :    0.051782
  14 H :    0.039289
  15 H :    0.025048
  16 S :    0.110292
  17 C :   -0.077554
  18 C :   -0.047568
  19 C :   -0.044384
  20 C :   -0.129204
  21 H :    0.005434
  22 C :    0.050583
  23 H :    0.024989
  24 H :    0.027384
  25 C :   -0.107125
  26 H :    0.030102
  27 H :    0.009480
  28 C :    0.008632
  29 H :    0.017677
  30 H :    0.025679
  31 H :    0.023717
  32 H :    0.061790
  33 H :    0.079047
Sum of atomic charges:   -0.0000000

LOEWDIN ATOMIC CHARGES
----------------------
   0 S :    0.386305
   1 C :   -0.201928
   2 C :   -0.066601
   3 C :   -0.065011
   4 C :   -0.173894
   5 H :    0.027343
   6 C :   -0.030876
   7 H :    0.021551
   8 H :    0.041113
   9 C :   -0.042710
  10 H :    0.021785
  11 H :    0.030155
  12 C :   -0.055845
  13 H :    0.041436
  14 H :    0.030619
  15 H :    0.010529
  16 S :    0.420870
  17 C :   -0.227095
  18 C :   -0.072411
  19 C :   -0.048031
  20 C :   -0.184661
  21 H :    0.023206
  22 C :   -0.035501
  23 H :    0.032131
  24 H :    0.032030
  25 C :   -0.056273
  26 H :    0.025259
  27 H :    0.019227
  28 C :   -0.051905
  29 H :    0.013597
  30 H :    0.029498
  31 H :    0.025447
  32 H :    0.034644
  33 H :    0.045999

  Mayer bond orders larger than 0.100000
B(  0-S ,  1-C ) :   1.1285 B(  0-S ,  4-C ) :   1.1392 B(  1-C ,  2-C ) :   1.6295
B(  1-C , 32-H ) :   0.9564 B(  2-C ,  3-C ) :   1.2320 B(  2-C ,  6-C ) :   1.0079
B(  3-C ,  4-C ) :   1.5656 B(  3-C ,  5-H ) :   0.9896 B(  4-C , 20-C ) :   1.0761
B(  6-C ,  7-H ) :   0.9476 B(  6-C ,  8-H ) :   0.9299 B(  6-C ,  9-C ) :   1.0845
B(  9-C , 10-H ) :   0.9542 B(  9-C , 11-H ) :   0.9583 B(  9-C , 12-C ) :   1.0497
B( 12-C , 13-H ) :   0.9765 B( 12-C , 14-H ) :   0.9774 B( 12-C , 15-H ) :   0.9778
B( 16-S , 17-C ) :   1.1895 B( 16-S , 20-C ) :   1.1178 B( 17-C , 18-C ) :   1.5881
B( 17-C , 33-H ) :   0.9508 B( 18-C , 19-C ) :   1.2547 B( 18-C , 21-H ) :   0.9946
B( 19-C , 20-C ) :   1.5873 B( 19-C , 22-C ) :   1.0430 B( 22-C , 23-H ) :   0.9383
B( 22-C , 24-H ) :   0.9343 B( 22-C , 25-C ) :   1.0544 B( 25-C , 26-H ) :   0.9490
B( 25-C , 27-H ) :   0.9462 B( 25-C , 28-C ) :   1.0740 B( 28-C , 29-H ) :   0.9735
B( 28-C , 30-H ) :   0.9695 B( 28-C , 31-H ) :   0.9749

Dispersion correction           -0.014497648
FINAL SINGLE POINT ENERGY     -1339.854473376523

DIPOLE MOMENT
-------------
                                X             Y             Z
Electronic contribution:    -13.89618      13.43282      21.91107
Nuclear contribution   :     14.41392     -13.69937     -22.30835
                        -----------------------------------------
Total Dipole Moment    :      0.51774      -0.26655      -0.39728
                        -----------------------------------------
Magnitude (a.u.)       :      0.70493
Magnitude (Debye)      :      1.79180

Rotational constants in cm-1:     0.017972     0.009244     0.006719
Rotational constants in MHz :   538.790672   277.119544   201.426708

                             ****ORCA TERMINATED NORMALLY****
TOTAL RUN TIME: 0 days 0 hours 0 minutes 36 seconds 279 msec
