                         Program Version 4.2.1 -  RELEASE  -
|  1> ! wB97X-D3 SP def2-SVP
|  2> %pal
|  3> nprocs 16
|  4> end
|  5>
|  6> * xyz 0 1
|  7> S 	 8.83569 	 10.2562 	 84.1666
|  8> C 	 9.50929 	 8.88498 	 83.3231
|  9> C 	 10.2733 	 8.12588 	 84.1414
| 10> C 	 10.4979 	 8.71978 	 85.4211
| 11> C 	 9.70353 	 9.83088 	 85.7035
| 12> H 	 11.2236 	 8.36739 	 86.1014
| 13> C 	 11.0765 	 6.97626 	 83.6369
| 14> H 	 12.138 	 7.12944 	 83.7707
| 15> H 	 10.9024 	 6.99202 	 82.5322
| 16> C 	 10.7049 	 5.59539 	 84.2407
| 17> H 	 10.773 	 5.54866 	 85.357
| 18> H 	 9.64707 	 5.45369 	 84.1944
| 19> C 	 11.5696 	 4.46947 	 83.629
| 20> H 	 12.5782 	 4.56555 	 83.804
| 21> H 	 11.3333 	 3.54239 	 84.1348
| 22> H 	 11.4773 	 4.31868 	 82.6007
| 23> S 	 9.97447 	 12.3445 	 86.631
| 24> C 	 10.0696 	 12.5784 	 88.3946
| 25> C 	 9.84529 	 11.4162 	 89.0798
| 26> C 	 9.6815 	 10.2372 	 88.2353
| 27> C 	 9.67331 	 10.6131 	 86.906
| 28> H 	 9.93137 	 11.4129 	 90.1491
| 29> C 	 9.57961 	 8.77734 	 88.8487
| 30> H 	 9.54887 	 7.94416 	 88.1394
| 31> H 	 8.5794 	 8.64869 	 89.3851
| 32> C 	 10.6757 	 8.32722 	 89.7566
| 33> H 	 10.4324 	 7.28497 	 90.0648
| 34> H 	 10.7507 	 8.94387 	 90.6431
| 35> C 	 12.1649 	 8.37335 	 89.1901
| 36> H 	 12.902 	 8.50734 	 89.961
| 37> H 	 12.3378 	 9.28774 	 88.6423
| 38> H 	 12.4625 	 7.50517 	 88.6066
| 39> H 	 9.20401 	 8.64113 	 82.3036
| 40> H 	 10.2192 	 13.5337 	 88.9183
| 41> *
| 42>
| 43>                          ****END OF INPUT****

CARTESIAN COORDINATES (ANGSTROEM)
---------------------------------
  S      8.835690   10.256200   84.166600
  C      9.509290    8.884980   83.323100
  C     10.273300    8.125880   84.141400
  C     10.497900    8.719780   85.421100
  C      9.703530    9.830880   85.703500
  H     11.223600    8.367390   86.101400
  C     11.076500    6.976260   83.636900
  H     12.138000    7.129440   83.770700
  H     10.902400    6.992020   82.532200
  C     10.704900    5.595390   84.240700
  H     10.773000    5.548660   85.357000
  H      9.647070    5.453690   84.194400
  C     11.569600    4.469470   83.629000
  H     12.578200    4.565550   83.804000
  H     11.333300    3.542390   84.134800
  H     11.477300    4.318680   82.600700
  S      9.974470   12.344500   86.631000
  C     10.069600   12.578400   88.394600
  C      9.845290   11.416200   89.079800
  C      9.681500   10.237200   88.235300
  C      9.673310   10.613100   86.906000
  H      9.931370   11.412900   90.149100
  C      9.579610    8.777340   88.848700
  H      9.548870    7.944160   88.139400
  H      8.579400    8.648690   89.385100
  C     10.675700    8.327220   89.756600
  H     10.432400    7.284970   90.064800
  H     10.750700    8.943870   90.643100
  C     12.164900    8.373350   89.190100
  H     12.902000    8.507340   89.961000
  H     12.337800    9.287740   88.642300
  H     12.462500    7.505170   88.606600
  H      9.204010    8.641130   82.303600
  H     10.219200   13.533700   88.918300

 Total Charge           Charge          ....    0
 Multiplicity           Mult            ....    1
 Number of Electrons    NEL             ....  134
 Basis Dimension        Dim             ....  322

ORBITAL ENERGIES
----------------

  NO   OCC          E(Eh)            E(eV)
   0   2.0000     -88.966836     -2420.9107
   1   2.0000     -88.961738     -2420.7720
   2   2.0000     -10.332059      -281.1496
   3   2.0000     -10.330413      -281.1048
   4   2.0000     -10.322366      -280.8859
   5   2.0000     -10.316025      -280.7133
   6   2.0000     -10.312426      -280.6154
   7   2.0000     -10.303855      -280.3822
   8   2.0000     -10.297755      -280.2162
   9   2.0000     -10.293293      -280.0947
  10   2.0000     -10.292879      -280.0835
  11   2.0000     -10.291219      -280.0383
  12   2.0000     -10.291094      -280.0349
  13   2.0000     -10.289079      -279.9801
  14   2.0000     -10.277365      -279.6613
  15   2.0000     -10.267934      -279.4047
  16   2.0000      -8.080883      -219.8920
  17   2.0000      -8.075879      -219.7558
  18   2.0000      -6.039577      -164.3452
  19   2.0000      -6.035649      -164.2384
  20   2.0000      -6.034571      -164.2090
  21   2.0000      -6.031289      -164.1197
  22   2.0000      -6.030421      -164.0961
  23   2.0000      -6.026527      -163.9901
  24   2.0000      -1.001799       -27.2603
  25   2.0000      -0.979772       -26.6609
  26   2.0000      -0.908440       -24.7199
  27   2.0000      -0.905451       -24.6386
  28   2.0000      -0.873099       -23.7582
  29   2.0000      -0.847790       -23.0695
  30   2.0000      -0.840845       -22.8806
  31   2.0000      -0.815753       -22.1978
  32   2.0000      -0.788618       -21.4594
  33   2.0000      -0.774219       -21.0676
  34   2.0000      -0.716103       -19.4861
  35   2.0000      -0.702648       -19.1200
  36   2.0000      -0.690062       -18.7776
  37   2.0000      -0.659567       -17.9477
  38   2.0000      -0.641271       -17.4499
  39   2.0000      -0.621077       -16.9004
  40   2.0000      -0.600473       -16.3397
  41   2.0000      -0.570058       -15.5121
  42   2.0000      -0.552661       -15.0387
  43   2.0000      -0.546171       -14.8621
  44   2.0000      -0.543966       -14.8021
  45   2.0000      -0.524214       -14.2646
  46   2.0000      -0.518118       -14.0987
  47   2.0000      -0.507700       -13.8152
  48   2.0000      -0.501710       -13.6522
  49   2.0000      -0.500573       -13.6213
  50   2.0000      -0.487146       -13.2559
  51   2.0000      -0.481839       -13.1115
  52   2.0000      -0.473208       -12.8766
  53   2.0000      -0.470598       -12.8056
  54   2.0000      -0.457904       -12.4602
  55   2.0000      -0.450793       -12.2667
  56   2.0000      -0.447064       -12.1652
  57   2.0000      -0.442943       -12.0531
  58   2.0000      -0.436608       -11.8807
  59   2.0000      -0.422922       -11.5083
  60   2.0000      -0.417047       -11.3484
  61   2.0000      -0.411886       -11.2080
  62   2.0000      -0.408327       -11.1111
  63   2.0000      -0.352100        -9.5811
  64   2.0000      -0.333406        -9.0724
  65   2.0000      -0.326789        -8.8924
  66   2.0000      -0.292192        -7.9509
  67   0.0000       0.026166         0.7120
  68   0.0000       0.071383         1.9424
  69   0.0000       0.104665         2.8481
  70   0.0000       0.122400         3.3307
  71   0.0000       0.128433         3.4948

MULLIKEN ATOMIC CHARGES
-----------------------
   0 S :    0.086592
   1 C :   -0.132060
   2 C :   -0.060780
   3 C :    0.049320
   4 C :   -0.138905
   5 H :   -0.007130
   6 C :    0.044798
   7 H :    0.030655
   8 H :    0.020756
   9 C :   -0.087293
  10 H :    0.023128
  11 H :    0.017724
  12 C :    0.018992
  13 H :    0.007269
  14 H :    0.020848
  15 H :    0.019754
  16 S :    0.099534
  17 C :   -0.094583
  18 C :   -0.029266
  19 C :   -0.022637
  20 C :   -0.147860
  21 H :    0.016585
  22 C :    0.058508
  23 H :    0.024541
  24 H :    0.050492
  25 C :   -0.092404
  26 H :    0.038737
  27 H :    0.025383
  28 C :   -0.063260
  29 H :    0.022700
  30 H :    0.037668
  31 H :    0.038530
  32 H :    0.058317
  33 H :    0.065345
Sum of atomic charges:    0.0000000

LOEWDIN ATOMIC CHARGES
----------------------
   0 S :    0.370165
   1 C :   -0.190390
   2 C :   -0.074194
   3 C :   -0.049544
   4 C :   -0.174531
   5 H :    0.023344
   6 C :   -0.031373
   7 H :    0.029495
   8 H :    0.033584
   9 C :   -0.041335
  10 H :    0.026638
  11 H :    0.020109
  12 C :   -0.054910
  13 H :    0.016004
  14 H :    0.029003
  15 H :    0.018412
  16 S :    0.380767
  17 C :   -0.174970
  18 C :   -0.068334
  19 C :   -0.048563
  20 C :   -0.184676
  21 H :    0.028813
  22 C :   -0.037206
  23 H :    0.031070
  24 H :    0.044206
  25 C :   -0.042242
  26 H :    0.031853
  27 H :    0.017425
  28 C :   -0.072258
  29 H :    0.025750
  30 H :    0.027176
  31 H :    0.022373
  32 H :    0.032107
  33 H :    0.036231

  Mayer bond orders larger than 0.100000
B(  0-S ,  1-C ) :   1.1300 B(  0-S ,  4-C ) :   1.1248 B(  1-C ,  2-C ) :   1.6233
B(  1-C , 32-H ) :   0.9615 B(  2-C ,  3-C ) :   1.2258 B(  2-C ,  6-C ) :   1.0365
B(  3-C ,  4-C ) :   1.5763 B(  3-C ,  5-H ) :   0.9977 B(  4-C , 20-C ) :   1.0595
B(  6-C ,  7-H ) :   0.9441 B(  6-C ,  8-H ) :   0.9464 B(  6-C ,  9-C ) :   1.0445
B(  9-C , 10-H ) :   0.9567 B(  9-C , 11-H ) :   0.9563 B(  9-C , 12-C ) :   1.0772
B( 12-C , 13-H ) :   0.9714 B( 12-C , 14-H ) :   0.9709 B( 12-C , 15-H ) :   0.9763
B( 16-S , 17-C ) :   1.1239 B( 16-S , 20-C ) :   1.1252 B( 17-C , 18-C ) :   1.6680
B( 17-C , 33-H ) :   0.9628 B( 18-C , 19-C ) :   1.1869 B( 18-C , 21-H ) :   0.9877
B( 19-C , 20-C ) :   1.6444 B( 19-C , 22-C ) :   1.0179 B( 22-C , 23-H ) :   0.9442
B( 22-C , 24-H ) :   0.9380 B( 22-C , 25-C ) :   1.0763 B( 25-C , 26-H ) :   0.9560
B( 25-C , 27-H ) :   0.9586 B( 25-C , 28-C ) :   1.0659 B( 28-C , 29-H ) :   0.9753
B( 28-C , 30-H ) :   0.9713 B( 28-C , 31-H ) :   0.9766

Dispersion correction           -0.014528497
FINAL SINGLE POINT ENERGY     -1339.872925909871

DIPOLE MOMENT
-------------
                                X             Y             Z
Electronic contribution:    -12.44931      28.20261      -6.81467
Nuclear contribution   :     12.85286     -28.77868       7.21652
                        -----------------------------------------
Total Dipole Moment    :      0.40355      -0.57607       0.40185
                        -----------------------------------------
Magnitude (a.u.)       :      0.81006
Magnitude (Debye)      :      2.05900

Rotational constants in cm-1:     0.018267     0.009090     0.006524
Rotational constants in MHz :   547.634300   272.519346   195.596228

                             ****ORCA TERMINATED NORMALLY****
TOTAL RUN TIME: 0 days 0 hours 0 minutes 35 seconds 346 msec
