                         Program Version 4.2.1 -  RELEASE  -
|  1> ! wB97X-D3 SP def2-SVP
|  2> %pal
|  3> nprocs 16
|  4> end
|  5>
|  6> * xyz 0 1
|  7> S 	 -65.4834 	 54.7838 	 131.467
|  8> C 	 -65.0035 	 55.0106 	 133.137
|  9> C 	 -66.1299 	 55.1687 	 133.985
| 10> C 	 -67.3269 	 54.9161 	 133.233
| 11> C 	 -67.1187 	 54.7988 	 131.907
| 12> H 	 -68.3315 	 54.9654 	 133.522
| 13> C 	 -66.0451 	 55.2616 	 135.467
| 14> H 	 -67.084 	 55.449 	 135.835
| 15> H 	 -65.5562 	 56.2001 	 135.895
| 16> C 	 -65.2471 	 54.1149 	 136.266
| 17> H 	 -65.441 	 53.1614 	 135.763
| 18> H 	 -64.2201 	 54.236 	 136.228
| 19> C 	 -65.7235 	 54.0717 	 137.745
| 20> H 	 -65.48 	 53.1566 	 138.18
| 21> H 	 -65.2649 	 54.7765 	 138.417
| 22> H 	 -66.7983 	 54.1742 	 137.913
| 23> S 	 -68.4193 	 53.1958 	 130.048
| 24> C 	 -69.459 	 53.951 	 128.885
| 25> C 	 -69.6609 	 55.2859 	 129.161
| 26> C 	 -68.9911 	 55.7255 	 130.406
| 27> C 	 -68.1609 	 54.7321 	 130.904
| 28> H 	 -70.2052 	 55.9277 	 128.538
| 29> C 	 -69.1508 	 57.1705 	 130.909
| 30> H 	 -69.7966 	 57.7479 	 130.316
| 31> H 	 -68.1207 	 57.5293 	 130.872
| 32> C 	 -69.6888 	 57.3638 	 132.37
| 33> H 	 -69.7816 	 58.4824 	 132.486
| 34> H 	 -68.9881 	 57.0561 	 133.187
| 35> C 	 -70.9833 	 56.6718 	 132.722
| 36> H 	 -70.8108 	 55.6584 	 133.033
| 37> H 	 -71.6097 	 56.781 	 131.849
| 38> H 	 -71.4645 	 57.3097 	 133.53
| 39> H 	 -64.0374 	 55.1265 	 133.458
| 40> H 	 -69.9005 	 53.5015 	 128.03
| 41> *
| 42>
| 43>                          ****END OF INPUT****

CARTESIAN COORDINATES (ANGSTROEM)
---------------------------------
  S    -65.483400   54.783800  131.467000
  C    -65.003500   55.010600  133.137000
  C    -66.129900   55.168700  133.985000
  C    -67.326900   54.916100  133.233000
  C    -67.118700   54.798800  131.907000
  H    -68.331500   54.965400  133.522000
  C    -66.045100   55.261600  135.467000
  H    -67.084000   55.449000  135.835000
  H    -65.556200   56.200100  135.895000
  C    -65.247100   54.114900  136.266000
  H    -65.441000   53.161400  135.763000
  H    -64.220100   54.236000  136.228000
  C    -65.723500   54.071700  137.745000
  H    -65.480000   53.156600  138.180000
  H    -65.264900   54.776500  138.417000
  H    -66.798300   54.174200  137.913000
  S    -68.419300   53.195800  130.048000
  C    -69.459000   53.951000  128.885000
  C    -69.660900   55.285900  129.161000
  C    -68.991100   55.725500  130.406000
  C    -68.160900   54.732100  130.904000
  H    -70.205200   55.927700  128.538000
  C    -69.150800   57.170500  130.909000
  H    -69.796600   57.747900  130.316000
  H    -68.120700   57.529300  130.872000
  C    -69.688800   57.363800  132.370000
  H    -69.781600   58.482400  132.486000
  H    -68.988100   57.056100  133.187000
  C    -70.983300   56.671800  132.722000
  H    -70.810800   55.658400  133.033000
  H    -71.609700   56.781000  131.849000
  H    -71.464500   57.309700  133.530000
  H    -64.037400   55.126500  133.458000
  H    -69.900500   53.501500  128.030000

 Total Charge           Charge          ....    0
 Multiplicity           Mult            ....    1
 Number of Electrons    NEL             ....  134
 Basis Dimension        Dim             ....  322

ORBITAL ENERGIES
----------------

  NO   OCC          E(Eh)            E(eV)
   0   2.0000     -88.967726     -2420.9349
   1   2.0000     -88.962882     -2420.8031
   2   2.0000     -10.323689      -280.9219
   3   2.0000     -10.317101      -280.7426
   4   2.0000     -10.313340      -280.6402
   5   2.0000     -10.310111      -280.5524
   6   2.0000     -10.308429      -280.5066
   7   2.0000     -10.305187      -280.4184
   8   2.0000     -10.300743      -280.2975
   9   2.0000     -10.292258      -280.0666
  10   2.0000     -10.291322      -280.0411
  11   2.0000     -10.290910      -280.0299
  12   2.0000     -10.288558      -279.9659
  13   2.0000     -10.286319      -279.9050
  14   2.0000     -10.276222      -279.6302
  15   2.0000     -10.273440      -279.5545
  16   2.0000      -8.083270      -219.9570
  17   2.0000      -8.077567      -219.8018
  18   2.0000      -6.041595      -164.4002
  19   2.0000      -6.037601      -164.2915
  20   2.0000      -6.036197      -164.2533
  21   2.0000      -6.034232      -164.1998
  22   2.0000      -6.032041      -164.1402
  23   2.0000      -6.028258      -164.0372
  24   2.0000      -1.010069       -27.4854
  25   2.0000      -0.980819       -26.6895
  26   2.0000      -0.905078       -24.6284
  27   2.0000      -0.904231       -24.6054
  28   2.0000      -0.867756       -23.6128
  29   2.0000      -0.853647       -23.2289
  30   2.0000      -0.846293       -23.0288
  31   2.0000      -0.816280       -22.2121
  32   2.0000      -0.784222       -21.3398
  33   2.0000      -0.771415       -20.9913
  34   2.0000      -0.716472       -19.4962
  35   2.0000      -0.702372       -19.1125
  36   2.0000      -0.680896       -18.5281
  37   2.0000      -0.663282       -18.0488
  38   2.0000      -0.654376       -17.8065
  39   2.0000      -0.613793       -16.7022
  40   2.0000      -0.590244       -16.0613
  41   2.0000      -0.569485       -15.4965
  42   2.0000      -0.559703       -15.2303
  43   2.0000      -0.554639       -15.0925
  44   2.0000      -0.543427       -14.7874
  45   2.0000      -0.522387       -14.2149
  46   2.0000      -0.520550       -14.1649
  47   2.0000      -0.513930       -13.9847
  48   2.0000      -0.507440       -13.8081
  49   2.0000      -0.498471       -13.5641
  50   2.0000      -0.490322       -13.3423
  51   2.0000      -0.475215       -12.9313
  52   2.0000      -0.472605       -12.8602
  53   2.0000      -0.464562       -12.6414
  54   2.0000      -0.457852       -12.4588
  55   2.0000      -0.455669       -12.3994
  56   2.0000      -0.441752       -12.0207
  57   2.0000      -0.439793       -11.9674
  58   2.0000      -0.430886       -11.7250
  59   2.0000      -0.429795       -11.6953
  60   2.0000      -0.416521       -11.3341
  61   2.0000      -0.413765       -11.2591
  62   2.0000      -0.410256       -11.1636
  63   2.0000      -0.335549        -9.1307
  64   2.0000      -0.326135        -8.8746
  65   2.0000      -0.324657        -8.8344
  66   2.0000      -0.302892        -8.2421
  67   0.0000       0.040872         1.1122
  68   0.0000       0.059423         1.6170
  69   0.0000       0.118654         3.2287
  70   0.0000       0.122395         3.3305
  71   0.0000       0.126482         3.4418

MULLIKEN ATOMIC CHARGES
-----------------------
   0 S :    0.140202
   1 C :   -0.089206
   2 C :   -0.057330
   3 C :    0.076555
   4 C :   -0.176870
   5 H :   -0.019793
   6 C :    0.002582
   7 H :    0.023571
   8 H :    0.038815
   9 C :   -0.037389
  10 H :    0.038378
  11 H :    0.021579
  12 C :   -0.040492
  13 H :    0.014105
  14 H :    0.024975
  15 H :    0.029343
  16 S :    0.109923
  17 C :   -0.066437
  18 C :   -0.024765
  19 C :   -0.038147
  20 C :   -0.207226
  21 H :   -0.002322
  22 C :    0.125477
  23 H :    0.009183
  24 H :    0.046225
  25 C :   -0.145438
  26 H :    0.033299
  27 H :    0.034382
  28 C :   -0.031651
  29 H :    0.046947
  30 H :    0.020951
  31 H :    0.040717
  32 H :    0.013654
  33 H :    0.046202
Sum of atomic charges:    0.0000000

LOEWDIN ATOMIC CHARGES
----------------------
   0 S :    0.440851
   1 C :   -0.181984
   2 C :   -0.059635
   3 C :   -0.053446
   4 C :   -0.219690
   5 H :    0.022381
   6 C :   -0.047978
   7 H :    0.032115
   8 H :    0.039521
   9 C :   -0.024122
  10 H :    0.026409
  11 H :    0.014836
  12 C :   -0.064284
  13 H :    0.019528
  14 H :    0.023675
  15 H :    0.027210
  16 S :    0.396699
  17 C :   -0.183826
  18 C :   -0.067156
  19 C :   -0.044003
  20 C :   -0.203054
  21 H :    0.019530
  22 C :   -0.025802
  23 H :    0.021735
  24 H :    0.042805
  25 C :   -0.051195
  26 H :    0.027294
  27 H :    0.022944
  28 C :   -0.066159
  29 H :    0.022695
  30 H :    0.021390
  31 H :    0.037435
  32 H :    0.007386
  33 H :    0.025895

  Mayer bond orders larger than 0.100000
B(  0-S ,  1-C ) :   1.1547 B(  0-S ,  4-C ) :   1.1688 B(  1-C ,  2-C ) :   1.5716
B(  1-C , 32-H ) :   0.9847 B(  2-C ,  3-C ) :   1.2267 B(  2-C ,  6-C ) :   1.0512
B(  3-C ,  4-C ) :   1.6008 B(  3-C ,  5-H ) :   0.9924 B(  4-C , 20-C ) :   1.0115
B(  6-C ,  7-H ) :   0.9496 B(  6-C ,  8-H ) :   0.9335 B(  6-C ,  9-C ) :   1.0384
B(  9-C , 10-H ) :   0.9659 B(  9-C , 11-H ) :   0.9547 B(  9-C , 12-C ) :   1.0752
B( 12-C , 13-H ) :   0.9728 B( 12-C , 14-H ) :   0.9765 B( 12-C , 15-H ) :   0.9791
B( 16-S , 17-C ) :   1.1446 B( 16-S , 20-C ) :   1.1312 B( 17-C , 18-C ) :   1.6326
B( 17-C , 33-H ) :   0.9696 B( 18-C , 19-C ) :   1.2126 B( 18-C , 21-H ) :   0.9957
B( 19-C , 20-C ) :   1.6242 B( 19-C , 22-C ) :   1.0367 B( 22-C , 23-H ) :   0.9370
B( 22-C , 24-H ) :   0.9260 B( 22-C , 25-C ) :   1.0728 B( 25-C , 26-H ) :   0.9583
B( 25-C , 27-H ) :   0.9516 B( 25-C , 28-C ) :   1.0735 B( 28-C , 29-H ) :   0.9714
B( 28-C , 30-H ) :   0.9754 B( 28-C , 31-H ) :   0.9721

Dispersion correction           -0.015001472
FINAL SINGLE POINT ENERGY     -1339.861194962383

DIPOLE MOMENT
-------------
                                X             Y             Z
Electronic contribution:      6.17030     -10.34259     -24.74674
Nuclear contribution   :     -6.28652      10.77009      25.11173
                        -----------------------------------------
Total Dipole Moment    :     -0.11622       0.42750       0.36499
                        -----------------------------------------
Magnitude (a.u.)       :      0.57401
Magnitude (Debye)      :      1.45901

Rotational constants in cm-1:     0.020884     0.008111     0.006827
Rotational constants in MHz :   626.098436   243.161092   204.656636

                             ****ORCA TERMINATED NORMALLY****
TOTAL RUN TIME: 0 days 0 hours 0 minutes 33 seconds 105 msec
