                         Program Version 4.2.1 -  RELEASE  -
|  1> ! wB97X-D3 SP def2-SVP
|  2> %pal
|  3> nprocs 16
|  4> end
|  5>
|  6> * xyz 0 1
|  7> S 	 4.38891 	 -9.97362 	 102.052
|  8> C 	 5.77161 	 -8.93642 	 101.818
|  9> C 	 6.69518 	 -9.35394 	 100.897
| 10> C 	 6.28168 	 -10.5677 	 100.346
| 11> C 	 5.11225 	 -11.1142 	 100.958
| 12> H 	 6.73784 	 -11.1936 	 99.5983
| 13> C 	 7.9823 	 -8.64523 	 100.569
| 14> H 	 7.64554 	 -7.62166 	 100.301
| 15> H 	 8.49575 	 -9.02643 	 99.6867
| 16> C 	 9.01944 	 -8.64054 	 101.74
| 17> H 	 8.72716 	 -7.8225 	 102.461
| 18> H 	 9.25442 	 -9.69062 	 102.163
| 19> C 	 10.3799 	 -8.10845 	 101.343
| 20> H 	 10.2668 	 -7.20973 	 100.793
| 21> H 	 11.0408 	 -8.07145 	 102.183
| 22> H 	 10.8398 	 -8.84818 	 100.746
| 23> S 	 2.94469 	 -12.2049 	 99.7
| 24> C 	 2.95066 	 -13.9564 	 99.4016
| 25> C 	 4.0908 	 -14.4995 	 99.9126
| 26> C 	 5.02243 	 -13.6061 	 100.544
| 27> C 	 4.48458 	 -12.3253 	 100.504
| 28> H 	 4.31912 	 -15.5207 	 99.6859
| 29> C 	 6.31186 	 -14.0278 	 101.242
| 30> H 	 5.96685 	 -14.5965 	 102.092
| 31> H 	 6.84113 	 -13.114 	 101.615
| 32> C 	 7.31885 	 -14.839 	 100.312
| 33> H 	 7.59394 	 -14.162 	 99.4918
| 34> H 	 6.93843 	 -15.6732 	 99.7746
| 35> C 	 8.66539 	 -15.1947 	 101.028
| 36> H 	 9.25133 	 -14.3237 	 101.408
| 37> H 	 9.2932 	 -15.6839 	 100.282
| 38> H 	 8.47236 	 -15.8626 	 101.874
| 39> H 	 6.07554 	 -8.12028 	 102.4
| 40> H 	 2.16962 	 -14.5348 	 98.8578
| 41> *
| 42>
| 43>                          ****END OF INPUT****

CARTESIAN COORDINATES (ANGSTROEM)
---------------------------------
  S      4.388910   -9.973620  102.052000
  C      5.771610   -8.936420  101.818000
  C      6.695180   -9.353940  100.897000
  C      6.281680  -10.567700  100.346000
  C      5.112250  -11.114200  100.958000
  H      6.737840  -11.193600   99.598300
  C      7.982300   -8.645230  100.569000
  H      7.645540   -7.621660  100.301000
  H      8.495750   -9.026430   99.686700
  C      9.019440   -8.640540  101.740000
  H      8.727160   -7.822500  102.461000
  H      9.254420   -9.690620  102.163000
  C     10.379900   -8.108450  101.343000
  H     10.266800   -7.209730  100.793000
  H     11.040800   -8.071450  102.183000
  H     10.839800   -8.848180  100.746000
  S      2.944690  -12.204900   99.700000
  C      2.950660  -13.956400   99.401600
  C      4.090800  -14.499500   99.912600
  C      5.022430  -13.606100  100.544000
  C      4.484580  -12.325300  100.504000
  H      4.319120  -15.520700   99.685900
  C      6.311860  -14.027800  101.242000
  H      5.966850  -14.596500  102.092000
  H      6.841130  -13.114000  101.615000
  C      7.318850  -14.839000  100.312000
  H      7.593940  -14.162000   99.491800
  H      6.938430  -15.673200   99.774600
  C      8.665390  -15.194700  101.028000
  H      9.251330  -14.323700  101.408000
  H      9.293200  -15.683900  100.282000
  H      8.472360  -15.862600  101.874000
  H      6.075540   -8.120280  102.400000
  H      2.169620  -14.534800   98.857800

 Total Charge           Charge          ....    0
 Multiplicity           Mult            ....    1
 Number of Electrons    NEL             ....  134
 Basis Dimension        Dim             ....  322

ORBITAL ENERGIES
----------------

  NO   OCC          E(Eh)            E(eV)
   0   2.0000     -88.972167     -2421.0558
   1   2.0000     -88.962523     -2420.7933
   2   2.0000     -10.323322      -280.9119
   3   2.0000     -10.320116      -280.8246
   4   2.0000     -10.317878      -280.7637
   5   2.0000     -10.303768      -280.3798
   6   2.0000     -10.301145      -280.3084
   7   2.0000     -10.298959      -280.2489
   8   2.0000     -10.298775      -280.2439
   9   2.0000     -10.298434      -280.2346
  10   2.0000     -10.295294      -280.1492
  11   2.0000     -10.292004      -280.0597
  12   2.0000     -10.291114      -280.0355
  13   2.0000     -10.288722      -279.9704
  14   2.0000     -10.284428      -279.8535
  15   2.0000     -10.268714      -279.4259
  16   2.0000      -8.086548      -220.0462
  17   2.0000      -8.077210      -219.7921
  18   2.0000      -6.044892      -164.4899
  19   2.0000      -6.041143      -164.3879
  20   2.0000      -6.037496      -164.2886
  21   2.0000      -6.035762      -164.2414
  22   2.0000      -6.031830      -164.1344
  23   2.0000      -6.027814      -164.0252
  24   2.0000      -1.006388       -27.3852
  25   2.0000      -0.982748       -26.7419
  26   2.0000      -0.913827       -24.8665
  27   2.0000      -0.898208       -24.4415
  28   2.0000      -0.872719       -23.7479
  29   2.0000      -0.855122       -23.2690
  30   2.0000      -0.846113       -23.0239
  31   2.0000      -0.811357       -22.0781
  32   2.0000      -0.784304       -21.3420
  33   2.0000      -0.768800       -20.9201
  34   2.0000      -0.706599       -19.2275
  35   2.0000      -0.700315       -19.0565
  36   2.0000      -0.691976       -18.8296
  37   2.0000      -0.655801       -17.8452
  38   2.0000      -0.638517       -17.3749
  39   2.0000      -0.611186       -16.6312
  40   2.0000      -0.591769       -16.1029
  41   2.0000      -0.575667       -15.6647
  42   2.0000      -0.567505       -15.4426
  43   2.0000      -0.558465       -15.1966
  44   2.0000      -0.535001       -14.5581
  45   2.0000      -0.525564       -14.3013
  46   2.0000      -0.518098       -14.0982
  47   2.0000      -0.509262       -13.8577
  48   2.0000      -0.501781       -13.6542
  49   2.0000      -0.496582       -13.5127
  50   2.0000      -0.486715       -13.2442
  51   2.0000      -0.478196       -13.0124
  52   2.0000      -0.467870       -12.7314
  53   2.0000      -0.463806       -12.6208
  54   2.0000      -0.460803       -12.5391
  55   2.0000      -0.448234       -12.1971
  56   2.0000      -0.442931       -12.0528
  57   2.0000      -0.440591       -11.9891
  58   2.0000      -0.435464       -11.8496
  59   2.0000      -0.427153       -11.6234
  60   2.0000      -0.426061       -11.5937
  61   2.0000      -0.417177       -11.3520
  62   2.0000      -0.410556       -11.1718
  63   2.0000      -0.339973        -9.2511
  64   2.0000      -0.334033        -9.0895
  65   2.0000      -0.326327        -8.8798
  66   2.0000      -0.290495        -7.9048
  67   0.0000       0.035708         0.9717
  68   0.0000       0.065201         1.7742
  69   0.0000       0.114518         3.1162
  70   0.0000       0.126394         3.4393
  71   0.0000       0.127945         3.4815

MULLIKEN ATOMIC CHARGES
-----------------------
   0 S :    0.140062
   1 C :   -0.089027
   2 C :   -0.058589
   3 C :    0.029408
   4 C :   -0.210353
   5 H :    0.004572
   6 C :    0.068112
   7 H :    0.038705
   8 H :    0.018480
   9 C :   -0.133134
  10 H :    0.041373
  11 H :    0.054304
  12 C :   -0.003473
  13 H :    0.025609
  14 H :    0.029410
  15 H :    0.008034
  16 S :    0.107433
  17 C :   -0.111960
  18 C :   -0.021065
  19 C :   -0.033353
  20 C :   -0.168098
  21 H :    0.007869
  22 C :    0.078260
  23 H :    0.040527
  24 H :    0.040681
  25 C :   -0.094846
  26 H :    0.025432
  27 H :    0.028360
  28 C :   -0.060577
  29 H :    0.038471
  30 H :    0.036505
  31 H :    0.036848
  32 H :    0.014847
  33 H :    0.071174
Sum of atomic charges:   -0.0000000

LOEWDIN ATOMIC CHARGES
----------------------
   0 S :    0.426468
   1 C :   -0.194180
   2 C :   -0.065647
   3 C :   -0.052853
   4 C :   -0.208222
   5 H :    0.027515
   6 C :   -0.033503
   7 H :    0.039234
   8 H :    0.028361
   9 C :   -0.046804
  10 H :    0.030116
  11 H :    0.038028
  12 C :   -0.061580
  13 H :    0.019817
  14 H :    0.026123
  15 H :    0.015477
  16 S :    0.392339
  17 C :   -0.186575
  18 C :   -0.070891
  19 C :   -0.058211
  20 C :   -0.204578
  21 H :    0.025170
  22 C :   -0.027169
  23 H :    0.032309
  24 H :    0.038097
  25 C :   -0.039868
  26 H :    0.025527
  27 H :    0.017848
  28 C :   -0.068472
  29 H :    0.028733
  30 H :    0.027089
  31 H :    0.024156
  32 H :    0.015473
  33 H :    0.040671

  Mayer bond orders larger than 0.100000
B(  0-S ,  1-C ) :   1.1493 B(  0-S ,  4-C ) :   1.1633 B(  1-C ,  2-C ) :   1.6024
B(  1-C ,  4-C ) :   0.1042 B(  1-C , 32-H ) :   0.9630 B(  2-C ,  3-C ) :   1.2668
B(  2-C ,  6-C ) :   1.0152 B(  3-C ,  4-C ) :   1.5340 B(  3-C ,  5-H ) :   0.9984
B(  4-C , 20-C ) :   1.0413 B(  6-C ,  7-H ) :   0.9305 B(  6-C ,  8-H ) :   0.9489
B(  6-C ,  9-C ) :   1.0616 B(  9-C , 10-H ) :   0.9548 B(  9-C , 11-H ) :   0.9598
B(  9-C , 12-C ) :   1.0868 B( 12-C , 13-H ) :   0.9717 B( 12-C , 14-H ) :   0.9720
B( 12-C , 15-H ) :   0.9717 B( 16-S , 17-C ) :   1.1237 B( 16-S , 20-C ) :   1.1495
B( 17-C , 18-C ) :   1.6449 B( 17-C , 33-H ) :   0.9635 B( 18-C , 19-C ) :   1.2217
B( 18-C , 21-H ) :   0.9857 B( 19-C , 20-C ) :   1.6037 B( 19-C , 22-C ) :   1.0403
B( 22-C , 23-H ) :   0.9372 B( 22-C , 24-H ) :   0.9317 B( 22-C , 25-C ) :   1.0436
B( 25-C , 26-H ) :   0.9562 B( 25-C , 27-H ) :   0.9619 B( 25-C , 28-C ) :   1.0836
B( 28-C , 29-H ) :   0.9756 B( 28-C , 30-H ) :   0.9751 B( 28-C , 31-H ) :   0.9771

Dispersion correction           -0.013830332
FINAL SINGLE POINT ENERGY     -1339.870301780724

DIPOLE MOMENT
-------------
                                X             Y             Z
Electronic contribution:    -32.30576       2.89042      -1.14205
Nuclear contribution   :     33.06853      -3.06900       1.02199
                        -----------------------------------------
Total Dipole Moment    :      0.76277      -0.17858      -0.12006
                        -----------------------------------------
Magnitude (a.u.)       :      0.79254
Magnitude (Debye)      :      2.01448

Rotational constants in cm-1:     0.016950     0.008809     0.006302
Rotational constants in MHz :   508.157441   264.081098   188.941418

                             ****ORCA TERMINATED NORMALLY****
TOTAL RUN TIME: 0 days 0 hours 0 minutes 33 seconds 456 msec
