                         Program Version 4.2.1 -  RELEASE  -
|  1> ! wB97X-D3 SP def2-SVP
|  2> %pal
|  3> nprocs 16
|  4> end
|  5>
|  6> * xyz 0 1
|  7> S 	 -31.8807 	 63.9186 	 105.356
|  8> C 	 -31.7742 	 65.3302 	 106.371
|  9> C 	 -31.2396 	 66.3918 	 105.635
| 10> C 	 -30.7583 	 66.0169 	 104.322
| 11> C 	 -30.9403 	 64.6884 	 104.047
| 12> H 	 -30.3045 	 66.6394 	 103.476
| 13> C 	 -31.2196 	 67.8207 	 106.143
| 14> H 	 -31.8691 	 67.7322 	 107.015
| 15> H 	 -31.7374 	 68.3452 	 105.321
| 16> C 	 -29.8794 	 68.4937 	 106.465
| 17> H 	 -29.1331 	 68.4368 	 105.671
| 18> H 	 -30.0413 	 69.4985 	 106.576
| 19> C 	 -29.3102 	 67.9644 	 107.79
| 20> H 	 -28.6436 	 68.634 	 108.319
| 21> H 	 -30.1155 	 67.7145 	 108.541
| 22> H 	 -28.7683 	 67.0322 	 107.588
| 23> S 	 -32.0236 	 63.3451 	 101.873
| 24> C 	 -30.9805 	 62.787 	 100.579
| 25> C 	 -29.6567 	 63.0213 	 100.842
| 26> C 	 -29.459 	 63.8851 	 101.976
| 27> C 	 -30.6434 	 64.021 	 102.74
| 28> H 	 -28.905 	 62.6964 	 100.212
| 29> C 	 -28.1276 	 64.5257 	 102.332
| 30> H 	 -28.1982 	 65.1587 	 103.209
| 31> H 	 -27.7836 	 65.1103 	 101.449
| 32> C 	 -26.8815 	 63.667 	 102.567
| 33> H 	 -26.0922 	 64.2659 	 102.74
| 34> H 	 -26.687 	 62.9757 	 101.761
| 35> C 	 -27.0532 	 62.7813 	 103.806
| 36> H 	 -27.8406 	 61.9373 	 103.713
| 37> H 	 -27.3518 	 63.3925 	 104.658
| 38> H 	 -26.1454 	 62.2089 	 104.08
| 39> H 	 -32.2462 	 65.4402 	 107.338
| 40> H 	 -31.2522 	 62.2923 	 99.6953
| 41> *
| 42>
| 43>                          ****END OF INPUT****

CARTESIAN COORDINATES (ANGSTROEM)
---------------------------------
  S    -31.880700   63.918600  105.356000
  C    -31.774200   65.330200  106.371000
  C    -31.239600   66.391800  105.635000
  C    -30.758300   66.016900  104.322000
  C    -30.940300   64.688400  104.047000
  H    -30.304500   66.639400  103.476000
  C    -31.219600   67.820700  106.143000
  H    -31.869100   67.732200  107.015000
  H    -31.737400   68.345200  105.321000
  C    -29.879400   68.493700  106.465000
  H    -29.133100   68.436800  105.671000
  H    -30.041300   69.498500  106.576000
  C    -29.310200   67.964400  107.790000
  H    -28.643600   68.634000  108.319000
  H    -30.115500   67.714500  108.541000
  H    -28.768300   67.032200  107.588000
  S    -32.023600   63.345100  101.873000
  C    -30.980500   62.787000  100.579000
  C    -29.656700   63.021300  100.842000
  C    -29.459000   63.885100  101.976000
  C    -30.643400   64.021000  102.740000
  H    -28.905000   62.696400  100.212000
  C    -28.127600   64.525700  102.332000
  H    -28.198200   65.158700  103.209000
  H    -27.783600   65.110300  101.449000
  C    -26.881500   63.667000  102.567000
  H    -26.092200   64.265900  102.740000
  H    -26.687000   62.975700  101.761000
  C    -27.053200   62.781300  103.806000
  H    -27.840600   61.937300  103.713000
  H    -27.351800   63.392500  104.658000
  H    -26.145400   62.208900  104.080000
  H    -32.246200   65.440200  107.338000
  H    -31.252200   62.292300   99.695300

 Total Charge           Charge          ....    0
 Multiplicity           Mult            ....    1
 Number of Electrons    NEL             ....  134
 Basis Dimension        Dim             ....  322

ORBITAL ENERGIES
----------------

  NO   OCC          E(Eh)            E(eV)
   0   2.0000     -88.966883     -2420.9120
   1   2.0000     -88.965163     -2420.8652
   2   2.0000     -10.333982      -281.2020
   3   2.0000     -10.333237      -281.1817
   4   2.0000     -10.316186      -280.7177
   5   2.0000     -10.314532      -280.6727
   6   2.0000     -10.310750      -280.5698
   7   2.0000     -10.304694      -280.4050
   8   2.0000     -10.300325      -280.2861
   9   2.0000     -10.293511      -280.1007
  10   2.0000     -10.293189      -280.0919
  11   2.0000     -10.290459      -280.0176
  12   2.0000     -10.282377      -279.7977
  13   2.0000     -10.278873      -279.7024
  14   2.0000     -10.276725      -279.6439
  15   2.0000     -10.275997      -279.6241
  16   2.0000      -8.081245      -219.9019
  17   2.0000      -8.079399      -219.8516
  18   2.0000      -6.039863      -164.3530
  19   2.0000      -6.038025      -164.3030
  20   2.0000      -6.035780      -164.2419
  21   2.0000      -6.034003      -164.1936
  22   2.0000      -6.031930      -164.1372
  23   2.0000      -6.030023      -164.0853
  24   2.0000      -1.000998       -27.2385
  25   2.0000      -0.981536       -26.7090
  26   2.0000      -0.911499       -24.8031
  27   2.0000      -0.910417       -24.7737
  28   2.0000      -0.868314       -23.6280
  29   2.0000      -0.848082       -23.0775
  30   2.0000      -0.843012       -22.9395
  31   2.0000      -0.817726       -22.2515
  32   2.0000      -0.777795       -21.1649
  33   2.0000      -0.768134       -20.9020
  34   2.0000      -0.712028       -19.3753
  35   2.0000      -0.699219       -19.0267
  36   2.0000      -0.694772       -18.9057
  37   2.0000      -0.659480       -17.9454
  38   2.0000      -0.639655       -17.4059
  39   2.0000      -0.615388       -16.7456
  40   2.0000      -0.599989       -16.3265
  41   2.0000      -0.566731       -15.4215
  42   2.0000      -0.557312       -15.1652
  43   2.0000      -0.550414       -14.9775
  44   2.0000      -0.544895       -14.8273
  45   2.0000      -0.537851       -14.6357
  46   2.0000      -0.520726       -14.1697
  47   2.0000      -0.513032       -13.9603
  48   2.0000      -0.502979       -13.6867
  49   2.0000      -0.497199       -13.5295
  50   2.0000      -0.480892       -13.0857
  51   2.0000      -0.474752       -12.9187
  52   2.0000      -0.468667       -12.7531
  53   2.0000      -0.463726       -12.6186
  54   2.0000      -0.457284       -12.4433
  55   2.0000      -0.444935       -12.1073
  56   2.0000      -0.442342       -12.0367
  57   2.0000      -0.435682       -11.8555
  58   2.0000      -0.433350       -11.7921
  59   2.0000      -0.425673       -11.5831
  60   2.0000      -0.421998       -11.4831
  61   2.0000      -0.420585       -11.4447
  62   2.0000      -0.409692       -11.1483
  63   2.0000      -0.348978        -9.4962
  64   2.0000      -0.329235        -8.9589
  65   2.0000      -0.324322        -8.8253
  66   2.0000      -0.294006        -8.0003
  67   0.0000       0.033739         0.9181
  68   0.0000       0.065199         1.7742
  69   0.0000       0.113390         3.0855
  70   0.0000       0.116255         3.1635
  71   0.0000       0.127784         3.4772

MULLIKEN ATOMIC CHARGES
-----------------------
   0 S :    0.102012
   1 C :   -0.112015
   2 C :   -0.120601
   3 C :    0.015389
   4 C :   -0.151642
   5 H :    0.052116
   6 C :    0.047372
   7 H :    0.014868
   8 H :    0.039957
   9 C :    0.006687
  10 H :    0.026261
  11 H :    0.008319
  12 C :   -0.084218
  13 H :    0.032693
  14 H :    0.027425
  15 H :    0.043451
  16 S :    0.110177
  17 C :   -0.064005
  18 C :   -0.004405
  19 C :   -0.025593
  20 C :   -0.174610
  21 H :   -0.007552
  22 C :    0.037287
  23 H :    0.022995
  24 H :    0.039613
  25 C :   -0.004208
  26 H :    0.007908
  27 H :    0.023248
  28 C :   -0.110270
  29 H :    0.047375
  30 H :    0.029918
  31 H :    0.033091
  32 H :    0.053587
  33 H :    0.037371
Sum of atomic charges:    0.0000000

LOEWDIN ATOMIC CHARGES
----------------------
   0 S :    0.389919
   1 C :   -0.205386
   2 C :   -0.064113
   3 C :   -0.075719
   4 C :   -0.185377
   5 H :    0.049330
   6 C :   -0.030025
   7 H :    0.028710
   8 H :    0.037893
   9 C :   -0.034517
  10 H :    0.026704
  11 H :    0.013871
  12 C :   -0.068614
  13 H :    0.022559
  14 H :    0.027625
  15 H :    0.028743
  16 S :    0.401071
  17 C :   -0.172830
  18 C :   -0.059360
  19 C :   -0.048574
  20 C :   -0.195476
  21 H :    0.019603
  22 C :   -0.033040
  23 H :    0.028407
  24 H :    0.039535
  25 C :   -0.029800
  26 H :    0.011732
  27 H :    0.021639
  28 C :   -0.076548
  29 H :    0.034206
  30 H :    0.021535
  31 H :    0.023884
  32 H :    0.030808
  33 H :    0.021606

  Mayer bond orders larger than 0.100000
B(  0-S ,  1-C ) :   1.1289 B(  0-S ,  4-C ) :   1.1428 B(  1-C ,  2-C ) :   1.6171
B(  1-C , 32-H ) :   0.9670 B(  2-C ,  3-C ) :   1.2126 B(  2-C ,  6-C ) :   1.0202
B(  3-C ,  4-C ) :   1.6039 B(  3-C ,  5-H ) :   0.9780 B(  4-C , 20-C ) :   1.0196
B(  6-C ,  7-H ) :   0.9436 B(  6-C ,  8-H ) :   0.9357 B(  6-C ,  9-C ) :   1.0744
B(  9-C , 10-H ) :   0.9559 B(  9-C , 11-H ) :   0.9514 B(  9-C , 12-C ) :   1.0636
B( 12-C , 13-H ) :   0.9771 B( 12-C , 14-H ) :   0.9770 B( 12-C , 15-H ) :   0.9791
B( 16-S , 17-C ) :   1.1454 B( 16-S , 20-C ) :   1.1429 B( 17-C , 18-C ) :   1.6267
B( 17-C , 33-H ) :   0.9713 B( 18-C , 19-C ) :   1.2282 B( 18-C , 21-H ) :   0.9970
B( 19-C , 20-C ) :   1.5907 B( 19-C , 22-C ) :   1.0499 B( 22-C , 23-H ) :   0.9374
B( 22-C , 24-H ) :   0.9296 B( 22-C , 25-C ) :   1.0861 B( 25-C , 26-H ) :   0.9496
B( 25-C , 27-H ) :   0.9524 B( 25-C , 28-C ) :   1.0741 B( 28-C , 29-H ) :   0.9752
B( 28-C , 30-H ) :   0.9760 B( 28-C , 31-H ) :   0.9752

Dispersion correction           -0.014426988
FINAL SINGLE POINT ENERGY     -1339.868920429731

DIPOLE MOMENT
-------------
                                X             Y             Z
Electronic contribution:    -21.07282     -12.62863     -10.28663
Nuclear contribution   :     21.54630      13.12787      10.14354
                        -----------------------------------------
Total Dipole Moment    :      0.47348       0.49923      -0.14309
                        -----------------------------------------
Magnitude (a.u.)       :      0.70278
Magnitude (Debye)      :      1.78631

Rotational constants in cm-1:     0.019225     0.008595     0.006959
Rotational constants in MHz :   576.361040   257.656873   208.622281

                             ****ORCA TERMINATED NORMALLY****
TOTAL RUN TIME: 0 days 0 hours 0 minutes 30 seconds 673 msec
