                         Program Version 4.2.1 -  RELEASE  -
|  1> ! wB97X-D3 SP def2-SVP
|  2> %pal
|  3> nprocs 16
|  4> end
|  5>
|  6> * xyz 0 1
|  7> S 	 11.4689 	 22.5127 	 60.9228
|  8> C 	 11.4239 	 20.7561 	 61.0077
|  9> C 	 10.4456 	 20.2575 	 61.8706
| 10> C 	 9.66603 	 21.3464 	 62.4644
| 11> C 	 10.0529 	 22.5861 	 62.0053
| 12> H 	 8.89612 	 21.3042 	 63.2142
| 13> C 	 10.4023 	 18.8042 	 62.3546
| 14> H 	 9.64457 	 18.1738 	 61.9414
| 15> H 	 10.0206 	 18.9001 	 63.3719
| 16> C 	 11.7214 	 18.0079 	 62.4562
| 17> H 	 11.5755 	 17.1911 	 63.1188
| 18> H 	 12.1031 	 17.595 	 61.4955
| 19> C 	 12.8093 	 18.8135 	 63.2078
| 20> H 	 13.6808 	 18.2079 	 63.4426
| 21> H 	 13.2154 	 19.7512 	 62.8139
| 22> H 	 12.5296 	 19.0665 	 64.2083
| 23> S 	 10.2316 	 24.6283 	 63.7506
| 24> C 	 9.06069 	 25.9346 	 63.8139
| 25> C 	 8.11736 	 25.6686 	 62.8243
| 26> C 	 8.43001 	 24.5879 	 61.9348
| 27> C 	 9.47887 	 23.8426 	 62.4179
| 28> H 	 7.35433 	 26.3956 	 62.6454
| 29> C 	 7.60976 	 24.0925 	 60.7848
| 30> H 	 8.22566 	 23.4305 	 60.1345
| 31> H 	 7.35125 	 25.0332 	 60.2659
| 32> C 	 6.28718 	 23.5205 	 61.2401
| 33> H 	 5.76896 	 24.215 	 61.9465
| 34> H 	 6.51844 	 22.689 	 61.9388
| 35> C 	 5.22309 	 23.2108 	 60.1076
| 36> H 	 4.58106 	 22.5219 	 60.5376
| 37> H 	 5.59535 	 22.786 	 59.1667
| 38> H 	 4.6209 	 24.1094 	 59.8118
| 39> H 	 12.193 	 20.1388 	 60.4801
| 40> H 	 9.044 	 26.7476 	 64.595
| 41> *
| 42>
| 43>                          ****END OF INPUT****

CARTESIAN COORDINATES (ANGSTROEM)
---------------------------------
  S     11.468900   22.512700   60.922800
  C     11.423900   20.756100   61.007700
  C     10.445600   20.257500   61.870600
  C      9.666030   21.346400   62.464400
  C     10.052900   22.586100   62.005300
  H      8.896120   21.304200   63.214200
  C     10.402300   18.804200   62.354600
  H      9.644570   18.173800   61.941400
  H     10.020600   18.900100   63.371900
  C     11.721400   18.007900   62.456200
  H     11.575500   17.191100   63.118800
  H     12.103100   17.595000   61.495500
  C     12.809300   18.813500   63.207800
  H     13.680800   18.207900   63.442600
  H     13.215400   19.751200   62.813900
  H     12.529600   19.066500   64.208300
  S     10.231600   24.628300   63.750600
  C      9.060690   25.934600   63.813900
  C      8.117360   25.668600   62.824300
  C      8.430010   24.587900   61.934800
  C      9.478870   23.842600   62.417900
  H      7.354330   26.395600   62.645400
  C      7.609760   24.092500   60.784800
  H      8.225660   23.430500   60.134500
  H      7.351250   25.033200   60.265900
  C      6.287180   23.520500   61.240100
  H      5.768960   24.215000   61.946500
  H      6.518440   22.689000   61.938800
  C      5.223090   23.210800   60.107600
  H      4.581060   22.521900   60.537600
  H      5.595350   22.786000   59.166700
  H      4.620900   24.109400   59.811800
  H     12.193000   20.138800   60.480100
  H      9.044000   26.747600   64.595000

 Total Charge           Charge          ....    0
 Multiplicity           Mult            ....    1
 Number of Electrons    NEL             ....  134
 Basis Dimension        Dim             ....  322

ORBITAL ENERGIES
----------------

  NO   OCC          E(Eh)            E(eV)
   0   2.0000     -88.967197     -2420.9205
   1   2.0000     -88.958672     -2420.6885
   2   2.0000     -10.328191      -281.0444
   3   2.0000     -10.323669      -280.9213
   4   2.0000     -10.320523      -280.8357
   5   2.0000     -10.316249      -280.7194
   6   2.0000     -10.309631      -280.5393
   7   2.0000     -10.300473      -280.2901
   8   2.0000     -10.298300      -280.2310
   9   2.0000     -10.293884      -280.1108
  10   2.0000     -10.293787      -280.1082
  11   2.0000     -10.292958      -280.0856
  12   2.0000     -10.291102      -280.0351
  13   2.0000     -10.289299      -279.9861
  14   2.0000     -10.278521      -279.6928
  15   2.0000     -10.270880      -279.4849
  16   2.0000      -8.081218      -219.9011
  17   2.0000      -8.074157      -219.7090
  18   2.0000      -6.039708      -164.3488
  19   2.0000      -6.035915      -164.2456
  20   2.0000      -6.032615      -164.1558
  21   2.0000      -6.031952      -164.1378
  22   2.0000      -6.028314      -164.0388
  23   2.0000      -6.025157      -163.9529
  24   2.0000      -1.006647       -27.3923
  25   2.0000      -0.979182       -26.6449
  26   2.0000      -0.909043       -24.7363
  27   2.0000      -0.907110       -24.6837
  28   2.0000      -0.867566       -23.6077
  29   2.0000      -0.846384       -23.0313
  30   2.0000      -0.843060       -22.9408
  31   2.0000      -0.811174       -22.0732
  32   2.0000      -0.784076       -21.3358
  33   2.0000      -0.772561       -21.0225
  34   2.0000      -0.707197       -19.2438
  35   2.0000      -0.700500       -19.0616
  36   2.0000      -0.693275       -18.8650
  37   2.0000      -0.660047       -17.9608
  38   2.0000      -0.644143       -17.5280
  39   2.0000      -0.607534       -16.5318
  40   2.0000      -0.591029       -16.0827
  41   2.0000      -0.571969       -15.5641
  42   2.0000      -0.557378       -15.1670
  43   2.0000      -0.551350       -15.0030
  44   2.0000      -0.535792       -14.5797
  45   2.0000      -0.525143       -14.2899
  46   2.0000      -0.511723       -13.9247
  47   2.0000      -0.511059       -13.9066
  48   2.0000      -0.507982       -13.8229
  49   2.0000      -0.493694       -13.4341
  50   2.0000      -0.485931       -13.2229
  51   2.0000      -0.474842       -12.9211
  52   2.0000      -0.469818       -12.7844
  53   2.0000      -0.461472       -12.5573
  54   2.0000      -0.460549       -12.5322
  55   2.0000      -0.444341       -12.0911
  56   2.0000      -0.441781       -12.0215
  57   2.0000      -0.440364       -11.9829
  58   2.0000      -0.433743       -11.8028
  59   2.0000      -0.429573       -11.6893
  60   2.0000      -0.418566       -11.3898
  61   2.0000      -0.412050       -11.2125
  62   2.0000      -0.408843       -11.1252
  63   2.0000      -0.336608        -9.1596
  64   2.0000      -0.326028        -8.8717
  65   2.0000      -0.316524        -8.6130
  66   2.0000      -0.312256        -8.4969
  67   0.0000       0.047661         1.2969
  68   0.0000       0.053392         1.4529
  69   0.0000       0.109251         2.9729
  70   0.0000       0.121967         3.3189
  71   0.0000       0.130047         3.5388

MULLIKEN ATOMIC CHARGES
-----------------------
   0 S :    0.117298
   1 C :   -0.146179
   2 C :   -0.069852
   3 C :    0.055272
   4 C :   -0.178527
   5 H :    0.015847
   6 C :    0.086379
   7 H :    0.032414
   8 H :    0.013130
   9 C :   -0.061103
  10 H :    0.025933
  11 H :    0.040858
  12 C :   -0.061448
  13 H :    0.019164
  14 H :    0.037459
  15 H :    0.010664
  16 S :    0.106705
  17 C :   -0.118828
  18 C :   -0.037221
  19 C :   -0.032856
  20 C :   -0.201706
  21 H :    0.013278
  22 C :    0.098855
  23 H :    0.047647
  24 H :    0.017725
  25 C :   -0.112894
  26 H :    0.028415
  27 H :    0.023051
  28 C :   -0.020785
  29 H :    0.021547
  30 H :    0.034475
  31 H :    0.039549
  32 H :    0.071364
  33 H :    0.084371
Sum of atomic charges:   -0.0000000

LOEWDIN ATOMIC CHARGES
----------------------
   0 S :    0.387049
   1 C :   -0.192466
   2 C :   -0.061991
   3 C :   -0.046683
   4 C :   -0.191881
   5 H :    0.032189
   6 C :   -0.034626
   7 H :    0.029195
   8 H :    0.034195
   9 C :   -0.036478
  10 H :    0.028101
  11 H :    0.025805
  12 C :   -0.073889
  13 H :    0.024450
  14 H :    0.024014
  15 H :    0.021710
  16 S :    0.414822
  17 C :   -0.194095
  18 C :   -0.074585
  19 C :   -0.056585
  20 C :   -0.218552
  21 H :    0.024776
  22 C :   -0.035083
  23 H :    0.037248
  24 H :    0.033268
  25 C :   -0.044720
  26 H :    0.028983
  27 H :    0.023194
  28 C :   -0.064653
  29 H :    0.018334
  30 H :    0.026105
  31 H :    0.031696
  32 H :    0.035875
  33 H :    0.045280

  Mayer bond orders larger than 0.100000
B(  0-S ,  1-C ) :   1.1343 B(  0-S ,  4-C ) :   1.1268 B(  1-C ,  2-C ) :   1.6372
B(  1-C , 32-H ) :   0.9568 B(  2-C ,  3-C ) :   1.2076 B(  2-C ,  6-C ) :   1.0108
B(  3-C ,  4-C ) :   1.6327 B(  3-C ,  5-H ) :   0.9872 B(  4-C , 20-C ) :   1.0175
B(  6-C ,  7-H ) :   0.9321 B(  6-C ,  8-H ) :   0.9394 B(  6-C ,  9-C ) :   1.0838
B(  9-C , 10-H ) :   0.9511 B(  9-C , 11-H ) :   0.9554 B(  9-C , 12-C ) :   1.0741
B( 12-C , 13-H ) :   0.9728 B( 12-C , 14-H ) :   0.9752 B( 12-C , 15-H ) :   0.9716
B( 16-S , 17-C ) :   1.1582 B( 16-S , 20-C ) :   1.1665 B( 17-C , 18-C ) :   1.5942
B( 17-C , 20-C ) :   0.1018 B( 17-C , 33-H ) :   0.9638 B( 18-C , 19-C ) :   1.2426
B( 18-C , 21-H ) :   0.9850 B( 19-C , 20-C ) :   1.5860 B( 19-C , 22-C ) :   1.0596
B( 22-C , 23-H ) :   0.9270 B( 22-C , 24-H ) :   0.9171 B( 22-C , 25-C ) :   1.0704
B( 25-C , 26-H ) :   0.9539 B( 25-C , 27-H ) :   0.9556 B( 25-C , 28-C ) :   1.0590
B( 28-C , 29-H ) :   0.9742 B( 28-C , 30-H ) :   0.9793 B( 28-C , 31-H ) :   0.9764

Dispersion correction           -0.014688365
FINAL SINGLE POINT ENERGY     -1339.874413872723

DIPOLE MOMENT
-------------
                                X             Y             Z
Electronic contribution:     10.71305      16.00357       2.77268
Nuclear contribution   :    -11.09729     -16.36646      -2.62415
                        -----------------------------------------
Total Dipole Moment    :     -0.38424      -0.36289       0.14853
                        -----------------------------------------
Magnitude (a.u.)       :      0.54899
Magnitude (Debye)      :      1.39542

Rotational constants in cm-1:     0.020103     0.008206     0.006760
Rotational constants in MHz :   602.672589   246.001086   202.648092

                             ****ORCA TERMINATED NORMALLY****
TOTAL RUN TIME: 0 days 0 hours 0 minutes 34 seconds 791 msec
