                         Program Version 4.2.1 -  RELEASE  -
|  1> ! wB97X-D3 SP def2-SVP
|  2> %pal
|  3> nprocs 16
|  4> end
|  5>
|  6> * xyz 0 1
|  7> S 	 -19.5192 	 34.6808 	 37.9657
|  8> C 	 -20.7456 	 33.9588 	 36.9471
|  9> C 	 -20.3165 	 33.9568 	 35.6182
| 10> C 	 -19.1008 	 34.6417 	 35.4201
| 11> C 	 -18.5476 	 35.1604 	 36.5831
| 12> H 	 -18.5902 	 34.6069 	 34.4708
| 13> C 	 -21.0352 	 33.2661 	 34.4949
| 14> H 	 -21.3947 	 32.2765 	 34.7186
| 15> H 	 -20.3509 	 33.0531 	 33.679
| 16> C 	 -22.1482 	 34.0837 	 33.8032
| 17> H 	 -21.8646 	 35.1269 	 33.6116
| 18> H 	 -22.3072 	 33.7229 	 32.757
| 19> C 	 -23.5764 	 33.9005 	 34.3536
| 20> H 	 -23.7945 	 34.595 	 35.2265
| 21> H 	 -24.3129 	 34.0444 	 33.6283
| 22> H 	 -23.731 	 32.8356 	 34.6436
| 23> S 	 -16.0002 	 34.84 	 37.6389
| 24> C 	 -14.8013 	 36.054 	 37.3642
| 25> C 	 -15.3015 	 36.9956 	 36.4512
| 26> C 	 -16.6493 	 36.8303 	 36.0981
| 27> C 	 -17.1739 	 35.6725 	 36.622
| 28> H 	 -14.6887 	 37.8106 	 36.0934
| 29> C 	 -17.3907 	 37.7299 	 35.2303
| 30> H 	 -18.3941 	 37.6104 	 35.5134
| 31> H 	 -17.3114 	 37.3786 	 34.1584
| 32> C 	 -17.1155 	 39.2392 	 35.4628
| 33> H 	 -17.7267 	 39.8956 	 34.8361
| 34> H 	 -16.1038 	 39.506 	 35.127
| 35> C 	 -17.4269 	 39.7558 	 36.8984
| 36> H 	 -16.9853 	 40.7469 	 37.0232
| 37> H 	 -16.7115 	 39.237 	 37.6452
| 38> H 	 -18.4749 	 39.507 	 37.2279
| 39> H 	 -21.4561 	 33.1755 	 37.2435
| 40> H 	 -13.813 	 36.0953 	 37.7919
| 41> *
| 42>
| 43>                          ****END OF INPUT****

CARTESIAN COORDINATES (ANGSTROEM)
---------------------------------
  S    -19.519200   34.680800   37.965700
  C    -20.745600   33.958800   36.947100
  C    -20.316500   33.956800   35.618200
  C    -19.100800   34.641700   35.420100
  C    -18.547600   35.160400   36.583100
  H    -18.590200   34.606900   34.470800
  C    -21.035200   33.266100   34.494900
  H    -21.394700   32.276500   34.718600
  H    -20.350900   33.053100   33.679000
  C    -22.148200   34.083700   33.803200
  H    -21.864600   35.126900   33.611600
  H    -22.307200   33.722900   32.757000
  C    -23.576400   33.900500   34.353600
  H    -23.794500   34.595000   35.226500
  H    -24.312900   34.044400   33.628300
  H    -23.731000   32.835600   34.643600
  S    -16.000200   34.840000   37.638900
  C    -14.801300   36.054000   37.364200
  C    -15.301500   36.995600   36.451200
  C    -16.649300   36.830300   36.098100
  C    -17.173900   35.672500   36.622000
  H    -14.688700   37.810600   36.093400
  C    -17.390700   37.729900   35.230300
  H    -18.394100   37.610400   35.513400
  H    -17.311400   37.378600   34.158400
  C    -17.115500   39.239200   35.462800
  H    -17.726700   39.895600   34.836100
  H    -16.103800   39.506000   35.127000
  C    -17.426900   39.755800   36.898400
  H    -16.985300   40.746900   37.023200
  H    -16.711500   39.237000   37.645200
  H    -18.474900   39.507000   37.227900
  H    -21.456100   33.175500   37.243500
  H    -13.813000   36.095300   37.791900

 Total Charge           Charge          ....    0
 Multiplicity           Mult            ....    1
 Number of Electrons    NEL             ....  134
 Basis Dimension        Dim             ....  322

ORBITAL ENERGIES
----------------

  NO   OCC          E(Eh)            E(eV)
   0   2.0000     -88.971213     -2421.0298
   1   2.0000     -88.965156     -2420.8650
   2   2.0000     -10.330899      -281.1180
   3   2.0000     -10.322654      -280.8937
   4   2.0000     -10.317658      -280.7578
   5   2.0000     -10.314452      -280.6705
   6   2.0000     -10.299778      -280.2712
   7   2.0000     -10.293754      -280.1073
   8   2.0000     -10.292394      -280.0703
   9   2.0000     -10.290778      -280.0263
  10   2.0000     -10.290063      -280.0068
  11   2.0000     -10.289640      -279.9954
  12   2.0000     -10.289615      -279.9947
  13   2.0000     -10.286663      -279.9143
  14   2.0000     -10.286479      -279.9093
  15   2.0000     -10.278167      -279.6831
  16   2.0000      -8.085272      -220.0114
  17   2.0000      -8.079977      -219.8674
  18   2.0000      -6.043804      -164.4603
  19   2.0000      -6.039799      -164.3513
  20   2.0000      -6.038448      -164.3145
  21   2.0000      -6.036106      -164.2508
  22   2.0000      -6.034320      -164.2022
  23   2.0000      -6.030933      -164.1100
  24   2.0000      -1.008273       -27.4365
  25   2.0000      -0.986558       -26.8456
  26   2.0000      -0.911704       -24.8087
  27   2.0000      -0.909242       -24.7417
  28   2.0000      -0.866772       -23.5861
  29   2.0000      -0.851060       -23.1585
  30   2.0000      -0.844879       -22.9903
  31   2.0000      -0.811529       -22.0828
  32   2.0000      -0.783691       -21.3253
  33   2.0000      -0.772861       -21.0306
  34   2.0000      -0.704470       -19.1696
  35   2.0000      -0.700025       -19.0486
  36   2.0000      -0.695202       -18.9174
  37   2.0000      -0.657078       -17.8800
  38   2.0000      -0.638687       -17.3796
  39   2.0000      -0.621356       -16.9080
  40   2.0000      -0.598132       -16.2760
  41   2.0000      -0.569877       -15.5071
  42   2.0000      -0.559200       -15.2166
  43   2.0000      -0.545984       -14.8570
  44   2.0000      -0.536012       -14.5856
  45   2.0000      -0.529229       -14.4010
  46   2.0000      -0.524072       -14.2607
  47   2.0000      -0.508477       -13.8364
  48   2.0000      -0.504452       -13.7268
  49   2.0000      -0.491282       -13.3685
  50   2.0000      -0.488611       -13.2958
  51   2.0000      -0.483247       -13.1498
  52   2.0000      -0.475838       -12.9482
  53   2.0000      -0.465120       -12.6566
  54   2.0000      -0.459419       -12.5014
  55   2.0000      -0.440402       -11.9840
  56   2.0000      -0.438018       -11.9191
  57   2.0000      -0.436633       -11.8814
  58   2.0000      -0.434782       -11.8310
  59   2.0000      -0.428989       -11.6734
  60   2.0000      -0.421051       -11.4574
  61   2.0000      -0.407234       -11.0814
  62   2.0000      -0.402379       -10.9493
  63   2.0000      -0.341067        -9.2809
  64   2.0000      -0.332357        -9.0439
  65   2.0000      -0.327611        -8.9148
  66   2.0000      -0.296399        -8.0654
  67   0.0000       0.024758         0.6737
  68   0.0000       0.065424         1.7803
  69   0.0000       0.112573         3.0633
  70   0.0000       0.125830         3.4240
  71   0.0000       0.133938         3.6446

MULLIKEN ATOMIC CHARGES
-----------------------
   0 S :    0.118495
   1 C :   -0.105754
   2 C :   -0.103506
   3 C :    0.031954
   4 C :   -0.151912
   5 H :    0.015269
   6 C :    0.083493
   7 H :    0.015388
   8 H :    0.013977
   9 C :   -0.091777
  10 H :    0.031205
  11 H :    0.022558
  12 C :   -0.049325
  13 H :    0.048435
  14 H :    0.020037
  15 H :    0.021588
  16 S :    0.114981
  17 C :   -0.097515
  18 C :   -0.032525
  19 C :   -0.047558
  20 C :   -0.175966
  21 H :    0.011883
  22 C :    0.109671
  23 H :    0.012629
  24 H :    0.055973
  25 C :   -0.094028
  26 H :    0.028316
  27 H :    0.021665
  28 C :   -0.086371
  29 H :    0.038645
  30 H :    0.035544
  31 H :    0.061055
  32 H :    0.065022
  33 H :    0.058455
Sum of atomic charges:    0.0000000

LOEWDIN ATOMIC CHARGES
----------------------
   0 S :    0.415445
   1 C :   -0.212581
   2 C :   -0.062169
   3 C :   -0.056258
   4 C :   -0.199020
   5 H :    0.032055
   6 C :   -0.033016
   7 H :    0.027069
   8 H :    0.033007
   9 C :   -0.045198
  10 H :    0.025728
  11 H :    0.027684
  12 C :   -0.070295
  13 H :    0.031397
  14 H :    0.015694
  15 H :    0.026712
  16 S :    0.413637
  17 C :   -0.191708
  18 C :   -0.070932
  19 C :   -0.061271
  20 C :   -0.197321
  21 H :    0.027926
  22 C :   -0.034490
  23 H :    0.026615
  24 H :    0.044656
  25 C :   -0.044967
  26 H :    0.025179
  27 H :    0.018644
  28 C :   -0.080705
  29 H :    0.031003
  30 H :    0.032480
  31 H :    0.036457
  32 H :    0.037839
  33 H :    0.030705

  Mayer bond orders larger than 0.100000
B(  0-S ,  1-C ) :   1.1435 B(  0-S ,  4-C ) :   1.1613 B(  1-C ,  2-C ) :   1.5882
B(  1-C , 32-H ) :   0.9565 B(  2-C ,  3-C ) :   1.2955 B(  2-C ,  6-C ) :   1.0345
B(  3-C ,  4-C ) :   1.5213 B(  3-C ,  5-H ) :   0.9922 B(  4-C , 20-C ) :   1.0448
B(  6-C ,  7-H ) :   0.9402 B(  6-C ,  8-H ) :   0.9379 B(  6-C ,  9-C ) :   1.0686
B(  9-C , 10-H ) :   0.9553 B(  9-C , 11-H ) :   0.9583 B(  9-C , 12-C ) :   1.0758
B( 12-C , 13-H ) :   0.9756 B( 12-C , 14-H ) :   0.9775 B( 12-C , 15-H ) :   0.9725
B( 16-S , 17-C ) :   1.1716 B( 16-S , 20-C ) :   1.1446 B( 17-C , 18-C ) :   1.5643
B( 17-C , 20-C ) :   0.1022 B( 17-C , 33-H ) :   0.9705 B( 18-C , 19-C ) :   1.2706
B( 18-C , 21-H ) :   0.9894 B( 19-C , 20-C ) :   1.5801 B( 19-C , 22-C ) :   1.0473
B( 22-C , 23-H ) :   0.9162 B( 22-C , 24-H ) :   0.9294 B( 22-C , 25-C ) :   1.0661
B( 25-C , 26-H ) :   0.9568 B( 25-C , 27-H ) :   0.9528 B( 25-C , 28-C ) :   1.0751
B( 28-C , 29-H ) :   0.9691 B( 28-C , 30-H ) :   0.9687 B( 28-C , 31-H ) :   0.9722

Dispersion correction           -0.014434945
FINAL SINGLE POINT ENERGY     -1339.869948551768

DIPOLE MOMENT
-------------
                                X             Y             Z
Electronic contribution:     14.41705     -10.41228      16.10010
Nuclear contribution   :    -14.41918      10.44345     -16.70091
                        -----------------------------------------
Total Dipole Moment    :     -0.00213       0.03118      -0.60081
                        -----------------------------------------
Magnitude (a.u.)       :      0.60162
Magnitude (Debye)      :      1.52919

Rotational constants in cm-1:     0.021729     0.007720     0.006594
Rotational constants in MHz :   651.418867   231.427317   197.673905

                             ****ORCA TERMINATED NORMALLY****
TOTAL RUN TIME: 0 days 0 hours 0 minutes 32 seconds 230 msec
