                         Program Version 4.2.1 -  RELEASE  -
|  1> ! wB97X-D3 SP def2-SVP
|  2> %pal
|  3> nprocs 16
|  4> end
|  5>
|  6> * xyz 0 1
|  7> S 	 -100.91 	 41.3297 	 128.324
|  8> C 	 -99.1916 	 40.9456 	 128.755
|  9> C 	 -98.332 	 41.6023 	 127.856
| 10> C 	 -99.0744 	 42.5044 	 127.014
| 11> C 	 -100.464 	 42.3786 	 127.046
| 12> H 	 -98.6096 	 43.1764 	 126.319
| 13> C 	 -96.8826 	 41.6888 	 127.906
| 14> H 	 -96.5758 	 42.0408 	 126.935
| 15> H 	 -96.4378 	 40.6973 	 128.021
| 16> C 	 -96.3836 	 42.6654 	 129.089
| 17> H 	 -96.72 	 43.64 	 128.839
| 18> H 	 -96.8343 	 42.4909 	 130.053
| 19> C 	 -94.8174 	 42.6144 	 129.269
| 20> H 	 -94.3165 	 42.7684 	 128.332
| 21> H 	 -94.3891 	 43.4682 	 129.831
| 22> H 	 -94.446 	 41.656 	 129.687
| 23> S 	 -102.601 	 44.1765 	 126.916
| 24> C 	 -103.485 	 44.3959 	 125.436
| 25> C 	 -102.816 	 43.7899 	 124.427
| 26> C 	 -101.577 	 43.2354 	 124.799
| 27> C 	 -101.468 	 43.0748 	 126.19
| 28> H 	 -103.125 	 44.0345 	 123.424
| 29> C 	 -100.597 	 42.5953 	 123.824
| 30> H 	 -101.129 	 41.9644 	 123.064
| 31> H 	 -100.045 	 41.8774 	 124.496
| 32> C 	 -99.7349 	 43.7787 	 123.145
| 33> H 	 -99.2962 	 44.3804 	 123.946
| 34> H 	 -100.434 	 44.4819 	 122.733
| 35> C 	 -98.6066 	 43.3463 	 122.15
| 36> H 	 -99.008 	 42.8571 	 121.341
| 37> H 	 -97.8195 	 42.8251 	 122.619
| 38> H 	 -98.0261 	 44.1904 	 121.798
| 39> H 	 -98.8767 	 40.2471 	 129.498
| 40> H 	 -104.277 	 45.0938 	 125.334
| 41> *
| 42>
| 43>                          ****END OF INPUT****

CARTESIAN COORDINATES (ANGSTROEM)
---------------------------------
  S    -100.910000   41.329700  128.324000
  C    -99.191600   40.945600  128.755000
  C    -98.332000   41.602300  127.856000
  C    -99.074400   42.504400  127.014000
  C    -100.464000   42.378600  127.046000
  H    -98.609600   43.176400  126.319000
  C    -96.882600   41.688800  127.906000
  H    -96.575800   42.040800  126.935000
  H    -96.437800   40.697300  128.021000
  C    -96.383600   42.665400  129.089000
  H    -96.720000   43.640000  128.839000
  H    -96.834300   42.490900  130.053000
  C    -94.817400   42.614400  129.269000
  H    -94.316500   42.768400  128.332000
  H    -94.389100   43.468200  129.831000
  H    -94.446000   41.656000  129.687000
  S    -102.601000   44.176500  126.916000
  C    -103.485000   44.395900  125.436000
  C    -102.816000   43.789900  124.427000
  C    -101.577000   43.235400  124.799000
  C    -101.468000   43.074800  126.190000
  H    -103.125000   44.034500  123.424000
  C    -100.597000   42.595300  123.824000
  H    -101.129000   41.964400  123.064000
  H    -100.045000   41.877400  124.496000
  C    -99.734900   43.778700  123.145000
  H    -99.296200   44.380400  123.946000
  H    -100.434000   44.481900  122.733000
  C    -98.606600   43.346300  122.150000
  H    -99.008000   42.857100  121.341000
  H    -97.819500   42.825100  122.619000
  H    -98.026100   44.190400  121.798000
  H    -98.876700   40.247100  129.498000
  H    -104.277000   45.093800  125.334000

 Total Charge           Charge          ....    0
 Multiplicity           Mult            ....    1
 Number of Electrons    NEL             ....  134
 Basis Dimension        Dim             ....  322

ORBITAL ENERGIES
----------------

  NO   OCC          E(Eh)            E(eV)
   0   2.0000     -88.967855     -2420.9384
   1   2.0000     -88.961425     -2420.7634
   2   2.0000     -10.332971      -281.1744
   3   2.0000     -10.329591      -281.0825
   4   2.0000     -10.319839      -280.8171
   5   2.0000     -10.312338      -280.6130
   6   2.0000     -10.303261      -280.3660
   7   2.0000     -10.302430      -280.3434
   8   2.0000     -10.299416      -280.2614
   9   2.0000     -10.294553      -280.1290
  10   2.0000     -10.293687      -280.1055
  11   2.0000     -10.293602      -280.1032
  12   2.0000     -10.293395      -280.0975
  13   2.0000     -10.288044      -279.9519
  14   2.0000     -10.283422      -279.8261
  15   2.0000     -10.270862      -279.4844
  16   2.0000      -8.082016      -219.9228
  17   2.0000      -8.076830      -219.7817
  18   2.0000      -6.040548      -164.3717
  19   2.0000      -6.036475      -164.2608
  20   2.0000      -6.035256      -164.2277
  21   2.0000      -6.032879      -164.1630
  22   2.0000      -6.031213      -164.1177
  23   2.0000      -6.027657      -164.0209
  24   2.0000      -1.008187       -27.4342
  25   2.0000      -0.985721       -26.8228
  26   2.0000      -0.910975       -24.7889
  27   2.0000      -0.896836       -24.4041
  28   2.0000      -0.864455       -23.5230
  29   2.0000      -0.849116       -23.1056
  30   2.0000      -0.844757       -22.9870
  31   2.0000      -0.814652       -22.1678
  32   2.0000      -0.781324       -21.2609
  33   2.0000      -0.771797       -21.0017
  34   2.0000      -0.714161       -19.4333
  35   2.0000      -0.707759       -19.2591
  36   2.0000      -0.700661       -19.0659
  37   2.0000      -0.657183       -17.8829
  38   2.0000      -0.641681       -17.4610
  39   2.0000      -0.620192       -16.8763
  40   2.0000      -0.591723       -16.1016
  41   2.0000      -0.571078       -15.5398
  42   2.0000      -0.561006       -15.2657
  43   2.0000      -0.555146       -15.1063
  44   2.0000      -0.523782       -14.2528
  45   2.0000      -0.522430       -14.2160
  46   2.0000      -0.515834       -14.0366
  47   2.0000      -0.509588       -13.8666
  48   2.0000      -0.508364       -13.8333
  49   2.0000      -0.506563       -13.7843
  50   2.0000      -0.496621       -13.5137
  51   2.0000      -0.477232       -12.9861
  52   2.0000      -0.472223       -12.8499
  53   2.0000      -0.462403       -12.5826
  54   2.0000      -0.457802       -12.4574
  55   2.0000      -0.447584       -12.1794
  56   2.0000      -0.443333       -12.0637
  57   2.0000      -0.435825       -11.8594
  58   2.0000      -0.433640       -11.7999
  59   2.0000      -0.431818       -11.7504
  60   2.0000      -0.423835       -11.5331
  61   2.0000      -0.421301       -11.4642
  62   2.0000      -0.413004       -11.2384
  63   2.0000      -0.340992        -9.2789
  64   2.0000      -0.329789        -8.9740
  65   2.0000      -0.324557        -8.8316
  66   2.0000      -0.296510        -8.0684
  67   0.0000       0.028744         0.7822
  68   0.0000       0.064617         1.7583
  69   0.0000       0.114298         3.1102
  70   0.0000       0.119184         3.2432
  71   0.0000       0.126141         3.4325

MULLIKEN ATOMIC CHARGES
-----------------------
   0 S :    0.113901
   1 C :   -0.118254
   2 C :   -0.091116
   3 C :    0.025869
   4 C :   -0.152654
   5 H :    0.002095
   6 C :    0.068443
   7 H :    0.016703
   8 H :    0.028550
   9 C :   -0.044389
  10 H :    0.017251
  11 H :    0.031881
  12 C :   -0.060313
  13 H :    0.017869
  14 H :    0.037120
  15 H :    0.042222
  16 S :    0.100652
  17 C :   -0.077016
  18 C :   -0.009277
  19 C :   -0.054615
  20 C :   -0.149469
  21 H :    0.015390
  22 C :    0.023529
  23 H :    0.039825
  24 H :    0.043201
  25 C :   -0.093830
  26 H :    0.023606
  27 H :    0.022721
  28 C :    0.024242
  29 H :    0.022559
  30 H :    0.018444
  31 H :    0.020369
  32 H :    0.045252
  33 H :    0.049241
Sum of atomic charges:    0.0000000

LOEWDIN ATOMIC CHARGES
----------------------
   0 S :    0.410495
   1 C :   -0.179371
   2 C :   -0.061500
   3 C :   -0.065461
   4 C :   -0.209572
   5 H :    0.024344
   6 C :   -0.030652
   7 H :    0.029076
   8 H :    0.031860
   9 C :   -0.023124
  10 H :    0.019782
  11 H :    0.023981
  12 C :   -0.075083
  13 H :    0.020032
  14 H :    0.030715
  15 H :    0.027967
  16 S :    0.413290
  17 C :   -0.176849
  18 C :   -0.077233
  19 C :   -0.055560
  20 C :   -0.206540
  21 H :    0.030515
  22 C :   -0.035870
  23 H :    0.031896
  24 H :    0.035555
  25 C :   -0.035223
  26 H :    0.022796
  27 H :    0.020400
  28 C :   -0.056681
  29 H :    0.014648
  30 H :    0.022455
  31 H :    0.029787
  32 H :    0.024416
  33 H :    0.024708

  Mayer bond orders larger than 0.100000
B(  0-S ,  1-C ) :   1.1359 B(  0-S ,  4-C ) :   1.1735 B(  1-C ,  2-C ) :   1.5715
B(  1-C ,  4-C ) :   0.1019 B(  1-C , 32-H ) :   0.9764 B(  2-C ,  3-C ) :   1.2523
B(  2-C ,  6-C ) :   1.0620 B(  3-C ,  4-C ) :   1.5492 B(  3-C ,  5-H ) :   0.9932
B(  4-C , 20-C ) :   1.0112 B(  6-C ,  7-H ) :   0.9333 B(  6-C ,  8-H ) :   0.9369
B(  6-C ,  9-C ) :   1.0388 B(  9-C , 10-H ) :   0.9573 B(  9-C , 11-H ) :   0.9646
B(  9-C , 12-C ) :   1.0716 B( 12-C , 13-H ) :   0.9744 B( 12-C , 14-H ) :   0.9750
B( 12-C , 15-H ) :   0.9784 B( 16-S , 17-C ) :   1.1632 B( 16-S , 20-C ) :   1.1633
B( 17-C , 18-C ) :   1.5880 B( 17-C , 20-C ) :   0.1075 B( 17-C , 33-H ) :   0.9731
B( 18-C , 19-C ) :   1.2692 B( 18-C , 21-H ) :   0.9857 B( 19-C , 20-C ) :   1.5512
B( 19-C , 22-C ) :   1.0439 B( 22-C , 23-H ) :   0.9494 B( 22-C , 24-H ) :   0.9411
B( 22-C , 25-C ) :   1.0249 B( 25-C , 26-H ) :   0.9570 B( 25-C , 27-H ) :   0.9620
B( 25-C , 28-C ) :   1.0797 B( 28-C , 29-H ) :   0.9765 B( 28-C , 30-H ) :   0.9730
B( 28-C , 31-H ) :   0.9700

Dispersion correction           -0.014074314
FINAL SINGLE POINT ENERGY     -1339.861877519583

DIPOLE MOMENT
-------------
                                X             Y             Z
Electronic contribution:    -27.53577      -1.74716      10.51741
Nuclear contribution   :     28.15798       1.97341     -10.92621
                        -----------------------------------------
Total Dipole Moment    :      0.62221       0.22625      -0.40880
                        -----------------------------------------
Magnitude (a.u.)       :      0.77811
Magnitude (Debye)      :      1.97779

Rotational constants in cm-1:     0.017634     0.008301     0.006374
Rotational constants in MHz :   528.660808   248.856825   191.090515

                             ****ORCA TERMINATED NORMALLY****
TOTAL RUN TIME: 0 days 0 hours 0 minutes 32 seconds 817 msec
