                         Program Version 4.2.1 -  RELEASE  -
|  1> ! wB97X-D3 SP def2-SVP
|  2> %pal
|  3> nprocs 16
|  4> end
|  5>
|  6> * xyz 0 1
|  7> S 	 -114.344 	 53.653 	 113.268
|  8> C 	 -112.629 	 53.2243 	 113.135
|  9> C 	 -111.9 	 54.0999 	 112.348
| 10> C 	 -112.704 	 55.1644 	 111.808
| 11> C 	 -114.022 	 55.0958 	 112.28
| 12> H 	 -112.268 	 55.8648 	 111.085
| 13> C 	 -110.433 	 54.0033 	 111.987
| 14> H 	 -109.81 	 53.9963 	 112.836
| 15> H 	 -110.154 	 54.966 	 111.539
| 16> C 	 -110.105 	 52.7633 	 111.124
| 17> H 	 -109.037 	 52.814 	 110.97
| 18> H 	 -110.386 	 51.8355 	 111.7
| 19> C 	 -110.72 	 52.8133 	 109.684
| 20> H 	 -111.771 	 52.9536 	 109.72
| 21> H 	 -110.381 	 53.6387 	 109.08
| 22> H 	 -110.519 	 51.9269 	 109.096
| 23> S 	 -116.06 	 55.7851 	 110.549
| 24> C 	 -117.266 	 56.9342 	 111.075
| 25> C 	 -116.961 	 57.4564 	 112.304
| 26> C 	 -115.767 	 56.8692 	 112.878
| 27> C 	 -115.101 	 56.0452 	 112.003
| 28> H 	 -117.658 	 58.1215 	 112.826
| 29> C 	 -115.338 	 57.1215 	 114.338
| 30> H 	 -115.5 	 56.1613 	 114.883
| 31> H 	 -116.106 	 57.7858 	 114.778
| 32> C 	 -113.932 	 57.687 	 114.496
| 33> H 	 -113.191 	 56.9799 	 113.958
| 34> H 	 -113.669 	 57.8055 	 115.512
| 35> C 	 -113.695 	 59.1355 	 113.856
| 36> H 	 -113.951 	 59.0655 	 112.756
| 37> H 	 -112.721 	 59.4552 	 114
| 38> H 	 -114.365 	 59.8537 	 114.327
| 39> H 	 -112.267 	 52.2515 	 113.464
| 40> H 	 -118.245 	 57.0764 	 110.737
| 41> *
| 42>
| 43>                          ****END OF INPUT****

CARTESIAN COORDINATES (ANGSTROEM)
---------------------------------
  S    -114.344000   53.653000  113.268000
  C    -112.629000   53.224300  113.135000
  C    -111.900000   54.099900  112.348000
  C    -112.704000   55.164400  111.808000
  C    -114.022000   55.095800  112.280000
  H    -112.268000   55.864800  111.085000
  C    -110.433000   54.003300  111.987000
  H    -109.810000   53.996300  112.836000
  H    -110.154000   54.966000  111.539000
  C    -110.105000   52.763300  111.124000
  H    -109.037000   52.814000  110.970000
  H    -110.386000   51.835500  111.700000
  C    -110.720000   52.813300  109.684000
  H    -111.771000   52.953600  109.720000
  H    -110.381000   53.638700  109.080000
  H    -110.519000   51.926900  109.096000
  S    -116.060000   55.785100  110.549000
  C    -117.266000   56.934200  111.075000
  C    -116.961000   57.456400  112.304000
  C    -115.767000   56.869200  112.878000
  C    -115.101000   56.045200  112.003000
  H    -117.658000   58.121500  112.826000
  C    -115.338000   57.121500  114.338000
  H    -115.500000   56.161300  114.883000
  H    -116.106000   57.785800  114.778000
  C    -113.932000   57.687000  114.496000
  H    -113.191000   56.979900  113.958000
  H    -113.669000   57.805500  115.512000
  C    -113.695000   59.135500  113.856000
  H    -113.951000   59.065500  112.756000
  H    -112.721000   59.455200  114.000000
  H    -114.365000   59.853700  114.327000
  H    -112.267000   52.251500  113.464000
  H    -118.245000   57.076400  110.737000

 Total Charge           Charge          ....    0
 Multiplicity           Mult            ....    1
 Number of Electrons    NEL             ....  134
 Basis Dimension        Dim             ....  322

ORBITAL ENERGIES
----------------

  NO   OCC          E(Eh)            E(eV)
   0   2.0000     -88.971578     -2421.0397
   1   2.0000     -88.964180     -2420.8384
   2   2.0000     -10.334584      -281.2183
   3   2.0000     -10.320604      -280.8379
   4   2.0000     -10.316291      -280.7205
   5   2.0000     -10.311199      -280.5820
   6   2.0000     -10.302945      -280.3574
   7   2.0000     -10.301377      -280.3147
   8   2.0000     -10.300740      -280.2974
   9   2.0000     -10.294869      -280.1376
  10   2.0000     -10.294154      -280.1182
  11   2.0000     -10.293421      -280.0982
  12   2.0000     -10.290355      -280.0148
  13   2.0000     -10.285135      -279.8728
  14   2.0000     -10.272158      -279.5196
  15   2.0000     -10.271996      -279.5152
  16   2.0000      -8.085090      -220.0065
  17   2.0000      -8.078739      -219.8337
  18   2.0000      -6.043606      -164.4549
  19   2.0000      -6.039847      -164.3526
  20   2.0000      -6.037312      -164.2836
  21   2.0000      -6.035845      -164.2437
  22   2.0000      -6.033288      -164.1741
  23   2.0000      -6.029415      -164.0687
  24   2.0000      -1.002273       -27.2732
  25   2.0000      -0.979311       -26.6484
  26   2.0000      -0.909308       -24.7435
  27   2.0000      -0.897686       -24.4273
  28   2.0000      -0.864360       -23.5204
  29   2.0000      -0.846316       -23.0294
  30   2.0000      -0.837395       -22.7867
  31   2.0000      -0.812092       -22.0982
  32   2.0000      -0.784281       -21.3414
  33   2.0000      -0.771897       -21.0044
  34   2.0000      -0.709146       -19.2968
  35   2.0000      -0.703514       -19.1436
  36   2.0000      -0.682957       -18.5842
  37   2.0000      -0.659457       -17.9447
  38   2.0000      -0.638306       -17.3692
  39   2.0000      -0.615007       -16.7352
  40   2.0000      -0.583881       -15.8882
  41   2.0000      -0.573304       -15.6004
  42   2.0000      -0.547687       -14.9033
  43   2.0000      -0.545567       -14.8456
  44   2.0000      -0.541999       -14.7485
  45   2.0000      -0.537714       -14.6319
  46   2.0000      -0.511386       -13.9155
  47   2.0000      -0.508102       -13.8262
  48   2.0000      -0.501251       -13.6397
  49   2.0000      -0.490735       -13.3536
  50   2.0000      -0.477464       -12.9924
  51   2.0000      -0.475691       -12.9442
  52   2.0000      -0.471518       -12.8307
  53   2.0000      -0.463238       -12.6053
  54   2.0000      -0.460144       -12.5212
  55   2.0000      -0.449572       -12.2335
  56   2.0000      -0.445968       -12.1354
  57   2.0000      -0.437001       -11.8914
  58   2.0000      -0.434628       -11.8268
  59   2.0000      -0.428343       -11.6558
  60   2.0000      -0.418669       -11.3926
  61   2.0000      -0.412729       -11.2309
  62   2.0000      -0.404299       -11.0015
  63   2.0000      -0.335799        -9.1376
  64   2.0000      -0.333114        -9.0645
  65   2.0000      -0.321764        -8.7557
  66   2.0000      -0.304899        -8.2967
  67   0.0000       0.039805         1.0831
  68   0.0000       0.048389         1.3167
  69   0.0000       0.105283         2.8649
  70   0.0000       0.119255         3.2451
  71   0.0000       0.124773         3.3953

MULLIKEN ATOMIC CHARGES
-----------------------
   0 S :    0.124436
   1 C :   -0.136659
   2 C :   -0.096519
   3 C :    0.035223
   4 C :   -0.176837
   5 H :    0.028151
   6 C :    0.089023
   7 H :    0.022509
   8 H :    0.010234
   9 C :   -0.079003
  10 H :    0.031053
  11 H :    0.044626
  12 C :   -0.043230
  13 H :    0.030655
  14 H :    0.019795
  15 H :    0.034710
  16 S :    0.108558
  17 C :   -0.061368
  18 C :   -0.045702
  19 C :   -0.077792
  20 C :   -0.157939
  21 H :    0.026014
  22 C :    0.093017
  23 H :    0.042944
  24 H :    0.011153
  25 C :   -0.092057
  26 H :    0.060752
  27 H :    0.024537
  28 C :   -0.056226
  29 H :    0.048793
  30 H :    0.024368
  31 H :    0.024175
  32 H :    0.049715
  33 H :    0.038891
Sum of atomic charges:    0.0000000

LOEWDIN ATOMIC CHARGES
----------------------
   0 S :    0.397237
   1 C :   -0.193596
   2 C :   -0.061877
   3 C :   -0.057551
   4 C :   -0.185857
   5 H :    0.038040
   6 C :   -0.031184
   7 H :    0.027520
   8 H :    0.029298
   9 C :   -0.033186
  10 H :    0.022869
  11 H :    0.030206
  12 C :   -0.066257
  13 H :    0.020923
  14 H :    0.023679
  15 H :    0.026718
  16 S :    0.404654
  17 C :   -0.180650
  18 C :   -0.073750
  19 C :   -0.051199
  20 C :   -0.212820
  21 H :    0.033426
  22 C :   -0.036328
  23 H :    0.036677
  24 H :    0.027552
  25 C :   -0.041310
  26 H :    0.037418
  27 H :    0.015744
  28 C :   -0.061560
  29 H :    0.032578
  30 H :    0.013355
  31 H :    0.020347
  32 H :    0.025312
  33 H :    0.023571

  Mayer bond orders larger than 0.100000
B(  0-S ,  1-C ) :   1.1307 B(  0-S ,  4-C ) :   1.1558 B(  1-C ,  2-C ) :   1.6222
B(  1-C , 32-H ) :   0.9654 B(  2-C ,  3-C ) :   1.2441 B(  2-C ,  6-C ) :   1.0161
B(  3-C ,  4-C ) :   1.5665 B(  3-C ,  5-H ) :   0.9896 B(  4-C , 20-C ) :   1.0216
B(  6-C ,  7-H ) :   0.9342 B(  6-C ,  8-H ) :   0.9408 B(  6-C ,  9-C ) :   1.0723
B(  9-C , 10-H ) :   0.9566 B(  9-C , 11-H ) :   0.9590 B(  9-C , 12-C ) :   1.0665
B( 12-C , 13-H ) :   0.9783 B( 12-C , 14-H ) :   0.9741 B( 12-C , 15-H ) :   0.9760
B( 16-S , 17-C ) :   1.1554 B( 16-S , 20-C ) :   1.1344 B( 17-C , 18-C ) :   1.6308
B( 17-C , 33-H ) :   0.9664 B( 18-C , 19-C ) :   1.2398 B( 18-C , 21-H ) :   0.9827
B( 19-C , 20-C ) :   1.6094 B( 19-C , 22-C ) :   1.0279 B( 22-C , 23-H ) :   0.9280
B( 22-C , 24-H ) :   0.9349 B( 22-C , 25-C ) :   1.0699 B( 25-C , 26-H ) :   0.9534
B( 25-C , 27-H ) :   0.9569 B( 25-C , 28-C ) :   1.0680 B( 28-C , 29-H ) :   0.9763
B( 28-C , 30-H ) :   0.9779 B( 28-C , 31-H ) :   0.9766

Dispersion correction           -0.015688960
FINAL SINGLE POINT ENERGY     -1339.881014831121

DIPOLE MOMENT
-------------
                                X             Y             Z
Electronic contribution:    -18.00189      -5.34618      -2.23562
Nuclear contribution   :     18.27811       5.36152       2.43398
                        -----------------------------------------
Total Dipole Moment    :      0.27622       0.01534       0.19836
                        -----------------------------------------
Magnitude (a.u.)       :      0.34041
Magnitude (Debye)      :      0.86526

Rotational constants in cm-1:     0.021067     0.008608     0.007537
Rotational constants in MHz :   631.580166   258.067723   225.959194

                             ****ORCA TERMINATED NORMALLY****
TOTAL RUN TIME: 0 days 0 hours 0 minutes 34 seconds 276 msec
