                         Program Version 4.2.1 -  RELEASE  -
|  1> ! wB97X-D3 SP def2-SVP
|  2> %pal
|  3> nprocs 16
|  4> end
|  5>
|  6> * xyz 0 1
|  7> S 	 0.599034 	 -10.3006 	 81.5753
|  8> C 	 -0.684493 	 -10.7678 	 82.7623
|  9> C 	 -1.77552 	 -9.96059 	 82.5448
| 10> C 	 -1.63235 	 -9.02189 	 81.4483
| 11> C 	 -0.456244 	 -9.1929 	 80.7602
| 12> H 	 -2.35301 	 -8.3845 	 80.9608
| 13> C 	 -3.06688 	 -10.0651 	 83.4038
| 14> H 	 -3.49362 	 -11.0379 	 83.0812
| 15> H 	 -3.842 	 -9.32299 	 83.2815
| 16> C 	 -2.78686 	 -10.2388 	 84.9083
| 17> H 	 -2.69585 	 -11.2788 	 85.1539
| 18> H 	 -1.78376 	 -9.78816 	 85.0499
| 19> C 	 -3.79593 	 -9.57298 	 85.8126
| 20> H 	 -4.77095 	 -10.0932 	 85.7483
| 21> H 	 -3.54247 	 -9.56387 	 86.8451
| 22> H 	 -3.87587 	 -8.55758 	 85.4956
| 23> S 	 -0.850685 	 -9.76648 	 77.9919
| 24> C 	 0.10032 	 -8.89708 	 76.8363
| 25> C 	 0.703161 	 -7.75497 	 77.4374
| 26> C 	 0.590092 	 -7.88054 	 78.8547
| 27> C 	 -0.248319 	 -8.84748 	 79.3689
| 28> H 	 1.09547 	 -6.98317 	 76.7869
| 29> C 	 1.37613 	 -6.84704 	 79.7523
| 30> H 	 0.883605 	 -6.6503 	 80.6816
| 31> H 	 1.50358 	 -5.84369 	 79.35
| 32> C 	 2.71566 	 -7.39318 	 80.0727
| 33> H 	 3.35886 	 -7.53827 	 79.2437
| 34> H 	 2.70602 	 -8.38334 	 80.4948
| 35> C 	 3.44132 	 -6.52123 	 81.072
| 36> H 	 3.93592 	 -5.69697 	 80.5168
| 37> H 	 4.10643 	 -7.18391 	 81.6196
| 38> H 	 2.69515 	 -6.03795 	 81.771
| 39> H 	 -0.478362 	 -11.442 	 83.611
| 40> H 	 0.0614645 	 -9.11789 	 75.7885
| 41> *
| 42>
| 43>                          ****END OF INPUT****

CARTESIAN COORDINATES (ANGSTROEM)
---------------------------------
  S      0.599034  -10.300600   81.575300
  C     -0.684493  -10.767800   82.762300
  C     -1.775520   -9.960590   82.544800
  C     -1.632350   -9.021890   81.448300
  C     -0.456244   -9.192900   80.760200
  H     -2.353010   -8.384500   80.960800
  C     -3.066880  -10.065100   83.403800
  H     -3.493620  -11.037900   83.081200
  H     -3.842000   -9.322990   83.281500
  C     -2.786860  -10.238800   84.908300
  H     -2.695850  -11.278800   85.153900
  H     -1.783760   -9.788160   85.049900
  C     -3.795930   -9.572980   85.812600
  H     -4.770950  -10.093200   85.748300
  H     -3.542470   -9.563870   86.845100
  H     -3.875870   -8.557580   85.495600
  S     -0.850685   -9.766480   77.991900
  C      0.100320   -8.897080   76.836300
  C      0.703161   -7.754970   77.437400
  C      0.590092   -7.880540   78.854700
  C     -0.248319   -8.847480   79.368900
  H      1.095470   -6.983170   76.786900
  C      1.376130   -6.847040   79.752300
  H      0.883605   -6.650300   80.681600
  H      1.503580   -5.843690   79.350000
  C      2.715660   -7.393180   80.072700
  H      3.358860   -7.538270   79.243700
  H      2.706020   -8.383340   80.494800
  C      3.441320   -6.521230   81.072000
  H      3.935920   -5.696970   80.516800
  H      4.106430   -7.183910   81.619600
  H      2.695150   -6.037950   81.771000
  H     -0.478362  -11.442000   83.611000
  H      0.061464   -9.117890   75.788500

 Total Charge           Charge          ....    0
 Multiplicity           Mult            ....    1
 Number of Electrons    NEL             ....  134
 Basis Dimension        Dim             ....  322

ORBITAL ENERGIES
----------------

  NO   OCC          E(Eh)            E(eV)
   0   2.0000     -88.965903     -2420.8853
   1   2.0000     -88.962742     -2420.7993
   2   2.0000     -10.326822      -281.0071
   3   2.0000     -10.323244      -280.9097
   4   2.0000     -10.322305      -280.8842
   5   2.0000     -10.321897      -280.8731
   6   2.0000     -10.311518      -280.5907
   7   2.0000     -10.305365      -280.4232
   8   2.0000     -10.299119      -280.2533
   9   2.0000     -10.296922      -280.1935
  10   2.0000     -10.294218      -280.1199
  11   2.0000     -10.283578      -279.8304
  12   2.0000     -10.282330      -279.7964
  13   2.0000     -10.274529      -279.5841
  14   2.0000     -10.274228      -279.5760
  15   2.0000     -10.265739      -279.3450
  16   2.0000      -8.080607      -219.8845
  17   2.0000      -8.076898      -219.7836
  18   2.0000      -6.039138      -164.3333
  19   2.0000      -6.035482      -164.2338
  20   2.0000      -6.034945      -164.2192
  21   2.0000      -6.031508      -164.1257
  22   2.0000      -6.031455      -164.1242
  23   2.0000      -6.027612      -164.0197
  24   2.0000      -1.005420       -27.3589
  25   2.0000      -0.981748       -26.7147
  26   2.0000      -0.913659       -24.8619
  27   2.0000      -0.912241       -24.8233
  28   2.0000      -0.869971       -23.6731
  29   2.0000      -0.845032       -22.9945
  30   2.0000      -0.843793       -22.9608
  31   2.0000      -0.814842       -22.1730
  32   2.0000      -0.780687       -21.2436
  33   2.0000      -0.768759       -20.9190
  34   2.0000      -0.705670       -19.2023
  35   2.0000      -0.695325       -18.9207
  36   2.0000      -0.690514       -18.7899
  37   2.0000      -0.661026       -17.9874
  38   2.0000      -0.645203       -17.5569
  39   2.0000      -0.609649       -16.5894
  40   2.0000      -0.595811       -16.2129
  41   2.0000      -0.575044       -15.6477
  42   2.0000      -0.572216       -15.5708
  43   2.0000      -0.565794       -15.3960
  44   2.0000      -0.530980       -14.4487
  45   2.0000      -0.524212       -14.2645
  46   2.0000      -0.519856       -14.1460
  47   2.0000      -0.518994       -14.1225
  48   2.0000      -0.504864       -13.7381
  49   2.0000      -0.496669       -13.5151
  50   2.0000      -0.489312       -13.3149
  51   2.0000      -0.480536       -13.0761
  52   2.0000      -0.471385       -12.8270
  53   2.0000      -0.463605       -12.6153
  54   2.0000      -0.455948       -12.4070
  55   2.0000      -0.450582       -12.2610
  56   2.0000      -0.442835       -12.0501
  57   2.0000      -0.433436       -11.7944
  58   2.0000      -0.428465       -11.6591
  59   2.0000      -0.422454       -11.4956
  60   2.0000      -0.412279       -11.2187
  61   2.0000      -0.406740       -11.0680
  62   2.0000      -0.403875       -10.9900
  63   2.0000      -0.333607        -9.0779
  64   2.0000      -0.327275        -8.9056
  65   2.0000      -0.324283        -8.8242
  66   2.0000      -0.310301        -8.4437
  67   0.0000       0.038725         1.0538
  68   0.0000       0.046281         1.2594
  69   0.0000       0.105298         2.8653
  70   0.0000       0.119095         3.2407
  71   0.0000       0.131640         3.5821

MULLIKEN ATOMIC CHARGES
-----------------------
   0 S :    0.096420
   1 C :   -0.138584
   2 C :   -0.093756
   3 C :    0.048155
   4 C :   -0.171147
   5 H :    0.016722
   6 C :    0.071849
   7 H :    0.045221
   8 H :    0.021381
   9 C :   -0.111082
  10 H :    0.025002
  11 H :    0.037225
  12 C :   -0.030982
  13 H :    0.033725
  14 H :    0.028437
  15 H :    0.027708
  16 S :    0.119569
  17 C :   -0.109987
  18 C :   -0.021483
  19 C :   -0.050458
  20 C :   -0.131273
  21 H :    0.032341
  22 C :    0.087511
  23 H :    0.013986
  24 H :    0.016221
  25 C :   -0.070915
  26 H :    0.012026
  27 H :    0.008939
  28 C :   -0.046368
  29 H :    0.034642
  30 H :    0.036723
  31 H :    0.029051
  32 H :    0.072920
  33 H :    0.060263
Sum of atomic charges:   -0.0000000

LOEWDIN ATOMIC CHARGES
----------------------
   0 S :    0.390297
   1 C :   -0.183783
   2 C :   -0.056871
   3 C :   -0.058059
   4 C :   -0.194033
   5 H :    0.034522
   6 C :   -0.032332
   7 H :    0.042319
   8 H :    0.025206
   9 C :   -0.047568
  10 H :    0.017398
  11 H :    0.025139
  12 C :   -0.061000
  13 H :    0.028753
  14 H :    0.023543
  15 H :    0.022204
  16 S :    0.417395
  17 C :   -0.180806
  18 C :   -0.074291
  19 C :   -0.043461
  20 C :   -0.218309
  21 H :    0.036027
  22 C :   -0.026793
  23 H :    0.022939
  24 H :    0.028426
  25 C :   -0.048313
  26 H :    0.017873
  27 H :    0.014200
  28 C :   -0.063112
  29 H :    0.025591
  30 H :    0.027330
  31 H :    0.027170
  32 H :    0.037239
  33 H :    0.025158

  Mayer bond orders larger than 0.100000
B(  0-S ,  1-C ) :   1.1142 B(  0-S ,  4-C ) :   1.1537 B(  1-C ,  2-C ) :   1.6279
B(  1-C , 32-H ) :   0.9669 B(  2-C ,  3-C ) :   1.2114 B(  2-C ,  6-C ) :   1.0108
B(  3-C ,  4-C ) :   1.5977 B(  3-C ,  5-H ) :   0.9975 B(  4-C , 20-C ) :   1.0265
B(  6-C ,  7-H ) :   0.9345 B(  6-C ,  8-H ) :   0.9603 B(  6-C ,  9-C ) :   1.0437
B(  9-C , 10-H ) :   0.9513 B(  9-C , 11-H ) :   0.9672 B(  9-C , 12-C ) :   1.0968
B( 12-C , 13-H ) :   0.9729 B( 12-C , 14-H ) :   0.9725 B( 12-C , 15-H ) :   0.9747
B( 16-S , 17-C ) :   1.2021 B( 16-S , 20-C ) :   1.1136 B( 17-C , 18-C ) :   1.5529
B( 17-C , 33-H ) :   0.9691 B( 18-C , 19-C ) :   1.2569 B( 18-C , 21-H ) :   0.9974
B( 19-C , 20-C ) :   1.5983 B( 19-C , 22-C ) :   1.0321 B( 22-C , 23-H ) :   0.9312
B( 22-C , 24-H ) :   0.9448 B( 22-C , 25-C ) :   1.0695 B( 25-C , 26-H ) :   0.9486
B( 25-C , 27-H ) :   0.9530 B( 25-C , 28-C ) :   1.0802 B( 28-C , 29-H ) :   0.9755
B( 28-C , 30-H ) :   0.9767 B( 28-C , 31-H ) :   0.9749

Dispersion correction           -0.014099750
FINAL SINGLE POINT ENERGY     -1339.859531343114

DIPOLE MOMENT
-------------
                                X             Y             Z
Electronic contribution:      0.42359      -9.77214     -19.53836
Nuclear contribution   :     -0.64345       9.97798      19.69234
                        -----------------------------------------
Total Dipole Moment    :     -0.21986       0.20584       0.15398
                        -----------------------------------------
Magnitude (a.u.)       :      0.33826
Magnitude (Debye)      :      0.85978

Rotational constants in cm-1:     0.021340     0.007523     0.006308
Rotational constants in MHz :   639.764314   225.533694   189.098857

                             ****ORCA TERMINATED NORMALLY****
TOTAL RUN TIME: 0 days 0 hours 0 minutes 33 seconds 933 msec
