                         Program Version 4.2.1 -  RELEASE  -
|  1> ! wB97X-D3 SP def2-SVP
|  2> %pal
|  3> nprocs 16
|  4> end
|  5>
|  6> * xyz 0 1
|  7> S 	 2.37059 	 18.7063 	 52.5084
|  8> C 	 2.57841 	 18.4174 	 50.848
|  9> C 	 1.53836 	 18.8203 	 50.0727
| 10> C 	 0.394059 	 19.2106 	 50.7955
| 11> C 	 0.683839 	 19.2911 	 52.1835
| 12> H 	 -0.566244 	 19.4788 	 50.4763
| 13> C 	 1.48558 	 18.4736 	 48.5818
| 14> H 	 2.42833 	 18.5458 	 48.095
| 15> H 	 0.868292 	 19.1926 	 48.0102
| 16> C 	 1.05102 	 16.9978 	 48.2762
| 17> H 	 1.74532 	 16.2242 	 48.7061
| 18> H 	 0.0784836 	 16.893 	 48.7749
| 19> C 	 1.05774 	 16.7405 	 46.7597
| 20> H 	 0.214807 	 17.1264 	 46.2794
| 21> H 	 1.91118 	 17.1621 	 46.2128
| 22> H 	 1.0313 	 15.6485 	 46.6211
| 23> S 	 -0.894173 	 18.4774 	 54.4362
| 24> C 	 -2.09136 	 19.519 	 55.0417
| 25> C 	 -2.09691 	 20.7332 	 54.3685
| 26> C 	 -1.1849 	 20.7735 	 53.2322
| 27> C 	 -0.326872 	 19.6619 	 53.229
| 28> H 	 -2.84006 	 21.5532 	 54.6368
| 29> C 	 -1.05175 	 21.9521 	 52.3329
| 30> H 	 -1.93335 	 22.5516 	 52.4586
| 31> H 	 -0.996824 	 21.5537 	 51.3013
| 32> C 	 -0.0104071 	 23.1024 	 52.5573
| 33> H 	 -0.30619 	 23.6581 	 53.4472
| 34> H 	 -0.00554655 	 23.7306 	 51.6842
| 35> C 	 1.38605 	 22.4996 	 52.732
| 36> H 	 1.96587 	 23.3937 	 52.8943
| 37> H 	 1.78173 	 21.9523 	 51.9227
| 38> H 	 1.56211 	 21.9942 	 53.7024
| 39> H 	 3.43346 	 17.8355 	 50.3979
| 40> H 	 -2.73182 	 19.134 	 55.8175
| 41> *
| 42>
| 43>                          ****END OF INPUT****

CARTESIAN COORDINATES (ANGSTROEM)
---------------------------------
  S      2.370590   18.706300   52.508400
  C      2.578410   18.417400   50.848000
  C      1.538360   18.820300   50.072700
  C      0.394059   19.210600   50.795500
  C      0.683839   19.291100   52.183500
  H     -0.566244   19.478800   50.476300
  C      1.485580   18.473600   48.581800
  H      2.428330   18.545800   48.095000
  H      0.868292   19.192600   48.010200
  C      1.051020   16.997800   48.276200
  H      1.745320   16.224200   48.706100
  H      0.078484   16.893000   48.774900
  C      1.057740   16.740500   46.759700
  H      0.214807   17.126400   46.279400
  H      1.911180   17.162100   46.212800
  H      1.031300   15.648500   46.621100
  S     -0.894173   18.477400   54.436200
  C     -2.091360   19.519000   55.041700
  C     -2.096910   20.733200   54.368500
  C     -1.184900   20.773500   53.232200
  C     -0.326872   19.661900   53.229000
  H     -2.840060   21.553200   54.636800
  C     -1.051750   21.952100   52.332900
  H     -1.933350   22.551600   52.458600
  H     -0.996824   21.553700   51.301300
  C     -0.010407   23.102400   52.557300
  H     -0.306190   23.658100   53.447200
  H     -0.005547   23.730600   51.684200
  C      1.386050   22.499600   52.732000
  H      1.965870   23.393700   52.894300
  H      1.781730   21.952300   51.922700
  H      1.562110   21.994200   53.702400
  H      3.433460   17.835500   50.397900
  H     -2.731820   19.134000   55.817500

 Total Charge           Charge          ....    0
 Multiplicity           Mult            ....    1
 Number of Electrons    NEL             ....  134
 Basis Dimension        Dim             ....  322

ORBITAL ENERGIES
----------------

  NO   OCC          E(Eh)            E(eV)
   0   2.0000     -88.970111     -2420.9998
   1   2.0000     -88.962955     -2420.8051
   2   2.0000     -10.337838      -281.3069
   3   2.0000     -10.329993      -281.0934
   4   2.0000     -10.316804      -280.7345
   5   2.0000     -10.311797      -280.5983
   6   2.0000     -10.306576      -280.4562
   7   2.0000     -10.302157      -280.3359
   8   2.0000     -10.296562      -280.1837
   9   2.0000     -10.295791      -280.1627
  10   2.0000     -10.291695      -280.0513
  11   2.0000     -10.290212      -280.0109
  12   2.0000     -10.286053      -279.8977
  13   2.0000     -10.285246      -279.8758
  14   2.0000     -10.275628      -279.6140
  15   2.0000     -10.261368      -279.2260
  16   2.0000      -8.084397      -219.9876
  17   2.0000      -8.078354      -219.8232
  18   2.0000      -6.042784      -164.4325
  19   2.0000      -6.039002      -164.3296
  20   2.0000      -6.036752      -164.2684
  21   2.0000      -6.035282      -164.2284
  22   2.0000      -6.032632      -164.1563
  23   2.0000      -6.029321      -164.0662
  24   2.0000      -1.001465       -27.2513
  25   2.0000      -0.985216       -26.8091
  26   2.0000      -0.907724       -24.7004
  27   2.0000      -0.904190       -24.6042
  28   2.0000      -0.863528       -23.4978
  29   2.0000      -0.852655       -23.2019
  30   2.0000      -0.845876       -23.0175
  31   2.0000      -0.809039       -22.0151
  32   2.0000      -0.782442       -21.2913
  33   2.0000      -0.767422       -20.8826
  34   2.0000      -0.702643       -19.1199
  35   2.0000      -0.697017       -18.9668
  36   2.0000      -0.690838       -18.7987
  37   2.0000      -0.656138       -17.8544
  38   2.0000      -0.641841       -17.4654
  39   2.0000      -0.615683       -16.7536
  40   2.0000      -0.592409       -16.1203
  41   2.0000      -0.566144       -15.4056
  42   2.0000      -0.557138       -15.1605
  43   2.0000      -0.553563       -15.0632
  44   2.0000      -0.536175       -14.5901
  45   2.0000      -0.523644       -14.2491
  46   2.0000      -0.520604       -14.1664
  47   2.0000      -0.509126       -13.8540
  48   2.0000      -0.501250       -13.6397
  49   2.0000      -0.493293       -13.4232
  50   2.0000      -0.488879       -13.3031
  51   2.0000      -0.475135       -12.9291
  52   2.0000      -0.472244       -12.8504
  53   2.0000      -0.464958       -12.6521
  54   2.0000      -0.461846       -12.5675
  55   2.0000      -0.447804       -12.1854
  56   2.0000      -0.442526       -12.0418
  57   2.0000      -0.435273       -11.8444
  58   2.0000      -0.430691       -11.7197
  59   2.0000      -0.429542       -11.6884
  60   2.0000      -0.419720       -11.4212
  61   2.0000      -0.413492       -11.2517
  62   2.0000      -0.397865       -10.8264
  63   2.0000      -0.344722        -9.3804
  64   2.0000      -0.329890        -8.9768
  65   2.0000      -0.326298        -8.8790
  66   2.0000      -0.291691        -7.9373
  67   0.0000       0.028722         0.7816
  68   0.0000       0.066667         1.8141
  69   0.0000       0.115905         3.1539
  70   0.0000       0.118078         3.2131
  71   0.0000       0.130860         3.5609

MULLIKEN ATOMIC CHARGES
-----------------------
   0 S :    0.124550
   1 C :   -0.136913
   2 C :   -0.040956
   3 C :    0.048466
   4 C :   -0.190023
   5 H :    0.005533
   6 C :    0.035720
   7 H :    0.005159
   8 H :    0.024929
   9 C :   -0.092741
  10 H :    0.036570
  11 H :    0.034202
  12 C :   -0.028064
  13 H :    0.018355
  14 H :    0.030943
  15 H :    0.035001
  16 S :    0.104489
  17 C :   -0.101472
  18 C :   -0.041202
  19 C :   -0.068162
  20 C :   -0.136318
  21 H :    0.043675
  22 C :    0.060918
  23 H :    0.006258
  24 H :    0.025221
  25 C :   -0.048911
  26 H :    0.028268
  27 H :    0.031154
  28 C :   -0.040373
  29 H :    0.012241
  30 H :    0.041884
  31 H :    0.037426
  32 H :    0.069669
  33 H :    0.064506
Sum of atomic charges:   -0.0000000

LOEWDIN ATOMIC CHARGES
----------------------
   0 S :    0.407800
   1 C :   -0.215367
   2 C :   -0.075721
   3 C :   -0.045057
   4 C :   -0.173015
   5 H :    0.024131
   6 C :   -0.034433
   7 H :    0.019990
   8 H :    0.029594
   9 C :   -0.038576
  10 H :    0.027940
  11 H :    0.024819
  12 C :   -0.065372
  13 H :    0.015832
  14 H :    0.027120
  15 H :    0.030414
  16 S :    0.415234
  17 C :   -0.197108
  18 C :   -0.084529
  19 C :   -0.052900
  20 C :   -0.200143
  21 H :    0.041687
  22 C :   -0.043405
  23 H :    0.027167
  24 H :    0.032029
  25 C :   -0.023307
  26 H :    0.025040
  27 H :    0.025882
  28 C :   -0.070106
  29 H :    0.023016
  30 H :    0.019886
  31 H :    0.030198
  32 H :    0.042567
  33 H :    0.028692

  Mayer bond orders larger than 0.100000
B(  0-S ,  1-C ) :   1.1513 B(  0-S ,  4-C ) :   1.1482 B(  1-C ,  2-C ) :   1.6041
B(  1-C , 32-H ) :   0.9556 B(  2-C ,  3-C ) :   1.2424 B(  2-C ,  6-C ) :   1.0409
B(  3-C ,  4-C ) :   1.5603 B(  3-C ,  5-H ) :   0.9974 B(  4-C , 20-C ) :   1.0384
B(  6-C ,  7-H ) :   0.9401 B(  6-C ,  8-H ) :   0.9460 B(  6-C ,  9-C ) :   1.0516
B(  9-C , 10-H ) :   0.9613 B(  9-C , 11-H ) :   0.9586 B(  9-C , 12-C ) :   1.0699
B( 12-C , 13-H ) :   0.9755 B( 12-C , 14-H ) :   0.9739 B( 12-C , 15-H ) :   0.9757
B( 16-S , 17-C ) :   1.1872 B( 16-S , 20-C ) :   1.1394 B( 17-C , 18-C ) :   1.5699
B( 17-C , 33-H ) :   0.9711 B( 18-C , 19-C ) :   1.2529 B( 18-C , 21-H ) :   0.9794
B( 19-C , 20-C ) :   1.5631 B( 19-C , 22-C ) :   1.0662 B( 22-C , 23-H ) :   0.9283
B( 22-C , 24-H ) :   0.9258 B( 22-C , 25-C ) :   1.0709 B( 25-C , 26-H ) :   0.9549
B( 25-C , 27-H ) :   0.9518 B( 25-C , 28-C ) :   1.0956 B( 28-C , 29-H ) :   0.9694
B( 28-C , 30-H ) :   0.9741 B( 28-C , 31-H ) :   0.9684

Dispersion correction           -0.015376636
FINAL SINGLE POINT ENERGY     -1339.868602042885

DIPOLE MOMENT
-------------
                                X             Y             Z
Electronic contribution:     -0.93455      -6.96862      21.70724
Nuclear contribution   :      0.67220       7.15807     -22.16713
                        -----------------------------------------
Total Dipole Moment    :     -0.26234       0.18945      -0.45989
                        -----------------------------------------
Magnitude (a.u.)       :      0.56233
Magnitude (Debye)      :      1.42934

Rotational constants in cm-1:     0.020571     0.007901     0.007292
Rotational constants in MHz :   616.694893   236.871211   218.620454

                             ****ORCA TERMINATED NORMALLY****
TOTAL RUN TIME: 0 days 0 hours 0 minutes 36 seconds 472 msec
