                         Program Version 4.2.1 -  RELEASE  -
|  1> ! wB97X-D3 SP def2-SVP
|  2> %pal
|  3> nprocs 16
|  4> end
|  5>
|  6> * xyz 0 1
|  7> S 	 -8.86382 	 44.0631 	 37.5923
|  8> C 	 -7.36573 	 44.3451 	 36.7211
|  9> C 	 -6.24051 	 44.121 	 37.4924
| 10> C 	 -6.67304 	 43.9608 	 38.8445
| 11> C 	 -8.01612 	 44.0572 	 39.0788
| 12> H 	 -5.95928 	 43.6569 	 39.5701
| 13> C 	 -4.82114 	 44.0782 	 37.0109
| 14> H 	 -4.50565 	 43.0159 	 37.0708
| 15> H 	 -4.24174 	 44.565 	 37.7657
| 16> C 	 -4.53246 	 44.6774 	 35.6174
| 17> H 	 -3.52132 	 44.4044 	 35.2633
| 18> H 	 -5.18663 	 44.2838 	 34.8755
| 19> C 	 -4.64701 	 46.192 	 35.4426
| 20> H 	 -4.16103 	 46.4948 	 34.525
| 21> H 	 -5.68379 	 46.4625 	 35.3213
| 22> H 	 -4.24369 	 46.8078 	 36.2667
| 23> S 	 -10.4431 	 43.9568 	 40.3527
| 24> C 	 -10.5418 	 43.7083 	 42.1455
| 25> C 	 -9.27485 	 43.795 	 42.6885
| 26> C 	 -8.24341 	 43.8081 	 41.6983
| 27> C 	 -8.69219 	 44.0039 	 40.4032
| 28> H 	 -9.09291 	 43.8134 	 43.815
| 29> C 	 -6.82767 	 43.7042 	 42.1336
| 30> H 	 -6.70569 	 44.2646 	 43.0397
| 31> H 	 -6.19422 	 44.2271 	 41.4647
| 32> C 	 -6.41077 	 42.3049 	 42.3473
| 33> H 	 -6.68248 	 41.7537 	 41.4481
| 34> H 	 -7.13032 	 41.8513 	 43.0859
| 35> C 	 -4.99019 	 42.1631 	 42.7971
| 36> H 	 -4.8745 	 42.8215 	 43.6832
| 37> H 	 -4.28249 	 42.4354 	 42.0745
| 38> H 	 -4.90553 	 41.1784 	 43.0753
| 39> H 	 -7.35738 	 44.5952 	 35.6449
| 40> H 	 -11.4299 	 43.5192 	 42.703
| 41> *
| 42>
| 43>                          ****END OF INPUT****

CARTESIAN COORDINATES (ANGSTROEM)
---------------------------------
  S     -8.863820   44.063100   37.592300
  C     -7.365730   44.345100   36.721100
  C     -6.240510   44.121000   37.492400
  C     -6.673040   43.960800   38.844500
  C     -8.016120   44.057200   39.078800
  H     -5.959280   43.656900   39.570100
  C     -4.821140   44.078200   37.010900
  H     -4.505650   43.015900   37.070800
  H     -4.241740   44.565000   37.765700
  C     -4.532460   44.677400   35.617400
  H     -3.521320   44.404400   35.263300
  H     -5.186630   44.283800   34.875500
  C     -4.647010   46.192000   35.442600
  H     -4.161030   46.494800   34.525000
  H     -5.683790   46.462500   35.321300
  H     -4.243690   46.807800   36.266700
  S    -10.443100   43.956800   40.352700
  C    -10.541800   43.708300   42.145500
  C     -9.274850   43.795000   42.688500
  C     -8.243410   43.808100   41.698300
  C     -8.692190   44.003900   40.403200
  H     -9.092910   43.813400   43.815000
  C     -6.827670   43.704200   42.133600
  H     -6.705690   44.264600   43.039700
  H     -6.194220   44.227100   41.464700
  C     -6.410770   42.304900   42.347300
  H     -6.682480   41.753700   41.448100
  H     -7.130320   41.851300   43.085900
  C     -4.990190   42.163100   42.797100
  H     -4.874500   42.821500   43.683200
  H     -4.282490   42.435400   42.074500
  H     -4.905530   41.178400   43.075300
  H     -7.357380   44.595200   35.644900
  H    -11.429900   43.519200   42.703000

 Total Charge           Charge          ....    0
 Multiplicity           Mult            ....    1
 Number of Electrons    NEL             ....  134
 Basis Dimension        Dim             ....  322

ORBITAL ENERGIES
----------------

  NO   OCC          E(Eh)            E(eV)
   0   2.0000     -88.965573     -2420.8763
   1   2.0000     -88.963748     -2420.8266
   2   2.0000     -10.331016      -281.1212
   3   2.0000     -10.330169      -281.0982
   4   2.0000     -10.322230      -280.8822
   5   2.0000     -10.313071      -280.6329
   6   2.0000     -10.302081      -280.3339
   7   2.0000     -10.300400      -280.2881
   8   2.0000     -10.299664      -280.2681
   9   2.0000     -10.297677      -280.2140
  10   2.0000     -10.290310      -280.0136
  11   2.0000     -10.287226      -279.9296
  12   2.0000     -10.280745      -279.7533
  13   2.0000     -10.276792      -279.6457
  14   2.0000     -10.276481      -279.6373
  15   2.0000     -10.269707      -279.4529
  16   2.0000      -8.081030      -219.8960
  17   2.0000      -8.077757      -219.8070
  18   2.0000      -6.039637      -164.3469
  19   2.0000      -6.036478      -164.2609
  20   2.0000      -6.035693      -164.2395
  21   2.0000      -6.032463      -164.1517
  22   2.0000      -6.031397      -164.1227
  23   2.0000      -6.028255      -164.0372
  24   2.0000      -1.009989       -27.4832
  25   2.0000      -0.984721       -26.7956
  26   2.0000      -0.924058       -25.1449
  27   2.0000      -0.914737       -24.8913
  28   2.0000      -0.867345       -23.6016
  29   2.0000      -0.856395       -23.3037
  30   2.0000      -0.848673       -23.0936
  31   2.0000      -0.815586       -22.1932
  32   2.0000      -0.787387       -21.4259
  33   2.0000      -0.777420       -21.1547
  34   2.0000      -0.710281       -19.3277
  35   2.0000      -0.703189       -19.1347
  36   2.0000      -0.693628       -18.8746
  37   2.0000      -0.667281       -18.1576
  38   2.0000      -0.634085       -17.2543
  39   2.0000      -0.621122       -16.9016
  40   2.0000      -0.600764       -16.3476
  41   2.0000      -0.577182       -15.7059
  42   2.0000      -0.569463       -15.4959
  43   2.0000      -0.553872       -15.0716
  44   2.0000      -0.540422       -14.7056
  45   2.0000      -0.536476       -14.5982
  46   2.0000      -0.523052       -14.2330
  47   2.0000      -0.512867       -13.9558
  48   2.0000      -0.510250       -13.8846
  49   2.0000      -0.497628       -13.5411
  50   2.0000      -0.491571       -13.3763
  51   2.0000      -0.483200       -13.1485
  52   2.0000      -0.474214       -12.9040
  53   2.0000      -0.466520       -12.6947
  54   2.0000      -0.459463       -12.5026
  55   2.0000      -0.452482       -12.3127
  56   2.0000      -0.444182       -12.0868
  57   2.0000      -0.441090       -12.0027
  58   2.0000      -0.437231       -11.8977
  59   2.0000      -0.431827       -11.7506
  60   2.0000      -0.421317       -11.4646
  61   2.0000      -0.414553       -11.2806
  62   2.0000      -0.409683       -11.1480
  63   2.0000      -0.358191        -9.7469
  64   2.0000      -0.333553        -9.0765
  65   2.0000      -0.324614        -8.8332
  66   2.0000      -0.282453        -7.6859
  67   0.0000       0.020025         0.5449
  68   0.0000       0.083957         2.2846
  69   0.0000       0.091074         2.4783
  70   0.0000       0.114710         3.1214
  71   0.0000       0.136094         3.7033

MULLIKEN ATOMIC CHARGES
-----------------------
   0 S :    0.109287
   1 C :   -0.161975
   2 C :   -0.077121
   3 C :   -0.048955
   4 C :   -0.054029
   5 H :   -0.009629
   6 C :    0.101189
   7 H :    0.048019
   8 H :    0.019597
   9 C :   -0.077115
  10 H :    0.028957
  11 H :    0.019423
  12 C :   -0.048262
  13 H :    0.030016
  14 H :    0.023473
  15 H :    0.037034
  16 S :    0.067173
  17 C :   -0.084311
  18 C :   -0.028563
  19 C :   -0.119892
  20 C :   -0.069933
  21 H :    0.049098
  22 C :    0.085583
  23 H :    0.001281
  24 H :    0.000940
  25 C :   -0.114004
  26 H :    0.022389
  27 H :    0.020606
  28 C :    0.061162
  29 H :    0.022075
  30 H :    0.020693
  31 H :    0.018305
  32 H :    0.055324
  33 H :    0.052167
Sum of atomic charges:   -0.0000000

LOEWDIN ATOMIC CHARGES
----------------------
   0 S :    0.410210
   1 C :   -0.201490
   2 C :   -0.059227
   3 C :   -0.072613
   4 C :   -0.193518
   5 H :    0.021441
   6 C :   -0.029302
   7 H :    0.044278
   8 H :    0.028253
   9 C :   -0.040990
  10 H :    0.029047
  11 H :    0.020089
  12 C :   -0.064454
  13 H :    0.026926
  14 H :    0.020580
  15 H :    0.027425
  16 S :    0.369291
  17 C :   -0.160984
  18 C :   -0.071270
  19 C :   -0.059909
  20 C :   -0.182785
  21 H :    0.046327
  22 C :   -0.035011
  23 H :    0.025548
  24 H :    0.019030
  25 C :   -0.044409
  26 H :    0.023276
  27 H :    0.028200
  28 C :   -0.047543
  29 H :    0.031198
  30 H :    0.018669
  31 H :    0.019559
  32 H :    0.027949
  33 H :    0.026208

  Mayer bond orders larger than 0.100000
B(  0-S ,  1-C ) :   1.1307 B(  0-S ,  4-C ) :   1.1465 B(  1-C ,  2-C ) :   1.6116
B(  1-C , 32-H ) :   0.9568 B(  2-C ,  3-C ) :   1.2597 B(  2-C ,  6-C ) :   1.0072
B(  3-C ,  4-C ) :   1.5605 B(  3-C ,  5-H ) :   0.9961 B(  4-C , 20-C ) :   1.0652
B(  6-C ,  7-H ) :   0.9272 B(  6-C ,  8-H ) :   0.9385 B(  6-C ,  9-C ) :   1.0813
B(  9-C , 10-H ) :   0.9569 B(  9-C , 11-H ) :   0.9504 B(  9-C , 12-C ) :   1.0789
B( 12-C , 13-H ) :   0.9734 B( 12-C , 14-H ) :   0.9767 B( 12-C , 15-H ) :   0.9761
B( 16-S , 17-C ) :   1.1355 B( 16-S , 20-C ) :   1.1127 B( 17-C , 18-C ) :   1.6177
B( 17-C , 33-H ) :   0.9724 B( 18-C , 19-C ) :   1.2419 B( 18-C , 21-H ) :   0.9713
B( 19-C , 20-C ) :   1.6146 B( 19-C , 22-C ) :   1.0493 B( 22-C , 23-H ) :   0.9161
B( 22-C , 24-H ) :   0.9298 B( 22-C , 25-C ) :   1.0672 B( 25-C , 26-H ) :   0.9467
B( 25-C , 27-H ) :   0.9486 B( 25-C , 28-C ) :   1.0809 B( 28-C , 29-H ) :   0.9672
B( 28-C , 30-H ) :   0.9717 B( 28-C , 31-H ) :   0.9679

Dispersion correction           -0.014082737
FINAL SINGLE POINT ENERGY     -1339.874067738751

DIPOLE MOMENT
-------------
                                X             Y             Z
Electronic contribution:    -27.53919       0.59945      -0.66198
Nuclear contribution   :     28.27482      -0.78055       0.88896
                        -----------------------------------------
Total Dipole Moment    :      0.73563      -0.18111       0.22697
                        -----------------------------------------
Magnitude (a.u.)       :      0.79087
Magnitude (Debye)      :      2.01022

Rotational constants in cm-1:     0.019859     0.008461     0.006257
Rotational constants in MHz :   595.364948   253.642206   187.580275

                             ****ORCA TERMINATED NORMALLY****
TOTAL RUN TIME: 0 days 0 hours 0 minutes 34 seconds 837 msec
