                         Program Version 4.2.1 -  RELEASE  -
|  1> ! wB97X-D3 SP def2-SVP
|  2> %pal
|  3> nprocs 16
|  4> end
|  5>
|  6> * xyz 0 1
|  7> S 	 38.2301 	 18.152 	 47.779
|  8> C 	 37.8534 	 19.362 	 49.0301
|  9> C 	 37.8924 	 18.8239 	 50.3156
| 10> C 	 38.0541 	 17.3751 	 50.2929
| 11> C 	 38.1978 	 16.9319 	 49.0181
| 12> H 	 37.9173 	 16.7269 	 51.0999
| 13> C 	 37.4883 	 19.5766 	 51.5666
| 14> H 	 38.4003 	 19.6168 	 52.1497
| 15> H 	 36.7992 	 18.8972 	 52.1047
| 16> C 	 36.9539 	 21.0023 	 51.3799
| 17> H 	 37.8617 	 21.6142 	 51.4115
| 18> H 	 36.4178 	 21.214 	 50.45
| 19> C 	 36.2653 	 21.518 	 52.6554
| 20> H 	 36.3148 	 22.6263 	 52.7707
| 21> H 	 35.2313 	 21.2423 	 52.6267
| 22> H 	 36.6034 	 20.9835 	 53.5173
| 23> S 	 37.3128 	 14.9063 	 47.2994
| 24> C 	 38.3908 	 13.611 	 47.0894
| 25> C 	 39.3468 	 13.5299 	 48.1044
| 26> C 	 39.2475 	 14.5801 	 49.0855
| 27> C 	 38.3762 	 15.5201 	 48.5817
| 28> H 	 40.0429 	 12.7355 	 48.1584
| 29> C 	 40.2764 	 14.7931 	 50.2062
| 30> H 	 40.3729 	 13.8509 	 50.7442
| 31> H 	 39.8195 	 15.4594 	 50.9891
| 32> C 	 41.6603 	 15.2817 	 49.7109
| 33> H 	 41.9152 	 14.5523 	 49.01
| 34> H 	 42.2816 	 15.1778 	 50.6165
| 35> C 	 41.6511 	 16.7271 	 49.1166
| 36> H 	 41.3215 	 17.4328 	 49.8824
| 37> H 	 40.9915 	 16.8362 	 48.2071
| 38> H 	 42.678 	 16.9711 	 48.8587
| 39> H 	 37.5732 	 20.3774 	 48.7858
| 40> H 	 38.2969 	 12.7925 	 46.3317
| 41> *
| 42>
| 43>                          ****END OF INPUT****

CARTESIAN COORDINATES (ANGSTROEM)
---------------------------------
  S     38.230100   18.152000   47.779000
  C     37.853400   19.362000   49.030100
  C     37.892400   18.823900   50.315600
  C     38.054100   17.375100   50.292900
  C     38.197800   16.931900   49.018100
  H     37.917300   16.726900   51.099900
  C     37.488300   19.576600   51.566600
  H     38.400300   19.616800   52.149700
  H     36.799200   18.897200   52.104700
  C     36.953900   21.002300   51.379900
  H     37.861700   21.614200   51.411500
  H     36.417800   21.214000   50.450000
  C     36.265300   21.518000   52.655400
  H     36.314800   22.626300   52.770700
  H     35.231300   21.242300   52.626700
  H     36.603400   20.983500   53.517300
  S     37.312800   14.906300   47.299400
  C     38.390800   13.611000   47.089400
  C     39.346800   13.529900   48.104400
  C     39.247500   14.580100   49.085500
  C     38.376200   15.520100   48.581700
  H     40.042900   12.735500   48.158400
  C     40.276400   14.793100   50.206200
  H     40.372900   13.850900   50.744200
  H     39.819500   15.459400   50.989100
  C     41.660300   15.281700   49.710900
  H     41.915200   14.552300   49.010000
  H     42.281600   15.177800   50.616500
  C     41.651100   16.727100   49.116600
  H     41.321500   17.432800   49.882400
  H     40.991500   16.836200   48.207100
  H     42.678000   16.971100   48.858700
  H     37.573200   20.377400   48.785800
  H     38.296900   12.792500   46.331700

 Total Charge           Charge          ....    0
 Multiplicity           Mult            ....    1
 Number of Electrons    NEL             ....  134
 Basis Dimension        Dim             ....  322

ORBITAL ENERGIES
----------------

  NO   OCC          E(Eh)            E(eV)
   0   2.0000     -88.965915     -2420.8856
   1   2.0000     -88.963972     -2420.8327
   2   2.0000     -10.324919      -280.9553
   3   2.0000     -10.323147      -280.9071
   4   2.0000     -10.315581      -280.7012
   5   2.0000     -10.311723      -280.5963
   6   2.0000     -10.304179      -280.3910
   7   2.0000     -10.301798      -280.3262
   8   2.0000     -10.295440      -280.1532
   9   2.0000     -10.294704      -280.1331
  10   2.0000     -10.290866      -280.0287
  11   2.0000     -10.289463      -279.9905
  12   2.0000     -10.289042      -279.9791
  13   2.0000     -10.284835      -279.8646
  14   2.0000     -10.277969      -279.6778
  15   2.0000     -10.275977      -279.6236
  16   2.0000      -8.081220      -219.9012
  17   2.0000      -8.078301      -219.8217
  18   2.0000      -6.039579      -164.3453
  19   2.0000      -6.036851      -164.2711
  20   2.0000      -6.035832      -164.2434
  21   2.0000      -6.033000      -164.1663
  22   2.0000      -6.031923      -164.1370
  23   2.0000      -6.028907      -164.0549
  24   2.0000      -1.005115       -27.3506
  25   2.0000      -0.981300       -26.7025
  26   2.0000      -0.913358       -24.8537
  27   2.0000      -0.905002       -24.6264
  28   2.0000      -0.860661       -23.4198
  29   2.0000      -0.851397       -23.1677
  30   2.0000      -0.842993       -22.9390
  31   2.0000      -0.809151       -22.0181
  32   2.0000      -0.783295       -21.3145
  33   2.0000      -0.768217       -20.9042
  34   2.0000      -0.712353       -19.3841
  35   2.0000      -0.699617       -19.0375
  36   2.0000      -0.682534       -18.5727
  37   2.0000      -0.656777       -17.8718
  38   2.0000      -0.640001       -17.4153
  39   2.0000      -0.613844       -16.7035
  40   2.0000      -0.595677       -16.2092
  41   2.0000      -0.572369       -15.5750
  42   2.0000      -0.559022       -15.2118
  43   2.0000      -0.542240       -14.7551
  44   2.0000      -0.541203       -14.7269
  45   2.0000      -0.528860       -14.3910
  46   2.0000      -0.516955       -14.0671
  47   2.0000      -0.505487       -13.7550
  48   2.0000      -0.497846       -13.5471
  49   2.0000      -0.493419       -13.4266
  50   2.0000      -0.489149       -13.3104
  51   2.0000      -0.475816       -12.9476
  52   2.0000      -0.471532       -12.8310
  53   2.0000      -0.459006       -12.4902
  54   2.0000      -0.454615       -12.3707
  55   2.0000      -0.452586       -12.3155
  56   2.0000      -0.445723       -12.1287
  57   2.0000      -0.437527       -11.9057
  58   2.0000      -0.430670       -11.7191
  59   2.0000      -0.427050       -11.6206
  60   2.0000      -0.420527       -11.4431
  61   2.0000      -0.419471       -11.4144
  62   2.0000      -0.413234       -11.2447
  63   2.0000      -0.340770        -9.2728
  64   2.0000      -0.333956        -9.0874
  65   2.0000      -0.322773        -8.7831
  66   2.0000      -0.289921        -7.8891
  67   0.0000       0.031580         0.8593
  68   0.0000       0.076831         2.0907
  69   0.0000       0.108413         2.9501
  70   0.0000       0.112159         3.0520
  71   0.0000       0.129622         3.5272

MULLIKEN ATOMIC CHARGES
-----------------------
   0 S :    0.108337
   1 C :   -0.138186
   2 C :   -0.086325
   3 C :    0.031364
   4 C :   -0.131627
   5 H :    0.002150
   6 C :    0.053616
   7 H :    0.035895
   8 H :    0.035328
   9 C :   -0.093516
  10 H :    0.031883
  11 H :    0.046004
  12 C :   -0.040012
  13 H :    0.044658
  14 H :    0.023894
  15 H :    0.023555
  16 S :    0.129305
  17 C :   -0.095914
  18 C :   -0.046322
  19 C :   -0.015155
  20 C :   -0.195945
  21 H :    0.001238
  22 C :    0.037297
  23 H :    0.023066
  24 H :    0.014610
  25 C :   -0.034347
  26 H :    0.013612
  27 H :    0.034784
  28 C :   -0.048007
  29 H :    0.034647
  30 H :    0.052839
  31 H :    0.032904
  32 H :    0.046034
  33 H :    0.068336
Sum of atomic charges:    0.0000000

LOEWDIN ATOMIC CHARGES
----------------------
   0 S :    0.392694
   1 C :   -0.198468
   2 C :   -0.051982
   3 C :   -0.062512
   4 C :   -0.180749
   5 H :    0.022942
   6 C :   -0.034359
   7 H :    0.036938
   8 H :    0.031285
   9 C :   -0.045947
  10 H :    0.030885
  11 H :    0.024355
  12 C :   -0.062441
  13 H :    0.031748
  14 H :    0.021287
  15 H :    0.023331
  16 S :    0.413090
  17 C :   -0.210884
  18 C :   -0.068733
  19 C :   -0.053426
  20 C :   -0.193033
  21 H :    0.020254
  22 C :   -0.035861
  23 H :    0.030315
  24 H :    0.028638
  25 C :   -0.029309
  26 H :    0.014456
  27 H :    0.028410
  28 C :   -0.065289
  29 H :    0.026865
  30 H :    0.031349
  31 H :    0.024376
  32 H :    0.021885
  33 H :    0.037889

  Mayer bond orders larger than 0.100000
B(  0-S ,  1-C ) :   1.1031 B(  0-S ,  4-C ) :   1.1515 B(  1-C ,  2-C ) :   1.6596
B(  1-C , 32-H ) :   0.9622 B(  2-C ,  3-C ) :   1.1881 B(  2-C ,  6-C ) :   1.0093
B(  3-C ,  4-C ) :   1.6255 B(  3-C ,  5-H ) :   0.9990 B(  4-C , 20-C ) :   1.0146
B(  6-C ,  7-H ) :   0.9187 B(  6-C ,  8-H ) :   0.9524 B(  6-C ,  9-C ) :   1.0760
B(  9-C , 10-H ) :   0.9529 B(  9-C , 11-H ) :   0.9600 B(  9-C , 12-C ) :   1.0764
B( 12-C , 13-H ) :   0.9765 B( 12-C , 14-H ) :   0.9741 B( 12-C , 15-H ) :   0.9715
B( 16-S , 17-C ) :   1.1463 B( 16-S , 20-C ) :   1.1543 B( 17-C , 18-C ) :   1.6184
B( 17-C , 33-H ) :   0.9619 B( 18-C , 19-C ) :   1.2191 B( 18-C , 21-H ) :   0.9925
B( 19-C , 20-C ) :   1.5909 B( 19-C , 22-C ) :   1.0539 B( 22-C , 23-H ) :   0.9270
B( 22-C , 24-H ) :   0.9332 B( 22-C , 25-C ) :   1.0653 B( 25-C , 26-H ) :   0.9542
B( 25-C , 27-H ) :   0.9538 B( 25-C , 28-C ) :   1.0759 B( 28-C , 29-H ) :   0.9747
B( 28-C , 30-H ) :   0.9691 B( 28-C , 31-H ) :   0.9738

Dispersion correction           -0.015407085
FINAL SINGLE POINT ENERGY     -1339.873969222203

DIPOLE MOMENT
-------------
                                X             Y             Z
Electronic contribution:     -7.69836     -12.91937     -19.97077
Nuclear contribution   :      7.86242      12.95431      20.56640
                        -----------------------------------------
Total Dipole Moment    :      0.16406       0.03493       0.59563
                        -----------------------------------------
Magnitude (a.u.)       :      0.61879
Magnitude (Debye)      :      1.57285

Rotational constants in cm-1:     0.024013     0.007754     0.006828
Rotational constants in MHz :   719.904363   232.453941   204.700311

                             ****ORCA TERMINATED NORMALLY****
TOTAL RUN TIME: 0 days 0 hours 0 minutes 36 seconds 24 msec
