                         Program Version 4.2.1 -  RELEASE  -
|  1> ! wB97X-D3 SP def2-SVP
|  2> %pal
|  3> nprocs 16
|  4> end
|  5>
|  6> * xyz 0 1
|  7> S 	 5.94901 	 -10.4972 	 63.6147
|  8> C 	 6.03719 	 -8.79412 	 63.3756
|  9> C 	 6.84305 	 -8.17694 	 64.3039
| 10> C 	 7.38189 	 -9.12594 	 65.1961
| 11> C 	 6.99818 	 -10.4626 	 65.0019
| 12> H 	 8.07312 	 -8.94986 	 65.9758
| 13> C 	 7.00043 	 -6.68765 	 64.3909
| 14> H 	 6.6953 	 -6.23639 	 65.3025
| 15> H 	 6.21852 	 -6.28416 	 63.7706
| 16> C 	 8.42726 	 -6.08194 	 64.0333
| 17> H 	 8.7273 	 -6.34282 	 62.9955
| 18> H 	 8.35293 	 -4.98496 	 64.0804
| 19> C 	 9.55631 	 -6.34273 	 65.0036
| 20> H 	 10.4886 	 -5.87129 	 64.6894
| 21> H 	 9.31166 	 -5.93004 	 65.9804
| 22> H 	 9.6994 	 -7.45064 	 65.1641
| 23> S 	 5.82949 	 -12.7799 	 65.8302
| 24> C 	 6.57269 	 -13.868 	 66.8986
| 25> C 	 7.84581 	 -13.4694 	 67.1519
| 26> C 	 8.23878 	 -12.254 	 66.4787
| 27> C 	 7.22159 	 -11.708 	 65.7946
| 28> H 	 8.46853 	 -14.0485 	 67.8416
| 29> C 	 9.57459 	 -11.5895 	 66.8305
| 30> H 	 9.88112 	 -11.1414 	 65.8819
| 31> H 	 10.2163 	 -12.5124 	 67.0381
| 32> C 	 9.62795 	 -10.7365 	 68.1221
| 33> H 	 9.15009 	 -11.3098 	 68.9454
| 34> H 	 9.00041 	 -9.91025 	 68.0789
| 35> C 	 10.9841 	 -10.2612 	 68.5298
| 36> H 	 11.6654 	 -11.0489 	 68.5424
| 37> H 	 10.8744 	 -9.80395 	 69.4976
| 38> H 	 11.2654 	 -9.50371 	 67.7782
| 39> H 	 5.52183 	 -8.1949 	 62.6715
| 40> H 	 6.22703 	 -14.8339 	 67.1785
| 41> *
| 42>
| 43>                          ****END OF INPUT****

CARTESIAN COORDINATES (ANGSTROEM)
---------------------------------
  S      5.949010  -10.497200   63.614700
  C      6.037190   -8.794120   63.375600
  C      6.843050   -8.176940   64.303900
  C      7.381890   -9.125940   65.196100
  C      6.998180  -10.462600   65.001900
  H      8.073120   -8.949860   65.975800
  C      7.000430   -6.687650   64.390900
  H      6.695300   -6.236390   65.302500
  H      6.218520   -6.284160   63.770600
  C      8.427260   -6.081940   64.033300
  H      8.727300   -6.342820   62.995500
  H      8.352930   -4.984960   64.080400
  C      9.556310   -6.342730   65.003600
  H     10.488600   -5.871290   64.689400
  H      9.311660   -5.930040   65.980400
  H      9.699400   -7.450640   65.164100
  S      5.829490  -12.779900   65.830200
  C      6.572690  -13.868000   66.898600
  C      7.845810  -13.469400   67.151900
  C      8.238780  -12.254000   66.478700
  C      7.221590  -11.708000   65.794600
  H      8.468530  -14.048500   67.841600
  C      9.574590  -11.589500   66.830500
  H      9.881120  -11.141400   65.881900
  H     10.216300  -12.512400   67.038100
  C      9.627950  -10.736500   68.122100
  H      9.150090  -11.309800   68.945400
  H      9.000410   -9.910250   68.078900
  C     10.984100  -10.261200   68.529800
  H     11.665400  -11.048900   68.542400
  H     10.874400   -9.803950   69.497600
  H     11.265400   -9.503710   67.778200
  H      5.521830   -8.194900   62.671500
  H      6.227030  -14.833900   67.178500

 Total Charge           Charge          ....    0
 Multiplicity           Mult            ....    1
 Number of Electrons    NEL             ....  134
 Basis Dimension        Dim             ....  322

ORBITAL ENERGIES
----------------

  NO   OCC          E(Eh)            E(eV)
   0   2.0000     -88.967924     -2420.9403
   1   2.0000     -88.960916     -2420.7496
   2   2.0000     -10.334506      -281.2162
   3   2.0000     -10.328480      -281.0522
   4   2.0000     -10.309653      -280.5399
   5   2.0000     -10.309470      -280.5349
   6   2.0000     -10.299915      -280.2749
   7   2.0000     -10.299329      -280.2590
   8   2.0000     -10.298676      -280.2412
   9   2.0000     -10.293073      -280.0887
  10   2.0000     -10.292763      -280.0803
  11   2.0000     -10.292169      -280.0642
  12   2.0000     -10.291027      -280.0331
  13   2.0000     -10.282610      -279.8040
  14   2.0000     -10.281398      -279.7711
  15   2.0000     -10.272668      -279.5335
  16   2.0000      -8.083016      -219.9501
  17   2.0000      -8.076964      -219.7854
  18   2.0000      -6.041458      -164.3964
  19   2.0000      -6.037296      -164.2832
  20   2.0000      -6.035544      -164.2355
  21   2.0000      -6.033994      -164.1933
  22   2.0000      -6.031188      -164.1170
  23   2.0000      -6.027648      -164.0207
  24   2.0000      -1.014208       -27.5980
  25   2.0000      -0.993481       -27.0340
  26   2.0000      -0.912754       -24.8373
  27   2.0000      -0.909729       -24.7550
  28   2.0000      -0.872396       -23.7391
  29   2.0000      -0.860434       -23.4136
  30   2.0000      -0.846110       -23.0238
  31   2.0000      -0.822259       -22.3748
  32   2.0000      -0.784985       -21.3605
  33   2.0000      -0.777235       -21.1497
  34   2.0000      -0.707577       -19.2542
  35   2.0000      -0.698881       -19.0175
  36   2.0000      -0.695413       -18.9231
  37   2.0000      -0.667425       -18.1616
  38   2.0000      -0.645540       -17.5660
  39   2.0000      -0.621630       -16.9154
  40   2.0000      -0.593805       -16.1582
  41   2.0000      -0.578481       -15.7413
  42   2.0000      -0.569783       -15.5046
  43   2.0000      -0.543562       -14.7911
  44   2.0000      -0.542215       -14.7544
  45   2.0000      -0.532690       -14.4952
  46   2.0000      -0.521537       -14.1917
  47   2.0000      -0.515655       -14.0317
  48   2.0000      -0.505881       -13.7657
  49   2.0000      -0.504151       -13.7186
  50   2.0000      -0.491646       -13.3784
  51   2.0000      -0.487808       -13.2739
  52   2.0000      -0.473527       -12.8853
  53   2.0000      -0.470237       -12.7958
  54   2.0000      -0.463165       -12.6034
  55   2.0000      -0.449426       -12.2295
  56   2.0000      -0.442577       -12.0431
  57   2.0000      -0.439590       -11.9618
  58   2.0000      -0.430576       -11.7166
  59   2.0000      -0.426408       -11.6031
  60   2.0000      -0.418199       -11.3798
  61   2.0000      -0.416335       -11.3290
  62   2.0000      -0.410053       -11.1581
  63   2.0000      -0.356427        -9.6989
  64   2.0000      -0.333454        -9.0737
  65   2.0000      -0.329228        -8.9588
  66   2.0000      -0.293763        -7.9937
  67   0.0000       0.029321         0.7979
  68   0.0000       0.079769         2.1706
  69   0.0000       0.115062         3.1310
  70   0.0000       0.121604         3.3090
  71   0.0000       0.124930         3.3995

MULLIKEN ATOMIC CHARGES
-----------------------
   0 S :    0.117189
   1 C :   -0.094201
   2 C :   -0.076284
   3 C :    0.038719
   4 C :   -0.142778
   5 H :   -0.024353
   6 C :    0.093530
   7 H :    0.018487
   8 H :    0.001780
   9 C :   -0.081278
  10 H :    0.036310
  11 H :    0.028884
  12 C :   -0.060751
  13 H :    0.040698
  14 H :    0.021231
  15 H :    0.038090
  16 S :    0.090713
  17 C :   -0.053674
  18 C :   -0.064046
  19 C :   -0.055883
  20 C :   -0.129352
  21 H :    0.019719
  22 C :    0.033239
  23 H :    0.036660
  24 H :    0.028025
  25 C :   -0.051043
  26 H :    0.019582
  27 H :    0.005412
  28 C :    0.006764
  29 H :    0.017662
  30 H :    0.034110
  31 H :    0.032057
  32 H :    0.028546
  33 H :    0.046233
Sum of atomic charges:   -0.0000000

LOEWDIN ATOMIC CHARGES
----------------------
   0 S :    0.427044
   1 C :   -0.197027
   2 C :   -0.066738
   3 C :   -0.062744
   4 C :   -0.194484
   5 H :    0.018530
   6 C :   -0.029487
   7 H :    0.028161
   8 H :    0.030724
   9 C :   -0.040594
  10 H :    0.025341
  11 H :    0.026396
  12 C :   -0.070561
  13 H :    0.029332
  14 H :    0.021470
  15 H :    0.025978
  16 S :    0.414152
  17 C :   -0.194492
  18 C :   -0.075702
  19 C :   -0.066999
  20 C :   -0.187914
  21 H :    0.030756
  22 C :   -0.033072
  23 H :    0.030498
  24 H :    0.037812
  25 C :   -0.041075
  26 H :    0.028165
  27 H :    0.011448
  28 C :   -0.050760
  29 H :    0.014509
  30 H :    0.029407
  31 H :    0.030414
  32 H :    0.022995
  33 H :    0.028516

  Mayer bond orders larger than 0.100000
B(  0-S ,  1-C ) :   1.1577 B(  0-S ,  4-C ) :   1.1650 B(  1-C ,  2-C ) :   1.5928
B(  1-C ,  4-C ) :   0.1005 B(  1-C , 32-H ) :   0.9649 B(  2-C ,  3-C ) :   1.2610
B(  2-C ,  6-C ) :   1.0276 B(  3-C ,  4-C ) :   1.5535 B(  3-C ,  5-H ) :   1.0036
B(  4-C , 20-C ) :   1.0166 B(  6-C ,  7-H ) :   0.9397 B(  6-C ,  8-H ) :   0.9299
B(  6-C ,  9-C ) :   1.0625 B(  9-C , 10-H ) :   0.9582 B(  9-C , 11-H ) :   0.9548
B(  9-C , 12-C ) :   1.0832 B( 12-C , 13-H ) :   0.9708 B( 12-C , 14-H ) :   0.9733
B( 12-C , 15-H ) :   0.9712 B( 16-S , 17-C ) :   1.1541 B( 16-S , 20-C ) :   1.1324
B( 17-C , 18-C ) :   1.6283 B( 17-C , 33-H ) :   0.9685 B( 18-C , 19-C ) :   1.2183
B( 18-C , 21-H ) :   0.9869 B( 19-C , 20-C ) :   1.6403 B( 19-C , 22-C ) :   1.0451
B( 22-C , 23-H ) :   0.9335 B( 22-C , 24-H ) :   0.9324 B( 22-C , 25-C ) :   1.0588
B( 25-C , 26-H ) :   0.9473 B( 25-C , 27-H ) :   0.9514 B( 25-C , 28-C ) :   1.0889
B( 28-C , 29-H ) :   0.9759 B( 28-C , 30-H ) :   0.9699 B( 28-C , 31-H ) :   0.9739

Dispersion correction           -0.014239866
FINAL SINGLE POINT ENERGY     -1339.878566901375

DIPOLE MOMENT
-------------
                                X             Y             Z
Electronic contribution:    -22.37083     -20.01975     -10.49782
Nuclear contribution   :     22.75306      20.41474      10.88135
                        -----------------------------------------
Total Dipole Moment    :      0.38223       0.39499       0.38353
                        -----------------------------------------
Magnitude (a.u.)       :      0.67023
Magnitude (Debye)      :      1.70359

Rotational constants in cm-1:     0.016764     0.010129     0.006561
Rotational constants in MHz :   502.569804   303.656071   196.703217

                             ****ORCA TERMINATED NORMALLY****
TOTAL RUN TIME: 0 days 0 hours 0 minutes 30 seconds 347 msec
