                         Program Version 4.2.1 -  RELEASE  -
|  1> ! wB97X-D3 SP def2-SVP
|  2> %pal
|  3> nprocs 16
|  4> end
|  5>
|  6> * xyz 0 1
|  7> S 	 -72.7907 	 46.5314 	 123.617
|  8> C 	 -74.2896 	 45.7818 	 123.721
|  9> C 	 -74.197 	 44.8113 	 124.778
| 10> C 	 -72.9136 	 44.756 	 125.391
| 11> C 	 -72.029 	 45.6788 	 124.908
| 12> H 	 -72.5714 	 43.9765 	 126.119
| 13> C 	 -75.2745 	 43.7901 	 125.29
| 14> H 	 -76.1071 	 43.9932 	 124.637
| 15> H 	 -75.7618 	 44.1649 	 126.264
| 16> C 	 -74.7999 	 42.3156 	 125.239
| 17> H 	 -73.87 	 42.3067 	 125.981
| 18> H 	 -75.4768 	 41.5405 	 125.632
| 19> C 	 -74.1125 	 41.9194 	 123.931
| 20> H 	 -73.262 	 42.4285 	 123.798
| 21> H 	 -73.7659 	 40.8773 	 124.036
| 22> H 	 -74.7061 	 41.9281 	 123.015
| 23> S 	 -69.5435 	 45.5187 	 124.206
| 24> C 	 -68.2874 	 46.2787 	 125.237
| 25> C 	 -68.7646 	 46.8889 	 126.393
| 26> C 	 -70.1869 	 46.5941 	 126.581
| 27> C 	 -70.6998 	 45.9046 	 125.465
| 28> H 	 -68.1783 	 47.522 	 127.026
| 29> C 	 -71.0252 	 46.9524 	 127.817
| 30> H 	 -70.3 	 46.8805 	 128.602
| 31> H 	 -71.754 	 46.1895 	 128.041
| 32> C 	 -71.7869 	 48.3269 	 127.854
| 33> H 	 -71.0994 	 49.0567 	 127.567
| 34> H 	 -71.8698 	 48.5229 	 128.915
| 35> C 	 -73.1775 	 48.587 	 127.233
| 36> H 	 -73.7154 	 49.3985 	 127.787
| 37> H 	 -73.7458 	 47.6055 	 127.277
| 38> H 	 -73.0487 	 48.6853 	 126.151
| 39> H 	 -75.1553 	 46.0165 	 123.159
| 40> H 	 -67.3337 	 46.4853 	 124.91
| 41> *
| 42>
| 43>                          ****END OF INPUT****

CARTESIAN COORDINATES (ANGSTROEM)
---------------------------------
  S    -72.790700   46.531400  123.617000
  C    -74.289600   45.781800  123.721000
  C    -74.197000   44.811300  124.778000
  C    -72.913600   44.756000  125.391000
  C    -72.029000   45.678800  124.908000
  H    -72.571400   43.976500  126.119000
  C    -75.274500   43.790100  125.290000
  H    -76.107100   43.993200  124.637000
  H    -75.761800   44.164900  126.264000
  C    -74.799900   42.315600  125.239000
  H    -73.870000   42.306700  125.981000
  H    -75.476800   41.540500  125.632000
  C    -74.112500   41.919400  123.931000
  H    -73.262000   42.428500  123.798000
  H    -73.765900   40.877300  124.036000
  H    -74.706100   41.928100  123.015000
  S    -69.543500   45.518700  124.206000
  C    -68.287400   46.278700  125.237000
  C    -68.764600   46.888900  126.393000
  C    -70.186900   46.594100  126.581000
  C    -70.699800   45.904600  125.465000
  H    -68.178300   47.522000  127.026000
  C    -71.025200   46.952400  127.817000
  H    -70.300000   46.880500  128.602000
  H    -71.754000   46.189500  128.041000
  C    -71.786900   48.326900  127.854000
  H    -71.099400   49.056700  127.567000
  H    -71.869800   48.522900  128.915000
  C    -73.177500   48.587000  127.233000
  H    -73.715400   49.398500  127.787000
  H    -73.745800   47.605500  127.277000
  H    -73.048700   48.685300  126.151000
  H    -75.155300   46.016500  123.159000
  H    -67.333700   46.485300  124.910000

 Total Charge           Charge          ....    0
 Multiplicity           Mult            ....    1
 Number of Electrons    NEL             ....  134
 Basis Dimension        Dim             ....  322

ORBITAL ENERGIES
----------------

  NO   OCC          E(Eh)            E(eV)
   0   2.0000     -88.968992     -2420.9693
   1   2.0000     -88.967257     -2420.9221
   2   2.0000     -10.326715      -281.0042
   3   2.0000     -10.323378      -280.9134
   4   2.0000     -10.316766      -280.7335
   5   2.0000     -10.315393      -280.6961
   6   2.0000     -10.313083      -280.6333
   7   2.0000     -10.306775      -280.4616
   8   2.0000     -10.301884      -280.3285
   9   2.0000     -10.300690      -280.2960
  10   2.0000     -10.299310      -280.2585
  11   2.0000     -10.293820      -280.1091
  12   2.0000     -10.290226      -280.0113
  13   2.0000     -10.282524      -279.8017
  14   2.0000     -10.279010      -279.7061
  15   2.0000     -10.265632      -279.3421
  16   2.0000      -8.084698      -219.9958
  17   2.0000      -8.081409      -219.9063
  18   2.0000      -6.043063      -164.4401
  19   2.0000      -6.039902      -164.3541
  20   2.0000      -6.038704      -164.3215
  21   2.0000      -6.036115      -164.2510
  22   2.0000      -6.035870      -164.2444
  23   2.0000      -6.032088      -164.1415
  24   2.0000      -1.011473       -27.5236
  25   2.0000      -0.980298       -26.6753
  26   2.0000      -0.903900       -24.5964
  27   2.0000      -0.899235       -24.4694
  28   2.0000      -0.873146       -23.7595
  29   2.0000      -0.847449       -23.0603
  30   2.0000      -0.841507       -22.8986
  31   2.0000      -0.814998       -22.1772
  32   2.0000      -0.782160       -21.2837
  33   2.0000      -0.770629       -20.9699
  34   2.0000      -0.705754       -19.2045
  35   2.0000      -0.695293       -18.9199
  36   2.0000      -0.691992       -18.8301
  37   2.0000      -0.665667       -18.1137
  38   2.0000      -0.641054       -17.4440
  39   2.0000      -0.620299       -16.8792
  40   2.0000      -0.593979       -16.1630
  41   2.0000      -0.566436       -15.4135
  42   2.0000      -0.549684       -14.9577
  43   2.0000      -0.545938       -14.8557
  44   2.0000      -0.538560       -14.6550
  45   2.0000      -0.533728       -14.5235
  46   2.0000      -0.516225       -14.0472
  47   2.0000      -0.506057       -13.7705
  48   2.0000      -0.504322       -13.7233
  49   2.0000      -0.494714       -13.4619
  50   2.0000      -0.487067       -13.2538
  51   2.0000      -0.481014       -13.0891
  52   2.0000      -0.466153       -12.6847
  53   2.0000      -0.462680       -12.5902
  54   2.0000      -0.458490       -12.4761
  55   2.0000      -0.449730       -12.2378
  56   2.0000      -0.445469       -12.1218
  57   2.0000      -0.436798       -11.8859
  58   2.0000      -0.434649       -11.8274
  59   2.0000      -0.417959       -11.3732
  60   2.0000      -0.416451       -11.3322
  61   2.0000      -0.408860       -11.1256
  62   2.0000      -0.399623       -10.8743
  63   2.0000      -0.341580        -9.2949
  64   2.0000      -0.332147        -9.0382
  65   2.0000      -0.322784        -8.7834
  66   2.0000      -0.298563        -8.1243
  67   0.0000       0.035127         0.9558
  68   0.0000       0.058419         1.5897
  69   0.0000       0.104829         2.8525
  70   0.0000       0.113083         3.0771
  71   0.0000       0.126128         3.4321

MULLIKEN ATOMIC CHARGES
-----------------------
   0 S :    0.142539
   1 C :   -0.102068
   2 C :   -0.146800
   3 C :    0.010809
   4 C :   -0.146594
   5 H :    0.039245
   6 C :    0.091983
   7 H :    0.000315
   8 H :    0.051527
   9 C :   -0.130617
  10 H :    0.033484
  11 H :    0.047501
  12 C :    0.006373
  13 H :    0.011389
  14 H :    0.023140
  15 H :    0.032313
  16 S :    0.096080
  17 C :   -0.045591
  18 C :   -0.037445
  19 C :   -0.033879
  20 C :   -0.195457
  21 H :    0.018824
  22 C :    0.087043
  23 H :    0.013792
  24 H :    0.022035
  25 C :   -0.058671
  26 H :    0.004210
  27 H :    0.015059
  28 C :   -0.051554
  29 H :    0.057352
  30 H :    0.032747
  31 H :    0.040466
  32 H :    0.044351
  33 H :    0.026100
Sum of atomic charges:    0.0000000

LOEWDIN ATOMIC CHARGES
----------------------
   0 S :    0.459438
   1 C :   -0.223002
   2 C :   -0.063970
   3 C :   -0.076502
   4 C :   -0.229176
   5 H :    0.040698
   6 C :   -0.043812
   7 H :    0.019285
   8 H :    0.041367
   9 C :   -0.046578
  10 H :    0.033298
  11 H :    0.027902
  12 C :   -0.057649
  13 H :    0.008497
  14 H :    0.032152
  15 H :    0.024277
  16 S :    0.394860
  17 C :   -0.160868
  18 C :   -0.058218
  19 C :   -0.046338
  20 C :   -0.193125
  21 H :    0.030612
  22 C :   -0.026127
  23 H :    0.030770
  24 H :    0.029967
  25 C :   -0.042525
  26 H :    0.012774
  27 H :    0.023844
  28 C :   -0.072290
  29 H :    0.036997
  30 H :    0.032807
  31 H :    0.025098
  32 H :    0.027041
  33 H :    0.008495

  Mayer bond orders larger than 0.100000
B(  0-S ,  1-C ) :   1.1768 B(  0-S ,  4-C ) :   1.1728 B(  1-C ,  2-C ) :   1.5369
B(  1-C ,  4-C ) :   0.1021 B(  1-C , 32-H ) :   0.9795 B(  2-C ,  3-C ) :   1.2885
B(  2-C ,  6-C ) :   1.0071 B(  3-C ,  4-C ) :   1.5467 B(  3-C ,  5-H ) :   0.9828
B(  4-C , 20-C ) :   1.0093 B(  6-C ,  7-H ) :   0.9383 B(  6-C ,  8-H ) :   0.9479
B(  6-C ,  9-C ) :   1.0431 B(  9-C , 10-H ) :   0.9545 B(  9-C , 11-H ) :   0.9628
B(  9-C , 12-C ) :   1.0724 B( 12-C , 13-H ) :   0.9679 B( 12-C , 14-H ) :   0.9679
B( 12-C , 15-H ) :   0.9760 B( 16-S , 17-C ) :   1.1359 B( 16-S , 20-C ) :   1.1454
B( 17-C , 18-C ) :   1.6451 B( 17-C , 33-H ) :   0.9728 B( 18-C , 19-C ) :   1.2139
B( 18-C , 21-H ) :   0.9884 B( 19-C , 20-C ) :   1.6170 B( 19-C , 22-C ) :   1.0277
B( 22-C , 23-H ) :   0.9276 B( 22-C , 24-H ) :   0.9414 B( 22-C , 25-C ) :   1.0706
B( 25-C , 26-H ) :   0.9538 B( 25-C , 27-H ) :   0.9541 B( 25-C , 28-C ) :   1.0695
B( 28-C , 29-H ) :   0.9721 B( 28-C , 30-H ) :   0.9732 B( 28-C , 31-H ) :   0.9730

Dispersion correction           -0.015741659
FINAL SINGLE POINT ENERGY     -1339.836827507905

DIPOLE MOMENT
-------------
                                X             Y             Z
Electronic contribution:     14.29211       4.84919     -12.87416
Nuclear contribution   :    -14.46083      -4.81023      13.27836
                        -----------------------------------------
Total Dipole Moment    :     -0.16872       0.03897       0.40420
                        -----------------------------------------
Magnitude (a.u.)       :      0.43973
Magnitude (Debye)      :      1.11769

Rotational constants in cm-1:     0.018900     0.009580     0.008053
Rotational constants in MHz :   566.602412   287.199380   241.430460

                             ****ORCA TERMINATED NORMALLY****
TOTAL RUN TIME: 0 days 0 hours 0 minutes 33 seconds 520 msec
