                         Program Version 4.2.1 -  RELEASE  -
|  1> ! wB97X-D3 SP def2-SVP
|  2> %pal
|  3> nprocs 16
|  4> end
|  5>
|  6> * xyz 0 1
|  7> S 	 -68.4688 	 45.4899 	 133.417
|  8> C 	 -69.3258 	 46.4341 	 132.248
|  9> C 	 -70.7176 	 46.3171 	 132.357
| 10> C 	 -71.034 	 45.312 	 133.341
| 11> C 	 -69.9336 	 44.6969 	 133.962
| 12> H 	 -72.0709 	 44.9213 	 133.494
| 13> C 	 -71.7527 	 46.8992 	 131.415
| 14> H 	 -71.4013 	 47.914 	 131.083
| 15> H 	 -72.6844 	 47.0784 	 132.007
| 16> C 	 -72.0957 	 46.0975 	 130.096
| 17> H 	 -71.3031 	 45.9977 	 129.43
| 18> H 	 -72.355 	 45.1083 	 130.318
| 19> C 	 -73.3391 	 46.6939 	 129.408
| 20> H 	 -73.5282 	 46.3496 	 128.364
| 21> H 	 -74.1419 	 46.7691 	 130.2
| 22> H 	 -73.1696 	 47.7718 	 129.245
| 23> S 	 -71.64 	 43.5291 	 135.831
| 24> C 	 -71.1122 	 42.2044 	 136.828
| 25> C 	 -69.8488 	 41.8517 	 136.52
| 26> C 	 -69.1522 	 42.7624 	 135.638
| 27> C 	 -70.0453 	 43.6325 	 135
| 28> H 	 -69.3907 	 40.9815 	 137.055
| 29> C 	 -67.7184 	 42.3892 	 135.221
| 30> H 	 -67.6256 	 42.6845 	 134.127
| 31> H 	 -67.4431 	 41.3226 	 135.243
| 32> C 	 -66.6812 	 43.1902 	 136.043
| 33> H 	 -66.5631 	 42.8406 	 137.123
| 34> H 	 -66.9739 	 44.2354 	 136.006
| 35> C 	 -65.2545 	 42.914 	 135.441
| 36> H 	 -65.1522 	 42.8954 	 134.346
| 37> H 	 -64.9642 	 41.8718 	 135.856
| 38> H 	 -64.5359 	 43.6445 	 135.806
| 39> H 	 -68.8054 	 47.0194 	 131.486
| 40> H 	 -71.6439 	 41.6769 	 137.641
| 41> *
| 42>
| 43>                          ****END OF INPUT****

CARTESIAN COORDINATES (ANGSTROEM)
---------------------------------
  S    -68.468800   45.489900  133.417000
  C    -69.325800   46.434100  132.248000
  C    -70.717600   46.317100  132.357000
  C    -71.034000   45.312000  133.341000
  C    -69.933600   44.696900  133.962000
  H    -72.070900   44.921300  133.494000
  C    -71.752700   46.899200  131.415000
  H    -71.401300   47.914000  131.083000
  H    -72.684400   47.078400  132.007000
  C    -72.095700   46.097500  130.096000
  H    -71.303100   45.997700  129.430000
  H    -72.355000   45.108300  130.318000
  C    -73.339100   46.693900  129.408000
  H    -73.528200   46.349600  128.364000
  H    -74.141900   46.769100  130.200000
  H    -73.169600   47.771800  129.245000
  S    -71.640000   43.529100  135.831000
  C    -71.112200   42.204400  136.828000
  C    -69.848800   41.851700  136.520000
  C    -69.152200   42.762400  135.638000
  C    -70.045300   43.632500  135.000000
  H    -69.390700   40.981500  137.055000
  C    -67.718400   42.389200  135.221000
  H    -67.625600   42.684500  134.127000
  H    -67.443100   41.322600  135.243000
  C    -66.681200   43.190200  136.043000
  H    -66.563100   42.840600  137.123000
  H    -66.973900   44.235400  136.006000
  C    -65.254500   42.914000  135.441000
  H    -65.152200   42.895400  134.346000
  H    -64.964200   41.871800  135.856000
  H    -64.535900   43.644500  135.806000
  H    -68.805400   47.019400  131.486000
  H    -71.643900   41.676900  137.641000

 Total Charge           Charge          ....    0
 Multiplicity           Mult            ....    1
 Number of Electrons    NEL             ....  134
 Basis Dimension        Dim             ....  322

ORBITAL ENERGIES
----------------

  NO   OCC          E(Eh)            E(eV)
   0   2.0000     -88.973785     -2421.0998
   1   2.0000     -88.965229     -2420.8670
   2   2.0000     -10.340233      -281.3721
   3   2.0000     -10.339094      -281.3411
   4   2.0000     -10.318725      -280.7868
   5   2.0000     -10.315325      -280.6943
   6   2.0000     -10.309162      -280.5266
   7   2.0000     -10.307892      -280.4920
   8   2.0000     -10.305391      -280.4239
   9   2.0000     -10.300611      -280.2939
  10   2.0000     -10.299321      -280.2588
  11   2.0000     -10.292607      -280.0761
  12   2.0000     -10.292526      -280.0739
  13   2.0000     -10.286978      -279.9229
  14   2.0000     -10.284807      -279.8638
  15   2.0000     -10.282176      -279.7922
  16   2.0000      -8.087988      -220.0854
  17   2.0000      -8.079247      -219.8475
  18   2.0000      -6.046566      -164.5354
  19   2.0000      -6.042427      -164.4228
  20   2.0000      -6.038879      -164.3263
  21   2.0000      -6.038016      -164.3028
  22   2.0000      -6.033906      -164.1909
  23   2.0000      -6.029708      -164.0767
  24   2.0000      -1.003467       -27.3057
  25   2.0000      -0.983950       -26.7746
  26   2.0000      -0.907608       -24.6973
  27   2.0000      -0.901761       -24.5382
  28   2.0000      -0.868756       -23.6401
  29   2.0000      -0.852408       -23.1952
  30   2.0000      -0.841007       -22.8850
  31   2.0000      -0.809940       -22.0396
  32   2.0000      -0.775675       -21.1072
  33   2.0000      -0.765295       -20.8247
  34   2.0000      -0.709611       -19.3095
  35   2.0000      -0.700997       -19.0751
  36   2.0000      -0.686384       -18.6775
  37   2.0000      -0.663145       -18.0451
  38   2.0000      -0.633063       -17.2265
  39   2.0000      -0.613391       -16.6912
  40   2.0000      -0.594005       -16.1637
  41   2.0000      -0.571466       -15.5504
  42   2.0000      -0.562980       -15.3195
  43   2.0000      -0.558862       -15.2074
  44   2.0000      -0.524908       -14.2835
  45   2.0000      -0.516890       -14.0653
  46   2.0000      -0.511120       -13.9083
  47   2.0000      -0.507639       -13.8136
  48   2.0000      -0.503250       -13.6941
  49   2.0000      -0.494966       -13.4687
  50   2.0000      -0.493897       -13.4396
  51   2.0000      -0.471975       -12.8431
  52   2.0000      -0.469526       -12.7764
  53   2.0000      -0.463156       -12.6031
  54   2.0000      -0.457505       -12.4493
  55   2.0000      -0.450510       -12.2590
  56   2.0000      -0.440168       -11.9776
  57   2.0000      -0.438286       -11.9264
  58   2.0000      -0.435898       -11.8614
  59   2.0000      -0.426909       -11.6168
  60   2.0000      -0.417761       -11.3679
  61   2.0000      -0.416605       -11.3364
  62   2.0000      -0.405691       -11.0394
  63   2.0000      -0.362098        -9.8532
  64   2.0000      -0.332839        -9.0570
  65   2.0000      -0.329461        -8.9651
  66   2.0000      -0.284283        -7.7357
  67   0.0000       0.018087         0.4922
  68   0.0000       0.083213         2.2643
  69   0.0000       0.104622         2.8469
  70   0.0000       0.109514         2.9800
  71   0.0000       0.128353         3.4927

MULLIKEN ATOMIC CHARGES
-----------------------
   0 S :    0.116749
   1 C :   -0.136857
   2 C :   -0.049572
   3 C :   -0.041779
   4 C :   -0.102143
   5 H :    0.039146
   6 C :    0.000615
   7 H :    0.032826
   8 H :    0.036429
   9 C :    0.006915
  10 H :    0.011266
  11 H :    0.015667
  12 C :   -0.077971
  13 H :    0.053272
  14 H :    0.036417
  15 H :    0.014437
  16 S :    0.076402
  17 C :   -0.076280
  18 C :   -0.052119
  19 C :   -0.037182
  20 C :   -0.112843
  21 H :    0.033371
  22 C :   -0.013393
  23 H :    0.038654
  24 H :    0.035997
  25 C :   -0.091696
  26 H :    0.047776
  27 H :    0.037079
  28 C :   -0.078691
  29 H :    0.038891
  30 H :    0.037551
  31 H :    0.039547
  32 H :    0.055816
  33 H :    0.065705
Sum of atomic charges:    0.0000000

LOEWDIN ATOMIC CHARGES
----------------------
   0 S :    0.422335
   1 C :   -0.203442
   2 C :   -0.065483
   3 C :   -0.076462
   4 C :   -0.195403
   5 H :    0.032103
   6 C :   -0.033636
   7 H :    0.034606
   8 H :    0.035697
   9 C :   -0.029234
  10 H :    0.015311
  11 H :    0.017369
  12 C :   -0.077762
  13 H :    0.035276
  14 H :    0.033129
  15 H :    0.021567
  16 S :    0.389244
  17 C :   -0.193541
  18 C :   -0.079120
  19 C :   -0.060910
  20 C :   -0.169373
  21 H :    0.038054
  22 C :   -0.038365
  23 H :    0.031532
  24 H :    0.031434
  25 C :   -0.043552
  26 H :    0.033821
  27 H :    0.017557
  28 C :   -0.075010
  29 H :    0.022768
  30 H :    0.032689
  31 H :    0.024268
  32 H :    0.030228
  33 H :    0.042304

  Mayer bond orders larger than 0.100000
B(  0-S ,  1-C ) :   1.1553 B(  0-S ,  4-C ) :   1.1399 B(  1-C ,  2-C ) :   1.5770
B(  1-C , 32-H ) :   0.9672 B(  2-C ,  3-C ) :   1.2718 B(  2-C ,  6-C ) :   1.0420
B(  3-C ,  4-C ) :   1.5399 B(  3-C ,  5-H ) :   0.9742 B(  4-C , 20-C ) :   1.0830
B(  6-C ,  7-H ) :   0.9392 B(  6-C ,  8-H ) :   0.9427 B(  6-C ,  9-C ) :   1.0497
B(  9-C , 10-H ) :   0.9545 B(  9-C , 11-H ) :   0.9567 B(  9-C , 12-C ) :   1.0753
B( 12-C , 13-H ) :   0.9710 B( 12-C , 14-H ) :   0.9734 B( 12-C , 15-H ) :   0.9730
B( 16-S , 17-C ) :   1.1292 B( 16-S , 20-C ) :   1.1208 B( 17-C , 18-C ) :   1.6623
B( 17-C , 33-H ) :   0.9601 B( 18-C , 19-C ) :   1.2138 B( 18-C , 21-H ) :   0.9780
B( 19-C , 20-C ) :   1.5950 B( 19-C , 22-C ) :   1.0296 B( 22-C , 23-H ) :   0.9479
B( 22-C , 24-H ) :   0.9539 B( 22-C , 25-C ) :   1.0434 B( 25-C , 26-H ) :   0.9583
B( 25-C , 27-H ) :   0.9605 B( 25-C , 28-C ) :   1.0634 B( 28-C , 29-H ) :   0.9778
B( 28-C , 30-H ) :   0.9770 B( 28-C , 31-H ) :   0.9765

Dispersion correction           -0.013594056
FINAL SINGLE POINT ENERGY     -1339.870228334834

DIPOLE MOMENT
-------------
                                X             Y             Z
Electronic contribution:     -3.99173      -1.44874      11.94782
Nuclear contribution   :      4.07026       1.32605     -12.18520
                        -----------------------------------------
Total Dipole Moment    :      0.07853      -0.12269      -0.23739
                        -----------------------------------------
Magnitude (a.u.)       :      0.27852
Magnitude (Debye)      :      0.70794

Rotational constants in cm-1:     0.021106     0.007499     0.005852
Rotational constants in MHz :   632.749291   224.827376   175.447586

                             ****ORCA TERMINATED NORMALLY****
TOTAL RUN TIME: 0 days 0 hours 0 minutes 32 seconds 399 msec
