                         Program Version 4.2.1 -  RELEASE  -
|  1> ! wB97X-D3 SP def2-SVP
|  2> %pal
|  3> nprocs 16
|  4> end
|  5>
|  6> * xyz 0 1
|  7> S 	 32.0386 	 15.8146 	 48.9344
|  8> C 	 32.2861 	 17.2057 	 49.9312
|  9> C 	 33.1303 	 16.8425 	 50.9642
| 10> C 	 33.7236 	 15.5495 	 50.8236
| 11> C 	 33.3378 	 14.92 	 49.725
| 12> H 	 34.3543 	 14.9589 	 51.3919
| 13> C 	 33.3574 	 17.7781 	 52.1982
| 14> H 	 32.4949 	 17.6898 	 52.807
| 15> H 	 33.3376 	 18.8402 	 51.9698
| 16> C 	 34.6116 	 17.5387 	 53.0705
| 17> H 	 34.6828 	 16.4921 	 53.1458
| 18> H 	 35.4881 	 17.7333 	 52.4388
| 19> C 	 34.7536 	 18.2767 	 54.3747
| 20> H 	 35.0968 	 19.3209 	 54.1585
| 21> H 	 33.8526 	 18.2351 	 54.9719
| 22> H 	 35.5665 	 17.779 	 55.0389
| 23> S 	 32.4565 	 12.4797 	 48.6295
| 24> C 	 33.443 	 11.0987 	 48.577
| 25> C 	 34.6717 	 11.4572 	 48.9808
| 26> C 	 34.832 	 12.8019 	 49.4739
| 27> C 	 33.6735 	 13.5393 	 49.4183
| 28> H 	 35.5576 	 10.7558 	 48.9512
| 29> C 	 36.1443 	 13.2206 	 49.9104
| 30> H 	 36.2445 	 13.1498 	 50.9299
| 31> H 	 36.0346 	 14.3139 	 49.9475
| 32> C 	 37.3778 	 12.8746 	 49.1069
| 33> H 	 37.568 	 11.8817 	 49.3217
| 34> H 	 38.2218 	 13.5109 	 49.4923
| 35> C 	 37.1856 	 13.1013 	 47.6153
| 36> H 	 36.9869 	 14.2074 	 47.5449
| 37> H 	 36.1986 	 12.8438 	 47.2221
| 38> H 	 38.0998 	 12.8869 	 46.9949
| 39> H 	 31.635 	 18.1118 	 49.8912
| 40> H 	 33.2114 	 10.0898 	 48.2357
| 41> *
| 42>
| 43>                          ****END OF INPUT****

CARTESIAN COORDINATES (ANGSTROEM)
---------------------------------
  S     32.038600   15.814600   48.934400
  C     32.286100   17.205700   49.931200
  C     33.130300   16.842500   50.964200
  C     33.723600   15.549500   50.823600
  C     33.337800   14.920000   49.725000
  H     34.354300   14.958900   51.391900
  C     33.357400   17.778100   52.198200
  H     32.494900   17.689800   52.807000
  H     33.337600   18.840200   51.969800
  C     34.611600   17.538700   53.070500
  H     34.682800   16.492100   53.145800
  H     35.488100   17.733300   52.438800
  C     34.753600   18.276700   54.374700
  H     35.096800   19.320900   54.158500
  H     33.852600   18.235100   54.971900
  H     35.566500   17.779000   55.038900
  S     32.456500   12.479700   48.629500
  C     33.443000   11.098700   48.577000
  C     34.671700   11.457200   48.980800
  C     34.832000   12.801900   49.473900
  C     33.673500   13.539300   49.418300
  H     35.557600   10.755800   48.951200
  C     36.144300   13.220600   49.910400
  H     36.244500   13.149800   50.929900
  H     36.034600   14.313900   49.947500
  C     37.377800   12.874600   49.106900
  H     37.568000   11.881700   49.321700
  H     38.221800   13.510900   49.492300
  C     37.185600   13.101300   47.615300
  H     36.986900   14.207400   47.544900
  H     36.198600   12.843800   47.222100
  H     38.099800   12.886900   46.994900
  H     31.635000   18.111800   49.891200
  H     33.211400   10.089800   48.235700

 Total Charge           Charge          ....    0
 Multiplicity           Mult            ....    1
 Number of Electrons    NEL             ....  134
 Basis Dimension        Dim             ....  322

ORBITAL ENERGIES
----------------

  NO   OCC          E(Eh)            E(eV)
   0   2.0000     -88.964646     -2420.8511
   1   2.0000     -88.960452     -2420.7370
   2   2.0000     -10.330817      -281.1158
   3   2.0000     -10.327990      -281.0389
   4   2.0000     -10.319023      -280.7949
   5   2.0000     -10.314014      -280.6586
   6   2.0000     -10.310515      -280.5634
   7   2.0000     -10.299712      -280.2694
   8   2.0000     -10.290488      -280.0184
   9   2.0000     -10.290372      -280.0152
  10   2.0000     -10.290006      -280.0053
  11   2.0000     -10.288723      -279.9704
  12   2.0000     -10.285809      -279.8911
  13   2.0000     -10.281114      -279.7633
  14   2.0000     -10.280128      -279.7365
  15   2.0000     -10.278182      -279.6836
  16   2.0000      -8.079758      -219.8614
  17   2.0000      -8.075769      -219.7528
  18   2.0000      -6.038387      -164.3129
  19   2.0000      -6.034492      -164.2069
  20   2.0000      -6.034284      -164.2012
  21   2.0000      -6.030268      -164.0919
  22   2.0000      -6.030133      -164.0883
  23   2.0000      -6.026308      -163.9842
  24   2.0000      -1.016445       -27.6589
  25   2.0000      -0.994643       -27.0656
  26   2.0000      -0.924276       -25.1508
  27   2.0000      -0.908987       -24.7348
  28   2.0000      -0.883023       -24.0283
  29   2.0000      -0.851611       -23.1735
  30   2.0000      -0.845726       -23.0134
  31   2.0000      -0.822652       -22.3855
  32   2.0000      -0.786763       -21.4089
  33   2.0000      -0.774313       -21.0701
  34   2.0000      -0.715791       -19.4777
  35   2.0000      -0.706042       -19.2124
  36   2.0000      -0.694456       -18.8971
  37   2.0000      -0.660034       -17.9604
  38   2.0000      -0.649618       -17.6770
  39   2.0000      -0.623460       -16.9652
  40   2.0000      -0.606722       -16.5097
  41   2.0000      -0.566148       -15.4057
  42   2.0000      -0.565067       -15.3762
  43   2.0000      -0.562166       -15.2973
  44   2.0000      -0.540428       -14.7058
  45   2.0000      -0.524258       -14.2658
  46   2.0000      -0.523676       -14.2499
  47   2.0000      -0.514755       -14.0072
  48   2.0000      -0.510187       -13.8829
  49   2.0000      -0.503465       -13.7000
  50   2.0000      -0.496938       -13.5224
  51   2.0000      -0.486427       -13.2363
  52   2.0000      -0.477164       -12.9843
  53   2.0000      -0.469118       -12.7654
  54   2.0000      -0.456672       -12.4267
  55   2.0000      -0.454452       -12.3663
  56   2.0000      -0.445689       -12.1278
  57   2.0000      -0.435764       -11.8577
  58   2.0000      -0.426730       -11.6119
  59   2.0000      -0.423321       -11.5191
  60   2.0000      -0.414048       -11.2668
  61   2.0000      -0.408194       -11.1075
  62   2.0000      -0.404188       -10.9985
  63   2.0000      -0.366288        -9.9672
  64   2.0000      -0.331541        -9.0217
  65   2.0000      -0.324027        -8.8172
  66   2.0000      -0.292484        -7.9589
  67   0.0000       0.026314         0.7160
  68   0.0000       0.077709         2.1146
  69   0.0000       0.113982         3.1016
  70   0.0000       0.126253         3.4355
  71   0.0000       0.136076         3.7028

MULLIKEN ATOMIC CHARGES
-----------------------
   0 S :    0.098914
   1 C :   -0.128535
   2 C :   -0.053741
   3 C :    0.003236
   4 C :   -0.098780
   5 H :   -0.014963
   6 C :    0.072552
   7 H :    0.020516
   8 H :    0.017685
   9 C :   -0.080455
  10 H :    0.012477
  11 H :    0.022716
  12 C :   -0.060912
  13 H :    0.047260
  14 H :    0.035255
  15 H :    0.045974
  16 S :    0.082852
  17 C :   -0.064931
  18 C :   -0.056416
  19 C :   -0.102821
  20 C :   -0.143350
  21 H :    0.031710
  22 C :    0.079452
  23 H :    0.015152
  24 H :   -0.002528
  25 C :   -0.018912
  26 H :    0.013640
  27 H :    0.040623
  28 C :   -0.075518
  29 H :    0.019410
  30 H :    0.050300
  31 H :    0.057418
  32 H :    0.073481
  33 H :    0.061241
Sum of atomic charges:    0.0000000

LOEWDIN ATOMIC CHARGES
----------------------
   0 S :    0.400399
   1 C :   -0.205243
   2 C :   -0.053642
   3 C :   -0.065230
   4 C :   -0.175878
   5 H :    0.023021
   6 C :   -0.030545
   7 H :    0.024736
   8 H :    0.027266
   9 C :   -0.052432
  10 H :    0.012663
  11 H :    0.026537
  12 C :   -0.069015
  13 H :    0.032448
  14 H :    0.022671
  15 H :    0.040722
  16 S :    0.395979
  17 C :   -0.197491
  18 C :   -0.084138
  19 C :   -0.064202
  20 C :   -0.177958
  21 H :    0.036963
  22 C :   -0.045025
  23 H :    0.025183
  24 H :    0.033794
  25 C :   -0.032095
  26 H :    0.007409
  27 H :    0.037865
  28 C :   -0.081216
  29 H :    0.034044
  30 H :    0.032379
  31 H :    0.035445
  32 H :    0.043474
  33 H :    0.041112

  Mayer bond orders larger than 0.100000
B(  0-S ,  1-C ) :   1.1315 B(  0-S ,  4-C ) :   1.1326 B(  1-C ,  2-C ) :   1.6227
B(  1-C , 32-H ) :   0.9687 B(  2-C ,  3-C ) :   1.1961 B(  2-C ,  6-C ) :   1.0038
B(  3-C ,  4-C ) :   1.5899 B(  3-C ,  5-H ) :   1.0135 B(  4-C , 20-C ) :   1.0689
B(  6-C ,  7-H ) :   0.9346 B(  6-C ,  8-H ) :   0.9477 B(  6-C ,  9-C ) :   1.0660
B(  9-C , 10-H ) :   0.9489 B(  9-C , 11-H ) :   0.9547 B(  9-C , 12-C ) :   1.0864
B( 12-C , 13-H ) :   0.9742 B( 12-C , 14-H ) :   0.9751 B( 12-C , 15-H ) :   0.9714
B( 16-S , 17-C ) :   1.1536 B( 16-S , 20-C ) :   1.1105 B( 17-C , 18-C ) :   1.6109
B( 17-C , 33-H ) :   0.9658 B( 18-C , 19-C ) :   1.2439 B( 18-C , 21-H ) :   0.9791
B( 19-C , 20-C ) :   1.5943 B( 19-C , 22-C ) :   1.0619 B( 22-C , 23-H ) :   0.9088
B( 22-C , 24-H ) :   0.9030 B( 22-C , 25-C ) :   1.0659 B( 25-C , 26-H ) :   0.9492
B( 25-C , 27-H ) :   0.9506 B( 25-C , 28-C ) :   1.0788 B( 28-C , 29-H ) :   0.9666
B( 28-C , 30-H ) :   0.9660 B( 28-C , 31-H ) :   0.9726

Dispersion correction           -0.014037687
FINAL SINGLE POINT ENERGY     -1339.844832517663

DIPOLE MOMENT
-------------
                                X             Y             Z
Electronic contribution:    -21.60115      -9.14708     -14.03164
Nuclear contribution   :     22.08294       9.22610      14.53455
                        -----------------------------------------
Total Dipole Moment    :      0.48179       0.07901       0.50291
                        -----------------------------------------
Magnitude (a.u.)       :      0.70092
Magnitude (Debye)      :      1.78159

Rotational constants in cm-1:     0.019046     0.008290     0.006568
Rotational constants in MHz :   570.996691   248.517455   196.898692

                             ****ORCA TERMINATED NORMALLY****
TOTAL RUN TIME: 0 days 0 hours 0 minutes 32 seconds 857 msec
