                         Program Version 4.2.1 -  RELEASE  -
|  1> ! wB97X-D3 SP def2-SVP
|  2> %pal
|  3> nprocs 16
|  4> end
|  5>
|  6> * xyz 0 1
|  7> S 	 -12.0964 	 68.374 	 49.839
|  8> C 	 -12.421 	 67.0489 	 48.7261
|  9> C 	 -13.7408 	 67.1128 	 48.2283
| 10> C 	 -14.4317 	 68.2371 	 48.6545
| 11> C 	 -13.728 	 69.0002 	 49.5299
| 12> H 	 -15.5413 	 68.5135 	 48.4122
| 13> C 	 -14.2204 	 66.1748 	 47.2043
| 14> H 	 -13.72 	 65.2656 	 47.4507
| 15> H 	 -13.938 	 66.5514 	 46.1392
| 16> C 	 -15.7344 	 65.8552 	 47.3873
| 17> H 	 -15.9294 	 65.8036 	 48.4028
| 18> H 	 -16.2516 	 66.7661 	 47.0033
| 19> C 	 -16.2741 	 64.5279 	 46.7218
| 20> H 	 -17.3126 	 64.5938 	 46.9849
| 21> H 	 -16.2503 	 64.4933 	 45.618
| 22> H 	 -15.8601 	 63.6541 	 47.1258
| 23> S 	 -15.9575 	 70.4151 	 50.3845
| 24> C 	 -15.848 	 72.134 	 50.6188
| 25> C 	 -14.556 	 72.5615 	 50.6848
| 26> C 	 -13.5987 	 71.5495 	 50.345
| 27> C 	 -14.1741 	 70.2335 	 50.1412
| 28> H 	 -14.3977 	 73.5851 	 50.8708
| 29> C 	 -12.1299 	 71.9239 	 49.9995
| 30> H 	 -11.7016 	 70.9992 	 49.6721
| 31> H 	 -11.7004 	 72.2882 	 50.9314
| 32> C 	 -12.0492 	 72.7151 	 48.6845
| 33> H 	 -12.3613 	 73.6769 	 49.072
| 34> H 	 -12.7756 	 72.3991 	 47.9314
| 35> C 	 -10.6375 	 72.6787 	 48.0116
| 36> H 	 -10.2764 	 71.7973 	 47.4893
| 37> H 	 -9.87923 	 72.8742 	 48.7549
| 38> H 	 -10.5415 	 73.5347 	 47.289
| 39> H 	 -11.6122 	 66.3071 	 48.5041
| 40> H 	 -16.5889 	 72.8946 	 50.7985
| 41> *
| 42>
| 43>                          ****END OF INPUT****

CARTESIAN COORDINATES (ANGSTROEM)
---------------------------------
  S    -12.096400   68.374000   49.839000
  C    -12.421000   67.048900   48.726100
  C    -13.740800   67.112800   48.228300
  C    -14.431700   68.237100   48.654500
  C    -13.728000   69.000200   49.529900
  H    -15.541300   68.513500   48.412200
  C    -14.220400   66.174800   47.204300
  H    -13.720000   65.265600   47.450700
  H    -13.938000   66.551400   46.139200
  C    -15.734400   65.855200   47.387300
  H    -15.929400   65.803600   48.402800
  H    -16.251600   66.766100   47.003300
  C    -16.274100   64.527900   46.721800
  H    -17.312600   64.593800   46.984900
  H    -16.250300   64.493300   45.618000
  H    -15.860100   63.654100   47.125800
  S    -15.957500   70.415100   50.384500
  C    -15.848000   72.134000   50.618800
  C    -14.556000   72.561500   50.684800
  C    -13.598700   71.549500   50.345000
  C    -14.174100   70.233500   50.141200
  H    -14.397700   73.585100   50.870800
  C    -12.129900   71.923900   49.999500
  H    -11.701600   70.999200   49.672100
  H    -11.700400   72.288200   50.931400
  C    -12.049200   72.715100   48.684500
  H    -12.361300   73.676900   49.072000
  H    -12.775600   72.399100   47.931400
  C    -10.637500   72.678700   48.011600
  H    -10.276400   71.797300   47.489300
  H     -9.879230   72.874200   48.754900
  H    -10.541500   73.534700   47.289000
  H    -11.612200   66.307100   48.504100
  H    -16.588900   72.894600   50.798500

 Total Charge           Charge          ....    0
 Multiplicity           Mult            ....    1
 Number of Electrons    NEL             ....  134
 Basis Dimension        Dim             ....  322

ORBITAL ENERGIES
----------------

  NO   OCC          E(Eh)            E(eV)
   0   2.0000     -88.968720     -2420.9619
   1   2.0000     -88.965900     -2420.8852
   2   2.0000     -10.334415      -281.2137
   3   2.0000     -10.330804      -281.1155
   4   2.0000     -10.319131      -280.7978
   5   2.0000     -10.314649      -280.6759
   6   2.0000     -10.311497      -280.5901
   7   2.0000     -10.298058      -280.2244
   8   2.0000     -10.295650      -280.1589
   9   2.0000     -10.290312      -280.0136
  10   2.0000     -10.288039      -279.9518
  11   2.0000     -10.287871      -279.9472
  12   2.0000     -10.287140      -279.9273
  13   2.0000     -10.286965      -279.9225
  14   2.0000     -10.279963      -279.7320
  15   2.0000     -10.277737      -279.6714
  16   2.0000      -8.082475      -219.9353
  17   2.0000      -8.079567      -219.8562
  18   2.0000      -6.040911      -164.3815
  19   2.0000      -6.038228      -164.3085
  20   2.0000      -6.037129      -164.2786
  21   2.0000      -6.034193      -164.1987
  22   2.0000      -6.033359      -164.1760
  23   2.0000      -6.030265      -164.0919
  24   2.0000      -1.003961       -27.3192
  25   2.0000      -0.979881       -26.6639
  26   2.0000      -0.911507       -24.8034
  27   2.0000      -0.904144       -24.6030
  28   2.0000      -0.869771       -23.6677
  29   2.0000      -0.850957       -23.1557
  30   2.0000      -0.838787       -22.8246
  31   2.0000      -0.816687       -22.2232
  32   2.0000      -0.782499       -21.2929
  33   2.0000      -0.765527       -20.8311
  34   2.0000      -0.715955       -19.4821
  35   2.0000      -0.699562       -19.0361
  36   2.0000      -0.685605       -18.6562
  37   2.0000      -0.661750       -18.0071
  38   2.0000      -0.626505       -17.0481
  39   2.0000      -0.621614       -16.9150
  40   2.0000      -0.586057       -15.9474
  41   2.0000      -0.571332       -15.5467
  42   2.0000      -0.567776       -15.4500
  43   2.0000      -0.561557       -15.2807
  44   2.0000      -0.524893       -14.2831
  45   2.0000      -0.520711       -14.1693
  46   2.0000      -0.515001       -14.0139
  47   2.0000      -0.511818       -13.9273
  48   2.0000      -0.501479       -13.6459
  49   2.0000      -0.493732       -13.4351
  50   2.0000      -0.488173       -13.2839
  51   2.0000      -0.481769       -13.1096
  52   2.0000      -0.478628       -13.0241
  53   2.0000      -0.470972       -12.8158
  54   2.0000      -0.457294       -12.4436
  55   2.0000      -0.452473       -12.3124
  56   2.0000      -0.443849       -12.0777
  57   2.0000      -0.437436       -11.9032
  58   2.0000      -0.430527       -11.7152
  59   2.0000      -0.425184       -11.5698
  60   2.0000      -0.416861       -11.3434
  61   2.0000      -0.407059       -11.0766
  62   2.0000      -0.398144       -10.8340
  63   2.0000      -0.353794        -9.6272
  64   2.0000      -0.334311        -9.0971
  65   2.0000      -0.329912        -8.9774
  66   2.0000      -0.278960        -7.5909
  67   0.0000       0.017774         0.4837
  68   0.0000       0.079246         2.1564
  69   0.0000       0.107748         2.9320
  70   0.0000       0.114775         3.1232
  71   0.0000       0.131670         3.5829

MULLIKEN ATOMIC CHARGES
-----------------------
   0 S :    0.112724
   1 C :   -0.158200
   2 C :   -0.089421
   3 C :   -0.038082
   4 C :   -0.129397
   5 H :    0.063012
   6 C :    0.084040
   7 H :    0.005947
   8 H :    0.066858
   9 C :   -0.129658
  10 H :    0.023390
  11 H :    0.039560
  12 C :   -0.010084
  13 H :    0.027739
  14 H :    0.036254
  15 H :    0.028970
  16 S :    0.084014
  17 C :   -0.074185
  18 C :   -0.030098
  19 C :   -0.084243
  20 C :   -0.126399
  21 H :    0.005048
  22 C :    0.082349
  23 H :   -0.002758
  24 H :    0.049412
  25 C :   -0.066864
  26 H :    0.020896
  27 H :    0.048903
  28 C :   -0.061754
  29 H :    0.046111
  30 H :    0.021596
  31 H :    0.036307
  32 H :    0.068661
  33 H :    0.049350
Sum of atomic charges:   -0.0000000

LOEWDIN ATOMIC CHARGES
----------------------
   0 S :    0.405400
   1 C :   -0.203657
   2 C :   -0.070199
   3 C :   -0.082591
   4 C :   -0.182947
   5 H :    0.048781
   6 C :   -0.038083
   7 H :    0.024789
   8 H :    0.045984
   9 C :   -0.035474
  10 H :    0.016216
  11 H :    0.026163
  12 C :   -0.057672
  13 H :    0.028736
  14 H :    0.028329
  15 H :    0.017516
  16 S :    0.390448
  17 C :   -0.185131
  18 C :   -0.076487
  19 C :   -0.045165
  20 C :   -0.185700
  21 H :    0.024824
  22 C :   -0.034724
  23 H :    0.009741
  24 H :    0.034105
  25 C :   -0.035467
  26 H :    0.020379
  27 H :    0.032442
  28 C :   -0.073025
  29 H :    0.028020
  30 H :    0.022129
  31 H :    0.032768
  32 H :    0.035919
  33 H :    0.033632

  Mayer bond orders larger than 0.100000
B(  0-S ,  1-C ) :   1.1410 B(  0-S ,  4-C ) :   1.1465 B(  1-C ,  2-C ) :   1.5745
B(  1-C ,  4-C ) :   0.1014 B(  1-C , 32-H ) :   0.9668 B(  2-C ,  3-C ) :   1.2641
B(  2-C ,  6-C ) :   1.0282 B(  3-C ,  4-C ) :   1.5729 B(  3-C ,  5-H ) :   0.9582
B(  4-C , 20-C ) :   1.0655 B(  6-C ,  7-H ) :   0.9306 B(  6-C ,  8-H ) :   0.9349
B(  6-C ,  9-C ) :   1.0670 B(  9-C , 10-H ) :   0.9623 B(  9-C , 11-H ) :   0.9495
B(  9-C , 12-C ) :   1.0807 B( 12-C , 13-H ) :   0.9737 B( 12-C , 14-H ) :   0.9763
B( 12-C , 15-H ) :   0.9757 B( 16-S , 17-C ) :   1.1527 B( 16-S , 20-C ) :   1.1182
B( 17-C , 18-C ) :   1.6327 B( 17-C , 33-H ) :   0.9605 B( 18-C , 19-C ) :   1.2389
B( 18-C , 21-H ) :   0.9938 B( 19-C , 20-C ) :   1.5540 B( 19-C , 22-C ) :   1.0385
B( 22-C , 23-H ) :   0.9316 B( 22-C , 24-H ) :   0.9385 B( 22-C , 25-C ) :   1.0400
B( 25-C , 26-H ) :   0.9595 B( 25-C , 27-H ) :   0.9584 B( 25-C , 28-C ) :   1.0766
B( 28-C , 29-H ) :   0.9764 B( 28-C , 30-H ) :   0.9743 B( 28-C , 31-H ) :   0.9752

Dispersion correction           -0.013835992
FINAL SINGLE POINT ENERGY     -1339.848999440954

DIPOLE MOMENT
-------------
                                X             Y             Z
Electronic contribution:     -2.76976       3.00519      15.39561
Nuclear contribution   :      2.80221      -2.88709     -15.79155
                        -----------------------------------------
Total Dipole Moment    :      0.03245       0.11810      -0.39595
                        -----------------------------------------
Magnitude (a.u.)       :      0.41446
Magnitude (Debye)      :      1.05347

Rotational constants in cm-1:     0.019550     0.008099     0.006505
Rotational constants in MHz :   586.082309   242.801540   195.011365

                             ****ORCA TERMINATED NORMALLY****
TOTAL RUN TIME: 0 days 0 hours 0 minutes 34 seconds 384 msec
