                         Program Version 4.2.1 -  RELEASE  -
|  1> ! wB97X-D3 SP def2-SVP
|  2> %pal
|  3> nprocs 16
|  4> end
|  5>
|  6> * xyz 0 1
|  7> S 	 -28.2275 	 30.1877 	 37.9134
|  8> C 	 -27.7742 	 31.4292 	 36.7644
|  9> C 	 -27.2015 	 32.4307 	 37.4892
| 10> C 	 -27.3455 	 32.345 	 38.9062
| 11> C 	 -27.8671 	 31.135 	 39.3259
| 12> H 	 -27.0467 	 32.9964 	 39.6436
| 13> C 	 -26.6579 	 33.6389 	 36.8043
| 14> H 	 -26.2558 	 33.4205 	 35.7881
| 15> H 	 -25.6887 	 33.9445 	 37.2087
| 16> C 	 -27.5487 	 34.9385 	 36.8665
| 17> H 	 -27.0117 	 35.6405 	 36.2623
| 18> H 	 -28.5327 	 34.7158 	 36.329
| 19> C 	 -27.795 	 35.5 	 38.2657
| 20> H 	 -28.28 	 36.5084 	 38.2294
| 21> H 	 -28.4629 	 34.8011 	 38.815
| 22> H 	 -26.9124 	 35.6132 	 38.8943
| 23> S 	 -27.3793 	 29.4976 	 41.3546
| 24> C 	 -28.3222 	 29.6446 	 42.8202
| 25> C 	 -29.3863 	 30.4596 	 42.6658
| 26> C 	 -29.2521 	 31.2516 	 41.483
| 27> C 	 -28.275 	 30.7643 	 40.6321
| 28> H 	 -30.161 	 30.5248 	 43.3897
| 29> C 	 -30.1576 	 32.3618 	 41.1371
| 30> H 	 -31.1185 	 31.947 	 41.0994
| 31> H 	 -29.864 	 32.8457 	 40.2022
| 32> C 	 -30.2763 	 33.4491 	 42.2055
| 33> H 	 -31.0237 	 33.179 	 42.9958
| 34> H 	 -30.7196 	 34.2586 	 41.6253
| 35> C 	 -29.0326 	 33.8796 	 42.9097
| 36> H 	 -28.6351 	 33.2508 	 43.7653
| 37> H 	 -29.199 	 34.9052 	 43.2752
| 38> H 	 -28.1815 	 34.008 	 42.2234
| 39> H 	 -27.7031 	 31.397 	 35.6654
| 40> H 	 -28.185 	 29.022 	 43.691
| 41> *
| 42>
| 43>                          ****END OF INPUT****

CARTESIAN COORDINATES (ANGSTROEM)
---------------------------------
  S    -28.227500   30.187700   37.913400
  C    -27.774200   31.429200   36.764400
  C    -27.201500   32.430700   37.489200
  C    -27.345500   32.345000   38.906200
  C    -27.867100   31.135000   39.325900
  H    -27.046700   32.996400   39.643600
  C    -26.657900   33.638900   36.804300
  H    -26.255800   33.420500   35.788100
  H    -25.688700   33.944500   37.208700
  C    -27.548700   34.938500   36.866500
  H    -27.011700   35.640500   36.262300
  H    -28.532700   34.715800   36.329000
  C    -27.795000   35.500000   38.265700
  H    -28.280000   36.508400   38.229400
  H    -28.462900   34.801100   38.815000
  H    -26.912400   35.613200   38.894300
  S    -27.379300   29.497600   41.354600
  C    -28.322200   29.644600   42.820200
  C    -29.386300   30.459600   42.665800
  C    -29.252100   31.251600   41.483000
  C    -28.275000   30.764300   40.632100
  H    -30.161000   30.524800   43.389700
  C    -30.157600   32.361800   41.137100
  H    -31.118500   31.947000   41.099400
  H    -29.864000   32.845700   40.202200
  C    -30.276300   33.449100   42.205500
  H    -31.023700   33.179000   42.995800
  H    -30.719600   34.258600   41.625300
  C    -29.032600   33.879600   42.909700
  H    -28.635100   33.250800   43.765300
  H    -29.199000   34.905200   43.275200
  H    -28.181500   34.008000   42.223400
  H    -27.703100   31.397000   35.665400
  H    -28.185000   29.022000   43.691000

 Total Charge           Charge          ....    0
 Multiplicity           Mult            ....    1
 Number of Electrons    NEL             ....  134
 Basis Dimension        Dim             ....  322

ORBITAL ENERGIES
----------------

  NO   OCC          E(Eh)            E(eV)
   0   2.0000     -88.961731     -2420.7718
   1   2.0000     -88.960846     -2420.7477
   2   2.0000     -10.323729      -280.9229
   3   2.0000     -10.316562      -280.7279
   4   2.0000     -10.313727      -280.6508
   5   2.0000     -10.313522      -280.6452
   6   2.0000     -10.299294      -280.2580
   7   2.0000     -10.295959      -280.1673
   8   2.0000     -10.293131      -280.0903
   9   2.0000     -10.291280      -280.0400
  10   2.0000     -10.290547      -280.0200
  11   2.0000     -10.286859      -279.9197
  12   2.0000     -10.285605      -279.8855
  13   2.0000     -10.284566      -279.8573
  14   2.0000     -10.280283      -279.7407
  15   2.0000     -10.278828      -279.7011
  16   2.0000      -8.077634      -219.8036
  17   2.0000      -8.075897      -219.7563
  18   2.0000      -6.036083      -164.2502
  19   2.0000      -6.034500      -164.2071
  20   2.0000      -6.032034      -164.1400
  21   2.0000      -6.030196      -164.0900
  22   2.0000      -6.028317      -164.0388
  23   2.0000      -6.026654      -163.9936
  24   2.0000      -1.015390       -27.6302
  25   2.0000      -0.990628       -26.9564
  26   2.0000      -0.917519       -24.9670
  27   2.0000      -0.908656       -24.7258
  28   2.0000      -0.877494       -23.8778
  29   2.0000      -0.850125       -23.1331
  30   2.0000      -0.841364       -22.8947
  31   2.0000      -0.823621       -22.4119
  32   2.0000      -0.786784       -21.4095
  33   2.0000      -0.773329       -21.0433
  34   2.0000      -0.710821       -19.3424
  35   2.0000      -0.696829       -18.9617
  36   2.0000      -0.691259       -18.8101
  37   2.0000      -0.663257       -18.0482
  38   2.0000      -0.647080       -17.6079
  39   2.0000      -0.617284       -16.7971
  40   2.0000      -0.597192       -16.2504
  41   2.0000      -0.577392       -15.7116
  42   2.0000      -0.563914       -15.3449
  43   2.0000      -0.548074       -14.9138
  44   2.0000      -0.539000       -14.6669
  45   2.0000      -0.535915       -14.5830
  46   2.0000      -0.518288       -14.1033
  47   2.0000      -0.515348       -14.0233
  48   2.0000      -0.505915       -13.7666
  49   2.0000      -0.499952       -13.6044
  50   2.0000      -0.496906       -13.5215
  51   2.0000      -0.487199       -13.2574
  52   2.0000      -0.476626       -12.9697
  53   2.0000      -0.464482       -12.6392
  54   2.0000      -0.460771       -12.5382
  55   2.0000      -0.452401       -12.3105
  56   2.0000      -0.436377       -11.8744
  57   2.0000      -0.433647       -11.8001
  58   2.0000      -0.429378       -11.6840
  59   2.0000      -0.421010       -11.4563
  60   2.0000      -0.416869       -11.3436
  61   2.0000      -0.412770       -11.2321
  62   2.0000      -0.407345       -11.0844
  63   2.0000      -0.343174        -9.3382
  64   2.0000      -0.327332        -8.9071
  65   2.0000      -0.324671        -8.8347
  66   2.0000      -0.300107        -8.1663
  67   0.0000       0.043308         1.1785
  68   0.0000       0.062374         1.6973
  69   0.0000       0.109430         2.9777
  70   0.0000       0.124586         3.3902
  71   0.0000       0.125419         3.4128

MULLIKEN ATOMIC CHARGES
-----------------------
   0 S :    0.106905
   1 C :   -0.117626
   2 C :   -0.066254
   3 C :    0.050967
   4 C :   -0.142188
   5 H :   -0.023714
   6 C :    0.030056
   7 H :    0.016483
   8 H :    0.014389
   9 C :   -0.060011
  10 H :    0.024758
  11 H :    0.039554
  12 C :   -0.073501
  13 H :    0.045605
  14 H :    0.040908
  15 H :    0.030513
  16 S :    0.113866
  17 C :   -0.081583
  18 C :   -0.014085
  19 C :   -0.046051
  20 C :   -0.186065
  21 H :    0.008316
  22 C :    0.129859
  23 H :    0.018413
  24 H :    0.031974
  25 C :   -0.113906
  26 H :    0.030858
  27 H :    0.030328
  28 C :   -0.050050
  29 H :    0.049917
  30 H :    0.030970
  31 H :    0.018865
  32 H :    0.059835
  33 H :    0.051696
Sum of atomic charges:   -0.0000000

LOEWDIN ATOMIC CHARGES
----------------------
   0 S :    0.408427
   1 C :   -0.199414
   2 C :   -0.070753
   3 C :   -0.055761
   4 C :   -0.198734
   5 H :    0.017639
   6 C :   -0.044008
   7 H :    0.031735
   8 H :    0.027878
   9 C :   -0.037606
  10 H :    0.018983
  11 H :    0.031142
  12 C :   -0.074700
  13 H :    0.034016
  14 H :    0.027238
  15 H :    0.022595
  16 S :    0.421219
  17 C :   -0.175269
  18 C :   -0.062843
  19 C :   -0.046124
  20 C :   -0.221548
  21 H :    0.028449
  22 C :   -0.029819
  23 H :    0.032561
  24 H :    0.032083
  25 C :   -0.049111
  26 H :    0.025826
  27 H :    0.029056
  28 C :   -0.078492
  29 H :    0.034854
  30 H :    0.029961
  31 H :    0.022616
  32 H :    0.040946
  33 H :    0.026961

  Mayer bond orders larger than 0.100000
B(  0-S ,  1-C ) :   1.1308 B(  0-S ,  4-C ) :   1.1591 B(  1-C ,  2-C ) :   1.6096
B(  1-C , 32-H ) :   0.9669 B(  2-C ,  3-C ) :   1.2142 B(  2-C ,  6-C ) :   1.0442
B(  3-C ,  4-C ) :   1.5663 B(  3-C ,  5-H ) :   1.0191 B(  4-C , 20-C ) :   1.0168
B(  6-C ,  7-H ) :   0.9407 B(  6-C ,  8-H ) :   0.9342 B(  6-C ,  9-C ) :   1.0610
B(  9-C , 10-H ) :   0.9545 B(  9-C , 11-H ) :   0.9553 B(  9-C , 12-C ) :   1.0830
B( 12-C , 13-H ) :   0.9694 B( 12-C , 14-H ) :   0.9685 B( 12-C , 15-H ) :   0.9717
B( 16-S , 17-C ) :   1.1536 B( 16-S , 20-C ) :   1.1466 B( 17-C , 18-C ) :   1.6266
B( 17-C , 33-H ) :   0.9668 B( 18-C , 19-C ) :   1.2068 B( 18-C , 21-H ) :   0.9956
B( 19-C , 20-C ) :   1.6036 B( 19-C , 22-C ) :   1.0766 B( 22-C , 23-H ) :   0.9161
B( 22-C , 24-H ) :   0.9300 B( 22-C , 25-C ) :   1.0722 B( 25-C , 26-H ) :   0.9480
B( 25-C , 27-H ) :   0.9565 B( 25-C , 28-C ) :   1.0946 B( 28-C , 29-H ) :   0.9660
B( 28-C , 30-H ) :   0.9693 B( 28-C , 31-H ) :   0.9718

Dispersion correction           -0.015999106
FINAL SINGLE POINT ENERGY     -1339.874697225199

DIPOLE MOMENT
-------------
                                X             Y             Z
Electronic contribution:      4.54728     -28.05338      -2.05891
Nuclear contribution   :     -4.72748      28.68435       2.20958
                        -----------------------------------------
Total Dipole Moment    :     -0.18019       0.63098       0.15067
                        -----------------------------------------
Magnitude (a.u.)       :      0.67328
Magnitude (Debye)      :      1.71134

Rotational constants in cm-1:     0.018796     0.010428     0.007541
Rotational constants in MHz :   563.483042   312.610641   226.064552

                             ****ORCA TERMINATED NORMALLY****
TOTAL RUN TIME: 0 days 0 hours 0 minutes 37 seconds 89 msec
