                         Program Version 4.2.1 -  RELEASE  -
|  1> ! wB97X-D3 SP def2-SVP
|  2> %pal
|  3> nprocs 16
|  4> end
|  5>
|  6> * xyz 0 1
|  7> S 	 40.5914 	 15.3641 	 81.1973
|  8> C 	 38.9543 	 15.7104 	 81.4337
|  9> C 	 38.2496 	 15.7508 	 80.2601
| 10> C 	 39.1127 	 15.4451 	 79.1221
| 11> C 	 40.4113 	 15.1027 	 79.4484
| 12> H 	 38.8136 	 15.4262 	 78.0798
| 13> C 	 36.8022 	 16.0481 	 80.1351
| 14> H 	 36.4455 	 15.9762 	 81.1528
| 15> H 	 36.2158 	 15.2913 	 79.5237
| 16> C 	 36.448 	 17.4684 	 79.5393
| 17> H 	 36.5051 	 18.2162 	 80.3006
| 18> H 	 37.3322 	 17.7025 	 78.9162
| 19> C 	 35.1074 	 17.6087 	 78.7574
| 20> H 	 34.9327 	 18.6568 	 78.5258
| 21> H 	 35.12 	 16.982 	 77.9181
| 22> H 	 34.2036 	 17.258 	 79.3243
| 23> S 	 42.4182 	 13.0834 	 79.1324
| 24> C 	 43.5504 	 13.3024 	 77.8723
| 25> C 	 43.2338 	 14.3264 	 76.9634
| 26> C 	 41.9784 	 14.9393 	 77.3578
| 27> C 	 41.4829 	 14.4916 	 78.6255
| 28> H 	 43.7581 	 14.3772 	 75.9986
| 29> C 	 41.3865 	 16.0973 	 76.6262
| 30> H 	 42.2192 	 16.6605 	 76.1998
| 31> H 	 40.81 	 16.6719 	 77.315
| 32> C 	 40.5106 	 15.7277 	 75.398
| 33> H 	 40.5147 	 16.5909 	 74.7355
| 34> H 	 39.4469 	 15.5569 	 75.5745
| 35> C 	 41.0262 	 14.4879 	 74.6136
| 36> H 	 40.6854 	 14.4101 	 73.5636
| 37> H 	 40.7845 	 13.4432 	 75.0761
| 38> H 	 42.0424 	 14.5922 	 74.4652
| 39> H 	 38.5542 	 15.9429 	 82.4331
| 40> H 	 44.1766 	 12.4785 	 77.5173
| 41> *
| 42>
| 43>                          ****END OF INPUT****

CARTESIAN COORDINATES (ANGSTROEM)
---------------------------------
  S     40.591400   15.364100   81.197300
  C     38.954300   15.710400   81.433700
  C     38.249600   15.750800   80.260100
  C     39.112700   15.445100   79.122100
  C     40.411300   15.102700   79.448400
  H     38.813600   15.426200   78.079800
  C     36.802200   16.048100   80.135100
  H     36.445500   15.976200   81.152800
  H     36.215800   15.291300   79.523700
  C     36.448000   17.468400   79.539300
  H     36.505100   18.216200   80.300600
  H     37.332200   17.702500   78.916200
  C     35.107400   17.608700   78.757400
  H     34.932700   18.656800   78.525800
  H     35.120000   16.982000   77.918100
  H     34.203600   17.258000   79.324300
  S     42.418200   13.083400   79.132400
  C     43.550400   13.302400   77.872300
  C     43.233800   14.326400   76.963400
  C     41.978400   14.939300   77.357800
  C     41.482900   14.491600   78.625500
  H     43.758100   14.377200   75.998600
  C     41.386500   16.097300   76.626200
  H     42.219200   16.660500   76.199800
  H     40.810000   16.671900   77.315000
  C     40.510600   15.727700   75.398000
  H     40.514700   16.590900   74.735500
  H     39.446900   15.556900   75.574500
  C     41.026200   14.487900   74.613600
  H     40.685400   14.410100   73.563600
  H     40.784500   13.443200   75.076100
  H     42.042400   14.592200   74.465200
  H     38.554200   15.942900   82.433100
  H     44.176600   12.478500   77.517300

 Total Charge           Charge          ....    0
 Multiplicity           Mult            ....    1
 Number of Electrons    NEL             ....  134
 Basis Dimension        Dim             ....  322

ORBITAL ENERGIES
----------------

  NO   OCC          E(Eh)            E(eV)
   0   2.0000     -88.970665     -2421.0149
   1   2.0000     -88.962548     -2420.7940
   2   2.0000     -10.335046      -281.2309
   3   2.0000     -10.334433      -281.2142
   4   2.0000     -10.318473      -280.7799
   5   2.0000     -10.313641      -280.6484
   6   2.0000     -10.309427      -280.5338
   7   2.0000     -10.301575      -280.3201
   8   2.0000     -10.301244      -280.3111
   9   2.0000     -10.297696      -280.2145
  10   2.0000     -10.294892      -280.1383
  11   2.0000     -10.290154      -280.0093
  12   2.0000     -10.288830      -279.9733
  13   2.0000     -10.287712      -279.9429
  14   2.0000     -10.281132      -279.7638
  15   2.0000     -10.280235      -279.7394
  16   2.0000      -8.085443      -220.0161
  17   2.0000      -8.078289      -219.8214
  18   2.0000      -6.043855      -164.4616
  19   2.0000      -6.039852      -164.3527
  20   2.0000      -6.036778      -164.2691
  21   2.0000      -6.036388      -164.2585
  22   2.0000      -6.032606      -164.1556
  23   2.0000      -6.029037      -164.0584
  24   2.0000      -1.005443       -27.3595
  25   2.0000      -0.986543       -26.8452
  26   2.0000      -0.910415       -24.7737
  27   2.0000      -0.905379       -24.6366
  28   2.0000      -0.868368       -23.6295
  29   2.0000      -0.847963       -23.0743
  30   2.0000      -0.843576       -22.9549
  31   2.0000      -0.817652       -22.2494
  32   2.0000      -0.784764       -21.3545
  33   2.0000      -0.769160       -20.9299
  34   2.0000      -0.710698       -19.3391
  35   2.0000      -0.700557       -19.0631
  36   2.0000      -0.688597       -18.7377
  37   2.0000      -0.659762       -17.9530
  38   2.0000      -0.642913       -17.4946
  39   2.0000      -0.619617       -16.8606
  40   2.0000      -0.586404       -15.9569
  41   2.0000      -0.572394       -15.5756
  42   2.0000      -0.564201       -15.3527
  43   2.0000      -0.553546       -15.0627
  44   2.0000      -0.537612       -14.6292
  45   2.0000      -0.525211       -14.2917
  46   2.0000      -0.516279       -14.0487
  47   2.0000      -0.506008       -13.7692
  48   2.0000      -0.504753       -13.7350
  49   2.0000      -0.498260       -13.5584
  50   2.0000      -0.488767       -13.3000
  51   2.0000      -0.482233       -13.1222
  52   2.0000      -0.472556       -12.8589
  53   2.0000      -0.465461       -12.6658
  54   2.0000      -0.456460       -12.4209
  55   2.0000      -0.448341       -12.2000
  56   2.0000      -0.443539       -12.0693
  57   2.0000      -0.439163       -11.9502
  58   2.0000      -0.433890       -11.8067
  59   2.0000      -0.426103       -11.5949
  60   2.0000      -0.422270       -11.4906
  61   2.0000      -0.413806       -11.2602
  62   2.0000      -0.412579       -11.2269
  63   2.0000      -0.352803        -9.6002
  64   2.0000      -0.331213        -9.0128
  65   2.0000      -0.324542        -8.8312
  66   2.0000      -0.290638        -7.9087
  67   0.0000       0.027309         0.7431
  68   0.0000       0.068669         1.8686
  69   0.0000       0.109326         2.9749
  70   0.0000       0.115970         3.1557
  71   0.0000       0.129599         3.5266

MULLIKEN ATOMIC CHARGES
-----------------------
   0 S :    0.109426
   1 C :   -0.123721
   2 C :   -0.101234
   3 C :    0.040837
   4 C :   -0.170426
   5 H :    0.003494
   6 C :    0.060677
   7 H :    0.013282
   8 H :    0.040201
   9 C :   -0.076937
  10 H :    0.019104
  11 H :    0.029371
  12 C :   -0.041919
  13 H :    0.041570
  14 H :    0.025056
  15 H :    0.034745
  16 S :    0.129767
  17 C :   -0.104114
  18 C :   -0.045605
  19 C :   -0.072384
  20 C :   -0.138395
  21 H :    0.043984
  22 C :    0.096142
  23 H :    0.027629
  24 H :    0.024929
  25 C :   -0.080291
  26 H :    0.026771
  27 H :    0.034567
  28 C :   -0.063655
  29 H :    0.029741
  30 H :    0.060488
  31 H :   -0.004272
  32 H :    0.059774
  33 H :    0.071400
Sum of atomic charges:   -0.0000000

LOEWDIN ATOMIC CHARGES
----------------------
   0 S :    0.414382
   1 C :   -0.210253
   2 C :   -0.073901
   3 C :   -0.061138
   4 C :   -0.186538
   5 H :    0.028689
   6 C :   -0.036888
   7 H :    0.027622
   8 H :    0.036946
   9 C :   -0.040435
  10 H :    0.018260
  11 H :    0.025627
  12 C :   -0.063935
  13 H :    0.030278
  14 H :    0.016165
  15 H :    0.031066
  16 S :    0.427850
  17 C :   -0.204529
  18 C :   -0.074866
  19 C :   -0.043891
  20 C :   -0.208149
  21 H :    0.037352
  22 C :   -0.031044
  23 H :    0.035494
  24 H :    0.028058
  25 C :   -0.038418
  26 H :    0.025263
  27 H :    0.019842
  28 C :   -0.074897
  29 H :    0.028569
  30 H :    0.041390
  31 H :    0.006683
  32 H :    0.035460
  33 H :    0.033884

  Mayer bond orders larger than 0.100000
B(  0-S ,  1-C ) :   1.1536 B(  0-S ,  4-C ) :   1.1440 B(  1-C ,  2-C ) :   1.6101
B(  1-C , 32-H ) :   0.9608 B(  2-C ,  3-C ) :   1.2229 B(  2-C ,  6-C ) :   1.0460
B(  3-C ,  4-C ) :   1.5752 B(  3-C ,  5-H ) :   0.9947 B(  4-C , 20-C ) :   1.0544
B(  6-C ,  7-H ) :   0.9338 B(  6-C ,  8-H ) :   0.9473 B(  6-C ,  9-C ) :   1.0333
B(  9-C , 10-H ) :   0.9563 B(  9-C , 11-H ) :   0.9660 B(  9-C , 12-C ) :   1.0744
B( 12-C , 13-H ) :   0.9744 B( 12-C , 14-H ) :   0.9768 B( 12-C , 15-H ) :   0.9755
B( 16-S , 17-C ) :   1.1882 B( 16-S , 20-C ) :   1.1424 B( 17-C , 18-C ) :   1.5816
B( 17-C , 33-H ) :   0.9547 B( 18-C , 19-C ) :   1.2719 B( 18-C , 21-H ) :   0.9780
B( 19-C , 20-C ) :   1.5321 B( 19-C , 22-C ) :   1.0710 B( 22-C , 23-H ) :   0.9309
B( 22-C , 24-H ) :   0.9285 B( 22-C , 25-C ) :   1.0625 B( 25-C , 26-H ) :   0.9558
B( 25-C , 27-H ) :   0.9555 B( 25-C , 28-C ) :   1.0880 B( 28-C , 29-H ) :   0.9694
B( 28-C , 30-H ) :   0.9683 B( 28-C , 31-H ) :   0.9720

Dispersion correction           -0.014451610
FINAL SINGLE POINT ENERGY     -1339.871087051236

DIPOLE MOMENT
-------------
                                X             Y             Z
Electronic contribution:     19.95893     -12.08217      18.66938
Nuclear contribution   :    -20.34237      12.26786     -19.23005
                        -----------------------------------------
Total Dipole Moment    :     -0.38345       0.18569      -0.56068
                        -----------------------------------------
Magnitude (a.u.)       :      0.70418
Magnitude (Debye)      :      1.78989

Rotational constants in cm-1:     0.019257     0.008630     0.006348
Rotational constants in MHz :   577.299544   258.710162   190.312908

                             ****ORCA TERMINATED NORMALLY****
TOTAL RUN TIME: 0 days 0 hours 0 minutes 30 seconds 550 msec
