                         Program Version 4.2.1 -  RELEASE  -
|  1> ! wB97X-D3 SP def2-SVP
|  2> %pal
|  3> nprocs 16
|  4> end
|  5>
|  6> * xyz 0 1
|  7> S 	 -52.3491 	 36.0818 	 88.5381
|  8> C 	 -51.9381 	 34.6145 	 87.6688
|  9> C 	 -53.069 	 34.0801 	 87.0396
| 10> C 	 -54.2297 	 34.9053 	 87.2076
| 11> C 	 -54.0312 	 35.9443 	 88.1083
| 12> H 	 -55.1949 	 34.7695 	 86.732
| 13> C 	 -53.0711 	 32.8437 	 86.1748
| 14> H 	 -54.124 	 32.4165 	 86.0172
| 15> H 	 -52.5449 	 32.0203 	 86.6778
| 16> C 	 -52.4882 	 33.1232 	 84.7807
| 17> H 	 -51.5352 	 33.7107 	 84.8836
| 18> H 	 -52.2734 	 32.1898 	 84.1928
| 19> C 	 -53.4486 	 33.9562 	 83.87
| 20> H 	 -52.9268 	 34.3943 	 83.0263
| 21> H 	 -54.1421 	 33.271 	 83.3398
| 22> H 	 -54.1337 	 34.6876 	 84.3118
| 23> S 	 -54.6496 	 38.4999 	 87.4756
| 24> C 	 -56.2606 	 39.0539 	 87.886
| 25> C 	 -56.954 	 38.1791 	 88.5867
| 26> C 	 -56.2011 	 36.9848 	 88.7784
| 27> C 	 -54.9254 	 37.0316 	 88.3753
| 28> H 	 -57.9731 	 38.463 	 88.8678
| 29> C 	 -56.8447 	 35.697 	 89.323
| 30> H 	 -56.3475 	 34.7927 	 88.9674
| 31> H 	 -57.7204 	 35.6089 	 88.7241
| 32> C 	 -57.1677 	 35.6973 	 90.824
| 33> H 	 -58.1687 	 36.0635 	 91.0184
| 34> H 	 -56.608 	 36.4091 	 91.4465
| 35> C 	 -57.1602 	 34.3364 	 91.4191
| 36> H 	 -56.1126 	 34.1345 	 91.5669
| 37> H 	 -57.5542 	 33.4574 	 90.9268
| 38> H 	 -57.5777 	 34.4425 	 92.4186
| 39> H 	 -51.037 	 34.01 	 87.7085
| 40> H 	 -56.6004 	 40.0731 	 87.5881
| 41> *
| 42>
| 43>                          ****END OF INPUT****

CARTESIAN COORDINATES (ANGSTROEM)
---------------------------------
  S    -52.349100   36.081800   88.538100
  C    -51.938100   34.614500   87.668800
  C    -53.069000   34.080100   87.039600
  C    -54.229700   34.905300   87.207600
  C    -54.031200   35.944300   88.108300
  H    -55.194900   34.769500   86.732000
  C    -53.071100   32.843700   86.174800
  H    -54.124000   32.416500   86.017200
  H    -52.544900   32.020300   86.677800
  C    -52.488200   33.123200   84.780700
  H    -51.535200   33.710700   84.883600
  H    -52.273400   32.189800   84.192800
  C    -53.448600   33.956200   83.870000
  H    -52.926800   34.394300   83.026300
  H    -54.142100   33.271000   83.339800
  H    -54.133700   34.687600   84.311800
  S    -54.649600   38.499900   87.475600
  C    -56.260600   39.053900   87.886000
  C    -56.954000   38.179100   88.586700
  C    -56.201100   36.984800   88.778400
  C    -54.925400   37.031600   88.375300
  H    -57.973100   38.463000   88.867800
  C    -56.844700   35.697000   89.323000
  H    -56.347500   34.792700   88.967400
  H    -57.720400   35.608900   88.724100
  C    -57.167700   35.697300   90.824000
  H    -58.168700   36.063500   91.018400
  H    -56.608000   36.409100   91.446500
  C    -57.160200   34.336400   91.419100
  H    -56.112600   34.134500   91.566900
  H    -57.554200   33.457400   90.926800
  H    -57.577700   34.442500   92.418600
  H    -51.037000   34.010000   87.708500
  H    -56.600400   40.073100   87.588100

 Total Charge           Charge          ....    0
 Multiplicity           Mult            ....    1
 Number of Electrons    NEL             ....  134
 Basis Dimension        Dim             ....  322

ORBITAL ENERGIES
----------------

  NO   OCC          E(Eh)            E(eV)
   0   2.0000     -88.968126     -2420.9458
   1   2.0000     -88.957122     -2420.6463
   2   2.0000     -10.325378      -280.9678
   3   2.0000     -10.315068      -280.6873
   4   2.0000     -10.314880      -280.6822
   5   2.0000     -10.313813      -280.6531
   6   2.0000     -10.302721      -280.3513
   7   2.0000     -10.299348      -280.2595
   8   2.0000     -10.298608      -280.2394
   9   2.0000     -10.295898      -280.1656
  10   2.0000     -10.295207      -280.1468
  11   2.0000     -10.289568      -279.9934
  12   2.0000     -10.285058      -279.8707
  13   2.0000     -10.280646      -279.7506
  14   2.0000     -10.277025      -279.6521
  15   2.0000     -10.267725      -279.3990
  16   2.0000      -8.082589      -219.9384
  17   2.0000      -8.072842      -219.6732
  18   2.0000      -6.041108      -164.3869
  19   2.0000      -6.037029      -164.2759
  20   2.0000      -6.033469      -164.1790
  21   2.0000      -6.031409      -164.1230
  22   2.0000      -6.027358      -164.0128
  23   2.0000      -6.023307      -163.9025
  24   2.0000      -1.014885       -27.6164
  25   2.0000      -0.986829       -26.8530
  26   2.0000      -0.909573       -24.7507
  27   2.0000      -0.909194       -24.7404
  28   2.0000      -0.874185       -23.7878
  29   2.0000      -0.853499       -23.2249
  30   2.0000      -0.841878       -22.9087
  31   2.0000      -0.816868       -22.2281
  32   2.0000      -0.782717       -21.2988
  33   2.0000      -0.771289       -20.9878
  34   2.0000      -0.704045       -19.1580
  35   2.0000      -0.699519       -19.0349
  36   2.0000      -0.695249       -18.9187
  37   2.0000      -0.659401       -17.9432
  38   2.0000      -0.638831       -17.3835
  39   2.0000      -0.615751       -16.7554
  40   2.0000      -0.598171       -16.2771
  41   2.0000      -0.574911       -15.6441
  42   2.0000      -0.557688       -15.1755
  43   2.0000      -0.545753       -14.8507
  44   2.0000      -0.541684       -14.7400
  45   2.0000      -0.533475       -14.5166
  46   2.0000      -0.517246       -14.0750
  47   2.0000      -0.505152       -13.7459
  48   2.0000      -0.503802       -13.7092
  49   2.0000      -0.499771       -13.5995
  50   2.0000      -0.486750       -13.2452
  51   2.0000      -0.475149       -12.9295
  52   2.0000      -0.470862       -12.8128
  53   2.0000      -0.467364       -12.7176
  54   2.0000      -0.456199       -12.4138
  55   2.0000      -0.451090       -12.2748
  56   2.0000      -0.441642       -12.0177
  57   2.0000      -0.440440       -11.9850
  58   2.0000      -0.432116       -11.7585
  59   2.0000      -0.422671       -11.5015
  60   2.0000      -0.415776       -11.3138
  61   2.0000      -0.412937       -11.2366
  62   2.0000      -0.395254       -10.7554
  63   2.0000      -0.349218        -9.5027
  64   2.0000      -0.329569        -8.9680
  65   2.0000      -0.325372        -8.8538
  66   2.0000      -0.301126        -8.1941
  67   0.0000       0.037942         1.0325
  68   0.0000       0.066030         1.7968
  69   0.0000       0.117793         3.2053
  70   0.0000       0.121461         3.3051
  71   0.0000       0.123314         3.3555

MULLIKEN ATOMIC CHARGES
-----------------------
   0 S :    0.117181
   1 C :   -0.101885
   2 C :   -0.106262
   3 C :    0.046013
   4 C :   -0.183663
   5 H :    0.019921
   6 C :    0.039613
   7 H :    0.031887
   8 H :    0.034851
   9 C :   -0.083548
  10 H :    0.041822
  11 H :    0.042273
  12 C :   -0.073432
  13 H :    0.031866
  14 H :    0.017754
  15 H :    0.041472
  16 S :    0.087397
  17 C :   -0.106761
  18 C :   -0.010748
  19 C :   -0.091326
  20 C :   -0.097826
  21 H :    0.024623
  22 C :    0.104049
  23 H :    0.015218
  24 H :    0.011358
  25 C :   -0.044608
  26 H :    0.010608
  27 H :    0.034000
  28 C :   -0.054173
  29 H :    0.026632
  30 H :    0.036445
  31 H :    0.024645
  32 H :    0.049215
  33 H :    0.065387
Sum of atomic charges:    0.0000000

LOEWDIN ATOMIC CHARGES
----------------------
   0 S :    0.417561
   1 C :   -0.203498
   2 C :   -0.060948
   3 C :   -0.058279
   4 C :   -0.197885
   5 H :    0.030829
   6 C :   -0.041358
   7 H :    0.036061
   8 H :    0.032079
   9 C :   -0.043458
  10 H :    0.027356
  11 H :    0.029943
  12 C :   -0.076778
  13 H :    0.026464
  14 H :    0.024312
  15 H :    0.025537
  16 S :    0.390826
  17 C :   -0.170642
  18 C :   -0.079399
  19 C :   -0.049279
  20 C :   -0.212160
  21 H :    0.040632
  22 C :   -0.029234
  23 H :    0.028464
  24 H :    0.029628
  25 C :   -0.043685
  26 H :    0.018842
  27 H :    0.030185
  28 C :   -0.066632
  29 H :    0.025351
  30 H :    0.024774
  31 H :    0.027507
  32 H :    0.031758
  33 H :    0.035124

  Mayer bond orders larger than 0.100000
B(  0-S ,  1-C ) :   1.1409 B(  0-S ,  4-C ) :   1.1606 B(  1-C ,  2-C ) :   1.6021
B(  1-C ,  4-C ) :   0.1019 B(  1-C , 32-H ) :   0.9630 B(  2-C ,  3-C ) :   1.2539
B(  2-C ,  6-C ) :   1.0277 B(  3-C ,  4-C ) :   1.5599 B(  3-C ,  5-H ) :   0.9863
B(  4-C , 20-C ) :   1.0078 B(  6-C ,  7-H ) :   0.9477 B(  6-C ,  8-H ) :   0.9391
B(  6-C ,  9-C ) :   1.0608 B(  9-C , 10-H ) :   0.9620 B(  9-C , 11-H ) :   0.9574
B(  9-C , 12-C ) :   1.0612 B( 12-C , 13-H ) :   0.9752 B( 12-C , 14-H ) :   0.9746
B( 12-C , 15-H ) :   0.9793 B( 16-S , 17-C ) :   1.1517 B( 16-S , 20-C ) :   1.1098
B( 17-C , 18-C ) :   1.6588 B( 17-C , 33-H ) :   0.9575 B( 18-C , 19-C ) :   1.1867
B( 18-C , 21-H ) :   0.9979 B( 19-C , 20-C ) :   1.6738 B( 19-C , 22-C ) :   1.0362
B( 22-C , 23-H ) :   0.9431 B( 22-C , 24-H ) :   0.9215 B( 22-C , 25-C ) :   1.0362
B( 25-C , 26-H ) :   0.9516 B( 25-C , 27-H ) :   0.9609 B( 25-C , 28-C ) :   1.0926
B( 28-C , 29-H ) :   0.9761 B( 28-C , 30-H ) :   0.9761 B( 28-C , 31-H ) :   0.9710

Dispersion correction           -0.014389958
FINAL SINGLE POINT ENERGY     -1339.867697796998

DIPOLE MOMENT
-------------
                                X             Y             Z
Electronic contribution:     10.04632      19.21780       3.12040
Nuclear contribution   :    -10.57868     -19.63529      -3.31156
                        -----------------------------------------
Total Dipole Moment    :     -0.53237      -0.41749      -0.19117
                        -----------------------------------------
Magnitude (a.u.)       :      0.70303
Magnitude (Debye)      :      1.78697

Rotational constants in cm-1:     0.017889     0.008824     0.007567
Rotational constants in MHz :   536.295086   264.551817   226.839897

                             ****ORCA TERMINATED NORMALLY****
TOTAL RUN TIME: 0 days 0 hours 0 minutes 30 seconds 539 msec
