                         Program Version 4.2.1 -  RELEASE  -
|  1> ! wB97X-D3 SP def2-SVP
|  2> %pal
|  3> nprocs 16
|  4> end
|  5>
|  6> * xyz 0 1
|  7> S 	 18.2442 	 7.86679 	 88.0735
|  8> C 	 19.4279 	 7.18099 	 87.0409
|  9> C 	 19.2844 	 7.58945 	 85.682
| 10> C 	 18.2485 	 8.54888 	 85.5897
| 11> C 	 17.5807 	 8.85423 	 86.8016
| 12> H 	 17.9869 	 9.09844 	 84.7005
| 13> C 	 20.0417 	 7.17908 	 84.4224
| 14> H 	 19.3149 	 7.02442 	 83.6083
| 15> H 	 20.3082 	 6.12036 	 84.5635
| 16> C 	 21.1724 	 8.11297 	 83.9985
| 17> H 	 21.7941 	 8.2304 	 84.844
| 18> H 	 21.722 	 7.77812 	 83.1449
| 19> C 	 20.6951 	 9.55757 	 83.6679
| 20> H 	 21.4738 	 10.0983 	 83.1966
| 21> H 	 19.8316 	 9.6437 	 82.9916
| 22> H 	 20.4274 	 10.1578 	 84.5284
| 23> S 	 16.9683 	 11.4136 	 86.9862
| 24> C 	 15.2993 	 11.9031 	 87.437
| 25> C 	 14.499 	 10.8517 	 87.3259
| 26> C 	 15.1756 	 9.5984 	 87.0343
| 27> C 	 16.5372 	 9.76469 	 86.9554
| 28> H 	 13.3906 	 10.8564 	 87.5876
| 29> C 	 14.4505 	 8.31753 	 87.023
| 30> H 	 15.0812 	 7.52705 	 86.646
| 31> H 	 13.666 	 8.42672 	 86.3422
| 32> C 	 13.7932 	 7.97845 	 88.3242
| 33> H 	 12.9663 	 8.72372 	 88.4995
| 34> H 	 14.4671 	 8.13152 	 89.1374
| 35> C 	 13.3079 	 6.54063 	 88.4646
| 36> H 	 12.3315 	 6.37594 	 87.9107
| 37> H 	 13.0101 	 6.34114 	 89.4881
| 38> H 	 14.0282 	 5.82661 	 88.0552
| 39> H 	 20.2268 	 6.54922 	 87.3055
| 40> H 	 14.9474 	 12.9325 	 87.5161
| 41> *
| 42>
| 43>                          ****END OF INPUT****

CARTESIAN COORDINATES (ANGSTROEM)
---------------------------------
  S     18.244200    7.866790   88.073500
  C     19.427900    7.180990   87.040900
  C     19.284400    7.589450   85.682000
  C     18.248500    8.548880   85.589700
  C     17.580700    8.854230   86.801600
  H     17.986900    9.098440   84.700500
  C     20.041700    7.179080   84.422400
  H     19.314900    7.024420   83.608300
  H     20.308200    6.120360   84.563500
  C     21.172400    8.112970   83.998500
  H     21.794100    8.230400   84.844000
  H     21.722000    7.778120   83.144900
  C     20.695100    9.557570   83.667900
  H     21.473800   10.098300   83.196600
  H     19.831600    9.643700   82.991600
  H     20.427400   10.157800   84.528400
  S     16.968300   11.413600   86.986200
  C     15.299300   11.903100   87.437000
  C     14.499000   10.851700   87.325900
  C     15.175600    9.598400   87.034300
  C     16.537200    9.764690   86.955400
  H     13.390600   10.856400   87.587600
  C     14.450500    8.317530   87.023000
  H     15.081200    7.527050   86.646000
  H     13.666000    8.426720   86.342200
  C     13.793200    7.978450   88.324200
  H     12.966300    8.723720   88.499500
  H     14.467100    8.131520   89.137400
  C     13.307900    6.540630   88.464600
  H     12.331500    6.375940   87.910700
  H     13.010100    6.341140   89.488100
  H     14.028200    5.826610   88.055200
  H     20.226800    6.549220   87.305500
  H     14.947400   12.932500   87.516100

 Total Charge           Charge          ....    0
 Multiplicity           Mult            ....    1
 Number of Electrons    NEL             ....  134
 Basis Dimension        Dim             ....  322

ORBITAL ENERGIES
----------------

  NO   OCC          E(Eh)            E(eV)
   0   2.0000     -88.972291     -2421.0591
   1   2.0000     -88.957792     -2420.6646
   2   2.0000     -10.321890      -280.8729
   3   2.0000     -10.314643      -280.6757
   4   2.0000     -10.314021      -280.6588
   5   2.0000     -10.313842      -280.6539
   6   2.0000     -10.302695      -280.3506
   7   2.0000     -10.296172      -280.1731
   8   2.0000     -10.295315      -280.1498
   9   2.0000     -10.294362      -280.1238
  10   2.0000     -10.291608      -280.0489
  11   2.0000     -10.285065      -279.8708
  12   2.0000     -10.281215      -279.7661
  13   2.0000     -10.279476      -279.7188
  14   2.0000     -10.276096      -279.6268
  15   2.0000     -10.272021      -279.5159
  16   2.0000      -8.086908      -220.0559
  17   2.0000      -8.073191      -219.6827
  18   2.0000      -6.045224      -164.4989
  19   2.0000      -6.041251      -164.3908
  20   2.0000      -6.038078      -164.3045
  21   2.0000      -6.031874      -164.1356
  22   2.0000      -6.027667      -164.0212
  23   2.0000      -6.023635      -163.9115
  24   2.0000      -1.012046       -27.5392
  25   2.0000      -0.985081       -26.8054
  26   2.0000      -0.916970       -24.9520
  27   2.0000      -0.911621       -24.8065
  28   2.0000      -0.878375       -23.9018
  29   2.0000      -0.848137       -23.0790
  30   2.0000      -0.845496       -23.0071
  31   2.0000      -0.813549       -22.1378
  32   2.0000      -0.785800       -21.3827
  33   2.0000      -0.770052       -20.9542
  34   2.0000      -0.707289       -19.2463
  35   2.0000      -0.706754       -19.2317
  36   2.0000      -0.696640       -18.9565
  37   2.0000      -0.660000       -17.9595
  38   2.0000      -0.642886       -17.4938
  39   2.0000      -0.613398       -16.6914
  40   2.0000      -0.600018       -16.3273
  41   2.0000      -0.575104       -15.6494
  42   2.0000      -0.566454       -15.4140
  43   2.0000      -0.551242       -15.0001
  44   2.0000      -0.543077       -14.7779
  45   2.0000      -0.529088       -14.3972
  46   2.0000      -0.516305       -14.0494
  47   2.0000      -0.508059       -13.8250
  48   2.0000      -0.506870       -13.7926
  49   2.0000      -0.501963       -13.6591
  50   2.0000      -0.485630       -13.2147
  51   2.0000      -0.475140       -12.9292
  52   2.0000      -0.470788       -12.8108
  53   2.0000      -0.468309       -12.7433
  54   2.0000      -0.459247       -12.4967
  55   2.0000      -0.447393       -12.1742
  56   2.0000      -0.441707       -12.0195
  57   2.0000      -0.438986       -11.9454
  58   2.0000      -0.436715       -11.8836
  59   2.0000      -0.427796       -11.6409
  60   2.0000      -0.417701       -11.3662
  61   2.0000      -0.415108       -11.2957
  62   2.0000      -0.408785       -11.1236
  63   2.0000      -0.338349        -9.2070
  64   2.0000      -0.335244        -9.1225
  65   2.0000      -0.316232        -8.6051
  66   2.0000      -0.302732        -8.2377
  67   0.0000       0.044640         1.2147
  68   0.0000       0.056511         1.5377
  69   0.0000       0.107048         2.9129
  70   0.0000       0.121755         3.3131
  71   0.0000       0.132459         3.6044

MULLIKEN ATOMIC CHARGES
-----------------------
   0 S :    0.150876
   1 C :   -0.100591
   2 C :   -0.113264
   3 C :    0.049509
   4 C :   -0.205240
   5 H :    0.006219
   6 C :    0.049626
   7 H :    0.028476
   8 H :    0.020352
   9 C :    0.003327
  10 H :    0.021193
  11 H :    0.032990
  12 C :   -0.079037
  13 H :    0.022345
  14 H :    0.026639
  15 H :    0.040641
  16 S :    0.096976
  17 C :   -0.087102
  18 C :   -0.047716
  19 C :   -0.031488
  20 C :   -0.185134
  21 H :    0.043810
  22 C :    0.142499
  23 H :    0.017493
  24 H :    0.003637
  25 C :   -0.103874
  26 H :    0.026331
  27 H :    0.021828
  28 C :   -0.040928
  29 H :    0.025618
  30 H :    0.033542
  31 H :    0.040153
  32 H :    0.029048
  33 H :    0.061244
Sum of atomic charges:    0.0000000

LOEWDIN ATOMIC CHARGES
----------------------
   0 S :    0.444033
   1 C :   -0.206800
   2 C :   -0.063260
   3 C :   -0.050537
   4 C :   -0.219564
   5 H :    0.028091
   6 C :   -0.037897
   7 H :    0.033172
   8 H :    0.031329
   9 C :   -0.027577
  10 H :    0.023641
  11 H :    0.024464
  12 C :   -0.067889
  13 H :    0.021609
  14 H :    0.022311
  15 H :    0.026161
  16 S :    0.398891
  17 C :   -0.171494
  18 C :   -0.076555
  19 C :   -0.050027
  20 C :   -0.220158
  21 H :    0.042113
  22 C :   -0.032348
  23 H :    0.029040
  24 H :    0.027416
  25 C :   -0.042539
  26 H :    0.026030
  27 H :    0.018536
  28 C :   -0.066568
  29 H :    0.027909
  30 H :    0.026620
  31 H :    0.027547
  32 H :    0.019516
  33 H :    0.034785

  Mayer bond orders larger than 0.100000
B(  0-S ,  1-C ) :   1.1784 B(  0-S ,  4-C ) :   1.1553 B(  1-C ,  2-C ) :   1.5568
B(  1-C ,  4-C ) :   0.1143 B(  1-C , 32-H ) :   0.9717 B(  2-C ,  3-C ) :   1.2930
B(  2-C ,  6-C ) :   1.0139 B(  3-C ,  4-C ) :   1.5342 B(  3-C ,  5-H ) :   0.9910
B(  4-C , 20-C ) :   1.0535 B(  6-C ,  7-H ) :   0.9453 B(  6-C ,  8-H ) :   0.9388
B(  6-C ,  9-C ) :   1.0673 B(  9-C , 10-H ) :   0.9512 B(  9-C , 11-H ) :   0.9593
B(  9-C , 12-C ) :   1.0813 B( 12-C , 13-H ) :   0.9719 B( 12-C , 14-H ) :   0.9750
B( 12-C , 15-H ) :   0.9709 B( 16-S , 17-C ) :   1.1186 B( 16-S , 20-C ) :   1.1356
B( 17-C , 18-C ) :   1.6617 B( 17-C , 33-H ) :   0.9656 B( 18-C , 19-C ) :   1.2021
B( 18-C , 21-H ) :   0.9714 B( 19-C , 20-C ) :   1.6205 B( 19-C , 22-C ) :   1.0778
B( 22-C , 23-H ) :   0.9244 B( 22-C , 24-H ) :   0.9067 B( 22-C , 25-C ) :   1.0625
B( 25-C , 26-H ) :   0.9466 B( 25-C , 27-H ) :   0.9584 B( 25-C , 28-C ) :   1.0930
B( 28-C , 29-H ) :   0.9722 B( 28-C , 30-H ) :   0.9735 B( 28-C , 31-H ) :   0.9740

Dispersion correction           -0.014806486
FINAL SINGLE POINT ENERGY     -1339.875055585060

DIPOLE MOMENT
-------------
                                X             Y             Z
Electronic contribution:      2.86329       9.90704       9.23234
Nuclear contribution   :     -3.02125     -10.13139      -9.53798
                        -----------------------------------------
Total Dipole Moment    :     -0.15796      -0.22435      -0.30563
                        -----------------------------------------
Magnitude (a.u.)       :      0.41073
Magnitude (Debye)      :      1.04398

Rotational constants in cm-1:     0.020432     0.008657     0.006978
Rotational constants in MHz :   612.536638   259.525477   209.181061

                             ****ORCA TERMINATED NORMALLY****
TOTAL RUN TIME: 0 days 0 hours 0 minutes 33 seconds 300 msec
