                         Program Version 4.2.1 -  RELEASE  -
|  1> ! wB97X-D3 SP def2-SVP
|  2> %pal
|  3> nprocs 16
|  4> end
|  5>
|  6> * xyz 0 1
|  7> S 	 -46.6625 	 67.5326 	 131.987
|  8> C 	 -47.849 	 67.143 	 130.698
|  9> C 	 -48.1719 	 65.7745 	 130.713
| 10> C 	 -47.539 	 65.1413 	 131.852
| 11> C 	 -46.6992 	 65.9288 	 132.57
| 12> H 	 -47.8662 	 64.1719 	 132.201
| 13> C 	 -49.056 	 65.0048 	 129.741
| 14> H 	 -49.3559 	 65.7506 	 128.917
| 15> H 	 -49.9451 	 64.6154 	 130.312
| 16> C 	 -48.2518 	 63.8606 	 128.951
| 17> H 	 -48.7884 	 63.5913 	 128.034
| 18> H 	 -47.3925 	 64.2675 	 128.597
| 19> C 	 -47.9821 	 62.5636 	 129.719
| 20> H 	 -48.9213 	 62.1725 	 130.059
| 21> H 	 -47.4927 	 61.7824 	 129.067
| 22> H 	 -47.3632 	 62.7098 	 130.526
| 23> S 	 -44.202 	 65.8666 	 133.84
| 24> C 	 -44.0509 	 65.115 	 135.435
| 25> C 	 -45.2904 	 64.7488 	 135.891
| 26> C 	 -46.3562 	 64.9055 	 134.939
| 27> C 	 -45.9805 	 65.6064 	 133.774
| 28> H 	 -45.4049 	 64.2735 	 136.845
| 29> C 	 -47.7862 	 64.4716 	 135.219
| 30> H 	 -47.7996 	 63.6787 	 135.966
| 31> H 	 -48.324 	 64.0839 	 134.414
| 32> C 	 -48.601 	 65.6521 	 135.796
| 33> H 	 -48.5824 	 66.6173 	 135.178
| 34> H 	 -48.1078 	 65.8999 	 136.737
| 35> C 	 -50.0407 	 65.2104 	 136.114
| 36> H 	 -50.0729 	 64.3149 	 136.765
| 37> H 	 -50.594 	 65.0212 	 135.232
| 38> H 	 -50.6437 	 65.9628 	 136.627
| 39> H 	 -48.1884 	 67.8745 	 130.016
| 40> H 	 -43.1178 	 64.9717 	 135.989
| 41> *
| 42>
| 43>                          ****END OF INPUT****

CARTESIAN COORDINATES (ANGSTROEM)
---------------------------------
  S    -46.662500   67.532600  131.987000
  C    -47.849000   67.143000  130.698000
  C    -48.171900   65.774500  130.713000
  C    -47.539000   65.141300  131.852000
  C    -46.699200   65.928800  132.570000
  H    -47.866200   64.171900  132.201000
  C    -49.056000   65.004800  129.741000
  H    -49.355900   65.750600  128.917000
  H    -49.945100   64.615400  130.312000
  C    -48.251800   63.860600  128.951000
  H    -48.788400   63.591300  128.034000
  H    -47.392500   64.267500  128.597000
  C    -47.982100   62.563600  129.719000
  H    -48.921300   62.172500  130.059000
  H    -47.492700   61.782400  129.067000
  H    -47.363200   62.709800  130.526000
  S    -44.202000   65.866600  133.840000
  C    -44.050900   65.115000  135.435000
  C    -45.290400   64.748800  135.891000
  C    -46.356200   64.905500  134.939000
  C    -45.980500   65.606400  133.774000
  H    -45.404900   64.273500  136.845000
  C    -47.786200   64.471600  135.219000
  H    -47.799600   63.678700  135.966000
  H    -48.324000   64.083900  134.414000
  C    -48.601000   65.652100  135.796000
  H    -48.582400   66.617300  135.178000
  H    -48.107800   65.899900  136.737000
  C    -50.040700   65.210400  136.114000
  H    -50.072900   64.314900  136.765000
  H    -50.594000   65.021200  135.232000
  H    -50.643700   65.962800  136.627000
  H    -48.188400   67.874500  130.016000
  H    -43.117800   64.971700  135.989000

 Total Charge           Charge          ....    0
 Multiplicity           Mult            ....    1
 Number of Electrons    NEL             ....  134
 Basis Dimension        Dim             ....  322

ORBITAL ENERGIES
----------------

  NO   OCC          E(Eh)            E(eV)
   0   2.0000     -88.965860     -2420.8841
   1   2.0000     -88.963942     -2420.8319
   2   2.0000     -10.330023      -281.0942
   3   2.0000     -10.325361      -280.9674
   4   2.0000     -10.321932      -280.8741
   5   2.0000     -10.318631      -280.7842
   6   2.0000     -10.310844      -280.5723
   7   2.0000     -10.308649      -280.5126
   8   2.0000     -10.307951      -280.4936
   9   2.0000     -10.294617      -280.1308
  10   2.0000     -10.292001      -280.0596
  11   2.0000     -10.288833      -279.9734
  12   2.0000     -10.288342      -279.9600
  13   2.0000     -10.284494      -279.8553
  14   2.0000     -10.274770      -279.5907
  15   2.0000     -10.273141      -279.5464
  16   2.0000      -8.080873      -219.8917
  17   2.0000      -8.077690      -219.8051
  18   2.0000      -6.039374      -164.3397
  19   2.0000      -6.036348      -164.2574
  20   2.0000      -6.035376      -164.2309
  21   2.0000      -6.032274      -164.1465
  22   2.0000      -6.031565      -164.1272
  23   2.0000      -6.028393      -164.0409
  24   2.0000      -1.005648       -27.3651
  25   2.0000      -0.978612       -26.6294
  26   2.0000      -0.907397       -24.6915
  27   2.0000      -0.906932       -24.6789
  28   2.0000      -0.870029       -23.6747
  29   2.0000      -0.847488       -23.0613
  30   2.0000      -0.841279       -22.8924
  31   2.0000      -0.815728       -22.1971
  32   2.0000      -0.783867       -21.3301
  33   2.0000      -0.770538       -20.9674
  34   2.0000      -0.709504       -19.3066
  35   2.0000      -0.703793       -19.1512
  36   2.0000      -0.693441       -18.8695
  37   2.0000      -0.660440       -17.9715
  38   2.0000      -0.643083       -17.4992
  39   2.0000      -0.621583       -16.9141
  40   2.0000      -0.599004       -16.2997
  41   2.0000      -0.570746       -15.5308
  42   2.0000      -0.562582       -15.3086
  43   2.0000      -0.547356       -14.8943
  44   2.0000      -0.535768       -14.5790
  45   2.0000      -0.517961       -14.0944
  46   2.0000      -0.515100       -14.0166
  47   2.0000      -0.512099       -13.9349
  48   2.0000      -0.506197       -13.7743
  49   2.0000      -0.502210       -13.6658
  50   2.0000      -0.498349       -13.5608
  51   2.0000      -0.481051       -13.0901
  52   2.0000      -0.475742       -12.9456
  53   2.0000      -0.462381       -12.5820
  54   2.0000      -0.456384       -12.4189
  55   2.0000      -0.445546       -12.1239
  56   2.0000      -0.442071       -12.0294
  57   2.0000      -0.439531       -11.9602
  58   2.0000      -0.432419       -11.7667
  59   2.0000      -0.425048       -11.5661
  60   2.0000      -0.421543       -11.4708
  61   2.0000      -0.419447       -11.4137
  62   2.0000      -0.412329       -11.2200
  63   2.0000      -0.346741        -9.4353
  64   2.0000      -0.330792        -9.0013
  65   2.0000      -0.327741        -8.9183
  66   2.0000      -0.292657        -7.9636
  67   0.0000       0.030423         0.8278
  68   0.0000       0.066065         1.7977
  69   0.0000       0.111456         3.0329
  70   0.0000       0.116087         3.1589
  71   0.0000       0.125943         3.4271

MULLIKEN ATOMIC CHARGES
-----------------------
   0 S :    0.106826
   1 C :   -0.121730
   2 C :   -0.084982
   3 C :    0.015167
   4 C :   -0.134315
   5 H :    0.016190
   6 C :    0.008401
   7 H :    0.039442
   8 H :    0.055286
   9 C :   -0.034591
  10 H :    0.027661
  11 H :    0.006904
  12 C :   -0.034882
  13 H :    0.019081
  14 H :    0.041156
  15 H :    0.023734
  16 S :    0.089212
  17 C :   -0.093008
  18 C :   -0.021028
  19 C :   -0.031029
  20 C :   -0.136112
  21 H :    0.013535
  22 C :    0.090748
  23 H :    0.011921
  24 H :   -0.000733
  25 C :   -0.097943
  26 H :    0.054872
  27 H :    0.020818
  28 C :   -0.034901
  29 H :    0.026977
  30 H :    0.022028
  31 H :    0.031038
  32 H :    0.035697
  33 H :    0.068560
Sum of atomic charges:   -0.0000000

LOEWDIN ATOMIC CHARGES
----------------------
   0 S :    0.408538
   1 C :   -0.180492
   2 C :   -0.058490
   3 C :   -0.066065
   4 C :   -0.207191
   5 H :    0.027134
   6 C :   -0.035110
   7 H :    0.041426
   8 H :    0.037613
   9 C :   -0.028317
  10 H :    0.026780
  11 H :    0.011100
  12 C :   -0.059594
  13 H :    0.020539
  14 H :    0.036543
  15 H :    0.010518
  16 S :    0.377005
  17 C :   -0.177183
  18 C :   -0.073230
  19 C :   -0.046895
  20 C :   -0.188430
  21 H :    0.029286
  22 C :   -0.025932
  23 H :    0.029408
  24 H :    0.016161
  25 C :   -0.039064
  26 H :    0.035571
  27 H :    0.021005
  28 C :   -0.069328
  29 H :    0.026283
  30 H :    0.017985
  31 H :    0.027195
  32 H :    0.017593
  33 H :    0.037639

  Mayer bond orders larger than 0.100000
B(  0-S ,  1-C ) :   1.1277 B(  0-S ,  4-C ) :   1.1554 B(  1-C ,  2-C ) :   1.6156
B(  1-C , 32-H ) :   0.9770 B(  2-C ,  3-C ) :   1.2226 B(  2-C ,  6-C ) :   1.0251
B(  3-C ,  4-C ) :   1.5973 B(  3-C ,  5-H ) :   0.9845 B(  4-C , 20-C ) :   1.0279
B(  6-C ,  7-H ) :   0.9426 B(  6-C ,  8-H ) :   0.9443 B(  6-C ,  9-C ) :   1.0558
B(  9-C , 10-H ) :   0.9600 B(  9-C , 11-H ) :   0.9533 B(  9-C , 12-C ) :   1.0810
B( 12-C , 13-H ) :   0.9762 B( 12-C , 14-H ) :   0.9693 B( 12-C , 15-H ) :   0.9726
B( 16-S , 17-C ) :   1.1486 B( 16-S , 20-C ) :   1.1259 B( 17-C , 18-C ) :   1.6084
B( 17-C , 20-C ) :   0.1053 B( 17-C , 33-H ) :   0.9660 B( 18-C , 19-C ) :   1.2457
B( 18-C , 21-H ) :   0.9886 B( 19-C , 20-C ) :   1.5862 B( 19-C , 22-C ) :   1.0537
B( 22-C , 23-H ) :   0.9297 B( 22-C , 24-H ) :   0.9396 B( 22-C , 25-C ) :   1.0549
B( 25-C , 26-H ) :   0.9587 B( 25-C , 27-H ) :   0.9545 B( 25-C , 28-C ) :   1.0792
B( 28-C , 29-H ) :   0.9725 B( 28-C , 30-H ) :   0.9746 B( 28-C , 31-H ) :   0.9730

Dispersion correction           -0.014607533
FINAL SINGLE POINT ENERGY     -1339.878651546077

DIPOLE MOMENT
-------------
                                X             Y             Z
Electronic contribution:     20.89208      15.02749       1.38903
Nuclear contribution   :    -21.39728     -15.50404      -1.33937
                        -----------------------------------------
Total Dipole Moment    :     -0.50520      -0.47655       0.04966
                        -----------------------------------------
Magnitude (a.u.)       :      0.69628
Magnitude (Debye)      :      1.76979

Rotational constants in cm-1:     0.016601     0.009157     0.007920
Rotational constants in MHz :   497.686812   274.526127   237.440349

                             ****ORCA TERMINATED NORMALLY****
TOTAL RUN TIME: 0 days 0 hours 0 minutes 35 seconds 731 msec
