                         Program Version 4.2.1 -  RELEASE  -
|  1> ! wB97X-D3 SP def2-SVP
|  2> %pal
|  3> nprocs 16
|  4> end
|  5>
|  6> * xyz 0 1
|  7> S 	 43.3797 	 10.1427 	 50.2253
|  8> C 	 41.8359 	 9.98714 	 49.3354
|  9> C 	 41.0228 	 11.0163 	 49.727
| 10> C 	 41.7 	 12.0067 	 50.5631
| 11> C 	 43.0484 	 11.7566 	 50.8648
| 12> H 	 41.3405 	 12.9885 	 50.8783
| 13> C 	 39.696 	 11.185 	 49.2106
| 14> H 	 39.4817 	 10.6003 	 48.3396
| 15> H 	 39.8415 	 12.1223 	 48.6769
| 16> C 	 38.5372 	 11.3398 	 50.2099
| 17> H 	 38.3612 	 10.4244 	 50.7447
| 18> H 	 38.8865 	 12.1132 	 50.794
| 19> C 	 37.229 	 11.5185 	 49.5263
| 20> H 	 36.5167 	 11.7588 	 50.3353
| 21> H 	 37.2425 	 12.3882 	 48.8146
| 22> H 	 36.7829 	 10.6082 	 49.0392
| 23> S 	 44.8676 	 13.6859 	 50.7521
| 24> C 	 45.4631 	 14.3592 	 52.2103
| 25> C 	 45.0159 	 13.7921 	 53.3434
| 26> C 	 44.0019 	 12.8185 	 53.099
| 27> C 	 43.8566 	 12.6044 	 51.7126
| 28> H 	 45.2308 	 14.1908 	 54.3011
| 29> C 	 43.2685 	 12.0286 	 54.2033
| 30> H 	 43.9944 	 11.6654 	 54.9977
| 31> H 	 42.9531 	 11.0852 	 53.8975
| 32> C 	 42.1553 	 12.8356 	 54.9222
| 33> H 	 42.5418 	 13.6952 	 55.4105
| 34> H 	 41.7874 	 12.1927 	 55.6858
| 35> C 	 40.866 	 13.2379 	 54.1328
| 36> H 	 40.91 	 13.8201 	 53.2468
| 37> H 	 40.2698 	 13.6471 	 54.9408
| 38> H 	 40.4032 	 12.381 	 53.9103
| 39> H 	 41.6448 	 9.0766 	 48.783
| 40> H 	 46.1512 	 15.17 	 52.3425
| 41> *
| 42>
| 43>                          ****END OF INPUT****

CARTESIAN COORDINATES (ANGSTROEM)
---------------------------------
  S     43.379700   10.142700   50.225300
  C     41.835900    9.987140   49.335400
  C     41.022800   11.016300   49.727000
  C     41.700000   12.006700   50.563100
  C     43.048400   11.756600   50.864800
  H     41.340500   12.988500   50.878300
  C     39.696000   11.185000   49.210600
  H     39.481700   10.600300   48.339600
  H     39.841500   12.122300   48.676900
  C     38.537200   11.339800   50.209900
  H     38.361200   10.424400   50.744700
  H     38.886500   12.113200   50.794000
  C     37.229000   11.518500   49.526300
  H     36.516700   11.758800   50.335300
  H     37.242500   12.388200   48.814600
  H     36.782900   10.608200   49.039200
  S     44.867600   13.685900   50.752100
  C     45.463100   14.359200   52.210300
  C     45.015900   13.792100   53.343400
  C     44.001900   12.818500   53.099000
  C     43.856600   12.604400   51.712600
  H     45.230800   14.190800   54.301100
  C     43.268500   12.028600   54.203300
  H     43.994400   11.665400   54.997700
  H     42.953100   11.085200   53.897500
  C     42.155300   12.835600   54.922200
  H     42.541800   13.695200   55.410500
  H     41.787400   12.192700   55.685800
  C     40.866000   13.237900   54.132800
  H     40.910000   13.820100   53.246800
  H     40.269800   13.647100   54.940800
  H     40.403200   12.381000   53.910300
  H     41.644800    9.076600   48.783000
  H     46.151200   15.170000   52.342500

 Total Charge           Charge          ....    0
 Multiplicity           Mult            ....    1
 Number of Electrons    NEL             ....  134
 Basis Dimension        Dim             ....  322

ORBITAL ENERGIES
----------------

  NO   OCC          E(Eh)            E(eV)
   0   2.0000     -88.966257     -2420.8949
   1   2.0000     -88.956196     -2420.6212
   2   2.0000     -10.330004      -281.0937
   3   2.0000     -10.327431      -281.0237
   4   2.0000     -10.314702      -280.6773
   5   2.0000     -10.309871      -280.5458
   6   2.0000     -10.309210      -280.5279
   7   2.0000     -10.300255      -280.2842
   8   2.0000     -10.296695      -280.1873
   9   2.0000     -10.293438      -280.0987
  10   2.0000     -10.285779      -279.8903
  11   2.0000     -10.284374      -279.8520
  12   2.0000     -10.283943      -279.8403
  13   2.0000     -10.279022      -279.7064
  14   2.0000     -10.278811      -279.7007
  15   2.0000     -10.264333      -279.3067
  16   2.0000      -8.081603      -219.9116
  17   2.0000      -8.070353      -219.6055
  18   2.0000      -6.039999      -164.3567
  19   2.0000      -6.036054      -164.2494
  20   2.0000      -6.032403      -164.1500
  21   2.0000      -6.029005      -164.0576
  22   2.0000      -6.024837      -163.9441
  23   2.0000      -6.021070      -163.8416
  24   2.0000      -1.005121       -27.3507
  25   2.0000      -0.982330       -26.7306
  26   2.0000      -0.922062       -25.0906
  27   2.0000      -0.904539       -24.6138
  28   2.0000      -0.876816       -23.8594
  29   2.0000      -0.852619       -23.2009
  30   2.0000      -0.846684       -23.0394
  31   2.0000      -0.815811       -22.1994
  32   2.0000      -0.787156       -21.4196
  33   2.0000      -0.771005       -20.9801
  34   2.0000      -0.714689       -19.4477
  35   2.0000      -0.702164       -19.1068
  36   2.0000      -0.694816       -18.9069
  37   2.0000      -0.658236       -17.9115
  38   2.0000      -0.645088       -17.5537
  39   2.0000      -0.617589       -16.8055
  40   2.0000      -0.601905       -16.3787
  41   2.0000      -0.574938       -15.6449
  42   2.0000      -0.567057       -15.4304
  43   2.0000      -0.551727       -15.0132
  44   2.0000      -0.538932       -14.6651
  45   2.0000      -0.529408       -14.4059
  46   2.0000      -0.516740       -14.0612
  47   2.0000      -0.516159       -14.0454
  48   2.0000      -0.506014       -13.7693
  49   2.0000      -0.501189       -13.6380
  50   2.0000      -0.493241       -13.4218
  51   2.0000      -0.479836       -13.0570
  52   2.0000      -0.476344       -12.9620
  53   2.0000      -0.466222       -12.6865
  54   2.0000      -0.457804       -12.4575
  55   2.0000      -0.454325       -12.3628
  56   2.0000      -0.444006       -12.0820
  57   2.0000      -0.437237       -11.8978
  58   2.0000      -0.430257       -11.7079
  59   2.0000      -0.423936       -11.5359
  60   2.0000      -0.418879       -11.3983
  61   2.0000      -0.415286       -11.3005
  62   2.0000      -0.398635       -10.8474
  63   2.0000      -0.336907        -9.1677
  64   2.0000      -0.320036        -8.7086
  65   2.0000      -0.318614        -8.6699
  66   2.0000      -0.311616        -8.4795
  67   0.0000       0.045674         1.2429
  68   0.0000       0.053157         1.4465
  69   0.0000       0.114146         3.1061
  70   0.0000       0.118394         3.2217
  71   0.0000       0.130100         3.5402

MULLIKEN ATOMIC CHARGES
-----------------------
   0 S :    0.080845
   1 C :   -0.141398
   2 C :   -0.034201
   3 C :    0.030887
   4 C :   -0.142720
   5 H :    0.013015
   6 C :    0.038938
   7 H :   -0.002329
   8 H :    0.023440
   9 C :   -0.005136
  10 H :    0.027726
  11 H :    0.014336
  12 C :   -0.078778
  13 H :    0.033798
  14 H :    0.033077
  15 H :    0.047202
  16 S :    0.124789
  17 C :   -0.051720
  18 C :   -0.029903
  19 C :    0.003354
  20 C :   -0.233490
  21 H :    0.004732
  22 C :    0.079386
  23 H :    0.030322
  24 H :    0.004870
  25 C :   -0.076066
  26 H :    0.020638
  27 H :    0.017900
  28 C :    0.009033
  29 H :    0.037822
  30 H :    0.025104
  31 H :   -0.005142
  32 H :    0.059624
  33 H :    0.040045
Sum of atomic charges:   -0.0000000

LOEWDIN ATOMIC CHARGES
----------------------
   0 S :    0.369048
   1 C :   -0.180403
   2 C :   -0.064721
   3 C :   -0.063978
   4 C :   -0.204391
   5 H :    0.027550
   6 C :   -0.044040
   7 H :    0.024962
   8 H :    0.039375
   9 C :   -0.029802
  10 H :    0.028493
  11 H :    0.016058
  12 C :   -0.070471
  13 H :    0.030046
  14 H :    0.025218
  15 H :    0.032943
  16 S :    0.424866
  17 C :   -0.187353
  18 C :   -0.070958
  19 C :   -0.039604
  20 C :   -0.198771
  21 H :    0.026944
  22 C :   -0.030600
  23 H :    0.041728
  24 H :    0.020147
  25 C :   -0.028089
  26 H :    0.015538
  27 H :    0.023611
  28 C :   -0.051447
  29 H :    0.018815
  30 H :    0.032807
  31 H :    0.007961
  32 H :    0.031260
  33 H :    0.027260

  Mayer bond orders larger than 0.100000
B(  0-S ,  1-C ) :   1.1202 B(  0-S ,  4-C ) :   1.1345 B(  1-C ,  2-C ) :   1.5959
B(  1-C , 32-H ) :   0.9787 B(  2-C ,  3-C ) :   1.1992 B(  2-C ,  6-C ) :   1.0442
B(  3-C ,  4-C ) :   1.5952 B(  3-C ,  5-H ) :   0.9858 B(  4-C , 20-C ) :   1.0296
B(  6-C ,  7-H ) :   0.9401 B(  6-C ,  8-H ) :   0.9267 B(  6-C ,  9-C ) :   1.0485
B(  9-C , 10-H ) :   0.9537 B(  9-C , 11-H ) :   0.9533 B(  9-C , 12-C ) :   1.0935
B( 12-C , 13-H ) :   0.9713 B( 12-C , 14-H ) :   0.9722 B( 12-C , 15-H ) :   0.9730
B( 16-S , 17-C ) :   1.1527 B( 16-S , 20-C ) :   1.1501 B( 17-C , 18-C ) :   1.6431
B( 17-C , 33-H ) :   0.9600 B( 18-C , 19-C ) :   1.2345 B( 18-C , 21-H ) :   0.9879
B( 19-C , 20-C ) :   1.6029 B( 19-C , 22-C ) :   1.0369 B( 22-C , 23-H ) :   0.9381
B( 22-C , 24-H ) :   0.9364 B( 22-C , 25-C ) :   1.0701 B( 25-C , 26-H ) :   0.9639
B( 25-C , 27-H ) :   0.9531 B( 25-C , 28-C ) :   1.0708 B( 28-C , 29-H ) :   0.9771
B( 28-C , 30-H ) :   0.9696 B( 28-C , 31-H ) :   0.9711

Dispersion correction           -0.014744532
FINAL SINGLE POINT ENERGY     -1339.840840430754

DIPOLE MOMENT
-------------
                                X             Y             Z
Electronic contribution:     27.28130      -1.63323      -9.43619
Nuclear contribution   :    -27.88282       1.78636       9.83714
                        -----------------------------------------
Total Dipole Moment    :     -0.60152       0.15312       0.40095
                        -----------------------------------------
Magnitude (a.u.)       :      0.73894
Magnitude (Debye)      :      1.87823

Rotational constants in cm-1:     0.018665     0.008774     0.007126
Rotational constants in MHz :   559.573558   263.045504   213.626382

                             ****ORCA TERMINATED NORMALLY****
TOTAL RUN TIME: 0 days 0 hours 0 minutes 35 seconds 829 msec
