                         Program Version 4.2.1 -  RELEASE  -
|  1> ! wB97X-D3 SP def2-SVP
|  2> %pal
|  3> nprocs 16
|  4> end
|  5>
|  6> * xyz 0 1
|  7> S 	 -100.792 	 52.3342 	 123.603
|  8> C 	 -100.327 	 52.2612 	 121.992
|  9> C 	 -100.958 	 53.1669 	 121.143
| 10> C 	 -101.911 	 53.9087 	 121.828
| 11> C 	 -101.97 	 53.5792 	 123.227
| 12> H 	 -102.489 	 54.6791 	 121.362
| 13> C 	 -100.69 	 53.5045 	 119.654
| 14> H 	 -101.673 	 53.885 	 119.245
| 15> H 	 -100.348 	 52.5877 	 119.139
| 16> C 	 -99.6417 	 54.6418 	 119.497
| 17> H 	 -100.102 	 55.3989 	 120.062
| 18> H 	 -98.7052 	 54.2811 	 119.838
| 19> C 	 -99.4007 	 55.2574 	 118.171
| 20> H 	 -98.637 	 56.0105 	 118.484
| 21> H 	 -99.1101 	 54.4871 	 117.463
| 22> H 	 -100.244 	 55.7852 	 117.733
| 23> S 	 -102.083 	 54.7155 	 125.716
| 24> C 	 -103.447 	 55.6892 	 126.228
| 25> C 	 -104.473 	 55.6086 	 125.259
| 26> C 	 -104.113 	 54.7965 	 124.15
| 27> C 	 -102.833 	 54.2248 	 124.245
| 28> H 	 -105.412 	 56.1411 	 125.468
| 29> C 	 -104.981 	 54.6176 	 122.97
| 30> H 	 -104.443 	 55.1069 	 122.163
| 31> H 	 -105.877 	 55.3193 	 122.985
| 32> C 	 -105.507 	 53.188 	 122.625
| 33> H 	 -104.742 	 52.5401 	 122.193
| 34> H 	 -106.193 	 53.1951 	 121.729
| 35> C 	 -106.234 	 52.5072 	 123.751
| 36> H 	 -106.157 	 51.3524 	 123.712
| 37> H 	 -107.265 	 52.7919 	 123.678
| 38> H 	 -105.888 	 52.7423 	 124.793
| 39> H 	 -99.5298 	 51.6297 	 121.579
| 40> H 	 -103.495 	 56.2637 	 127.101
| 41> *
| 42>
| 43>                          ****END OF INPUT****

CARTESIAN COORDINATES (ANGSTROEM)
---------------------------------
  S    -100.792000   52.334200  123.603000
  C    -100.327000   52.261200  121.992000
  C    -100.958000   53.166900  121.143000
  C    -101.911000   53.908700  121.828000
  C    -101.970000   53.579200  123.227000
  H    -102.489000   54.679100  121.362000
  C    -100.690000   53.504500  119.654000
  H    -101.673000   53.885000  119.245000
  H    -100.348000   52.587700  119.139000
  C    -99.641700   54.641800  119.497000
  H    -100.102000   55.398900  120.062000
  H    -98.705200   54.281100  119.838000
  C    -99.400700   55.257400  118.171000
  H    -98.637000   56.010500  118.484000
  H    -99.110100   54.487100  117.463000
  H    -100.244000   55.785200  117.733000
  S    -102.083000   54.715500  125.716000
  C    -103.447000   55.689200  126.228000
  C    -104.473000   55.608600  125.259000
  C    -104.113000   54.796500  124.150000
  C    -102.833000   54.224800  124.245000
  H    -105.412000   56.141100  125.468000
  C    -104.981000   54.617600  122.970000
  H    -104.443000   55.106900  122.163000
  H    -105.877000   55.319300  122.985000
  C    -105.507000   53.188000  122.625000
  H    -104.742000   52.540100  122.193000
  H    -106.193000   53.195100  121.729000
  C    -106.234000   52.507200  123.751000
  H    -106.157000   51.352400  123.712000
  H    -107.265000   52.791900  123.678000
  H    -105.888000   52.742300  124.793000
  H    -99.529800   51.629700  121.579000
  H    -103.495000   56.263700  127.101000

 Total Charge           Charge          ....    0
 Multiplicity           Mult            ....    1
 Number of Electrons    NEL             ....  134
 Basis Dimension        Dim             ....  322

ORBITAL ENERGIES
----------------

  NO   OCC          E(Eh)            E(eV)
   0   2.0000     -88.975724     -2421.1525
   1   2.0000     -88.966266     -2420.8952
   2   2.0000     -10.336297      -281.2649
   3   2.0000     -10.327314      -281.0205
   4   2.0000     -10.316648      -280.7303
   5   2.0000     -10.310609      -280.5659
   6   2.0000     -10.302139      -280.3354
   7   2.0000     -10.299953      -280.2760
   8   2.0000     -10.298931      -280.2482
   9   2.0000     -10.297100      -280.1983
  10   2.0000     -10.293894      -280.1111
  11   2.0000     -10.292791      -280.0811
  12   2.0000     -10.286004      -279.8964
  13   2.0000     -10.277770      -279.6723
  14   2.0000     -10.276486      -279.6374
  15   2.0000     -10.276396      -279.6349
  16   2.0000      -8.090967      -220.1664
  17   2.0000      -8.081257      -219.9022
  18   2.0000      -6.049192      -164.6069
  19   2.0000      -6.045366      -164.5028
  20   2.0000      -6.042050      -164.4125
  21   2.0000      -6.039617      -164.3463
  22   2.0000      -6.035532      -164.2352
  23   2.0000      -6.032365      -164.1490
  24   2.0000      -1.008988       -27.4560
  25   2.0000      -0.987992       -26.8846
  26   2.0000      -0.915621       -24.9153
  27   2.0000      -0.905017       -24.6268
  28   2.0000      -0.868494       -23.6329
  29   2.0000      -0.860002       -23.4018
  30   2.0000      -0.847858       -23.0714
  31   2.0000      -0.809637       -22.0313
  32   2.0000      -0.780991       -21.2519
  33   2.0000      -0.769015       -20.9260
  34   2.0000      -0.704874       -19.1806
  35   2.0000      -0.691191       -18.8083
  36   2.0000      -0.687678       -18.7127
  37   2.0000      -0.666544       -18.1376
  38   2.0000      -0.638364       -17.3708
  39   2.0000      -0.621767       -16.9192
  40   2.0000      -0.586575       -15.9615
  41   2.0000      -0.580453       -15.7949
  42   2.0000      -0.565530       -15.3889
  43   2.0000      -0.549166       -14.9436
  44   2.0000      -0.544971       -14.8294
  45   2.0000      -0.533200       -14.5091
  46   2.0000      -0.515574       -14.0295
  47   2.0000      -0.509921       -13.8756
  48   2.0000      -0.506185       -13.7740
  49   2.0000      -0.492912       -13.4128
  50   2.0000      -0.488938       -13.3047
  51   2.0000      -0.476782       -12.9739
  52   2.0000      -0.472713       -12.8632
  53   2.0000      -0.465773       -12.6743
  54   2.0000      -0.463814       -12.6210
  55   2.0000      -0.450113       -12.2482
  56   2.0000      -0.434605       -11.8262
  57   2.0000      -0.432629       -11.7724
  58   2.0000      -0.427011       -11.6196
  59   2.0000      -0.425078       -11.5670
  60   2.0000      -0.421636       -11.4733
  61   2.0000      -0.416200       -11.3254
  62   2.0000      -0.400440       -10.8965
  63   2.0000      -0.350941        -9.5496
  64   2.0000      -0.337777        -9.1914
  65   2.0000      -0.328733        -8.9453
  66   2.0000      -0.280954        -7.6451
  67   0.0000       0.023571         0.6414
  68   0.0000       0.072688         1.9779
  69   0.0000       0.109864         2.9896
  70   0.0000       0.119374         3.2483
  71   0.0000       0.139786         3.8038

MULLIKEN ATOMIC CHARGES
-----------------------
   0 S :    0.149700
   1 C :   -0.123667
   2 C :   -0.091197
   3 C :    0.024251
   4 C :   -0.157109
   5 H :    0.000608
   6 C :    0.042900
   7 H :    0.027711
   8 H :    0.024744
   9 C :   -0.055659
  10 H :    0.011693
  11 H :    0.022060
  12 C :   -0.027792
  13 H :    0.048012
  14 H :    0.030694
  15 H :    0.025153
  16 S :    0.103034
  17 C :   -0.089965
  18 C :   -0.044337
  19 C :   -0.055049
  20 C :   -0.111742
  21 H :    0.030836
  22 C :    0.044929
  23 H :    0.022604
  24 H :    0.017309
  25 C :   -0.051448
  26 H :    0.031940
  27 H :    0.025002
  28 C :   -0.082179
  29 H :    0.044119
  30 H :    0.027240
  31 H :    0.048780
  32 H :    0.045712
  33 H :    0.041114
Sum of atomic charges:   -0.0000000

LOEWDIN ATOMIC CHARGES
----------------------
   0 S :    0.452831
   1 C :   -0.230227
   2 C :   -0.068541
   3 C :   -0.056462
   4 C :   -0.197971
   5 H :    0.024490
   6 C :   -0.029365
   7 H :    0.032535
   8 H :    0.025513
   9 C :   -0.039233
  10 H :    0.020037
  11 H :    0.020932
  12 C :   -0.063170
  13 H :    0.041544
  14 H :    0.023098
  15 H :    0.021097
  16 S :    0.423926
  17 C :   -0.183131
  18 C :   -0.070497
  19 C :   -0.066272
  20 C :   -0.209203
  21 H :    0.037700
  22 C :   -0.041576
  23 H :    0.030636
  24 H :    0.035368
  25 C :   -0.049597
  26 H :    0.023434
  27 H :    0.030280
  28 C :   -0.076700
  29 H :    0.037398
  30 H :    0.020370
  31 H :    0.030960
  32 H :    0.031042
  33 H :    0.018754

  Mayer bond orders larger than 0.100000
B(  0-S ,  1-C ) :   1.1741 B(  0-S ,  4-C ) :   1.1844 B(  1-C ,  2-C ) :   1.5681
B(  1-C ,  4-C ) :   0.1083 B(  1-C , 32-H ) :   0.9586 B(  2-C ,  3-C ) :   1.3284
B(  2-C ,  6-C ) :   1.0209 B(  3-C ,  4-C ) :   1.4872 B(  3-C ,  5-H ) :   0.9903
B(  4-C , 20-C ) :   1.0433 B(  6-C ,  7-H ) :   0.9431 B(  6-C ,  8-H ) :   0.9373
B(  6-C ,  9-C ) :   1.0657 B(  9-C , 10-H ) :   0.9546 B(  9-C , 11-H ) :   0.9572
B(  9-C , 12-C ) :   1.0903 B( 12-C , 13-H ) :   0.9728 B( 12-C , 14-H ) :   0.9717
B( 12-C , 15-H ) :   0.9727 B( 16-S , 17-C ) :   1.1797 B( 16-S , 20-C ) :   1.1592
B( 17-C , 18-C ) :   1.5558 B( 17-C , 20-C ) :   0.1075 B( 17-C , 33-H ) :   0.9775
B( 18-C , 19-C ) :   1.2771 B( 18-C , 21-H ) :   0.9921 B( 19-C , 20-C ) :   1.5356
B( 19-C , 22-C ) :   1.0506 B( 22-C , 23-H ) :   0.9261 B( 22-C , 24-H ) :   0.9345
B( 22-C , 25-C ) :   1.0623 B( 25-C , 26-H ) :   0.9573 B( 25-C , 27-H ) :   0.9564
B( 25-C , 28-C ) :   1.0620 B( 28-C , 29-H ) :   0.9747 B( 28-C , 30-H ) :   0.9779
B( 28-C , 31-H ) :   0.9771

Dispersion correction           -0.014528728
FINAL SINGLE POINT ENERGY     -1339.866908980007

DIPOLE MOMENT
-------------
                                X             Y             Z
Electronic contribution:      7.93776      -2.92128      22.88804
Nuclear contribution   :     -8.06228       3.21931     -23.38538
                        -----------------------------------------
Total Dipole Moment    :     -0.12452       0.29803      -0.49734
                        -----------------------------------------
Magnitude (a.u.)       :      0.59303
Magnitude (Debye)      :      1.50736

Rotational constants in cm-1:     0.019549     0.008012     0.007276
Rotational constants in MHz :   586.058391   240.208407   218.119692

                             ****ORCA TERMINATED NORMALLY****
TOTAL RUN TIME: 0 days 0 hours 0 minutes 35 seconds 82 msec
