                         Program Version 4.2.1 -  RELEASE  -
|  1> ! wB97X-D3 SP def2-SVP
|  2> %pal
|  3> nprocs 16
|  4> end
|  5>
|  6> * xyz 0 1
|  7> S 	 -71.9289 	 42.7417 	 122.858
|  8> C 	 -73.5756 	 42.0878 	 122.669
|  9> C 	 -74.5028 	 43.1119 	 122.498
| 10> C 	 -73.9063 	 44.4121 	 122.368
| 11> C 	 -72.5329 	 44.3944 	 122.562
| 12> H 	 -74.4118 	 45.3017 	 122.174
| 13> C 	 -75.9412 	 42.9501 	 122.16
| 14> H 	 -76.1534 	 43.1669 	 121.107
| 15> H 	 -76.4673 	 43.6639 	 122.825
| 16> C 	 -76.4759 	 41.5466 	 122.481
| 17> H 	 -75.9964 	 40.7015 	 121.826
| 18> H 	 -76.251 	 41.4452 	 123.528
| 19> C 	 -78.0153 	 41.4409 	 122.27
| 20> H 	 -78.3718 	 40.4374 	 122.605
| 21> H 	 -78.5877 	 42.2255 	 122.801
| 22> H 	 -78.294 	 41.5079 	 121.185
| 23> S 	 -71.2761 	 46.2256 	 124.092
| 24> C 	 -70.2017 	 47.2854 	 123.256
| 25> C 	 -70.1811 	 47.1444 	 121.92
| 26> C 	 -71.0833 	 46.1464 	 121.503
| 27> C 	 -71.742 	 45.5663 	 122.563
| 28> H 	 -69.6597 	 47.8165 	 121.35
| 29> C 	 -71.2283 	 45.7364 	 120.061
| 30> H 	 -70.5128 	 46.4154 	 119.573
| 31> H 	 -72.2133 	 46.044 	 119.779
| 32> C 	 -70.8837 	 44.3003 	 119.639
| 33> H 	 -71.2834 	 43.3892 	 120.146
| 34> H 	 -69.8019 	 44.2738 	 119.845
| 35> C 	 -70.9154 	 44.0037 	 118.14
| 36> H 	 -71.7773 	 44.2739 	 117.614
| 37> H 	 -70.7163 	 42.9375 	 118.042
| 38> H 	 -70.1476 	 44.5554 	 117.66
| 39> H 	 -73.7873 	 41.066 	 122.575
| 40> H 	 -69.4415 	 47.9742 	 123.726
| 41> *
| 42>
| 43>                          ****END OF INPUT****

CARTESIAN COORDINATES (ANGSTROEM)
---------------------------------
  S    -71.928900   42.741700  122.858000
  C    -73.575600   42.087800  122.669000
  C    -74.502800   43.111900  122.498000
  C    -73.906300   44.412100  122.368000
  C    -72.532900   44.394400  122.562000
  H    -74.411800   45.301700  122.174000
  C    -75.941200   42.950100  122.160000
  H    -76.153400   43.166900  121.107000
  H    -76.467300   43.663900  122.825000
  C    -76.475900   41.546600  122.481000
  H    -75.996400   40.701500  121.826000
  H    -76.251000   41.445200  123.528000
  C    -78.015300   41.440900  122.270000
  H    -78.371800   40.437400  122.605000
  H    -78.587700   42.225500  122.801000
  H    -78.294000   41.507900  121.185000
  S    -71.276100   46.225600  124.092000
  C    -70.201700   47.285400  123.256000
  C    -70.181100   47.144400  121.920000
  C    -71.083300   46.146400  121.503000
  C    -71.742000   45.566300  122.563000
  H    -69.659700   47.816500  121.350000
  C    -71.228300   45.736400  120.061000
  H    -70.512800   46.415400  119.573000
  H    -72.213300   46.044000  119.779000
  C    -70.883700   44.300300  119.639000
  H    -71.283400   43.389200  120.146000
  H    -69.801900   44.273800  119.845000
  C    -70.915400   44.003700  118.140000
  H    -71.777300   44.273900  117.614000
  H    -70.716300   42.937500  118.042000
  H    -70.147600   44.555400  117.660000
  H    -73.787300   41.066000  122.575000
  H    -69.441500   47.974200  123.726000

 Total Charge           Charge          ....    0
 Multiplicity           Mult            ....    1
 Number of Electrons    NEL             ....  134
 Basis Dimension        Dim             ....  322

ORBITAL ENERGIES
----------------

  NO   OCC          E(Eh)            E(eV)
   0   2.0000     -88.965828     -2420.8833
   1   2.0000     -88.965053     -2420.8622
   2   2.0000     -10.324188      -280.9354
   3   2.0000     -10.313126      -280.6344
   4   2.0000     -10.312639      -280.6212
   5   2.0000     -10.311271      -280.5839
   6   2.0000     -10.298614      -280.2395
   7   2.0000     -10.295580      -280.1570
   8   2.0000     -10.294867      -280.1376
   9   2.0000     -10.291782      -280.0536
  10   2.0000     -10.288323      -279.9595
  11   2.0000     -10.288239      -279.9572
  12   2.0000     -10.287235      -279.9299
  13   2.0000     -10.281829      -279.7828
  14   2.0000     -10.279733      -279.7257
  15   2.0000     -10.264474      -279.3105
  16   2.0000      -8.080783      -219.8893
  17   2.0000      -8.078943      -219.8392
  18   2.0000      -6.039121      -164.3328
  19   2.0000      -6.037601      -164.2915
  20   2.0000      -6.035193      -164.2260
  21   2.0000      -6.033706      -164.1855
  22   2.0000      -6.031631      -164.1290
  23   2.0000      -6.029610      -164.0740
  24   2.0000      -1.011642       -27.5282
  25   2.0000      -0.981092       -26.6969
  26   2.0000      -0.912391       -24.8274
  27   2.0000      -0.906837       -24.6763
  28   2.0000      -0.872105       -23.7312
  29   2.0000      -0.855882       -23.2897
  30   2.0000      -0.846588       -23.0368
  31   2.0000      -0.814924       -22.1752
  32   2.0000      -0.782189       -21.2844
  33   2.0000      -0.766129       -20.8474
  34   2.0000      -0.713318       -19.4104
  35   2.0000      -0.698634       -19.0108
  36   2.0000      -0.684215       -18.6184
  37   2.0000      -0.663530       -18.0556
  38   2.0000      -0.645151       -17.5554
  39   2.0000      -0.609639       -16.5891
  40   2.0000      -0.593263       -16.1435
  41   2.0000      -0.575905       -15.6712
  42   2.0000      -0.571699       -15.5567
  43   2.0000      -0.560504       -15.2521
  44   2.0000      -0.529722       -14.4145
  45   2.0000      -0.522532       -14.2188
  46   2.0000      -0.518355       -14.1052
  47   2.0000      -0.505487       -13.7550
  48   2.0000      -0.498863       -13.5748
  49   2.0000      -0.495725       -13.4894
  50   2.0000      -0.493358       -13.4250
  51   2.0000      -0.479893       -13.0586
  52   2.0000      -0.477562       -12.9951
  53   2.0000      -0.467285       -12.7155
  54   2.0000      -0.456095       -12.4110
  55   2.0000      -0.448500       -12.2043
  56   2.0000      -0.443751       -12.0751
  57   2.0000      -0.434668       -11.8279
  58   2.0000      -0.431915       -11.7530
  59   2.0000      -0.422594       -11.4994
  60   2.0000      -0.418625       -11.3914
  61   2.0000      -0.416468       -11.3327
  62   2.0000      -0.405917       -11.0456
  63   2.0000      -0.338814        -9.2196
  64   2.0000      -0.329013        -8.9529
  65   2.0000      -0.317171        -8.6306
  66   2.0000      -0.306128        -8.3302
  67   0.0000       0.046465         1.2644
  68   0.0000       0.051963         1.4140
  69   0.0000       0.117423         3.1952
  70   0.0000       0.122685         3.3384
  71   0.0000       0.126671         3.4469

MULLIKEN ATOMIC CHARGES
-----------------------
   0 S :    0.108881
   1 C :   -0.113625
   2 C :   -0.067793
   3 C :    0.053618
   4 C :   -0.148798
   5 H :   -0.008160
   6 C :    0.052357
   7 H :    0.044868
   8 H :    0.033593
   9 C :   -0.133083
  10 H :    0.052054
  11 H :    0.034518
  12 C :   -0.055945
  13 H :    0.038704
  14 H :    0.035133
  15 H :    0.035379
  16 S :    0.131825
  17 C :   -0.098104
  18 C :   -0.012715
  19 C :   -0.039688
  20 C :   -0.209918
  21 H :   -0.016243
  22 C :    0.143909
  23 H :    0.005973
  24 H :    0.021342
  25 C :   -0.111535
  26 H :    0.052400
  27 H :    0.021859
  28 C :   -0.004362
  29 H :    0.014956
  30 H :    0.031393
  31 H :    0.008522
  32 H :    0.034254
  33 H :    0.064432
Sum of atomic charges:    0.0000000

LOEWDIN ATOMIC CHARGES
----------------------
   0 S :    0.383587
   1 C :   -0.182367
   2 C :   -0.063774
   3 C :   -0.043410
   4 C :   -0.181351
   5 H :    0.023195
   6 C :   -0.036895
   7 H :    0.034227
   8 H :    0.037165
   9 C :   -0.049735
  10 H :    0.034466
  11 H :    0.022905
  12 C :   -0.073347
  13 H :    0.028815
  14 H :    0.024940
  15 H :    0.027422
  16 S :    0.428491
  17 C :   -0.191452
  18 C :   -0.071192
  19 C :   -0.046808
  20 C :   -0.219620
  21 H :    0.019402
  22 C :   -0.027555
  23 H :    0.032540
  24 H :    0.026540
  25 C :   -0.049626
  26 H :    0.023718
  27 H :    0.028521
  28 C :   -0.057154
  29 H :    0.013322
  30 H :    0.031018
  31 H :    0.017469
  32 H :    0.016549
  33 H :    0.039993

  Mayer bond orders larger than 0.100000
B(  0-S ,  1-C ) :   1.1157 B(  0-S ,  4-C ) :   1.1202 B(  1-C ,  2-C ) :   1.6243
B(  1-C , 32-H ) :   0.9711 B(  2-C ,  3-C ) :   1.2148 B(  2-C ,  6-C ) :   1.0248
B(  3-C ,  4-C ) :   1.6025 B(  3-C ,  5-H ) :   1.0043 B(  4-C , 20-C ) :   1.0524
B(  6-C ,  7-H ) :   0.9389 B(  6-C ,  8-H ) :   0.9322 B(  6-C ,  9-C ) :   1.0849
B(  9-C , 10-H ) :   0.9453 B(  9-C , 11-H ) :   0.9553 B(  9-C , 12-C ) :   1.0836
B( 12-C , 13-H ) :   0.9742 B( 12-C , 14-H ) :   0.9745 B( 12-C , 15-H ) :   0.9747
B( 16-S , 17-C ) :   1.1625 B( 16-S , 20-C ) :   1.1430 B( 17-C , 18-C ) :   1.6361
B( 17-C , 33-H ) :   0.9496 B( 18-C , 19-C ) :   1.2477 B( 18-C , 21-H ) :   1.0000
B( 19-C , 20-C ) :   1.6043 B( 19-C , 22-C ) :   1.0284 B( 22-C , 23-H ) :   0.9303
B( 22-C , 24-H ) :   0.9214 B( 22-C , 25-C ) :   1.0512 B( 25-C , 26-H ) :   0.9595
B( 25-C , 27-H ) :   0.9546 B( 25-C , 28-C ) :   1.0869 B( 28-C , 29-H ) :   0.9760
B( 28-C , 30-H ) :   0.9744 B( 28-C , 31-H ) :   0.9733

Dispersion correction           -0.014376148
FINAL SINGLE POINT ENERGY     -1339.867296708074

DIPOLE MOMENT
-------------
                                X             Y             Z
Electronic contribution:     15.10603       9.72520      18.17611
Nuclear contribution   :    -15.35554      -9.62484     -18.63887
                        -----------------------------------------
Total Dipole Moment    :     -0.24951       0.10036      -0.46277
                        -----------------------------------------
Magnitude (a.u.)       :      0.53524
Magnitude (Debye)      :      1.36046

Rotational constants in cm-1:     0.020605     0.007949     0.006668
Rotational constants in MHz :   617.725667   238.312575   199.911865

                             ****ORCA TERMINATED NORMALLY****
TOTAL RUN TIME: 0 days 0 hours 0 minutes 31 seconds 849 msec
