                         Program Version 4.2.1 -  RELEASE  -
|  1> ! wB97X-D3 SP def2-SVP
|  2> %pal
|  3> nprocs 16
|  4> end
|  5>
|  6> * xyz 0 1
|  7> S 	 5.33249 	 75.9879 	 48.5463
|  8> C 	 4.49862 	 74.4839 	 48.1361
|  9> C 	 5.40121 	 73.5098 	 47.6571
| 10> C 	 6.74564 	 74.0329 	 47.6215
| 11> C 	 6.90184 	 75.2818 	 48.2265
| 12> H 	 7.58729 	 73.5329 	 47.1296
| 13> C 	 5.02648 	 72.1595 	 46.9905
| 14> H 	 4.28677 	 72.2458 	 46.2107
| 15> H 	 4.52181 	 71.4794 	 47.7473
| 16> C 	 6.11566 	 71.2843 	 46.5036
| 17> H 	 6.6566 	 71.7176 	 45.686
| 18> H 	 6.82727 	 71.201 	 47.2975
| 19> C 	 5.71146 	 69.8608 	 46.1496
| 20> H 	 4.76274 	 69.7868 	 45.5551
| 21> H 	 6.44108 	 69.2542 	 45.6744
| 22> H 	 5.46989 	 69.1822 	 47.0301
| 23> S 	 8.37163 	 77.444 	 47.3629
| 24> C 	 10.033 	 77.6287 	 47.8628
| 25> C 	 10.399 	 76.5212 	 48.6072
| 26> C 	 9.3843 	 75.5538 	 48.7627
| 27> C 	 8.14524 	 76.012 	 48.3646
| 28> H 	 11.3691 	 76.4157 	 49.0589
| 29> C 	 9.61714 	 74.2727 	 49.5411
| 30> H 	 10.6037 	 73.8732 	 49.3206
| 31> H 	 8.98361 	 73.5269 	 49.1538
| 32> C 	 9.51446 	 74.3357 	 51.1526
| 33> H 	 9.49224 	 73.3726 	 51.6415
| 34> H 	 8.45984 	 74.6895 	 51.4379
| 35> C 	 10.6438 	 75.0261 	 51.8419
| 36> H 	 11.603 	 74.5684 	 51.6276
| 37> H 	 10.5557 	 75.1105 	 53.0091
| 38> H 	 10.6704 	 76.0978 	 51.6393
| 39> H 	 3.43078 	 74.3053 	 48.2854
| 40> H 	 10.677 	 78.4109 	 47.5163
| 41> *
| 42>
| 43>                          ****END OF INPUT****

CARTESIAN COORDINATES (ANGSTROEM)
---------------------------------
  S      5.332490   75.987900   48.546300
  C      4.498620   74.483900   48.136100
  C      5.401210   73.509800   47.657100
  C      6.745640   74.032900   47.621500
  C      6.901840   75.281800   48.226500
  H      7.587290   73.532900   47.129600
  C      5.026480   72.159500   46.990500
  H      4.286770   72.245800   46.210700
  H      4.521810   71.479400   47.747300
  C      6.115660   71.284300   46.503600
  H      6.656600   71.717600   45.686000
  H      6.827270   71.201000   47.297500
  C      5.711460   69.860800   46.149600
  H      4.762740   69.786800   45.555100
  H      6.441080   69.254200   45.674400
  H      5.469890   69.182200   47.030100
  S      8.371630   77.444000   47.362900
  C     10.033000   77.628700   47.862800
  C     10.399000   76.521200   48.607200
  C      9.384300   75.553800   48.762700
  C      8.145240   76.012000   48.364600
  H     11.369100   76.415700   49.058900
  C      9.617140   74.272700   49.541100
  H     10.603700   73.873200   49.320600
  H      8.983610   73.526900   49.153800
  C      9.514460   74.335700   51.152600
  H      9.492240   73.372600   51.641500
  H      8.459840   74.689500   51.437900
  C     10.643800   75.026100   51.841900
  H     11.603000   74.568400   51.627600
  H     10.555700   75.110500   53.009100
  H     10.670400   76.097800   51.639300
  H      3.430780   74.305300   48.285400
  H     10.677000   78.410900   47.516300

 Total Charge           Charge          ....    0
 Multiplicity           Mult            ....    1
 Number of Electrons    NEL             ....  134
 Basis Dimension        Dim             ....  322

ORBITAL ENERGIES
----------------

  NO   OCC          E(Eh)            E(eV)
   0   2.0000     -88.970859     -2421.0201
   1   2.0000     -88.963844     -2420.8293
   2   2.0000     -10.330860      -281.1170
   3   2.0000     -10.325396      -280.9683
   4   2.0000     -10.321343      -280.8580
   5   2.0000     -10.317635      -280.7571
   6   2.0000     -10.311299      -280.5847
   7   2.0000     -10.301451      -280.3167
   8   2.0000     -10.298842      -280.2457
   9   2.0000     -10.296930      -280.1937
  10   2.0000     -10.291731      -280.0522
  11   2.0000     -10.291581      -280.0482
  12   2.0000     -10.291523      -280.0466
  13   2.0000     -10.284960      -279.8680
  14   2.0000     -10.282576      -279.8031
  15   2.0000     -10.281475      -279.7732
  16   2.0000      -8.084909      -220.0016
  17   2.0000      -8.078664      -219.8316
  18   2.0000      -6.043456      -164.4508
  19   2.0000      -6.039450      -164.3418
  20   2.0000      -6.037136      -164.2788
  21   2.0000      -6.035748      -164.2411
  22   2.0000      -6.033134      -164.1699
  23   2.0000      -6.029469      -164.0702
  24   2.0000      -1.007139       -27.4056
  25   2.0000      -0.981961       -26.7205
  26   2.0000      -0.919104       -25.0101
  27   2.0000      -0.900614       -24.5069
  28   2.0000      -0.871130       -23.7047
  29   2.0000      -0.851948       -23.1827
  30   2.0000      -0.844030       -22.9672
  31   2.0000      -0.810665       -22.0593
  32   2.0000      -0.784412       -21.3449
  33   2.0000      -0.774424       -21.0731
  34   2.0000      -0.712338       -19.3837
  35   2.0000      -0.697421       -18.9778
  36   2.0000      -0.690521       -18.7900
  37   2.0000      -0.662636       -18.0312
  38   2.0000      -0.641703       -17.4616
  39   2.0000      -0.620605       -16.8875
  40   2.0000      -0.595578       -16.2065
  41   2.0000      -0.574441       -15.6313
  42   2.0000      -0.567134       -15.4325
  43   2.0000      -0.550513       -14.9802
  44   2.0000      -0.539999       -14.6941
  45   2.0000      -0.523104       -14.2344
  46   2.0000      -0.518049       -14.0968
  47   2.0000      -0.508561       -13.8387
  48   2.0000      -0.504525       -13.7288
  49   2.0000      -0.490451       -13.3459
  50   2.0000      -0.486004       -13.2249
  51   2.0000      -0.481502       -13.1023
  52   2.0000      -0.475953       -12.9513
  53   2.0000      -0.472418       -12.8551
  54   2.0000      -0.461495       -12.5579
  55   2.0000      -0.449735       -12.2379
  56   2.0000      -0.439915       -11.9707
  57   2.0000      -0.434142       -11.8136
  58   2.0000      -0.428217       -11.6524
  59   2.0000      -0.424493       -11.5511
  60   2.0000      -0.418572       -11.3899
  61   2.0000      -0.417060       -11.3488
  62   2.0000      -0.407957       -11.1011
  63   2.0000      -0.344764        -9.3815
  64   2.0000      -0.331586        -9.0229
  65   2.0000      -0.329361        -8.9624
  66   2.0000      -0.292672        -7.9640
  67   0.0000       0.024621         0.6700
  68   0.0000       0.062130         1.6906
  69   0.0000       0.111761         3.0412
  70   0.0000       0.117991         3.2107
  71   0.0000       0.128628         3.5001

MULLIKEN ATOMIC CHARGES
-----------------------
   0 S :    0.119817
   1 C :   -0.132190
   2 C :   -0.067155
   3 C :    0.003640
   4 C :   -0.163018
   5 H :    0.034364
   6 C :    0.038874
   7 H :    0.034251
   8 H :    0.033313
   9 C :   -0.059851
  10 H :    0.030307
  11 H :    0.021902
  12 C :   -0.064520
  13 H :    0.031851
  14 H :    0.027499
  15 H :    0.029798
  16 S :    0.095933
  17 C :   -0.082770
  18 C :   -0.021807
  19 C :   -0.057662
  20 C :   -0.119436
  21 H :    0.013817
  22 C :    0.100981
  23 H :    0.011555
  24 H :    0.001439
  25 C :   -0.060228
  26 H :    0.023853
  27 H :    0.038916
  28 C :   -0.087881
  29 H :    0.032885
  30 H :    0.041774
  31 H :    0.034297
  32 H :    0.058496
  33 H :    0.056956
Sum of atomic charges:    0.0000000

LOEWDIN ATOMIC CHARGES
----------------------
   0 S :    0.411239
   1 C :   -0.194963
   2 C :   -0.059543
   3 C :   -0.064106
   4 C :   -0.201514
   5 H :    0.034489
   6 C :   -0.035265
   7 H :    0.028594
   8 H :    0.040595
   9 C :   -0.048432
  10 H :    0.020925
  11 H :    0.023451
  12 C :   -0.071047
  13 H :    0.027899
  14 H :    0.022815
  15 H :    0.031363
  16 S :    0.405571
  17 C :   -0.180841
  18 C :   -0.068850
  19 C :   -0.056674
  20 C :   -0.196733
  21 H :    0.028944
  22 C :   -0.025114
  23 H :    0.028039
  24 H :    0.022062
  25 C :   -0.044680
  26 H :    0.023940
  27 H :    0.033619
  28 C :   -0.080996
  29 H :    0.022334
  30 H :    0.039681
  31 H :    0.022515
  32 H :    0.032286
  33 H :    0.028399

  Mayer bond orders larger than 0.100000
B(  0-S ,  1-C ) :   1.1487 B(  0-S ,  4-C ) :   1.1568 B(  1-C ,  2-C ) :   1.5943
B(  1-C ,  4-C ) :   0.1042 B(  1-C , 32-H ) :   0.9718 B(  2-C ,  3-C ) :   1.2746
B(  2-C ,  6-C ) :   1.0000 B(  3-C ,  4-C ) :   1.5469 B(  3-C ,  5-H ) :   0.9753
B(  4-C , 20-C ) :   1.0311 B(  6-C ,  7-H ) :   0.9417 B(  6-C ,  8-H ) :   0.9402
B(  6-C ,  9-C ) :   1.0924 B(  9-C , 10-H ) :   0.9428 B(  9-C , 11-H ) :   0.9460
B(  9-C , 12-C ) :   1.0845 B( 12-C , 13-H ) :   0.9751 B( 12-C , 14-H ) :   0.9723
B( 12-C , 15-H ) :   0.9703 B( 16-S , 17-C ) :   1.1630 B( 16-S , 20-C ) :   1.1489
B( 17-C , 18-C ) :   1.5718 B( 17-C , 20-C ) :   0.1049 B( 17-C , 33-H ) :   0.9739
B( 18-C , 19-C ) :   1.2632 B( 18-C , 21-H ) :   0.9931 B( 19-C , 20-C ) :   1.5731
B( 19-C , 22-C ) :   1.0578 B( 22-C , 23-H ) :   0.9353 B( 22-C , 24-H ) :   0.9257
B( 22-C , 25-C ) :   1.0554 B( 25-C , 26-H ) :   0.9556 B( 25-C , 27-H ) :   0.9565
B( 25-C , 28-C ) :   1.0791 B( 28-C , 29-H ) :   0.9727 B( 28-C , 30-H ) :   0.9689
B( 28-C , 31-H ) :   0.9721

Dispersion correction           -0.014071963
FINAL SINGLE POINT ENERGY     -1339.867927736798

DIPOLE MOMENT
-------------
                                X             Y             Z
Electronic contribution:     -6.46711      25.91840      -5.47295
Nuclear contribution   :      6.73692     -26.57505       5.41818
                        -----------------------------------------
Total Dipole Moment    :      0.26981      -0.65665      -0.05478
                        -----------------------------------------
Magnitude (a.u.)       :      0.71203
Magnitude (Debye)      :      1.80984

Rotational constants in cm-1:     0.017737     0.008156     0.006923
Rotational constants in MHz :   531.750342   244.501823   207.541231

                             ****ORCA TERMINATED NORMALLY****
TOTAL RUN TIME: 0 days 0 hours 0 minutes 31 seconds 727 msec
