                         Program Version 4.2.1 -  RELEASE  -
|  1> ! wB97X-D3 SP def2-SVP
|  2> %pal
|  3> nprocs 16
|  4> end
|  5>
|  6> * xyz 0 1
|  7> S 	 44.7162 	 8.67507 	 77.3287
|  8> C 	 43.1519 	 9.07965 	 78.1318
|  9> C 	 42.8469 	 10.3889 	 77.8644
| 10> C 	 43.932 	 11.1208 	 77.2642
| 11> C 	 45.0576 	 10.43 	 76.9552
| 12> H 	 43.9486 	 12.1584 	 77.0831
| 13> C 	 41.5429 	 11.1067 	 78.2133
| 14> H 	 40.6489 	 10.3942 	 78.0679
| 15> H 	 41.3199 	 11.9231 	 77.5936
| 16> C 	 41.4836 	 11.5645 	 79.723
| 17> H 	 41.4662 	 10.5227 	 80.2336
| 18> H 	 42.3107 	 12.1533 	 80.1421
| 19> C 	 40.1778 	 12.3168 	 80.252
| 20> H 	 40.0732 	 12.1742 	 81.3015
| 21> H 	 40.1732 	 13.3992 	 80.093
| 22> H 	 39.2349 	 11.8737 	 79.8644
| 23> S 	 47.0388 	 10.228 	 75.0462
| 24> C 	 48.2402 	 11.4939 	 75.055
| 25> C 	 48.2357 	 12.2675 	 76.1845
| 26> C 	 47.1364 	 11.9448 	 77.0648
| 27> C 	 46.3581 	 10.8811 	 76.5217
| 28> H 	 48.9542 	 13.0645 	 76.2828
| 29> C 	 46.8842 	 12.7399 	 78.3192
| 30> H 	 47.8524 	 12.8494 	 78.8018
| 31> H 	 46.2599 	 12.0412 	 78.9054
| 32> C 	 46.2731 	 14.1071 	 78.0881
| 33> H 	 45.4095 	 14.0869 	 77.3706
| 34> H 	 47.0938 	 14.6834 	 77.6946
| 35> C 	 45.9193 	 14.7259 	 79.479
| 36> H 	 45.0432 	 14.3257 	 79.9738
| 37> H 	 45.7339 	 15.7616 	 79.2863
| 38> H 	 46.7474 	 14.6718 	 80.1818
| 39> H 	 42.5187 	 8.39001 	 78.6956
| 40> H 	 49.0789 	 11.6421 	 74.4054
| 41> *
| 42>
| 43>                          ****END OF INPUT****

CARTESIAN COORDINATES (ANGSTROEM)
---------------------------------
  S     44.716200    8.675070   77.328700
  C     43.151900    9.079650   78.131800
  C     42.846900   10.388900   77.864400
  C     43.932000   11.120800   77.264200
  C     45.057600   10.430000   76.955200
  H     43.948600   12.158400   77.083100
  C     41.542900   11.106700   78.213300
  H     40.648900   10.394200   78.067900
  H     41.319900   11.923100   77.593600
  C     41.483600   11.564500   79.723000
  H     41.466200   10.522700   80.233600
  H     42.310700   12.153300   80.142100
  C     40.177800   12.316800   80.252000
  H     40.073200   12.174200   81.301500
  H     40.173200   13.399200   80.093000
  H     39.234900   11.873700   79.864400
  S     47.038800   10.228000   75.046200
  C     48.240200   11.493900   75.055000
  C     48.235700   12.267500   76.184500
  C     47.136400   11.944800   77.064800
  C     46.358100   10.881100   76.521700
  H     48.954200   13.064500   76.282800
  C     46.884200   12.739900   78.319200
  H     47.852400   12.849400   78.801800
  H     46.259900   12.041200   78.905400
  C     46.273100   14.107100   78.088100
  H     45.409500   14.086900   77.370600
  H     47.093800   14.683400   77.694600
  C     45.919300   14.725900   79.479000
  H     45.043200   14.325700   79.973800
  H     45.733900   15.761600   79.286300
  H     46.747400   14.671800   80.181800
  H     42.518700    8.390010   78.695600
  H     49.078900   11.642100   74.405400

 Total Charge           Charge          ....    0
 Multiplicity           Mult            ....    1
 Number of Electrons    NEL             ....  134
 Basis Dimension        Dim             ....  322

ORBITAL ENERGIES
----------------

  NO   OCC          E(Eh)            E(eV)
   0   2.0000     -88.970114     -2420.9999
   1   2.0000     -88.958960     -2420.6964
   2   2.0000     -10.331627      -281.1379
   3   2.0000     -10.329448      -281.0786
   4   2.0000     -10.321813      -280.8708
   5   2.0000     -10.314677      -280.6766
   6   2.0000     -10.307982      -280.4945
   7   2.0000     -10.305165      -280.4178
   8   2.0000     -10.302496      -280.3452
   9   2.0000     -10.301112      -280.3075
  10   2.0000     -10.294148      -280.1180
  11   2.0000     -10.292650      -280.0773
  12   2.0000     -10.291518      -280.0464
  13   2.0000     -10.289964      -280.0042
  14   2.0000     -10.283024      -279.8153
  15   2.0000     -10.278380      -279.6889
  16   2.0000      -8.084724      -219.9965
  17   2.0000      -8.072348      -219.6598
  18   2.0000      -6.043254      -164.4453
  19   2.0000      -6.039309      -164.3380
  20   2.0000      -6.035414      -164.2320
  21   2.0000      -6.031175      -164.1166
  22   2.0000      -6.027167      -164.0075
  23   2.0000      -6.022703      -163.8861
  24   2.0000      -1.001790       -27.2601
  25   2.0000      -0.977973       -26.6120
  26   2.0000      -0.914309       -24.8796
  27   2.0000      -0.899349       -24.4725
  28   2.0000      -0.867926       -23.6175
  29   2.0000      -0.851693       -23.1757
  30   2.0000      -0.837400       -22.7868
  31   2.0000      -0.818672       -22.2772
  32   2.0000      -0.783044       -21.3077
  33   2.0000      -0.770126       -20.9562
  34   2.0000      -0.710429       -19.3318
  35   2.0000      -0.698547       -19.0084
  36   2.0000      -0.695392       -18.9226
  37   2.0000      -0.659510       -17.9462
  38   2.0000      -0.643885       -17.5210
  39   2.0000      -0.618307       -16.8250
  40   2.0000      -0.591329       -16.0909
  41   2.0000      -0.573237       -15.5986
  42   2.0000      -0.566560       -15.4169
  43   2.0000      -0.553809       -15.0699
  44   2.0000      -0.526836       -14.3359
  45   2.0000      -0.520928       -14.1752
  46   2.0000      -0.515317       -14.0225
  47   2.0000      -0.512871       -13.9559
  48   2.0000      -0.504666       -13.7327
  49   2.0000      -0.500637       -13.6230
  50   2.0000      -0.491644       -13.3783
  51   2.0000      -0.480510       -13.0754
  52   2.0000      -0.472900       -12.8683
  53   2.0000      -0.466040       -12.6816
  54   2.0000      -0.460019       -12.5178
  55   2.0000      -0.451730       -12.2922
  56   2.0000      -0.443672       -12.0729
  57   2.0000      -0.438943       -11.9442
  58   2.0000      -0.431296       -11.7362
  59   2.0000      -0.425747       -11.5852
  60   2.0000      -0.418210       -11.3801
  61   2.0000      -0.414211       -11.2713
  62   2.0000      -0.410544       -11.1715
  63   2.0000      -0.348262        -9.4767
  64   2.0000      -0.331008        -9.0072
  65   2.0000      -0.326778        -8.8921
  66   2.0000      -0.292421        -7.9572
  67   0.0000       0.029103         0.7919
  68   0.0000       0.060181         1.6376
  69   0.0000       0.104223         2.8361
  70   0.0000       0.117569         3.1992
  71   0.0000       0.128929         3.5083

MULLIKEN ATOMIC CHARGES
-----------------------
   0 S :    0.069261
   1 C :   -0.126470
   2 C :   -0.057859
   3 C :    0.043813
   4 C :   -0.131300
   5 H :   -0.019340
   6 C :    0.067285
   7 H :    0.039486
   8 H :    0.016704
   9 C :   -0.126835
  10 H :    0.034265
  11 H :    0.045653
  12 C :   -0.053169
  13 H :    0.028605
  14 H :    0.040873
  15 H :    0.026031
  16 S :    0.125716
  17 C :   -0.066834
  18 C :   -0.051679
  19 C :   -0.036935
  20 C :   -0.162540
  21 H :    0.016481
  22 C :    0.054085
  23 H :    0.027337
  24 H :    0.038436
  25 C :   -0.079089
  26 H :    0.048976
  27 H :    0.024013
  28 C :   -0.024752
  29 H :    0.035992
  30 H :    0.025507
  31 H :    0.026584
  32 H :    0.057706
  33 H :    0.043994
Sum of atomic charges:    0.0000000

LOEWDIN ATOMIC CHARGES
----------------------
   0 S :    0.335646
   1 C :   -0.169668
   2 C :   -0.064603
   3 C :   -0.055686
   4 C :   -0.164385
   5 H :    0.023127
   6 C :   -0.031530
   7 H :    0.040495
   8 H :    0.018464
   9 C :   -0.045592
  10 H :    0.030715
  11 H :    0.025053
  12 C :   -0.074629
  13 H :    0.023832
  14 H :    0.024504
  15 H :    0.026038
  16 S :    0.412854
  17 C :   -0.182940
  18 C :   -0.071874
  19 C :   -0.041488
  20 C :   -0.210107
  21 H :    0.030205
  22 C :   -0.038029
  23 H :    0.033378
  24 H :    0.033555
  25 C :   -0.033726
  26 H :    0.028722
  27 H :    0.023936
  28 C :   -0.060386
  29 H :    0.024145
  30 H :    0.022505
  31 H :    0.025601
  32 H :    0.034228
  33 H :    0.027639

  Mayer bond orders larger than 0.100000
B(  0-S ,  1-C ) :   1.1169 B(  0-S ,  4-C ) :   1.0982 B(  1-C ,  2-C ) :   1.6454
B(  1-C , 32-H ) :   0.9688 B(  2-C ,  3-C ) :   1.1890 B(  2-C ,  6-C ) :   1.0270
B(  3-C ,  4-C ) :   1.6333 B(  3-C ,  5-H ) :   1.0077 B(  4-C , 20-C ) :   1.0450
B(  6-C ,  7-H ) :   0.9447 B(  6-C ,  8-H ) :   0.9478 B(  6-C ,  9-C ) :   1.0403
B(  9-C , 10-H ) :   0.9619 B(  9-C , 11-H ) :   0.9633 B(  9-C , 12-C ) :   1.0689
B( 12-C , 13-H ) :   0.9757 B( 12-C , 14-H ) :   0.9786 B( 12-C , 15-H ) :   0.9745
B( 16-S , 17-C ) :   1.1470 B( 16-S , 20-C ) :   1.1345 B( 17-C , 18-C ) :   1.6459
B( 17-C , 33-H ) :   0.9607 B( 18-C , 19-C ) :   1.2228 B( 18-C , 21-H ) :   0.9876
B( 19-C , 20-C ) :   1.5771 B( 19-C , 22-C ) :   1.0469 B( 22-C , 23-H ) :   0.9276
B( 22-C , 24-H ) :   0.9342 B( 22-C , 25-C ) :   1.0663 B( 25-C , 26-H ) :   0.9558
B( 25-C , 27-H ) :   0.9489 B( 25-C , 28-C ) :   1.0806 B( 28-C , 29-H ) :   0.9782
B( 28-C , 30-H ) :   0.9747 B( 28-C , 31-H ) :   0.9710

Dispersion correction           -0.014297734
FINAL SINGLE POINT ENERGY     -1339.867531618959

DIPOLE MOMENT
-------------
                                X             Y             Z
Electronic contribution:     15.52049     -22.22840     -20.27093
Nuclear contribution   :    -15.64627      23.02765      20.66877
                        -----------------------------------------
Total Dipole Moment    :     -0.12579       0.79926       0.39783
                        -----------------------------------------
Magnitude (a.u.)       :      0.90161
Magnitude (Debye)      :      2.29172

Rotational constants in cm-1:     0.017881     0.009005     0.006410
Rotational constants in MHz :   536.070716   269.961108   192.173482

                             ****ORCA TERMINATED NORMALLY****
TOTAL RUN TIME: 0 days 0 hours 0 minutes 31 seconds 26 msec
