                         Program Version 4.2.1 -  RELEASE  -
|  1> ! wB97X-D3 SP def2-SVP
|  2> %pal
|  3> nprocs 16
|  4> end
|  5>
|  6> * xyz 0 1
|  7> S 	 -32.612 	 59.5003 	 110.001
|  8> C 	 -32.3311 	 57.9477 	 109.306
|  9> C 	 -31.3262 	 57.2653 	 109.977
| 10> C 	 -30.8212 	 58.0642 	 111.097
| 11> C 	 -31.3118 	 59.3732 	 111.159
| 12> H 	 -30.1591 	 57.8168 	 111.901
| 13> C 	 -30.9819 	 55.7933 	 109.716
| 14> H 	 -31.1624 	 55.3832 	 108.638
| 15> H 	 -31.8103 	 55.256 	 110.203
| 16> C 	 -29.708 	 55.1376 	 110.397
| 17> H 	 -28.8786 	 55.683 	 110.016
| 18> H 	 -29.6878 	 55.2247 	 111.453
| 19> C 	 -29.5441 	 53.6335 	 110.036
| 20> H 	 -29.6458 	 53.3953 	 108.958
| 21> H 	 -28.5993 	 53.3097 	 110.462
| 22> H 	 -30.3538 	 53.0688 	 110.546
| 23> S 	 -31.9695 	 61.5333 	 112.715
| 24> C 	 -30.6777 	 62.6316 	 113.289
| 25> C 	 -29.4307 	 62.1268 	 112.985
| 26> C 	 -29.4877 	 60.9446 	 112.181
| 27> C 	 -30.817 	 60.5706 	 111.9
| 28> H 	 -28.6024 	 62.682 	 113.28
| 29> C 	 -28.2523 	 60.2991 	 111.616
| 30> H 	 -28.423 	 59.3741 	 111.178
| 31> H 	 -27.6011 	 60.1757 	 112.483
| 32> C 	 -27.4041 	 61.1957 	 110.711
| 33> H 	 -26.9981 	 62.058 	 111.233
| 34> H 	 -28.1425 	 61.7051 	 110.087
| 35> C 	 -26.2204 	 60.5785 	 109.923
| 36> H 	 -26.5134 	 59.6369 	 109.423
| 37> H 	 -25.5183 	 60.2414 	 110.655
| 38> H 	 -25.7744 	 61.278 	 109.3
| 39> H 	 -32.8974 	 57.4676 	 108.496
| 40> H 	 -30.836 	 63.5894 	 113.724
| 41> *
| 42>
| 43>                          ****END OF INPUT****

CARTESIAN COORDINATES (ANGSTROEM)
---------------------------------
  S    -32.612000   59.500300  110.001000
  C    -32.331100   57.947700  109.306000
  C    -31.326200   57.265300  109.977000
  C    -30.821200   58.064200  111.097000
  C    -31.311800   59.373200  111.159000
  H    -30.159100   57.816800  111.901000
  C    -30.981900   55.793300  109.716000
  H    -31.162400   55.383200  108.638000
  H    -31.810300   55.256000  110.203000
  C    -29.708000   55.137600  110.397000
  H    -28.878600   55.683000  110.016000
  H    -29.687800   55.224700  111.453000
  C    -29.544100   53.633500  110.036000
  H    -29.645800   53.395300  108.958000
  H    -28.599300   53.309700  110.462000
  H    -30.353800   53.068800  110.546000
  S    -31.969500   61.533300  112.715000
  C    -30.677700   62.631600  113.289000
  C    -29.430700   62.126800  112.985000
  C    -29.487700   60.944600  112.181000
  C    -30.817000   60.570600  111.900000
  H    -28.602400   62.682000  113.280000
  C    -28.252300   60.299100  111.616000
  H    -28.423000   59.374100  111.178000
  H    -27.601100   60.175700  112.483000
  C    -27.404100   61.195700  110.711000
  H    -26.998100   62.058000  111.233000
  H    -28.142500   61.705100  110.087000
  C    -26.220400   60.578500  109.923000
  H    -26.513400   59.636900  109.423000
  H    -25.518300   60.241400  110.655000
  H    -25.774400   61.278000  109.300000
  H    -32.897400   57.467600  108.496000
  H    -30.836000   63.589400  113.724000

 Total Charge           Charge          ....    0
 Multiplicity           Mult            ....    1
 Number of Electrons    NEL             ....  134
 Basis Dimension        Dim             ....  322

ORBITAL ENERGIES
----------------

  NO   OCC          E(Eh)            E(eV)
   0   2.0000     -88.967313     -2420.9237
   1   2.0000     -88.963378     -2420.8166
   2   2.0000     -10.332257      -281.1550
   3   2.0000     -10.330821      -281.1159
   4   2.0000     -10.318968      -280.7934
   5   2.0000     -10.314005      -280.6583
   6   2.0000     -10.311226      -280.5827
   7   2.0000     -10.307340      -280.4770
   8   2.0000     -10.305713      -280.4327
   9   2.0000     -10.298670      -280.2410
  10   2.0000     -10.293531      -280.1012
  11   2.0000     -10.288907      -279.9754
  12   2.0000     -10.286287      -279.9041
  13   2.0000     -10.284022      -279.8425
  14   2.0000     -10.281469      -279.7730
  15   2.0000     -10.274225      -279.5759
  16   2.0000      -8.082191      -219.9276
  17   2.0000      -8.078592      -219.8297
  18   2.0000      -6.040620      -164.3736
  19   2.0000      -6.037078      -164.2772
  20   2.0000      -6.036717      -164.2674
  21   2.0000      -6.032983      -164.1658
  22   2.0000      -6.032865      -164.1626
  23   2.0000      -6.029512      -164.0714
  24   2.0000      -1.005716       -27.3669
  25   2.0000      -0.983923       -26.7739
  26   2.0000      -0.910024       -24.7630
  27   2.0000      -0.902660       -24.5626
  28   2.0000      -0.870494       -23.6874
  29   2.0000      -0.850839       -23.1525
  30   2.0000      -0.843327       -22.9481
  31   2.0000      -0.819280       -22.2937
  32   2.0000      -0.782140       -21.2831
  33   2.0000      -0.770238       -20.9592
  34   2.0000      -0.711125       -19.3507
  35   2.0000      -0.700447       -19.0601
  36   2.0000      -0.690577       -18.7916
  37   2.0000      -0.663595       -18.0573
  38   2.0000      -0.644187       -17.5292
  39   2.0000      -0.616442       -16.7742
  40   2.0000      -0.599071       -16.3015
  41   2.0000      -0.571519       -15.5518
  42   2.0000      -0.563252       -15.3269
  43   2.0000      -0.560677       -15.2568
  44   2.0000      -0.533400       -14.5146
  45   2.0000      -0.526379       -14.3235
  46   2.0000      -0.516051       -14.0425
  47   2.0000      -0.503723       -13.7070
  48   2.0000      -0.502348       -13.6696
  49   2.0000      -0.500396       -13.6165
  50   2.0000      -0.491395       -13.3715
  51   2.0000      -0.480721       -13.0811
  52   2.0000      -0.476508       -12.9664
  53   2.0000      -0.470333       -12.7984
  54   2.0000      -0.456726       -12.4282
  55   2.0000      -0.450158       -12.2494
  56   2.0000      -0.446752       -12.1567
  57   2.0000      -0.441336       -12.0094
  58   2.0000      -0.436328       -11.8731
  59   2.0000      -0.429445       -11.6858
  60   2.0000      -0.420812       -11.4509
  61   2.0000      -0.416516       -11.3340
  62   2.0000      -0.404148       -10.9974
  63   2.0000      -0.349537        -9.5114
  64   2.0000      -0.330070        -8.9817
  65   2.0000      -0.323542        -8.8040
  66   2.0000      -0.290382        -7.9017
  67   0.0000       0.026783         0.7288
  68   0.0000       0.074792         2.0352
  69   0.0000       0.106372         2.8945
  70   0.0000       0.123577         3.3627
  71   0.0000       0.130677         3.5559

MULLIKEN ATOMIC CHARGES
-----------------------
   0 S :    0.109681
   1 C :   -0.114322
   2 C :   -0.054890
   3 C :    0.016650
   4 C :   -0.160411
   5 H :    0.016207
   6 C :   -0.028330
   7 H :    0.042289
   8 H :    0.038501
   9 C :   -0.054765
  10 H :    0.027306
  11 H :    0.031698
  12 C :   -0.064326
  13 H :    0.041745
  14 H :    0.039001
  15 H :    0.032681
  16 S :    0.108031
  17 C :   -0.090626
  18 C :   -0.011558
  19 C :   -0.053853
  20 C :   -0.136767
  21 H :   -0.000073
  22 C :    0.139958
  23 H :   -0.003295
  24 H :    0.019207
  25 C :   -0.119003
  26 H :    0.014869
  27 H :    0.025799
  28 C :    0.002012
  29 H :    0.032676
  30 H :    0.015963
  31 H :    0.032216
  32 H :    0.056017
  33 H :    0.049710
Sum of atomic charges:    0.0000000

LOEWDIN ATOMIC CHARGES
----------------------
   0 S :    0.417127
   1 C :   -0.210662
   2 C :   -0.063591
   3 C :   -0.069422
   4 C :   -0.197374
   5 H :    0.027820
   6 C :   -0.051237
   7 H :    0.042189
   8 H :    0.035996
   9 C :   -0.035272
  10 H :    0.017440
  11 H :    0.020735
  12 C :   -0.063847
  13 H :    0.027795
  14 H :    0.027635
  15 H :    0.026920
  16 S :    0.408416
  17 C :   -0.166506
  18 C :   -0.055678
  19 C :   -0.050235
  20 C :   -0.212706
  21 H :    0.023790
  22 C :   -0.026299
  23 H :    0.017534
  24 H :    0.034482
  25 C :   -0.044034
  26 H :    0.018715
  27 H :    0.021192
  28 C :   -0.053683
  29 H :    0.028724
  30 H :    0.022420
  31 H :    0.020876
  32 H :    0.036404
  33 H :    0.024334

  Mayer bond orders larger than 0.100000
B(  0-S ,  1-C ) :   1.1479 B(  0-S ,  4-C ) :   1.1621 B(  1-C ,  2-C ) :   1.6047
B(  1-C , 32-H ) :   0.9697 B(  2-C ,  3-C ) :   1.2282 B(  2-C ,  6-C ) :   1.0098
B(  3-C ,  4-C ) :   1.5773 B(  3-C ,  5-H ) :   0.9920 B(  4-C , 20-C ) :   1.0061
B(  6-C ,  7-H ) :   0.9492 B(  6-C ,  8-H ) :   0.9392 B(  6-C ,  9-C ) :   1.0571
B(  9-C , 10-H ) :   0.9624 B(  9-C , 11-H ) :   0.9498 B(  9-C , 12-C ) :   1.0820
B( 12-C , 13-H ) :   0.9774 B( 12-C , 14-H ) :   0.9737 B( 12-C , 15-H ) :   0.9769
B( 16-S , 17-C ) :   1.1420 B( 16-S , 20-C ) :   1.1589 B( 17-C , 18-C ) :   1.6177
B( 17-C , 33-H ) :   0.9719 B( 18-C , 19-C ) :   1.2260 B( 18-C , 21-H ) :   1.0013
B( 19-C , 20-C ) :   1.5772 B( 19-C , 22-C ) :   1.0615 B( 22-C , 23-H ) :   0.9321
B( 22-C , 24-H ) :   0.9191 B( 22-C , 25-C ) :   1.0554 B( 25-C , 26-H ) :   0.9508
B( 25-C , 27-H ) :   0.9591 B( 25-C , 28-C ) :   1.0832 B( 28-C , 29-H ) :   0.9760
B( 28-C , 30-H ) :   0.9722 B( 28-C , 31-H ) :   0.9741

Dispersion correction           -0.013543432
FINAL SINGLE POINT ENERGY     -1339.864782002243

DIPOLE MOMENT
-------------
                                X             Y             Z
Electronic contribution:    -24.05736      18.68763       7.03745
Nuclear contribution   :     24.65585     -19.02577      -6.99119
                        -----------------------------------------
Total Dipole Moment    :      0.59849      -0.33814       0.04627
                        -----------------------------------------
Magnitude (a.u.)       :      0.68897
Magnitude (Debye)      :      1.75121

Rotational constants in cm-1:     0.016708     0.008494     0.006431
Rotational constants in MHz :   500.894128   254.637371   192.790916

                             ****ORCA TERMINATED NORMALLY****
TOTAL RUN TIME: 0 days 0 hours 0 minutes 28 seconds 967 msec
