                         Program Version 4.2.1 -  RELEASE  -
|  1> ! wB97X-D3 SP def2-SVP
|  2> %pal
|  3> nprocs 16
|  4> end
|  5>
|  6> * xyz 0 1
|  7> S 	 -41.995 	 18.2999 	 74.5109
|  8> C 	 -41.0314 	 16.96 	 73.9364
|  9> C 	 -40.8038 	 17.0787 	 72.5883
| 10> C 	 -41.2342 	 18.3726 	 72.117
| 11> C 	 -41.8366 	 19.2078 	 73.0861
| 12> H 	 -41.2081 	 18.78 	 71.1111
| 13> C 	 -39.9632 	 16.0478 	 71.8332
| 14> H 	 -40.2106 	 16.0698 	 70.7841
| 15> H 	 -40.2514 	 15.1085 	 72.2193
| 16> C 	 -38.3919 	 16.2783 	 71.9328
| 17> H 	 -38.0593 	 16.3017 	 72.9608
| 18> H 	 -37.7634 	 15.4911 	 71.6311
| 19> C 	 -37.9077 	 17.5462 	 71.2686
| 20> H 	 -38.3473 	 18.4452 	 71.6753
| 21> H 	 -36.8763 	 17.6427 	 71.3896
| 22> H 	 -38.1406 	 17.5446 	 70.2035
| 23> S 	 -41.4283 	 21.7486 	 72.057
| 24> C 	 -42.6471 	 22.9257 	 72.1524
| 25> C 	 -43.794 	 22.4147 	 72.6881
| 26> C 	 -43.6587 	 21.0697 	 73.136
| 27> C 	 -42.4066 	 20.573 	 72.86
| 28> H 	 -44.5311 	 23.1525 	 72.9303
| 29> C 	 -44.8217 	 20.3499 	 73.8702
| 30> H 	 -44.6795 	 19.3135 	 73.6826
| 31> H 	 -45.7048 	 20.4922 	 73.316
| 32> C 	 -45.0109 	 20.5058 	 75.3719
| 33> H 	 -44.1349 	 20.0708 	 75.7897
| 34> H 	 -45.8304 	 19.8645 	 75.6591
| 35> C 	 -45.1547 	 21.9976 	 75.7447
| 36> H 	 -44.2727 	 22.5263 	 75.4919
| 37> H 	 -45.3379 	 22.1237 	 76.8212
| 38> H 	 -45.8806 	 22.5807 	 75.1176
| 39> H 	 -40.7179 	 16.1575 	 74.4784
| 40> H 	 -42.4987 	 24.0095 	 71.9237
| 41> *
| 42>
| 43>                          ****END OF INPUT****

CARTESIAN COORDINATES (ANGSTROEM)
---------------------------------
  S    -41.995000   18.299900   74.510900
  C    -41.031400   16.960000   73.936400
  C    -40.803800   17.078700   72.588300
  C    -41.234200   18.372600   72.117000
  C    -41.836600   19.207800   73.086100
  H    -41.208100   18.780000   71.111100
  C    -39.963200   16.047800   71.833200
  H    -40.210600   16.069800   70.784100
  H    -40.251400   15.108500   72.219300
  C    -38.391900   16.278300   71.932800
  H    -38.059300   16.301700   72.960800
  H    -37.763400   15.491100   71.631100
  C    -37.907700   17.546200   71.268600
  H    -38.347300   18.445200   71.675300
  H    -36.876300   17.642700   71.389600
  H    -38.140600   17.544600   70.203500
  S    -41.428300   21.748600   72.057000
  C    -42.647100   22.925700   72.152400
  C    -43.794000   22.414700   72.688100
  C    -43.658700   21.069700   73.136000
  C    -42.406600   20.573000   72.860000
  H    -44.531100   23.152500   72.930300
  C    -44.821700   20.349900   73.870200
  H    -44.679500   19.313500   73.682600
  H    -45.704800   20.492200   73.316000
  C    -45.010900   20.505800   75.371900
  H    -44.134900   20.070800   75.789700
  H    -45.830400   19.864500   75.659100
  C    -45.154700   21.997600   75.744700
  H    -44.272700   22.526300   75.491900
  H    -45.337900   22.123700   76.821200
  H    -45.880600   22.580700   75.117600
  H    -40.717900   16.157500   74.478400
  H    -42.498700   24.009500   71.923700

 Total Charge           Charge          ....    0
 Multiplicity           Mult            ....    1
 Number of Electrons    NEL             ....  134
 Basis Dimension        Dim             ....  322

ORBITAL ENERGIES
----------------

  NO   OCC          E(Eh)            E(eV)
   0   2.0000     -88.968220     -2420.9484
   1   2.0000     -88.966915     -2420.9128
   2   2.0000     -10.331804      -281.1427
   3   2.0000     -10.329310      -281.0748
   4   2.0000     -10.315090      -280.6879
   5   2.0000     -10.306847      -280.4636
   6   2.0000     -10.304064      -280.3878
   7   2.0000     -10.303337      -280.3680
   8   2.0000     -10.296201      -280.1739
   9   2.0000     -10.294267      -280.1213
  10   2.0000     -10.288535      -279.9653
  11   2.0000     -10.281923      -279.7854
  12   2.0000     -10.281700      -279.7793
  13   2.0000     -10.280766      -279.7539
  14   2.0000     -10.275598      -279.6132
  15   2.0000     -10.265590      -279.3409
  16   2.0000      -8.083130      -219.9532
  17   2.0000      -8.082980      -219.9491
  18   2.0000      -6.041555      -164.3991
  19   2.0000      -6.041365      -164.3939
  20   2.0000      -6.037489      -164.2884
  21   2.0000      -6.037167      -164.2797
  22   2.0000      -6.034102      -164.1963
  23   2.0000      -6.033937      -164.1918
  24   2.0000      -1.014037       -27.5934
  25   2.0000      -0.993459       -27.0334
  26   2.0000      -0.910845       -24.7854
  27   2.0000      -0.907877       -24.7046
  28   2.0000      -0.870676       -23.6923
  29   2.0000      -0.849580       -23.1183
  30   2.0000      -0.844207       -22.9720
  31   2.0000      -0.816755       -22.2250
  32   2.0000      -0.787870       -21.4390
  33   2.0000      -0.779367       -21.2077
  34   2.0000      -0.709947       -19.3186
  35   2.0000      -0.707859       -19.2618
  36   2.0000      -0.693862       -18.8809
  37   2.0000      -0.664289       -18.0762
  38   2.0000      -0.641071       -17.4444
  39   2.0000      -0.612640       -16.6708
  40   2.0000      -0.595215       -16.1966
  41   2.0000      -0.575017       -15.6470
  42   2.0000      -0.557034       -15.1577
  43   2.0000      -0.550764       -14.9871
  44   2.0000      -0.544103       -14.8058
  45   2.0000      -0.542361       -14.7584
  46   2.0000      -0.519234       -14.1291
  47   2.0000      -0.511284       -13.9128
  48   2.0000      -0.506386       -13.7795
  49   2.0000      -0.491692       -13.3796
  50   2.0000      -0.490167       -13.3381
  51   2.0000      -0.478597       -13.0233
  52   2.0000      -0.476949       -12.9785
  53   2.0000      -0.466602       -12.6969
  54   2.0000      -0.464932       -12.6514
  55   2.0000      -0.442625       -12.0444
  56   2.0000      -0.440146       -11.9770
  57   2.0000      -0.439867       -11.9694
  58   2.0000      -0.437039       -11.8924
  59   2.0000      -0.425865       -11.5884
  60   2.0000      -0.420399       -11.4396
  61   2.0000      -0.416420       -11.3314
  62   2.0000      -0.410709       -11.1760
  63   2.0000      -0.350734        -9.5440
  64   2.0000      -0.335005        -9.1160
  65   2.0000      -0.329457        -8.9650
  66   2.0000      -0.295428        -8.0390
  67   0.0000       0.035950         0.9783
  68   0.0000       0.070932         1.9301
  69   0.0000       0.105335         2.8663
  70   0.0000       0.130951         3.5634
  71   0.0000       0.136377         3.7110

MULLIKEN ATOMIC CHARGES
-----------------------
   0 S :    0.110550
   1 C :   -0.079333
   2 C :   -0.087706
   3 C :    0.006752
   4 C :   -0.152568
   5 H :    0.010605
   6 C :    0.108479
   7 H :    0.022164
   8 H :    0.013686
   9 C :   -0.044391
  10 H :    0.009031
  11 H :    0.013040
  12 C :   -0.033711
  13 H :    0.034663
  14 H :    0.018129
  15 H :    0.022212
  16 S :    0.124016
  17 C :   -0.118840
  18 C :   -0.032990
  19 C :   -0.055335
  20 C :   -0.155031
  21 H :    0.014690
  22 C :    0.070218
  23 H :    0.002689
  24 H :    0.012597
  25 C :    0.004220
  26 H :    0.014560
  27 H :    0.030953
  28 C :   -0.062708
  29 H :    0.029120
  30 H :    0.041474
  31 H :    0.026725
  32 H :    0.007824
  33 H :    0.074214
Sum of atomic charges:   -0.0000000

LOEWDIN ATOMIC CHARGES
----------------------
   0 S :    0.440225
   1 C :   -0.181844
   2 C :   -0.058484
   3 C :   -0.073673
   4 C :   -0.210892
   5 H :    0.026407
   6 C :   -0.017986
   7 H :    0.028852
   8 H :    0.024317
   9 C :   -0.037206
  10 H :    0.021719
  11 H :    0.018649
  12 C :   -0.058859
  13 H :    0.025111
  14 H :    0.019671
  15 H :    0.022881
  16 S :    0.440278
  17 C :   -0.206491
  18 C :   -0.077526
  19 C :   -0.056108
  20 C :   -0.204278
  21 H :    0.029514
  22 C :   -0.032065
  23 H :    0.021774
  24 H :    0.024402
  25 C :   -0.028211
  26 H :    0.015806
  27 H :    0.026603
  28 C :   -0.069644
  29 H :    0.021332
  30 H :    0.027904
  31 H :    0.026865
  32 H :    0.009625
  33 H :    0.041331

  Mayer bond orders larger than 0.100000
B(  0-S ,  1-C ) :   1.1511 B(  0-S ,  4-C ) :   1.1755 B(  1-C ,  2-C ) :   1.5827
B(  1-C , 32-H ) :   0.9836 B(  2-C ,  3-C ) :   1.2500 B(  2-C ,  6-C ) :   1.0322
B(  3-C ,  4-C ) :   1.5506 B(  3-C ,  5-H ) :   0.9943 B(  4-C , 20-C ) :   0.9999
B(  6-C ,  7-H ) :   0.9454 B(  6-C ,  8-H ) :   0.9369 B(  6-C ,  9-C ) :   1.0558
B(  9-C , 10-H ) :   0.9523 B(  9-C , 11-H ) :   0.9562 B(  9-C , 12-C ) :   1.0881
B( 12-C , 13-H ) :   0.9726 B( 12-C , 14-H ) :   0.9695 B( 12-C , 15-H ) :   0.9753
B( 16-S , 17-C ) :   1.1704 B( 16-S , 20-C ) :   1.1623 B( 17-C , 18-C ) :   1.6118
B( 17-C , 33-H ) :   0.9590 B( 18-C , 19-C ) :   1.2420 B( 18-C , 21-H ) :   0.9908
B( 19-C , 20-C ) :   1.5999 B( 19-C , 22-C ) :   1.0259 B( 22-C , 23-H ) :   0.9216
B( 22-C , 24-H ) :   0.9340 B( 22-C , 25-C ) :   1.0811 B( 25-C , 26-H ) :   0.9478
B( 25-C , 27-H ) :   0.9525 B( 25-C , 28-C ) :   1.0754 B( 28-C , 29-H ) :   0.9688
B( 28-C , 30-H ) :   0.9740 B( 28-C , 31-H ) :   0.9748

Dispersion correction           -0.015161748
FINAL SINGLE POINT ENERGY     -1339.873784745767

DIPOLE MOMENT
-------------
                                X             Y             Z
Electronic contribution:     -0.61555       5.45452      -1.10127
Nuclear contribution   :      0.62861      -5.57488       1.05979
                        -----------------------------------------
Total Dipole Moment    :      0.01306      -0.12036      -0.04148
                        -----------------------------------------
Magnitude (a.u.)       :      0.12797
Magnitude (Debye)      :      0.32528

Rotational constants in cm-1:     0.024635     0.008164     0.006503
Rotational constants in MHz :   738.527261   244.741003   194.952324

                             ****ORCA TERMINATED NORMALLY****
TOTAL RUN TIME: 0 days 0 hours 0 minutes 30 seconds 321 msec
