                         Program Version 4.2.1 -  RELEASE  -
|  1> ! wB97X-D3 SP def2-SVP
|  2> %pal
|  3> nprocs 16
|  4> end
|  5>
|  6> * xyz 0 1
|  7> S 	 24.3161 	 0.407607 	 84.484
|  8> C 	 25.59 	 1.2593 	 85.4187
|  9> C 	 25.6161 	 2.61845 	 85.2003
| 10> C 	 24.648 	 3.01239 	 84.2113
| 11> C 	 23.9209 	 1.93287 	 83.688
| 12> H 	 24.4234 	 4.03412 	 83.8136
| 13> C 	 26.4921 	 3.62668 	 85.8659
| 14> H 	 27.2458 	 3.03434 	 86.3535
| 15> H 	 26.0705 	 4.06517 	 86.7941
| 16> C 	 27.1429 	 4.73533 	 84.9391
| 17> H 	 27.8347 	 4.34093 	 84.1501
| 18> H 	 26.3281 	 5.18317 	 84.3808
| 19> C 	 27.9368 	 5.83185 	 85.6872
| 20> H 	 28.5862 	 6.29417 	 85.0126
| 21> H 	 27.2842 	 6.63221 	 85.9879
| 22> H 	 28.5809 	 5.45719 	 86.512
| 23> S 	 22.7973 	 0.62334 	 81.6631
| 24> C 	 21.8008 	 1.37798 	 80.4753
| 25> C 	 21.3932 	 2.61856 	 80.9152
| 26> C 	 22.0618 	 2.97741 	 82.1465
| 27> C 	 23.0025 	 2.05019 	 82.5469
| 28> H 	 20.6802 	 3.34142 	 80.4626
| 29> C 	 21.8973 	 4.33308 	 82.7341
| 30> H 	 22.1892 	 4.28605 	 83.7921
| 31> H 	 20.8267 	 4.55618 	 82.6797
| 32> C 	 22.618 	 5.44228 	 82.1409
| 33> H 	 22.2284 	 5.65963 	 81.1437
| 34> H 	 23.6636 	 5.35754 	 82.0152
| 35> C 	 22.3925 	 6.76254 	 82.829
| 36> H 	 21.4564 	 6.69869 	 83.4247
| 37> H 	 22.1807 	 7.55904 	 82.12
| 38> H 	 23.1743 	 7.13135 	 83.5429
| 39> H 	 26.2766 	 0.692762 	 85.9594
| 40> H 	 21.4636 	 0.866627 	 79.5293
| 41> *
| 42>
| 43>                          ****END OF INPUT****

CARTESIAN COORDINATES (ANGSTROEM)
---------------------------------
  S     24.316100    0.407607   84.484000
  C     25.590000    1.259300   85.418700
  C     25.616100    2.618450   85.200300
  C     24.648000    3.012390   84.211300
  C     23.920900    1.932870   83.688000
  H     24.423400    4.034120   83.813600
  C     26.492100    3.626680   85.865900
  H     27.245800    3.034340   86.353500
  H     26.070500    4.065170   86.794100
  C     27.142900    4.735330   84.939100
  H     27.834700    4.340930   84.150100
  H     26.328100    5.183170   84.380800
  C     27.936800    5.831850   85.687200
  H     28.586200    6.294170   85.012600
  H     27.284200    6.632210   85.987900
  H     28.580900    5.457190   86.512000
  S     22.797300    0.623340   81.663100
  C     21.800800    1.377980   80.475300
  C     21.393200    2.618560   80.915200
  C     22.061800    2.977410   82.146500
  C     23.002500    2.050190   82.546900
  H     20.680200    3.341420   80.462600
  C     21.897300    4.333080   82.734100
  H     22.189200    4.286050   83.792100
  H     20.826700    4.556180   82.679700
  C     22.618000    5.442280   82.140900
  H     22.228400    5.659630   81.143700
  H     23.663600    5.357540   82.015200
  C     22.392500    6.762540   82.829000
  H     21.456400    6.698690   83.424700
  H     22.180700    7.559040   82.120000
  H     23.174300    7.131350   83.542900
  H     26.276600    0.692762   85.959400
  H     21.463600    0.866627   79.529300

 Total Charge           Charge          ....    0
 Multiplicity           Mult            ....    1
 Number of Electrons    NEL             ....  134
 Basis Dimension        Dim             ....  322

ORBITAL ENERGIES
----------------

  NO   OCC          E(Eh)            E(eV)
   0   2.0000     -88.969449     -2420.9818
   1   2.0000     -88.961235     -2420.7583
   2   2.0000     -10.334312      -281.2109
   3   2.0000     -10.321326      -280.8576
   4   2.0000     -10.320815      -280.8437
   5   2.0000     -10.314082      -280.6604
   6   2.0000     -10.305238      -280.4198
   7   2.0000     -10.299004      -280.2502
   8   2.0000     -10.297986      -280.2225
   9   2.0000     -10.297905      -280.2202
  10   2.0000     -10.295737      -280.1612
  11   2.0000     -10.295432      -280.1530
  12   2.0000     -10.285205      -279.8746
  13   2.0000     -10.279545      -279.7206
  14   2.0000     -10.277039      -279.6524
  15   2.0000     -10.276901      -279.6487
  16   2.0000      -8.083203      -219.9551
  17   2.0000      -8.078011      -219.8139
  18   2.0000      -6.041834      -164.4067
  19   2.0000      -6.037996      -164.3022
  20   2.0000      -6.036470      -164.2607
  21   2.0000      -6.033757      -164.1869
  22   2.0000      -6.032214      -164.1449
  23   2.0000      -6.028710      -164.0495
  24   2.0000      -1.013700       -27.5842
  25   2.0000      -0.982730       -26.7414
  26   2.0000      -0.927889       -25.2491
  27   2.0000      -0.906557       -24.6687
  28   2.0000      -0.870186       -23.6790
  29   2.0000      -0.856775       -23.3140
  30   2.0000      -0.846571       -23.0364
  31   2.0000      -0.815598       -22.1935
  32   2.0000      -0.782329       -21.2883
  33   2.0000      -0.773462       -21.0470
  34   2.0000      -0.710128       -19.3236
  35   2.0000      -0.701157       -19.0795
  36   2.0000      -0.692647       -18.8479
  37   2.0000      -0.668956       -18.2032
  38   2.0000      -0.640452       -17.4276
  39   2.0000      -0.620602       -16.8874
  40   2.0000      -0.603022       -16.4091
  41   2.0000      -0.576694       -15.6927
  42   2.0000      -0.563818       -15.3423
  43   2.0000      -0.554202       -15.0806
  44   2.0000      -0.530611       -14.4387
  45   2.0000      -0.528399       -14.3785
  46   2.0000      -0.518007       -14.0957
  47   2.0000      -0.508429       -13.8350
  48   2.0000      -0.506356       -13.7787
  49   2.0000      -0.503139       -13.6911
  50   2.0000      -0.496823       -13.5192
  51   2.0000      -0.480278       -13.0690
  52   2.0000      -0.472118       -12.8470
  53   2.0000      -0.468815       -12.7571
  54   2.0000      -0.457885       -12.4597
  55   2.0000      -0.453767       -12.3476
  56   2.0000      -0.445350       -12.1186
  57   2.0000      -0.439132       -11.9494
  58   2.0000      -0.434668       -11.8279
  59   2.0000      -0.428661       -11.6645
  60   2.0000      -0.418403       -11.3853
  61   2.0000      -0.412698       -11.2301
  62   2.0000      -0.410382       -11.1671
  63   2.0000      -0.355804        -9.6819
  64   2.0000      -0.333615        -9.0781
  65   2.0000      -0.326172        -8.8756
  66   2.0000      -0.285981        -7.7819
  67   0.0000       0.024106         0.6560
  68   0.0000       0.074980         2.0403
  69   0.0000       0.100302         2.7294
  70   0.0000       0.120321         3.2741
  71   0.0000       0.123720         3.3666

MULLIKEN ATOMIC CHARGES
-----------------------
   0 S :    0.101347
   1 C :   -0.117773
   2 C :   -0.035083
   3 C :   -0.031955
   4 C :   -0.110929
   5 H :    0.020885
   6 C :    0.089808
   7 H :   -0.003170
   8 H :    0.044251
   9 C :   -0.113222
  10 H :    0.044158
  11 H :    0.028408
  12 C :   -0.024621
  13 H :    0.015255
  14 H :    0.029800
  15 H :    0.040242
  16 S :    0.094956
  17 C :   -0.101687
  18 C :   -0.024983
  19 C :   -0.060237
  20 C :   -0.136265
  21 H :    0.030551
  22 C :    0.038038
  23 H :    0.026869
  24 H :    0.021929
  25 C :   -0.027231
  26 H :    0.011183
  27 H :    0.023290
  28 C :   -0.070513
  29 H :    0.020414
  30 H :    0.029960
  31 H :    0.040830
  32 H :    0.025785
  33 H :    0.079711
Sum of atomic charges:    0.0000000

LOEWDIN ATOMIC CHARGES
----------------------
   0 S :    0.375551
   1 C :   -0.171754
   2 C :   -0.056260
   3 C :   -0.072312
   4 C :   -0.179850
   5 H :    0.036700
   6 C :   -0.038533
   7 H :    0.026720
   8 H :    0.040660
   9 C :   -0.039211
  10 H :    0.031899
  11 H :    0.019882
  12 C :   -0.064677
  13 H :    0.020182
  14 H :    0.024779
  15 H :    0.031111
  16 S :    0.435066
  17 C :   -0.199833
  18 C :   -0.072534
  19 C :   -0.061464
  20 C :   -0.209902
  21 H :    0.037809
  22 C :   -0.042175
  23 H :    0.030929
  24 H :    0.034686
  25 C :   -0.048547
  26 H :    0.026904
  27 H :    0.018757
  28 C :   -0.069088
  29 H :    0.026282
  30 H :    0.025909
  31 H :    0.027296
  32 H :    0.012828
  33 H :    0.042189

  Mayer bond orders larger than 0.100000
B(  0-S ,  1-C ) :   1.1110 B(  0-S ,  4-C ) :   1.1387 B(  1-C ,  2-C ) :   1.6273
B(  1-C , 32-H ) :   0.9751 B(  2-C ,  3-C ) :   1.2062 B(  2-C ,  6-C ) :   1.0333
B(  3-C ,  4-C ) :   1.5894 B(  3-C ,  5-H ) :   0.9809 B(  4-C , 20-C ) :   1.0641
B(  6-C ,  7-H ) :   0.9261 B(  6-C ,  8-H ) :   0.9355 B(  6-C ,  9-C ) :   1.0415
B(  9-C , 10-H ) :   0.9637 B(  9-C , 11-H ) :   0.9582 B(  9-C , 12-C ) :   1.0846
B( 12-C , 13-H ) :   0.9732 B( 12-C , 14-H ) :   0.9750 B( 12-C , 15-H ) :   0.9758
B( 16-S , 17-C ) :   1.1717 B( 16-S , 20-C ) :   1.1449 B( 17-C , 18-C ) :   1.5689
B( 17-C , 33-H ) :   0.9647 B( 18-C , 19-C ) :   1.2556 B( 18-C , 21-H ) :   0.9875
B( 19-C , 20-C ) :   1.5632 B( 19-C , 22-C ) :   1.0718 B( 22-C , 23-H ) :   0.9258
B( 22-C , 24-H ) :   0.9123 B( 22-C , 25-C ) :   1.1002 B( 25-C , 26-H ) :   0.9436
B( 25-C , 27-H ) :   0.9482 B( 25-C , 28-C ) :   1.0726 B( 28-C , 29-H ) :   0.9713
B( 28-C , 30-H ) :   0.9778 B( 28-C , 31-H ) :   0.9740

Dispersion correction           -0.013943553
FINAL SINGLE POINT ENERGY     -1339.868125281040

DIPOLE MOMENT
-------------
                                X             Y             Z
Electronic contribution:     -8.79301     -31.96772      -6.11642
Nuclear contribution   :      8.91494      32.68897       6.09365
                        -----------------------------------------
Total Dipole Moment    :      0.12193       0.72126      -0.02277
                        -----------------------------------------
Magnitude (a.u.)       :      0.73184
Magnitude (Debye)      :      1.86020

Rotational constants in cm-1:     0.016697     0.009767     0.006583
Rotational constants in MHz :   500.570317   292.797161   197.340246

                             ****ORCA TERMINATED NORMALLY****
TOTAL RUN TIME: 0 days 0 hours 0 minutes 34 seconds 724 msec
