                         Program Version 4.2.1 -  RELEASE  -
|  1> ! wB97X-D3 SP def2-SVP
|  2> %pal
|  3> nprocs 16
|  4> end
|  5>
|  6> * xyz 0 1
|  7> S 	 -35.1961 	 69.2337 	 144.007
|  8> C 	 -35.8419 	 69.1622 	 142.338
|  9> C 	 -35.1938 	 68.1479 	 141.623
| 10> C 	 -34.3962 	 67.281 	 142.455
| 11> C 	 -34.3086 	 67.6687 	 143.811
| 12> H 	 -33.8525 	 66.3977 	 142.023
| 13> C 	 -35.3961 	 68.0169 	 140.189
| 14> H 	 -34.3296 	 67.9552 	 139.824
| 15> H 	 -35.7532 	 68.8814 	 139.755
| 16> C 	 -36.2667 	 66.8036 	 139.661
| 17> H 	 -37.3432 	 66.8679 	 139.903
| 18> H 	 -36.2539 	 66.7275 	 138.581
| 19> C 	 -35.719 	 65.3953 	 140.202
| 20> H 	 -36.3458 	 64.5488 	 139.785
| 21> H 	 -34.652 	 65.2057 	 139.993
| 22> H 	 -35.9149 	 65.2733 	 141.266
| 23> S 	 -31.9789 	 67.9378 	 145.266
| 24> C 	 -31.4181 	 66.6386 	 146.436
| 25> C 	 -32.3641 	 65.6288 	 146.407
| 26> C 	 -33.4735 	 65.8459 	 145.507
| 27> C 	 -33.4873 	 67.0807 	 144.849
| 28> H 	 -32.1188 	 64.8299 	 147.08
| 29> C 	 -34.5699 	 64.7693 	 145.306
| 30> H 	 -35.4288 	 65.1841 	 144.726
| 31> H 	 -34.8872 	 64.5484 	 146.3
| 32> C 	 -34.1202 	 63.4484 	 144.727
| 33> H 	 -34.835 	 62.585 	 144.751
| 34> H 	 -33.3283 	 63.0535 	 145.289
| 35> C 	 -33.6399 	 63.4781 	 143.264
| 36> H 	 -34.4191 	 63.6931 	 142.546
| 37> H 	 -33.2439 	 62.5002 	 143.067
| 38> H 	 -32.9112 	 64.2914 	 143.218
| 39> H 	 -36.2817 	 69.9845 	 141.792
| 40> H 	 -30.4599 	 66.7784 	 146.976
| 41> *
| 42>
| 43>                          ****END OF INPUT****

CARTESIAN COORDINATES (ANGSTROEM)
---------------------------------
  S    -35.196100   69.233700  144.007000
  C    -35.841900   69.162200  142.338000
  C    -35.193800   68.147900  141.623000
  C    -34.396200   67.281000  142.455000
  C    -34.308600   67.668700  143.811000
  H    -33.852500   66.397700  142.023000
  C    -35.396100   68.016900  140.189000
  H    -34.329600   67.955200  139.824000
  H    -35.753200   68.881400  139.755000
  C    -36.266700   66.803600  139.661000
  H    -37.343200   66.867900  139.903000
  H    -36.253900   66.727500  138.581000
  C    -35.719000   65.395300  140.202000
  H    -36.345800   64.548800  139.785000
  H    -34.652000   65.205700  139.993000
  H    -35.914900   65.273300  141.266000
  S    -31.978900   67.937800  145.266000
  C    -31.418100   66.638600  146.436000
  C    -32.364100   65.628800  146.407000
  C    -33.473500   65.845900  145.507000
  C    -33.487300   67.080700  144.849000
  H    -32.118800   64.829900  147.080000
  C    -34.569900   64.769300  145.306000
  H    -35.428800   65.184100  144.726000
  H    -34.887200   64.548400  146.300000
  C    -34.120200   63.448400  144.727000
  H    -34.835000   62.585000  144.751000
  H    -33.328300   63.053500  145.289000
  C    -33.639900   63.478100  143.264000
  H    -34.419100   63.693100  142.546000
  H    -33.243900   62.500200  143.067000
  H    -32.911200   64.291400  143.218000
  H    -36.281700   69.984500  141.792000
  H    -30.459900   66.778400  146.976000

 Total Charge           Charge          ....    0
 Multiplicity           Mult            ....    1
 Number of Electrons    NEL             ....  134
 Basis Dimension        Dim             ....  322

ORBITAL ENERGIES
----------------

  NO   OCC          E(Eh)            E(eV)
   0   2.0000     -88.967299     -2420.9233
   1   2.0000     -88.959281     -2420.7051
   2   2.0000     -10.341541      -281.4076
   3   2.0000     -10.334553      -281.2175
   4   2.0000     -10.332661      -281.1660
   5   2.0000     -10.318113      -280.7701
   6   2.0000     -10.315448      -280.6976
   7   2.0000     -10.307019      -280.4682
   8   2.0000     -10.303389      -280.3695
   9   2.0000     -10.302653      -280.3495
  10   2.0000     -10.299765      -280.2709
  11   2.0000     -10.292882      -280.0835
  12   2.0000     -10.291663      -280.0504
  13   2.0000     -10.287667      -279.9417
  14   2.0000     -10.281676      -279.7786
  15   2.0000     -10.271230      -279.4944
  16   2.0000      -8.080275      -219.8755
  17   2.0000      -8.072821      -219.6726
  18   2.0000      -6.038920      -164.3274
  19   2.0000      -6.035084      -164.2230
  20   2.0000      -6.031496      -164.1254
  21   2.0000      -6.030909      -164.1094
  22   2.0000      -6.027425      -164.0146
  23   2.0000      -6.023512      -163.9081
  24   2.0000      -0.994617       -27.0649
  25   2.0000      -0.973611       -26.4933
  26   2.0000      -0.909107       -24.7381
  27   2.0000      -0.905923       -24.6514
  28   2.0000      -0.867450       -23.6045
  29   2.0000      -0.840799       -22.8793
  30   2.0000      -0.837265       -22.7831
  31   2.0000      -0.818333       -22.2680
  32   2.0000      -0.781603       -21.2685
  33   2.0000      -0.771813       -21.0021
  34   2.0000      -0.710804       -19.3420
  35   2.0000      -0.706027       -19.2120
  36   2.0000      -0.693408       -18.8686
  37   2.0000      -0.657393       -17.8886
  38   2.0000      -0.635618       -17.2960
  39   2.0000      -0.617227       -16.7956
  40   2.0000      -0.593196       -16.1417
  41   2.0000      -0.568070       -15.4580
  42   2.0000      -0.558608       -15.2005
  43   2.0000      -0.550833       -14.9889
  44   2.0000      -0.538272       -14.6471
  45   2.0000      -0.533407       -14.5147
  46   2.0000      -0.524858       -14.2821
  47   2.0000      -0.516147       -14.0451
  48   2.0000      -0.504784       -13.7359
  49   2.0000      -0.498468       -13.5640
  50   2.0000      -0.490106       -13.3365
  51   2.0000      -0.473758       -12.8916
  52   2.0000      -0.470250       -12.7962
  53   2.0000      -0.460455       -12.5296
  54   2.0000      -0.455497       -12.3947
  55   2.0000      -0.446545       -12.1511
  56   2.0000      -0.440207       -11.9787
  57   2.0000      -0.435165       -11.8414
  58   2.0000      -0.429706       -11.6929
  59   2.0000      -0.425797       -11.5865
  60   2.0000      -0.420778       -11.4499
  61   2.0000      -0.411350       -11.1934
  62   2.0000      -0.401381       -10.9221
  63   2.0000      -0.341604        -9.2955
  64   2.0000      -0.326565        -8.8863
  65   2.0000      -0.322905        -8.7867
  66   2.0000      -0.304018        -8.2727
  67   0.0000       0.025706         0.6995
  68   0.0000       0.051170         1.3924
  69   0.0000       0.104409         2.8411
  70   0.0000       0.115590         3.1454
  71   0.0000       0.122920         3.3448

MULLIKEN ATOMIC CHARGES
-----------------------
   0 S :    0.097730
   1 C :   -0.096978
   2 C :   -0.131799
   3 C :    0.047509
   4 C :   -0.164253
   5 H :    0.030153
   6 C :    0.084466
   7 H :    0.040804
   8 H :   -0.003678
   9 C :   -0.052415
  10 H :    0.038644
  11 H :    0.033597
  12 C :   -0.129970
  13 H :    0.038413
  14 H :    0.048259
  15 H :    0.053932
  16 S :    0.065982
  17 C :   -0.127557
  18 C :   -0.022625
  19 C :   -0.041832
  20 C :   -0.142736
  21 H :    0.026730
  22 C :    0.112498
  23 H :    0.040228
  24 H :    0.020698
  25 C :   -0.088755
  26 H :    0.027630
  27 H :    0.007856
  28 C :   -0.048522
  29 H :    0.024236
  30 H :    0.028725
  31 H :    0.040673
  32 H :    0.056023
  33 H :    0.086331
Sum of atomic charges:   -0.0000000

LOEWDIN ATOMIC CHARGES
----------------------
   0 S :    0.371941
   1 C :   -0.188044
   2 C :   -0.064785
   3 C :   -0.054510
   4 C :   -0.184434
   5 H :    0.040746
   6 C :   -0.033447
   7 H :    0.044830
   8 H :    0.018593
   9 C :   -0.031174
  10 H :    0.029207
  11 H :    0.023040
  12 C :   -0.080401
  13 H :    0.032646
  14 H :    0.024400
  15 H :    0.022302
  16 S :    0.351472
  17 C :   -0.154376
  18 C :   -0.075018
  19 C :   -0.050473
  20 C :   -0.191733
  21 H :    0.034248
  22 C :   -0.027473
  23 H :    0.036461
  24 H :    0.030790
  25 C :   -0.044768
  26 H :    0.028698
  27 H :    0.013950
  28 C :   -0.061106
  29 H :    0.019276
  30 H :    0.024629
  31 H :    0.023328
  32 H :    0.030337
  33 H :    0.040849

  Mayer bond orders larger than 0.100000
B(  0-S ,  1-C ) :   1.1271 B(  0-S ,  4-C ) :   1.1342 B(  1-C ,  2-C ) :   1.6107
B(  1-C ,  4-C ) :   0.1022 B(  1-C , 32-H ) :   0.9603 B(  2-C ,  3-C ) :   1.2394
B(  2-C ,  6-C ) :   1.0440 B(  3-C ,  4-C ) :   1.5607 B(  3-C ,  5-H ) :   0.9787
B(  4-C , 20-C ) :   1.0476 B(  6-C ,  7-H ) :   0.9353 B(  6-C ,  8-H ) :   0.9347
B(  6-C ,  9-C ) :   1.0551 B(  9-C , 10-H ) :   0.9569 B(  9-C , 11-H ) :   0.9590
B(  9-C , 12-C ) :   1.0745 B( 12-C , 13-H ) :   0.9718 B( 12-C , 14-H ) :   0.9752
B( 12-C , 15-H ) :   0.9671 B( 16-S , 17-C ) :   1.1395 B( 16-S , 20-C ) :   1.1276
B( 17-C , 18-C ) :   1.6183 B( 17-C , 20-C ) :   0.1021 B( 17-C , 33-H ) :   0.9658
B( 18-C , 19-C ) :   1.1976 B( 18-C , 21-H ) :   0.9962 B( 19-C , 20-C ) :   1.6095
B( 19-C , 22-C ) :   1.0371 B( 22-C , 23-H ) :   0.9419 B( 22-C , 24-H ) :   0.9269
B( 22-C , 25-C ) :   1.0731 B( 25-C , 26-H ) :   0.9551 B( 25-C , 27-H ) :   0.9527
B( 25-C , 28-C ) :   1.0796 B( 28-C , 29-H ) :   0.9747 B( 28-C , 30-H ) :   0.9698
B( 28-C , 31-H ) :   0.9742

Dispersion correction           -0.015943949
FINAL SINGLE POINT ENERGY     -1339.861653621657

DIPOLE MOMENT
-------------
                                X             Y             Z
Electronic contribution:      7.46188      22.60710      16.82486
Nuclear contribution   :     -7.43181     -23.19063     -17.20291
                        -----------------------------------------
Total Dipole Moment    :      0.03007      -0.58353      -0.37805
                        -----------------------------------------
Magnitude (a.u.)       :      0.69594
Magnitude (Debye)      :      1.76893

Rotational constants in cm-1:     0.018147     0.010108     0.007326
Rotational constants in MHz :   544.038682   303.039421   219.636388

                             ****ORCA TERMINATED NORMALLY****
TOTAL RUN TIME: 0 days 0 hours 0 minutes 37 seconds 7 msec
