                         Program Version 4.2.1 -  RELEASE  -
|  1> ! wB97X-D3 SP def2-SVP
|  2> %pal
|  3> nprocs 16
|  4> end
|  5>
|  6> * xyz 0 1
|  7> S 	 -74.8293 	 45.1282 	 123.079
|  8> C 	 -75.8793 	 43.6841 	 123.266
|  9> C 	 -76.8774 	 43.5319 	 122.333
| 10> C 	 -76.8309 	 44.643 	 121.461
| 11> C 	 -75.7494 	 45.5115 	 121.548
| 12> H 	 -77.5084 	 44.7185 	 120.657
| 13> C 	 -78.0818 	 42.5985 	 122.264
| 14> H 	 -78.7287 	 42.8361 	 121.352
| 15> H 	 -78.6704 	 42.8482 	 123.128
| 16> C 	 -77.7027 	 41.0975 	 122.268
| 17> H 	 -77.343 	 40.871 	 121.251
| 18> H 	 -76.8579 	 41.0136 	 122.988
| 19> C 	 -78.9656 	 40.2412 	 122.614
| 20> H 	 -78.7467 	 39.1799 	 122.79
| 21> H 	 -79.6124 	 40.5495 	 123.454
| 22> H 	 -79.5362 	 40.2746 	 121.729
| 23> S 	 -74.5802 	 48.0254 	 121.27
| 24> C 	 -74.4171 	 48.7873 	 119.71
| 25> C 	 -74.706 	 47.8486 	 118.757
| 26> C 	 -75.3051 	 46.6646 	 119.202
| 27> C 	 -75.3032 	 46.5836 	 120.595
| 28> H 	 -74.5986 	 48.1158 	 117.708
| 29> C 	 -75.617 	 45.573 	 118.234
| 30> H 	 -75.7832 	 46.0315 	 117.301
| 31> H 	 -76.5013 	 45.1074 	 118.58
| 32> C 	 -74.4175 	 44.6369 	 118.039
| 33> H 	 -74.329 	 44.0906 	 118.978
| 34> H 	 -73.4381 	 45.0559 	 117.877
| 35> C 	 -74.5431 	 43.6003 	 116.823
| 36> H 	 -73.7867 	 42.7766 	 116.908
| 37> H 	 -74.4097 	 44.0925 	 115.875
| 38> H 	 -75.4485 	 43.0471 	 116.757
| 39> H 	 -75.7373 	 42.924 	 124.1
| 40> H 	 -74.0085 	 49.7383 	 119.428
| 41> *
| 42>
| 43>                          ****END OF INPUT****

CARTESIAN COORDINATES (ANGSTROEM)
---------------------------------
  S    -74.829300   45.128200  123.079000
  C    -75.879300   43.684100  123.266000
  C    -76.877400   43.531900  122.333000
  C    -76.830900   44.643000  121.461000
  C    -75.749400   45.511500  121.548000
  H    -77.508400   44.718500  120.657000
  C    -78.081800   42.598500  122.264000
  H    -78.728700   42.836100  121.352000
  H    -78.670400   42.848200  123.128000
  C    -77.702700   41.097500  122.268000
  H    -77.343000   40.871000  121.251000
  H    -76.857900   41.013600  122.988000
  C    -78.965600   40.241200  122.614000
  H    -78.746700   39.179900  122.790000
  H    -79.612400   40.549500  123.454000
  H    -79.536200   40.274600  121.729000
  S    -74.580200   48.025400  121.270000
  C    -74.417100   48.787300  119.710000
  C    -74.706000   47.848600  118.757000
  C    -75.305100   46.664600  119.202000
  C    -75.303200   46.583600  120.595000
  H    -74.598600   48.115800  117.708000
  C    -75.617000   45.573000  118.234000
  H    -75.783200   46.031500  117.301000
  H    -76.501300   45.107400  118.580000
  C    -74.417500   44.636900  118.039000
  H    -74.329000   44.090600  118.978000
  H    -73.438100   45.055900  117.877000
  C    -74.543100   43.600300  116.823000
  H    -73.786700   42.776600  116.908000
  H    -74.409700   44.092500  115.875000
  H    -75.448500   43.047100  116.757000
  H    -75.737300   42.924000  124.100000
  H    -74.008500   49.738300  119.428000

 Total Charge           Charge          ....    0
 Multiplicity           Mult            ....    1
 Number of Electrons    NEL             ....  134
 Basis Dimension        Dim             ....  322

ORBITAL ENERGIES
----------------

  NO   OCC          E(Eh)            E(eV)
   0   2.0000     -88.970137     -2421.0005
   1   2.0000     -88.965814     -2420.8829
   2   2.0000     -10.340571      -281.3813
   3   2.0000     -10.332547      -281.1629
   4   2.0000     -10.323270      -280.9104
   5   2.0000     -10.314891      -280.6824
   6   2.0000     -10.301156      -280.3087
   7   2.0000     -10.301079      -280.3066
   8   2.0000     -10.298849      -280.2459
   9   2.0000     -10.297982      -280.2223
  10   2.0000     -10.290652      -280.0229
  11   2.0000     -10.287770      -279.9444
  12   2.0000     -10.287227      -279.9297
  13   2.0000     -10.284609      -279.8584
  14   2.0000     -10.282015      -279.7879
  15   2.0000     -10.278348      -279.6881
  16   2.0000      -8.082910      -219.9472
  17   2.0000      -8.080616      -219.8847
  18   2.0000      -6.041646      -164.4015
  19   2.0000      -6.039172      -164.3342
  20   2.0000      -6.037905      -164.2998
  21   2.0000      -6.035061      -164.2224
  22   2.0000      -6.033341      -164.1756
  23   2.0000      -6.031370      -164.1219
  24   2.0000      -1.004955       -27.3462
  25   2.0000      -0.981539       -26.7090
  26   2.0000      -0.909960       -24.7613
  27   2.0000      -0.908660       -24.7259
  28   2.0000      -0.864856       -23.5339
  29   2.0000      -0.848064       -23.0770
  30   2.0000      -0.844061       -22.9681
  31   2.0000      -0.812524       -22.1099
  32   2.0000      -0.783151       -21.3106
  33   2.0000      -0.774009       -21.0619
  34   2.0000      -0.710598       -19.3364
  35   2.0000      -0.706113       -19.2143
  36   2.0000      -0.694366       -18.8947
  37   2.0000      -0.664456       -18.0808
  38   2.0000      -0.632364       -17.2075
  39   2.0000      -0.621600       -16.9146
  40   2.0000      -0.594466       -16.1762
  41   2.0000      -0.574975       -15.6459
  42   2.0000      -0.564694       -15.3661
  43   2.0000      -0.556054       -15.1310
  44   2.0000      -0.525416       -14.2973
  45   2.0000      -0.516994       -14.0681
  46   2.0000      -0.515212       -14.0196
  47   2.0000      -0.512123       -13.9356
  48   2.0000      -0.507264       -13.8034
  49   2.0000      -0.495556       -13.4848
  50   2.0000      -0.485982       -13.2242
  51   2.0000      -0.483560       -13.1583
  52   2.0000      -0.475435       -12.9372
  53   2.0000      -0.464017       -12.6265
  54   2.0000      -0.460950       -12.5431
  55   2.0000      -0.445638       -12.1264
  56   2.0000      -0.443740       -12.0748
  57   2.0000      -0.440006       -11.9732
  58   2.0000      -0.436377       -11.8744
  59   2.0000      -0.427453       -11.6316
  60   2.0000      -0.420838       -11.4516
  61   2.0000      -0.418397       -11.3852
  62   2.0000      -0.415117       -11.2959
  63   2.0000      -0.352469        -9.5912
  64   2.0000      -0.336131        -9.1466
  65   2.0000      -0.329583        -8.9684
  66   2.0000      -0.285200        -7.7607
  67   0.0000       0.021599         0.5877
  68   0.0000       0.068472         1.8632
  69   0.0000       0.096724         2.6320
  70   0.0000       0.126115         3.4318
  71   0.0000       0.133502         3.6328

MULLIKEN ATOMIC CHARGES
-----------------------
   0 S :    0.097894
   1 C :   -0.155312
   2 C :   -0.057180
   3 C :    0.011331
   4 C :   -0.110793
   5 H :   -0.010118
   6 C :    0.027451
   7 H :    0.037912
   8 H :    0.043712
   9 C :   -0.089995
  10 H :    0.041299
  11 H :    0.037002
  12 C :   -0.043121
  13 H :    0.037112
  14 H :    0.039722
  15 H :    0.021531
  16 S :    0.098176
  17 C :   -0.070306
  18 C :   -0.055858
  19 C :   -0.066236
  20 C :   -0.149463
  21 H :    0.016542
  22 C :    0.159580
  23 H :   -0.003229
  24 H :    0.006611
  25 C :   -0.071368
  26 H :    0.033257
  27 H :    0.031792
  28 C :   -0.060353
  29 H :    0.035880
  30 H :    0.031120
  31 H :    0.018747
  32 H :    0.066930
  33 H :    0.049731
Sum of atomic charges:    0.0000000

LOEWDIN ATOMIC CHARGES
----------------------
   0 S :    0.355083
   1 C :   -0.188681
   2 C :   -0.069218
   3 C :   -0.060922
   4 C :   -0.163410
   5 H :    0.018286
   6 C :   -0.029369
   7 H :    0.035741
   8 H :    0.032291
   9 C :   -0.036358
  10 H :    0.030080
  11 H :    0.023271
  12 C :   -0.069037
  13 H :    0.028171
  14 H :    0.028984
  15 H :    0.021247
  16 S :    0.409704
  17 C :   -0.186502
  18 C :   -0.072542
  19 C :   -0.058844
  20 C :   -0.195828
  21 H :    0.030397
  22 C :   -0.020049
  23 H :    0.022649
  24 H :    0.025117
  25 C :   -0.030791
  26 H :    0.027021
  27 H :    0.026377
  28 C :   -0.070162
  29 H :    0.032639
  30 H :    0.020333
  31 H :    0.016156
  32 H :    0.036102
  33 H :    0.032066

  Mayer bond orders larger than 0.100000
B(  0-S ,  1-C ) :   1.1266 B(  0-S ,  4-C ) :   1.1151 B(  1-C ,  2-C ) :   1.6403
B(  1-C , 32-H ) :   0.9492 B(  2-C ,  3-C ) :   1.2398 B(  2-C ,  6-C ) :   0.9995
B(  3-C ,  4-C ) :   1.6014 B(  3-C ,  5-H ) :   0.9919 B(  4-C , 20-C ) :   1.0431
B(  6-C ,  7-H ) :   0.9485 B(  6-C ,  8-H ) :   0.9446 B(  6-C ,  9-C ) :   1.0438
B(  9-C , 10-H ) :   0.9590 B(  9-C , 11-H ) :   0.9661 B(  9-C , 12-C ) :   1.0632
B( 12-C , 13-H ) :   0.9761 B( 12-C , 14-H ) :   0.9794 B( 12-C , 15-H ) :   0.9740
B( 16-S , 17-C ) :   1.1526 B( 16-S , 20-C ) :   1.1496 B( 17-C , 18-C ) :   1.6004
B( 17-C , 20-C ) :   0.1032 B( 17-C , 33-H ) :   0.9692 B( 18-C , 19-C ) :   1.2765
B( 18-C , 21-H ) :   0.9821 B( 19-C , 20-C ) :   1.5543 B( 19-C , 22-C ) :   1.0576
B( 22-C , 23-H ) :   0.9221 B( 22-C , 24-H ) :   0.9222 B( 22-C , 25-C ) :   1.0585
B( 25-C , 26-H ) :   0.9579 B( 25-C , 27-H ) :   0.9609 B( 25-C , 28-C ) :   1.0691
B( 28-C , 29-H ) :   0.9767 B( 28-C , 30-H ) :   0.9791 B( 28-C , 31-H ) :   0.9782

Dispersion correction           -0.013666448
FINAL SINGLE POINT ENERGY     -1339.865021658755

DIPOLE MOMENT
-------------
                                X             Y             Z
Electronic contribution:     11.12667      25.65343      13.95873
Nuclear contribution   :    -11.46857     -26.11737     -14.48914
                        -----------------------------------------
Total Dipole Moment    :     -0.34190      -0.46394      -0.53041
                        -----------------------------------------
Magnitude (a.u.)       :      0.78324
Magnitude (Debye)      :      1.99084

Rotational constants in cm-1:     0.018965     0.008025     0.006193
Rotational constants in MHz :   568.556654   240.574705   185.653323

                             ****ORCA TERMINATED NORMALLY****
TOTAL RUN TIME: 0 days 0 hours 0 minutes 33 seconds 514 msec
