                         Program Version 4.2.1 -  RELEASE  -
|  1> ! wB97X-D3 SP def2-SVP
|  2> %pal
|  3> nprocs 16
|  4> end
|  5>
|  6> * xyz 0 1
|  7> S 	 -101.863 	 57.102 	 117.144
|  8> C 	 -100.664 	 55.8394 	 117.659
|  9> C 	 -100.501 	 54.8034 	 116.684
| 10> C 	 -101.419 	 54.9711 	 115.57
| 11> C 	 -102.181 	 56.1432 	 115.672
| 12> H 	 -101.5 	 54.2983 	 114.722
| 13> C 	 -99.499 	 53.6743 	 116.753
| 14> H 	 -98.679 	 53.9144 	 117.435
| 15> H 	 -98.9305 	 53.4454 	 115.784
| 16> C 	 -100.094 	 52.2901 	 117.264
| 17> H 	 -99.3277 	 51.6456 	 117.594
| 18> H 	 -100.644 	 52.5009 	 118.227
| 19> C 	 -100.958 	 51.5353 	 116.3
| 20> H 	 -101.762 	 52.2095 	 115.961
| 21> H 	 -100.295 	 51.2706 	 115.483
| 22> H 	 -101.411 	 50.6407 	 116.705
| 23> S 	 -102.674 	 58.2944 	 113.984
| 24> C 	 -104.188 	 58.2668 	 113.143
| 25> C 	 -104.896 	 57.0568 	 113.2
| 26> C 	 -104.244 	 56.1707 	 114.044
| 27> C 	 -103.049 	 56.669 	 114.607
| 28> H 	 -105.817 	 56.9943 	 112.683
| 29> C 	 -104.912 	 54.8732 	 114.403
| 30> H 	 -105.699 	 55.203 	 115.05
| 31> H 	 -104.097 	 54.3289 	 114.883
| 32> C 	 -105.553 	 54.0353 	 113.198
| 33> H 	 -106.252 	 54.7254 	 112.711
| 34> H 	 -106.215 	 53.1733 	 113.604
| 35> C 	 -104.542 	 53.57 	 112.183
| 36> H 	 -103.651 	 53.2273 	 112.599
| 37> H 	 -104.333 	 54.4828 	 111.648
| 38> H 	 -104.925 	 52.7982 	 111.466
| 39> H 	 -100.155 	 55.916 	 118.611
| 40> H 	 -104.646 	 59.081 	 112.664
| 41> *
| 42>
| 43>                          ****END OF INPUT****

CARTESIAN COORDINATES (ANGSTROEM)
---------------------------------
  S    -101.863000   57.102000  117.144000
  C    -100.664000   55.839400  117.659000
  C    -100.501000   54.803400  116.684000
  C    -101.419000   54.971100  115.570000
  C    -102.181000   56.143200  115.672000
  H    -101.500000   54.298300  114.722000
  C    -99.499000   53.674300  116.753000
  H    -98.679000   53.914400  117.435000
  H    -98.930500   53.445400  115.784000
  C    -100.094000   52.290100  117.264000
  H    -99.327700   51.645600  117.594000
  H    -100.644000   52.500900  118.227000
  C    -100.958000   51.535300  116.300000
  H    -101.762000   52.209500  115.961000
  H    -100.295000   51.270600  115.483000
  H    -101.411000   50.640700  116.705000
  S    -102.674000   58.294400  113.984000
  C    -104.188000   58.266800  113.143000
  C    -104.896000   57.056800  113.200000
  C    -104.244000   56.170700  114.044000
  C    -103.049000   56.669000  114.607000
  H    -105.817000   56.994300  112.683000
  C    -104.912000   54.873200  114.403000
  H    -105.699000   55.203000  115.050000
  H    -104.097000   54.328900  114.883000
  C    -105.553000   54.035300  113.198000
  H    -106.252000   54.725400  112.711000
  H    -106.215000   53.173300  113.604000
  C    -104.542000   53.570000  112.183000
  H    -103.651000   53.227300  112.599000
  H    -104.333000   54.482800  111.648000
  H    -104.925000   52.798200  111.466000
  H    -100.155000   55.916000  118.611000
  H    -104.646000   59.081000  112.664000

 Total Charge           Charge          ....    0
 Multiplicity           Mult            ....    1
 Number of Electrons    NEL             ....  134
 Basis Dimension        Dim             ....  322

ORBITAL ENERGIES
----------------

  NO   OCC          E(Eh)            E(eV)
   0   2.0000     -88.972204     -2421.0568
   1   2.0000     -88.969779     -2420.9908
   2   2.0000     -10.335780      -281.2509
   3   2.0000     -10.326435      -280.9966
   4   2.0000     -10.326140      -280.9886
   5   2.0000     -10.314734      -280.6782
   6   2.0000     -10.313340      -280.6403
   7   2.0000     -10.303845      -280.3819
   8   2.0000     -10.301567      -280.3199
   9   2.0000     -10.301004      -280.3046
  10   2.0000     -10.296957      -280.1945
  11   2.0000     -10.289109      -279.9809
  12   2.0000     -10.287807      -279.9455
  13   2.0000     -10.285617      -279.8859
  14   2.0000     -10.275392      -279.6076
  15   2.0000     -10.271896      -279.5125
  16   2.0000      -8.085106      -220.0069
  17   2.0000      -8.084105      -219.9797
  18   2.0000      -6.043679      -164.4569
  19   2.0000      -6.042405      -164.4222
  20   2.0000      -6.039974      -164.3560
  21   2.0000      -6.038753      -164.3228
  22   2.0000      -6.035803      -164.2426
  23   2.0000      -6.035039      -164.2218
  24   2.0000      -0.999520       -27.1983
  25   2.0000      -0.972759       -26.4701
  26   2.0000      -0.908115       -24.7111
  27   2.0000      -0.905621       -24.6432
  28   2.0000      -0.863483       -23.4966
  29   2.0000      -0.854639       -23.2559
  30   2.0000      -0.845491       -23.0070
  31   2.0000      -0.812568       -22.1111
  32   2.0000      -0.783332       -21.3155
  33   2.0000      -0.766608       -20.8605
  34   2.0000      -0.702332       -19.1114
  35   2.0000      -0.697887       -18.9905
  36   2.0000      -0.693747       -18.8778
  37   2.0000      -0.657852       -17.9011
  38   2.0000      -0.640900       -17.4398
  39   2.0000      -0.616641       -16.7797
  40   2.0000      -0.588424       -16.0118
  41   2.0000      -0.570904       -15.5351
  42   2.0000      -0.557619       -15.1736
  43   2.0000      -0.547520       -14.8988
  44   2.0000      -0.544130       -14.8065
  45   2.0000      -0.536750       -14.6057
  46   2.0000      -0.520872       -14.1737
  47   2.0000      -0.508596       -13.8396
  48   2.0000      -0.499556       -13.5936
  49   2.0000      -0.497688       -13.5428
  50   2.0000      -0.489247       -13.3131
  51   2.0000      -0.476359       -12.9624
  52   2.0000      -0.470378       -12.7996
  53   2.0000      -0.459421       -12.5015
  54   2.0000      -0.453091       -12.3292
  55   2.0000      -0.449686       -12.2366
  56   2.0000      -0.445399       -12.1199
  57   2.0000      -0.443775       -12.0757
  58   2.0000      -0.432143       -11.7592
  59   2.0000      -0.425767       -11.5857
  60   2.0000      -0.420821       -11.4511
  61   2.0000      -0.415667       -11.3109
  62   2.0000      -0.408475       -11.1152
  63   2.0000      -0.340436        -9.2637
  64   2.0000      -0.333862        -9.0849
  65   2.0000      -0.328150        -8.9294
  66   2.0000      -0.287631        -7.8268
  67   0.0000       0.025709         0.6996
  68   0.0000       0.057297         1.5591
  69   0.0000       0.104665         2.8481
  70   0.0000       0.113668         3.0931
  71   0.0000       0.119525         3.2524

MULLIKEN ATOMIC CHARGES
-----------------------
   0 S :    0.109366
   1 C :   -0.129433
   2 C :   -0.056765
   3 C :    0.042059
   4 C :   -0.164059
   5 H :    0.023362
   6 C :    0.015945
   7 H :    0.025330
   8 H :    0.045241
   9 C :   -0.083432
  10 H :    0.017402
  11 H :    0.027060
  12 C :   -0.030760
  13 H :    0.032151
  14 H :    0.023955
  15 H :    0.037659
  16 S :    0.124274
  17 C :   -0.073090
  18 C :   -0.049320
  19 C :   -0.037493
  20 C :   -0.183358
  21 H :    0.010923
  22 C :    0.093365
  23 H :    0.044958
  24 H :    0.022565
  25 C :   -0.119021
  26 H :    0.024718
  27 H :    0.045185
  28 C :   -0.018580
  29 H :    0.016508
  30 H :    0.031085
  31 H :    0.044712
  32 H :    0.054720
  33 H :    0.032766
Sum of atomic charges:   -0.0000000

LOEWDIN ATOMIC CHARGES
----------------------
   0 S :    0.373489
   1 C :   -0.178852
   2 C :   -0.054741
   3 C :   -0.058549
   4 C :   -0.184149
   5 H :    0.032476
   6 C :   -0.039364
   7 H :    0.032343
   8 H :    0.039034
   9 C :   -0.042798
  10 H :    0.015051
  11 H :    0.026172
  12 C :   -0.065648
  13 H :    0.026023
  14 H :    0.023710
  15 H :    0.027505
  16 S :    0.409501
  17 C :   -0.174537
  18 C :   -0.073206
  19 C :   -0.054356
  20 C :   -0.206882
  21 H :    0.028628
  22 C :   -0.025807
  23 H :    0.036839
  24 H :    0.027328
  25 C :   -0.043163
  26 H :    0.018181
  27 H :    0.030968
  28 C :   -0.064687
  29 H :    0.013708
  30 H :    0.029425
  31 H :    0.034425
  32 H :    0.025612
  33 H :    0.016323

  Mayer bond orders larger than 0.100000
B(  0-S ,  1-C ) :   1.1248 B(  0-S ,  4-C ) :   1.1444 B(  1-C ,  2-C ) :   1.6080
B(  1-C , 32-H ) :   0.9692 B(  2-C ,  3-C ) :   1.2227 B(  2-C ,  6-C ) :   1.0324
B(  3-C ,  4-C ) :   1.5788 B(  3-C ,  5-H ) :   0.9846 B(  4-C , 20-C ) :   1.0408
B(  6-C ,  7-H ) :   0.9399 B(  6-C ,  8-H ) :   0.9481 B(  6-C ,  9-C ) :   1.0595
B(  9-C , 10-H ) :   0.9569 B(  9-C , 11-H ) :   0.9529 B(  9-C , 12-C ) :   1.0844
B( 12-C , 13-H ) :   0.9723 B( 12-C , 14-H ) :   0.9732 B( 12-C , 15-H ) :   0.9703
B( 16-S , 17-C ) :   1.1773 B( 16-S , 20-C ) :   1.1370 B( 17-C , 18-C ) :   1.5970
B( 17-C , 20-C ) :   0.1020 B( 17-C , 33-H ) :   0.9654 B( 18-C , 19-C ) :   1.2506
B( 18-C , 21-H ) :   0.9991 B( 19-C , 20-C ) :   1.5712 B( 19-C , 22-C ) :   1.0211
B( 22-C , 23-H ) :   0.9338 B( 22-C , 24-H ) :   0.9342 B( 22-C , 25-C ) :   1.0667
B( 25-C , 26-H ) :   0.9567 B( 25-C , 27-H ) :   0.9587 B( 25-C , 28-C ) :   1.0652
B( 28-C , 29-H ) :   0.9788 B( 28-C , 30-H ) :   0.9712 B( 28-C , 31-H ) :   0.9730

Dispersion correction           -0.014712071
FINAL SINGLE POINT ENERGY     -1339.865502972193

DIPOLE MOMENT
-------------
                                X             Y             Z
Electronic contribution:      2.45850      28.75606       4.81736
Nuclear contribution   :     -2.54530     -29.23574      -4.90076
                        -----------------------------------------
Total Dipole Moment    :     -0.08680      -0.47968      -0.08340
                        -----------------------------------------
Magnitude (a.u.)       :      0.49456
Magnitude (Debye)      :      1.25706

Rotational constants in cm-1:     0.017432     0.009627     0.006795
Rotational constants in MHz :   522.588146   288.616617   203.695774

                             ****ORCA TERMINATED NORMALLY****
TOTAL RUN TIME: 0 days 0 hours 0 minutes 35 seconds 985 msec
