                         Program Version 4.2.1 -  RELEASE  -
|  1> ! wB97X-D3 SP def2-SVP
|  2> %pal
|  3> nprocs 16
|  4> end
|  5>
|  6> * xyz 0 1
|  7> S 	 -43.5323 	 53.2309 	 104.385
|  8> C 	 -43.4106 	 54.4609 	 103.174
|  9> C 	 -42.168 	 54.9761 	 103.056
| 10> C 	 -41.4048 	 54.5503 	 104.19
| 11> C 	 -41.9257 	 53.5491 	 104.952
| 12> H 	 -40.3946 	 54.9506 	 104.356
| 13> C 	 -41.6481 	 55.9631 	 102.035
| 14> H 	 -42.268 	 55.8746 	 101.12
| 15> H 	 -40.6344 	 55.7346 	 101.804
| 16> C 	 -41.835 	 57.4564 	 102.38
| 17> H 	 -41.2599 	 57.5962 	 103.303
| 18> H 	 -41.2792 	 57.9391 	 101.552
| 19> C 	 -43.2811 	 57.865 	 102.462
| 20> H 	 -43.4023 	 58.9114 	 102.624
| 21> H 	 -43.7703 	 57.6697 	 101.48
| 22> H 	 -43.8733 	 57.4102 	 103.253
| 23> S 	 -42.5778 	 53.4325 	 107.512
| 24> C 	 -41.4929 	 52.8983 	 108.745
| 25> C 	 -40.2692 	 52.5225 	 108.213
| 26> C 	 -40.2513 	 52.6547 	 106.753
| 27> C 	 -41.4411 	 53.1847 	 106.278
| 28> H 	 -39.5058 	 52.2417 	 108.88
| 29> C 	 -39.1797 	 52.1719 	 105.861
| 30> H 	 -39.5033 	 52.3294 	 104.885
| 31> H 	 -39.0937 	 51.0781 	 106.042
| 32> C 	 -37.7836 	 52.8354 	 106.107
| 33> H 	 -37.487 	 52.5769 	 107.164
| 34> H 	 -37.9632 	 53.9133 	 106.239
| 35> C 	 -36.6861 	 52.4027 	 105.152
| 36> H 	 -36.3561 	 51.3571 	 105.319
| 37> H 	 -35.887 	 53.0461 	 105.174
| 38> H 	 -36.9455 	 52.4452 	 104.086
| 39> H 	 -44.1235 	 54.6055 	 102.391
| 40> H 	 -41.6044 	 52.9664 	 109.89
| 41> *
| 42>
| 43>                          ****END OF INPUT****

CARTESIAN COORDINATES (ANGSTROEM)
---------------------------------
  S    -43.532300   53.230900  104.385000
  C    -43.410600   54.460900  103.174000
  C    -42.168000   54.976100  103.056000
  C    -41.404800   54.550300  104.190000
  C    -41.925700   53.549100  104.952000
  H    -40.394600   54.950600  104.356000
  C    -41.648100   55.963100  102.035000
  H    -42.268000   55.874600  101.120000
  H    -40.634400   55.734600  101.804000
  C    -41.835000   57.456400  102.380000
  H    -41.259900   57.596200  103.303000
  H    -41.279200   57.939100  101.552000
  C    -43.281100   57.865000  102.462000
  H    -43.402300   58.911400  102.624000
  H    -43.770300   57.669700  101.480000
  H    -43.873300   57.410200  103.253000
  S    -42.577800   53.432500  107.512000
  C    -41.492900   52.898300  108.745000
  C    -40.269200   52.522500  108.213000
  C    -40.251300   52.654700  106.753000
  C    -41.441100   53.184700  106.278000
  H    -39.505800   52.241700  108.880000
  C    -39.179700   52.171900  105.861000
  H    -39.503300   52.329400  104.885000
  H    -39.093700   51.078100  106.042000
  C    -37.783600   52.835400  106.107000
  H    -37.487000   52.576900  107.164000
  H    -37.963200   53.913300  106.239000
  C    -36.686100   52.402700  105.152000
  H    -36.356100   51.357100  105.319000
  H    -35.887000   53.046100  105.174000
  H    -36.945500   52.445200  104.086000
  H    -44.123500   54.605500  102.391000
  H    -41.604400   52.966400  109.890000

 Total Charge           Charge          ....    0
 Multiplicity           Mult            ....    1
 Number of Electrons    NEL             ....  134
 Basis Dimension        Dim             ....  322

ORBITAL ENERGIES
----------------

  NO   OCC          E(Eh)            E(eV)
   0   2.0000     -88.965293     -2420.8687
   1   2.0000     -88.961539     -2420.7666
   2   2.0000     -10.324872      -280.9541
   3   2.0000     -10.320406      -280.8325
   4   2.0000     -10.318029      -280.7679
   5   2.0000     -10.308153      -280.4991
   6   2.0000     -10.300586      -280.2932
   7   2.0000     -10.295538      -280.1558
   8   2.0000     -10.292510      -280.0734
   9   2.0000     -10.291699      -280.0514
  10   2.0000     -10.291117      -280.0355
  11   2.0000     -10.291104      -280.0352
  12   2.0000     -10.290397      -280.0159
  13   2.0000     -10.282768      -279.8083
  14   2.0000     -10.277584      -279.6673
  15   2.0000     -10.275103      -279.5998
  16   2.0000      -8.080751      -219.8884
  17   2.0000      -8.077718      -219.8059
  18   2.0000      -6.039317      -164.3382
  19   2.0000      -6.036276      -164.2554
  20   2.0000      -6.035125      -164.2241
  21   2.0000      -6.031839      -164.1347
  22   2.0000      -6.031433      -164.1236
  23   2.0000      -6.028487      -164.0435
  24   2.0000      -1.016235       -27.6532
  25   2.0000      -0.990665       -26.9574
  26   2.0000      -0.917422       -24.9643
  27   2.0000      -0.908019       -24.7084
  28   2.0000      -0.873138       -23.7593
  29   2.0000      -0.852977       -23.2107
  30   2.0000      -0.846294       -23.0288
  31   2.0000      -0.817196       -22.2370
  32   2.0000      -0.787941       -21.4410
  33   2.0000      -0.774094       -21.0642
  34   2.0000      -0.709155       -19.2971
  35   2.0000      -0.699399       -19.0316
  36   2.0000      -0.694599       -18.9010
  37   2.0000      -0.658510       -17.9190
  38   2.0000      -0.637331       -17.3426
  39   2.0000      -0.624587       -16.9959
  40   2.0000      -0.591521       -16.0961
  41   2.0000      -0.574261       -15.6264
  42   2.0000      -0.561042       -15.2667
  43   2.0000      -0.556968       -15.1559
  44   2.0000      -0.544274       -14.8105
  45   2.0000      -0.526700       -14.3322
  46   2.0000      -0.522816       -14.2265
  47   2.0000      -0.505619       -13.7586
  48   2.0000      -0.500165       -13.6102
  49   2.0000      -0.494775       -13.4635
  50   2.0000      -0.489501       -13.3200
  51   2.0000      -0.487594       -13.2681
  52   2.0000      -0.473637       -12.8883
  53   2.0000      -0.468262       -12.7421
  54   2.0000      -0.456583       -12.4242
  55   2.0000      -0.450180       -12.2500
  56   2.0000      -0.446882       -12.1603
  57   2.0000      -0.439261       -11.9529
  58   2.0000      -0.432882       -11.7793
  59   2.0000      -0.427136       -11.6230
  60   2.0000      -0.420792       -11.4503
  61   2.0000      -0.419456       -11.4140
  62   2.0000      -0.410885       -11.1807
  63   2.0000      -0.350583        -9.5398
  64   2.0000      -0.329432        -8.9643
  65   2.0000      -0.324065        -8.8183
  66   2.0000      -0.295388        -8.0379
  67   0.0000       0.039726         1.0810
  68   0.0000       0.073501         2.0001
  69   0.0000       0.112767         3.0686
  70   0.0000       0.124899         3.3987
  71   0.0000       0.127149         3.4599

MULLIKEN ATOMIC CHARGES
-----------------------
   0 S :    0.110210
   1 C :   -0.107754
   2 C :   -0.093879
   3 C :    0.014252
   4 C :   -0.141318
   5 H :    0.013663
   6 C :    0.060358
   7 H :    0.013748
   8 H :    0.024135
   9 C :   -0.057872
  10 H :    0.028081
  11 H :    0.037397
  12 C :   -0.045760
  13 H :    0.028465
  14 H :    0.024589
  15 H :    0.047552
  16 S :    0.117152
  17 C :   -0.120586
  18 C :   -0.030854
  19 C :   -0.054537
  20 C :   -0.146204
  21 H :    0.004519
  22 C :    0.104853
  23 H :    0.002404
  24 H :    0.038839
  25 C :   -0.125769
  26 H :    0.026453
  27 H :    0.030163
  28 C :    0.007844
  29 H :    0.037219
  30 H :    0.014168
  31 H :    0.020956
  32 H :    0.035405
  33 H :    0.082108
Sum of atomic charges:   -0.0000000

LOEWDIN ATOMIC CHARGES
----------------------
   0 S :    0.414244
   1 C :   -0.192305
   2 C :   -0.068048
   3 C :   -0.057071
   4 C :   -0.211217
   5 H :    0.029428
   6 C :   -0.029036
   7 H :    0.030000
   8 H :    0.026441
   9 C :   -0.037191
  10 H :    0.022512
  11 H :    0.029977
  12 C :   -0.068466
  13 H :    0.025003
  14 H :    0.028586
  15 H :    0.030305
  16 S :    0.436978
  17 C :   -0.211313
  18 C :   -0.070190
  19 C :   -0.057341
  20 C :   -0.211567
  21 H :    0.022911
  22 C :   -0.028594
  23 H :    0.017652
  24 H :    0.038548
  25 C :   -0.045335
  26 H :    0.026294
  27 H :    0.023858
  28 C :   -0.064290
  29 H :    0.032804
  30 H :    0.016607
  31 H :    0.027521
  32 H :    0.022433
  33 H :    0.049863

  Mayer bond orders larger than 0.100000
B(  0-S ,  1-C ) :   1.1445 B(  0-S ,  4-C ) :   1.1385 B(  1-C ,  2-C ) :   1.6265
B(  1-C , 32-H ) :   0.9563 B(  2-C ,  3-C ) :   1.2414 B(  2-C ,  6-C ) :   1.0335
B(  3-C ,  4-C ) :   1.5856 B(  3-C ,  5-H ) :   0.9850 B(  4-C , 20-C ) :   1.0119
B(  6-C ,  7-H ) :   0.9366 B(  6-C ,  8-H ) :   0.9385 B(  6-C ,  9-C ) :   1.0704
B(  9-C , 10-H ) :   0.9543 B(  9-C , 11-H ) :   0.9549 B(  9-C , 12-C ) :   1.0806
B( 12-C , 13-H ) :   0.9704 B( 12-C , 14-H ) :   0.9706 B( 12-C , 15-H ) :   0.9711
B( 16-S , 17-C ) :   1.1561 B( 16-S , 20-C ) :   1.1573 B( 17-C , 18-C ) :   1.6282
B( 17-C , 33-H ) :   0.9547 B( 18-C , 19-C ) :   1.2073 B( 18-C , 21-H ) :   0.9991
B( 19-C , 20-C ) :   1.5990 B( 19-C , 22-C ) :   1.0687 B( 22-C , 23-H ) :   0.9265
B( 22-C , 24-H ) :   0.9296 B( 22-C , 25-C ) :   1.0458 B( 25-C , 26-H ) :   0.9539
B( 25-C , 27-H ) :   0.9610 B( 25-C , 28-C ) :   1.0809 B( 28-C , 29-H ) :   0.9712
B( 28-C , 30-H ) :   0.9713 B( 28-C , 31-H ) :   0.9723

Dispersion correction           -0.014092886
FINAL SINGLE POINT ENERGY     -1339.879460257395

DIPOLE MOMENT
-------------
                                X             Y             Z
Electronic contribution:    -18.45562     -10.62525      12.43795
Nuclear contribution   :     18.99719      10.98163     -12.70953
                        -----------------------------------------
Total Dipole Moment    :      0.54157       0.35638      -0.27158
                        -----------------------------------------
Magnitude (a.u.)       :      0.70289
Magnitude (Debye)      :      1.78660

Rotational constants in cm-1:     0.018075     0.008613     0.006737
Rotational constants in MHz :   541.873098   258.210783   201.968165

                             ****ORCA TERMINATED NORMALLY****
TOTAL RUN TIME: 0 days 0 hours 0 minutes 29 seconds 853 msec
