                         Program Version 4.2.1 -  RELEASE  -
|  1> ! wB97X-D3 SP def2-SVP
|  2> %pal
|  3> nprocs 16
|  4> end
|  5>
|  6> * xyz 0 1
|  7> S 	 -109.184 	 38.1392 	 129.49
|  8> C 	 -107.458 	 38.3799 	 129.807
|  9> C 	 -106.913 	 39.3684 	 129.005
| 10> C 	 -107.885 	 39.8839 	 128.09
| 11> C 	 -109.177 	 39.4434 	 128.36
| 12> H 	 -107.76 	 40.6732 	 127.28
| 13> C 	 -105.515 	 39.8519 	 129.018
| 14> H 	 -104.94 	 39.1635 	 128.355
| 15> H 	 -105.254 	 39.6512 	 130.042
| 16> C 	 -105.241 	 41.3124 	 128.653
| 17> H 	 -104.126 	 41.4631 	 128.755
| 18> H 	 -105.46 	 41.5323 	 127.639
| 19> C 	 -106.002 	 42.4011 	 129.398
| 20> H 	 -106.029 	 43.3666 	 128.851
| 21> H 	 -107.057 	 42.1696 	 129.694
| 22> H 	 -105.455 	 42.4832 	 130.333
| 23> S 	 -111.199 	 38.6848 	 126.672
| 24> C 	 -112.395 	 39.8501 	 126.188
| 25> C 	 -112.278 	 41.0386 	 126.844
| 26> C 	 -111.086 	 41.0795 	 127.64
| 27> C 	 -110.393 	 39.8359 	 127.641
| 28> H 	 -113.033 	 41.7953 	 126.707
| 29> C 	 -110.665 	 42.2841 	 128.457
| 30> H 	 -109.736 	 42.1101 	 128.962
| 31> H 	 -111.382 	 42.4155 	 129.267
| 32> C 	 -110.494 	 43.6012 	 127.593
| 33> H 	 -111.343 	 43.9061 	 126.987
| 34> H 	 -109.756 	 43.5142 	 126.77
| 35> C 	 -110.147 	 44.8563 	 128.432
| 36> H 	 -110.858 	 44.9561 	 129.227
| 37> H 	 -109.89 	 45.6943 	 127.862
| 38> H 	 -109.198 	 44.5588 	 128.956
| 39> H 	 -106.834 	 37.8428 	 130.51
| 40> H 	 -113.268 	 39.5819 	 125.602
| 41> *
| 42>
| 43>                          ****END OF INPUT****

CARTESIAN COORDINATES (ANGSTROEM)
---------------------------------
  S    -109.184000   38.139200  129.490000
  C    -107.458000   38.379900  129.807000
  C    -106.913000   39.368400  129.005000
  C    -107.885000   39.883900  128.090000
  C    -109.177000   39.443400  128.360000
  H    -107.760000   40.673200  127.280000
  C    -105.515000   39.851900  129.018000
  H    -104.940000   39.163500  128.355000
  H    -105.254000   39.651200  130.042000
  C    -105.241000   41.312400  128.653000
  H    -104.126000   41.463100  128.755000
  H    -105.460000   41.532300  127.639000
  C    -106.002000   42.401100  129.398000
  H    -106.029000   43.366600  128.851000
  H    -107.057000   42.169600  129.694000
  H    -105.455000   42.483200  130.333000
  S    -111.199000   38.684800  126.672000
  C    -112.395000   39.850100  126.188000
  C    -112.278000   41.038600  126.844000
  C    -111.086000   41.079500  127.640000
  C    -110.393000   39.835900  127.641000
  H    -113.033000   41.795300  126.707000
  C    -110.665000   42.284100  128.457000
  H    -109.736000   42.110100  128.962000
  H    -111.382000   42.415500  129.267000
  C    -110.494000   43.601200  127.593000
  H    -111.343000   43.906100  126.987000
  H    -109.756000   43.514200  126.770000
  C    -110.147000   44.856300  128.432000
  H    -110.858000   44.956100  129.227000
  H    -109.890000   45.694300  127.862000
  H    -109.198000   44.558800  128.956000
  H    -106.834000   37.842800  130.510000
  H    -113.268000   39.581900  125.602000

 Total Charge           Charge          ....    0
 Multiplicity           Mult            ....    1
 Number of Electrons    NEL             ....  134
 Basis Dimension        Dim             ....  322

ORBITAL ENERGIES
----------------

  NO   OCC          E(Eh)            E(eV)
   0   2.0000     -88.967824     -2420.9376
   1   2.0000     -88.964617     -2420.8503
   2   2.0000     -10.326691      -281.0036
   3   2.0000     -10.323816      -280.9253
   4   2.0000     -10.313402      -280.6419
   5   2.0000     -10.312860      -280.6272
   6   2.0000     -10.306208      -280.4462
   7   2.0000     -10.299028      -280.2508
   8   2.0000     -10.296586      -280.1843
   9   2.0000     -10.293237      -280.0932
  10   2.0000     -10.293028      -280.0875
  11   2.0000     -10.292573      -280.0752
  12   2.0000     -10.289566      -279.9933
  13   2.0000     -10.289011      -279.9782
  14   2.0000     -10.280731      -279.7529
  15   2.0000     -10.274693      -279.5886
  16   2.0000      -8.082414      -219.9337
  17   2.0000      -8.080399      -219.8788
  18   2.0000      -6.040913      -164.3816
  19   2.0000      -6.038711      -164.3217
  20   2.0000      -6.036948      -164.2737
  21   2.0000      -6.034730      -164.2134
  22   2.0000      -6.033194      -164.1716
  23   2.0000      -6.031333      -164.1209
  24   2.0000      -1.008193       -27.4343
  25   2.0000      -0.985773       -26.8242
  26   2.0000      -0.917082       -24.9551
  27   2.0000      -0.901493       -24.5309
  28   2.0000      -0.870398       -23.6847
  29   2.0000      -0.849839       -23.1253
  30   2.0000      -0.845781       -23.0149
  31   2.0000      -0.816603       -22.2209
  32   2.0000      -0.785334       -21.3700
  33   2.0000      -0.768133       -20.9020
  34   2.0000      -0.707902       -19.2630
  35   2.0000      -0.701020       -19.0757
  36   2.0000      -0.692170       -18.8349
  37   2.0000      -0.654863       -17.8197
  38   2.0000      -0.634274       -17.2595
  39   2.0000      -0.618765       -16.8375
  40   2.0000      -0.597888       -16.2694
  41   2.0000      -0.569097       -15.4859
  42   2.0000      -0.558352       -15.1935
  43   2.0000      -0.554220       -15.0811
  44   2.0000      -0.535149       -14.5621
  45   2.0000      -0.533281       -14.5113
  46   2.0000      -0.522833       -14.2270
  47   2.0000      -0.513519       -13.9736
  48   2.0000      -0.504692       -13.7334
  49   2.0000      -0.493722       -13.4349
  50   2.0000      -0.488391       -13.2898
  51   2.0000      -0.481357       -13.0984
  52   2.0000      -0.470288       -12.7972
  53   2.0000      -0.459355       -12.4997
  54   2.0000      -0.455365       -12.3911
  55   2.0000      -0.452516       -12.3136
  56   2.0000      -0.445191       -12.1143
  57   2.0000      -0.442802       -12.0493
  58   2.0000      -0.436427       -11.8758
  59   2.0000      -0.426459       -11.6045
  60   2.0000      -0.420712       -11.4482
  61   2.0000      -0.412124       -11.2145
  62   2.0000      -0.408679       -11.1207
  63   2.0000      -0.341431        -9.2908
  64   2.0000      -0.329020        -8.9531
  65   2.0000      -0.325418        -8.8551
  66   2.0000      -0.296788        -8.0760
  67   0.0000       0.039062         1.0629
  68   0.0000       0.065241         1.7753
  69   0.0000       0.115088         3.1317
  70   0.0000       0.121411         3.3038
  71   0.0000       0.129349         3.5198

MULLIKEN ATOMIC CHARGES
-----------------------
   0 S :    0.121695
   1 C :   -0.118708
   2 C :   -0.125076
   3 C :    0.015084
   4 C :   -0.180514
   5 H :    0.039664
   6 C :    0.112075
   7 H :    0.054690
   8 H :    0.011779
   9 C :   -0.084900
  10 H :    0.041082
  11 H :    0.020526
  12 C :   -0.084800
  13 H :    0.045182
  14 H :    0.055240
  15 H :    0.028495
  16 S :    0.120996
  17 C :   -0.098223
  18 C :   -0.026422
  19 C :   -0.033058
  20 C :   -0.170384
  21 H :    0.020788
  22 C :    0.106002
  23 H :    0.013136
  24 H :    0.034786
  25 C :   -0.119226
  26 H :    0.021902
  27 H :    0.024752
  28 C :   -0.017475
  29 H :    0.028359
  30 H :    0.032043
  31 H :    0.015937
  32 H :    0.037547
  33 H :    0.057024
Sum of atomic charges:    0.0000000

LOEWDIN ATOMIC CHARGES
----------------------
   0 S :    0.410838
   1 C :   -0.199726
   2 C :   -0.065503
   3 C :   -0.068648
   4 C :   -0.206284
   5 H :    0.043228
   6 C :   -0.033962
   7 H :    0.045702
   8 H :    0.029354
   9 C :   -0.046623
  10 H :    0.035536
  11 H :    0.015967
  12 C :   -0.073574
  13 H :    0.031451
  14 H :    0.030383
  15 H :    0.024990
  16 S :    0.430858
  17 C :   -0.189415
  18 C :   -0.068655
  19 C :   -0.050805
  20 C :   -0.223557
  21 H :    0.033561
  22 C :   -0.026284
  23 H :    0.026546
  24 H :    0.034585
  25 C :   -0.045021
  26 H :    0.017221
  27 H :    0.024756
  28 C :   -0.061357
  29 H :    0.021796
  30 H :    0.019545
  31 H :    0.027423
  32 H :    0.026823
  33 H :    0.028848

  Mayer bond orders larger than 0.100000
B(  0-S ,  1-C ) :   1.1269 B(  0-S ,  4-C ) :   1.1634 B(  1-C ,  2-C ) :   1.6256
B(  1-C , 32-H ) :   0.9663 B(  2-C ,  3-C ) :   1.2278 B(  2-C ,  6-C ) :   1.0081
B(  3-C ,  4-C ) :   1.5824 B(  3-C ,  5-H ) :   0.9800 B(  4-C , 20-C ) :   1.0142
B(  6-C ,  7-H ) :   0.9252 B(  6-C ,  8-H ) :   0.9359 B(  6-C ,  9-C ) :   1.0827
B(  9-C , 10-H ) :   0.9558 B(  9-C , 11-H ) :   0.9529 B(  9-C , 12-C ) :   1.0654
B( 12-C , 13-H ) :   0.9759 B( 12-C , 14-H ) :   0.9732 B( 12-C , 15-H ) :   0.9751
B( 16-S , 17-C ) :   1.1638 B( 16-S , 20-C ) :   1.1677 B( 17-C , 18-C ) :   1.6088
B( 17-C , 33-H ) :   0.9643 B( 18-C , 19-C ) :   1.2426 B( 18-C , 21-H ) :   0.9948
B( 19-C , 20-C ) :   1.5696 B( 19-C , 22-C ) :   1.0555 B( 22-C , 23-H ) :   0.9301
B( 22-C , 24-H ) :   0.9334 B( 22-C , 25-C ) :   1.0379 B( 25-C , 26-H ) :   0.9598
B( 25-C , 27-H ) :   0.9572 B( 25-C , 28-C ) :   1.0856 B( 28-C , 29-H ) :   0.9750
B( 28-C , 30-H ) :   0.9739 B( 28-C , 31-H ) :   0.9735

Dispersion correction           -0.015084615
FINAL SINGLE POINT ENERGY     -1339.880843731230

DIPOLE MOMENT
-------------
                                X             Y             Z
Electronic contribution:    -13.90972     -27.86347      -3.90802
Nuclear contribution   :     14.16491      28.39034       3.91149
                        -----------------------------------------
Total Dipole Moment    :      0.25519       0.52688       0.00347
                        -----------------------------------------
Magnitude (a.u.)       :      0.58543
Magnitude (Debye)      :      1.48806

Rotational constants in cm-1:     0.015744     0.010905     0.007151
Rotational constants in MHz :   472.002599   326.914546   214.377432

                             ****ORCA TERMINATED NORMALLY****
TOTAL RUN TIME: 0 days 0 hours 0 minutes 35 seconds 600 msec
