                         Program Version 4.2.1 -  RELEASE  -
|  1> ! wB97X-D3 SP def2-SVP
|  2> %pal
|  3> nprocs 16
|  4> end
|  5>
|  6> * xyz 0 1
|  7> S 	 -96.7163 	 42.9183 	 117.883
|  8> C 	 -97.0674 	 44.128 	 119.063
|  9> C 	 -96.2034 	 44.1111 	 120.125
| 10> C 	 -95.1493 	 43.1634 	 119.941
| 11> C 	 -95.2118 	 42.5732 	 118.702
| 12> H 	 -94.2639 	 42.9993 	 120.521
| 13> C 	 -96.3172 	 44.9247 	 121.429
| 14> H 	 -95.5362 	 44.5296 	 122.094
| 15> H 	 -97.2891 	 44.7675 	 121.873
| 16> C 	 -96.1879 	 46.426 	 121.131
| 17> H 	 -95.3277 	 46.4766 	 120.448
| 18> H 	 -97.0158 	 46.8666 	 120.6
| 19> C 	 -96.0225 	 47.2747 	 122.377
| 20> H 	 -95.0698 	 47.3038 	 122.952
| 21> H 	 -96.0574 	 48.3104 	 122.121
| 22> H 	 -96.9143 	 47.2398 	 123.055
| 23> S 	 -93.3576 	 40.6987 	 119.358
| 24> C 	 -92.272 	 40.0853 	 118.179
| 25> C 	 -92.5909 	 40.5417 	 116.918
| 26> C 	 -93.6582 	 41.4375 	 116.876
| 27> C 	 -94.1576 	 41.7361 	 118.145
| 28> H 	 -91.9491 	 40.1124 	 116.062
| 29> C 	 -94.1623 	 42.0222 	 115.631
| 30> H 	 -95.1995 	 42.0349 	 115.686
| 31> H 	 -93.9149 	 41.4084 	 114.739
| 32> C 	 -93.6921 	 43.4498 	 115.324
| 33> H 	 -93.7709 	 43.9728 	 116.205
| 34> H 	 -94.3581 	 43.9328 	 114.613
| 35> C 	 -92.2256 	 43.4921 	 114.979
| 36> H 	 -91.8377 	 44.5596 	 114.739
| 37> H 	 -91.8592 	 42.8924 	 114.088
| 38> H 	 -91.5686 	 43.0237 	 115.771
| 39> H 	 -97.8578 	 44.814 	 118.925
| 40> H 	 -91.5879 	 39.2679 	 118.39
| 41> *
| 42>
| 43>                          ****END OF INPUT****

CARTESIAN COORDINATES (ANGSTROEM)
---------------------------------
  S    -96.716300   42.918300  117.883000
  C    -97.067400   44.128000  119.063000
  C    -96.203400   44.111100  120.125000
  C    -95.149300   43.163400  119.941000
  C    -95.211800   42.573200  118.702000
  H    -94.263900   42.999300  120.521000
  C    -96.317200   44.924700  121.429000
  H    -95.536200   44.529600  122.094000
  H    -97.289100   44.767500  121.873000
  C    -96.187900   46.426000  121.131000
  H    -95.327700   46.476600  120.448000
  H    -97.015800   46.866600  120.600000
  C    -96.022500   47.274700  122.377000
  H    -95.069800   47.303800  122.952000
  H    -96.057400   48.310400  122.121000
  H    -96.914300   47.239800  123.055000
  S    -93.357600   40.698700  119.358000
  C    -92.272000   40.085300  118.179000
  C    -92.590900   40.541700  116.918000
  C    -93.658200   41.437500  116.876000
  C    -94.157600   41.736100  118.145000
  H    -91.949100   40.112400  116.062000
  C    -94.162300   42.022200  115.631000
  H    -95.199500   42.034900  115.686000
  H    -93.914900   41.408400  114.739000
  C    -93.692100   43.449800  115.324000
  H    -93.770900   43.972800  116.205000
  H    -94.358100   43.932800  114.613000
  C    -92.225600   43.492100  114.979000
  H    -91.837700   44.559600  114.739000
  H    -91.859200   42.892400  114.088000
  H    -91.568600   43.023700  115.771000
  H    -97.857800   44.814000  118.925000
  H    -91.587900   39.267900  118.390000

 Total Charge           Charge          ....    0
 Multiplicity           Mult            ....    1
 Number of Electrons    NEL             ....  134
 Basis Dimension        Dim             ....  322

ORBITAL ENERGIES
----------------

  NO   OCC          E(Eh)            E(eV)
   0   2.0000     -88.968147     -2420.9464
   1   2.0000     -88.965030     -2420.8615
   2   2.0000     -10.328903      -281.0637
   3   2.0000     -10.328734      -281.0591
   4   2.0000     -10.313694      -280.6499
   5   2.0000     -10.307249      -280.4745
   6   2.0000     -10.301242      -280.3110
   7   2.0000     -10.300892      -280.3015
   8   2.0000     -10.296484      -280.1816
   9   2.0000     -10.292329      -280.0685
  10   2.0000     -10.290199      -280.0105
  11   2.0000     -10.287184      -279.9285
  12   2.0000     -10.284816      -279.8641
  13   2.0000     -10.280783      -279.7543
  14   2.0000     -10.278731      -279.6985
  15   2.0000     -10.275491      -279.6103
  16   2.0000      -8.083193      -219.9549
  17   2.0000      -8.079806      -219.8627
  18   2.0000      -6.041649      -164.4016
  19   2.0000      -6.038121      -164.3056
  20   2.0000      -6.037799      -164.2969
  21   2.0000      -6.034298      -164.2016
  22   2.0000      -6.033886      -164.1904
  23   2.0000      -6.030788      -164.1061
  24   2.0000      -1.011810       -27.5328
  25   2.0000      -0.989978       -26.9387
  26   2.0000      -0.917108       -24.9558
  27   2.0000      -0.911367       -24.7996
  28   2.0000      -0.871918       -23.7261
  29   2.0000      -0.855283       -23.2734
  30   2.0000      -0.847623       -23.0650
  31   2.0000      -0.811132       -22.0720
  32   2.0000      -0.783101       -21.3093
  33   2.0000      -0.772143       -21.0111
  34   2.0000      -0.709107       -19.2958
  35   2.0000      -0.703503       -19.1433
  36   2.0000      -0.690116       -18.7790
  37   2.0000      -0.668762       -18.1979
  38   2.0000      -0.641379       -17.4528
  39   2.0000      -0.614679       -16.7263
  40   2.0000      -0.598340       -16.2817
  41   2.0000      -0.567627       -15.4459
  42   2.0000      -0.565813       -15.3966
  43   2.0000      -0.551000       -14.9935
  44   2.0000      -0.547597       -14.9009
  45   2.0000      -0.522099       -14.2070
  46   2.0000      -0.516863       -14.0646
  47   2.0000      -0.510734       -13.8978
  48   2.0000      -0.503162       -13.6917
  49   2.0000      -0.500088       -13.6081
  50   2.0000      -0.488430       -13.2908
  51   2.0000      -0.477385       -12.9903
  52   2.0000      -0.474547       -12.9131
  53   2.0000      -0.471781       -12.8378
  54   2.0000      -0.457804       -12.4575
  55   2.0000      -0.451709       -12.2916
  56   2.0000      -0.436225       -11.8703
  57   2.0000      -0.432119       -11.7585
  58   2.0000      -0.429694       -11.6926
  59   2.0000      -0.424626       -11.5547
  60   2.0000      -0.421702       -11.4751
  61   2.0000      -0.419112       -11.4046
  62   2.0000      -0.412089       -11.2135
  63   2.0000      -0.353992        -9.6326
  64   2.0000      -0.333796        -9.0830
  65   2.0000      -0.332466        -9.0469
  66   2.0000      -0.283228        -7.7070
  67   0.0000       0.019866         0.5406
  68   0.0000       0.081149         2.2082
  69   0.0000       0.103526         2.8171
  70   0.0000       0.115710         3.1486
  71   0.0000       0.136131         3.7043

MULLIKEN ATOMIC CHARGES
-----------------------
   0 S :    0.111990
   1 C :   -0.118403
   2 C :   -0.074929
   3 C :   -0.009508
   4 C :   -0.117583
   5 H :    0.016059
   6 C :    0.109636
   7 H :    0.027978
   8 H :    0.030239
   9 C :   -0.090260
  10 H :    0.035115
  11 H :    0.030428
  12 C :   -0.050146
  13 H :    0.040061
  14 H :    0.011257
  15 H :    0.030385
  16 S :    0.091868
  17 C :   -0.094223
  18 C :   -0.077859
  19 C :   -0.037212
  20 C :   -0.154650
  21 H :    0.047000
  22 C :    0.077924
  23 H :    0.002034
  24 H :    0.021625
  25 C :    0.022742
  26 H :    0.009404
  27 H :    0.031086
  28 C :   -0.129068
  29 H :    0.046372
  30 H :    0.023080
  31 H :    0.047064
  32 H :    0.030112
  33 H :    0.060381
Sum of atomic charges:    0.0000000

LOEWDIN ATOMIC CHARGES
----------------------
   0 S :    0.416342
   1 C :   -0.198798
   2 C :   -0.056332
   3 C :   -0.072017
   4 C :   -0.190650
   5 H :    0.024528
   6 C :   -0.023358
   7 H :    0.033255
   8 H :    0.029079
   9 C :   -0.042015
  10 H :    0.028076
  11 H :    0.025444
  12 C :   -0.080967
  13 H :    0.030453
  14 H :    0.022874
  15 H :    0.030680
  16 S :    0.415568
  17 C :   -0.199060
  18 C :   -0.084087
  19 C :   -0.061851
  20 C :   -0.178325
  21 H :    0.047788
  22 C :   -0.030092
  23 H :    0.013666
  24 H :    0.034258
  25 C :   -0.030856
  26 H :    0.017690
  27 H :    0.027367
  28 C :   -0.085285
  29 H :    0.033722
  30 H :    0.022313
  31 H :    0.032486
  32 H :    0.017415
  33 H :    0.030685

  Mayer bond orders larger than 0.100000
B(  0-S ,  1-C ) :   1.1303 B(  0-S ,  4-C ) :   1.1464 B(  1-C ,  2-C ) :   1.6185
B(  1-C , 32-H ) :   0.9760 B(  2-C ,  3-C ) :   1.2343 B(  2-C ,  6-C ) :   1.0162
B(  3-C ,  4-C ) :   1.5642 B(  3-C ,  5-H ) :   0.9902 B(  4-C , 20-C ) :   1.0619
B(  6-C ,  7-H ) :   0.9478 B(  6-C ,  8-H ) :   0.9340 B(  6-C ,  9-C ) :   1.0579
B(  9-C , 10-H ) :   0.9601 B(  9-C , 11-H ) :   0.9531 B(  9-C , 12-C ) :   1.0923
B( 12-C , 13-H ) :   0.9743 B( 12-C , 14-H ) :   0.9680 B( 12-C , 15-H ) :   0.9684
B( 16-S , 17-C ) :   1.1710 B( 16-S , 20-C ) :   1.1484 B( 17-C , 18-C ) :   1.5887
B( 17-C , 20-C ) :   0.1067 B( 17-C , 33-H ) :   0.9655 B( 18-C , 19-C ) :   1.2590
B( 18-C , 21-H ) :   0.9795 B( 19-C , 20-C ) :   1.5461 B( 19-C , 22-C ) :   1.0574
B( 22-C , 23-H ) :   0.9180 B( 22-C , 24-H ) :   0.9327 B( 22-C , 25-C ) :   1.0786
B( 25-C , 26-H ) :   0.9467 B( 25-C , 27-H ) :   0.9538 B( 25-C , 28-C ) :   1.0673
B( 28-C , 29-H ) :   0.9731 B( 28-C , 30-H ) :   0.9744 B( 28-C , 31-H ) :   0.9708

Dispersion correction           -0.014424033
FINAL SINGLE POINT ENERGY     -1339.874623969846

DIPOLE MOMENT
-------------
                                X             Y             Z
Electronic contribution:     -3.53279     -20.02305       0.47465
Nuclear contribution   :      3.56432      20.34128      -0.48365
                        -----------------------------------------
Total Dipole Moment    :      0.03153       0.31823      -0.00900
                        -----------------------------------------
Magnitude (a.u.)       :      0.31992
Magnitude (Debye)      :      0.81316

Rotational constants in cm-1:     0.021275     0.007643     0.006852
Rotational constants in MHz :   637.800567   229.133803   205.412758

                             ****ORCA TERMINATED NORMALLY****
TOTAL RUN TIME: 0 days 0 hours 0 minutes 32 seconds 436 msec
