                         Program Version 4.2.1 -  RELEASE  -
|  1> ! wB97X-D3 SP def2-SVP
|  2> %pal
|  3> nprocs 16
|  4> end
|  5>
|  6> * xyz 0 1
|  7> S 	 -25.6172 	 57.7764 	 110.992
|  8> C 	 -24.5006 	 58.7511 	 110.105
|  9> C 	 -24.8625 	 58.8547 	 108.772
| 10> C 	 -25.9912 	 58.0462 	 108.487
| 11> C 	 -26.4841 	 57.3568 	 109.575
| 12> H 	 -26.5563 	 57.8306 	 107.607
| 13> C 	 -24.2075 	 59.7379 	 107.783
| 14> H 	 -23.3283 	 59.1171 	 107.564
| 15> H 	 -23.8277 	 60.6298 	 108.245
| 16> C 	 -24.9939 	 60.0006 	 106.545
| 17> H 	 -26.052 	 60.0797 	 106.72
| 18> H 	 -24.7098 	 60.978 	 106.092
| 19> C 	 -24.7505 	 58.9015 	 105.431
| 20> H 	 -25.3808 	 59.102 	 104.555
| 21> H 	 -23.7435 	 58.9267 	 105.154
| 22> H 	 -25.0546 	 58.0073 	 105.915
| 23> S 	 -27.2431 	 54.7826 	 109.234
| 24> C 	 -28.8762 	 54.2427 	 109.173
| 25> C 	 -29.6953 	 55.3309 	 109.321
| 26> C 	 -29.01 	 56.5625 	 109.548
| 27> C 	 -27.6365 	 56.4541 	 109.521
| 28> H 	 -30.796 	 55.2709 	 109.331
| 29> C 	 -29.7634 	 57.7924 	 109.968
| 30> H 	 -29.0354 	 58.5038 	 109.92
| 31> H 	 -29.9246 	 57.5922 	 111.038
| 32> C 	 -30.9552 	 58.2261 	 109.186
| 33> H 	 -31.5861 	 58.8762 	 109.716
| 34> H 	 -31.5864 	 57.3554 	 109.02
| 35> C 	 -30.4779 	 58.9277 	 107.977
| 36> H 	 -29.7325 	 59.7467 	 108.21
| 37> H 	 -31.2582 	 59.4109 	 107.358
| 38> H 	 -29.9453 	 58.2645 	 107.286
| 39> H 	 -23.6206 	 59.4016 	 110.443
| 40> H 	 -29.1381 	 53.2487 	 108.76
| 41> *
| 42>
| 43>                          ****END OF INPUT****

CARTESIAN COORDINATES (ANGSTROEM)
---------------------------------
  S    -25.617200   57.776400  110.992000
  C    -24.500600   58.751100  110.105000
  C    -24.862500   58.854700  108.772000
  C    -25.991200   58.046200  108.487000
  C    -26.484100   57.356800  109.575000
  H    -26.556300   57.830600  107.607000
  C    -24.207500   59.737900  107.783000
  H    -23.328300   59.117100  107.564000
  H    -23.827700   60.629800  108.245000
  C    -24.993900   60.000600  106.545000
  H    -26.052000   60.079700  106.720000
  H    -24.709800   60.978000  106.092000
  C    -24.750500   58.901500  105.431000
  H    -25.380800   59.102000  104.555000
  H    -23.743500   58.926700  105.154000
  H    -25.054600   58.007300  105.915000
  S    -27.243100   54.782600  109.234000
  C    -28.876200   54.242700  109.173000
  C    -29.695300   55.330900  109.321000
  C    -29.010000   56.562500  109.548000
  C    -27.636500   56.454100  109.521000
  H    -30.796000   55.270900  109.331000
  C    -29.763400   57.792400  109.968000
  H    -29.035400   58.503800  109.920000
  H    -29.924600   57.592200  111.038000
  C    -30.955200   58.226100  109.186000
  H    -31.586100   58.876200  109.716000
  H    -31.586400   57.355400  109.020000
  C    -30.477900   58.927700  107.977000
  H    -29.732500   59.746700  108.210000
  H    -31.258200   59.410900  107.358000
  H    -29.945300   58.264500  107.286000
  H    -23.620600   59.401600  110.443000
  H    -29.138100   53.248700  108.760000

 Total Charge           Charge          ....    0
 Multiplicity           Mult            ....    1
 Number of Electrons    NEL             ....  134
 Basis Dimension        Dim             ....  322

ORBITAL ENERGIES
----------------

  NO   OCC          E(Eh)            E(eV)
   0   2.0000     -88.968645     -2420.9599
   1   2.0000     -88.957334     -2420.6521
   2   2.0000     -10.324134      -280.9340
   3   2.0000     -10.323024      -280.9038
   4   2.0000     -10.317266      -280.7471
   5   2.0000     -10.314938      -280.6837
   6   2.0000     -10.299931      -280.2754
   7   2.0000     -10.298269      -280.2301
   8   2.0000     -10.291908      -280.0571
   9   2.0000     -10.289367      -279.9879
  10   2.0000     -10.286817      -279.9185
  11   2.0000     -10.285990      -279.8960
  12   2.0000     -10.278467      -279.6913
  13   2.0000     -10.278098      -279.6813
  14   2.0000     -10.276602      -279.6406
  15   2.0000     -10.273208      -279.5482
  16   2.0000      -8.083820      -219.9719
  17   2.0000      -8.073254      -219.6844
  18   2.0000      -6.042269      -164.4185
  19   2.0000      -6.038101      -164.3051
  20   2.0000      -6.034785      -164.2149
  21   2.0000      -6.031698      -164.1308
  22   2.0000      -6.027374      -164.0132
  23   2.0000      -6.024211      -163.9271
  24   2.0000      -1.013426       -27.5767
  25   2.0000      -0.992603       -27.0101
  26   2.0000      -0.924785       -25.1647
  27   2.0000      -0.921657       -25.0796
  28   2.0000      -0.872233       -23.7347
  29   2.0000      -0.850921       -23.1547
  30   2.0000      -0.846787       -23.0422
  31   2.0000      -0.818175       -22.2637
  32   2.0000      -0.783860       -21.3299
  33   2.0000      -0.772506       -21.0209
  34   2.0000      -0.714673       -19.4472
  35   2.0000      -0.707558       -19.2536
  36   2.0000      -0.689805       -18.7706
  37   2.0000      -0.656809       -17.8727
  38   2.0000      -0.643220       -17.5029
  39   2.0000      -0.622567       -16.9409
  40   2.0000      -0.602356       -16.3909
  41   2.0000      -0.573319       -15.6008
  42   2.0000      -0.567044       -15.4300
  43   2.0000      -0.553718       -15.0674
  44   2.0000      -0.542232       -14.7549
  45   2.0000      -0.533875       -14.5275
  46   2.0000      -0.523966       -14.2578
  47   2.0000      -0.518170       -14.1001
  48   2.0000      -0.501838       -13.6557
  49   2.0000      -0.496983       -13.5236
  50   2.0000      -0.494442       -13.4544
  51   2.0000      -0.487040       -13.2530
  52   2.0000      -0.472649       -12.8614
  53   2.0000      -0.464647       -12.6437
  54   2.0000      -0.457012       -12.4359
  55   2.0000      -0.446651       -12.1540
  56   2.0000      -0.442191       -12.0326
  57   2.0000      -0.440274       -11.9805
  58   2.0000      -0.437055       -11.8929
  59   2.0000      -0.427251       -11.6261
  60   2.0000      -0.420468       -11.4415
  61   2.0000      -0.419874       -11.4254
  62   2.0000      -0.406608       -11.0644
  63   2.0000      -0.335243        -9.1224
  64   2.0000      -0.325751        -8.8641
  65   2.0000      -0.319606        -8.6969
  66   2.0000      -0.312793        -8.5115
  67   0.0000       0.050474         1.3735
  68   0.0000       0.053398         1.4530
  69   0.0000       0.123227         3.3532
  70   0.0000       0.126810         3.4507
  71   0.0000       0.136862         3.7242

MULLIKEN ATOMIC CHARGES
-----------------------
   0 S :    0.142140
   1 C :   -0.142789
   2 C :   -0.102707
   3 C :    0.042757
   4 C :   -0.189348
   5 H :    0.004288
   6 C :    0.103759
   7 H :    0.041380
   8 H :    0.022975
   9 C :   -0.098642
  10 H :    0.030954
  11 H :    0.027215
  12 C :   -0.025886
  13 H :    0.036630
  14 H :    0.026484
  15 H :    0.024602
  16 S :    0.097952
  17 C :   -0.098147
  18 C :   -0.047951
  19 C :   -0.060455
  20 C :   -0.198030
  21 H :    0.026228
  22 C :    0.107718
  23 H :   -0.017196
  24 H :    0.045017
  25 C :    0.010845
  26 H :    0.012011
  27 H :    0.016611
  28 C :   -0.083886
  29 H :    0.035934
  30 H :    0.033737
  31 H :    0.032841
  32 H :    0.064667
  33 H :    0.078291
Sum of atomic charges:    0.0000000

LOEWDIN ATOMIC CHARGES
----------------------
   0 S :    0.439920
   1 C :   -0.227087
   2 C :   -0.063602
   3 C :   -0.064430
   4 C :   -0.220490
   5 H :    0.030043
   6 C :   -0.036862
   7 H :    0.044557
   8 H :    0.030199
   9 C :   -0.040878
  10 H :    0.020506
  11 H :    0.026668
  12 C :   -0.049999
  13 H :    0.028669
  14 H :    0.016557
  15 H :    0.017707
  16 S :    0.422740
  17 C :   -0.197156
  18 C :   -0.083561
  19 C :   -0.054767
  20 C :   -0.210671
  21 H :    0.031992
  22 C :   -0.024034
  23 H :    0.014622
  24 H :    0.041659
  25 C :   -0.040201
  26 H :    0.021998
  27 H :    0.023500
  28 C :   -0.067969
  29 H :    0.032537
  30 H :    0.025815
  31 H :    0.024845
  32 H :    0.047728
  33 H :    0.039443

  Mayer bond orders larger than 0.100000
B(  0-S ,  1-C ) :   1.1487 B(  0-S ,  4-C ) :   1.1697 B(  1-C ,  2-C ) :   1.6065
B(  1-C , 32-H ) :   0.9575 B(  2-C ,  3-C ) :   1.2342 B(  2-C ,  6-C ) :   1.0043
B(  3-C ,  4-C ) :   1.5764 B(  3-C ,  5-H ) :   0.9916 B(  4-C , 20-C ) :   0.9904
B(  6-C ,  7-H ) :   0.9267 B(  6-C ,  8-H ) :   0.9379 B(  6-C ,  9-C ) :   1.0733
B(  9-C , 10-H ) :   0.9581 B(  9-C , 11-H ) :   0.9559 B(  9-C , 12-C ) :   1.0679
B( 12-C , 13-H ) :   0.9742 B( 12-C , 14-H ) :   0.9761 B( 12-C , 15-H ) :   0.9816
B( 16-S , 17-C ) :   1.1790 B( 16-S , 20-C ) :   1.1566 B( 17-C , 18-C ) :   1.5761
B( 17-C , 20-C ) :   0.1009 B( 17-C , 33-H ) :   0.9627 B( 18-C , 19-C ) :   1.2594
B( 18-C , 21-H ) :   0.9846 B( 19-C , 20-C ) :   1.5966 B( 19-C , 22-C ) :   1.0284
B( 22-C , 23-H ) :   0.9246 B( 22-C , 24-H ) :   0.9274 B( 22-C , 25-C ) :   1.0736
B( 25-C , 26-H ) :   0.9436 B( 25-C , 27-H ) :   0.9509 B( 25-C , 28-C ) :   1.0797
B( 28-C , 29-H ) :   0.9700 B( 28-C , 30-H ) :   0.9716 B( 28-C , 31-H ) :   0.9755

Dispersion correction           -0.014765506
FINAL SINGLE POINT ENERGY     -1339.868621590024

DIPOLE MOMENT
-------------
                                X             Y             Z
Electronic contribution:      6.94049     -16.57627      17.35651
Nuclear contribution   :     -7.16879      17.04688     -17.73668
                        -----------------------------------------
Total Dipole Moment    :     -0.22830       0.47061      -0.38017
                        -----------------------------------------
Magnitude (a.u.)       :      0.64663
Magnitude (Debye)      :      1.64359

Rotational constants in cm-1:     0.017453     0.009201     0.008049
Rotational constants in MHz :   523.225214   275.853749   241.307606

                             ****ORCA TERMINATED NORMALLY****
TOTAL RUN TIME: 0 days 0 hours 0 minutes 31 seconds 876 msec
