                         Program Version 4.2.1 -  RELEASE  -
|  1> ! wB97X-D3 SP def2-SVP
|  2> %pal
|  3> nprocs 16
|  4> end
|  5>
|  6> * xyz 0 1
|  7> S 	 -65.966 	 60.3884 	 122.779
|  8> C 	 -65.7554 	 61.5259 	 124.035
|  9> C 	 -64.9781 	 61.0542 	 125.078
| 10> C 	 -64.4636 	 59.7268 	 124.804
| 11> C 	 -65.0903 	 59.1959 	 123.691
| 12> H 	 -63.8006 	 59.1107 	 125.423
| 13> C 	 -64.5093 	 61.9455 	 126.213
| 14> H 	 -64.3301 	 61.2725 	 127.035
| 15> H 	 -65.2654 	 62.617 	 126.435
| 16> C 	 -63.1539 	 62.7646 	 126.117
| 17> H 	 -62.4038 	 62.0502 	 125.781
| 18> H 	 -63.4482 	 63.3134 	 125.246
| 19> C 	 -62.7791 	 63.6804 	 127.259
| 20> H 	 -63.5223 	 64.5055 	 127.556
| 21> H 	 -62.7764 	 63.0691 	 128.143
| 22> H 	 -61.7603 	 64.1144 	 127.116
| 23> S 	 -64.1923 	 57.3613 	 121.733
| 24> C 	 -64.2661 	 55.6402 	 122.016
| 25> C 	 -64.476 	 55.5002 	 123.339
| 26> C 	 -64.889 	 56.6821 	 124.125
| 27> C 	 -64.8713 	 57.808 	 123.302
| 28> H 	 -64.49 	 54.4767 	 123.644
| 29> C 	 -65.3362 	 56.5952 	 125.613
| 30> H 	 -64.7392 	 57.2786 	 126.276
| 31> H 	 -64.9837 	 55.6465 	 125.978
| 32> C 	 -66.8206 	 56.9449 	 125.812
| 33> H 	 -67.4717 	 56.0857 	 125.509
| 34> H 	 -67.1718 	 57.7602 	 125.215
| 35> C 	 -67.1035 	 57.1678 	 127.339
| 36> H 	 -66.4701 	 58.0035 	 127.705
| 37> H 	 -67.0025 	 56.2091 	 127.946
| 38> H 	 -68.1362 	 57.4194 	 127.582
| 39> H 	 -66.0896 	 62.4979 	 123.812
| 40> H 	 -64.1961 	 54.7968 	 121.301
| 41> *
| 42>
| 43>                          ****END OF INPUT****

CARTESIAN COORDINATES (ANGSTROEM)
---------------------------------
  S    -65.966000   60.388400  122.779000
  C    -65.755400   61.525900  124.035000
  C    -64.978100   61.054200  125.078000
  C    -64.463600   59.726800  124.804000
  C    -65.090300   59.195900  123.691000
  H    -63.800600   59.110700  125.423000
  C    -64.509300   61.945500  126.213000
  H    -64.330100   61.272500  127.035000
  H    -65.265400   62.617000  126.435000
  C    -63.153900   62.764600  126.117000
  H    -62.403800   62.050200  125.781000
  H    -63.448200   63.313400  125.246000
  C    -62.779100   63.680400  127.259000
  H    -63.522300   64.505500  127.556000
  H    -62.776400   63.069100  128.143000
  H    -61.760300   64.114400  127.116000
  S    -64.192300   57.361300  121.733000
  C    -64.266100   55.640200  122.016000
  C    -64.476000   55.500200  123.339000
  C    -64.889000   56.682100  124.125000
  C    -64.871300   57.808000  123.302000
  H    -64.490000   54.476700  123.644000
  C    -65.336200   56.595200  125.613000
  H    -64.739200   57.278600  126.276000
  H    -64.983700   55.646500  125.978000
  C    -66.820600   56.944900  125.812000
  H    -67.471700   56.085700  125.509000
  H    -67.171800   57.760200  125.215000
  C    -67.103500   57.167800  127.339000
  H    -66.470100   58.003500  127.705000
  H    -67.002500   56.209100  127.946000
  H    -68.136200   57.419400  127.582000
  H    -66.089600   62.497900  123.812000
  H    -64.196100   54.796800  121.301000

 Total Charge           Charge          ....    0
 Multiplicity           Mult            ....    1
 Number of Electrons    NEL             ....  134
 Basis Dimension        Dim             ....  322

ORBITAL ENERGIES
----------------

  NO   OCC          E(Eh)            E(eV)
   0   2.0000     -88.969132     -2420.9732
   1   2.0000     -88.957752     -2420.6635
   2   2.0000     -10.328693      -281.0580
   3   2.0000     -10.327826      -281.0344
   4   2.0000     -10.315246      -280.6921
   5   2.0000     -10.312167      -280.6083
   6   2.0000     -10.309612      -280.5388
   7   2.0000     -10.306973      -280.4670
   8   2.0000     -10.301132      -280.3081
   9   2.0000     -10.299041      -280.2511
  10   2.0000     -10.289865      -280.0015
  11   2.0000     -10.289240      -279.9844
  12   2.0000     -10.288635      -279.9680
  13   2.0000     -10.285615      -279.8858
  14   2.0000     -10.285561      -279.8843
  15   2.0000     -10.283915      -279.8396
  16   2.0000      -8.084992      -220.0038
  17   2.0000      -8.072612      -219.6669
  18   2.0000      -6.043292      -164.4463
  19   2.0000      -6.039341      -164.3388
  20   2.0000      -6.035912      -164.2455
  21   2.0000      -6.031294      -164.1198
  22   2.0000      -6.027120      -164.0063
  23   2.0000      -6.023137      -163.8979
  24   2.0000      -1.009607       -27.4728
  25   2.0000      -0.985388       -26.8138
  26   2.0000      -0.909471       -24.7480
  27   2.0000      -0.901585       -24.5334
  28   2.0000      -0.873730       -23.7754
  29   2.0000      -0.855034       -23.2666
  30   2.0000      -0.835926       -22.7467
  31   2.0000      -0.817688       -22.2504
  32   2.0000      -0.781049       -21.2534
  33   2.0000      -0.768688       -20.9171
  34   2.0000      -0.707642       -19.2559
  35   2.0000      -0.701920       -19.1002
  36   2.0000      -0.692464       -18.8429
  37   2.0000      -0.660933       -17.9849
  38   2.0000      -0.644282       -17.5318
  39   2.0000      -0.619000       -16.8439
  40   2.0000      -0.590199       -16.0601
  41   2.0000      -0.570016       -15.5109
  42   2.0000      -0.563434       -15.3318
  43   2.0000      -0.556298       -15.1376
  44   2.0000      -0.522764       -14.2251
  45   2.0000      -0.521486       -14.1904
  46   2.0000      -0.516938       -14.0666
  47   2.0000      -0.514098       -13.9893
  48   2.0000      -0.510257       -13.8848
  49   2.0000      -0.500748       -13.6261
  50   2.0000      -0.490597       -13.3498
  51   2.0000      -0.484298       -13.1784
  52   2.0000      -0.476986       -12.9794
  53   2.0000      -0.462544       -12.5865
  54   2.0000      -0.458063       -12.4645
  55   2.0000      -0.453887       -12.3509
  56   2.0000      -0.438152       -11.9227
  57   2.0000      -0.435854       -11.8602
  58   2.0000      -0.432710       -11.7746
  59   2.0000      -0.429732       -11.6936
  60   2.0000      -0.414841       -11.2884
  61   2.0000      -0.409855       -11.1527
  62   2.0000      -0.404357       -11.0031
  63   2.0000      -0.347240        -9.4489
  64   2.0000      -0.329946        -8.9783
  65   2.0000      -0.322117        -8.7653
  66   2.0000      -0.298266        -8.1162
  67   0.0000       0.024632         0.6703
  68   0.0000       0.077003         2.0953
  69   0.0000       0.112242         3.0543
  70   0.0000       0.119125         3.2416
  71   0.0000       0.126661         3.4466

MULLIKEN ATOMIC CHARGES
-----------------------
   0 S :    0.128676
   1 C :   -0.106804
   2 C :   -0.086216
   3 C :    0.024787
   4 C :   -0.182244
   5 H :    0.032570
   6 C :    0.073552
   7 H :    0.008144
   8 H :    0.008139
   9 C :   -0.058120
  10 H :    0.030761
  11 H :    0.013026
  12 C :   -0.050542
  13 H :    0.044408
  14 H :    0.021250
  15 H :    0.054261
  16 S :    0.083691
  17 C :   -0.109566
  18 C :   -0.031218
  19 C :   -0.042484
  20 C :   -0.134187
  21 H :    0.005673
  22 C :    0.086934
  23 H :    0.016882
  24 H :    0.011253
  25 C :   -0.060361
  26 H :    0.034627
  27 H :    0.046437
  28 C :   -0.087706
  29 H :    0.042646
  30 H :    0.039616
  31 H :    0.029079
  32 H :    0.038203
  33 H :    0.074832
Sum of atomic charges:    0.0000000

LOEWDIN ATOMIC CHARGES
----------------------
   0 S :    0.433832
   1 C :   -0.194510
   2 C :   -0.062079
   3 C :   -0.047481
   4 C :   -0.205008
   5 H :    0.037003
   6 C :   -0.026988
   7 H :    0.021376
   8 H :    0.018488
   9 C :   -0.042382
  10 H :    0.026101
  11 H :    0.018005
  12 C :   -0.073230
  13 H :    0.037271
  14 H :    0.021063
  15 H :    0.037840
  16 S :    0.382548
  17 C :   -0.193168
  18 C :   -0.077054
  19 C :   -0.055923
  20 C :   -0.191447
  21 H :    0.023488
  22 C :   -0.029998
  23 H :    0.028604
  24 H :    0.027555
  25 C :   -0.037071
  26 H :    0.030307
  27 H :    0.025489
  28 C :   -0.076152
  29 H :    0.025976
  30 H :    0.032092
  31 H :    0.023189
  32 H :    0.016483
  33 H :    0.045780

  Mayer bond orders larger than 0.100000
B(  0-S ,  1-C ) :   1.1597 B(  0-S ,  4-C ) :   1.1583 B(  1-C ,  2-C ) :   1.5756
B(  1-C , 32-H ) :   0.9792 B(  2-C ,  3-C ) :   1.2341 B(  2-C ,  6-C ) :   1.0483
B(  3-C ,  4-C ) :   1.5617 B(  3-C ,  5-H ) :   0.9893 B(  4-C , 20-C ) :   1.0509
B(  6-C ,  7-H ) :   0.9317 B(  6-C ,  8-H ) :   0.9420 B(  6-C ,  9-C ) :   1.0458
B(  9-C , 10-H ) :   0.9564 B(  9-C , 11-H ) :   0.9577 B(  9-C , 12-C ) :   1.0741
B( 12-C , 13-H ) :   0.9721 B( 12-C , 14-H ) :   0.9744 B( 12-C , 15-H ) :   0.9709
B( 16-S , 17-C ) :   1.1264 B( 16-S , 20-C ) :   1.1396 B( 17-C , 18-C ) :   1.6531
B( 17-C , 33-H ) :   0.9635 B( 18-C , 19-C ) :   1.2129 B( 18-C , 21-H ) :   0.9867
B( 19-C , 20-C ) :   1.5961 B( 19-C , 22-C ) :   1.0339 B( 22-C , 23-H ) :   0.9419
B( 22-C , 24-H ) :   0.9304 B( 22-C , 25-C ) :   1.0456 B( 25-C , 26-H ) :   0.9532
B( 25-C , 27-H ) :   0.9630 B( 25-C , 28-C ) :   1.0754 B( 28-C , 29-H ) :   0.9759
B( 28-C , 30-H ) :   0.9751 B( 28-C , 31-H ) :   0.9748

Dispersion correction           -0.014411505
FINAL SINGLE POINT ENERGY     -1339.858774489627

DIPOLE MOMENT
-------------
                                X             Y             Z
Electronic contribution:     -0.79518      -7.51606     -27.80317
Nuclear contribution   :      0.81911       7.52075      28.40717
                        -----------------------------------------
Total Dipole Moment    :      0.02393       0.00469       0.60400
                        -----------------------------------------
Magnitude (a.u.)       :      0.60450
Magnitude (Debye)      :      1.53651

Rotational constants in cm-1:     0.018429     0.008178     0.006859
Rotational constants in MHz :   552.480633   245.175745   205.623721

                             ****ORCA TERMINATED NORMALLY****
TOTAL RUN TIME: 0 days 0 hours 0 minutes 32 seconds 323 msec
