                         Program Version 4.2.1 -  RELEASE  -
|  1> ! wB97X-D3 SP def2-SVP
|  2> %pal
|  3> nprocs 16
|  4> end
|  5>
|  6> * xyz 0 1
|  7> S 	 34.9559 	 -2.31373 	 69.1124
|  8> C 	 34.4723 	 -0.863857 	 69.9423
|  9> C 	 35.4644 	 -0.406147 	 70.7803
| 10> C 	 36.5813 	 -1.28856 	 70.7934
| 11> C 	 36.4329 	 -2.42511 	 70.0839
| 12> H 	 37.4934 	 -1.226 	 71.2928
| 13> C 	 35.4733 	 0.89706 	 71.5611
| 14> H 	 35.4573 	 1.71459 	 70.8643
| 15> H 	 36.4186 	 1.21618 	 72.0037
| 16> C 	 34.468 	 1.14571 	 72.6849
| 17> H 	 33.4961 	 1.30245 	 72.261
| 18> H 	 34.4154 	 0.160716 	 73.2543
| 19> C 	 34.8429 	 2.35974 	 73.6337
| 20> H 	 35.196 	 3.25464 	 73.1321
| 21> H 	 33.9982 	 2.55243 	 74.2541
| 22> H 	 35.6754 	 2.06999 	 74.1874
| 23> S 	 36.5318 	 -5.12947 	 70.0509
| 24> C 	 38.0656 	 -5.91257 	 69.775
| 25> C 	 39.0919 	 -5.04294 	 69.6921
| 26> C 	 38.6835 	 -3.69111 	 69.7822
| 27> C 	 37.3248 	 -3.54831 	 69.9507
| 28> H 	 40.0602 	 -5.45637 	 69.4104
| 29> C 	 39.6844 	 -2.51747 	 69.5676
| 30> H 	 40.6514 	 -3.04276 	 69.4873
| 31> H 	 39.7594 	 -2.03029 	 70.5465
| 32> C 	 39.3598 	 -1.59776 	 68.3885
| 33> H 	 38.2704 	 -1.56552 	 68.3073
| 34> H 	 39.5795 	 -2.03339 	 67.3983
| 35> C 	 39.9654 	 -0.155141 	 68.3934
| 36> H 	 39.6236 	 0.492851 	 69.1693
| 37> H 	 39.68 	 0.429228 	 67.5557
| 38> H 	 41.0676 	 -0.0751791 	 68.3122
| 39> H 	 33.7136 	 -0.221158 	 69.5753
| 40> H 	 38.1694 	 -6.92763 	 69.4099
| 41> *
| 42>
| 43>                          ****END OF INPUT****

CARTESIAN COORDINATES (ANGSTROEM)
---------------------------------
  S     34.955900   -2.313730   69.112400
  C     34.472300   -0.863857   69.942300
  C     35.464400   -0.406147   70.780300
  C     36.581300   -1.288560   70.793400
  C     36.432900   -2.425110   70.083900
  H     37.493400   -1.226000   71.292800
  C     35.473300    0.897060   71.561100
  H     35.457300    1.714590   70.864300
  H     36.418600    1.216180   72.003700
  C     34.468000    1.145710   72.684900
  H     33.496100    1.302450   72.261000
  H     34.415400    0.160716   73.254300
  C     34.842900    2.359740   73.633700
  H     35.196000    3.254640   73.132100
  H     33.998200    2.552430   74.254100
  H     35.675400    2.069990   74.187400
  S     36.531800   -5.129470   70.050900
  C     38.065600   -5.912570   69.775000
  C     39.091900   -5.042940   69.692100
  C     38.683500   -3.691110   69.782200
  C     37.324800   -3.548310   69.950700
  H     40.060200   -5.456370   69.410400
  C     39.684400   -2.517470   69.567600
  H     40.651400   -3.042760   69.487300
  H     39.759400   -2.030290   70.546500
  C     39.359800   -1.597760   68.388500
  H     38.270400   -1.565520   68.307300
  H     39.579500   -2.033390   67.398300
  C     39.965400   -0.155141   68.393400
  H     39.623600    0.492851   69.169300
  H     39.680000    0.429228   67.555700
  H     41.067600   -0.075179   68.312200
  H     33.713600   -0.221158   69.575300
  H     38.169400   -6.927630   69.409900

 Total Charge           Charge          ....    0
 Multiplicity           Mult            ....    1
 Number of Electrons    NEL             ....  134
 Basis Dimension        Dim             ....  322

ORBITAL ENERGIES
----------------

  NO   OCC          E(Eh)            E(eV)
   0   2.0000     -88.965577     -2420.8764
   1   2.0000     -88.963281     -2420.8139
   2   2.0000     -10.325789      -280.9790
   3   2.0000     -10.325426      -280.9691
   4   2.0000     -10.311765      -280.5974
   5   2.0000     -10.310609      -280.5659
   6   2.0000     -10.305073      -280.4153
   7   2.0000     -10.304489      -280.3994
   8   2.0000     -10.297570      -280.2111
   9   2.0000     -10.290844      -280.0281
  10   2.0000     -10.290371      -280.0152
  11   2.0000     -10.290334      -280.0142
  12   2.0000     -10.288467      -279.9634
  13   2.0000     -10.286448      -279.9085
  14   2.0000     -10.276587      -279.6402
  15   2.0000     -10.275342      -279.6063
  16   2.0000      -8.080225      -219.8741
  17   2.0000      -8.078100      -219.8163
  18   2.0000      -6.038705      -164.3215
  19   2.0000      -6.036638      -164.2653
  20   2.0000      -6.034788      -164.2149
  21   2.0000      -6.032628      -164.1561
  22   2.0000      -6.030963      -164.1108
  23   2.0000      -6.028783      -164.0515
  24   2.0000      -1.011399       -27.5216
  25   2.0000      -0.988202       -26.8904
  26   2.0000      -0.908910       -24.7327
  27   2.0000      -0.901233       -24.5238
  28   2.0000      -0.874746       -23.8030
  29   2.0000      -0.851700       -23.1759
  30   2.0000      -0.845300       -23.0018
  31   2.0000      -0.820437       -22.3252
  32   2.0000      -0.786651       -21.4059
  33   2.0000      -0.776461       -21.1286
  34   2.0000      -0.714607       -19.4454
  35   2.0000      -0.705907       -19.2087
  36   2.0000      -0.695646       -18.9295
  37   2.0000      -0.666642       -18.1402
  38   2.0000      -0.648663       -17.6510
  39   2.0000      -0.619122       -16.8472
  40   2.0000      -0.591441       -16.0939
  41   2.0000      -0.573508       -15.6059
  42   2.0000      -0.559851       -15.2343
  43   2.0000      -0.551334       -15.0026
  44   2.0000      -0.527123       -14.3438
  45   2.0000      -0.522176       -14.2091
  46   2.0000      -0.519877       -14.1466
  47   2.0000      -0.508467       -13.8361
  48   2.0000      -0.505542       -13.7565
  49   2.0000      -0.503265       -13.6945
  50   2.0000      -0.496120       -13.5001
  51   2.0000      -0.486367       -13.2347
  52   2.0000      -0.477315       -12.9884
  53   2.0000      -0.466457       -12.6929
  54   2.0000      -0.456025       -12.4091
  55   2.0000      -0.445766       -12.1299
  56   2.0000      -0.442745       -12.0477
  57   2.0000      -0.437970       -11.9178
  58   2.0000      -0.435026       -11.8377
  59   2.0000      -0.425487       -11.5781
  60   2.0000      -0.422848       -11.5063
  61   2.0000      -0.412848       -11.2342
  62   2.0000      -0.407908       -11.0997
  63   2.0000      -0.351638        -9.5686
  64   2.0000      -0.334722        -9.1083
  65   2.0000      -0.331683        -9.0256
  66   2.0000      -0.293320        -7.9816
  67   0.0000       0.025800         0.7021
  68   0.0000       0.070899         1.9293
  69   0.0000       0.106961         2.9106
  70   0.0000       0.118724         3.2307
  71   0.0000       0.139784         3.8037

MULLIKEN ATOMIC CHARGES
-----------------------
   0 S :    0.104607
   1 C :   -0.095361
   2 C :   -0.052289
   3 C :    0.049395
   4 C :   -0.155399
   5 H :   -0.024916
   6 C :    0.064545
   7 H :    0.014379
   8 H :   -0.002026
   9 C :   -0.092833
  10 H :    0.023670
  11 H :    0.044935
  12 C :   -0.030891
  13 H :    0.028948
  14 H :    0.041123
  15 H :    0.022071
  16 S :    0.100686
  17 C :   -0.086028
  18 C :   -0.050997
  19 C :   -0.050726
  20 C :   -0.170090
  21 H :    0.021842
  22 C :    0.104848
  23 H :    0.013377
  24 H :    0.035132
  25 C :   -0.059051
  26 H :    0.039701
  27 H :    0.027651
  28 C :   -0.035755
  29 H :    0.020238
  30 H :    0.013242
  31 H :    0.033024
  32 H :    0.043847
  33 H :    0.059103
Sum of atomic charges:   -0.0000000

LOEWDIN ATOMIC CHARGES
----------------------
   0 S :    0.398175
   1 C :   -0.190696
   2 C :   -0.056555
   3 C :   -0.053907
   4 C :   -0.187384
   5 H :    0.022888
   6 C :   -0.045638
   7 H :    0.028170
   8 H :    0.028697
   9 C :   -0.036432
  10 H :    0.014281
  11 H :    0.033423
  12 C :   -0.057255
  13 H :    0.025955
  14 H :    0.027763
  15 H :    0.018329
  16 S :    0.397500
  17 C :   -0.185781
  18 C :   -0.076526
  19 C :   -0.057652
  20 C :   -0.190932
  21 H :    0.035957
  22 C :   -0.029465
  23 H :    0.030362
  24 H :    0.032067
  25 C :   -0.043877
  26 H :    0.029719
  27 H :    0.030937
  28 C :   -0.071131
  29 H :    0.020333
  30 H :    0.024570
  31 H :    0.028445
  32 H :    0.024073
  33 H :    0.031582

  Mayer bond orders larger than 0.100000
B(  0-S ,  1-C ) :   1.1380 B(  0-S ,  4-C ) :   1.1341 B(  1-C ,  2-C ) :   1.6154
B(  1-C , 32-H ) :   0.9697 B(  2-C ,  3-C ) :   1.2197 B(  2-C ,  6-C ) :   1.0125
B(  3-C ,  4-C ) :   1.5990 B(  3-C ,  5-H ) :   1.0157 B(  4-C , 20-C ) :   1.0457
B(  6-C ,  7-H ) :   0.9254 B(  6-C ,  8-H ) :   0.9469 B(  6-C ,  9-C ) :   1.0550
B(  9-C , 10-H ) :   0.9594 B(  9-C , 11-H ) :   0.9605 B(  9-C , 12-C ) :   1.0720
B( 12-C , 13-H ) :   0.9774 B( 12-C , 14-H ) :   0.9761 B( 12-C , 15-H ) :   0.9745
B( 16-S , 17-C ) :   1.1455 B( 16-S , 20-C ) :   1.1369 B( 17-C , 18-C ) :   1.6480
B( 17-C , 33-H ) :   0.9578 B( 18-C , 19-C ) :   1.2395 B( 18-C , 21-H ) :   0.9849
B( 19-C , 20-C ) :   1.6088 B( 19-C , 22-C ) :   1.0204 B( 22-C , 23-H ) :   0.9293
B( 22-C , 24-H ) :   0.9376 B( 22-C , 25-C ) :   1.0453 B( 25-C , 26-H ) :   0.9616
B( 25-C , 27-H ) :   0.9512 B( 25-C , 28-C ) :   1.0785 B( 28-C , 29-H ) :   0.9755
B( 28-C , 30-H ) :   0.9697 B( 28-C , 31-H ) :   0.9764

Dispersion correction           -0.014307794
FINAL SINGLE POINT ENERGY     -1339.866269954059

DIPOLE MOMENT
-------------
                                X             Y             Z
Electronic contribution:     -9.34599     -26.12587      -6.89912
Nuclear contribution   :      9.79765      26.68628       6.83907
                        -----------------------------------------
Total Dipole Moment    :      0.45165       0.56041      -0.06005
                        -----------------------------------------
Magnitude (a.u.)       :      0.72226
Magnitude (Debye)      :      1.83583

Rotational constants in cm-1:     0.019197     0.008126     0.006732
Rotational constants in MHz :   575.504754   243.620022   201.815677

                             ****ORCA TERMINATED NORMALLY****
TOTAL RUN TIME: 0 days 0 hours 0 minutes 28 seconds 356 msec
