                         Program Version 4.2.1 -  RELEASE  -
|  1> ! wB97X-D3 SP def2-SVP
|  2> %pal
|  3> nprocs 16
|  4> end
|  5>
|  6> * xyz 0 1
|  7> S 	 -34.6192 	 71.0619 	 141.977
|  8> C 	 -32.9921 	 71.1605 	 142.597
|  9> C 	 -32.8133 	 70.4122 	 143.749
| 10> C 	 -33.95 	 69.5887 	 143.955
| 11> C 	 -35.0078 	 69.7458 	 143.102
| 12> H 	 -34.0124 	 68.8795 	 144.772
| 13> C 	 -31.5405 	 70.3403 	 144.609
| 14> H 	 -31.2712 	 71.3043 	 144.916
| 15> H 	 -30.7507 	 69.9442 	 143.954
| 16> C 	 -31.4723 	 69.5046 	 145.882
| 17> H 	 -31.8921 	 68.4853 	 145.608
| 18> H 	 -30.4477 	 69.2932 	 146.193
| 19> C 	 -32.5037 	 70.1445 	 146.91
| 20> H 	 -32.1401 	 71.0196 	 147.424
| 21> H 	 -33.5238 	 70.4534 	 146.542
| 22> H 	 -32.6764 	 69.3312 	 147.567
| 23> S 	 -37.7675 	 69.7087 	 143.644
| 24> C 	 -38.6569 	 68.1866 	 143.482
| 25> C 	 -37.8056 	 67.2467 	 142.884
| 26> C 	 -36.4917 	 67.6815 	 142.496
| 27> C 	 -36.2465 	 68.9305 	 143.078
| 28> H 	 -38.1457 	 66.2596 	 142.637
| 29> C 	 -35.4451 	 66.657 	 141.931
| 30> H 	 -34.7213 	 67.0704 	 141.25
| 31> H 	 -36.0731 	 65.972 	 141.424
| 32> C 	 -34.8281 	 65.8897 	 143.062
| 33> H 	 -35.7086 	 65.4415 	 143.53
| 34> H 	 -34.2351 	 66.4851 	 143.708
| 35> C 	 -33.876 	 64.8505 	 142.51
| 36> H 	 -33.1797 	 65.2941 	 141.835
| 37> H 	 -34.4959 	 64.1653 	 141.958
| 38> H 	 -33.4098 	 64.2474 	 143.262
| 39> H 	 -32.169 	 71.7492 	 142.262
| 40> H 	 -39.4946 	 67.9939 	 144.176
| 41> *
| 42>
| 43>                          ****END OF INPUT****

CARTESIAN COORDINATES (ANGSTROEM)
---------------------------------
  S    -34.619200   71.061900  141.977000
  C    -32.992100   71.160500  142.597000
  C    -32.813300   70.412200  143.749000
  C    -33.950000   69.588700  143.955000
  C    -35.007800   69.745800  143.102000
  H    -34.012400   68.879500  144.772000
  C    -31.540500   70.340300  144.609000
  H    -31.271200   71.304300  144.916000
  H    -30.750700   69.944200  143.954000
  C    -31.472300   69.504600  145.882000
  H    -31.892100   68.485300  145.608000
  H    -30.447700   69.293200  146.193000
  C    -32.503700   70.144500  146.910000
  H    -32.140100   71.019600  147.424000
  H    -33.523800   70.453400  146.542000
  H    -32.676400   69.331200  147.567000
  S    -37.767500   69.708700  143.644000
  C    -38.656900   68.186600  143.482000
  C    -37.805600   67.246700  142.884000
  C    -36.491700   67.681500  142.496000
  C    -36.246500   68.930500  143.078000
  H    -38.145700   66.259600  142.637000
  C    -35.445100   66.657000  141.931000
  H    -34.721300   67.070400  141.250000
  H    -36.073100   65.972000  141.424000
  C    -34.828100   65.889700  143.062000
  H    -35.708600   65.441500  143.530000
  H    -34.235100   66.485100  143.708000
  C    -33.876000   64.850500  142.510000
  H    -33.179700   65.294100  141.835000
  H    -34.495900   64.165300  141.958000
  H    -33.409800   64.247400  143.262000
  H    -32.169000   71.749200  142.262000
  H    -39.494600   67.993900  144.176000

 Total Charge           Charge          ....    0
 Multiplicity           Mult            ....    1
 Number of Electrons    NEL             ....  134
 Basis Dimension        Dim             ....  322

ORBITAL ENERGIES
----------------

  NO   OCC          E(Eh)            E(eV)
   0   2.0000     -88.967457     -2420.9276
   1   2.0000     -88.962393     -2420.7898
   2   2.0000     -10.334230      -281.2087
   3   2.0000     -10.327929      -281.0372
   4   2.0000     -10.322373      -280.8860
   5   2.0000     -10.311300      -280.5847
   6   2.0000     -10.310247      -280.5561
   7   2.0000     -10.300497      -280.2908
   8   2.0000     -10.299402      -280.2610
   9   2.0000     -10.299388      -280.2606
  10   2.0000     -10.291280      -280.0400
  11   2.0000     -10.290508      -280.0189
  12   2.0000     -10.289520      -279.9921
  13   2.0000     -10.280284      -279.7407
  14   2.0000     -10.278563      -279.6939
  15   2.0000     -10.269656      -279.4516
  16   2.0000      -8.081555      -219.9103
  17   2.0000      -8.076372      -219.7693
  18   2.0000      -6.040184      -164.3618
  19   2.0000      -6.036149      -164.2520
  20   2.0000      -6.034925      -164.2187
  21   2.0000      -6.032220      -164.1450
  22   2.0000      -6.030976      -164.1112
  23   2.0000      -6.027137      -164.0067
  24   2.0000      -1.000076       -27.2135
  25   2.0000      -0.979053       -26.6414
  26   2.0000      -0.919866       -25.0308
  27   2.0000      -0.909955       -24.7611
  28   2.0000      -0.863791       -23.5049
  29   2.0000      -0.849200       -23.1079
  30   2.0000      -0.840330       -22.8665
  31   2.0000      -0.810818       -22.0635
  32   2.0000      -0.785385       -21.3714
  33   2.0000      -0.775264       -21.0960
  34   2.0000      -0.706512       -19.2252
  35   2.0000      -0.699080       -19.0229
  36   2.0000      -0.691194       -18.8083
  37   2.0000      -0.661567       -18.0021
  38   2.0000      -0.636683       -17.3250
  39   2.0000      -0.622876       -16.9493
  40   2.0000      -0.599237       -16.3061
  41   2.0000      -0.581111       -15.8128
  42   2.0000      -0.566277       -15.4092
  43   2.0000      -0.549214       -14.9449
  44   2.0000      -0.531603       -14.4657
  45   2.0000      -0.528574       -14.3832
  46   2.0000      -0.518895       -14.1199
  47   2.0000      -0.512609       -13.9488
  48   2.0000      -0.508313       -13.8319
  49   2.0000      -0.494918       -13.4674
  50   2.0000      -0.487337       -13.2611
  51   2.0000      -0.486400       -13.2356
  52   2.0000      -0.471151       -12.8207
  53   2.0000      -0.468326       -12.7438
  54   2.0000      -0.459506       -12.5038
  55   2.0000      -0.444769       -12.1028
  56   2.0000      -0.441296       -12.0083
  57   2.0000      -0.436505       -11.8779
  58   2.0000      -0.432590       -11.7714
  59   2.0000      -0.431203       -11.7336
  60   2.0000      -0.418983       -11.4011
  61   2.0000      -0.415134       -11.2964
  62   2.0000      -0.405491       -11.0340
  63   2.0000      -0.335800        -9.1376
  64   2.0000      -0.329151        -8.9566
  65   2.0000      -0.326004        -8.8710
  66   2.0000      -0.301221        -8.1966
  67   0.0000       0.035920         0.9774
  68   0.0000       0.046640         1.2692
  69   0.0000       0.110711         3.0126
  70   0.0000       0.118127         3.2144
  71   0.0000       0.128633         3.5003

MULLIKEN ATOMIC CHARGES
-----------------------
   0 S :    0.128038
   1 C :   -0.114814
   2 C :   -0.093081
   3 C :    0.023438
   4 C :   -0.148354
   5 H :    0.012018
   6 C :    0.088115
   7 H :    0.017023
   8 H :    0.037822
   9 C :   -0.093495
  10 H :    0.027883
  11 H :    0.044093
  12 C :   -0.079384
  13 H :    0.037887
  14 H :    0.056911
  15 H :    0.029805
  16 S :    0.084101
  17 C :   -0.099109
  18 C :   -0.047617
  19 C :   -0.010359
  20 C :   -0.200931
  21 H :    0.016726
  22 C :    0.078361
  23 H :    0.032914
  24 H :    0.006168
  25 C :   -0.061803
  26 H :    0.022835
  27 H :    0.021152
  28 C :    0.001999
  29 H :    0.026050
  30 H :    0.007070
  31 H :    0.029620
  32 H :    0.029929
  33 H :    0.088989
Sum of atomic charges:   -0.0000000

LOEWDIN ATOMIC CHARGES
----------------------
   0 S :    0.402195
   1 C :   -0.192959
   2 C :   -0.063717
   3 C :   -0.061643
   4 C :   -0.199857
   5 H :    0.027299
   6 C :   -0.034265
   7 H :    0.022098
   8 H :    0.034969
   9 C :   -0.039136
  10 H :    0.024607
  11 H :    0.031316
  12 C :   -0.070949
  13 H :    0.023265
  14 H :    0.038339
  15 H :    0.021451
  16 S :    0.374008
  17 C :   -0.193799
  18 C :   -0.066439
  19 C :   -0.045893
  20 C :   -0.178808
  21 H :    0.023791
  22 C :   -0.014723
  23 H :    0.028612
  24 H :    0.024537
  25 C :   -0.033096
  26 H :    0.026652
  27 H :    0.016281
  28 C :   -0.055910
  29 H :    0.022401
  30 H :    0.020468
  31 H :    0.023470
  32 H :    0.024938
  33 H :    0.040494

  Mayer bond orders larger than 0.100000
B(  0-S ,  1-C ) :   1.1490 B(  0-S ,  4-C ) :   1.1296 B(  1-C ,  2-C ) :   1.6245
B(  1-C , 32-H ) :   0.9694 B(  2-C ,  3-C ) :   1.2556 B(  2-C ,  6-C ) :   0.9954
B(  3-C ,  4-C ) :   1.6043 B(  3-C ,  5-H ) :   0.9798 B(  4-C , 20-C ) :   1.0200
B(  6-C ,  7-H ) :   0.9359 B(  6-C ,  8-H ) :   0.9373 B(  6-C ,  9-C ) :   1.0920
B(  9-C , 10-H ) :   0.9548 B(  9-C , 11-H ) :   0.9553 B(  9-C , 12-C ) :   1.0483
B( 12-C , 13-H ) :   0.9774 B( 12-C , 14-H ) :   0.9765 B( 12-C , 15-H ) :   0.9789
B( 16-S , 17-C ) :   1.1437 B( 16-S , 20-C ) :   1.1531 B( 17-C , 18-C ) :   1.6130
B( 17-C , 20-C ) :   0.1089 B( 17-C , 33-H ) :   0.9594 B( 18-C , 19-C ) :   1.2346
B( 18-C , 21-H ) :   0.9781 B( 19-C , 20-C ) :   1.5848 B( 19-C , 22-C ) :   1.0441
B( 22-C , 23-H ) :   0.9386 B( 22-C , 24-H ) :   0.9310 B( 22-C , 25-C ) :   1.0727
B( 25-C , 26-H ) :   0.9539 B( 25-C , 27-H ) :   0.9536 B( 25-C , 28-C ) :   1.0877
B( 28-C , 29-H ) :   0.9719 B( 28-C , 30-H ) :   0.9721 B( 28-C , 31-H ) :   0.9715

Dispersion correction           -0.014648877
FINAL SINGLE POINT ENERGY     -1339.850939860168

DIPOLE MOMENT
-------------
                                X             Y             Z
Electronic contribution:    -18.33729      17.07697     -10.38907
Nuclear contribution   :     18.91661     -17.67971      10.72453
                        -----------------------------------------
Total Dipole Moment    :      0.57932      -0.60274       0.33545
                        -----------------------------------------
Magnitude (a.u.)       :      0.90080
Magnitude (Debye)      :      2.28966

Rotational constants in cm-1:     0.016094     0.009472     0.007841
Rotational constants in MHz :   482.482820   283.970486   235.058044

                             ****ORCA TERMINATED NORMALLY****
TOTAL RUN TIME: 0 days 0 hours 0 minutes 34 seconds 587 msec
