                         Program Version 4.2.1 -  RELEASE  -
|  1> ! wB97X-D3 SP def2-SVP
|  2> %pal
|  3> nprocs 16
|  4> end
|  5>
|  6> * xyz 0 1
|  7> S 	 45.7797 	 12.3084 	 49.0038
|  8> C 	 44.1857 	 12.1845 	 48.2438
|  9> C 	 43.1731 	 12.6198 	 49.1032
| 10> C 	 43.7294 	 13.1062 	 50.3461
| 11> C 	 45.1166 	 13.0969 	 50.4753
| 12> H 	 43.1138 	 13.5163 	 51.1758
| 13> C 	 41.6955 	 12.5802 	 48.8822
| 14> H 	 41.4094 	 13.3991 	 48.2485
| 15> H 	 41.1511 	 12.8112 	 49.7748
| 16> C 	 41.0845 	 11.3618 	 48.2391
| 17> H 	 41.5343 	 11.2655 	 47.2699
| 18> H 	 41.44 	 10.4814 	 48.8095
| 19> C 	 39.4958 	 11.2909 	 48.2369
| 20> H 	 39.0864 	 10.3538 	 48.0648
| 21> H 	 39.1124 	 11.6183 	 49.1771
| 22> H 	 39.0898 	 12.0438 	 47.5944
| 23> S 	 47.2631 	 14.3276 	 51.3177
| 24> C 	 47.9221 	 14.0631 	 52.8307
| 25> C 	 47.0531 	 13.4041 	 53.6676
| 26> C 	 45.7863 	 13.0898 	 53.0303
| 27> C 	 45.9024 	 13.3635 	 51.639
| 28> H 	 47.3075 	 13.4 	 54.7098
| 29> C 	 44.5919 	 12.5708 	 53.8478
| 30> H 	 44.9416 	 11.8021 	 54.5734
| 31> H 	 43.9157 	 12.028 	 53.2883
| 32> C 	 43.8806 	 13.6252 	 54.7758
| 33> H 	 44.6343 	 14.0609 	 55.4171
| 34> H 	 43.1396 	 13.2472 	 55.4517
| 35> C 	 43.1184 	 14.6212 	 53.9586
| 36> H 	 43.6184 	 14.8411 	 52.9981
| 37> H 	 42.9877 	 15.6258 	 54.3734
| 38> H 	 42.0856 	 14.3341 	 53.6636
| 39> H 	 43.916 	 11.7259 	 47.2463
| 40> H 	 48.9004 	 14.4667 	 53.1286
| 41> *
| 42>
| 43>                          ****END OF INPUT****

CARTESIAN COORDINATES (ANGSTROEM)
---------------------------------
  S     45.779700   12.308400   49.003800
  C     44.185700   12.184500   48.243800
  C     43.173100   12.619800   49.103200
  C     43.729400   13.106200   50.346100
  C     45.116600   13.096900   50.475300
  H     43.113800   13.516300   51.175800
  C     41.695500   12.580200   48.882200
  H     41.409400   13.399100   48.248500
  H     41.151100   12.811200   49.774800
  C     41.084500   11.361800   48.239100
  H     41.534300   11.265500   47.269900
  H     41.440000   10.481400   48.809500
  C     39.495800   11.290900   48.236900
  H     39.086400   10.353800   48.064800
  H     39.112400   11.618300   49.177100
  H     39.089800   12.043800   47.594400
  S     47.263100   14.327600   51.317700
  C     47.922100   14.063100   52.830700
  C     47.053100   13.404100   53.667600
  C     45.786300   13.089800   53.030300
  C     45.902400   13.363500   51.639000
  H     47.307500   13.400000   54.709800
  C     44.591900   12.570800   53.847800
  H     44.941600   11.802100   54.573400
  H     43.915700   12.028000   53.288300
  C     43.880600   13.625200   54.775800
  H     44.634300   14.060900   55.417100
  H     43.139600   13.247200   55.451700
  C     43.118400   14.621200   53.958600
  H     43.618400   14.841100   52.998100
  H     42.987700   15.625800   54.373400
  H     42.085600   14.334100   53.663600
  H     43.916000   11.725900   47.246300
  H     48.900400   14.466700   53.128600

 Total Charge           Charge          ....    0
 Multiplicity           Mult            ....    1
 Number of Electrons    NEL             ....  134
 Basis Dimension        Dim             ....  322

ORBITAL ENERGIES
----------------

  NO   OCC          E(Eh)            E(eV)
   0   2.0000     -88.967466     -2420.9278
   1   2.0000     -88.964094     -2420.8361
   2   2.0000     -10.330820      -281.1159
   3   2.0000     -10.325965      -280.9838
   4   2.0000     -10.322530      -280.8903
   5   2.0000     -10.315530      -280.6998
   6   2.0000     -10.311452      -280.5889
   7   2.0000     -10.304109      -280.3891
   8   2.0000     -10.297096      -280.1982
   9   2.0000     -10.294258      -280.1210
  10   2.0000     -10.293119      -280.0900
  11   2.0000     -10.288889      -279.9749
  12   2.0000     -10.287541      -279.9382
  13   2.0000     -10.285897      -279.8935
  14   2.0000     -10.275892      -279.6212
  15   2.0000     -10.275394      -279.6077
  16   2.0000      -8.081541      -219.9099
  17   2.0000      -8.080796      -219.8896
  18   2.0000      -6.039738      -164.3496
  19   2.0000      -6.039527      -164.3439
  20   2.0000      -6.035588      -164.2367
  21   2.0000      -6.035467      -164.2334
  22   2.0000      -6.032526      -164.1534
  23   2.0000      -6.031387      -164.1224
  24   2.0000      -1.014526       -27.6066
  25   2.0000      -0.980711       -26.6865
  26   2.0000      -0.914051       -24.8726
  27   2.0000      -0.909942       -24.7608
  28   2.0000      -0.871739       -23.7212
  29   2.0000      -0.851892       -23.1812
  30   2.0000      -0.843399       -22.9501
  31   2.0000      -0.812458       -22.1081
  32   2.0000      -0.787012       -21.4157
  33   2.0000      -0.775625       -21.1058
  34   2.0000      -0.713701       -19.4208
  35   2.0000      -0.710455       -19.3325
  36   2.0000      -0.693803       -18.8793
  37   2.0000      -0.659466       -17.9450
  38   2.0000      -0.632024       -17.1983
  39   2.0000      -0.616951       -16.7881
  40   2.0000      -0.600315       -16.3354
  41   2.0000      -0.572708       -15.5842
  42   2.0000      -0.563744       -15.3402
  43   2.0000      -0.553187       -15.0530
  44   2.0000      -0.545203       -14.8357
  45   2.0000      -0.527077       -14.3425
  46   2.0000      -0.518848       -14.1186
  47   2.0000      -0.510618       -13.8946
  48   2.0000      -0.502122       -13.6634
  49   2.0000      -0.495741       -13.4898
  50   2.0000      -0.493046       -13.4165
  51   2.0000      -0.481946       -13.1144
  52   2.0000      -0.470668       -12.8075
  53   2.0000      -0.469353       -12.7717
  54   2.0000      -0.460812       -12.5393
  55   2.0000      -0.448485       -12.2039
  56   2.0000      -0.443415       -12.0659
  57   2.0000      -0.436542       -11.8789
  58   2.0000      -0.433144       -11.7864
  59   2.0000      -0.427666       -11.6374
  60   2.0000      -0.419798       -11.4233
  61   2.0000      -0.419090       -11.4040
  62   2.0000      -0.416373       -11.3301
  63   2.0000      -0.347073        -9.4443
  64   2.0000      -0.330441        -8.9918
  65   2.0000      -0.325990        -8.8706
  66   2.0000      -0.289848        -7.8872
  67   0.0000       0.024927         0.6783
  68   0.0000       0.070734         1.9248
  69   0.0000       0.107483         2.9248
  70   0.0000       0.115233         3.1357
  71   0.0000       0.127705         3.4750

MULLIKEN ATOMIC CHARGES
-----------------------
   0 S :    0.112133
   1 C :   -0.145691
   2 C :   -0.077260
   3 C :   -0.003083
   4 C :   -0.112663
   5 H :    0.011858
   6 C :    0.095404
   7 H :    0.027792
   8 H :    0.001887
   9 C :   -0.108293
  10 H :    0.024082
  11 H :    0.032182
  12 C :    0.006005
  13 H :    0.029780
  14 H :    0.008441
  15 H :    0.020568
  16 S :    0.131278
  17 C :   -0.095128
  18 C :   -0.042051
  19 C :   -0.014958
  20 C :   -0.196841
  21 H :    0.017457
  22 C :    0.071496
  23 H :    0.027820
  24 H :    0.006661
  25 C :   -0.027266
  26 H :    0.025443
  27 H :    0.028749
  28 C :   -0.087482
  29 H :    0.037287
  30 H :    0.028869
  31 H :    0.030519
  32 H :    0.071293
  33 H :    0.063709
Sum of atomic charges:    0.0000000

LOEWDIN ATOMIC CHARGES
----------------------
   0 S :    0.386024
   1 C :   -0.203740
   2 C :   -0.062399
   3 C :   -0.064210
   4 C :   -0.194476
   5 H :    0.032831
   6 C :   -0.037663
   7 H :    0.033852
   8 H :    0.025295
   9 C :   -0.036348
  10 H :    0.016471
  11 H :    0.025751
  12 C :   -0.052368
  13 H :    0.019996
  14 H :    0.022450
  15 H :    0.023545
  16 S :    0.469443
  17 C :   -0.213515
  18 C :   -0.073857
  19 C :   -0.044515
  20 C :   -0.220502
  21 H :    0.029529
  22 C :   -0.025285
  23 H :    0.038414
  24 H :    0.016881
  25 C :   -0.035785
  26 H :    0.023667
  27 H :    0.026550
  28 C :   -0.079280
  29 H :    0.024717
  30 H :    0.027211
  31 H :    0.025097
  32 H :    0.043238
  33 H :    0.032984

  Mayer bond orders larger than 0.100000
B(  0-S ,  1-C ) :   1.1358 B(  0-S ,  4-C ) :   1.1256 B(  1-C ,  2-C ) :   1.6036
B(  1-C , 32-H ) :   0.9572 B(  2-C ,  3-C ) :   1.2508 B(  2-C ,  6-C ) :   1.0293
B(  3-C ,  4-C ) :   1.5749 B(  3-C ,  5-H ) :   0.9850 B(  4-C , 20-C ) :   1.0650
B(  6-C ,  7-H ) :   0.9222 B(  6-C ,  8-H ) :   0.9387 B(  6-C ,  9-C ) :   1.0611
B(  9-C , 10-H ) :   0.9541 B(  9-C , 11-H ) :   0.9639 B(  9-C , 12-C ) :   1.0751
B( 12-C , 13-H ) :   0.9782 B( 12-C , 14-H ) :   0.9725 B( 12-C , 15-H ) :   0.9749
B( 16-S , 17-C ) :   1.1801 B( 16-S , 20-C ) :   1.1884 B( 17-C , 18-C ) :   1.5828
B( 17-C , 33-H ) :   0.9653 B( 18-C , 19-C ) :   1.2560 B( 18-C , 21-H ) :   0.9909
B( 19-C , 20-C ) :   1.5195 B( 19-C , 22-C ) :   1.0522 B( 22-C , 23-H ) :   0.9335
B( 22-C , 24-H ) :   0.9412 B( 22-C , 25-C ) :   1.0659 B( 25-C , 26-H ) :   0.9577
B( 25-C , 27-H ) :   0.9566 B( 25-C , 28-C ) :   1.0680 B( 28-C , 29-H ) :   0.9722
B( 28-C , 30-H ) :   0.9683 B( 28-C , 31-H ) :   0.9742

Dispersion correction           -0.014372609
FINAL SINGLE POINT ENERGY     -1339.863480154659

DIPOLE MOMENT
-------------
                                X             Y             Z
Electronic contribution:     28.94389       3.17715      -6.65489
Nuclear contribution   :    -29.54960      -3.15662       7.08302
                        -----------------------------------------
Total Dipole Moment    :     -0.60571       0.02053       0.42813
                        -----------------------------------------
Magnitude (a.u.)       :      0.74203
Magnitude (Debye)      :      1.88608

Rotational constants in cm-1:     0.020455     0.008158     0.006227
Rotational constants in MHz :   613.229172   244.567339   186.670431

                             ****ORCA TERMINATED NORMALLY****
TOTAL RUN TIME: 0 days 0 hours 0 minutes 34 seconds 534 msec
