                         Program Version 4.2.1 -  RELEASE  -
|  1> ! wB97X-D3 SP def2-SVP
|  2> %pal
|  3> nprocs 16
|  4> end
|  5>
|  6> * xyz 0 1
|  7> S 	 5.45962 	 -3.8695 	 100.06
|  8> C 	 3.96266 	 -4.70046 	 99.6366
|  9> C 	 4.12396 	 -5.7453 	 98.7133
| 10> C 	 5.48928 	 -5.87498 	 98.3501
| 11> C 	 6.32791 	 -4.80006 	 98.8638
| 12> H 	 5.93393 	 -6.65105 	 97.7258
| 13> C 	 3.02315 	 -6.64402 	 98.3142
| 14> H 	 2.08852 	 -6.51185 	 98.8952
| 15> H 	 3.33589 	 -7.70311 	 98.4863
| 16> C 	 2.81158 	 -6.57346 	 96.7882
| 17> H 	 2.73219 	 -5.5728 	 96.4746
| 18> H 	 3.7221 	 -6.92592 	 96.3022
| 19> C 	 1.58764 	 -7.30816 	 96.3394
| 20> H 	 1.60467 	 -8.34802 	 96.8053
| 21> H 	 0.582661 	 -6.83722 	 96.5936
| 22> H 	 1.63592 	 -7.33114 	 95.2417
| 23> S 	 8.53 	 -4.915 	 100.55
| 24> C 	 10.0597 	 -4.78122 	 99.9161
| 25> C 	 10.0399 	 -4.58589 	 98.5254
| 26> C 	 8.72519 	 -4.6266 	 97.9592
| 27> C 	 7.76406 	 -4.74849 	 98.9653
| 28> H 	 10.9733 	 -4.47667 	 98.0058
| 29> C 	 8.50587 	 -4.54903 	 96.4552
| 30> H 	 8.11654 	 -5.47395 	 96.1025
| 31> H 	 9.51973 	 -4.5051 	 96.0428
| 32> C 	 7.81614 	 -3.23717 	 96.0359
| 33> H 	 8.09503 	 -2.56283 	 96.7428
| 34> H 	 6.77192 	 -3.32408 	 96.2015
| 35> C 	 8.23496 	 -2.84766 	 94.6042
| 36> H 	 9.32399 	 -2.79763 	 94.5826
| 37> H 	 7.87119 	 -1.88643 	 94.3618
| 38> H 	 7.78502 	 -3.4253 	 93.8361
| 39> H 	 2.98111 	 -4.4789 	 99.9156
| 40> H 	 11.0031 	 -4.67391 	 100.497
| 41> *
| 42>
| 43>                          ****END OF INPUT****

CARTESIAN COORDINATES (ANGSTROEM)
---------------------------------
  S      5.459620   -3.869500  100.060000
  C      3.962660   -4.700460   99.636600
  C      4.123960   -5.745300   98.713300
  C      5.489280   -5.874980   98.350100
  C      6.327910   -4.800060   98.863800
  H      5.933930   -6.651050   97.725800
  C      3.023150   -6.644020   98.314200
  H      2.088520   -6.511850   98.895200
  H      3.335890   -7.703110   98.486300
  C      2.811580   -6.573460   96.788200
  H      2.732190   -5.572800   96.474600
  H      3.722100   -6.925920   96.302200
  C      1.587640   -7.308160   96.339400
  H      1.604670   -8.348020   96.805300
  H      0.582661   -6.837220   96.593600
  H      1.635920   -7.331140   95.241700
  S      8.530000   -4.915000  100.550000
  C     10.059700   -4.781220   99.916100
  C     10.039900   -4.585890   98.525400
  C      8.725190   -4.626600   97.959200
  C      7.764060   -4.748490   98.965300
  H     10.973300   -4.476670   98.005800
  C      8.505870   -4.549030   96.455200
  H      8.116540   -5.473950   96.102500
  H      9.519730   -4.505100   96.042800
  C      7.816140   -3.237170   96.035900
  H      8.095030   -2.562830   96.742800
  H      6.771920   -3.324080   96.201500
  C      8.234960   -2.847660   94.604200
  H      9.323990   -2.797630   94.582600
  H      7.871190   -1.886430   94.361800
  H      7.785020   -3.425300   93.836100
  H      2.981110   -4.478900   99.915600
  H     11.003100   -4.673910  100.497000

 Total Charge           Charge          ....    0
 Multiplicity           Mult            ....    1
 Number of Electrons    NEL             ....  134
 Basis Dimension        Dim             ....  322

ORBITAL ENERGIES
----------------

  NO   OCC          E(Eh)            E(eV)
   0   2.0000     -88.970984     -2421.0236
   1   2.0000     -88.965409     -2420.8719
   2   2.0000     -10.331748      -281.1411
   3   2.0000     -10.320940      -280.8471
   4   2.0000     -10.312035      -280.6047
   5   2.0000     -10.310343      -280.5587
   6   2.0000     -10.303783      -280.3802
   7   2.0000     -10.301187      -280.3095
   8   2.0000     -10.300050      -280.2786
   9   2.0000     -10.295650      -280.1589
  10   2.0000     -10.289021      -279.9785
  11   2.0000     -10.287667      -279.9416
  12   2.0000     -10.285438      -279.8810
  13   2.0000     -10.280870      -279.7567
  14   2.0000     -10.271157      -279.4924
  15   2.0000     -10.270640      -279.4783
  16   2.0000      -8.084996      -220.0039
  17   2.0000      -8.081298      -219.9033
  18   2.0000      -6.043390      -164.4490
  19   2.0000      -6.039637      -164.3469
  20   2.0000      -6.039547      -164.3444
  21   2.0000      -6.035977      -164.2473
  22   2.0000      -6.035521      -164.2349
  23   2.0000      -6.032273      -164.1465
  24   2.0000      -1.006333       -27.3837
  25   2.0000      -0.981775       -26.7154
  26   2.0000      -0.919745       -25.0275
  27   2.0000      -0.911428       -24.8012
  28   2.0000      -0.869706       -23.6659
  29   2.0000      -0.853549       -23.2262
  30   2.0000      -0.843390       -22.9498
  31   2.0000      -0.806247       -21.9391
  32   2.0000      -0.784416       -21.3451
  33   2.0000      -0.769669       -20.9438
  34   2.0000      -0.715628       -19.4732
  35   2.0000      -0.701668       -19.0933
  36   2.0000      -0.690766       -18.7967
  37   2.0000      -0.657739       -17.8980
  38   2.0000      -0.638558       -17.3760
  39   2.0000      -0.616960       -16.7883
  40   2.0000      -0.594870       -16.1872
  41   2.0000      -0.574353       -15.6290
  42   2.0000      -0.568809       -15.4781
  43   2.0000      -0.557331       -15.1658
  44   2.0000      -0.528578       -14.3833
  45   2.0000      -0.520026       -14.1506
  46   2.0000      -0.517295       -14.0763
  47   2.0000      -0.508887       -13.8475
  48   2.0000      -0.503684       -13.7059
  49   2.0000      -0.498104       -13.5541
  50   2.0000      -0.492194       -13.3933
  51   2.0000      -0.482261       -13.1230
  52   2.0000      -0.471833       -12.8392
  53   2.0000      -0.461896       -12.5688
  54   2.0000      -0.459229       -12.4963
  55   2.0000      -0.449220       -12.2239
  56   2.0000      -0.447870       -12.1872
  57   2.0000      -0.440713       -11.9924
  58   2.0000      -0.431697       -11.7471
  59   2.0000      -0.430564       -11.7162
  60   2.0000      -0.422414       -11.4945
  61   2.0000      -0.417361       -11.3570
  62   2.0000      -0.413547       -11.2532
  63   2.0000      -0.339062        -9.2263
  64   2.0000      -0.333234        -9.0678
  65   2.0000      -0.326928        -8.8962
  66   2.0000      -0.285246        -7.7620
  67   0.0000       0.026747         0.7278
  68   0.0000       0.063116         1.7175
  69   0.0000       0.111480         3.0335
  70   0.0000       0.124712         3.3936
  71   0.0000       0.127501         3.4695

MULLIKEN ATOMIC CHARGES
-----------------------
   0 S :    0.113196
   1 C :   -0.081410
   2 C :   -0.080580
   3 C :    0.029154
   4 C :   -0.173440
   5 H :    0.023948
   6 C :    0.051329
   7 H :    0.027555
   8 H :    0.036548
   9 C :   -0.079013
  10 H :    0.018962
  11 H :    0.027559
  12 C :   -0.064060
  13 H :    0.035792
  14 H :    0.045163
  15 H :    0.038736
  16 S :    0.137904
  17 C :   -0.106548
  18 C :   -0.053653
  19 C :   -0.062386
  20 C :   -0.178525
  21 H :    0.011231
  22 C :    0.107926
  23 H :    0.025312
  24 H :   -0.002388
  25 C :   -0.029455
  26 H :    0.006998
  27 H :    0.030391
  28 C :   -0.011348
  29 H :    0.031142
  30 H :    0.012317
  31 H :    0.026123
  32 H :    0.014180
  33 H :    0.071339
Sum of atomic charges:    0.0000000

LOEWDIN ATOMIC CHARGES
----------------------
   0 S :    0.416795
   1 C :   -0.189793
   2 C :   -0.061215
   3 C :   -0.051705
   4 C :   -0.201562
   5 H :    0.031061
   6 C :   -0.034539
   7 H :    0.031949
   8 H :    0.038183
   9 C :   -0.042764
  10 H :    0.017824
  11 H :    0.025024
  12 C :   -0.073199
  13 H :    0.029793
  14 H :    0.031620
  15 H :    0.028763
  16 S :    0.442169
  17 C :   -0.226130
  18 C :   -0.079907
  19 C :   -0.051376
  20 C :   -0.217426
  21 H :    0.025675
  22 C :   -0.022184
  23 H :    0.024722
  24 H :    0.028044
  25 C :   -0.026187
  26 H :    0.014746
  27 H :    0.023111
  28 C :   -0.055509
  29 H :    0.026655
  30 H :    0.020747
  31 H :    0.023243
  32 H :    0.013337
  33 H :    0.040034

  Mayer bond orders larger than 0.100000
B(  0-S ,  1-C ) :   1.1465 B(  0-S ,  4-C ) :   1.1635 B(  1-C ,  2-C ) :   1.5782
B(  1-C ,  4-C ) :   0.1093 B(  1-C , 32-H ) :   0.9691 B(  2-C ,  3-C ) :   1.2719
B(  2-C ,  6-C ) :   1.0430 B(  3-C ,  4-C ) :   1.5153 B(  3-C ,  5-H ) :   0.9851
B(  4-C , 20-C ) :   1.0609 B(  6-C ,  7-H ) :   0.9480 B(  6-C ,  8-H ) :   0.9300
B(  6-C ,  9-C ) :   1.0455 B(  9-C , 10-H ) :   0.9556 B(  9-C , 11-H ) :   0.9525
B(  9-C , 12-C ) :   1.0926 B( 12-C , 13-H ) :   0.9692 B( 12-C , 14-H ) :   0.9737
B( 12-C , 15-H ) :   0.9717 B( 16-S , 17-C ) :   1.1913 B( 16-S , 20-C ) :   1.1489
B( 17-C , 18-C ) :   1.5727 B( 17-C , 33-H ) :   0.9584 B( 18-C , 19-C ) :   1.2800
B( 18-C , 21-H ) :   0.9904 B( 19-C , 20-C ) :   1.5606 B( 19-C , 22-C ) :   1.0391
B( 22-C , 23-H ) :   0.9286 B( 22-C , 24-H ) :   0.9333 B( 22-C , 25-C ) :   1.0517
B( 25-C , 26-H ) :   0.9547 B( 25-C , 27-H ) :   0.9495 B( 25-C , 28-C ) :   1.0921
B( 28-C , 29-H ) :   0.9754 B( 28-C , 30-H ) :   0.9710 B( 28-C , 31-H ) :   0.9740

Dispersion correction           -0.013884210
FINAL SINGLE POINT ENERGY     -1339.866262378481

DIPOLE MOMENT
-------------
                                X             Y             Z
Electronic contribution:     11.22945       4.66571      25.96610
Nuclear contribution   :    -11.36906      -4.86298     -26.46309
                        -----------------------------------------
Total Dipole Moment    :     -0.13961      -0.19727      -0.49699
                        -----------------------------------------
Magnitude (a.u.)       :      0.55263
Magnitude (Debye)      :      1.40468

Rotational constants in cm-1:     0.018022     0.008498     0.006616
Rotational constants in MHz :   540.291548   254.753405   198.354103

                             ****ORCA TERMINATED NORMALLY****
TOTAL RUN TIME: 0 days 0 hours 0 minutes 33 seconds 679 msec
