                         Program Version 4.2.1 -  RELEASE  -
|  1> ! wB97X-D3 SP def2-SVP
|  2> %pal
|  3> nprocs 16
|  4> end
|  5>
|  6> * xyz 0 1
|  7> S 	 -86.6005 	 50.0381 	 130.775
|  8> C 	 -86.429 	 48.3134 	 130.965
|  9> C 	 -85.1332 	 47.9728 	 131.04
| 10> C 	 -84.2205 	 49.0712 	 130.833
| 11> C 	 -84.8751 	 50.3046 	 130.722
| 12> H 	 -83.1721 	 49.0783 	 130.783
| 13> C 	 -84.6343 	 46.5612 	 131.281
| 14> H 	 -83.8091 	 46.3139 	 130.532
| 15> H 	 -85.4128 	 45.8446 	 130.959
| 16> C 	 -84.3991 	 46.1523 	 132.717
| 17> H 	 -85.3369 	 46.263 	 133.293
| 18> H 	 -84.142 	 45.0791 	 132.776
| 19> C 	 -83.3533 	 47.057 	 133.505
| 20> H 	 -83.6585 	 48.1178 	 133.569
| 21> H 	 -83.1603 	 46.6155 	 134.52
| 22> H 	 -82.4162 	 47.1231 	 133.003
| 23> S 	 -83.1619 	 52.19 	 131.528
| 24> C 	 -82.9727 	 53.6077 	 130.517
| 25> C 	 -83.8351 	 53.6624 	 129.467
| 26> C 	 -84.5038 	 52.4533 	 129.383
| 27> C 	 -84.2114 	 51.5502 	 130.391
| 28> H 	 -83.8323 	 54.5292 	 128.815
| 29> C 	 -85.2295 	 52.1526 	 128.155
| 30> H 	 -85.4603 	 51.1092 	 128.04
| 31> H 	 -84.6113 	 52.4504 	 127.338
| 32> C 	 -86.6898 	 52.7963 	 128.037
| 33> H 	 -86.6008 	 53.8634 	 128.095
| 34> H 	 -87.3114 	 52.5644 	 128.913
| 35> C 	 -87.3448 	 52.4208 	 126.688
| 36> H 	 -87.6942 	 51.3277 	 126.627
| 37> H 	 -86.6933 	 52.6978 	 125.819
| 38> H 	 -88.19 	 53.0581 	 126.399
| 39> H 	 -87.2578 	 47.6196 	 131.167
| 40> H 	 -82.2902 	 54.4612 	 130.821
| 41> *
| 42>
| 43>                          ****END OF INPUT****

CARTESIAN COORDINATES (ANGSTROEM)
---------------------------------
  S    -86.600500   50.038100  130.775000
  C    -86.429000   48.313400  130.965000
  C    -85.133200   47.972800  131.040000
  C    -84.220500   49.071200  130.833000
  C    -84.875100   50.304600  130.722000
  H    -83.172100   49.078300  130.783000
  C    -84.634300   46.561200  131.281000
  H    -83.809100   46.313900  130.532000
  H    -85.412800   45.844600  130.959000
  C    -84.399100   46.152300  132.717000
  H    -85.336900   46.263000  133.293000
  H    -84.142000   45.079100  132.776000
  C    -83.353300   47.057000  133.505000
  H    -83.658500   48.117800  133.569000
  H    -83.160300   46.615500  134.520000
  H    -82.416200   47.123100  133.003000
  S    -83.161900   52.190000  131.528000
  C    -82.972700   53.607700  130.517000
  C    -83.835100   53.662400  129.467000
  C    -84.503800   52.453300  129.383000
  C    -84.211400   51.550200  130.391000
  H    -83.832300   54.529200  128.815000
  C    -85.229500   52.152600  128.155000
  H    -85.460300   51.109200  128.040000
  H    -84.611300   52.450400  127.338000
  C    -86.689800   52.796300  128.037000
  H    -86.600800   53.863400  128.095000
  H    -87.311400   52.564400  128.913000
  C    -87.344800   52.420800  126.688000
  H    -87.694200   51.327700  126.627000
  H    -86.693300   52.697800  125.819000
  H    -88.190000   53.058100  126.399000
  H    -87.257800   47.619600  131.167000
  H    -82.290200   54.461200  130.821000

 Total Charge           Charge          ....    0
 Multiplicity           Mult            ....    1
 Number of Electrons    NEL             ....  134
 Basis Dimension        Dim             ....  322

ORBITAL ENERGIES
----------------

  NO   OCC          E(Eh)            E(eV)
   0   2.0000     -88.967362     -2420.9250
   1   2.0000     -88.966127     -2420.8914
   2   2.0000     -10.328318      -281.0478
   3   2.0000     -10.317578      -280.7556
   4   2.0000     -10.316166      -280.7172
   5   2.0000     -10.312822      -280.6261
   6   2.0000     -10.298780      -280.2441
   7   2.0000     -10.295468      -280.1539
   8   2.0000     -10.292332      -280.0686
   9   2.0000     -10.291968      -280.0587
  10   2.0000     -10.291166      -280.0369
  11   2.0000     -10.288983      -279.9775
  12   2.0000     -10.286030      -279.8971
  13   2.0000     -10.284900      -279.8663
  14   2.0000     -10.279274      -279.7133
  15   2.0000     -10.277512      -279.6653
  16   2.0000      -8.083590      -219.9657
  17   2.0000      -8.080665      -219.8861
  18   2.0000      -6.041778      -164.4051
  19   2.0000      -6.039228      -164.3358
  20   2.0000      -6.037979      -164.3018
  21   2.0000      -6.035119      -164.2239
  22   2.0000      -6.034502      -164.2071
  23   2.0000      -6.031452      -164.1241
  24   2.0000      -1.018762       -27.7219
  25   2.0000      -0.992181       -26.9986
  26   2.0000      -0.908014       -24.7083
  27   2.0000      -0.905756       -24.6469
  28   2.0000      -0.875444       -23.8220
  29   2.0000      -0.850277       -23.1372
  30   2.0000      -0.839208       -22.8360
  31   2.0000      -0.817063       -22.2334
  32   2.0000      -0.780984       -21.2517
  33   2.0000      -0.765313       -20.8252
  34   2.0000      -0.704699       -19.1758
  35   2.0000      -0.697853       -18.9895
  36   2.0000      -0.693291       -18.8654
  37   2.0000      -0.667977       -18.1766
  38   2.0000      -0.643548       -17.5118
  39   2.0000      -0.613208       -16.6862
  40   2.0000      -0.598371       -16.2825
  41   2.0000      -0.573735       -15.6121
  42   2.0000      -0.557150       -15.1608
  43   2.0000      -0.542374       -14.7588
  44   2.0000      -0.535927       -14.5833
  45   2.0000      -0.518514       -14.1095
  46   2.0000      -0.516138       -14.0448
  47   2.0000      -0.511316       -13.9136
  48   2.0000      -0.505881       -13.7657
  49   2.0000      -0.498926       -13.5765
  50   2.0000      -0.483988       -13.1700
  51   2.0000      -0.474165       -12.9027
  52   2.0000      -0.470562       -12.8046
  53   2.0000      -0.466382       -12.6909
  54   2.0000      -0.462184       -12.5767
  55   2.0000      -0.453855       -12.3500
  56   2.0000      -0.442187       -12.0325
  57   2.0000      -0.434820       -11.8321
  58   2.0000      -0.431968       -11.7544
  59   2.0000      -0.424763       -11.5584
  60   2.0000      -0.417287       -11.3550
  61   2.0000      -0.411705       -11.2031
  62   2.0000      -0.404950       -11.0192
  63   2.0000      -0.350306        -9.5323
  64   2.0000      -0.333781        -9.0826
  65   2.0000      -0.327769        -8.9191
  66   2.0000      -0.294618        -8.0170
  67   0.0000       0.034401         0.9361
  68   0.0000       0.073038         1.9875
  69   0.0000       0.113562         3.0902
  70   0.0000       0.118962         3.2371
  71   0.0000       0.131432         3.5764

MULLIKEN ATOMIC CHARGES
-----------------------
   0 S :    0.113506
   1 C :   -0.130189
   2 C :   -0.058201
   3 C :    0.031904
   4 C :   -0.143761
   5 H :   -0.005520
   6 C :    0.029876
   7 H :    0.044533
   8 H :    0.017325
   9 C :   -0.061315
  10 H :    0.029546
  11 H :    0.038206
  12 C :   -0.079792
  13 H :    0.049064
  14 H :    0.043003
  15 H :    0.019382
  16 S :    0.127132
  17 C :   -0.123719
  18 C :   -0.025517
  19 C :   -0.011447
  20 C :   -0.157891
  21 H :    0.024474
  22 C :    0.047534
  23 H :    0.020050
  24 H :    0.022794
  25 C :   -0.067261
  26 H :    0.012331
  27 H :    0.032032
  28 C :   -0.079418
  29 H :    0.055811
  30 H :    0.028091
  31 H :    0.029168
  32 H :    0.058299
  33 H :    0.069969
Sum of atomic charges:    0.0000000

LOEWDIN ATOMIC CHARGES
----------------------
   0 S :    0.412286
   1 C :   -0.197962
   2 C :   -0.069017
   3 C :   -0.054610
   4 C :   -0.195415
   5 H :    0.021299
   6 C :   -0.044517
   7 H :    0.038168
   8 H :    0.032369
   9 C :   -0.041135
  10 H :    0.027128
  11 H :    0.027671
  12 C :   -0.075322
  13 H :    0.029715
  14 H :    0.031544
  15 H :    0.015273
  16 S :    0.445522
  17 C :   -0.188117
  18 C :   -0.065889
  19 C :   -0.065327
  20 C :   -0.228964
  21 H :    0.039058
  22 C :   -0.028765
  23 H :    0.025509
  24 H :    0.028595
  25 C :   -0.037421
  26 H :    0.014874
  27 H :    0.022316
  28 C :   -0.082548
  29 H :    0.035469
  30 H :    0.029030
  31 H :    0.025835
  32 H :    0.037201
  33 H :    0.036149

  Mayer bond orders larger than 0.100000
B(  0-S ,  1-C ) :   1.1295 B(  0-S ,  4-C ) :   1.1503 B(  1-C ,  2-C ) :   1.6403
B(  1-C , 32-H ) :   0.9615 B(  2-C ,  3-C ) :   1.2153 B(  2-C ,  6-C ) :   1.0202
B(  3-C ,  4-C ) :   1.5590 B(  3-C ,  5-H ) :   1.0070 B(  4-C , 20-C ) :   1.0236
B(  6-C ,  7-H ) :   0.9443 B(  6-C ,  8-H ) :   0.9366 B(  6-C ,  9-C ) :   1.0770
B(  9-C , 10-H ) :   0.9531 B(  9-C , 11-H ) :   0.9564 B(  9-C , 12-C ) :   1.0695
B( 12-C , 13-H ) :   0.9723 B( 12-C , 14-H ) :   0.9758 B( 12-C , 15-H ) :   0.9778
B( 16-S , 17-C ) :   1.1715 B( 16-S , 20-C ) :   1.1658 B( 17-C , 18-C ) :   1.5932
B( 17-C , 33-H ) :   0.9575 B( 18-C , 19-C ) :   1.2454 B( 18-C , 21-H ) :   0.9992
B( 19-C , 20-C ) :   1.5629 B( 19-C , 22-C ) :   1.0619 B( 22-C , 23-H ) :   0.9367
B( 22-C , 24-H ) :   0.9414 B( 22-C , 25-C ) :   1.0430 B( 25-C , 26-H ) :   0.9573
B( 25-C , 27-H ) :   0.9544 B( 25-C , 28-C ) :   1.0819 B( 28-C , 29-H ) :   0.9745
B( 28-C , 30-H ) :   0.9707 B( 28-C , 31-H ) :   0.9731

Dispersion correction           -0.014895879
FINAL SINGLE POINT ENERGY     -1339.878273912094

DIPOLE MOMENT
-------------
                                X             Y             Z
Electronic contribution:      3.25212       9.70292       6.52208
Nuclear contribution   :     -3.18265      -9.79474      -6.73744
                        -----------------------------------------
Total Dipole Moment    :      0.06947      -0.09181      -0.21536
                        -----------------------------------------
Magnitude (a.u.)       :      0.24420
Magnitude (Debye)      :      0.62071

Rotational constants in cm-1:     0.020902     0.008801     0.006666
Rotational constants in MHz :   626.615725   263.833949   199.827961

                             ****ORCA TERMINATED NORMALLY****
TOTAL RUN TIME: 0 days 0 hours 0 minutes 35 seconds 16 msec
