                         Program Version 4.2.1 -  RELEASE  -
|  1> ! wB97X-D3 SP def2-SVP
|  2> %pal
|  3> nprocs 16
|  4> end
|  5>
|  6> * xyz 0 1
|  7> S 	 9.17585 	 -18.2806 	 82.5882
|  8> C 	 9.35803 	 -19.828 	 83.3929
|  9> C 	 10.3801 	 -19.7711 	 84.3163
| 10> C 	 10.7415 	 -18.4236 	 84.585
| 11> C 	 10.2984 	 -17.435 	 83.7311
| 12> H 	 11.3312 	 -18.1168 	 85.4807
| 13> C 	 10.9209 	 -20.9783 	 85.178
| 14> H 	 10.2794 	 -21.8216 	 84.8928
| 15> H 	 10.7145 	 -20.7655 	 86.2529
| 16> C 	 12.3691 	 -21.3719 	 85.1
| 17> H 	 12.5242 	 -22.3758 	 85.4327
| 18> H 	 12.6234 	 -21.3294 	 84.0454
| 19> C 	 13.2922 	 -20.4476 	 86.0627
| 20> H 	 14.2356 	 -20.9711 	 86.2329
| 21> H 	 13.5516 	 -19.5797 	 85.4919
| 22> H 	 12.8351 	 -20.1767 	 86.984
| 23> S 	 9.36038 	 -14.8037 	 83.3154
| 24> C 	 10.5404 	 -13.5508 	 83.0466
| 25> C 	 11.7612 	 -13.9297 	 83.5412
| 26> C 	 11.8438 	 -15.3487 	 83.8792
| 27> C 	 10.62 	 -16.0451 	 83.6043
| 28> H 	 12.6375 	 -13.2975 	 83.6139
| 29> C 	 13.2216 	 -15.959 	 84.3243
| 30> H 	 14.0619 	 -15.6823 	 83.6589
| 31> H 	 13.2344 	 -17.1014 	 84.0915
| 32> C 	 13.6467 	 -15.7833 	 85.7738
| 33> H 	 14.4688 	 -16.5269 	 85.969
| 34> H 	 12.7775 	 -15.9334 	 86.3628
| 35> C 	 14.0532 	 -14.3757 	 86.248
| 36> H 	 14.3814 	 -14.3656 	 87.2721
| 37> H 	 13.2583 	 -13.7014 	 86.0582
| 38> H 	 14.9615 	 -13.947 	 85.8098
| 39> H 	 8.8113 	 -20.7961 	 83.0333
| 40> H 	 10.2181 	 -12.5935 	 82.763
| 41> *
| 42>
| 43>                          ****END OF INPUT****

CARTESIAN COORDINATES (ANGSTROEM)
---------------------------------
  S      9.175850  -18.280600   82.588200
  C      9.358030  -19.828000   83.392900
  C     10.380100  -19.771100   84.316300
  C     10.741500  -18.423600   84.585000
  C     10.298400  -17.435000   83.731100
  H     11.331200  -18.116800   85.480700
  C     10.920900  -20.978300   85.178000
  H     10.279400  -21.821600   84.892800
  H     10.714500  -20.765500   86.252900
  C     12.369100  -21.371900   85.100000
  H     12.524200  -22.375800   85.432700
  H     12.623400  -21.329400   84.045400
  C     13.292200  -20.447600   86.062700
  H     14.235600  -20.971100   86.232900
  H     13.551600  -19.579700   85.491900
  H     12.835100  -20.176700   86.984000
  S      9.360380  -14.803700   83.315400
  C     10.540400  -13.550800   83.046600
  C     11.761200  -13.929700   83.541200
  C     11.843800  -15.348700   83.879200
  C     10.620000  -16.045100   83.604300
  H     12.637500  -13.297500   83.613900
  C     13.221600  -15.959000   84.324300
  H     14.061900  -15.682300   83.658900
  H     13.234400  -17.101400   84.091500
  C     13.646700  -15.783300   85.773800
  H     14.468800  -16.526900   85.969000
  H     12.777500  -15.933400   86.362800
  C     14.053200  -14.375700   86.248000
  H     14.381400  -14.365600   87.272100
  H     13.258300  -13.701400   86.058200
  H     14.961500  -13.947000   85.809800
  H      8.811300  -20.796100   83.033300
  H     10.218100  -12.593500   82.763000

 Total Charge           Charge          ....    0
 Multiplicity           Mult            ....    1
 Number of Electrons    NEL             ....  134
 Basis Dimension        Dim             ....  322

ORBITAL ENERGIES
----------------

  NO   OCC          E(Eh)            E(eV)
   0   2.0000     -88.965591     -2420.8768
   1   2.0000     -88.962803     -2420.8009
   2   2.0000     -10.338583      -281.3271
   3   2.0000     -10.333999      -281.2024
   4   2.0000     -10.327196      -281.0173
   5   2.0000     -10.319313      -280.8028
   6   2.0000     -10.318463      -280.7796
   7   2.0000     -10.305822      -280.4357
   8   2.0000     -10.303770      -280.3798
   9   2.0000     -10.299967      -280.2763
  10   2.0000     -10.298445      -280.2349
  11   2.0000     -10.297967      -280.2219
  12   2.0000     -10.289767      -279.9988
  13   2.0000     -10.288924      -279.9759
  14   2.0000     -10.280270      -279.7404
  15   2.0000     -10.273511      -279.5564
  16   2.0000      -8.080146      -219.8720
  17   2.0000      -8.076839      -219.7820
  18   2.0000      -6.038781      -164.3236
  19   2.0000      -6.035446      -164.2328
  20   2.0000      -6.034781      -164.2147
  21   2.0000      -6.031452      -164.1241
  22   2.0000      -6.030653      -164.1024
  23   2.0000      -6.027478      -164.0160
  24   2.0000      -1.000695       -27.2303
  25   2.0000      -0.980656       -26.6850
  26   2.0000      -0.906060       -24.6551
  27   2.0000      -0.905790       -24.6478
  28   2.0000      -0.872519       -23.7425
  29   2.0000      -0.845368       -23.0036
  30   2.0000      -0.836333       -22.7578
  31   2.0000      -0.813230       -22.1291
  32   2.0000      -0.787873       -21.4391
  33   2.0000      -0.775916       -21.1137
  34   2.0000      -0.710532       -19.3346
  35   2.0000      -0.698190       -18.9987
  36   2.0000      -0.689878       -18.7725
  37   2.0000      -0.660463       -17.9721
  38   2.0000      -0.635941       -17.3048
  39   2.0000      -0.616078       -16.7643
  40   2.0000      -0.603772       -16.4295
  41   2.0000      -0.572281       -15.5725
  42   2.0000      -0.556286       -15.1373
  43   2.0000      -0.545376       -14.8404
  44   2.0000      -0.542031       -14.7494
  45   2.0000      -0.534763       -14.5516
  46   2.0000      -0.509455       -13.8630
  47   2.0000      -0.507746       -13.8165
  48   2.0000      -0.504550       -13.7295
  49   2.0000      -0.501160       -13.6373
  50   2.0000      -0.489174       -13.3111
  51   2.0000      -0.485539       -13.2122
  52   2.0000      -0.477363       -12.9897
  53   2.0000      -0.467556       -12.7228
  54   2.0000      -0.462582       -12.5875
  55   2.0000      -0.449371       -12.2280
  56   2.0000      -0.442962       -12.0536
  57   2.0000      -0.433955       -11.8085
  58   2.0000      -0.426639       -11.6094
  59   2.0000      -0.421582       -11.4718
  60   2.0000      -0.414883       -11.2895
  61   2.0000      -0.410973       -11.1831
  62   2.0000      -0.407862       -11.0985
  63   2.0000      -0.354455        -9.6452
  64   2.0000      -0.330787        -9.0012
  65   2.0000      -0.327700        -8.9172
  66   2.0000      -0.290001        -7.8913
  67   0.0000       0.013049         0.3551
  68   0.0000       0.074572         2.0292
  69   0.0000       0.099432         2.7057
  70   0.0000       0.118226         3.2171
  71   0.0000       0.125524         3.4157

MULLIKEN ATOMIC CHARGES
-----------------------
   0 S :    0.090436
   1 C :   -0.154727
   2 C :   -0.088053
   3 C :   -0.001754
   4 C :   -0.138182
   5 H :    0.028206
   6 C :    0.039217
   7 H :    0.017278
   8 H :    0.035711
   9 C :   -0.053057
  10 H :    0.030084
  11 H :    0.033119
  12 C :   -0.056418
  13 H :    0.033664
  14 H :    0.031988
  15 H :    0.031855
  16 S :    0.097424
  17 C :   -0.064434
  18 C :   -0.013353
  19 C :   -0.035261
  20 C :   -0.139756
  21 H :    0.025919
  22 C :   -0.012072
  23 H :    0.033464
  24 H :    0.043303
  25 C :   -0.055598
  26 H :    0.045048
  27 H :    0.026694
  28 C :   -0.043124
  29 H :    0.028500
  30 H :    0.031222
  31 H :    0.013927
  32 H :    0.092162
  33 H :    0.046572
Sum of atomic charges:    0.0000000

LOEWDIN ATOMIC CHARGES
----------------------
   0 S :    0.375494
   1 C :   -0.201471
   2 C :   -0.074738
   3 C :   -0.064639
   4 C :   -0.180728
   5 H :    0.036766
   6 C :   -0.032325
   7 H :    0.028822
   8 H :    0.032183
   9 C :   -0.035431
  10 H :    0.022436
  11 H :    0.026766
  12 C :   -0.060797
  13 H :    0.027781
  14 H :    0.021462
  15 H :    0.019103
  16 S :    0.391938
  17 C :   -0.169127
  18 C :   -0.070080
  19 C :   -0.045801
  20 C :   -0.190179
  21 H :    0.031707
  22 C :   -0.047267
  23 H :    0.030493
  24 H :    0.041392
  25 C :   -0.042023
  26 H :    0.033130
  27 H :    0.021747
  28 C :   -0.068230
  29 H :    0.027645
  30 H :    0.020232
  31 H :    0.021040
  32 H :    0.053134
  33 H :    0.019565

  Mayer bond orders larger than 0.100000
B(  0-S ,  1-C ) :   1.1483 B(  0-S ,  4-C ) :   1.1144 B(  1-C ,  2-C ) :   1.6155
B(  1-C , 32-H ) :   0.9483 B(  2-C ,  3-C ) :   1.2392 B(  2-C ,  6-C ) :   1.0160
B(  3-C ,  4-C ) :   1.5819 B(  3-C ,  5-H ) :   0.9812 B(  4-C , 20-C ) :   1.1071
B(  6-C ,  7-H ) :   0.9403 B(  6-C ,  8-H ) :   0.9491 B(  6-C ,  9-C ) :   1.0705
B(  9-C , 10-H ) :   0.9593 B(  9-C , 11-H ) :   0.9574 B(  9-C , 12-C ) :   1.0633
B( 12-C , 13-H ) :   0.9756 B( 12-C , 14-H ) :   0.9784 B( 12-C , 15-H ) :   0.9785
B( 16-S , 17-C ) :   1.1513 B( 16-S , 20-C ) :   1.1319 B( 17-C , 18-C ) :   1.5822
B( 17-C , 33-H ) :   0.9786 B( 18-C , 19-C ) :   1.2489 B( 18-C , 21-H ) :   0.9877
B( 19-C , 20-C ) :   1.5592 B( 19-C , 22-C ) :   1.0271 B( 22-C , 23-H ) :   0.9439
B( 22-C , 24-H ) :   0.9388 B( 22-C , 25-C ) :   1.0684 B( 25-C , 26-H ) :   0.9540
B( 25-C , 27-H ) :   0.9500 B( 25-C , 28-C ) :   1.0827 B( 28-C , 29-H ) :   0.9711
B( 28-C , 30-H ) :   0.9731 B( 28-C , 31-H ) :   0.9728

Dispersion correction           -0.014957395
FINAL SINGLE POINT ENERGY     -1339.857908421692

DIPOLE MOMENT
-------------
                                X             Y             Z
Electronic contribution:    -24.77652       8.95483     -17.34972
Nuclear contribution   :     25.42095      -9.15021      17.76918
                        -----------------------------------------
Total Dipole Moment    :      0.64443      -0.19538       0.41946
                        -----------------------------------------
Magnitude (a.u.)       :      0.79335
Magnitude (Debye)      :      2.01654

Rotational constants in cm-1:     0.016738     0.010126     0.006577
Rotational constants in MHz :   501.794965   303.556858   197.164206

                             ****ORCA TERMINATED NORMALLY****
TOTAL RUN TIME: 0 days 0 hours 0 minutes 34 seconds 838 msec
