                         Program Version 4.2.1 -  RELEASE  -
|  1> ! wB97X-D3 SP def2-SVP
|  2> %pal
|  3> nprocs 16
|  4> end
|  5>
|  6> * xyz 0 1
|  7> S 	 4.35377 	 -16.1528 	 49.3952
|  8> C 	 2.60309 	 -16.0143 	 49.3384
|  9> C 	 2.07697 	 -15.1725 	 50.3479
| 10> C 	 3.07953 	 -14.6372 	 51.1934
| 11> C 	 4.3376 	 -15.0273 	 50.8236
| 12> H 	 2.9635 	 -13.8244 	 51.9229
| 13> C 	 0.599114 	 -14.7793 	 50.5788
| 14> H 	 0.428471 	 -14.8697 	 51.6577
| 15> H 	 0.04533 	 -15.5915 	 50.133
| 16> C 	 0.307651 	 -13.4523 	 49.9059
| 17> H 	 -0.648584 	 -13.0109 	 50.2736
| 18> H 	 1.0668 	 -12.7257 	 50.1544
| 19> C 	 0.249635 	 -13.4992 	 48.4728
| 20> H 	 -0.626259 	 -14.155 	 48.1847
| 21> H 	 -0.0323082 	 -12.5408 	 48.0252
| 22> H 	 1.1082 	 -13.9723 	 48.1174
| 23> S 	 6.50751 	 -15.9754 	 52.3192
| 24> C 	 7.77213 	 -14.8914 	 52.7619
| 25> C 	 7.47024 	 -13.6396 	 52.3074
| 26> C 	 6.24779 	 -13.4756 	 51.5897
| 27> C 	 5.58592 	 -14.6607 	 51.4924
| 28> H 	 8.28696 	 -12.9775 	 52.2853
| 29> C 	 5.85624 	 -12.1682 	 50.9154
| 30> H 	 5.18215 	 -12.5206 	 50.1251
| 31> H 	 6.7545 	 -11.7569 	 50.4378
| 32> C 	 4.96561 	 -11.2261 	 51.7998
| 33> H 	 5.61029 	 -11.1051 	 52.6767
| 34> H 	 4.06741 	 -11.8017 	 52.0669
| 35> C 	 4.53832 	 -9.88976 	 51.161
| 36> H 	 3.74803 	 -9.93569 	 50.4364
| 37> H 	 5.36289 	 -9.54748 	 50.5645
| 38> H 	 4.20027 	 -9.23537 	 51.9887
| 39> H 	 2.08325 	 -16.5587 	 48.6001
| 40> H 	 8.70044 	 -15.2136 	 53.2787
| 41> *
| 42>
| 43>                          ****END OF INPUT****

CARTESIAN COORDINATES (ANGSTROEM)
---------------------------------
  S      4.353770  -16.152800   49.395200
  C      2.603090  -16.014300   49.338400
  C      2.076970  -15.172500   50.347900
  C      3.079530  -14.637200   51.193400
  C      4.337600  -15.027300   50.823600
  H      2.963500  -13.824400   51.922900
  C      0.599114  -14.779300   50.578800
  H      0.428471  -14.869700   51.657700
  H      0.045330  -15.591500   50.133000
  C      0.307651  -13.452300   49.905900
  H     -0.648584  -13.010900   50.273600
  H      1.066800  -12.725700   50.154400
  C      0.249635  -13.499200   48.472800
  H     -0.626259  -14.155000   48.184700
  H     -0.032308  -12.540800   48.025200
  H      1.108200  -13.972300   48.117400
  S      6.507510  -15.975400   52.319200
  C      7.772130  -14.891400   52.761900
  C      7.470240  -13.639600   52.307400
  C      6.247790  -13.475600   51.589700
  C      5.585920  -14.660700   51.492400
  H      8.286960  -12.977500   52.285300
  C      5.856240  -12.168200   50.915400
  H      5.182150  -12.520600   50.125100
  H      6.754500  -11.756900   50.437800
  C      4.965610  -11.226100   51.799800
  H      5.610290  -11.105100   52.676700
  H      4.067410  -11.801700   52.066900
  C      4.538320   -9.889760   51.161000
  H      3.748030   -9.935690   50.436400
  H      5.362890   -9.547480   50.564500
  H      4.200270   -9.235370   51.988700
  H      2.083250  -16.558700   48.600100
  H      8.700440  -15.213600   53.278700

 Total Charge           Charge          ....    0
 Multiplicity           Mult            ....    1
 Number of Electrons    NEL             ....  134
 Basis Dimension        Dim             ....  322

ORBITAL ENERGIES
----------------

  NO   OCC          E(Eh)            E(eV)
   0   2.0000     -88.969655     -2420.9874
   1   2.0000     -88.959126     -2420.7009
   2   2.0000     -10.332621      -281.1649
   3   2.0000     -10.324833      -280.9530
   4   2.0000     -10.319217      -280.8002
   5   2.0000     -10.316267      -280.7199
   6   2.0000     -10.306872      -280.4642
   7   2.0000     -10.300951      -280.3031
   8   2.0000     -10.297014      -280.1960
   9   2.0000     -10.293766      -280.1076
  10   2.0000     -10.293076      -280.0888
  11   2.0000     -10.292086      -280.0619
  12   2.0000     -10.284252      -279.8487
  13   2.0000     -10.280916      -279.7580
  14   2.0000     -10.279680      -279.7243
  15   2.0000     -10.268788      -279.4279
  16   2.0000      -8.083264      -219.9568
  17   2.0000      -8.074007      -219.7049
  18   2.0000      -6.041686      -164.4026
  19   2.0000      -6.038061      -164.3040
  20   2.0000      -6.034055      -164.1950
  21   2.0000      -6.032547      -164.1540
  22   2.0000      -6.028452      -164.0425
  23   2.0000      -6.024753      -163.9419
  24   2.0000      -1.002426       -27.2774
  25   2.0000      -0.981127       -26.6978
  26   2.0000      -0.923216       -25.1220
  27   2.0000      -0.905336       -24.6354
  28   2.0000      -0.868484       -23.6326
  29   2.0000      -0.855725       -23.2855
  30   2.0000      -0.849225       -23.1086
  31   2.0000      -0.813761       -22.1436
  32   2.0000      -0.784216       -21.3396
  33   2.0000      -0.771881       -21.0039
  34   2.0000      -0.705743       -19.2043
  35   2.0000      -0.696760       -18.9598
  36   2.0000      -0.691415       -18.8144
  37   2.0000      -0.659167       -17.9368
  38   2.0000      -0.647562       -17.6211
  39   2.0000      -0.620910       -16.8958
  40   2.0000      -0.591670       -16.1001
  41   2.0000      -0.578389       -15.7388
  42   2.0000      -0.566136       -15.4053
  43   2.0000      -0.552703       -15.0398
  44   2.0000      -0.541336       -14.7305
  45   2.0000      -0.530952       -14.4479
  46   2.0000      -0.518547       -14.1104
  47   2.0000      -0.514217       -13.9926
  48   2.0000      -0.512182       -13.9372
  49   2.0000      -0.500220       -13.6117
  50   2.0000      -0.485191       -13.2027
  51   2.0000      -0.479186       -13.0393
  52   2.0000      -0.477187       -12.9849
  53   2.0000      -0.462242       -12.5782
  54   2.0000      -0.460555       -12.5323
  55   2.0000      -0.446047       -12.1375
  56   2.0000      -0.443855       -12.0779
  57   2.0000      -0.439204       -11.9513
  58   2.0000      -0.431925       -11.7533
  59   2.0000      -0.423317       -11.5190
  60   2.0000      -0.418850       -11.3975
  61   2.0000      -0.411615       -11.2006
  62   2.0000      -0.408514       -11.1162
  63   2.0000      -0.344038        -9.3618
  64   2.0000      -0.331886        -9.0311
  65   2.0000      -0.325830        -8.8663
  66   2.0000      -0.300337        -8.1726
  67   0.0000       0.033310         0.9064
  68   0.0000       0.060343         1.6420
  69   0.0000       0.107862         2.9351
  70   0.0000       0.120286         3.2731
  71   0.0000       0.124220         3.3802

MULLIKEN ATOMIC CHARGES
-----------------------
   0 S :    0.110704
   1 C :   -0.114776
   2 C :   -0.133009
   3 C :    0.046219
   4 C :   -0.175238
   5 H :    0.030494
   6 C :    0.095520
   7 H :    0.037307
   8 H :    0.012350
   9 C :   -0.043901
  10 H :    0.026712
  11 H :    0.016125
  12 C :   -0.024586
  13 H :    0.013044
  14 H :    0.035980
  15 H :    0.023137
  16 S :    0.093337
  17 C :   -0.111487
  18 C :   -0.023390
  19 C :   -0.020147
  20 C :   -0.186709
  21 H :    0.001770
  22 C :    0.058415
  23 H :    0.025148
  24 H :    0.034777
  25 C :   -0.084564
  26 H :    0.033402
  27 H :    0.023927
  28 C :   -0.012162
  29 H :    0.024336
  30 H :    0.024127
  31 H :    0.049006
  32 H :    0.038765
  33 H :    0.075368
Sum of atomic charges:    0.0000000

LOEWDIN ATOMIC CHARGES
----------------------
   0 S :    0.379890
   1 C :   -0.188552
   2 C :   -0.059761
   3 C :   -0.056992
   4 C :   -0.172587
   5 H :    0.038403
   6 C :   -0.024868
   7 H :    0.035344
   8 H :    0.026827
   9 C :   -0.046817
  10 H :    0.026298
  11 H :    0.020987
  12 C :   -0.059895
  13 H :    0.026664
  14 H :    0.030553
  15 H :    0.015627
  16 S :    0.385338
  17 C :   -0.190917
  18 C :   -0.080914
  19 C :   -0.054971
  20 C :   -0.185228
  21 H :    0.021691
  22 C :   -0.032979
  23 H :    0.030984
  24 H :    0.031530
  25 C :   -0.037268
  26 H :    0.024580
  27 H :    0.022565
  28 C :   -0.064602
  29 H :    0.022384
  30 H :    0.024416
  31 H :    0.035956
  32 H :    0.015803
  33 H :    0.040514

  Mayer bond orders larger than 0.100000
B(  0-S ,  1-C ) :   1.1426 B(  0-S ,  4-C ) :   1.1353 B(  1-C ,  2-C ) :   1.6005
B(  1-C , 32-H ) :   0.9748 B(  2-C ,  3-C ) :   1.2346 B(  2-C ,  6-C ) :   1.0108
B(  3-C ,  4-C ) :   1.6090 B(  3-C ,  5-H ) :   0.9812 B(  4-C , 20-C ) :   1.0219
B(  6-C ,  7-H ) :   0.9435 B(  6-C ,  8-H ) :   0.9405 B(  6-C ,  9-C ) :   1.0562
B(  9-C , 10-H ) :   0.9499 B(  9-C , 11-H ) :   0.9518 B(  9-C , 12-C ) :   1.0964
B( 12-C , 13-H ) :   0.9673 B( 12-C , 14-H ) :   0.9661 B( 12-C , 15-H ) :   0.9712
B( 16-S , 17-C ) :   1.1532 B( 16-S , 20-C ) :   1.1319 B( 17-C , 18-C ) :   1.6256
B( 17-C , 33-H ) :   0.9624 B( 18-C , 19-C ) :   1.2169 B( 18-C , 21-H ) :   0.9903
B( 19-C , 20-C ) :   1.6350 B( 19-C , 22-C ) :   1.0373 B( 22-C , 23-H ) :   0.9271
B( 22-C , 24-H ) :   0.9387 B( 22-C , 25-C ) :   1.0575 B( 25-C , 26-H ) :   0.9619
B( 25-C , 27-H ) :   0.9512 B( 25-C , 28-C ) :   1.0759 B( 28-C , 29-H ) :   0.9745
B( 28-C , 30-H ) :   0.9735 B( 28-C , 31-H ) :   0.9736

Dispersion correction           -0.014846810
FINAL SINGLE POINT ENERGY     -1339.872892141499

DIPOLE MOMENT
-------------
                                X             Y             Z
Electronic contribution:     17.66723     -23.64618       4.38356
Nuclear contribution   :    -17.92112      24.19649      -4.47242
                        -----------------------------------------
Total Dipole Moment    :     -0.25389       0.55031      -0.08885
                        -----------------------------------------
Magnitude (a.u.)       :      0.61253
Magnitude (Debye)      :      1.55693

Rotational constants in cm-1:     0.017810     0.009684     0.006971
Rotational constants in MHz :   533.932355   290.310875   208.981854

                             ****ORCA TERMINATED NORMALLY****
TOTAL RUN TIME: 0 days 0 hours 0 minutes 29 seconds 6 msec
