                         Program Version 4.2.1 -  RELEASE  -
|  1> ! wB97X-D3 SP def2-SVP
|  2> %pal
|  3> nprocs 16
|  4> end
|  5>
|  6> * xyz 0 1
|  7> S 	 -34.8532 	 31.3723 	 47.3572
|  8> C 	 -33.9168 	 30.1892 	 48.2748
|  9> C 	 -33.3406 	 30.7272 	 49.438
| 10> C 	 -33.9334 	 32.0289 	 49.6643
| 11> C 	 -34.868 	 32.4626 	 48.7472
| 12> H 	 -33.8026 	 32.6275 	 50.5919
| 13> C 	 -32.319 	 30.0084 	 50.3377
| 14> H 	 -32.283 	 28.9547 	 50.0865
| 15> H 	 -32.6468 	 30.0472 	 51.4075
| 16> C 	 -30.9067 	 30.4545 	 50.0335
| 17> H 	 -30.8835 	 31.5651 	 50.3114
| 18> H 	 -30.2781 	 29.9922 	 50.7249
| 19> C 	 -30.3699 	 30.3322 	 48.5291
| 20> H 	 -29.3718 	 30.6644 	 48.5849
| 21> H 	 -30.3741 	 29.378 	 48.1478
| 22> H 	 -30.8987 	 31.055 	 47.9008
| 23> S 	 -36.62 	 34.0148 	 50.278
| 24> C 	 -36.9948 	 35.5855 	 49.6285
| 25> C 	 -36.4649 	 35.811 	 48.3802
| 26> C 	 -35.6624 	 34.7153 	 47.825
| 27> C 	 -35.6631 	 33.6536 	 48.7794
| 28> H 	 -36.6625 	 36.6747 	 47.8589
| 29> C 	 -34.7803 	 34.7805 	 46.6676
| 30> H 	 -34.2591 	 33.8247 	 46.5437
| 31> H 	 -33.9847 	 35.3967 	 46.9402
| 32> C 	 -35.363 	 35.3588 	 45.3191
| 33> H 	 -36.0072 	 36.2463 	 45.3413
| 34> H 	 -36.0081 	 34.5736 	 45.0219
| 35> C 	 -34.3721 	 35.3097 	 44.0969
| 36> H 	 -33.5952 	 36.0143 	 44.1689
| 37> H 	 -35.0203 	 35.364 	 43.2173
| 38> H 	 -33.8605 	 34.3629 	 44.0599
| 39> H 	 -33.7163 	 29.2226 	 47.9511
| 40> H 	 -37.7089 	 36.3194 	 50.1131
| 41> *
| 42>
| 43>                          ****END OF INPUT****

CARTESIAN COORDINATES (ANGSTROEM)
---------------------------------
  S    -34.853200   31.372300   47.357200
  C    -33.916800   30.189200   48.274800
  C    -33.340600   30.727200   49.438000
  C    -33.933400   32.028900   49.664300
  C    -34.868000   32.462600   48.747200
  H    -33.802600   32.627500   50.591900
  C    -32.319000   30.008400   50.337700
  H    -32.283000   28.954700   50.086500
  H    -32.646800   30.047200   51.407500
  C    -30.906700   30.454500   50.033500
  H    -30.883500   31.565100   50.311400
  H    -30.278100   29.992200   50.724900
  C    -30.369900   30.332200   48.529100
  H    -29.371800   30.664400   48.584900
  H    -30.374100   29.378000   48.147800
  H    -30.898700   31.055000   47.900800
  S    -36.620000   34.014800   50.278000
  C    -36.994800   35.585500   49.628500
  C    -36.464900   35.811000   48.380200
  C    -35.662400   34.715300   47.825000
  C    -35.663100   33.653600   48.779400
  H    -36.662500   36.674700   47.858900
  C    -34.780300   34.780500   46.667600
  H    -34.259100   33.824700   46.543700
  H    -33.984700   35.396700   46.940200
  C    -35.363000   35.358800   45.319100
  H    -36.007200   36.246300   45.341300
  H    -36.008100   34.573600   45.021900
  C    -34.372100   35.309700   44.096900
  H    -33.595200   36.014300   44.168900
  H    -35.020300   35.364000   43.217300
  H    -33.860500   34.362900   44.059900
  H    -33.716300   29.222600   47.951100
  H    -37.708900   36.319400   50.113100

 Total Charge           Charge          ....    0
 Multiplicity           Mult            ....    1
 Number of Electrons    NEL             ....  134
 Basis Dimension        Dim             ....  322

ORBITAL ENERGIES
----------------

  NO   OCC          E(Eh)            E(eV)
   0   2.0000     -88.968515     -2420.9564
   1   2.0000     -88.964718     -2420.8531
   2   2.0000     -10.329193      -281.0716
   3   2.0000     -10.325865      -280.9811
   4   2.0000     -10.320973      -280.8480
   5   2.0000     -10.312308      -280.6122
   6   2.0000     -10.308074      -280.4970
   7   2.0000     -10.306708      -280.4598
   8   2.0000     -10.297490      -280.2089
   9   2.0000     -10.296435      -280.1802
  10   2.0000     -10.290280      -280.0128
  11   2.0000     -10.289700      -279.9970
  12   2.0000     -10.288436      -279.9626
  13   2.0000     -10.287207      -279.9291
  14   2.0000     -10.276712      -279.6435
  15   2.0000     -10.273700      -279.5616
  16   2.0000      -8.082178      -219.9273
  17   2.0000      -8.078734      -219.8335
  18   2.0000      -6.040741      -164.3769
  19   2.0000      -6.037339      -164.2843
  20   2.0000      -6.036981      -164.2746
  21   2.0000      -6.033451      -164.1786
  22   2.0000      -6.032810      -164.1611
  23   2.0000      -6.029333      -164.0665
  24   2.0000      -0.998807       -27.1789
  25   2.0000      -0.974575       -26.5195
  26   2.0000      -0.910129       -24.7659
  27   2.0000      -0.907363       -24.6906
  28   2.0000      -0.865856       -23.5611
  29   2.0000      -0.852159       -23.1884
  30   2.0000      -0.839182       -22.8353
  31   2.0000      -0.810475       -22.0541
  32   2.0000      -0.791122       -21.5275
  33   2.0000      -0.773182       -21.0393
  34   2.0000      -0.711447       -19.3595
  35   2.0000      -0.702331       -19.1114
  36   2.0000      -0.691591       -18.8191
  37   2.0000      -0.659791       -17.9538
  38   2.0000      -0.633958       -17.2509
  39   2.0000      -0.615809       -16.7570
  40   2.0000      -0.598337       -16.2816
  41   2.0000      -0.567136       -15.4326
  42   2.0000      -0.562476       -15.3057
  43   2.0000      -0.547840       -14.9075
  44   2.0000      -0.540012       -14.6945
  45   2.0000      -0.531797       -14.4709
  46   2.0000      -0.519770       -14.1437
  47   2.0000      -0.512945       -13.9579
  48   2.0000      -0.505830       -13.7643
  49   2.0000      -0.495990       -13.4966
  50   2.0000      -0.486414       -13.2360
  51   2.0000      -0.473649       -12.8886
  52   2.0000      -0.468198       -12.7403
  53   2.0000      -0.465175       -12.6581
  54   2.0000      -0.458038       -12.4638
  55   2.0000      -0.453220       -12.3327
  56   2.0000      -0.443449       -12.0669
  57   2.0000      -0.440149       -11.9771
  58   2.0000      -0.436509       -11.8780
  59   2.0000      -0.425333       -11.5739
  60   2.0000      -0.421379       -11.4663
  61   2.0000      -0.415335       -11.3018
  62   2.0000      -0.409495       -11.1429
  63   2.0000      -0.344296        -9.3688
  64   2.0000      -0.328720        -8.9449
  65   2.0000      -0.328194        -8.9306
  66   2.0000      -0.283937        -7.7263
  67   0.0000       0.028342         0.7712
  68   0.0000       0.064572         1.7571
  69   0.0000       0.101128         2.7518
  70   0.0000       0.110060         2.9949
  71   0.0000       0.132286         3.5997

MULLIKEN ATOMIC CHARGES
-----------------------
   0 S :    0.100567
   1 C :   -0.091464
   2 C :   -0.098738
   3 C :    0.012339
   4 C :   -0.182386
   5 H :    0.023418
   6 C :    0.075132
   7 H :    0.012156
   8 H :    0.047955
   9 C :   -0.100301
  10 H :    0.029651
  11 H :    0.019798
  12 C :   -0.007189
  13 H :    0.024419
  14 H :    0.020133
  15 H :    0.048109
  16 S :    0.112698
  17 C :   -0.108674
  18 C :    0.005301
  19 C :   -0.027400
  20 C :   -0.150966
  21 H :   -0.016788
  22 C :    0.093777
  23 H :    0.014304
  24 H :    0.022940
  25 C :   -0.105924
  26 H :    0.042560
  27 H :    0.022523
  28 C :   -0.022613
  29 H :    0.025076
  30 H :    0.040131
  31 H :    0.021332
  32 H :    0.019180
  33 H :    0.078947
Sum of atomic charges:    0.0000000

LOEWDIN ATOMIC CHARGES
----------------------
   0 S :    0.391576
   1 C :   -0.177143
   2 C :   -0.055960
   3 C :   -0.069209
   4 C :   -0.192864
   5 H :    0.033222
   6 C :   -0.035543
   7 H :    0.027350
   8 H :    0.038803
   9 C :   -0.036514
  10 H :    0.028294
  11 H :    0.012815
  12 C :   -0.049432
  13 H :    0.025167
  14 H :    0.011573
  15 H :    0.032522
  16 S :    0.386937
  17 C :   -0.195766
  18 C :   -0.061733
  19 C :   -0.040600
  20 C :   -0.184169
  21 H :    0.014463
  22 C :   -0.039253
  23 H :    0.024884
  24 H :    0.030118
  25 C :   -0.039399
  26 H :    0.025760
  27 H :    0.022959
  28 C :   -0.054349
  29 H :    0.014017
  30 H :    0.031944
  31 H :    0.025037
  32 H :    0.010536
  33 H :    0.043960

  Mayer bond orders larger than 0.100000
B(  0-S ,  1-C ) :   1.1373 B(  0-S ,  4-C ) :   1.1176 B(  1-C ,  2-C ) :   1.6151
B(  1-C , 32-H ) :   0.9750 B(  2-C ,  3-C ) :   1.2156 B(  2-C ,  6-C ) :   1.0244
B(  3-C ,  4-C ) :   1.6013 B(  3-C ,  5-H ) :   0.9825 B(  4-C , 20-C ) :   1.0663
B(  6-C ,  7-H ) :   0.9369 B(  6-C ,  8-H ) :   0.9456 B(  6-C ,  9-C ) :   1.0659
B(  9-C , 10-H ) :   0.9582 B(  9-C , 11-H ) :   0.9596 B(  9-C , 12-C ) :   1.0656
B( 12-C , 13-H ) :   0.9721 B( 12-C , 14-H ) :   0.9791 B( 12-C , 15-H ) :   0.9736
B( 16-S , 17-C ) :   1.1359 B( 16-S , 20-C ) :   1.1252 B( 17-C , 18-C ) :   1.6408
B( 17-C , 33-H ) :   0.9559 B( 18-C , 19-C ) :   1.2134 B( 18-C , 21-H ) :   0.9962
B( 19-C , 20-C ) :   1.5675 B( 19-C , 22-C ) :   1.0700 B( 22-C , 23-H ) :   0.9151
B( 22-C , 24-H ) :   0.9170 B( 22-C , 25-C ) :   1.0314 B( 25-C , 26-H ) :   0.9644
B( 25-C , 27-H ) :   0.9593 B( 25-C , 28-C ) :   1.0755 B( 28-C , 29-H ) :   0.9795
B( 28-C , 30-H ) :   0.9779 B( 28-C , 31-H ) :   0.9732

Dispersion correction           -0.014338304
FINAL SINGLE POINT ENERGY     -1339.851334548460

DIPOLE MOMENT
-------------
                                X             Y             Z
Electronic contribution:    -18.74860      -0.21652      10.88385
Nuclear contribution   :     19.22931       0.31429     -10.95087
                        -----------------------------------------
Total Dipole Moment    :      0.48071       0.09777      -0.06703
                        -----------------------------------------
Magnitude (a.u.)       :      0.49511
Magnitude (Debye)      :      1.25848

Rotational constants in cm-1:     0.018041     0.008537     0.006634
Rotational constants in MHz :   540.854521   255.944985   198.887279

                             ****ORCA TERMINATED NORMALLY****
TOTAL RUN TIME: 0 days 0 hours 0 minutes 34 seconds 701 msec
