                         Program Version 4.2.1 -  RELEASE  -
|  1> ! wB97X-D3 SP def2-SVP
|  2> %pal
|  3> nprocs 16
|  4> end
|  5>
|  6> * xyz 0 1
|  7> S 	 -31.3912 	 35.0355 	 38.4776
|  8> C 	 -30.3415 	 36.2493 	 37.9558
|  9> C 	 -29.1976 	 36.3362 	 38.7337
| 10> C 	 -29.3312 	 35.5289 	 39.9624
| 11> C 	 -30.3506 	 34.6849 	 39.8829
| 12> H 	 -28.5152 	 35.5036 	 40.6124
| 13> C 	 -28.1251 	 37.3791 	 38.4799
| 14> H 	 -28.0831 	 37.7313 	 37.4352
| 15> H 	 -27.1603 	 36.9182 	 38.5634
| 16> C 	 -28.0609 	 38.7108 	 39.3198
| 17> H 	 -27.1573 	 39.203 	 39.0125
| 18> H 	 -28.9804 	 39.3155 	 39.1083
| 19> C 	 -28.0053 	 38.5956 	 40.8766
| 20> H 	 -27.1006 	 38.2097 	 41.2969
| 21> H 	 -28.1701 	 39.5834 	 41.2797
| 22> H 	 -28.7463 	 37.9006 	 41.2334
| 23> S 	 -30.0167 	 32.0307 	 40.3979
| 24> C 	 -30.3483 	 31.4717 	 41.9728
| 25> C 	 -30.8059 	 32.468 	 42.8107
| 26> C 	 -31.0403 	 33.7004 	 42.2127
| 27> C 	 -30.6735 	 33.6206 	 40.894
| 28> H 	 -30.8785 	 32.3342 	 43.904
| 29> C 	 -31.5193 	 34.8824 	 43.0464
| 30> H 	 -32.5333 	 34.7161 	 43.3249
| 31> H 	 -31.4958 	 35.7975 	 42.3966
| 32> C 	 -30.6248 	 35.1671 	 44.3021
| 33> H 	 -30.4876 	 34.3873 	 45.0657
| 34> H 	 -31.0572 	 35.9779 	 44.9078
| 35> C 	 -29.1718 	 35.6036 	 43.8123
| 36> H 	 -28.5265 	 35.685 	 44.7444
| 37> H 	 -29.2985 	 36.5782 	 43.332
| 38> H 	 -28.6697 	 34.86 	 43.1641
| 39> H 	 -30.3551 	 36.7869 	 37.0578
| 40> H 	 -29.9871 	 30.5439 	 42.3555
| 41> *
| 42>
| 43>                          ****END OF INPUT****

CARTESIAN COORDINATES (ANGSTROEM)
---------------------------------
  S    -31.391200   35.035500   38.477600
  C    -30.341500   36.249300   37.955800
  C    -29.197600   36.336200   38.733700
  C    -29.331200   35.528900   39.962400
  C    -30.350600   34.684900   39.882900
  H    -28.515200   35.503600   40.612400
  C    -28.125100   37.379100   38.479900
  H    -28.083100   37.731300   37.435200
  H    -27.160300   36.918200   38.563400
  C    -28.060900   38.710800   39.319800
  H    -27.157300   39.203000   39.012500
  H    -28.980400   39.315500   39.108300
  C    -28.005300   38.595600   40.876600
  H    -27.100600   38.209700   41.296900
  H    -28.170100   39.583400   41.279700
  H    -28.746300   37.900600   41.233400
  S    -30.016700   32.030700   40.397900
  C    -30.348300   31.471700   41.972800
  C    -30.805900   32.468000   42.810700
  C    -31.040300   33.700400   42.212700
  C    -30.673500   33.620600   40.894000
  H    -30.878500   32.334200   43.904000
  C    -31.519300   34.882400   43.046400
  H    -32.533300   34.716100   43.324900
  H    -31.495800   35.797500   42.396600
  C    -30.624800   35.167100   44.302100
  H    -30.487600   34.387300   45.065700
  H    -31.057200   35.977900   44.907800
  C    -29.171800   35.603600   43.812300
  H    -28.526500   35.685000   44.744400
  H    -29.298500   36.578200   43.332000
  H    -28.669700   34.860000   43.164100
  H    -30.355100   36.786900   37.057800
  H    -29.987100   30.543900   42.355500

 Total Charge           Charge          ....    0
 Multiplicity           Mult            ....    1
 Number of Electrons    NEL             ....  134
 Basis Dimension        Dim             ....  322

ORBITAL ENERGIES
----------------

  NO   OCC          E(Eh)            E(eV)
   0   2.0000     -88.966300     -2420.8961
   1   2.0000     -88.962617     -2420.7959
   2   2.0000     -10.327071      -281.0139
   3   2.0000     -10.326537      -280.9994
   4   2.0000     -10.310795      -280.5710
   5   2.0000     -10.303832      -280.3815
   6   2.0000     -10.301010      -280.3047
   7   2.0000     -10.300128      -280.2807
   8   2.0000     -10.298532      -280.2373
   9   2.0000     -10.298092      -280.2253
  10   2.0000     -10.291817      -280.0546
  11   2.0000     -10.291592      -280.0485
  12   2.0000     -10.288846      -279.9737
  13   2.0000     -10.287966      -279.9498
  14   2.0000     -10.287527      -279.9379
  15   2.0000     -10.272327      -279.5242
  16   2.0000      -8.081453      -219.9075
  17   2.0000      -8.078165      -219.8181
  18   2.0000      -6.039781      -164.3508
  19   2.0000      -6.036703      -164.2671
  20   2.0000      -6.036002      -164.2480
  21   2.0000      -6.032588      -164.1551
  22   2.0000      -6.032276      -164.1466
  23   2.0000      -6.028814      -164.0524
  24   2.0000      -1.008584       -27.4450
  25   2.0000      -0.989163       -26.9165
  26   2.0000      -0.906337       -24.6627
  27   2.0000      -0.900263       -24.4974
  28   2.0000      -0.868184       -23.6245
  29   2.0000      -0.849233       -23.1088
  30   2.0000      -0.844060       -22.9680
  31   2.0000      -0.814307       -22.1584
  32   2.0000      -0.783351       -21.3161
  33   2.0000      -0.773261       -21.0415
  34   2.0000      -0.704396       -19.1676
  35   2.0000      -0.697001       -18.9664
  36   2.0000      -0.693136       -18.8612
  37   2.0000      -0.659245       -17.9390
  38   2.0000      -0.644583       -17.5400
  39   2.0000      -0.619638       -16.8612
  40   2.0000      -0.600926       -16.3520
  41   2.0000      -0.568608       -15.4726
  42   2.0000      -0.555160       -15.1067
  43   2.0000      -0.542405       -14.7596
  44   2.0000      -0.537083       -14.6148
  45   2.0000      -0.533171       -14.5083
  46   2.0000      -0.516664       -14.0591
  47   2.0000      -0.516428       -14.0527
  48   2.0000      -0.498126       -13.5547
  49   2.0000      -0.491674       -13.3791
  50   2.0000      -0.488886       -13.3033
  51   2.0000      -0.479034       -13.0352
  52   2.0000      -0.468481       -12.7480
  53   2.0000      -0.464042       -12.6272
  54   2.0000      -0.457707       -12.4548
  55   2.0000      -0.450289       -12.2530
  56   2.0000      -0.440519       -11.9871
  57   2.0000      -0.436323       -11.8729
  58   2.0000      -0.431252       -11.7350
  59   2.0000      -0.428829       -11.6690
  60   2.0000      -0.422125       -11.4866
  61   2.0000      -0.416850       -11.3431
  62   2.0000      -0.415312       -11.3012
  63   2.0000      -0.344119        -9.3640
  64   2.0000      -0.335335        -9.1249
  65   2.0000      -0.317792        -8.6476
  66   2.0000      -0.305753        -8.3200
  67   0.0000       0.048021         1.3067
  68   0.0000       0.059793         1.6271
  69   0.0000       0.113326         3.0838
  70   0.0000       0.117350         3.1933
  71   0.0000       0.127330         3.4648

MULLIKEN ATOMIC CHARGES
-----------------------
   0 S :    0.116996
   1 C :   -0.068108
   2 C :   -0.132070
   3 C :    0.075500
   4 C :   -0.151388
   5 H :   -0.005223
   6 C :    0.043990
   7 H :    0.020908
   8 H :    0.015627
   9 C :   -0.073314
  10 H :    0.030769
  11 H :    0.038207
  12 C :   -0.052284
  13 H :    0.019188
  14 H :    0.033960
  15 H :    0.028266
  16 S :    0.116382
  17 C :   -0.062551
  18 C :   -0.069379
  19 C :   -0.001277
  20 C :   -0.204581
  21 H :    0.021136
  22 C :    0.108987
  23 H :    0.036680
  24 H :    0.036819
  25 C :   -0.109730
  26 H :    0.034368
  27 H :    0.035061
  28 C :   -0.103448
  29 H :    0.040768
  30 H :    0.048166
  31 H :    0.061744
  32 H :    0.024806
  33 H :    0.045024
Sum of atomic charges:   -0.0000000

LOEWDIN ATOMIC CHARGES
----------------------
   0 S :    0.408733
   1 C :   -0.204688
   2 C :   -0.064323
   3 C :   -0.051893
   4 C :   -0.190498
   5 H :    0.022996
   6 C :   -0.042643
   7 H :    0.034090
   8 H :    0.025080
   9 C :   -0.032694
  10 H :    0.022550
  11 H :    0.028862
  12 C :   -0.068329
  13 H :    0.018224
  14 H :    0.027496
  15 H :    0.020169
  16 S :    0.416330
  17 C :   -0.194815
  18 C :   -0.075597
  19 C :   -0.055840
  20 C :   -0.184764
  21 H :    0.032645
  22 C :   -0.021784
  23 H :    0.030375
  24 H :    0.039125
  25 C :   -0.042437
  26 H :    0.020758
  27 H :    0.027441
  28 C :   -0.071293
  29 H :    0.031610
  30 H :    0.024368
  31 H :    0.028017
  32 H :    0.019945
  33 H :    0.022783

  Mayer bond orders larger than 0.100000
B(  0-S ,  1-C ) :   1.1427 B(  0-S ,  4-C ) :   1.1285 B(  1-C ,  2-C ) :   1.6416
B(  1-C , 32-H ) :   0.9652 B(  2-C ,  3-C ) :   1.1986 B(  2-C ,  6-C ) :   1.0438
B(  3-C ,  4-C ) :   1.6370 B(  3-C ,  5-H ) :   0.9982 B(  4-C , 20-C ) :   0.9641
B(  6-C ,  7-H ) :   0.9424 B(  6-C ,  8-H ) :   0.9338 B(  6-C ,  9-C ) :   1.0657
B(  9-C , 10-H ) :   0.9543 B(  9-C , 11-H ) :   0.9587 B(  9-C , 12-C ) :   1.0800
B( 12-C , 13-H ) :   0.9757 B( 12-C , 14-H ) :   0.9735 B( 12-C , 15-H ) :   0.9702
B( 16-S , 17-C ) :   1.1634 B( 16-S , 20-C ) :   1.1645 B( 17-C , 18-C ) :   1.6083
B( 17-C , 33-H ) :   0.9675 B( 18-C , 19-C ) :   1.2461 B( 18-C , 21-H ) :   0.9830
B( 19-C , 20-C ) :   1.6146 B( 19-C , 22-C ) :   1.0291 B( 22-C , 23-H ) :   0.9329
B( 22-C , 24-H ) :   0.9387 B( 22-C , 25-C ) :   1.0592 B( 25-C , 26-H ) :   0.9609
B( 25-C , 27-H ) :   0.9581 B( 25-C , 28-C ) :   1.0605 B( 28-C , 29-H ) :   0.9732
B( 28-C , 30-H ) :   0.9755 B( 28-C , 31-H ) :   0.9738

Dispersion correction           -0.016117606
FINAL SINGLE POINT ENERGY     -1339.871361176145

DIPOLE MOMENT
-------------
                                X             Y             Z
Electronic contribution:    -11.84751     -21.64982     -15.50349
Nuclear contribution   :     12.27307      22.03318      16.00687
                        -----------------------------------------
Total Dipole Moment    :      0.42556       0.38336       0.50339
                        -----------------------------------------
Magnitude (a.u.)       :      0.76254
Magnitude (Debye)      :      1.93822

Rotational constants in cm-1:     0.018074     0.010150     0.007605
Rotational constants in MHz :   541.841890   304.299351   227.988529

                             ****ORCA TERMINATED NORMALLY****
TOTAL RUN TIME: 0 days 0 hours 0 minutes 36 seconds 212 msec
