                         Program Version 4.2.1 -  RELEASE  -
|  1> ! wB97X-D3 SP def2-SVP
|  2> %pal
|  3> nprocs 16
|  4> end
|  5>
|  6> * xyz 0 1
|  7> S 	 -17.0763 	 -3.06013 	 81.8873
|  8> C 	 -16.133 	 -2.54972 	 83.3104
|  9> C 	 -16.0029 	 -1.19417 	 83.4656
| 10> C 	 -16.9002 	 -0.51498 	 82.5275
| 11> C 	 -17.4995 	 -1.40989 	 81.6287
| 12> H 	 -17.0415 	 0.555357 	 82.5087
| 13> C 	 -15.1162 	 -0.388727 	 84.3888
| 14> H 	 -15.7286 	 0.501015 	 84.667
| 15> H 	 -14.383 	 -0.0722092 	 83.7023
| 16> C 	 -14.6588 	 -1.1225 	 85.6955
| 17> H 	 -15.5142 	 -1.60902 	 86.0736
| 18> H 	 -13.984 	 -1.8844 	 85.3562
| 19> C 	 -13.932 	 -0.207175 	 86.6603
| 20> H 	 -14.6059 	 0.461247 	 87.1414
| 21> H 	 -13.4721 	 -0.801767 	 87.4332
| 22> H 	 -13.2729 	 0.374262 	 86.1008
| 23> S 	 -17.6666 	 -0.323293 	 79.0714
| 24> C 	 -19.2062 	 -0.236674 	 78.2193
| 25> C 	 -20.1929 	 -0.715759 	 78.9972
| 26> C 	 -19.7739 	 -1.25881 	 80.2257
| 27> C 	 -18.422 	 -1.00872 	 80.5437
| 28> H 	 -21.2323 	 -0.626206 	 78.6972
| 29> C 	 -20.7433 	 -1.917 	 81.1488
| 30> H 	 -20.177 	 -2.68435 	 81.7438
| 31> H 	 -21.5492 	 -2.48107 	 80.6924
| 32> C 	 -21.2489 	 -0.926706 	 82.2784
| 33> H 	 -21.7742 	 -0.148228 	 81.8354
| 34> H 	 -20.4259 	 -0.517697 	 82.7973
| 35> C 	 -22.2858 	 -1.65333 	 83.1524
| 36> H 	 -22.5856 	 -1.04215 	 83.9608
| 37> H 	 -21.9115 	 -2.57688 	 83.6118
| 38> H 	 -23.1571 	 -1.91137 	 82.5714
| 39> H 	 -15.4849 	 -3.23989 	 83.8007
| 40> H 	 -19.4519 	 0.307632 	 77.3427
| 41> *
| 42>
| 43>                          ****END OF INPUT****

CARTESIAN COORDINATES (ANGSTROEM)
---------------------------------
  S    -17.076300   -3.060130   81.887300
  C    -16.133000   -2.549720   83.310400
  C    -16.002900   -1.194170   83.465600
  C    -16.900200   -0.514980   82.527500
  C    -17.499500   -1.409890   81.628700
  H    -17.041500    0.555357   82.508700
  C    -15.116200   -0.388727   84.388800
  H    -15.728600    0.501015   84.667000
  H    -14.383000   -0.072209   83.702300
  C    -14.658800   -1.122500   85.695500
  H    -15.514200   -1.609020   86.073600
  H    -13.984000   -1.884400   85.356200
  C    -13.932000   -0.207175   86.660300
  H    -14.605900    0.461247   87.141400
  H    -13.472100   -0.801767   87.433200
  H    -13.272900    0.374262   86.100800
  S    -17.666600   -0.323293   79.071400
  C    -19.206200   -0.236674   78.219300
  C    -20.192900   -0.715759   78.997200
  C    -19.773900   -1.258810   80.225700
  C    -18.422000   -1.008720   80.543700
  H    -21.232300   -0.626206   78.697200
  C    -20.743300   -1.917000   81.148800
  H    -20.177000   -2.684350   81.743800
  H    -21.549200   -2.481070   80.692400
  C    -21.248900   -0.926706   82.278400
  H    -21.774200   -0.148228   81.835400
  H    -20.425900   -0.517697   82.797300
  C    -22.285800   -1.653330   83.152400
  H    -22.585600   -1.042150   83.960800
  H    -21.911500   -2.576880   83.611800
  H    -23.157100   -1.911370   82.571400
  H    -15.484900   -3.239890   83.800700
  H    -19.451900    0.307632   77.342700

 Total Charge           Charge          ....    0
 Multiplicity           Mult            ....    1
 Number of Electrons    NEL             ....  134
 Basis Dimension        Dim             ....  322

ORBITAL ENERGIES
----------------

  NO   OCC          E(Eh)            E(eV)
   0   2.0000     -88.969043     -2420.9707
   1   2.0000     -88.960073     -2420.7267
   2   2.0000     -10.332660      -281.1660
   3   2.0000     -10.328491      -281.0525
   4   2.0000     -10.310892      -280.5736
   5   2.0000     -10.309723      -280.5418
   6   2.0000     -10.304283      -280.3938
   7   2.0000     -10.300156      -280.2815
   8   2.0000     -10.298542      -280.2376
   9   2.0000     -10.295709      -280.1605
  10   2.0000     -10.287531      -279.9380
  11   2.0000     -10.285200      -279.8745
  12   2.0000     -10.284638      -279.8592
  13   2.0000     -10.275371      -279.6071
  14   2.0000     -10.272465      -279.5280
  15   2.0000     -10.269022      -279.4343
  16   2.0000      -8.083457      -219.9621
  17   2.0000      -8.074042      -219.7059
  18   2.0000      -6.041928      -164.4092
  19   2.0000      -6.038189      -164.3075
  20   2.0000      -6.034092      -164.1960
  21   2.0000      -6.032698      -164.1581
  22   2.0000      -6.028588      -164.0462
  23   2.0000      -6.024735      -163.9414
  24   2.0000      -1.001076       -27.2407
  25   2.0000      -0.981167       -26.6989
  26   2.0000      -0.916077       -24.9277
  27   2.0000      -0.902381       -24.5550
  28   2.0000      -0.869713       -23.6661
  29   2.0000      -0.852708       -23.2034
  30   2.0000      -0.844887       -22.9905
  31   2.0000      -0.812346       -22.1051
  32   2.0000      -0.785353       -21.3705
  33   2.0000      -0.764935       -20.8149
  34   2.0000      -0.719471       -19.5778
  35   2.0000      -0.704952       -19.1827
  36   2.0000      -0.693009       -18.8577
  37   2.0000      -0.656560       -17.8659
  38   2.0000      -0.640226       -17.4214
  39   2.0000      -0.609362       -16.5816
  40   2.0000      -0.593992       -16.1633
  41   2.0000      -0.577131       -15.7045
  42   2.0000      -0.569543       -15.4980
  43   2.0000      -0.562013       -15.2932
  44   2.0000      -0.538662       -14.6577
  45   2.0000      -0.519909       -14.1474
  46   2.0000      -0.513304       -13.9677
  47   2.0000      -0.508252       -13.8302
  48   2.0000      -0.503027       -13.6881
  49   2.0000      -0.499982       -13.6052
  50   2.0000      -0.492504       -13.4017
  51   2.0000      -0.479452       -13.0466
  52   2.0000      -0.473865       -12.8945
  53   2.0000      -0.462900       -12.5962
  54   2.0000      -0.454749       -12.3744
  55   2.0000      -0.453185       -12.3318
  56   2.0000      -0.447979       -12.1901
  57   2.0000      -0.441956       -12.0262
  58   2.0000      -0.432814       -11.7775
  59   2.0000      -0.428165       -11.6510
  60   2.0000      -0.419056       -11.4031
  61   2.0000      -0.418156       -11.3786
  62   2.0000      -0.414426       -11.2771
  63   2.0000      -0.334308        -9.0970
  64   2.0000      -0.329864        -8.9761
  65   2.0000      -0.321015        -8.7353
  66   2.0000      -0.303807        -8.2670
  67   0.0000       0.037562         1.0221
  68   0.0000       0.061435         1.6717
  69   0.0000       0.107354         2.9212
  70   0.0000       0.122776         3.3409
  71   0.0000       0.129318         3.5189

MULLIKEN ATOMIC CHARGES
-----------------------
   0 S :    0.130499
   1 C :   -0.134914
   2 C :   -0.097601
   3 C :    0.022126
   4 C :   -0.148418
   5 H :    0.015492
   6 C :    0.051623
   7 H :    0.032510
   8 H :    0.040517
   9 C :   -0.079405
  10 H :    0.026084
  11 H :    0.027423
  12 C :    0.026704
  13 H :    0.019937
  14 H :    0.033572
  15 H :    0.016350
  16 S :    0.089779
  17 C :   -0.060292
  18 C :   -0.040405
  19 C :   -0.015594
  20 C :   -0.168650
  21 H :    0.017282
  22 C :    0.021262
  23 H :    0.021150
  24 H :    0.022996
  25 C :   -0.026477
  26 H :    0.006735
  27 H :    0.025157
  28 C :   -0.026817
  29 H :    0.022553
  30 H :    0.024912
  31 H :    0.024344
  32 H :    0.036250
  33 H :    0.043319
Sum of atomic charges:   -0.0000000

LOEWDIN ATOMIC CHARGES
----------------------
   0 S :    0.410204
   1 C :   -0.194931
   2 C :   -0.053774
   3 C :   -0.055972
   4 C :   -0.206337
   5 H :    0.030425
   6 C :   -0.028890
   7 H :    0.034845
   8 H :    0.032321
   9 C :   -0.032356
  10 H :    0.019977
  11 H :    0.021707
  12 C :   -0.048911
  13 H :    0.022249
  14 H :    0.028904
  15 H :    0.019649
  16 S :    0.384248
  17 C :   -0.176376
  18 C :   -0.075845
  19 C :   -0.056315
  20 C :   -0.192618
  21 H :    0.033118
  22 C :   -0.035731
  23 H :    0.030295
  24 H :    0.026641
  25 C :   -0.019807
  26 H :    0.012680
  27 H :    0.019991
  28 C :   -0.060621
  29 H :    0.019722
  30 H :    0.023985
  31 H :    0.023179
  32 H :    0.016938
  33 H :    0.027407

  Mayer bond orders larger than 0.100000
B(  0-S ,  1-C ) :   1.1152 B(  0-S ,  4-C ) :   1.1563 B(  1-C ,  2-C ) :   1.6601
B(  1-C , 32-H ) :   0.9641 B(  2-C ,  3-C ) :   1.2131 B(  2-C ,  6-C ) :   0.9980
B(  3-C ,  4-C ) :   1.5874 B(  3-C ,  5-H ) :   0.9931 B(  4-C , 20-C ) :   1.0144
B(  6-C ,  7-H ) :   0.9451 B(  6-C ,  8-H ) :   0.9273 B(  6-C ,  9-C ) :   1.0703
B(  9-C , 10-H ) :   0.9608 B(  9-C , 11-H ) :   0.9481 B(  9-C , 12-C ) :   1.0900
B( 12-C , 13-H ) :   0.9739 B( 12-C , 14-H ) :   0.9723 B( 12-C , 15-H ) :   0.9718
B( 16-S , 17-C ) :   1.1489 B( 16-S , 20-C ) :   1.1343 B( 17-C , 18-C ) :   1.6231
B( 17-C , 20-C ) :   0.1027 B( 17-C , 33-H ) :   0.9630 B( 18-C , 19-C ) :   1.2489
B( 18-C , 21-H ) :   0.9879 B( 19-C , 20-C ) :   1.5780 B( 19-C , 22-C ) :   1.0600
B( 22-C , 23-H ) :   0.9283 B( 22-C , 24-H ) :   0.9456 B( 22-C , 25-C ) :   1.0551
B( 25-C , 26-H ) :   0.9563 B( 25-C , 27-H ) :   0.9577 B( 25-C , 28-C ) :   1.0846
B( 28-C , 29-H ) :   0.9728 B( 28-C , 30-H ) :   0.9753 B( 28-C , 31-H ) :   0.9745

Dispersion correction           -0.013900277
FINAL SINGLE POINT ENERGY     -1339.873392963076

DIPOLE MOMENT
-------------
                                X             Y             Z
Electronic contribution:      4.11543      -4.16742     -23.65986
Nuclear contribution   :     -4.17643       4.43801      24.13877
                        -----------------------------------------
Total Dipole Moment    :     -0.06100       0.27058       0.47891
                        -----------------------------------------
Magnitude (a.u.)       :      0.55344
Magnitude (Debye)      :      1.40673

Rotational constants in cm-1:     0.020184     0.007331     0.006255
Rotational constants in MHz :   605.110415   219.763745   187.532781

                             ****ORCA TERMINATED NORMALLY****
TOTAL RUN TIME: 0 days 0 hours 0 minutes 32 seconds 289 msec
