                         Program Version 4.2.1 -  RELEASE  -
|  1> ! wB97X-D3 SP def2-SVP
|  2> %pal
|  3> nprocs 16
|  4> end
|  5>
|  6> * xyz 0 1
|  7> S 	 -14.2343 	 39.4175 	 34.6968
|  8> C 	 -15.8569 	 38.9149 	 34.5112
|  9> C 	 -16.3052 	 39.0202 	 33.2247
| 10> C 	 -15.3413 	 39.6829 	 32.3965
| 11> C 	 -14.1281 	 39.9286 	 33.032
| 12> H 	 -15.5315 	 40.0264 	 31.3563
| 13> C 	 -17.6687 	 38.6169 	 32.7168
| 14> H 	 -18.0975 	 39.4616 	 32.24
| 15> H 	 -18.299 	 38.4019 	 33.5867
| 16> C 	 -17.6128 	 37.3066 	 31.9072
| 17> H 	 -18.6117 	 36.9188 	 31.6879
| 18> H 	 -17.1739 	 37.4571 	 30.9471
| 19> C 	 -16.8409 	 36.0784 	 32.4209
| 20> H 	 -16.8924 	 35.2292 	 31.703
| 21> H 	 -15.7909 	 36.1913 	 32.5123
| 22> H 	 -17.2597 	 35.8364 	 33.419
| 23> S 	 -11.4577 	 39.4669 	 32.0671
| 24> C 	 -10.618 	 40.7722 	 31.3341
| 25> C 	 -11.3967 	 41.936 	 31.4366
| 26> C 	 -12.7279 	 41.7797 	 31.8727
| 27> C 	 -12.9573 	 40.4939 	 32.337
| 28> H 	 -11.0424 	 42.794 	 31.1245
| 29> C 	 -13.6644 	 42.9663 	 32.0278
| 30> H 	 -13.137 	 43.7686 	 32.5357
| 31> H 	 -14.232 	 42.7849 	 32.9443
| 32> C 	 -14.6505 	 43.4266 	 30.9417
| 33> H 	 -15.1676 	 44.2981 	 31.2966
| 34> H 	 -15.4285 	 42.6661 	 30.5454
| 35> C 	 -13.9386 	 43.9408 	 29.6877
| 36> H 	 -12.8976 	 43.7317 	 29.6052
| 37> H 	 -13.9391 	 44.9975 	 29.7004
| 38> H 	 -14.4007 	 43.5792 	 28.7772
| 39> H 	 -16.4579 	 38.3901 	 35.2734
| 40> H 	 -9.58819 	 40.7701 	 30.9379
| 41> *
| 42>
| 43>                          ****END OF INPUT****

CARTESIAN COORDINATES (ANGSTROEM)
---------------------------------
  S    -14.234300   39.417500   34.696800
  C    -15.856900   38.914900   34.511200
  C    -16.305200   39.020200   33.224700
  C    -15.341300   39.682900   32.396500
  C    -14.128100   39.928600   33.032000
  H    -15.531500   40.026400   31.356300
  C    -17.668700   38.616900   32.716800
  H    -18.097500   39.461600   32.240000
  H    -18.299000   38.401900   33.586700
  C    -17.612800   37.306600   31.907200
  H    -18.611700   36.918800   31.687900
  H    -17.173900   37.457100   30.947100
  C    -16.840900   36.078400   32.420900
  H    -16.892400   35.229200   31.703000
  H    -15.790900   36.191300   32.512300
  H    -17.259700   35.836400   33.419000
  S    -11.457700   39.466900   32.067100
  C    -10.618000   40.772200   31.334100
  C    -11.396700   41.936000   31.436600
  C    -12.727900   41.779700   31.872700
  C    -12.957300   40.493900   32.337000
  H    -11.042400   42.794000   31.124500
  C    -13.664400   42.966300   32.027800
  H    -13.137000   43.768600   32.535700
  H    -14.232000   42.784900   32.944300
  C    -14.650500   43.426600   30.941700
  H    -15.167600   44.298100   31.296600
  H    -15.428500   42.666100   30.545400
  C    -13.938600   43.940800   29.687700
  H    -12.897600   43.731700   29.605200
  H    -13.939100   44.997500   29.700400
  H    -14.400700   43.579200   28.777200
  H    -16.457900   38.390100   35.273400
  H     -9.588190   40.770100   30.937900

 Total Charge           Charge          ....    0
 Multiplicity           Mult            ....    1
 Number of Electrons    NEL             ....  134
 Basis Dimension        Dim             ....  322

ORBITAL ENERGIES
----------------

  NO   OCC          E(Eh)            E(eV)
   0   2.0000     -88.968265     -2420.9496
   1   2.0000     -88.965489     -2420.8740
   2   2.0000     -10.332270      -281.1554
   3   2.0000     -10.328659      -281.0571
   4   2.0000     -10.319983      -280.8210
   5   2.0000     -10.311026      -280.5773
   6   2.0000     -10.303231      -280.3652
   7   2.0000     -10.296283      -280.1761
   8   2.0000     -10.295611      -280.1578
   9   2.0000     -10.293379      -280.0971
  10   2.0000     -10.292536      -280.0742
  11   2.0000     -10.291425      -280.0439
  12   2.0000     -10.283400      -279.8255
  13   2.0000     -10.280105      -279.7359
  14   2.0000     -10.276259      -279.6312
  15   2.0000     -10.264561      -279.3129
  16   2.0000      -8.083487      -219.9629
  17   2.0000      -8.079439      -219.8527
  18   2.0000      -6.041977      -164.4105
  19   2.0000      -6.037962      -164.3013
  20   2.0000      -6.037862      -164.2986
  21   2.0000      -6.034302      -164.2017
  22   2.0000      -6.033956      -164.1923
  23   2.0000      -6.030325      -164.0935
  24   2.0000      -1.004979       -27.3469
  25   2.0000      -0.984009       -26.7763
  26   2.0000      -0.910805       -24.7843
  27   2.0000      -0.906841       -24.6764
  28   2.0000      -0.866676       -23.5834
  29   2.0000      -0.852380       -23.1944
  30   2.0000      -0.846896       -23.0452
  31   2.0000      -0.810557       -22.0564
  32   2.0000      -0.788960       -21.4687
  33   2.0000      -0.777185       -21.1483
  34   2.0000      -0.707742       -19.2586
  35   2.0000      -0.697190       -18.9715
  36   2.0000      -0.690526       -18.7902
  37   2.0000      -0.663897       -18.0656
  38   2.0000      -0.637964       -17.3599
  39   2.0000      -0.617428       -16.8011
  40   2.0000      -0.596433       -16.2298
  41   2.0000      -0.567581       -15.4447
  42   2.0000      -0.557865       -15.1803
  43   2.0000      -0.552792       -15.0422
  44   2.0000      -0.546829       -14.8800
  45   2.0000      -0.542681       -14.7671
  46   2.0000      -0.520060       -14.1515
  47   2.0000      -0.505877       -13.7656
  48   2.0000      -0.500470       -13.6185
  49   2.0000      -0.489710       -13.3257
  50   2.0000      -0.487128       -13.2554
  51   2.0000      -0.481913       -13.1135
  52   2.0000      -0.472578       -12.8595
  53   2.0000      -0.465848       -12.6764
  54   2.0000      -0.459758       -12.5106
  55   2.0000      -0.449346       -12.2273
  56   2.0000      -0.441070       -12.0021
  57   2.0000      -0.439350       -11.9553
  58   2.0000      -0.432291       -11.7632
  59   2.0000      -0.421386       -11.4665
  60   2.0000      -0.416579       -11.3357
  61   2.0000      -0.410300       -11.1648
  62   2.0000      -0.402323       -10.9478
  63   2.0000      -0.337651        -9.1879
  64   2.0000      -0.335365        -9.1257
  65   2.0000      -0.326551        -8.8859
  66   2.0000      -0.299004        -8.1363
  67   0.0000       0.037152         1.0109
  68   0.0000       0.058061         1.5799
  69   0.0000       0.117994         3.2108
  70   0.0000       0.122665         3.3379
  71   0.0000       0.131696         3.5836

MULLIKEN ATOMIC CHARGES
-----------------------
   0 S :    0.131448
   1 C :   -0.125428
   2 C :   -0.121105
   3 C :    0.025897
   4 C :   -0.171555
   5 H :    0.026254
   6 C :    0.126032
   7 H :    0.029889
   8 H :    0.010902
   9 C :   -0.076794
  10 H :    0.028242
  11 H :    0.017287
  12 C :   -0.060706
  13 H :    0.037727
  14 H :    0.034691
  15 H :    0.025599
  16 S :    0.106700
  17 C :   -0.099755
  18 C :    0.018562
  19 C :    0.016208
  20 C :   -0.183149
  21 H :   -0.052210
  22 C :    0.040615
  23 H :    0.021709
  24 H :    0.016613
  25 C :   -0.050436
  26 H :    0.029069
  27 H :    0.048187
  28 C :   -0.030778
  29 H :    0.012318
  30 H :    0.012475
  31 H :    0.027608
  32 H :    0.054228
  33 H :    0.073657
Sum of atomic charges:   -0.0000000

LOEWDIN ATOMIC CHARGES
----------------------
   0 S :    0.428533
   1 C :   -0.213852
   2 C :   -0.069453
   3 C :   -0.056150
   4 C :   -0.208316
   5 H :    0.036121
   6 C :   -0.024312
   7 H :    0.030979
   8 H :    0.029999
   9 C :   -0.042949
  10 H :    0.025061
  11 H :    0.017908
  12 C :   -0.064429
  13 H :    0.033677
  14 H :    0.019787
  15 H :    0.022908
  16 S :    0.389048
  17 C :   -0.196698
  18 C :   -0.058749
  19 C :   -0.049952
  20 C :   -0.172263
  21 H :   -0.002215
  22 C :   -0.044899
  23 H :    0.038195
  24 H :    0.037300
  25 C :   -0.039101
  26 H :    0.027126
  27 H :    0.035305
  28 C :   -0.067819
  29 H :    0.019076
  30 H :    0.019511
  31 H :    0.025558
  32 H :    0.034733
  33 H :    0.040332

  Mayer bond orders larger than 0.100000
B(  0-S ,  1-C ) :   1.1506 B(  0-S ,  4-C ) :   1.1517 B(  1-C ,  2-C ) :   1.6153
B(  1-C , 32-H ) :   0.9553 B(  2-C ,  3-C ) :   1.2476 B(  2-C ,  6-C ) :   1.0268
B(  3-C ,  4-C ) :   1.5673 B(  3-C ,  5-H ) :   0.9874 B(  4-C , 20-C ) :   1.0404
B(  6-C ,  7-H ) :   0.9429 B(  6-C ,  8-H ) :   0.9361 B(  6-C ,  9-C ) :   1.0574
B(  9-C , 10-H ) :   0.9597 B(  9-C , 11-H ) :   0.9561 B(  9-C , 12-C ) :   1.0821
B( 12-C , 13-H ) :   0.9725 B( 12-C , 14-H ) :   0.9719 B( 12-C , 15-H ) :   0.9762
B( 16-S , 17-C ) :   1.1659 B( 16-S , 20-C ) :   1.1346 B( 17-C , 18-C ) :   1.5759
B( 17-C , 20-C ) :   0.1071 B( 17-C , 33-H ) :   0.9644 B( 18-C , 19-C ) :   1.2623
B( 18-C , 21-H ) :   1.0051 B( 19-C , 20-C ) :   1.5883 B( 19-C , 22-C ) :   1.0239
B( 22-C , 23-H ) :   0.9386 B( 22-C , 24-H ) :   0.9176 B( 22-C , 25-C ) :   1.0762
B( 25-C , 26-H ) :   0.9577 B( 25-C , 27-H ) :   0.9635 B( 25-C , 28-C ) :   1.0567
B( 28-C , 29-H ) :   0.9796 B( 28-C , 30-H ) :   0.9778 B( 28-C , 31-H ) :   0.9784

Dispersion correction           -0.014828083
FINAL SINGLE POINT ENERGY     -1339.857448462708

DIPOLE MOMENT
-------------
                                X             Y             Z
Electronic contribution:     17.54180      -4.53483      12.33602
Nuclear contribution   :    -17.92222       4.86653     -12.58058
                        -----------------------------------------
Total Dipole Moment    :     -0.38042       0.33170      -0.24456
                        -----------------------------------------
Magnitude (a.u.)       :      0.56085
Magnitude (Debye)      :      1.42557

Rotational constants in cm-1:     0.019025     0.008413     0.007151
Rotational constants in MHz :   570.353193   252.223389   214.393173

                             ****ORCA TERMINATED NORMALLY****
TOTAL RUN TIME: 0 days 0 hours 0 minutes 33 seconds 570 msec
