                         Program Version 4.2.1 -  RELEASE  -
|  1> ! wB97X-D3 SP def2-SVP
|  2> %pal
|  3> nprocs 16
|  4> end
|  5>
|  6> * xyz 0 1
|  7> S 	 -17.6549 	 -1.44708 	 77.6135
|  8> C 	 -15.9943 	 -1.05414 	 78.0977
|  9> C 	 -15.715 	 -1.60033 	 79.3796
| 10> C 	 -16.7442 	 -2.49391 	 79.8269
| 11> C 	 -17.9233 	 -2.44395 	 79.0473
| 12> H 	 -16.8521 	 -2.94695 	 80.8169
| 13> C 	 -14.3712 	 -1.6404 	 80.1369
| 14> H 	 -13.5846 	 -1.35767 	 79.4421
| 15> H 	 -14.2405 	 -2.67877 	 80.3539
| 16> C 	 -14.426 	 -0.765814 	 81.3779
| 17> H 	 -14.431 	 0.258403 	 81.0971
| 18> H 	 -15.3474 	 -0.827559 	 81.9298
| 19> C 	 -13.2421 	 -0.896082 	 82.3194
| 20> H 	 -13.2196 	 -1.95562 	 82.6264
| 21> H 	 -12.4159 	 -0.536005 	 81.7315
| 22> H 	 -13.3968 	 -0.221278 	 83.2374
| 23> S 	 -20.6594 	 -2.8598 	 78.5622
| 24> C 	 -21.5279 	 -4.0326 	 79.4283
| 25> C 	 -20.6553 	 -4.97883 	 79.9238
| 26> C 	 -19.3103 	 -4.45621 	 79.9091
| 27> C 	 -19.0561 	 -3.31429 	 79.2474
| 28> H 	 -20.9508 	 -5.92449 	 80.161
| 29> C 	 -18.2945 	 -5.37617 	 80.4836
| 30> H 	 -18.7355 	 -6.24379 	 81.0658
| 31> H 	 -17.7783 	 -4.88001 	 81.3354
| 32> C 	 -17.2547 	 -5.99213 	 79.4513
| 33> H 	 -16.6077 	 -5.15219 	 79.0314
| 34> H 	 -17.8231 	 -6.33408 	 78.5468
| 35> C 	 -16.3681 	 -7.11825 	 80.2054
| 36> H 	 -15.5878 	 -7.4127 	 79.6063
| 37> H 	 -16.8885 	 -8.01903 	 80.4975
| 38> H 	 -15.9087 	 -6.80156 	 81.1471
| 39> H 	 -15.3199 	 -0.350127 	 77.5969
| 40> H 	 -22.5376 	 -4.16929 	 79.1184
| 41> *
| 42>
| 43>                          ****END OF INPUT****

CARTESIAN COORDINATES (ANGSTROEM)
---------------------------------
  S    -17.654900   -1.447080   77.613500
  C    -15.994300   -1.054140   78.097700
  C    -15.715000   -1.600330   79.379600
  C    -16.744200   -2.493910   79.826900
  C    -17.923300   -2.443950   79.047300
  H    -16.852100   -2.946950   80.816900
  C    -14.371200   -1.640400   80.136900
  H    -13.584600   -1.357670   79.442100
  H    -14.240500   -2.678770   80.353900
  C    -14.426000   -0.765814   81.377900
  H    -14.431000    0.258403   81.097100
  H    -15.347400   -0.827559   81.929800
  C    -13.242100   -0.896082   82.319400
  H    -13.219600   -1.955620   82.626400
  H    -12.415900   -0.536005   81.731500
  H    -13.396800   -0.221278   83.237400
  S    -20.659400   -2.859800   78.562200
  C    -21.527900   -4.032600   79.428300
  C    -20.655300   -4.978830   79.923800
  C    -19.310300   -4.456210   79.909100
  C    -19.056100   -3.314290   79.247400
  H    -20.950800   -5.924490   80.161000
  C    -18.294500   -5.376170   80.483600
  H    -18.735500   -6.243790   81.065800
  H    -17.778300   -4.880010   81.335400
  C    -17.254700   -5.992130   79.451300
  H    -16.607700   -5.152190   79.031400
  H    -17.823100   -6.334080   78.546800
  C    -16.368100   -7.118250   80.205400
  H    -15.587800   -7.412700   79.606300
  H    -16.888500   -8.019030   80.497500
  H    -15.908700   -6.801560   81.147100
  H    -15.319900   -0.350127   77.596900
  H    -22.537600   -4.169290   79.118400

 Total Charge           Charge          ....    0
 Multiplicity           Mult            ....    1
 Number of Electrons    NEL             ....  134
 Basis Dimension        Dim             ....  322

ORBITAL ENERGIES
----------------

  NO   OCC          E(Eh)            E(eV)
   0   2.0000     -88.973328     -2421.0874
   1   2.0000     -88.956858     -2420.6392
   2   2.0000     -10.338164      -281.3158
   3   2.0000     -10.329381      -281.0767
   4   2.0000     -10.324566      -280.9457
   5   2.0000     -10.314704      -280.6774
   6   2.0000     -10.309869      -280.5458
   7   2.0000     -10.301616      -280.3212
   8   2.0000     -10.300297      -280.2853
   9   2.0000     -10.298001      -280.2229
  10   2.0000     -10.294542      -280.1287
  11   2.0000     -10.293739      -280.1069
  12   2.0000     -10.290655      -280.0229
  13   2.0000     -10.282993      -279.8145
  14   2.0000     -10.277762      -279.6721
  15   2.0000     -10.277183      -279.6564
  16   2.0000      -8.086834      -220.0539
  17   2.0000      -8.072753      -219.6708
  18   2.0000      -6.045506      -164.5066
  19   2.0000      -6.041439      -164.3959
  20   2.0000      -6.037564      -164.2905
  21   2.0000      -6.031323      -164.1206
  22   2.0000      -6.027115      -164.0061
  23   2.0000      -6.023348      -163.9036
  24   2.0000      -1.009565       -27.4717
  25   2.0000      -0.982944       -26.7473
  26   2.0000      -0.916040       -24.9267
  27   2.0000      -0.899566       -24.4784
  28   2.0000      -0.872934       -23.7537
  29   2.0000      -0.850961       -23.1558
  30   2.0000      -0.842113       -22.9151
  31   2.0000      -0.813589       -22.1389
  32   2.0000      -0.780345       -21.2343
  33   2.0000      -0.772980       -21.0339
  34   2.0000      -0.710766       -19.3409
  35   2.0000      -0.698841       -19.0164
  36   2.0000      -0.695467       -18.9246
  37   2.0000      -0.674386       -18.3510
  38   2.0000      -0.638892       -17.3851
  39   2.0000      -0.618878       -16.8405
  40   2.0000      -0.599870       -16.3233
  41   2.0000      -0.571542       -15.5524
  42   2.0000      -0.569878       -15.5072
  43   2.0000      -0.544532       -14.8175
  44   2.0000      -0.532018       -14.4769
  45   2.0000      -0.521763       -14.1979
  46   2.0000      -0.518819       -14.1178
  47   2.0000      -0.512284       -13.9400
  48   2.0000      -0.505777       -13.7629
  49   2.0000      -0.502205       -13.6657
  50   2.0000      -0.491368       -13.3708
  51   2.0000      -0.486729       -13.2446
  52   2.0000      -0.472524       -12.8580
  53   2.0000      -0.465211       -12.6590
  54   2.0000      -0.455585       -12.3971
  55   2.0000      -0.452307       -12.3079
  56   2.0000      -0.442009       -12.0277
  57   2.0000      -0.437364       -11.9013
  58   2.0000      -0.432676       -11.7737
  59   2.0000      -0.422607       -11.4997
  60   2.0000      -0.418314       -11.3829
  61   2.0000      -0.408128       -11.1057
  62   2.0000      -0.405676       -11.0390
  63   2.0000      -0.363951        -9.9036
  64   2.0000      -0.333673        -9.0797
  65   2.0000      -0.322512        -8.7760
  66   2.0000      -0.284776        -7.7491
  67   0.0000       0.014793         0.4025
  68   0.0000       0.071188         1.9371
  69   0.0000       0.102102         2.7783
  70   0.0000       0.112900         3.0722
  71   0.0000       0.132187         3.5970

MULLIKEN ATOMIC CHARGES
-----------------------
   0 S :    0.112910
   1 C :   -0.129373
   2 C :   -0.088275
   3 C :   -0.037547
   4 C :   -0.099999
   5 H :    0.031979
   6 C :    0.088211
   7 H :    0.018331
   8 H :    0.024728
   9 C :   -0.079188
  10 H :    0.011435
  11 H :    0.022534
  12 C :   -0.046971
  13 H :    0.037137
  14 H :    0.032545
  15 H :    0.048089
  16 S :    0.063309
  17 C :   -0.059381
  18 C :    0.010958
  19 C :   -0.080244
  20 C :   -0.082935
  21 H :   -0.010069
  22 C :   -0.009481
  23 H :    0.020405
  24 H :    0.027931
  25 C :   -0.094983
  26 H :    0.057030
  27 H :    0.044482
  28 C :   -0.025909
  29 H :    0.018213
  30 H :    0.029209
  31 H :    0.023678
  32 H :    0.061009
  33 H :    0.060230
Sum of atomic charges:    0.0000000

LOEWDIN ATOMIC CHARGES
----------------------
   0 S :    0.398822
   1 C :   -0.202193
   2 C :   -0.053124
   3 C :   -0.069739
   4 C :   -0.182971
   5 H :    0.034729
   6 C :   -0.022453
   7 H :    0.029146
   8 H :    0.028403
   9 C :   -0.048016
  10 H :    0.020832
  11 H :    0.020730
  12 C :   -0.064451
  13 H :    0.024977
  14 H :    0.022881
  15 H :    0.036784
  16 S :    0.392984
  17 C :   -0.181299
  18 C :   -0.055918
  19 C :   -0.065282
  20 C :   -0.178877
  21 H :    0.016459
  22 C :   -0.046584
  23 H :    0.031729
  24 H :    0.027598
  25 C :   -0.038712
  26 H :    0.032589
  27 H :    0.029907
  28 C :   -0.064040
  29 H :    0.014715
  30 H :    0.024788
  31 H :    0.027196
  32 H :    0.034404
  33 H :    0.023984

  Mayer bond orders larger than 0.100000
B(  0-S ,  1-C ) :   1.1351 B(  0-S ,  4-C ) :   1.1437 B(  1-C ,  2-C ) :   1.5935
B(  1-C ,  4-C ) :   0.1054 B(  1-C , 32-H ) :   0.9645 B(  2-C ,  3-C ) :   1.2561
B(  2-C ,  6-C ) :   1.0194 B(  3-C ,  4-C ) :   1.5603 B(  3-C ,  5-H ) :   0.9753
B(  4-C , 20-C ) :   1.0880 B(  6-C ,  7-H ) :   0.9418 B(  6-C ,  8-H ) :   0.9474
B(  6-C ,  9-C ) :   1.0516 B(  9-C , 10-H ) :   0.9490 B(  9-C , 11-H ) :   0.9600
B(  9-C , 12-C ) :   1.0820 B( 12-C , 13-H ) :   0.9776 B( 12-C , 14-H ) :   0.9749
B( 12-C , 15-H ) :   0.9735 B( 16-S , 17-C ) :   1.1933 B( 16-S , 20-C ) :   1.0846
B( 17-C , 18-C ) :   1.5658 B( 17-C , 33-H ) :   0.9631 B( 18-C , 19-C ) :   1.2416
B( 18-C , 21-H ) :   1.0090 B( 19-C , 20-C ) :   1.5995 B( 19-C , 22-C ) :   1.0522
B( 22-C , 23-H ) :   0.9416 B( 22-C , 24-H ) :   0.9309 B( 22-C , 25-C ) :   1.0401
B( 25-C , 26-H ) :   0.9539 B( 25-C , 27-H ) :   0.9595 B( 25-C , 28-C ) :   1.0574
B( 28-C , 29-H ) :   0.9774 B( 28-C , 30-H ) :   0.9778 B( 28-C , 31-H ) :   0.9769

Dispersion correction           -0.014243383
FINAL SINGLE POINT ENERGY     -1339.846017027037

DIPOLE MOMENT
-------------
                                X             Y             Z
Electronic contribution:    -23.81198      10.00654     -17.09122
Nuclear contribution   :     24.25936     -10.39242      17.42253
                        -----------------------------------------
Total Dipole Moment    :      0.44737      -0.38588       0.33130
                        -----------------------------------------
Magnitude (a.u.)       :      0.67735
Magnitude (Debye)      :      1.72169

Rotational constants in cm-1:     0.017685     0.008720     0.006790
Rotational constants in MHz :   530.169255   261.414167   203.567602

                             ****ORCA TERMINATED NORMALLY****
TOTAL RUN TIME: 0 days 0 hours 0 minutes 32 seconds 610 msec
