                         Program Version 4.2.1 -  RELEASE  -
|  1> ! wB97X-D3 SP def2-SVP
|  2> %pal
|  3> nprocs 16
|  4> end
|  5>
|  6> * xyz 0 1
|  7> S 	 9.11539 	 22.4452 	 41.6656
|  8> C 	 7.7384 	 23.5138 	 41.7451
|  9> C 	 8.0585 	 24.87 	 41.8362
| 10> C 	 9.45223 	 25.0588 	 41.9418
| 11> C 	 10.1782 	 23.8483 	 41.9162
| 12> H 	 10.0482 	 25.9665 	 41.9286
| 13> C 	 7.20804 	 26.1128 	 41.7741
| 14> H 	 6.53799 	 26.0922 	 40.8624
| 15> H 	 7.74383 	 27.0114 	 41.5559
| 16> C 	 6.38951 	 26.4048 	 43.0419
| 17> H 	 5.76794 	 25.6188 	 43.3477
| 18> H 	 7.09214 	 26.5565 	 43.8444
| 19> C 	 5.52612 	 27.6487 	 42.8615
| 20> H 	 4.63837 	 27.5583 	 42.1661
| 21> H 	 5.26197 	 27.91 	 43.8755
| 22> H 	 6.16117 	 28.3967 	 42.4044
| 23> S 	 12.1922 	 24.5812 	 43.5936
| 24> C 	 13.7539 	 23.8642 	 43.3555
| 25> C 	 13.8268 	 23.077 	 42.2291
| 26> C 	 12.6304 	 23.0222 	 41.5253
| 27> C 	 11.612 	 23.7041 	 42.1254
| 28> H 	 14.729 	 22.5915 	 41.9754
| 29> C 	 12.6937 	 22.2853 	 40.2147
| 30> H 	 13.7147 	 22.4432 	 39.8201
| 31> H 	 11.914 	 22.6249 	 39.5101
| 32> C 	 12.4266 	 20.7845 	 40.3638
| 33> H 	 11.5008 	 20.6648 	 40.8615
| 34> H 	 13.1567 	 20.243 	 41.0742
| 35> C 	 12.438 	 19.8425 	 39.1788
| 36> H 	 12.1515 	 18.7556 	 39.5074
| 37> H 	 13.3006 	 19.824 	 38.5257
| 38> H 	 11.618 	 20.1671 	 38.546
| 39> H 	 6.7142 	 23.165 	 41.7093
| 40> H 	 14.5176 	 23.8524 	 44.1268
| 41> *
| 42>
| 43>                          ****END OF INPUT****

CARTESIAN COORDINATES (ANGSTROEM)
---------------------------------
  S      9.115390   22.445200   41.665600
  C      7.738400   23.513800   41.745100
  C      8.058500   24.870000   41.836200
  C      9.452230   25.058800   41.941800
  C     10.178200   23.848300   41.916200
  H     10.048200   25.966500   41.928600
  C      7.208040   26.112800   41.774100
  H      6.537990   26.092200   40.862400
  H      7.743830   27.011400   41.555900
  C      6.389510   26.404800   43.041900
  H      5.767940   25.618800   43.347700
  H      7.092140   26.556500   43.844400
  C      5.526120   27.648700   42.861500
  H      4.638370   27.558300   42.166100
  H      5.261970   27.910000   43.875500
  H      6.161170   28.396700   42.404400
  S     12.192200   24.581200   43.593600
  C     13.753900   23.864200   43.355500
  C     13.826800   23.077000   42.229100
  C     12.630400   23.022200   41.525300
  C     11.612000   23.704100   42.125400
  H     14.729000   22.591500   41.975400
  C     12.693700   22.285300   40.214700
  H     13.714700   22.443200   39.820100
  H     11.914000   22.624900   39.510100
  C     12.426600   20.784500   40.363800
  H     11.500800   20.664800   40.861500
  H     13.156700   20.243000   41.074200
  C     12.438000   19.842500   39.178800
  H     12.151500   18.755600   39.507400
  H     13.300600   19.824000   38.525700
  H     11.618000   20.167100   38.546000
  H      6.714200   23.165000   41.709300
  H     14.517600   23.852400   44.126800

 Total Charge           Charge          ....    0
 Multiplicity           Mult            ....    1
 Number of Electrons    NEL             ....  134
 Basis Dimension        Dim             ....  322

ORBITAL ENERGIES
----------------

  NO   OCC          E(Eh)            E(eV)
   0   2.0000     -88.973315     -2421.0870
   1   2.0000     -88.965190     -2420.8659
   2   2.0000     -10.331582      -281.1366
   3   2.0000     -10.327510      -281.0258
   4   2.0000     -10.315593      -280.7016
   5   2.0000     -10.314194      -280.6635
   6   2.0000     -10.302086      -280.3340
   7   2.0000     -10.298009      -280.2231
   8   2.0000     -10.296238      -280.1749
   9   2.0000     -10.292942      -280.0852
  10   2.0000     -10.292106      -280.0625
  11   2.0000     -10.285240      -279.8756
  12   2.0000     -10.284975      -279.8684
  13   2.0000     -10.282212      -279.7932
  14   2.0000     -10.278829      -279.7012
  15   2.0000     -10.278234      -279.6850
  16   2.0000      -8.086973      -220.0577
  17   2.0000      -8.079545      -219.8556
  18   2.0000      -6.045431      -164.5046
  19   2.0000      -6.041708      -164.4032
  20   2.0000      -6.037991      -164.3021
  21   2.0000      -6.037815      -164.2973
  22   2.0000      -6.034217      -164.1994
  23   2.0000      -6.030277      -164.0922
  24   2.0000      -1.005461       -27.3600
  25   2.0000      -0.983776       -26.7699
  26   2.0000      -0.913505       -24.8577
  27   2.0000      -0.910646       -24.7799
  28   2.0000      -0.868211       -23.6252
  29   2.0000      -0.857540       -23.3348
  30   2.0000      -0.852222       -23.1901
  31   2.0000      -0.806433       -21.9442
  32   2.0000      -0.784596       -21.3499
  33   2.0000      -0.770405       -20.9638
  34   2.0000      -0.704427       -19.1684
  35   2.0000      -0.701021       -19.0757
  36   2.0000      -0.687762       -18.7150
  37   2.0000      -0.671888       -18.2830
  38   2.0000      -0.641964       -17.4687
  39   2.0000      -0.614258       -16.7148
  40   2.0000      -0.599718       -16.3191
  41   2.0000      -0.573565       -15.6075
  42   2.0000      -0.564289       -15.3551
  43   2.0000      -0.555465       -15.1150
  44   2.0000      -0.530133       -14.4257
  45   2.0000      -0.524654       -14.2766
  46   2.0000      -0.516555       -14.0562
  47   2.0000      -0.507990       -13.8231
  48   2.0000      -0.505641       -13.7592
  49   2.0000      -0.502951       -13.6860
  50   2.0000      -0.489737       -13.3264
  51   2.0000      -0.474624       -12.9152
  52   2.0000      -0.470224       -12.7954
  53   2.0000      -0.466383       -12.6909
  54   2.0000      -0.462242       -12.5782
  55   2.0000      -0.452928       -12.3248
  56   2.0000      -0.445096       -12.1117
  57   2.0000      -0.439323       -11.9546
  58   2.0000      -0.430447       -11.7131
  59   2.0000      -0.425740       -11.5850
  60   2.0000      -0.420454       -11.4411
  61   2.0000      -0.417792       -11.3687
  62   2.0000      -0.401283       -10.9195
  63   2.0000      -0.346461        -9.4277
  64   2.0000      -0.336232        -9.1493
  65   2.0000      -0.333994        -9.0884
  66   2.0000      -0.283540        -7.7155
  67   0.0000       0.026327         0.7164
  68   0.0000       0.063994         1.7414
  69   0.0000       0.092532         2.5179
  70   0.0000       0.110409         3.0044
  71   0.0000       0.140067         3.8114

MULLIKEN ATOMIC CHARGES
-----------------------
   0 S :    0.119268
   1 C :   -0.120313
   2 C :   -0.032168
   3 C :   -0.006931
   4 C :   -0.149776
   5 H :    0.022126
   6 C :    0.039809
   7 H :    0.031396
   8 H :    0.008329
   9 C :   -0.055171
  10 H :    0.018260
  11 H :    0.024198
  12 C :   -0.041235
  13 H :    0.044219
  14 H :    0.035414
  15 H :    0.017538
  16 S :    0.102153
  17 C :   -0.084546
  18 C :   -0.033431
  19 C :   -0.003684
  20 C :   -0.175317
  21 H :    0.003010
  22 C :    0.091142
  23 H :    0.030449
  24 H :    0.029518
  25 C :   -0.103228
  26 H :    0.012140
  27 H :    0.025459
  28 C :   -0.049850
  29 H :    0.049137
  30 H :    0.033893
  31 H :    0.018675
  32 H :    0.043126
  33 H :    0.056389
Sum of atomic charges:    0.0000000

LOEWDIN ATOMIC CHARGES
----------------------
   0 S :    0.408885
   1 C :   -0.200287
   2 C :   -0.060708
   3 C :   -0.067424
   4 C :   -0.188823
   5 H :    0.032731
   6 C :   -0.034947
   7 H :    0.034988
   8 H :    0.025138
   9 C :   -0.033242
  10 H :    0.015174
  11 H :    0.024760
  12 C :   -0.063518
  13 H :    0.031581
  14 H :    0.027123
  15 H :    0.019946
  16 S :    0.395229
  17 C :   -0.183188
  18 C :   -0.064078
  19 C :   -0.059940
  20 C :   -0.178795
  21 H :    0.026517
  22 C :   -0.025921
  23 H :    0.035022
  24 H :    0.033387
  25 C :   -0.052692
  26 H :    0.013175
  27 H :    0.026806
  28 C :   -0.073033
  29 H :    0.042043
  30 H :    0.020714
  31 H :    0.019770
  32 H :    0.025583
  33 H :    0.028028

  Mayer bond orders larger than 0.100000
B(  0-S ,  1-C ) :   1.1425 B(  0-S ,  4-C ) :   1.1486 B(  1-C ,  2-C ) :   1.5968
B(  1-C ,  4-C ) :   0.1021 B(  1-C , 32-H ) :   0.9669 B(  2-C ,  3-C ) :   1.2527
B(  2-C ,  6-C ) :   1.0179 B(  3-C ,  4-C ) :   1.5434 B(  3-C ,  5-H ) :   0.9919
B(  4-C , 20-C ) :   1.0628 B(  6-C ,  7-H ) :   0.9404 B(  6-C ,  8-H ) :   0.9420
B(  6-C ,  9-C ) :   1.0632 B(  9-C , 10-H ) :   0.9578 B(  9-C , 11-H ) :   0.9527
B(  9-C , 12-C ) :   1.0826 B( 12-C , 13-H ) :   0.9750 B( 12-C , 14-H ) :   0.9741
B( 12-C , 15-H ) :   0.9727 B( 16-S , 17-C ) :   1.1570 B( 16-S , 20-C ) :   1.1212
B( 17-C , 18-C ) :   1.6144 B( 17-C , 33-H ) :   0.9624 B( 18-C , 19-C ) :   1.2322
B( 18-C , 21-H ) :   0.9971 B( 19-C , 20-C ) :   1.6037 B( 19-C , 22-C ) :   1.0460
B( 22-C , 23-H ) :   0.9338 B( 22-C , 24-H ) :   0.9290 B( 22-C , 25-C ) :   1.0597
B( 25-C , 26-H ) :   0.9485 B( 25-C , 27-H ) :   0.9567 B( 25-C , 28-C ) :   1.0872
B( 28-C , 29-H ) :   0.9711 B( 28-C , 30-H ) :   0.9755 B( 28-C , 31-H ) :   0.9700

Dispersion correction           -0.013743132
FINAL SINGLE POINT ENERGY     -1339.870956783882

DIPOLE MOMENT
-------------
                                X             Y             Z
Electronic contribution:      8.99428      -1.42106       8.46936
Nuclear contribution   :     -9.01610       1.48376      -8.62542
                        -----------------------------------------
Total Dipole Moment    :     -0.02181       0.06269      -0.15606
                        -----------------------------------------
Magnitude (a.u.)       :      0.16959
Magnitude (Debye)      :      0.43107

Rotational constants in cm-1:     0.022880     0.007337     0.005878
Rotational constants in MHz :   685.917004   219.944019   176.205749

                             ****ORCA TERMINATED NORMALLY****
TOTAL RUN TIME: 0 days 0 hours 0 minutes 33 seconds 896 msec
