                         Program Version 4.2.1 -  RELEASE  -
|  1> ! wB97X-D3 SP def2-SVP
|  2> %pal
|  3> nprocs 16
|  4> end
|  5>
|  6> * xyz 0 1
|  7> S 	 -100.725 	 52.1541 	 122.377
|  8> C 	 -100.274 	 52.125 	 120.719
|  9> C 	 -101.202 	 52.7033 	 119.893
| 10> C 	 -102.341 	 53.1705 	 120.619
| 11> C 	 -102.241 	 52.9641 	 121.998
| 12> H 	 -103.231 	 53.5694 	 120.225
| 13> C 	 -101.004 	 52.9585 	 118.377
| 14> H 	 -101.579 	 53.7748 	 117.975
| 15> H 	 -101.405 	 52.189 	 117.808
| 16> C 	 -99.5684 	 53.104 	 117.991
| 17> H 	 -99.1088 	 53.7466 	 118.69
| 18> H 	 -99.0448 	 52.136 	 118.038
| 19> C 	 -99.3909 	 53.7009 	 116.562
| 20> H 	 -98.3063 	 53.8598 	 116.323
| 21> H 	 -99.8358 	 53.0749 	 115.835
| 22> H 	 -99.7593 	 54.6757 	 116.522
| 23> S 	 -102.138 	 54.3849 	 124.387
| 24> C 	 -103.624 	 54.676 	 125.251
| 25> C 	 -104.752 	 54.2955 	 124.45
| 26> C 	 -104.392 	 53.6138 	 123.293
| 27> C 	 -103.015 	 53.4487 	 123.142
| 28> H 	 -105.746 	 54.4686 	 124.892
| 29> C 	 -105.416 	 53.1136 	 122.35
| 30> H 	 -105.115 	 52.066 	 122.152
| 31> H 	 -105.221 	 53.6653 	 121.406
| 32> C 	 -106.86 	 52.9682 	 122.798
| 33> H 	 -106.961 	 52.4965 	 123.743
| 34> H 	 -107.206 	 52.1671 	 122.147
| 35> C 	 -107.742 	 54.1801 	 122.676
| 36> H 	 -108.806 	 53.8536 	 122.838
| 37> H 	 -107.694 	 54.7085 	 121.707
| 38> H 	 -107.52 	 54.8894 	 123.469
| 39> H 	 -99.39 	 51.6707 	 120.351
| 40> H 	 -103.69 	 55.2147 	 126.197
| 41> *
| 42>
| 43>                          ****END OF INPUT****

CARTESIAN COORDINATES (ANGSTROEM)
---------------------------------
  S    -100.725000   52.154100  122.377000
  C    -100.274000   52.125000  120.719000
  C    -101.202000   52.703300  119.893000
  C    -102.341000   53.170500  120.619000
  C    -102.241000   52.964100  121.998000
  H    -103.231000   53.569400  120.225000
  C    -101.004000   52.958500  118.377000
  H    -101.579000   53.774800  117.975000
  H    -101.405000   52.189000  117.808000
  C    -99.568400   53.104000  117.991000
  H    -99.108800   53.746600  118.690000
  H    -99.044800   52.136000  118.038000
  C    -99.390900   53.700900  116.562000
  H    -98.306300   53.859800  116.323000
  H    -99.835800   53.074900  115.835000
  H    -99.759300   54.675700  116.522000
  S    -102.138000   54.384900  124.387000
  C    -103.624000   54.676000  125.251000
  C    -104.752000   54.295500  124.450000
  C    -104.392000   53.613800  123.293000
  C    -103.015000   53.448700  123.142000
  H    -105.746000   54.468600  124.892000
  C    -105.416000   53.113600  122.350000
  H    -105.115000   52.066000  122.152000
  H    -105.221000   53.665300  121.406000
  C    -106.860000   52.968200  122.798000
  H    -106.961000   52.496500  123.743000
  H    -107.206000   52.167100  122.147000
  C    -107.742000   54.180100  122.676000
  H    -108.806000   53.853600  122.838000
  H    -107.694000   54.708500  121.707000
  H    -107.520000   54.889400  123.469000
  H    -99.390000   51.670700  120.351000
  H    -103.690000   55.214700  126.197000

 Total Charge           Charge          ....    0
 Multiplicity           Mult            ....    1
 Number of Electrons    NEL             ....  134
 Basis Dimension        Dim             ....  322

ORBITAL ENERGIES
----------------

  NO   OCC          E(Eh)            E(eV)
   0   2.0000     -88.967790     -2420.9366
   1   2.0000     -88.963399     -2420.8172
   2   2.0000     -10.329950      -281.0922
   3   2.0000     -10.324672      -280.9486
   4   2.0000     -10.320630      -280.8386
   5   2.0000     -10.306422      -280.4520
   6   2.0000     -10.301346      -280.3139
   7   2.0000     -10.297721      -280.2152
   8   2.0000     -10.295111      -280.1442
   9   2.0000     -10.293731      -280.1066
  10   2.0000     -10.290907      -280.0298
  11   2.0000     -10.283985      -279.8415
  12   2.0000     -10.283667      -279.8328
  13   2.0000     -10.282095      -279.7900
  14   2.0000     -10.280750      -279.7534
  15   2.0000     -10.274758      -279.5904
  16   2.0000      -8.081574      -219.9108
  17   2.0000      -8.078639      -219.8310
  18   2.0000      -6.039994      -164.3566
  19   2.0000      -6.037042      -164.2763
  20   2.0000      -6.036162      -164.2523
  21   2.0000      -6.033027      -164.1670
  22   2.0000      -6.032537      -164.1537
  23   2.0000      -6.029536      -164.0720
  24   2.0000      -1.004599       -27.3365
  25   2.0000      -0.982451       -26.7339
  26   2.0000      -0.917340       -24.9621
  27   2.0000      -0.914425       -24.8828
  28   2.0000      -0.864854       -23.5339
  29   2.0000      -0.856063       -23.2947
  30   2.0000      -0.845661       -23.0116
  31   2.0000      -0.810755       -22.0618
  32   2.0000      -0.787893       -21.4396
  33   2.0000      -0.773223       -21.0405
  34   2.0000      -0.711761       -19.3680
  35   2.0000      -0.707352       -19.2480
  36   2.0000      -0.691972       -18.8295
  37   2.0000      -0.659575       -17.9480
  38   2.0000      -0.643406       -17.5080
  39   2.0000      -0.617165       -16.7939
  40   2.0000      -0.597772       -16.2662
  41   2.0000      -0.573569       -15.6076
  42   2.0000      -0.569153       -15.4874
  43   2.0000      -0.551622       -15.0104
  44   2.0000      -0.533221       -14.5097
  45   2.0000      -0.529514       -14.4088
  46   2.0000      -0.520730       -14.1698
  47   2.0000      -0.513411       -13.9706
  48   2.0000      -0.507379       -13.8065
  49   2.0000      -0.499540       -13.5932
  50   2.0000      -0.496156       -13.5011
  51   2.0000      -0.478610       -13.0236
  52   2.0000      -0.474265       -12.9054
  53   2.0000      -0.465511       -12.6672
  54   2.0000      -0.459096       -12.4926
  55   2.0000      -0.450688       -12.2638
  56   2.0000      -0.441910       -12.0250
  57   2.0000      -0.437162       -11.8958
  58   2.0000      -0.434662       -11.8278
  59   2.0000      -0.426856       -11.6153
  60   2.0000      -0.423092       -11.5129
  61   2.0000      -0.417253       -11.3540
  62   2.0000      -0.411964       -11.2101
  63   2.0000      -0.346520        -9.4293
  64   2.0000      -0.331857        -9.0303
  65   2.0000      -0.328954        -8.9513
  66   2.0000      -0.283088        -7.7032
  67   0.0000       0.024106         0.6559
  68   0.0000       0.069653         1.8954
  69   0.0000       0.111980         3.0471
  70   0.0000       0.126845         3.4516
  71   0.0000       0.135456         3.6860

MULLIKEN ATOMIC CHARGES
-----------------------
   0 S :    0.111230
   1 C :   -0.107081
   2 C :   -0.084751
   3 C :    0.048291
   4 C :   -0.180758
   5 H :   -0.014841
   6 C :    0.130569
   7 H :    0.007435
   8 H :    0.008466
   9 C :   -0.116491
  10 H :    0.026813
  11 H :    0.034798
  12 C :   -0.023802
  13 H :    0.033940
  14 H :    0.027278
  15 H :    0.018804
  16 S :    0.114746
  17 C :   -0.108891
  18 C :   -0.071241
  19 C :   -0.020284
  20 C :   -0.127867
  21 H :    0.031698
  22 C :    0.027041
  23 H :    0.040373
  24 H :    0.045173
  25 C :   -0.043623
  26 H :    0.019169
  27 H :    0.020769
  28 C :   -0.044637
  29 H :    0.038089
  30 H :    0.038014
  31 H :    0.026216
  32 H :    0.031819
  33 H :    0.063537
Sum of atomic charges:    0.0000000

LOEWDIN ATOMIC CHARGES
----------------------
   0 S :    0.416723
   1 C :   -0.202212
   2 C :   -0.057430
   3 C :   -0.056519
   4 C :   -0.187210
   5 H :    0.020599
   6 C :   -0.027509
   7 H :    0.028288
   8 H :    0.024017
   9 C :   -0.038228
  10 H :    0.018109
  11 H :    0.024076
  12 C :   -0.055704
  13 H :    0.033541
  14 H :    0.018716
  15 H :    0.016603
  16 S :    0.406814
  17 C :   -0.191361
  18 C :   -0.078301
  19 C :   -0.060116
  20 C :   -0.204580
  21 H :    0.035050
  22 C :   -0.038554
  23 H :    0.043752
  24 H :    0.037114
  25 C :   -0.046001
  26 H :    0.025047
  27 H :    0.030512
  28 C :   -0.067779
  29 H :    0.033177
  30 H :    0.028389
  31 H :    0.020433
  32 H :    0.020327
  33 H :    0.030217

  Mayer bond orders larger than 0.100000
B(  0-S ,  1-C ) :   1.1439 B(  0-S ,  4-C ) :   1.1594 B(  1-C ,  2-C ) :   1.6213
B(  1-C , 32-H ) :   0.9662 B(  2-C ,  3-C ) :   1.2557 B(  2-C ,  6-C ) :   1.0036
B(  3-C ,  4-C ) :   1.5568 B(  3-C ,  5-H ) :   1.0004 B(  4-C , 20-C ) :   1.0409
B(  6-C ,  7-H ) :   0.9472 B(  6-C ,  8-H ) :   0.9157 B(  6-C ,  9-C ) :   1.0780
B(  9-C , 10-H ) :   0.9623 B(  9-C , 11-H ) :   0.9449 B(  9-C , 12-C ) :   1.0912
B( 12-C , 13-H ) :   0.9731 B( 12-C , 14-H ) :   0.9762 B( 12-C , 15-H ) :   0.9740
B( 16-S , 17-C ) :   1.1853 B( 16-S , 20-C ) :   1.1400 B( 17-C , 18-C ) :   1.5441
B( 17-C , 20-C ) :   0.1194 B( 17-C , 33-H ) :   0.9659 B( 18-C , 19-C ) :   1.2906
B( 18-C , 21-H ) :   0.9818 B( 19-C , 20-C ) :   1.5543 B( 19-C , 22-C ) :   1.0368
B( 22-C , 23-H ) :   0.9321 B( 22-C , 24-H ) :   0.9197 B( 22-C , 25-C ) :   1.0858
B( 25-C , 26-H ) :   0.9462 B( 25-C , 27-H ) :   0.9497 B( 25-C , 28-C ) :   1.0812
B( 28-C , 29-H ) :   0.9702 B( 28-C , 30-H ) :   0.9725 B( 28-C , 31-H ) :   0.9760

Dispersion correction           -0.013487903
FINAL SINGLE POINT ENERGY     -1339.873571365907

DIPOLE MOMENT
-------------
                                X             Y             Z
Electronic contribution:     11.42055      -1.84281      21.53916
Nuclear contribution   :    -11.88415       1.92989     -22.02826
                        -----------------------------------------
Total Dipole Moment    :     -0.46361       0.08707      -0.48910
                        -----------------------------------------
Magnitude (a.u.)       :      0.67950
Magnitude (Debye)      :      1.72716

Rotational constants in cm-1:     0.021847     0.006980     0.005783
Rotational constants in MHz :   654.960984   209.248930   173.365708

                             ****ORCA TERMINATED NORMALLY****
TOTAL RUN TIME: 0 days 0 hours 0 minutes 33 seconds 349 msec
