                         Program Version 4.2.1 -  RELEASE  -
|  1> ! wB97X-D3 SP def2-SVP
|  2> %pal
|  3> nprocs 16
|  4> end
|  5>
|  6> * xyz 0 1
|  7> S 	 19.9576 	 -0.172249 	 84.2307
|  8> C 	 20.1481 	 0.57158 	 82.5906
|  9> C 	 19.2308 	 1.54364 	 82.2126
| 10> C 	 18.237 	 1.54354 	 83.3038
| 11> C 	 18.4606 	 0.754667 	 84.4207
| 12> H 	 17.4468 	 2.19029 	 83.2953
| 13> C 	 19.0669 	 2.23163 	 80.8257
| 14> H 	 18.0742 	 2.54688 	 80.7816
| 15> H 	 19.2612 	 1.52419 	 79.9247
| 16> C 	 19.8102 	 3.54224 	 80.7133
| 17> H 	 19.6332 	 4.15533 	 81.6071
| 18> H 	 20.8676 	 3.33032 	 80.7549
| 19> C 	 19.4919 	 4.46061 	 79.5006
| 20> H 	 18.5698 	 4.96404 	 79.632
| 21> H 	 20.1609 	 5.27487 	 79.4599
| 22> H 	 19.5528 	 4.05741 	 78.488
| 23> S 	 18.3365 	 1.34525 	 87.1618
| 24> C 	 16.811 	 1.28591 	 87.987
| 25> C 	 15.899 	 0.765949 	 87.1065
| 26> C 	 16.3569 	 0.368405 	 85.781
| 27> C 	 17.6824 	 0.706813 	 85.6123
| 28> H 	 14.9027 	 0.679958 	 87.4272
| 29> C 	 15.4073 	 -0.106751 	 84.7659
| 30> H 	 15.8633 	 -0.384828 	 83.7906
| 31> H 	 14.6842 	 0.625765 	 84.4113
| 32> C 	 14.699 	 -1.4192 	 85.1288
| 33> H 	 14.2007 	 -1.10593 	 86.0216
| 34> H 	 15.3448 	 -2.22687 	 85.4626
| 35> C 	 13.731 	 -1.93299 	 84.0623
| 36> H 	 13.148 	 -1.18613 	 83.5939
| 37> H 	 13.0105 	 -2.62813 	 84.6751
| 38> H 	 14.2057 	 -2.53621 	 83.3177
| 39> H 	 21.0365 	 0.366702 	 82.0053
| 40> H 	 16.3954 	 1.64477 	 88.9233
| 41> *
| 42>
| 43>                          ****END OF INPUT****

CARTESIAN COORDINATES (ANGSTROEM)
---------------------------------
  S     19.957600   -0.172249   84.230700
  C     20.148100    0.571580   82.590600
  C     19.230800    1.543640   82.212600
  C     18.237000    1.543540   83.303800
  C     18.460600    0.754667   84.420700
  H     17.446800    2.190290   83.295300
  C     19.066900    2.231630   80.825700
  H     18.074200    2.546880   80.781600
  H     19.261200    1.524190   79.924700
  C     19.810200    3.542240   80.713300
  H     19.633200    4.155330   81.607100
  H     20.867600    3.330320   80.754900
  C     19.491900    4.460610   79.500600
  H     18.569800    4.964040   79.632000
  H     20.160900    5.274870   79.459900
  H     19.552800    4.057410   78.488000
  S     18.336500    1.345250   87.161800
  C     16.811000    1.285910   87.987000
  C     15.899000    0.765949   87.106500
  C     16.356900    0.368405   85.781000
  C     17.682400    0.706813   85.612300
  H     14.902700    0.679958   87.427200
  C     15.407300   -0.106751   84.765900
  H     15.863300   -0.384828   83.790600
  H     14.684200    0.625765   84.411300
  C     14.699000   -1.419200   85.128800
  H     14.200700   -1.105930   86.021600
  H     15.344800   -2.226870   85.462600
  C     13.731000   -1.932990   84.062300
  H     13.148000   -1.186130   83.593900
  H     13.010500   -2.628130   84.675100
  H     14.205700   -2.536210   83.317700
  H     21.036500    0.366702   82.005300
  H     16.395400    1.644770   88.923300

 Total Charge           Charge          ....    0
 Multiplicity           Mult            ....    1
 Number of Electrons    NEL             ....  134
 Basis Dimension        Dim             ....  322

ORBITAL ENERGIES
----------------

  NO   OCC          E(Eh)            E(eV)
   0   2.0000     -88.967036     -2420.9161
   1   2.0000     -88.963264     -2420.8135
   2   2.0000     -10.328559      -281.0544
   3   2.0000     -10.327354      -281.0216
   4   2.0000     -10.321153      -280.8528
   5   2.0000     -10.317018      -280.7403
   6   2.0000     -10.312453      -280.6161
   7   2.0000     -10.303641      -280.3763
   8   2.0000     -10.303021      -280.3594
   9   2.0000     -10.294847      -280.1370
  10   2.0000     -10.288569      -279.9662
  11   2.0000     -10.287432      -279.9353
  12   2.0000     -10.286456      -279.9087
  13   2.0000     -10.280923      -279.7581
  14   2.0000     -10.279936      -279.7313
  15   2.0000     -10.275399      -279.6078
  16   2.0000      -8.080724      -219.8877
  17   2.0000      -8.077492      -219.7997
  18   2.0000      -6.039339      -164.3388
  19   2.0000      -6.036291      -164.2558
  20   2.0000      -6.035545      -164.2355
  21   2.0000      -6.032000      -164.1391
  22   2.0000      -6.031266      -164.1191
  23   2.0000      -6.027975      -164.0295
  24   2.0000      -1.001552       -27.2536
  25   2.0000      -0.975763       -26.5519
  26   2.0000      -0.913035       -24.8450
  27   2.0000      -0.912480       -24.8299
  28   2.0000      -0.872937       -23.7538
  29   2.0000      -0.849822       -23.1248
  30   2.0000      -0.841656       -22.9026
  31   2.0000      -0.813103       -22.1256
  32   2.0000      -0.790462       -21.5096
  33   2.0000      -0.774828       -21.0841
  34   2.0000      -0.708004       -19.2658
  35   2.0000      -0.703696       -19.1486
  36   2.0000      -0.699362       -19.0306
  37   2.0000      -0.655459       -17.8359
  38   2.0000      -0.642783       -17.4910
  39   2.0000      -0.620839       -16.8939
  40   2.0000      -0.601188       -16.3591
  41   2.0000      -0.573593       -15.6083
  42   2.0000      -0.564625       -15.3642
  43   2.0000      -0.561740       -15.2857
  44   2.0000      -0.527151       -14.3445
  45   2.0000      -0.521915       -14.2020
  46   2.0000      -0.518500       -14.1091
  47   2.0000      -0.511469       -13.9178
  48   2.0000      -0.505753       -13.7622
  49   2.0000      -0.500667       -13.6238
  50   2.0000      -0.496952       -13.5227
  51   2.0000      -0.474382       -12.9086
  52   2.0000      -0.469617       -12.7789
  53   2.0000      -0.463024       -12.5995
  54   2.0000      -0.458612       -12.4795
  55   2.0000      -0.451835       -12.2951
  56   2.0000      -0.446198       -12.1417
  57   2.0000      -0.439903       -11.9704
  58   2.0000      -0.436513       -11.8781
  59   2.0000      -0.428567       -11.6619
  60   2.0000      -0.419917       -11.4265
  61   2.0000      -0.416376       -11.3302
  62   2.0000      -0.393024       -10.6947
  63   2.0000      -0.339130        -9.2282
  64   2.0000      -0.333123        -9.0647
  65   2.0000      -0.325480        -8.8568
  66   2.0000      -0.300269        -8.1707
  67   0.0000       0.035272         0.9598
  68   0.0000       0.058235         1.5847
  69   0.0000       0.104940         2.8556
  70   0.0000       0.116150         3.1606
  71   0.0000       0.126136         3.4323

MULLIKEN ATOMIC CHARGES
-----------------------
   0 S :    0.103667
   1 C :   -0.121481
   2 C :   -0.086434
   3 C :    0.074150
   4 C :   -0.171211
   5 H :   -0.029968
   6 C :    0.095510
   7 H :   -0.000531
   8 H :    0.059381
   9 C :   -0.100099
  10 H :    0.033040
  11 H :    0.023983
  12 C :   -0.015250
  13 H :    0.020951
  14 H :    0.016044
  15 H :    0.031592
  16 S :    0.102571
  17 C :   -0.061441
  18 C :   -0.058121
  19 C :    0.023750
  20 C :   -0.154075
  21 H :    0.001820
  22 C :    0.039590
  23 H :    0.019982
  24 H :    0.032987
  25 C :   -0.094953
  26 H :    0.008762
  27 H :    0.035174
  28 C :   -0.036230
  29 H :    0.023107
  30 H :    0.041860
  31 H :    0.039246
  32 H :    0.046189
  33 H :    0.056437
Sum of atomic charges:   -0.0000000

LOEWDIN ATOMIC CHARGES
----------------------
   0 S :    0.370708
   1 C :   -0.163577
   2 C :   -0.057535
   3 C :   -0.036723
   4 C :   -0.193388
   5 H :    0.010845
   6 C :   -0.027239
   7 H :    0.021890
   8 H :    0.046273
   9 C :   -0.042122
  10 H :    0.030732
  11 H :    0.019035
  12 C :   -0.065337
  13 H :    0.021256
  14 H :    0.024941
  15 H :    0.026495
  16 S :    0.388902
  17 C :   -0.193596
  18 C :   -0.069626
  19 C :   -0.050338
  20 C :   -0.185303
  21 H :    0.017072
  22 C :   -0.043786
  23 H :    0.031635
  24 H :    0.032559
  25 C :   -0.040140
  26 H :    0.013506
  27 H :    0.028527
  28 C :   -0.061779
  29 H :    0.017019
  30 H :    0.042118
  31 H :    0.022957
  32 H :    0.021250
  33 H :    0.042767

  Mayer bond orders larger than 0.100000
B(  0-S ,  1-C ) :   1.1358 B(  0-S ,  4-C ) :   1.1081 B(  1-C ,  2-C ) :   1.6524
B(  1-C , 32-H ) :   0.9603 B(  2-C ,  3-C ) :   1.2112 B(  2-C ,  6-C ) :   1.0106
B(  3-C ,  4-C ) :   1.6221 B(  3-C ,  5-H ) :   0.9980 B(  4-C , 20-C ) :   1.0647
B(  6-C ,  7-H ) :   0.9334 B(  6-C ,  8-H ) :   0.9482 B(  6-C ,  9-C ) :   1.0562
B(  9-C , 10-H ) :   0.9535 B(  9-C , 11-H ) :   0.9601 B(  9-C , 12-C ) :   1.0830
B( 12-C , 13-H ) :   0.9731 B( 12-C , 14-H ) :   0.9695 B( 12-C , 15-H ) :   0.9753
B( 16-S , 17-C ) :   1.1302 B( 16-S , 20-C ) :   1.1162 B( 17-C , 18-C ) :   1.6550
B( 17-C , 33-H ) :   0.9628 B( 18-C , 19-C ) :   1.1996 B( 18-C , 21-H ) :   0.9879
B( 19-C , 20-C ) :   1.6066 B( 19-C , 22-C ) :   1.0708 B( 22-C , 23-H ) :   0.9289
B( 22-C , 24-H ) :   0.9340 B( 22-C , 25-C ) :   1.0428 B( 25-C , 26-H ) :   0.9632
B( 25-C , 27-H ) :   0.9544 B( 25-C , 28-C ) :   1.0815 B( 28-C , 29-H ) :   0.9731
B( 28-C , 30-H ) :   0.9745 B( 28-C , 31-H ) :   0.9764

Dispersion correction           -0.013261498
FINAL SINGLE POINT ENERGY     -1339.849486783775

DIPOLE MOMENT
-------------
                                X             Y             Z
Electronic contribution:     14.19444      -4.08285      21.30114
Nuclear contribution   :    -14.74072       4.41651     -21.84248
                        -----------------------------------------
Total Dipole Moment    :     -0.54628       0.33367      -0.54133
                        -----------------------------------------
Magnitude (a.u.)       :      0.83833
Magnitude (Debye)      :      2.13087

Rotational constants in cm-1:     0.017730     0.007230     0.006247
Rotational constants in MHz :   531.544298   216.755169   187.274858

                             ****ORCA TERMINATED NORMALLY****
TOTAL RUN TIME: 0 days 0 hours 0 minutes 33 seconds 29 msec
