                         Program Version 4.2.1 -  RELEASE  -
|  1> ! wB97X-D3 SP def2-SVP
|  2> %pal
|  3> nprocs 16
|  4> end
|  5>
|  6> * xyz 0 1
|  7> S 	 52.5673 	 7.80007 	 95.2225
|  8> C 	 53.0021 	 9.4775 	 95.4117
|  9> C 	 51.9783 	 10.2927 	 94.9914
| 10> C 	 50.8254 	 9.56554 	 94.6428
| 11> C 	 50.9596 	 8.2228 	 94.6784
| 12> H 	 49.8676 	 9.96799 	 94.3583
| 13> C 	 52.0308 	 11.8004 	 95.0807
| 14> H 	 52.0506 	 12.121 	 93.9588
| 15> H 	 52.9762 	 12.2146 	 95.4832
| 16> C 	 50.7447 	 12.5288 	 95.5459
| 17> H 	 49.9126 	 12.2079 	 94.9652
| 18> H 	 50.4785 	 12.3302 	 96.5307
| 19> C 	 50.7773 	 14.0518 	 95.1756
| 20> H 	 51.0429 	 14.3479 	 94.2013
| 21> H 	 49.8198 	 14.601 	 95.4156
| 22> H 	 51.6102 	 14.6382 	 95.7121
| 23> S 	 50.3126 	 6.42608 	 92.6622
| 24> C 	 48.9103 	 5.37258 	 92.9097
| 25> C 	 48.2366 	 5.68183 	 94.0876
| 26> C 	 48.8447 	 6.8162 	 94.8114
| 27> C 	 50.0035 	 7.25433 	 94.186
| 28> H 	 47.3773 	 5.17556 	 94.4219
| 29> C 	 48.2477 	 7.4894 	 96.025
| 30> H 	 47.2504 	 7.84314 	 95.8641
| 31> H 	 48.7658 	 8.40205 	 96.24
| 32> C 	 48.207 	 6.59725 	 97.2689
| 33> H 	 47.6271 	 5.66574 	 97.254
| 34> H 	 47.6355 	 7.18908 	 97.9924
| 35> C 	 49.6313 	 6.36528 	 97.8164
| 36> H 	 49.8368 	 5.30454 	 97.8014
| 37> H 	 49.6921 	 6.80005 	 98.8011
| 38> H 	 50.4168 	 6.88444 	 97.2802
| 39> H 	 53.9548 	 9.85088 	 95.8734
| 40> H 	 48.6036 	 4.74731 	 92.1579
| 41> *
| 42>
| 43>                          ****END OF INPUT****

CARTESIAN COORDINATES (ANGSTROEM)
---------------------------------
  S     52.567300    7.800070   95.222500
  C     53.002100    9.477500   95.411700
  C     51.978300   10.292700   94.991400
  C     50.825400    9.565540   94.642800
  C     50.959600    8.222800   94.678400
  H     49.867600    9.967990   94.358300
  C     52.030800   11.800400   95.080700
  H     52.050600   12.121000   93.958800
  H     52.976200   12.214600   95.483200
  C     50.744700   12.528800   95.545900
  H     49.912600   12.207900   94.965200
  H     50.478500   12.330200   96.530700
  C     50.777300   14.051800   95.175600
  H     51.042900   14.347900   94.201300
  H     49.819800   14.601000   95.415600
  H     51.610200   14.638200   95.712100
  S     50.312600    6.426080   92.662200
  C     48.910300    5.372580   92.909700
  C     48.236600    5.681830   94.087600
  C     48.844700    6.816200   94.811400
  C     50.003500    7.254330   94.186000
  H     47.377300    5.175560   94.421900
  C     48.247700    7.489400   96.025000
  H     47.250400    7.843140   95.864100
  H     48.765800    8.402050   96.240000
  C     48.207000    6.597250   97.268900
  H     47.627100    5.665740   97.254000
  H     47.635500    7.189080   97.992400
  C     49.631300    6.365280   97.816400
  H     49.836800    5.304540   97.801400
  H     49.692100    6.800050   98.801100
  H     50.416800    6.884440   97.280200
  H     53.954800    9.850880   95.873400
  H     48.603600    4.747310   92.157900

 Total Charge           Charge          ....    0
 Multiplicity           Mult            ....    1
 Number of Electrons    NEL             ....  134
 Basis Dimension        Dim             ....  322

ORBITAL ENERGIES
----------------

  NO   OCC          E(Eh)            E(eV)
   0   2.0000     -88.965673     -2420.8790
   1   2.0000     -88.963875     -2420.8301
   2   2.0000     -10.324006      -280.9305
   3   2.0000     -10.323751      -280.9235
   4   2.0000     -10.317124      -280.7432
   5   2.0000     -10.316024      -280.7133
   6   2.0000     -10.305879      -280.4372
   7   2.0000     -10.303873      -280.3827
   8   2.0000     -10.300126      -280.2807
   9   2.0000     -10.298308      -280.2312
  10   2.0000     -10.289080      -279.9801
  11   2.0000     -10.288809      -279.9727
  12   2.0000     -10.287625      -279.9405
  13   2.0000     -10.286197      -279.9016
  14   2.0000     -10.282578      -279.8032
  15   2.0000     -10.263956      -279.2964
  16   2.0000      -8.080181      -219.8729
  17   2.0000      -8.078261      -219.8206
  18   2.0000      -6.038668      -164.3205
  19   2.0000      -6.036807      -164.2699
  20   2.0000      -6.034632      -164.2107
  21   2.0000      -6.032860      -164.1625
  22   2.0000      -6.031038      -164.1129
  23   2.0000      -6.028976      -164.0568
  24   2.0000      -1.009174       -27.4610
  25   2.0000      -0.980911       -26.6919
  26   2.0000      -0.909629       -24.7523
  27   2.0000      -0.907753       -24.7012
  28   2.0000      -0.871260       -23.7082
  29   2.0000      -0.848937       -23.1008
  30   2.0000      -0.840709       -22.8768
  31   2.0000      -0.816210       -22.2102
  32   2.0000      -0.782285       -21.2871
  33   2.0000      -0.769606       -20.9420
  34   2.0000      -0.716426       -19.4949
  35   2.0000      -0.699896       -19.0451
  36   2.0000      -0.696329       -18.9481
  37   2.0000      -0.660133       -17.9631
  38   2.0000      -0.644721       -17.5438
  39   2.0000      -0.622918       -16.9505
  40   2.0000      -0.603287       -16.4163
  41   2.0000      -0.568627       -15.4731
  42   2.0000      -0.558835       -15.2067
  43   2.0000      -0.550304       -14.9745
  44   2.0000      -0.539255       -14.6739
  45   2.0000      -0.524123       -14.2621
  46   2.0000      -0.522460       -14.2169
  47   2.0000      -0.505119       -13.7450
  48   2.0000      -0.502078       -13.6622
  49   2.0000      -0.497998       -13.5512
  50   2.0000      -0.490378       -13.3439
  51   2.0000      -0.479350       -13.0438
  52   2.0000      -0.472124       -12.8472
  53   2.0000      -0.468046       -12.7362
  54   2.0000      -0.456509       -12.4222
  55   2.0000      -0.449256       -12.2249
  56   2.0000      -0.442298       -12.0355
  57   2.0000      -0.439279       -11.9534
  58   2.0000      -0.434902       -11.8343
  59   2.0000      -0.421031       -11.4568
  60   2.0000      -0.418502       -11.3880
  61   2.0000      -0.416477       -11.3329
  62   2.0000      -0.407539       -11.0897
  63   2.0000      -0.341611        -9.2957
  64   2.0000      -0.326902        -8.8955
  65   2.0000      -0.325373        -8.8538
  66   2.0000      -0.302907        -8.2425
  67   0.0000       0.043919         1.1951
  68   0.0000       0.057859         1.5744
  69   0.0000       0.113570         3.0904
  70   0.0000       0.127275         3.4633
  71   0.0000       0.128025         3.4837

MULLIKEN ATOMIC CHARGES
-----------------------
   0 S :    0.119883
   1 C :   -0.159808
   2 C :   -0.029934
   3 C :    0.045515
   4 C :   -0.183123
   5 H :    0.005953
   6 C :    0.015565
   7 H :    0.044505
   8 H :    0.028762
   9 C :   -0.013573
  10 H :    0.026276
  11 H :    0.025572
  12 C :   -0.096138
  13 H :    0.019366
  14 H :    0.045284
  15 H :    0.026483
  16 S :    0.104784
  17 C :   -0.069763
  18 C :    0.009682
  19 C :   -0.025152
  20 C :   -0.180080
  21 H :    0.004198
  22 C :    0.094829
  23 H :    0.017915
  24 H :    0.013013
  25 C :   -0.102750
  26 H :    0.033240
  27 H :    0.019635
  28 C :   -0.023526
  29 H :    0.036488
  30 H :    0.025117
  31 H :    0.020421
  32 H :    0.066058
  33 H :    0.035303
Sum of atomic charges:   -0.0000000

LOEWDIN ATOMIC CHARGES
----------------------
   0 S :    0.411973
   1 C :   -0.206267
   2 C :   -0.070933
   3 C :   -0.060754
   4 C :   -0.196158
   5 H :    0.029977
   6 C :   -0.036493
   7 H :    0.046923
   8 H :    0.030274
   9 C :   -0.030980
  10 H :    0.023796
  11 H :    0.016207
  12 C :   -0.075985
  13 H :    0.016131
  14 H :    0.032973
  15 H :    0.028834
  16 S :    0.389758
  17 C :   -0.160014
  18 C :   -0.055227
  19 C :   -0.044400
  20 C :   -0.201872
  21 H :    0.023164
  22 C :   -0.029179
  23 H :    0.028275
  24 H :    0.028861
  25 C :   -0.043870
  26 H :    0.023530
  27 H :    0.022471
  28 C :   -0.065166
  29 H :    0.027061
  30 H :    0.026219
  31 H :    0.019347
  32 H :    0.040528
  33 H :    0.010997

  Mayer bond orders larger than 0.100000
B(  0-S ,  1-C ) :   1.1386 B(  0-S ,  4-C ) :   1.1473 B(  1-C ,  2-C ) :   1.6051
B(  1-C , 32-H ) :   0.9642 B(  2-C ,  3-C ) :   1.2331 B(  2-C ,  6-C ) :   1.0217
B(  3-C ,  4-C ) :   1.5968 B(  3-C ,  5-H ) :   0.9924 B(  4-C , 20-C ) :   1.0201
B(  6-C ,  7-H ) :   0.9324 B(  6-C ,  8-H ) :   0.9533 B(  6-C ,  9-C ) :   1.0546
B(  9-C , 10-H ) :   0.9456 B(  9-C , 11-H ) :   0.9612 B(  9-C , 12-C ) :   1.0682
B( 12-C , 13-H ) :   0.9763 B( 12-C , 14-H ) :   0.9771 B( 12-C , 15-H ) :   0.9751
B( 16-S , 17-C ) :   1.1452 B( 16-S , 20-C ) :   1.1351 B( 17-C , 18-C ) :   1.6121
B( 17-C , 33-H ) :   0.9816 B( 18-C , 19-C ) :   1.2145 B( 18-C , 21-H ) :   0.9965
B( 19-C , 20-C ) :   1.6184 B( 19-C , 22-C ) :   1.0479 B( 22-C , 23-H ) :   0.9311
B( 22-C , 24-H ) :   0.9293 B( 22-C , 25-C ) :   1.0809 B( 25-C , 26-H ) :   0.9654
B( 25-C , 27-H ) :   0.9612 B( 25-C , 28-C ) :   1.0476 B( 28-C , 29-H ) :   0.9790
B( 28-C , 30-H ) :   0.9760 B( 28-C , 31-H ) :   0.9796

Dispersion correction           -0.014904555
FINAL SINGLE POINT ENERGY     -1339.870370712927

DIPOLE MOMENT
-------------
                                X             Y             Z
Electronic contribution:      8.71489     -18.59852     -14.73362
Nuclear contribution   :     -9.16635      19.07674      14.95200
                        -----------------------------------------
Total Dipole Moment    :     -0.45146       0.47822       0.21837
                        -----------------------------------------
Magnitude (a.u.)       :      0.69296
Magnitude (Debye)      :      1.76137

Rotational constants in cm-1:     0.019227     0.008164     0.007531
Rotational constants in MHz :   576.406053   244.757772   225.763849

                             ****ORCA TERMINATED NORMALLY****
TOTAL RUN TIME: 0 days 0 hours 0 minutes 28 seconds 658 msec
