                         Program Version 4.2.1 -  RELEASE  -
|  1> ! wB97X-D3 SP def2-SVP
|  2> %pal
|  3> nprocs 16
|  4> end
|  5>
|  6> * xyz 0 1
|  7> S 	 -2.74134 	 -18.654 	 86.6372
|  8> C 	 -3.96606 	 -19.7611 	 86.0445
|  9> C 	 -5.02575 	 -19.086 	 85.4981
| 10> C 	 -4.78567 	 -17.6549 	 85.4248
| 11> C 	 -3.48473 	 -17.3016 	 85.883
| 12> H 	 -5.49133 	 -16.8345 	 85.0317
| 13> C 	 -6.32038 	 -19.7299 	 85.0612
| 14> H 	 -6.03087 	 -20.4507 	 84.3246
| 15> H 	 -6.81095 	 -18.9295 	 84.5224
| 16> C 	 -7.23743 	 -20.3246 	 86.1842
| 17> H 	 -6.96591 	 -21.3537 	 86.4822
| 18> H 	 -7.16088 	 -19.671 	 87.0767
| 19> C 	 -8.72905 	 -20.3841 	 85.7986
| 20> H 	 -9.38867 	 -20.8569 	 86.4819
| 21> H 	 -9.14367 	 -19.4386 	 85.6703
| 22> H 	 -8.76051 	 -20.8782 	 84.8621
| 23> S 	 -2.31172 	 -15.3738 	 87.3605
| 24> C 	 -2.06391 	 -13.8419 	 86.5615
| 25> C 	 -2.32785 	 -13.8609 	 85.2274
| 26> C 	 -2.79739 	 -15.1322 	 84.7848
| 27> C 	 -2.8438 	 -16.0013 	 85.8484
| 28> H 	 -2.29009 	 -13.0479 	 84.5738
| 29> C 	 -3.12933 	 -15.4147 	 83.3326
| 30> H 	 -3.01931 	 -16.4708 	 83.3217
| 31> H 	 -2.30278 	 -14.982 	 82.774
| 32> C 	 -4.47432 	 -14.8346 	 82.8297
| 33> H 	 -5.3174 	 -15.2528 	 83.3721
| 34> H 	 -4.61608 	 -15.2593 	 81.8667
| 35> C 	 -4.68553 	 -13.3098 	 82.7424
| 36> H 	 -5.57111 	 -13.0629 	 82.1144
| 37> H 	 -3.78351 	 -12.8028 	 82.3616
| 38> H 	 -4.93002 	 -12.9861 	 83.7428
| 39> H 	 -3.93738 	 -20.8599 	 86.1383
| 40> H 	 -1.5723 	 -12.9487 	 87.018
| 41> *
| 42>
| 43>                          ****END OF INPUT****

CARTESIAN COORDINATES (ANGSTROEM)
---------------------------------
  S     -2.741340  -18.654000   86.637200
  C     -3.966060  -19.761100   86.044500
  C     -5.025750  -19.086000   85.498100
  C     -4.785670  -17.654900   85.424800
  C     -3.484730  -17.301600   85.883000
  H     -5.491330  -16.834500   85.031700
  C     -6.320380  -19.729900   85.061200
  H     -6.030870  -20.450700   84.324600
  H     -6.810950  -18.929500   84.522400
  C     -7.237430  -20.324600   86.184200
  H     -6.965910  -21.353700   86.482200
  H     -7.160880  -19.671000   87.076700
  C     -8.729050  -20.384100   85.798600
  H     -9.388670  -20.856900   86.481900
  H     -9.143670  -19.438600   85.670300
  H     -8.760510  -20.878200   84.862100
  S     -2.311720  -15.373800   87.360500
  C     -2.063910  -13.841900   86.561500
  C     -2.327850  -13.860900   85.227400
  C     -2.797390  -15.132200   84.784800
  C     -2.843800  -16.001300   85.848400
  H     -2.290090  -13.047900   84.573800
  C     -3.129330  -15.414700   83.332600
  H     -3.019310  -16.470800   83.321700
  H     -2.302780  -14.982000   82.774000
  C     -4.474320  -14.834600   82.829700
  H     -5.317400  -15.252800   83.372100
  H     -4.616080  -15.259300   81.866700
  C     -4.685530  -13.309800   82.742400
  H     -5.571110  -13.062900   82.114400
  H     -3.783510  -12.802800   82.361600
  H     -4.930020  -12.986100   83.742800
  H     -3.937380  -20.859900   86.138300
  H     -1.572300  -12.948700   87.018000

 Total Charge           Charge          ....    0
 Multiplicity           Mult            ....    1
 Number of Electrons    NEL             ....  134
 Basis Dimension        Dim             ....  322

ORBITAL ENERGIES
----------------

  NO   OCC          E(Eh)            E(eV)
   0   2.0000     -88.966820     -2420.9103
   1   2.0000     -88.964180     -2420.8384
   2   2.0000     -10.327090      -281.0144
   3   2.0000     -10.318594      -280.7832
   4   2.0000     -10.315426      -280.6970
   5   2.0000     -10.311762      -280.5973
   6   2.0000     -10.303562      -280.3742
   7   2.0000     -10.300370      -280.2873
   8   2.0000     -10.295409      -280.1523
   9   2.0000     -10.292651      -280.0773
  10   2.0000     -10.291246      -280.0390
  11   2.0000     -10.290353      -280.0147
  12   2.0000     -10.286153      -279.9005
  13   2.0000     -10.284961      -279.8680
  14   2.0000     -10.284579      -279.8576
  15   2.0000     -10.266419      -279.3635
  16   2.0000      -8.082357      -219.9321
  17   2.0000      -8.079488      -219.8540
  18   2.0000      -6.040801      -164.3785
  19   2.0000      -6.037946      -164.3009
  20   2.0000      -6.036959      -164.2740
  21   2.0000      -6.033929      -164.1916
  22   2.0000      -6.032937      -164.1646
  23   2.0000      -6.030269      -164.0920
  24   2.0000      -1.010957       -27.5095
  25   2.0000      -0.984812       -26.7981
  26   2.0000      -0.910183       -24.7673
  27   2.0000      -0.908076       -24.7100
  28   2.0000      -0.869813       -23.6688
  29   2.0000      -0.854072       -23.2405
  30   2.0000      -0.846211       -23.0266
  31   2.0000      -0.811207       -22.0741
  32   2.0000      -0.787130       -21.4189
  33   2.0000      -0.773190       -21.0396
  34   2.0000      -0.708361       -19.2755
  35   2.0000      -0.705691       -19.2028
  36   2.0000      -0.690516       -18.7899
  37   2.0000      -0.668361       -18.1870
  38   2.0000      -0.633541       -17.2395
  39   2.0000      -0.608205       -16.5501
  40   2.0000      -0.590957       -16.0808
  41   2.0000      -0.564265       -15.3544
  42   2.0000      -0.562008       -15.2930
  43   2.0000      -0.552827       -15.0432
  44   2.0000      -0.546339       -14.8666
  45   2.0000      -0.529725       -14.4146
  46   2.0000      -0.519264       -14.1299
  47   2.0000      -0.512037       -13.9332
  48   2.0000      -0.501752       -13.6534
  49   2.0000      -0.495334       -13.4787
  50   2.0000      -0.491209       -13.3665
  51   2.0000      -0.479011       -13.0345
  52   2.0000      -0.473513       -12.8850
  53   2.0000      -0.466027       -12.6812
  54   2.0000      -0.454717       -12.3735
  55   2.0000      -0.452960       -12.3257
  56   2.0000      -0.448139       -12.1945
  57   2.0000      -0.445237       -12.1155
  58   2.0000      -0.433170       -11.7872
  59   2.0000      -0.428991       -11.6734
  60   2.0000      -0.423216       -11.5163
  61   2.0000      -0.417167       -11.3517
  62   2.0000      -0.412395       -11.2218
  63   2.0000      -0.346083        -9.4174
  64   2.0000      -0.331356        -9.0167
  65   2.0000      -0.327443        -8.9102
  66   2.0000      -0.289503        -7.8778
  67   0.0000       0.032652         0.8885
  68   0.0000       0.072267         1.9665
  69   0.0000       0.104055         2.8315
  70   0.0000       0.128348         3.4925
  71   0.0000       0.131303         3.5729

MULLIKEN ATOMIC CHARGES
-----------------------
   0 S :    0.108221
   1 C :   -0.123511
   2 C :   -0.127193
   3 C :    0.005905
   4 C :   -0.183379
   5 H :    0.044558
   6 C :    0.100022
   7 H :    0.031894
   8 H :    0.008093
   9 C :   -0.077797
  10 H :    0.033366
  11 H :    0.040552
  12 C :   -0.019499
  13 H :    0.027550
  14 H :    0.013899
  15 H :    0.019590
  16 S :    0.122223
  17 C :   -0.090688
  18 C :   -0.006623
  19 C :   -0.074967
  20 C :   -0.156808
  21 H :   -0.012926
  22 C :    0.102227
  23 H :    0.028467
  24 H :    0.024919
  25 C :   -0.047287
  26 H :    0.009386
  27 H :    0.018999
  28 C :   -0.059587
  29 H :    0.044232
  30 H :    0.039133
  31 H :    0.038753
  32 H :    0.053637
  33 H :    0.064640
Sum of atomic charges:    0.0000000

LOEWDIN ATOMIC CHARGES
----------------------
   0 S :    0.414491
   1 C :   -0.203092
   2 C :   -0.067453
   3 C :   -0.078730
   4 C :   -0.207112
   5 H :    0.042828
   6 C :   -0.030805
   7 H :    0.032146
   8 H :    0.028504
   9 C :   -0.035803
  10 H :    0.025331
  11 H :    0.028025
  12 C :   -0.058361
  13 H :    0.023726
  14 H :    0.015790
  15 H :    0.021099
  16 S :    0.416647
  17 C :   -0.190578
  18 C :   -0.063404
  19 C :   -0.053532
  20 C :   -0.214302
  21 H :    0.020480
  22 C :   -0.023705
  23 H :    0.032677
  24 H :    0.033390
  25 C :   -0.038330
  26 H :    0.020220
  27 H :    0.020096
  28 C :   -0.065519
  29 H :    0.035103
  30 H :    0.024632
  31 H :    0.024600
  32 H :    0.034251
  33 H :    0.036690

  Mayer bond orders larger than 0.100000
B(  0-S ,  1-C ) :   1.1319 B(  0-S ,  4-C ) :   1.1740 B(  1-C ,  2-C ) :   1.6115
B(  1-C , 32-H ) :   0.9703 B(  2-C ,  3-C ) :   1.2472 B(  2-C ,  6-C ) :   1.0231
B(  3-C ,  4-C ) :   1.5464 B(  3-C ,  5-H ) :   0.9745 B(  4-C , 20-C ) :   1.0159
B(  6-C ,  7-H ) :   0.9306 B(  6-C ,  8-H ) :   0.9420 B(  6-C ,  9-C ) :   1.0454
B(  9-C , 10-H ) :   0.9556 B(  9-C , 11-H ) :   0.9646 B(  9-C , 12-C ) :   1.0846
B( 12-C , 13-H ) :   0.9747 B( 12-C , 14-H ) :   0.9753 B( 12-C , 15-H ) :   0.9744
B( 16-S , 17-C ) :   1.1408 B( 16-S , 20-C ) :   1.1470 B( 17-C , 18-C ) :   1.6235
B( 17-C , 33-H ) :   0.9583 B( 18-C , 19-C ) :   1.2355 B( 18-C , 21-H ) :   0.9953
B( 19-C , 20-C ) :   1.6226 B( 19-C , 22-C ) :   1.0235 B( 22-C , 23-H ) :   0.9266
B( 22-C , 24-H ) :   0.9348 B( 22-C , 25-C ) :   1.0713 B( 25-C , 26-H ) :   0.9495
B( 25-C , 27-H ) :   0.9536 B( 25-C , 28-C ) :   1.0765 B( 28-C , 29-H ) :   0.9706
B( 28-C , 30-H ) :   0.9747 B( 28-C , 31-H ) :   0.9743

Dispersion correction           -0.014451578
FINAL SINGLE POINT ENERGY     -1339.877400194192

DIPOLE MOMENT
-------------
                                X             Y             Z
Electronic contribution:     23.04707       1.21142      16.39544
Nuclear contribution   :    -23.53713      -1.11414     -16.90874
                        -----------------------------------------
Total Dipole Moment    :     -0.49006       0.09728      -0.51330
                        -----------------------------------------
Magnitude (a.u.)       :      0.71630
Magnitude (Debye)      :      1.82070

Rotational constants in cm-1:     0.019191     0.008179     0.006426
Rotational constants in MHz :   575.337319   245.188882   192.656971

                             ****ORCA TERMINATED NORMALLY****
TOTAL RUN TIME: 0 days 0 hours 0 minutes 34 seconds 680 msec
