                         Program Version 4.2.1 -  RELEASE  -
|  1> ! wB97X-D3 SP def2-SVP
|  2> %pal
|  3> nprocs 16
|  4> end
|  5>
|  6> * xyz 0 1
|  7> S 	 -76.7286 	 39.109 	 139.314
|  8> C 	 -76.6111 	 37.4221 	 139.08
|  9> C 	 -77.1732 	 37.1225 	 137.827
| 10> C 	 -77.6311 	 38.2579 	 137.111
| 11> C 	 -77.4379 	 39.4587 	 137.738
| 12> H 	 -78.1375 	 38.2947 	 136.153
| 13> C 	 -77.2278 	 35.7526 	 137.173
| 14> H 	 -77.8695 	 35.8249 	 136.251
| 15> H 	 -77.6015 	 35.0507 	 137.93
| 16> C 	 -75.8544 	 35.1192 	 136.735
| 17> H 	 -75.1175 	 35.1953 	 137.557
| 18> H 	 -76.0995 	 34.0474 	 136.554
| 19> C 	 -75.1996 	 35.8922 	 135.605
| 20> H 	 -75.8415 	 35.8794 	 134.725
| 21> H 	 -74.9972 	 36.8837 	 135.814
| 22> H 	 -74.2478 	 35.4786 	 135.264
| 23> S 	 -78.8777 	 41.6034 	 138.146
| 24> C 	 -78.9318 	 42.9641 	 137.077
| 25> C 	 -77.9962 	 42.7754 	 136.077
| 26> C 	 -77.3724 	 41.4814 	 136.064
| 27> C 	 -77.694 	 40.7877 	 137.235
| 28> H 	 -77.9085 	 43.6493 	 135.424
| 29> C 	 -76.7235 	 41.0378 	 134.793
| 30> H 	 -75.9387 	 40.3622 	 135.14
| 31> H 	 -76.2722 	 41.996 	 134.326
| 32> C 	 -77.6523 	 40.2729 	 133.791
| 33> H 	 -78.086 	 39.4113 	 134.376
| 34> H 	 -77.1546 	 39.8994 	 132.868
| 35> C 	 -78.7773 	 41.1535 	 133.284
| 36> H 	 -79.5864 	 40.6509 	 132.71
| 37> H 	 -78.5465 	 41.944 	 132.645
| 38> H 	 -79.2303 	 41.5399 	 134.198
| 39> H 	 -76.0466 	 36.7207 	 139.598
| 40> H 	 -79.6497 	 43.7803 	 136.99
| 41> *
| 42>
| 43>                          ****END OF INPUT****

CARTESIAN COORDINATES (ANGSTROEM)
---------------------------------
  S    -76.728600   39.109000  139.314000
  C    -76.611100   37.422100  139.080000
  C    -77.173200   37.122500  137.827000
  C    -77.631100   38.257900  137.111000
  C    -77.437900   39.458700  137.738000
  H    -78.137500   38.294700  136.153000
  C    -77.227800   35.752600  137.173000
  H    -77.869500   35.824900  136.251000
  H    -77.601500   35.050700  137.930000
  C    -75.854400   35.119200  136.735000
  H    -75.117500   35.195300  137.557000
  H    -76.099500   34.047400  136.554000
  C    -75.199600   35.892200  135.605000
  H    -75.841500   35.879400  134.725000
  H    -74.997200   36.883700  135.814000
  H    -74.247800   35.478600  135.264000
  S    -78.877700   41.603400  138.146000
  C    -78.931800   42.964100  137.077000
  C    -77.996200   42.775400  136.077000
  C    -77.372400   41.481400  136.064000
  C    -77.694000   40.787700  137.235000
  H    -77.908500   43.649300  135.424000
  C    -76.723500   41.037800  134.793000
  H    -75.938700   40.362200  135.140000
  H    -76.272200   41.996000  134.326000
  C    -77.652300   40.272900  133.791000
  H    -78.086000   39.411300  134.376000
  H    -77.154600   39.899400  132.868000
  C    -78.777300   41.153500  133.284000
  H    -79.586400   40.650900  132.710000
  H    -78.546500   41.944000  132.645000
  H    -79.230300   41.539900  134.198000
  H    -76.046600   36.720700  139.598000
  H    -79.649700   43.780300  136.990000

 Total Charge           Charge          ....    0
 Multiplicity           Mult            ....    1
 Number of Electrons    NEL             ....  134
 Basis Dimension        Dim             ....  322

ORBITAL ENERGIES
----------------

  NO   OCC          E(Eh)            E(eV)
   0   2.0000     -88.966679     -2420.9064
   1   2.0000     -88.966161     -2420.8923
   2   2.0000     -10.328892      -281.0634
   3   2.0000     -10.328006      -281.0393
   4   2.0000     -10.315318      -280.6941
   5   2.0000     -10.311596      -280.5928
   6   2.0000     -10.308518      -280.5090
   7   2.0000     -10.301388      -280.3150
   8   2.0000     -10.301268      -280.3118
   9   2.0000     -10.298183      -280.2278
  10   2.0000     -10.296476      -280.1814
  11   2.0000     -10.294508      -280.1278
  12   2.0000     -10.292923      -280.0847
  13   2.0000     -10.291573      -280.0480
  14   2.0000     -10.269694      -279.4526
  15   2.0000     -10.269228      -279.4399
  16   2.0000      -8.082022      -219.9230
  17   2.0000      -8.081698      -219.9142
  18   2.0000      -6.040485      -164.3700
  19   2.0000      -6.040148      -164.3608
  20   2.0000      -6.036122      -164.2512
  21   2.0000      -6.035938      -164.2462
  22   2.0000      -6.032975      -164.1656
  23   2.0000      -6.032689      -164.1578
  24   2.0000      -1.016121       -27.6501
  25   2.0000      -0.991710       -26.9858
  26   2.0000      -0.912327       -24.8257
  27   2.0000      -0.907581       -24.6965
  28   2.0000      -0.877059       -23.8660
  29   2.0000      -0.851839       -23.1797
  30   2.0000      -0.847266       -23.0553
  31   2.0000      -0.820674       -22.3317
  32   2.0000      -0.782263       -21.2865
  33   2.0000      -0.772357       -21.0169
  34   2.0000      -0.712554       -19.3896
  35   2.0000      -0.701395       -19.0859
  36   2.0000      -0.692406       -18.8413
  37   2.0000      -0.663478       -18.0542
  38   2.0000      -0.645632       -17.5685
  39   2.0000      -0.615182       -16.7400
  40   2.0000      -0.586503       -15.9596
  41   2.0000      -0.576207       -15.6794
  42   2.0000      -0.559064       -15.2129
  43   2.0000      -0.553226       -15.0540
  44   2.0000      -0.549645       -14.9566
  45   2.0000      -0.542021       -14.7491
  46   2.0000      -0.518305       -14.1038
  47   2.0000      -0.514190       -13.9918
  48   2.0000      -0.506863       -13.7924
  49   2.0000      -0.505173       -13.7464
  50   2.0000      -0.489856       -13.3296
  51   2.0000      -0.480978       -13.0881
  52   2.0000      -0.476890       -12.9768
  53   2.0000      -0.465391       -12.6639
  54   2.0000      -0.461670       -12.5627
  55   2.0000      -0.448196       -12.1960
  56   2.0000      -0.439468       -11.9585
  57   2.0000      -0.432598       -11.7716
  58   2.0000      -0.428225       -11.6526
  59   2.0000      -0.423231       -11.5167
  60   2.0000      -0.421388       -11.4665
  61   2.0000      -0.414110       -11.2685
  62   2.0000      -0.411870       -11.2076
  63   2.0000      -0.351559        -9.5664
  64   2.0000      -0.328738        -8.9454
  65   2.0000      -0.325651        -8.8614
  66   2.0000      -0.295170        -8.0320
  67   0.0000       0.034044         0.9264
  68   0.0000       0.057343         1.5604
  69   0.0000       0.114649         3.1198
  70   0.0000       0.120280         3.2730
  71   0.0000       0.127443         3.4679

MULLIKEN ATOMIC CHARGES
-----------------------
   0 S :    0.123703
   1 C :   -0.076932
   2 C :   -0.103672
   3 C :    0.027249
   4 C :   -0.151290
   5 H :    0.005782
   6 C :    0.034117
   7 H :    0.035722
   8 H :    0.036285
   9 C :   -0.079477
  10 H :    0.025662
  11 H :    0.042355
  12 C :   -0.023514
  13 H :    0.014809
  14 H :    0.023839
  15 H :    0.027857
  16 S :    0.122248
  17 C :   -0.096305
  18 C :   -0.079191
  19 C :   -0.032902
  20 C :   -0.169839
  21 H :    0.028192
  22 C :    0.050083
  23 H :    0.036392
  24 H :    0.043757
  25 C :   -0.049845
  26 H :    0.028418
  27 H :    0.042483
  28 C :   -0.061007
  29 H :    0.031274
  30 H :    0.016912
  31 H :    0.037319
  32 H :    0.028381
  33 H :    0.061135
Sum of atomic charges:   -0.0000000

LOEWDIN ATOMIC CHARGES
----------------------
   0 S :    0.427327
   1 C :   -0.204802
   2 C :   -0.066667
   3 C :   -0.069270
   4 C :   -0.201368
   5 H :    0.028997
   6 C :   -0.035493
   7 H :    0.034340
   8 H :    0.033745
   9 C :   -0.040315
  10 H :    0.022732
  11 H :    0.028946
  12 C :   -0.063506
  13 H :    0.021587
  14 H :    0.017473
  15 H :    0.027406
  16 S :    0.445878
  17 C :   -0.204387
  18 C :   -0.074096
  19 C :   -0.062026
  20 C :   -0.214574
  21 H :    0.034421
  22 C :   -0.036349
  23 H :    0.033453
  24 H :    0.042210
  25 C :   -0.037741
  26 H :    0.027739
  27 H :    0.029075
  28 C :   -0.073629
  29 H :    0.030030
  30 H :    0.014281
  31 H :    0.027742
  32 H :    0.020140
  33 H :    0.036701

  Mayer bond orders larger than 0.100000
B(  0-S ,  1-C ) :   1.1595 B(  0-S ,  4-C ) :   1.1615 B(  1-C ,  2-C ) :   1.5642
B(  1-C ,  4-C ) :   0.1066 B(  1-C , 32-H ) :   0.9777 B(  2-C ,  3-C ) :   1.2607
B(  2-C ,  6-C ) :   1.0265 B(  3-C ,  4-C ) :   1.5641 B(  3-C ,  5-H ) :   0.9949
B(  4-C , 20-C ) :   1.0092 B(  6-C ,  7-H ) :   0.9478 B(  6-C ,  8-H ) :   0.9361
B(  6-C ,  9-C ) :   1.0681 B(  9-C , 10-H ) :   0.9571 B(  9-C , 11-H ) :   0.9581
B(  9-C , 12-C ) :   1.0705 B( 12-C , 13-H ) :   0.9749 B( 12-C , 14-H ) :   0.9748
B( 12-C , 15-H ) :   0.9719 B( 16-S , 17-C ) :   1.1580 B( 16-S , 20-C ) :   1.1839
B( 17-C , 18-C ) :   1.6164 B( 17-C , 20-C ) :   0.1002 B( 17-C , 33-H ) :   0.9646
B( 18-C , 19-C ) :   1.2291 B( 18-C , 21-H ) :   0.9855 B( 19-C , 20-C ) :   1.5634
B( 19-C , 22-C ) :   1.0522 B( 22-C , 23-H ) :   0.9265 B( 22-C , 24-H ) :   0.9364
B( 22-C , 25-C ) :   1.0618 B( 25-C , 26-H ) :   0.9495 B( 25-C , 27-H ) :   0.9562
B( 25-C , 28-C ) :   1.0769 B( 28-C , 29-H ) :   0.9700 B( 28-C , 30-H ) :   0.9754
B( 28-C , 31-H ) :   0.9711

Dispersion correction           -0.015456563
FINAL SINGLE POINT ENERGY     -1339.863350404053

DIPOLE MOMENT
-------------
                                X             Y             Z
Electronic contribution:     -4.92562      13.26094      24.00163
Nuclear contribution   :      4.93489     -13.43896     -24.68342
                        -----------------------------------------
Total Dipole Moment    :      0.00927      -0.17802      -0.68179
                        -----------------------------------------
Magnitude (a.u.)       :      0.70471
Magnitude (Debye)      :      1.79124

Rotational constants in cm-1:     0.019881     0.009574     0.007070
Rotational constants in MHz :   596.003581   287.007713   211.942382

                             ****ORCA TERMINATED NORMALLY****
TOTAL RUN TIME: 0 days 0 hours 0 minutes 37 seconds 230 msec
