                         Program Version 4.2.1 -  RELEASE  -
|  1> ! wB97X-D3 SP def2-SVP
|  2> %pal
|  3> nprocs 16
|  4> end
|  5>
|  6> * xyz 0 1
|  7> S 	 41.9882 	 7.46094 	 86.992
|  8> C 	 42.0654 	 8.22524 	 85.3633
|  9> C 	 40.7939 	 8.4374 	 84.8337
| 10> C 	 39.7654 	 8.09228 	 85.7794
| 11> C 	 40.2267 	 7.55115 	 86.9796
| 12> H 	 38.7112 	 8.25038 	 85.5035
| 13> C 	 40.6787 	 9.05014 	 83.4699
| 14> H 	 41.6079 	 9.46832 	 83.1491
| 15> H 	 40.0795 	 9.89736 	 83.5459
| 16> C 	 40.2371 	 8.08544 	 82.3334
| 17> H 	 39.2243 	 7.65719 	 82.5617
| 18> H 	 40.1114 	 8.69478 	 81.3974
| 19> C 	 41.2401 	 7.01108 	 82.0266
| 20> H 	 41.3234 	 6.20604 	 82.7979
| 21> H 	 41.0632 	 6.39147 	 81.1248
| 22> H 	 42.1346 	 7.52355 	 82.0418
| 23> S 	 38.1768 	 7.99907 	 88.688
| 24> C 	 37.6556 	 6.68115 	 89.7464
| 25> C 	 38.3773 	 5.53257 	 89.5704
| 26> C 	 39.4671 	 5.75701 	 88.6618
| 27> C 	 39.4407 	 6.97489 	 88.0519
| 28> H 	 38.0475 	 4.6343 	 90.0222
| 29> C 	 40.4248 	 4.6645 	 88.2933
| 30> H 	 40.1273 	 3.9502 	 89.0408
| 31> H 	 41.4371 	 4.94505 	 88.6235
| 32> C 	 40.2129 	 4.18473 	 86.8476
| 33> H 	 40.3552 	 5.06683 	 86.2113
| 34> H 	 39.1582 	 4.03407 	 86.7332
| 35> C 	 40.9798 	 2.94426 	 86.4729
| 36> H 	 40.6674 	 2.12016 	 87.1133
| 37> H 	 42.0521 	 3.0814 	 86.5517
| 38> H 	 40.7925 	 2.54702 	 85.553
| 39> H 	 42.9932 	 8.49351 	 84.9217
| 40> H 	 36.7436 	 6.69362 	 90.2652
| 41> *
| 42>
| 43>                          ****END OF INPUT****

CARTESIAN COORDINATES (ANGSTROEM)
---------------------------------
  S     41.988200    7.460940   86.992000
  C     42.065400    8.225240   85.363300
  C     40.793900    8.437400   84.833700
  C     39.765400    8.092280   85.779400
  C     40.226700    7.551150   86.979600
  H     38.711200    8.250380   85.503500
  C     40.678700    9.050140   83.469900
  H     41.607900    9.468320   83.149100
  H     40.079500    9.897360   83.545900
  C     40.237100    8.085440   82.333400
  H     39.224300    7.657190   82.561700
  H     40.111400    8.694780   81.397400
  C     41.240100    7.011080   82.026600
  H     41.323400    6.206040   82.797900
  H     41.063200    6.391470   81.124800
  H     42.134600    7.523550   82.041800
  S     38.176800    7.999070   88.688000
  C     37.655600    6.681150   89.746400
  C     38.377300    5.532570   89.570400
  C     39.467100    5.757010   88.661800
  C     39.440700    6.974890   88.051900
  H     38.047500    4.634300   90.022200
  C     40.424800    4.664500   88.293300
  H     40.127300    3.950200   89.040800
  H     41.437100    4.945050   88.623500
  C     40.212900    4.184730   86.847600
  H     40.355200    5.066830   86.211300
  H     39.158200    4.034070   86.733200
  C     40.979800    2.944260   86.472900
  H     40.667400    2.120160   87.113300
  H     42.052100    3.081400   86.551700
  H     40.792500    2.547020   85.553000
  H     42.993200    8.493510   84.921700
  H     36.743600    6.693620   90.265200

 Total Charge           Charge          ....    0
 Multiplicity           Mult            ....    1
 Number of Electrons    NEL             ....  134
 Basis Dimension        Dim             ....  322

ORBITAL ENERGIES
----------------

  NO   OCC          E(Eh)            E(eV)
   0   2.0000     -88.966834     -2420.9106
   1   2.0000     -88.963444     -2420.8184
   2   2.0000     -10.335297      -281.2377
   3   2.0000     -10.320475      -280.8344
   4   2.0000     -10.317219      -280.7458
   5   2.0000     -10.311788      -280.5980
   6   2.0000     -10.304634      -280.4034
   7   2.0000     -10.302152      -280.3358
   8   2.0000     -10.296668      -280.1866
   9   2.0000     -10.293454      -280.0991
  10   2.0000     -10.292149      -280.0636
  11   2.0000     -10.288753      -279.9712
  12   2.0000     -10.283383      -279.8251
  13   2.0000     -10.278257      -279.6856
  14   2.0000     -10.272860      -279.5387
  15   2.0000     -10.264866      -279.3212
  16   2.0000      -8.080260      -219.8750
  17   2.0000      -8.078101      -219.8163
  18   2.0000      -6.038824      -164.3247
  19   2.0000      -6.036616      -164.2647
  20   2.0000      -6.034963      -164.2197
  21   2.0000      -6.032695      -164.1580
  22   2.0000      -6.031035      -164.1128
  23   2.0000      -6.028790      -164.0517
  24   2.0000      -1.005881       -27.3714
  25   2.0000      -0.979784       -26.6613
  26   2.0000      -0.916005       -24.9258
  27   2.0000      -0.908971       -24.7344
  28   2.0000      -0.871119       -23.7043
  29   2.0000      -0.852907       -23.2088
  30   2.0000      -0.844572       -22.9820
  31   2.0000      -0.817014       -22.2321
  32   2.0000      -0.787256       -21.4223
  33   2.0000      -0.772254       -21.0141
  34   2.0000      -0.714933       -19.4543
  35   2.0000      -0.699956       -19.0468
  36   2.0000      -0.690369       -18.7859
  37   2.0000      -0.671820       -18.2811
  38   2.0000      -0.637782       -17.3549
  39   2.0000      -0.622579       -16.9412
  40   2.0000      -0.592278       -16.1167
  41   2.0000      -0.570229       -15.5167
  42   2.0000      -0.564984       -15.3740
  43   2.0000      -0.557771       -15.1777
  44   2.0000      -0.540809       -14.7162
  45   2.0000      -0.525635       -14.3033
  46   2.0000      -0.517383       -14.0787
  47   2.0000      -0.515290       -14.0217
  48   2.0000      -0.511508       -13.9188
  49   2.0000      -0.495221       -13.4756
  50   2.0000      -0.488034       -13.2801
  51   2.0000      -0.475677       -12.9438
  52   2.0000      -0.468980       -12.7616
  53   2.0000      -0.468185       -12.7400
  54   2.0000      -0.458787       -12.4842
  55   2.0000      -0.451089       -12.2748
  56   2.0000      -0.446897       -12.1607
  57   2.0000      -0.440861       -11.9964
  58   2.0000      -0.433041       -11.7836
  59   2.0000      -0.420923       -11.4539
  60   2.0000      -0.419620       -11.4184
  61   2.0000      -0.412222       -11.2171
  62   2.0000      -0.405858       -11.0440
  63   2.0000      -0.346574        -9.4308
  64   2.0000      -0.333321        -9.0701
  65   2.0000      -0.330289        -8.9876
  66   2.0000      -0.291709        -7.9378
  67   0.0000       0.027739         0.7548
  68   0.0000       0.073038         1.9875
  69   0.0000       0.107987         2.9385
  70   0.0000       0.113820         3.0972
  71   0.0000       0.128761         3.5038

MULLIKEN ATOMIC CHARGES
-----------------------
   0 S :    0.100062
   1 C :   -0.124253
   2 C :   -0.084548
   3 C :    0.029481
   4 C :   -0.164423
   5 H :    0.021666
   6 C :    0.101566
   7 H :    0.004460
   8 H :    0.015894
   9 C :   -0.095941
  10 H :    0.032636
  11 H :    0.037350
  12 C :   -0.030154
  13 H :    0.036761
  14 H :    0.041891
  15 H :    0.003146
  16 S :    0.102103
  17 C :   -0.067185
  18 C :   -0.028926
  19 C :   -0.078522
  20 C :   -0.137898
  21 H :    0.011952
  22 C :    0.092259
  23 H :   -0.006457
  24 H :    0.033500
  25 C :   -0.059694
  26 H :    0.043296
  27 H :    0.014771
  28 C :    0.027247
  29 H :    0.015697
  30 H :    0.029356
  31 H :    0.004675
  32 H :    0.040525
  33 H :    0.037705
Sum of atomic charges:   -0.0000000

LOEWDIN ATOMIC CHARGES
----------------------
   0 S :    0.385286
   1 C :   -0.172265
   2 C :   -0.057620
   3 C :   -0.066355
   4 C :   -0.187710
   5 H :    0.034951
   6 C :   -0.024882
   7 H :    0.027088
   8 H :    0.025365
   9 C :   -0.040800
  10 H :    0.022804
  11 H :    0.029662
  12 C :   -0.068409
  13 H :    0.030490
  14 H :    0.032490
  15 H :    0.011965
  16 S :    0.399777
  17 C :   -0.168215
  18 C :   -0.063112
  19 C :   -0.058470
  20 C :   -0.199257
  21 H :    0.029704
  22 C :   -0.035720
  23 H :    0.024424
  24 H :    0.028498
  25 C :   -0.037763
  26 H :    0.026737
  27 H :    0.023850
  28 C :   -0.057415
  29 H :    0.027870
  30 H :    0.027368
  31 H :    0.013441
  32 H :    0.018680
  33 H :    0.017543

  Mayer bond orders larger than 0.100000
B(  0-S ,  1-C ) :   1.1272 B(  0-S ,  4-C ) :   1.1495 B(  1-C ,  2-C ) :   1.6015
B(  1-C , 32-H ) :   0.9749 B(  2-C ,  3-C ) :   1.2480 B(  2-C ,  6-C ) :   1.0260
B(  3-C ,  4-C ) :   1.5574 B(  3-C ,  5-H ) :   0.9883 B(  4-C , 20-C ) :   1.0303
B(  6-C ,  7-H ) :   0.9386 B(  6-C ,  8-H ) :   0.9325 B(  6-C ,  9-C ) :   1.0702
B(  9-C , 10-H ) :   0.9586 B(  9-C , 11-H ) :   0.9551 B(  9-C , 12-C ) :   1.0693
B( 12-C , 13-H ) :   0.9714 B( 12-C , 14-H ) :   0.9730 B( 12-C , 15-H ) :   0.9727
B( 16-S , 17-C ) :   1.1453 B( 16-S , 20-C ) :   1.1337 B( 17-C , 18-C ) :   1.6445
B( 17-C , 33-H ) :   0.9657 B( 18-C , 19-C ) :   1.2211 B( 18-C , 21-H ) :   0.9930
B( 19-C , 20-C ) :   1.6111 B( 19-C , 22-C ) :   1.0369 B( 22-C , 23-H ) :   0.9215
B( 22-C , 24-H ) :   0.9260 B( 22-C , 25-C ) :   1.0521 B( 25-C , 26-H ) :   0.9541
B( 25-C , 27-H ) :   0.9484 B( 25-C , 28-C ) :   1.0913 B( 28-C , 29-H ) :   0.9686
B( 28-C , 30-H ) :   0.9725 B( 28-C , 31-H ) :   0.9693

Dispersion correction           -0.015329606
FINAL SINGLE POINT ENERGY     -1339.876203426524

DIPOLE MOMENT
-------------
                                X             Y             Z
Electronic contribution:     -4.29451      13.26719      20.56878
Nuclear contribution   :      4.14668     -13.53388     -21.04869
                        -----------------------------------------
Total Dipole Moment    :     -0.14783      -0.26669      -0.47991
                        -----------------------------------------
Magnitude (a.u.)       :      0.56859
Magnitude (Debye)      :      1.44524

Rotational constants in cm-1:     0.019464     0.009165     0.007589
Rotational constants in MHz :   583.509104   274.772888   227.510464

                             ****ORCA TERMINATED NORMALLY****
TOTAL RUN TIME: 0 days 0 hours 0 minutes 31 seconds 721 msec
