                         Program Version 4.2.1 -  RELEASE  -
|  1> ! wB97X-D3 SP def2-SVP
|  2> %pal
|  3> nprocs 16
|  4> end
|  5>
|  6> * xyz 0 1
|  7> S 	 -102.597 	 53.9211 	 116.83
|  8> C 	 -102.131 	 54.3507 	 115.187
|  9> C 	 -103.098 	 55.1447 	 114.56
| 10> C 	 -104.168 	 55.425 	 115.5
| 11> C 	 -104.011 	 54.9133 	 116.781
| 12> H 	 -104.999 	 56.1503 	 115.27
| 13> C 	 -103.056 	 55.772 	 113.129
| 14> H 	 -102.695 	 56.814 	 113.131
| 15> H 	 -104.038 	 55.6302 	 112.585
| 16> C 	 -102.08 	 55.1133 	 112.181
| 17> H 	 -102.125 	 55.6569 	 111.262
| 18> H 	 -101.027 	 55.2573 	 112.589
| 19> C 	 -102.433 	 53.6419 	 111.798
| 20> H 	 -101.636 	 53.1651 	 111.247
| 21> H 	 -102.64 	 53.0435 	 112.704
| 22> H 	 -103.281 	 53.4589 	 111.17
| 23> S 	 -104.045 	 55.9139 	 119.32
| 24> C 	 -105.51 	 55.8461 	 120.209
| 25> C 	 -106.604 	 55.3491 	 119.508
| 26> C 	 -106.191 	 54.974 	 118.174
| 27> C 	 -104.843 	 55.1345 	 117.967
| 28> H 	 -107.635 	 55.445 	 119.878
| 29> C 	 -107.12 	 54.3387 	 117.167
| 30> H 	 -107.506 	 53.4414 	 117.603
| 31> H 	 -106.518 	 54.0686 	 116.334
| 32> C 	 -108.243 	 55.1597 	 116.617
| 33> H 	 -108.907 	 55.5939 	 117.388
| 34> H 	 -109.028 	 54.519 	 116.187
| 35> C 	 -107.808 	 56.279 	 115.685
| 36> H 	 -107.428 	 55.7893 	 114.784
| 37> H 	 -107.077 	 56.8084 	 116.283
| 38> H 	 -108.52 	 57.0479 	 115.478
| 39> H 	 -101.198 	 54.1173 	 114.745
| 40> H 	 -105.521 	 56.28 	 121.184
| 41> *
| 42>
| 43>                          ****END OF INPUT****

CARTESIAN COORDINATES (ANGSTROEM)
---------------------------------
  S    -102.597000   53.921100  116.830000
  C    -102.131000   54.350700  115.187000
  C    -103.098000   55.144700  114.560000
  C    -104.168000   55.425000  115.500000
  C    -104.011000   54.913300  116.781000
  H    -104.999000   56.150300  115.270000
  C    -103.056000   55.772000  113.129000
  H    -102.695000   56.814000  113.131000
  H    -104.038000   55.630200  112.585000
  C    -102.080000   55.113300  112.181000
  H    -102.125000   55.656900  111.262000
  H    -101.027000   55.257300  112.589000
  C    -102.433000   53.641900  111.798000
  H    -101.636000   53.165100  111.247000
  H    -102.640000   53.043500  112.704000
  H    -103.281000   53.458900  111.170000
  S    -104.045000   55.913900  119.320000
  C    -105.510000   55.846100  120.209000
  C    -106.604000   55.349100  119.508000
  C    -106.191000   54.974000  118.174000
  C    -104.843000   55.134500  117.967000
  H    -107.635000   55.445000  119.878000
  C    -107.120000   54.338700  117.167000
  H    -107.506000   53.441400  117.603000
  H    -106.518000   54.068600  116.334000
  C    -108.243000   55.159700  116.617000
  H    -108.907000   55.593900  117.388000
  H    -109.028000   54.519000  116.187000
  C    -107.808000   56.279000  115.685000
  H    -107.428000   55.789300  114.784000
  H    -107.077000   56.808400  116.283000
  H    -108.520000   57.047900  115.478000
  H    -101.198000   54.117300  114.745000
  H    -105.521000   56.280000  121.184000

 Total Charge           Charge          ....    0
 Multiplicity           Mult            ....    1
 Number of Electrons    NEL             ....  134
 Basis Dimension        Dim             ....  322

ORBITAL ENERGIES
----------------

  NO   OCC          E(Eh)            E(eV)
   0   2.0000     -88.965557     -2420.8759
   1   2.0000     -88.965363     -2420.8706
   2   2.0000     -10.327340      -281.0212
   3   2.0000     -10.323664      -280.9212
   4   2.0000     -10.316528      -280.7270
   5   2.0000     -10.314908      -280.6829
   6   2.0000     -10.308130      -280.4985
   7   2.0000     -10.303388      -280.3694
   8   2.0000     -10.302103      -280.3345
   9   2.0000     -10.298878      -280.2467
  10   2.0000     -10.296599      -280.1847
  11   2.0000     -10.290512      -280.0191
  12   2.0000     -10.283296      -279.8227
  13   2.0000     -10.281670      -279.7785
  14   2.0000     -10.274211      -279.5755
  15   2.0000     -10.273607      -279.5591
  16   2.0000      -8.081074      -219.8972
  17   2.0000      -8.080391      -219.8786
  18   2.0000      -6.039358      -164.3393
  19   2.0000      -6.038910      -164.3271
  20   2.0000      -6.035567      -164.2361
  21   2.0000      -6.034784      -164.2148
  22   2.0000      -6.031880      -164.1358
  23   2.0000      -6.031233      -164.1182
  24   2.0000      -1.007437       -27.4138
  25   2.0000      -0.982984       -26.7484
  26   2.0000      -0.917221       -24.9589
  27   2.0000      -0.910650       -24.7800
  28   2.0000      -0.864831       -23.5332
  29   2.0000      -0.853093       -23.2138
  30   2.0000      -0.839598       -22.8466
  31   2.0000      -0.808616       -22.0036
  32   2.0000      -0.787437       -21.4273
  33   2.0000      -0.779581       -21.2135
  34   2.0000      -0.705134       -19.1877
  35   2.0000      -0.700302       -19.0562
  36   2.0000      -0.690935       -18.8013
  37   2.0000      -0.659118       -17.9355
  38   2.0000      -0.635408       -17.2903
  39   2.0000      -0.610631       -16.6161
  40   2.0000      -0.596693       -16.2368
  41   2.0000      -0.575431       -15.6583
  42   2.0000      -0.565157       -15.3787
  43   2.0000      -0.558289       -15.1918
  44   2.0000      -0.547353       -14.8942
  45   2.0000      -0.536183       -14.5903
  46   2.0000      -0.519065       -14.1245
  47   2.0000      -0.502486       -13.6733
  48   2.0000      -0.498806       -13.5732
  49   2.0000      -0.491578       -13.3765
  50   2.0000      -0.489898       -13.3308
  51   2.0000      -0.474246       -12.9049
  52   2.0000      -0.467518       -12.7218
  53   2.0000      -0.465609       -12.6699
  54   2.0000      -0.461970       -12.5709
  55   2.0000      -0.448787       -12.2121
  56   2.0000      -0.447611       -12.1801
  57   2.0000      -0.441336       -12.0094
  58   2.0000      -0.434071       -11.8117
  59   2.0000      -0.424929       -11.5629
  60   2.0000      -0.419353       -11.4112
  61   2.0000      -0.411096       -11.1865
  62   2.0000      -0.406452       -11.0601
  63   2.0000      -0.339384        -9.2351
  64   2.0000      -0.334538        -9.1032
  65   2.0000      -0.327257        -8.9051
  66   2.0000      -0.298830        -8.1316
  67   0.0000       0.036227         0.9858
  68   0.0000       0.068537         1.8650
  69   0.0000       0.114518         3.1162
  70   0.0000       0.117150         3.1878
  71   0.0000       0.126702         3.4477

MULLIKEN ATOMIC CHARGES
-----------------------
   0 S :    0.116190
   1 C :   -0.113558
   2 C :   -0.098405
   3 C :    0.021426
   4 C :   -0.170061
   5 H :    0.022214
   6 C :    0.056092
   7 H :    0.055207
   8 H :    0.043899
   9 C :   -0.104290
  10 H :    0.026155
  11 H :    0.037096
  12 C :   -0.061074
  13 H :    0.030101
  14 H :    0.038411
  15 H :    0.023971
  16 S :    0.118426
  17 C :   -0.090392
  18 C :   -0.025221
  19 C :   -0.060858
  20 C :   -0.161514
  21 H :    0.034435
  22 C :    0.127157
  23 H :    0.027720
  24 H :    0.009840
  25 C :   -0.096087
  26 H :    0.009887
  27 H :    0.019298
  28 C :   -0.035202
  29 H :    0.042990
  30 H :    0.038981
  31 H :    0.028470
  32 H :    0.036774
  33 H :    0.051921
Sum of atomic charges:    0.0000000

LOEWDIN ATOMIC CHARGES
----------------------
   0 S :    0.413224
   1 C :   -0.191060
   2 C :   -0.062947
   3 C :   -0.071697
   4 C :   -0.209853
   5 H :    0.037648
   6 C :   -0.034553
   7 H :    0.040784
   8 H :    0.039918
   9 C :   -0.048543
  10 H :    0.023120
  11 H :    0.027292
  12 C :   -0.074638
  13 H :    0.025564
  14 H :    0.027503
  15 H :    0.022443
  16 S :    0.421435
  17 C :   -0.181867
  18 C :   -0.073873
  19 C :   -0.050078
  20 C :   -0.205553
  21 H :    0.038257
  22 C :   -0.025685
  23 H :    0.034424
  24 H :    0.028056
  25 C :   -0.049206
  26 H :    0.019723
  27 H :    0.023663
  28 C :   -0.063091
  29 H :    0.027556
  30 H :    0.027789
  31 H :    0.024377
  32 H :    0.019222
  33 H :    0.020646

  Mayer bond orders larger than 0.100000
B(  0-S ,  1-C ) :   1.1416 B(  0-S ,  4-C ) :   1.1568 B(  1-C ,  2-C ) :   1.6079
B(  1-C , 32-H ) :   0.9687 B(  2-C ,  3-C ) :   1.2550 B(  2-C ,  6-C ) :   1.0053
B(  3-C ,  4-C ) :   1.5809 B(  3-C ,  5-H ) :   0.9807 B(  4-C , 20-C ) :   1.0082
B(  6-C ,  7-H ) :   0.9379 B(  6-C ,  8-H ) :   0.9470 B(  6-C ,  9-C ) :   1.0887
B(  9-C , 10-H ) :   0.9538 B(  9-C , 11-H ) :   0.9507 B(  9-C , 12-C ) :   1.0672
B( 12-C , 13-H ) :   0.9753 B( 12-C , 14-H ) :   0.9777 B( 12-C , 15-H ) :   0.9740
B( 16-S , 17-C ) :   1.1783 B( 16-S , 20-C ) :   1.1440 B( 17-C , 18-C ) :   1.5969
B( 17-C , 33-H ) :   0.9699 B( 18-C , 19-C ) :   1.2220 B( 18-C , 21-H ) :   0.9894
B( 19-C , 20-C ) :   1.6156 B( 19-C , 22-C ) :   1.0494 B( 22-C , 23-H ) :   0.9273
B( 22-C , 24-H ) :   0.9265 B( 22-C , 25-C ) :   1.0752 B( 25-C , 26-H ) :   0.9528
B( 25-C , 27-H ) :   0.9514 B( 25-C , 28-C ) :   1.0702 B( 28-C , 29-H ) :   0.9717
B( 28-C , 30-H ) :   0.9689 B( 28-C , 31-H ) :   0.9687

Dispersion correction           -0.015040075
FINAL SINGLE POINT ENERGY     -1339.883241880244

DIPOLE MOMENT
-------------
                                X             Y             Z
Electronic contribution:     10.65021      -0.91328      24.86181
Nuclear contribution   :    -11.06347       1.18699     -25.25814
                        -----------------------------------------
Total Dipole Moment    :     -0.41326       0.27371      -0.39633
                        -----------------------------------------
Magnitude (a.u.)       :      0.63465
Magnitude (Debye)      :      1.61315

Rotational constants in cm-1:     0.021699     0.008406     0.006693
Rotational constants in MHz :   650.510358   252.012213   200.648006

                             ****ORCA TERMINATED NORMALLY****
TOTAL RUN TIME: 0 days 0 hours 0 minutes 35 seconds 495 msec
