                         Program Version 4.2.1 -  RELEASE  -
|  1> ! wB97X-D3 SP def2-SVP
|  2> %pal
|  3> nprocs 16
|  4> end
|  5>
|  6> * xyz 0 1
|  7> S 	 -37.0498 	 2.6714 	 98.2326
|  8> C 	 -35.3172 	 3.02728 	 98.1305
|  9> C 	 -34.84 	 2.59699 	 96.8743
| 10> C 	 -35.8727 	 2.18973 	 96.0183
| 11> C 	 -37.1443 	 2.02926 	 96.5972
| 12> H 	 -35.8105 	 1.93138 	 94.9887
| 13> C 	 -33.4306 	 2.97244 	 96.37
| 14> H 	 -32.9809 	 2.08582 	 95.8256
| 15> H 	 -32.7779 	 3.15323 	 97.2444
| 16> C 	 -33.5488 	 4.2312 	 95.486
| 17> H 	 -34.4516 	 4.23839 	 94.9435
| 18> H 	 -33.7405 	 5.15719 	 96.0845
| 19> C 	 -32.2856 	 4.30308 	 94.5456
| 20> H 	 -31.3076 	 4.0195 	 95.1252
| 21> H 	 -32.3838 	 3.63155 	 93.7341
| 22> H 	 -32.2182 	 5.36909 	 94.1767
| 23> S 	 -39.8236 	 1.73335 	 96.8579
| 24> C 	 -40.6623 	 0.314381 	 96.3104
| 25> C 	 -39.8568 	 -0.366569 	 95.4173
| 26> C 	 -38.4681 	 -0.000644909 	 95.4488
| 27> C 	 -38.281 	 1.15461 	 96.2538
| 28> H 	 -40.2623 	 -1.26655 	 94.9777
| 29> C 	 -37.4681 	 -0.590969 	 94.507
| 30> H 	 -36.4881 	 -0.201186 	 94.6361
| 31> H 	 -37.7895 	 -0.418787 	 93.5126
| 32> C 	 -37.3602 	 -2.07275 	 94.7465
| 33> H 	 -36.7836 	 -2.45834 	 93.9254
| 34> H 	 -38.2938 	 -2.55963 	 94.6978
| 35> C 	 -36.7 	 -2.52248 	 96.0807
| 36> H 	 -37.4227 	 -2.40264 	 96.9013
| 37> H 	 -35.8082 	 -1.92481 	 96.1843
| 38> H 	 -36.3547 	 -3.57543 	 95.9808
| 39> H 	 -34.6322 	 3.61204 	 98.7676
| 40> H 	 -41.6086 	 -0.0564209 	 96.7054
| 41> *
| 42>
| 43>                          ****END OF INPUT****

CARTESIAN COORDINATES (ANGSTROEM)
---------------------------------
  S    -37.049800    2.671400   98.232600
  C    -35.317200    3.027280   98.130500
  C    -34.840000    2.596990   96.874300
  C    -35.872700    2.189730   96.018300
  C    -37.144300    2.029260   96.597200
  H    -35.810500    1.931380   94.988700
  C    -33.430600    2.972440   96.370000
  H    -32.980900    2.085820   95.825600
  H    -32.777900    3.153230   97.244400
  C    -33.548800    4.231200   95.486000
  H    -34.451600    4.238390   94.943500
  H    -33.740500    5.157190   96.084500
  C    -32.285600    4.303080   94.545600
  H    -31.307600    4.019500   95.125200
  H    -32.383800    3.631550   93.734100
  H    -32.218200    5.369090   94.176700
  S    -39.823600    1.733350   96.857900
  C    -40.662300    0.314381   96.310400
  C    -39.856800   -0.366569   95.417300
  C    -38.468100   -0.000645   95.448800
  C    -38.281000    1.154610   96.253800
  H    -40.262300   -1.266550   94.977700
  C    -37.468100   -0.590969   94.507000
  H    -36.488100   -0.201186   94.636100
  H    -37.789500   -0.418787   93.512600
  C    -37.360200   -2.072750   94.746500
  H    -36.783600   -2.458340   93.925400
  H    -38.293800   -2.559630   94.697800
  C    -36.700000   -2.522480   96.080700
  H    -37.422700   -2.402640   96.901300
  H    -35.808200   -1.924810   96.184300
  H    -36.354700   -3.575430   95.980800
  H    -34.632200    3.612040   98.767600
  H    -41.608600   -0.056421   96.705400

 Total Charge           Charge          ....    0
 Multiplicity           Mult            ....    1
 Number of Electrons    NEL             ....  134
 Basis Dimension        Dim             ....  322

ORBITAL ENERGIES
----------------

  NO   OCC          E(Eh)            E(eV)
   0   2.0000     -88.966657     -2420.9058
   1   2.0000     -88.962615     -2420.7958
   2   2.0000     -10.334510      -281.2163
   3   2.0000     -10.334269      -281.2097
   4   2.0000     -10.321526      -280.8630
   5   2.0000     -10.318806      -280.7890
   6   2.0000     -10.309005      -280.5223
   7   2.0000     -10.303234      -280.3653
   8   2.0000     -10.301978      -280.3311
   9   2.0000     -10.295331      -280.1502
  10   2.0000     -10.294403      -280.1250
  11   2.0000     -10.291207      -280.0380
  12   2.0000     -10.289592      -279.9940
  13   2.0000     -10.285006      -279.8692
  14   2.0000     -10.276257      -279.6312
  15   2.0000     -10.275272      -279.6044
  16   2.0000      -8.080510      -219.8819
  17   2.0000      -8.077829      -219.8089
  18   2.0000      -6.039118      -164.3328
  19   2.0000      -6.036395      -164.2586
  20   2.0000      -6.034921      -164.2185
  21   2.0000      -6.032238      -164.1455
  22   2.0000      -6.031380      -164.1222
  23   2.0000      -6.028530      -164.0446
  24   2.0000      -1.004993       -27.3472
  25   2.0000      -0.982633       -26.7388
  26   2.0000      -0.918574       -24.9957
  27   2.0000      -0.907723       -24.7004
  28   2.0000      -0.865448       -23.5500
  29   2.0000      -0.846831       -23.0434
  30   2.0000      -0.838468       -22.8159
  31   2.0000      -0.813796       -22.1445
  32   2.0000      -0.783471       -21.3193
  33   2.0000      -0.767487       -20.8844
  34   2.0000      -0.709195       -19.2982
  35   2.0000      -0.699799       -19.0425
  36   2.0000      -0.695126       -18.9153
  37   2.0000      -0.655860       -17.8469
  38   2.0000      -0.641082       -17.4447
  39   2.0000      -0.622449       -16.9377
  40   2.0000      -0.605289       -16.4708
  41   2.0000      -0.565248       -15.3812
  42   2.0000      -0.560064       -15.2401
  43   2.0000      -0.550960       -14.9924
  44   2.0000      -0.540415       -14.7054
  45   2.0000      -0.525527       -14.3003
  46   2.0000      -0.518493       -14.1089
  47   2.0000      -0.511542       -13.9198
  48   2.0000      -0.504136       -13.7182
  49   2.0000      -0.498366       -13.5612
  50   2.0000      -0.490571       -13.3491
  51   2.0000      -0.477818       -13.0021
  52   2.0000      -0.472693       -12.8626
  53   2.0000      -0.465723       -12.6730
  54   2.0000      -0.458342       -12.4721
  55   2.0000      -0.448663       -12.2088
  56   2.0000      -0.446025       -12.1369
  57   2.0000      -0.437174       -11.8961
  58   2.0000      -0.433742       -11.8027
  59   2.0000      -0.424848       -11.5607
  60   2.0000      -0.420421       -11.4402
  61   2.0000      -0.413016       -11.2387
  62   2.0000      -0.406369       -11.0579
  63   2.0000      -0.348086        -9.4719
  64   2.0000      -0.331732        -9.0269
  65   2.0000      -0.327324        -8.9069
  66   2.0000      -0.285001        -7.7553
  67   0.0000       0.013800         0.3755
  68   0.0000       0.076905         2.0927
  69   0.0000       0.098126         2.6701
  70   0.0000       0.116128         3.1600
  71   0.0000       0.129905         3.5349

MULLIKEN ATOMIC CHARGES
-----------------------
   0 S :    0.104157
   1 C :   -0.101847
   2 C :   -0.108010
   3 C :   -0.000699
   4 C :   -0.113944
   5 H :    0.012556
   6 C :    0.018505
   7 H :    0.044040
   8 H :    0.032209
   9 C :   -0.055271
  10 H :    0.020635
  11 H :    0.028261
  12 C :   -0.078702
  13 H :    0.049185
  14 H :    0.037167
  15 H :    0.046743
  16 S :    0.089991
  17 C :   -0.099264
  18 C :   -0.040627
  19 C :   -0.060593
  20 C :   -0.137640
  21 H :    0.023927
  22 C :    0.128189
  23 H :    0.002598
  24 H :    0.031617
  25 C :   -0.096071
  26 H :    0.012928
  27 H :    0.012104
  28 C :   -0.048461
  29 H :    0.052541
  30 H :    0.025972
  31 H :    0.039122
  32 H :    0.059450
  33 H :    0.069232
Sum of atomic charges:    0.0000000

LOEWDIN ATOMIC CHARGES
----------------------
   0 S :    0.403247
   1 C :   -0.199599
   2 C :   -0.067655
   3 C :   -0.068217
   4 C :   -0.195881
   5 H :    0.024116
   6 C :   -0.033630
   7 H :    0.035245
   8 H :    0.030437
   9 C :   -0.042490
  10 H :    0.018031
  11 H :    0.030770
  12 C :   -0.070026
  13 H :    0.036142
  14 H :    0.017419
  15 H :    0.032444
  16 S :    0.403250
  17 C :   -0.187240
  18 C :   -0.072159
  19 C :   -0.052371
  20 C :   -0.192774
  21 H :    0.028575
  22 C :   -0.022963
  23 H :    0.023580
  24 H :    0.034026
  25 C :   -0.039132
  26 H :    0.018720
  27 H :    0.012381
  28 C :   -0.060543
  29 H :    0.030171
  30 H :    0.021420
  31 H :    0.031235
  32 H :    0.038197
  33 H :    0.035274

  Mayer bond orders larger than 0.100000
B(  0-S ,  1-C ) :   1.1503 B(  0-S ,  4-C ) :   1.1526 B(  1-C ,  2-C ) :   1.5630
B(  1-C ,  4-C ) :   0.1161 B(  1-C , 32-H ) :   0.9627 B(  2-C ,  3-C ) :   1.2839
B(  2-C ,  6-C ) :   1.0343 B(  3-C ,  4-C ) :   1.5393 B(  3-C ,  5-H ) :   0.9943
B(  4-C , 20-C ) :   1.0416 B(  6-C ,  7-H ) :   0.9492 B(  6-C ,  8-H ) :   0.9422
B(  6-C ,  9-C ) :   1.0393 B(  9-C , 10-H ) :   0.9633 B(  9-C , 11-H ) :   0.9544
B(  9-C , 12-C ) :   1.0561 B( 12-C , 13-H ) :   0.9759 B( 12-C , 14-H ) :   0.9796
B( 12-C , 15-H ) :   0.9752 B( 16-S , 17-C ) :   1.1559 B( 16-S , 20-C ) :   1.1473
B( 17-C , 18-C ) :   1.6017 B( 17-C , 33-H ) :   0.9681 B( 18-C , 19-C ) :   1.2453
B( 18-C , 21-H ) :   0.9815 B( 19-C , 20-C ) :   1.5529 B( 19-C , 22-C ) :   1.0468
B( 22-C , 23-H ) :   0.9316 B( 22-C , 24-H ) :   0.9310 B( 22-C , 25-C ) :   1.0779
B( 25-C , 26-H ) :   0.9523 B( 25-C , 27-H ) :   0.9583 B( 25-C , 28-C ) :   1.0727
B( 28-C , 29-H ) :   0.9746 B( 28-C , 30-H ) :   0.9765 B( 28-C , 31-H ) :   0.9749

Dispersion correction           -0.014109024
FINAL SINGLE POINT ENERGY     -1339.858427487810

DIPOLE MOMENT
-------------
                                X             Y             Z
Electronic contribution:    -22.06850       7.31234      13.60686
Nuclear contribution   :     22.47506      -7.59573     -14.11458
                        -----------------------------------------
Total Dipole Moment    :      0.40656      -0.28339      -0.50772
                        -----------------------------------------
Magnitude (a.u.)       :      0.70949
Magnitude (Debye)      :      1.80339

Rotational constants in cm-1:     0.019679     0.008233     0.006703
Rotational constants in MHz :   589.956715   246.825206   200.938619

                             ****ORCA TERMINATED NORMALLY****
TOTAL RUN TIME: 0 days 0 hours 0 minutes 29 seconds 799 msec
