                         Program Version 4.2.1 -  RELEASE  -
|  1> ! wB97X-D3 SP def2-SVP
|  2> %pal
|  3> nprocs 16
|  4> end
|  5>
|  6> * xyz 0 1
|  7> S 	 16.4303 	 7.37769 	 86.4733
|  8> C 	 17.1402 	 5.88513 	 87.0049
|  9> C 	 16.2595 	 5.09719 	 87.7662
| 10> C 	 15.0088 	 5.77698 	 87.9401
| 11> C 	 14.9492 	 6.96292 	 87.3359
| 12> H 	 14.0629 	 5.3677 	 88.3005
| 13> C 	 16.5356 	 3.67518 	 88.3751
| 14> H 	 15.6931 	 3.57041 	 89.0477
| 15> H 	 17.5255 	 3.70475 	 88.7616
| 16> C 	 16.3226 	 2.6114 	 87.3931
| 17> H 	 15.216 	 2.55307 	 87.2431
| 18> H 	 16.9145 	 2.80654 	 86.4485
| 19> C 	 16.8133 	 1.24022 	 87.8556
| 20> H 	 16.4392 	 0.409274 	 87.2794
| 21> H 	 17.8954 	 1.1844 	 87.8502
| 22> H 	 16.6342 	 0.967569 	 88.8794
| 23> S 	 13.1184 	 7.87081 	 85.5401
| 24> C 	 11.6418 	 8.71112 	 86.1029
| 25> C 	 11.6119 	 8.75238 	 87.5174
| 26> C 	 12.7061 	 8.09909 	 88.101
| 27> C 	 13.7241 	 7.71593 	 87.2186
| 28> H 	 10.7057 	 9.19529 	 87.9277
| 29> C 	 12.9726 	 8.18325 	 89.588
| 30> H 	 12.5607 	 9.10601 	 89.9211
| 31> H 	 14.0122 	 8.1766 	 89.7184
| 32> C 	 12.1875 	 7.08256 	 90.3835
| 33> H 	 12.5363 	 6.13873 	 89.9635
| 34> H 	 11.1725 	 7.23838 	 90.0521
| 35> C 	 12.3817 	 7.21835 	 91.9331
| 36> H 	 13.3133 	 6.66928 	 92.2227
| 37> H 	 11.5379 	 6.70727 	 92.3952
| 38> H 	 12.3681 	 8.27755 	 92.2911
| 39> H 	 18.0451 	 5.41136 	 86.7067
| 40> H 	 10.8635 	 9.21385 	 85.4723
| 41> *
| 42>
| 43>                          ****END OF INPUT****

CARTESIAN COORDINATES (ANGSTROEM)
---------------------------------
  S     16.430300    7.377690   86.473300
  C     17.140200    5.885130   87.004900
  C     16.259500    5.097190   87.766200
  C     15.008800    5.776980   87.940100
  C     14.949200    6.962920   87.335900
  H     14.062900    5.367700   88.300500
  C     16.535600    3.675180   88.375100
  H     15.693100    3.570410   89.047700
  H     17.525500    3.704750   88.761600
  C     16.322600    2.611400   87.393100
  H     15.216000    2.553070   87.243100
  H     16.914500    2.806540   86.448500
  C     16.813300    1.240220   87.855600
  H     16.439200    0.409274   87.279400
  H     17.895400    1.184400   87.850200
  H     16.634200    0.967569   88.879400
  S     13.118400    7.870810   85.540100
  C     11.641800    8.711120   86.102900
  C     11.611900    8.752380   87.517400
  C     12.706100    8.099090   88.101000
  C     13.724100    7.715930   87.218600
  H     10.705700    9.195290   87.927700
  C     12.972600    8.183250   89.588000
  H     12.560700    9.106010   89.921100
  H     14.012200    8.176600   89.718400
  C     12.187500    7.082560   90.383500
  H     12.536300    6.138730   89.963500
  H     11.172500    7.238380   90.052100
  C     12.381700    7.218350   91.933100
  H     13.313300    6.669280   92.222700
  H     11.537900    6.707270   92.395200
  H     12.368100    8.277550   92.291100
  H     18.045100    5.411360   86.706700
  H     10.863500    9.213850   85.472300

 Total Charge           Charge          ....    0
 Multiplicity           Mult            ....    1
 Number of Electrons    NEL             ....  134
 Basis Dimension        Dim             ....  322

ORBITAL ENERGIES
----------------

  NO   OCC          E(Eh)            E(eV)
   0   2.0000     -88.972022     -2421.0518
   1   2.0000     -88.963527     -2420.8206
   2   2.0000     -10.327511      -281.0259
   3   2.0000     -10.325309      -280.9660
   4   2.0000     -10.324202      -280.9358
   5   2.0000     -10.314381      -280.6686
   6   2.0000     -10.304874      -280.4099
   7   2.0000     -10.302010      -280.3320
   8   2.0000     -10.296466      -280.1811
   9   2.0000     -10.291507      -280.0462
  10   2.0000     -10.290892      -280.0294
  11   2.0000     -10.290032      -280.0060
  12   2.0000     -10.287499      -279.9371
  13   2.0000     -10.286703      -279.9154
  14   2.0000     -10.278874      -279.7024
  15   2.0000     -10.273526      -279.5569
  16   2.0000      -8.086416      -220.0426
  17   2.0000      -8.077011      -219.7866
  18   2.0000      -6.045020      -164.4934
  19   2.0000      -6.041008      -164.3842
  20   2.0000      -6.037053      -164.2766
  21   2.0000      -6.035551      -164.2357
  22   2.0000      -6.031613      -164.1285
  23   2.0000      -6.027877      -164.0269
  24   2.0000      -1.007803       -27.4237
  25   2.0000      -0.978793       -26.6343
  26   2.0000      -0.921872       -25.0854
  27   2.0000      -0.902638       -24.5620
  28   2.0000      -0.872166       -23.7329
  29   2.0000      -0.852766       -23.2049
  30   2.0000      -0.842713       -22.9314
  31   2.0000      -0.814042       -22.1512
  32   2.0000      -0.784765       -21.3546
  33   2.0000      -0.768316       -20.9069
  34   2.0000      -0.705110       -19.1870
  35   2.0000      -0.696641       -18.9566
  36   2.0000      -0.694215       -18.8905
  37   2.0000      -0.661378       -17.9970
  38   2.0000      -0.642794       -17.4913
  39   2.0000      -0.620706       -16.8903
  40   2.0000      -0.585465       -15.9313
  41   2.0000      -0.583436       -15.8761
  42   2.0000      -0.569841       -15.5062
  43   2.0000      -0.559959       -15.2373
  44   2.0000      -0.527932       -14.3658
  45   2.0000      -0.518440       -14.1075
  46   2.0000      -0.516706       -14.0603
  47   2.0000      -0.506111       -13.7720
  48   2.0000      -0.505359       -13.7515
  49   2.0000      -0.501657       -13.6508
  50   2.0000      -0.496989       -13.5238
  51   2.0000      -0.476628       -12.9697
  52   2.0000      -0.470410       -12.8005
  53   2.0000      -0.466836       -12.7033
  54   2.0000      -0.462615       -12.5884
  55   2.0000      -0.448601       -12.2070
  56   2.0000      -0.439942       -11.9714
  57   2.0000      -0.439694       -11.9647
  58   2.0000      -0.430539       -11.7156
  59   2.0000      -0.426248       -11.5988
  60   2.0000      -0.423563       -11.5257
  61   2.0000      -0.412775       -11.2322
  62   2.0000      -0.410627       -11.1737
  63   2.0000      -0.349033        -9.4977
  64   2.0000      -0.329509        -8.9664
  65   2.0000      -0.328906        -8.9500
  66   2.0000      -0.292779        -7.9669
  67   0.0000       0.026383         0.7179
  68   0.0000       0.065156         1.7730
  69   0.0000       0.111078         3.0226
  70   0.0000       0.120556         3.2805
  71   0.0000       0.123718         3.3665

MULLIKEN ATOMIC CHARGES
-----------------------
   0 S :    0.129259
   1 C :   -0.086280
   2 C :   -0.141631
   3 C :    0.022498
   4 C :   -0.151207
   5 H :    0.025945
   6 C :    0.128008
   7 H :    0.018710
   8 H :    0.025584
   9 C :   -0.102872
  10 H :    0.035243
  11 H :    0.040624
  12 C :   -0.023165
  13 H :    0.034081
  14 H :    0.017642
  15 H :    0.010314
  16 S :    0.087803
  17 C :   -0.122285
  18 C :   -0.042294
  19 C :   -0.026185
  20 C :   -0.153461
  21 H :    0.028039
  22 C :    0.079907
  23 H :    0.007462
  24 H :    0.020821
  25 C :   -0.089254
  26 H :    0.017958
  27 H :    0.021881
  28 C :   -0.045407
  29 H :    0.048371
  30 H :    0.036301
  31 H :    0.042871
  32 H :    0.029530
  33 H :    0.075189
Sum of atomic charges:    0.0000000

LOEWDIN ATOMIC CHARGES
----------------------
   0 S :    0.410896
   1 C :   -0.201613
   2 C :   -0.052805
   3 C :   -0.063403
   4 C :   -0.199748
   5 H :    0.035272
   6 C :   -0.022662
   7 H :    0.034279
   8 H :    0.027055
   9 C :   -0.046641
  10 H :    0.030793
  11 H :    0.030326
  12 C :   -0.070217
  13 H :    0.026441
  14 H :    0.023041
  15 H :    0.019632
  16 S :    0.375319
  17 C :   -0.183163
  18 C :   -0.076171
  19 C :   -0.059653
  20 C :   -0.181646
  21 H :    0.036234
  22 C :   -0.019794
  23 H :    0.022769
  24 H :    0.020436
  25 C :   -0.035250
  26 H :    0.017658
  27 H :    0.018975
  28 C :   -0.070542
  29 H :    0.034053
  30 H :    0.026357
  31 H :    0.030616
  32 H :    0.023014
  33 H :    0.040142

  Mayer bond orders larger than 0.100000
B(  0-S ,  1-C ) :   1.1334 B(  0-S ,  4-C ) :   1.1292 B(  1-C ,  2-C ) :   1.6367
B(  1-C , 32-H ) :   0.9649 B(  2-C ,  3-C ) :   1.2344 B(  2-C ,  6-C ) :   1.0031
B(  3-C ,  4-C ) :   1.6190 B(  3-C ,  5-H ) :   0.9789 B(  4-C , 20-C ) :   1.0313
B(  6-C ,  7-H ) :   0.9334 B(  6-C ,  8-H ) :   0.9424 B(  6-C ,  9-C ) :   1.0811
B(  9-C , 10-H ) :   0.9538 B(  9-C , 11-H ) :   0.9583 B(  9-C , 12-C ) :   1.0807
B( 12-C , 13-H ) :   0.9748 B( 12-C , 14-H ) :   0.9731 B( 12-C , 15-H ) :   0.9694
B( 16-S , 17-C ) :   1.1580 B( 16-S , 20-C ) :   1.1317 B( 17-C , 18-C ) :   1.6034
B( 17-C , 20-C ) :   0.1151 B( 17-C , 33-H ) :   0.9596 B( 18-C , 19-C ) :   1.2401
B( 18-C , 21-H ) :   0.9889 B( 19-C , 20-C ) :   1.5784 B( 19-C , 22-C ) :   1.0445
B( 22-C , 23-H ) :   0.9403 B( 22-C , 24-H ) :   0.9486 B( 22-C , 25-C ) :   1.0400
B( 25-C , 26-H ) :   0.9580 B( 25-C , 27-H ) :   0.9630 B( 25-C , 28-C ) :   1.0684
B( 28-C , 29-H ) :   0.9757 B( 28-C , 30-H ) :   0.9765 B( 28-C , 31-H ) :   0.9751

Dispersion correction           -0.013919381
FINAL SINGLE POINT ENERGY     -1339.859225281388

DIPOLE MOMENT
-------------
                                X             Y             Z
Electronic contribution:      1.83058      18.93711     -20.58843
Nuclear contribution   :     -2.03218     -19.36186      21.02025
                        -----------------------------------------
Total Dipole Moment    :     -0.20161      -0.42474       0.43182
                        -----------------------------------------
Magnitude (a.u.)       :      0.63838
Magnitude (Debye)      :      1.62262

Rotational constants in cm-1:     0.016900     0.008447     0.006625
Rotational constants in MHz :   506.658457   253.231026   198.598155

                             ****ORCA TERMINATED NORMALLY****
TOTAL RUN TIME: 0 days 0 hours 0 minutes 32 seconds 637 msec
