                         Program Version 4.2.1 -  RELEASE  -
|  1> ! wB97X-D3 SP def2-SVP
|  2> %pal
|  3> nprocs 16
|  4> end
|  5>
|  6> * xyz 0 1
|  7> S 	 42.8291 	 13.1967 	 82.9297
|  8> C 	 43.1053 	 14.3427 	 81.5563
|  9> C 	 43.3403 	 15.6191 	 82.0513
| 10> C 	 43.2713 	 15.6949 	 83.5268
| 11> C 	 42.965 	 14.4995 	 84.0961
| 12> H 	 43.312 	 16.5895 	 84.1317
| 13> C 	 43.6615 	 16.8388 	 81.1837
| 14> H 	 44.317 	 16.5424 	 80.3896
| 15> H 	 44.2493 	 17.4341 	 81.8654
| 16> C 	 42.3504 	 17.4372 	 80.5278
| 17> H 	 41.9427 	 16.5717 	 79.9742
| 18> H 	 41.5796 	 17.8445 	 81.1693
| 19> C 	 42.5991 	 18.5754 	 79.4835
| 20> H 	 43.408 	 19.2412 	 79.8654
| 21> H 	 43.0383 	 18.0699 	 78.5614
| 22> H 	 41.6855 	 19.0641 	 79.1507
| 23> S 	 41.3203 	 15.182 	 86.0944
| 24> C 	 41.7367 	 14.6817 	 87.714
| 25> C 	 43.0107 	 14.1284 	 87.7986
| 26> C 	 43.5865 	 13.8987 	 86.5179
| 27> C 	 42.719 	 14.3009 	 85.4823
| 28> H 	 43.4018 	 14.0207 	 88.7242
| 29> C 	 44.9282 	 13.2268 	 86.4629
| 30> H 	 45.2819 	 13.0129 	 85.4569
| 31> H 	 44.8553 	 12.2182 	 86.9752
| 32> C 	 46.1427 	 13.9429 	 87.0711
| 33> H 	 47.0558 	 13.3604 	 86.9469
| 34> H 	 46.0978 	 14.0966 	 88.2281
| 35> C 	 46.3463 	 15.3549 	 86.5331
| 36> H 	 45.3486 	 15.8539 	 86.444
| 37> H 	 46.7344 	 15.423 	 85.5091
| 38> H 	 46.8922 	 16.0104 	 87.1502
| 39> H 	 43.3064 	 13.9161 	 80.5818
| 40> H 	 41.1752 	 15.0298 	 88.6039
| 41> *
| 42>
| 43>                          ****END OF INPUT****

CARTESIAN COORDINATES (ANGSTROEM)
---------------------------------
  S     42.829100   13.196700   82.929700
  C     43.105300   14.342700   81.556300
  C     43.340300   15.619100   82.051300
  C     43.271300   15.694900   83.526800
  C     42.965000   14.499500   84.096100
  H     43.312000   16.589500   84.131700
  C     43.661500   16.838800   81.183700
  H     44.317000   16.542400   80.389600
  H     44.249300   17.434100   81.865400
  C     42.350400   17.437200   80.527800
  H     41.942700   16.571700   79.974200
  H     41.579600   17.844500   81.169300
  C     42.599100   18.575400   79.483500
  H     43.408000   19.241200   79.865400
  H     43.038300   18.069900   78.561400
  H     41.685500   19.064100   79.150700
  S     41.320300   15.182000   86.094400
  C     41.736700   14.681700   87.714000
  C     43.010700   14.128400   87.798600
  C     43.586500   13.898700   86.517900
  C     42.719000   14.300900   85.482300
  H     43.401800   14.020700   88.724200
  C     44.928200   13.226800   86.462900
  H     45.281900   13.012900   85.456900
  H     44.855300   12.218200   86.975200
  C     46.142700   13.942900   87.071100
  H     47.055800   13.360400   86.946900
  H     46.097800   14.096600   88.228100
  C     46.346300   15.354900   86.533100
  H     45.348600   15.853900   86.444000
  H     46.734400   15.423000   85.509100
  H     46.892200   16.010400   87.150200
  H     43.306400   13.916100   80.581800
  H     41.175200   15.029800   88.603900

 Total Charge           Charge          ....    0
 Multiplicity           Mult            ....    1
 Number of Electrons    NEL             ....  134
 Basis Dimension        Dim             ....  322

ORBITAL ENERGIES
----------------

  NO   OCC          E(Eh)            E(eV)
   0   2.0000     -88.968401     -2420.9533
   1   2.0000     -88.960457     -2420.7371
   2   2.0000     -10.325313      -280.9661
   3   2.0000     -10.323967      -280.9294
   4   2.0000     -10.319796      -280.8159
   5   2.0000     -10.317879      -280.7638
   6   2.0000     -10.309872      -280.5459
   7   2.0000     -10.308755      -280.5155
   8   2.0000     -10.295991      -280.1681
   9   2.0000     -10.295630      -280.1583
  10   2.0000     -10.295071      -280.1431
  11   2.0000     -10.294572      -280.1295
  12   2.0000     -10.292166      -280.0641
  13   2.0000     -10.287811      -279.9456
  14   2.0000     -10.285498      -279.8826
  15   2.0000     -10.270675      -279.4793
  16   2.0000      -8.082968      -219.9487
  17   2.0000      -8.074586      -219.7206
  18   2.0000      -6.041361      -164.3938
  19   2.0000      -6.037633      -164.2923
  20   2.0000      -6.033723      -164.1859
  21   2.0000      -6.033247      -164.1730
  22   2.0000      -6.029171      -164.0621
  23   2.0000      -6.025231      -163.9549
  24   2.0000      -1.005400       -27.3583
  25   2.0000      -0.976370       -26.5684
  26   2.0000      -0.909478       -24.7482
  27   2.0000      -0.903974       -24.5984
  28   2.0000      -0.869320       -23.6554
  29   2.0000      -0.849467       -23.1152
  30   2.0000      -0.840851       -22.8807
  31   2.0000      -0.811999       -22.0956
  32   2.0000      -0.783869       -21.3302
  33   2.0000      -0.768344       -20.9077
  34   2.0000      -0.706721       -19.2309
  35   2.0000      -0.697705       -18.9855
  36   2.0000      -0.687014       -18.6946
  37   2.0000      -0.664261       -18.0755
  38   2.0000      -0.644768       -17.5450
  39   2.0000      -0.615719       -16.7546
  40   2.0000      -0.597592       -16.2613
  41   2.0000      -0.561957       -15.2916
  42   2.0000      -0.559855       -15.2344
  43   2.0000      -0.551515       -15.0075
  44   2.0000      -0.540220       -14.7001
  45   2.0000      -0.527104       -14.3432
  46   2.0000      -0.517152       -14.0724
  47   2.0000      -0.512073       -13.9342
  48   2.0000      -0.504132       -13.7181
  49   2.0000      -0.497610       -13.5407
  50   2.0000      -0.489587       -13.3223
  51   2.0000      -0.473920       -12.8960
  52   2.0000      -0.469310       -12.7706
  53   2.0000      -0.457735       -12.4556
  54   2.0000      -0.457467       -12.4483
  55   2.0000      -0.446985       -12.1631
  56   2.0000      -0.439530       -11.9602
  57   2.0000      -0.437372       -11.9015
  58   2.0000      -0.433363       -11.7924
  59   2.0000      -0.425036       -11.5658
  60   2.0000      -0.419383       -11.4120
  61   2.0000      -0.412261       -11.2182
  62   2.0000      -0.407909       -11.0998
  63   2.0000      -0.335660        -9.1338
  64   2.0000      -0.330282        -8.9874
  65   2.0000      -0.324385        -8.8270
  66   2.0000      -0.304048        -8.2736
  67   0.0000       0.036789         1.0011
  68   0.0000       0.055482         1.5098
  69   0.0000       0.100710         2.7405
  70   0.0000       0.114421         3.1136
  71   0.0000       0.123644         3.3645

MULLIKEN ATOMIC CHARGES
-----------------------
   0 S :    0.088234
   1 C :   -0.133964
   2 C :   -0.102049
   3 C :    0.035040
   4 C :   -0.161046
   5 H :    0.018488
   6 C :    0.091428
   7 H :    0.019631
   8 H :    0.020786
   9 C :   -0.085476
  10 H :    0.034362
  11 H :    0.039133
  12 C :   -0.074354
  13 H :    0.043316
  14 H :    0.029245
  15 H :    0.046971
  16 S :    0.114397
  17 C :   -0.102259
  18 C :    0.002898
  19 C :    0.004591
  20 C :   -0.174360
  21 H :   -0.020055
  22 C :    0.069461
  23 H :    0.023967
  24 H :    0.050313
  25 C :   -0.107846
  26 H :    0.036617
  27 H :    0.032443
  28 C :   -0.050542
  29 H :    0.030489
  30 H :    0.030584
  31 H :    0.022217
  32 H :    0.058903
  33 H :    0.068435
Sum of atomic charges:   -0.0000000

LOEWDIN ATOMIC CHARGES
----------------------
   0 S :    0.371723
   1 C :   -0.183790
   2 C :   -0.051708
   3 C :   -0.066841
   4 C :   -0.196572
   5 H :    0.031064
   6 C :   -0.027461
   7 H :    0.028792
   8 H :    0.026663
   9 C :   -0.037997
  10 H :    0.027806
  11 H :    0.023695
  12 C :   -0.076281
  13 H :    0.028654
  14 H :    0.027576
  15 H :    0.026645
  16 S :    0.415486
  17 C :   -0.185115
  18 C :   -0.055416
  19 C :   -0.045352
  20 C :   -0.201292
  21 H :    0.014508
  22 C :   -0.037188
  23 H :    0.030650
  24 H :    0.044793
  25 C :   -0.047441
  26 H :    0.025829
  27 H :    0.027544
  28 C :   -0.072888
  29 H :    0.030804
  30 H :    0.025016
  31 H :    0.017726
  32 H :    0.026849
  33 H :    0.033522

  Mayer bond orders larger than 0.100000
B(  0-S ,  1-C ) :   1.1113 B(  0-S ,  4-C ) :   1.1360 B(  1-C ,  2-C ) :   1.6379
B(  1-C , 32-H ) :   0.9728 B(  2-C ,  3-C ) :   1.1957 B(  2-C ,  6-C ) :   1.0224
B(  3-C ,  4-C ) :   1.6266 B(  3-C ,  5-H ) :   0.9909 B(  4-C , 20-C ) :   1.0195
B(  6-C ,  7-H ) :   0.9432 B(  6-C ,  8-H ) :   0.9412 B(  6-C ,  9-C ) :   1.0412
B(  9-C , 10-H ) :   0.9612 B(  9-C , 11-H ) :   0.9655 B(  9-C , 12-C ) :   1.0714
B( 12-C , 13-H ) :   0.9760 B( 12-C , 14-H ) :   0.9774 B( 12-C , 15-H ) :   0.9765
B( 16-S , 17-C ) :   1.1625 B( 16-S , 20-C ) :   1.1494 B( 17-C , 18-C ) :   1.6056
B( 17-C , 33-H ) :   0.9609 B( 18-C , 19-C ) :   1.2274 B( 18-C , 21-H ) :   1.0124
B( 19-C , 20-C ) :   1.5668 B( 19-C , 22-C ) :   1.0524 B( 22-C , 23-H ) :   0.9344
B( 22-C , 24-H ) :   0.9354 B( 22-C , 25-C ) :   1.0677 B( 25-C , 26-H ) :   0.9571
B( 25-C , 27-H ) :   0.9555 B( 25-C , 28-C ) :   1.0699 B( 28-C , 29-H ) :   0.9708
B( 28-C , 30-H ) :   0.9732 B( 28-C , 31-H ) :   0.9755

Dispersion correction           -0.014636452
FINAL SINGLE POINT ENERGY     -1339.866620034046

DIPOLE MOMENT
-------------
                                X             Y             Z
Electronic contribution:    -14.47824     -13.53998       7.54146
Nuclear contribution   :     14.90629      13.93504      -7.44693
                        -----------------------------------------
Total Dipole Moment    :      0.42805       0.39505       0.09453
                        -----------------------------------------
Magnitude (a.u.)       :      0.59011
Magnitude (Debye)      :      1.49994

Rotational constants in cm-1:     0.021058     0.007428     0.006973
Rotational constants in MHz :   631.300726   222.699519   209.030927

                             ****ORCA TERMINATED NORMALLY****
TOTAL RUN TIME: 0 days 0 hours 0 minutes 28 seconds 684 msec
