                         Program Version 4.2.1 -  RELEASE  -
|  1> ! wB97X-D3 SP def2-SVP
|  2> %pal
|  3> nprocs 16
|  4> end
|  5>
|  6> * xyz 0 1
|  7> S 	 -37.0688 	 73.4424 	 147.123
|  8> C 	 -35.5584 	 74.2877 	 146.942
|  9> C 	 -34.5372 	 73.4833 	 147.391
| 10> C 	 -34.9835 	 72.2864 	 147.939
| 11> C 	 -36.3583 	 72.0236 	 147.853
| 12> H 	 -34.4612 	 71.476 	 148.425
| 13> C 	 -33.0723 	 73.8256 	 147.299
| 14> H 	 -32.8552 	 74.524 	 148.103
| 15> H 	 -32.8476 	 74.2474 	 146.297
| 16> C 	 -32.1151 	 72.6204 	 147.401
| 17> H 	 -32.178 	 72.1147 	 148.326
| 18> H 	 -32.3882 	 71.9097 	 146.669
| 19> C 	 -30.6083 	 72.9083 	 147.264
| 20> H 	 -30.332 	 73.235 	 146.331
| 21> H 	 -30.2501 	 73.7325 	 147.908
| 22> H 	 -29.9786 	 72.0474 	 147.556
| 23> S 	 -38.2404 	 70.1258 	 147.174
| 24> C 	 -38.5351 	 68.7682 	 148.258
| 25> C 	 -37.7486 	 68.8397 	 149.401
| 26> C 	 -36.9227 	 69.994 	 149.412
| 27> C 	 -37.086 	 70.8572 	 148.353
| 28> H 	 -37.8127 	 68.0333 	 150.13
| 29> C 	 -35.8762 	 70.2207 	 150.582
| 30> H 	 -36.3618 	 70.1209 	 151.553
| 31> H 	 -35.6358 	 71.3097 	 150.507
| 32> C 	 -34.6629 	 69.2656 	 150.574
| 33> H 	 -34.1138 	 69.4445 	 149.634
| 34> H 	 -34.9814 	 68.2873 	 150.449
| 35> C 	 -33.8839 	 69.375 	 151.865
| 36> H 	 -33.0817 	 68.597 	 151.916
| 37> H 	 -34.5303 	 69.2441 	 152.722
| 38> H 	 -33.4957 	 70.3831 	 152.017
| 39> H 	 -35.4 	 75.3302 	 146.546
| 40> H 	 -39.2426 	 68.0129 	 148.047
| 41> *
| 42>
| 43>                          ****END OF INPUT****

CARTESIAN COORDINATES (ANGSTROEM)
---------------------------------
  S    -37.068800   73.442400  147.123000
  C    -35.558400   74.287700  146.942000
  C    -34.537200   73.483300  147.391000
  C    -34.983500   72.286400  147.939000
  C    -36.358300   72.023600  147.853000
  H    -34.461200   71.476000  148.425000
  C    -33.072300   73.825600  147.299000
  H    -32.855200   74.524000  148.103000
  H    -32.847600   74.247400  146.297000
  C    -32.115100   72.620400  147.401000
  H    -32.178000   72.114700  148.326000
  H    -32.388200   71.909700  146.669000
  C    -30.608300   72.908300  147.264000
  H    -30.332000   73.235000  146.331000
  H    -30.250100   73.732500  147.908000
  H    -29.978600   72.047400  147.556000
  S    -38.240400   70.125800  147.174000
  C    -38.535100   68.768200  148.258000
  C    -37.748600   68.839700  149.401000
  C    -36.922700   69.994000  149.412000
  C    -37.086000   70.857200  148.353000
  H    -37.812700   68.033300  150.130000
  C    -35.876200   70.220700  150.582000
  H    -36.361800   70.120900  151.553000
  H    -35.635800   71.309700  150.507000
  C    -34.662900   69.265600  150.574000
  H    -34.113800   69.444500  149.634000
  H    -34.981400   68.287300  150.449000
  C    -33.883900   69.375000  151.865000
  H    -33.081700   68.597000  151.916000
  H    -34.530300   69.244100  152.722000
  H    -33.495700   70.383100  152.017000
  H    -35.400000   75.330200  146.546000
  H    -39.242600   68.012900  148.047000

 Total Charge           Charge          ....    0
 Multiplicity           Mult            ....    1
 Number of Electrons    NEL             ....  134
 Basis Dimension        Dim             ....  322

ORBITAL ENERGIES
----------------

  NO   OCC          E(Eh)            E(eV)
   0   2.0000     -88.966872     -2420.9117
   1   2.0000     -88.964182     -2420.8385
   2   2.0000     -10.333818      -281.1975
   3   2.0000     -10.331329      -281.1297
   4   2.0000     -10.319980      -280.8209
   5   2.0000     -10.317719      -280.7594
   6   2.0000     -10.309565      -280.5375
   7   2.0000     -10.298022      -280.2234
   8   2.0000     -10.297917      -280.2206
   9   2.0000     -10.297838      -280.2184
  10   2.0000     -10.294174      -280.1187
  11   2.0000     -10.289909      -280.0027
  12   2.0000     -10.285073      -279.8711
  13   2.0000     -10.282594      -279.8036
  14   2.0000     -10.279641      -279.7232
  15   2.0000     -10.274553      -279.5848
  16   2.0000      -8.081473      -219.9081
  17   2.0000      -8.078269      -219.8209
  18   2.0000      -6.039944      -164.3552
  19   2.0000      -6.036822      -164.2703
  20   2.0000      -6.035785      -164.2421
  21   2.0000      -6.032889      -164.1632
  22   2.0000      -6.032461      -164.1516
  23   2.0000      -6.028991      -164.0572
  24   2.0000      -1.006813       -27.3968
  25   2.0000      -0.984455       -26.7884
  26   2.0000      -0.912383       -24.8272
  27   2.0000      -0.908410       -24.7191
  28   2.0000      -0.872082       -23.7306
  29   2.0000      -0.852002       -23.1842
  30   2.0000      -0.845007       -22.9938
  31   2.0000      -0.815040       -22.1784
  32   2.0000      -0.781976       -21.2786
  33   2.0000      -0.772965       -21.0335
  34   2.0000      -0.715511       -19.4701
  35   2.0000      -0.705731       -19.2039
  36   2.0000      -0.694309       -18.8931
  37   2.0000      -0.663904       -18.0657
  38   2.0000      -0.642311       -17.4782
  39   2.0000      -0.617558       -16.8046
  40   2.0000      -0.593852       -16.1595
  41   2.0000      -0.576742       -15.6940
  42   2.0000      -0.569396       -15.4940
  43   2.0000      -0.563432       -15.3318
  44   2.0000      -0.531222       -14.4553
  45   2.0000      -0.524897       -14.2832
  46   2.0000      -0.516700       -14.0601
  47   2.0000      -0.510568       -13.8933
  48   2.0000      -0.503609       -13.7039
  49   2.0000      -0.497939       -13.5496
  50   2.0000      -0.497128       -13.5275
  51   2.0000      -0.485927       -13.2227
  52   2.0000      -0.474128       -12.9017
  53   2.0000      -0.463792       -12.6204
  54   2.0000      -0.461757       -12.5651
  55   2.0000      -0.448370       -12.2008
  56   2.0000      -0.443875       -12.0784
  57   2.0000      -0.442717       -12.0469
  58   2.0000      -0.428908       -11.6712
  59   2.0000      -0.425134       -11.5685
  60   2.0000      -0.423336       -11.5196
  61   2.0000      -0.415852       -11.3159
  62   2.0000      -0.410258       -11.1637
  63   2.0000      -0.351226        -9.5574
  64   2.0000      -0.333805        -9.0833
  65   2.0000      -0.332972        -9.0606
  66   2.0000      -0.290286        -7.8991
  67   0.0000       0.024739         0.6732
  68   0.0000       0.070268         1.9121
  69   0.0000       0.110398         3.0041
  70   0.0000       0.126963         3.4549
  71   0.0000       0.131027         3.5654

MULLIKEN ATOMIC CHARGES
-----------------------
   0 S :    0.116336
   1 C :   -0.149165
   2 C :   -0.066072
   3 C :    0.014155
   4 C :   -0.145413
   5 H :   -0.012650
   6 C :    0.074737
   7 H :    0.041792
   8 H :    0.036374
   9 C :   -0.086426
  10 H :    0.023433
  11 H :    0.025880
  12 C :   -0.019222
  13 H :    0.007136
  14 H :    0.018591
  15 H :    0.036704
  16 S :    0.083137
  17 C :   -0.080114
  18 C :   -0.029647
  19 C :   -0.043706
  20 C :   -0.127506
  21 H :    0.024989
  22 C :    0.008369
  23 H :    0.020493
  24 H :    0.039953
  25 C :   -0.025697
  26 H :    0.027779
  27 H :    0.005885
  28 C :   -0.034468
  29 H :    0.044559
  30 H :    0.022977
  31 H :    0.028893
  32 H :    0.070020
  33 H :    0.047895
Sum of atomic charges:    0.0000000

LOEWDIN ATOMIC CHARGES
----------------------
   0 S :    0.420617
   1 C :   -0.209272
   2 C :   -0.074681
   3 C :   -0.068502
   4 C :   -0.202076
   5 H :    0.028173
   6 C :   -0.028056
   7 H :    0.034096
   8 H :    0.036375
   9 C :   -0.038647
  10 H :    0.017320
  11 H :    0.021611
  12 C :   -0.060064
  13 H :    0.008902
  14 H :    0.026391
  15 H :    0.032716
  16 S :    0.377321
  17 C :   -0.164479
  18 C :   -0.073638
  19 C :   -0.054947
  20 C :   -0.179803
  21 H :    0.035290
  22 C :   -0.030763
  23 H :    0.026193
  24 H :    0.032730
  25 C :   -0.039801
  26 H :    0.025039
  27 H :    0.015022
  28 C :   -0.062853
  29 H :    0.032319
  30 H :    0.023994
  31 H :    0.025999
  32 H :    0.046290
  33 H :    0.021181

  Mayer bond orders larger than 0.100000
B(  0-S ,  1-C ) :   1.1556 B(  0-S ,  4-C ) :   1.1670 B(  1-C ,  2-C ) :   1.5709
B(  1-C ,  4-C ) :   0.1107 B(  1-C , 32-H ) :   0.9676 B(  2-C ,  3-C ) :   1.2826
B(  2-C ,  6-C ) :   1.0059 B(  3-C ,  4-C ) :   1.5267 B(  3-C ,  5-H ) :   0.9973
B(  4-C , 20-C ) :   1.0318 B(  6-C ,  7-H ) :   0.9283 B(  6-C ,  8-H ) :   0.9481
B(  6-C ,  9-C ) :   1.0935 B(  9-C , 10-H ) :   0.9434 B(  9-C , 11-H ) :   0.9566
B(  9-C , 12-C ) :   1.0862 B( 12-C , 13-H ) :   0.9743 B( 12-C , 14-H ) :   0.9719
B( 12-C , 15-H ) :   0.9741 B( 16-S , 17-C ) :   1.1605 B( 16-S , 20-C ) :   1.1157
B( 17-C , 18-C ) :   1.6066 B( 17-C , 20-C ) :   0.1031 B( 17-C , 33-H ) :   0.9723
B( 18-C , 19-C ) :   1.2267 B( 18-C , 21-H ) :   0.9937 B( 19-C , 20-C ) :   1.6344
B( 19-C , 22-C ) :   1.0204 B( 22-C , 23-H ) :   0.9422 B( 22-C , 24-H ) :   0.9415
B( 22-C , 25-C ) :   1.0557 B( 25-C , 26-H ) :   0.9467 B( 25-C , 27-H ) :   0.9495
B( 25-C , 28-C ) :   1.0830 B( 28-C , 29-H ) :   0.9733 B( 28-C , 30-H ) :   0.9710
B( 28-C , 31-H ) :   0.9742

Dispersion correction           -0.013968563
FINAL SINGLE POINT ENERGY     -1339.879830456317

DIPOLE MOMENT
-------------
                                X             Y             Z
Electronic contribution:    -30.00558       3.48183     -13.09424
Nuclear contribution   :     30.62071      -3.73800      13.48657
                        -----------------------------------------
Total Dipole Moment    :      0.61513      -0.25617       0.39233
                        -----------------------------------------
Magnitude (a.u.)       :      0.77326
Magnitude (Debye)      :      1.96546

Rotational constants in cm-1:     0.015578     0.009736     0.006653
Rotational constants in MHz :   467.012898   291.875855   199.440603

                             ****ORCA TERMINATED NORMALLY****
TOTAL RUN TIME: 0 days 0 hours 0 minutes 34 seconds 984 msec
