                         Program Version 4.2.1 -  RELEASE  -
|  1> ! wB97X-D3 SP def2-SVP
|  2> %pal
|  3> nprocs 16
|  4> end
|  5>
|  6> * xyz 0 1
|  7> S 	 -59.8274 	 38.3388 	 89.2245
|  8> C 	 -60.8199 	 36.9636 	 89.6884
|  9> C 	 -60.0243 	 35.8026 	 89.7587
| 10> C 	 -58.6485 	 36.1027 	 89.6159
| 11> C 	 -58.3215 	 37.4565 	 89.382
| 12> H 	 -57.8967 	 35.3907 	 89.5286
| 13> C 	 -60.565 	 34.4287 	 89.9913
| 14> H 	 -61.4803 	 34.3557 	 89.4259
| 15> H 	 -60.9095 	 34.4413 	 91.0005
| 16> C 	 -59.6334 	 33.2902 	 89.6099
| 17> H 	 -58.6903 	 33.5169 	 90.1631
| 18> H 	 -59.8794 	 32.5273 	 90.2251
| 19> C 	 -59.3416 	 32.9844 	 88.1369
| 20> H 	 -58.6478 	 32.1853 	 88.1915
| 21> H 	 -60.2905 	 32.6655 	 87.6551
| 22> H 	 -58.8128 	 33.6789 	 87.6041
| 23> S 	 -56.8268 	 39.4002 	 87.9192
| 24> C 	 -55.1107 	 39.4298 	 88.1145
| 25> C 	 -54.6652 	 38.3737 	 88.8353
| 26> C 	 -55.6871 	 37.5461 	 89.3077
| 27> C 	 -56.9748 	 37.9921 	 88.9897
| 28> H 	 -53.5721 	 38.3409 	 88.9036
| 29> C 	 -55.2896 	 36.3175 	 90.0991
| 30> H 	 -54.1925 	 36.0971 	 89.9997
| 31> H 	 -55.7354 	 35.5418 	 89.3836
| 32> C 	 -55.8534 	 36.2098 	 91.5472
| 33> H 	 -55.9592 	 35.1191 	 91.7153
| 34> H 	 -56.8813 	 36.5284 	 91.4916
| 35> C 	 -54.9268 	 36.9037 	 92.5583
| 36> H 	 -54.8881 	 37.9478 	 92.2779
| 37> H 	 -53.9864 	 36.3911 	 92.6708
| 38> H 	 -55.333 	 36.9182 	 93.5583
| 39> H 	 -61.9298 	 36.9419 	 89.7001
| 40> H 	 -54.5124 	 40.2522 	 87.9056
| 41> *
| 42>
| 43>                          ****END OF INPUT****

CARTESIAN COORDINATES (ANGSTROEM)
---------------------------------
  S    -59.827400   38.338800   89.224500
  C    -60.819900   36.963600   89.688400
  C    -60.024300   35.802600   89.758700
  C    -58.648500   36.102700   89.615900
  C    -58.321500   37.456500   89.382000
  H    -57.896700   35.390700   89.528600
  C    -60.565000   34.428700   89.991300
  H    -61.480300   34.355700   89.425900
  H    -60.909500   34.441300   91.000500
  C    -59.633400   33.290200   89.609900
  H    -58.690300   33.516900   90.163100
  H    -59.879400   32.527300   90.225100
  C    -59.341600   32.984400   88.136900
  H    -58.647800   32.185300   88.191500
  H    -60.290500   32.665500   87.655100
  H    -58.812800   33.678900   87.604100
  S    -56.826800   39.400200   87.919200
  C    -55.110700   39.429800   88.114500
  C    -54.665200   38.373700   88.835300
  C    -55.687100   37.546100   89.307700
  C    -56.974800   37.992100   88.989700
  H    -53.572100   38.340900   88.903600
  C    -55.289600   36.317500   90.099100
  H    -54.192500   36.097100   89.999700
  H    -55.735400   35.541800   89.383600
  C    -55.853400   36.209800   91.547200
  H    -55.959200   35.119100   91.715300
  H    -56.881300   36.528400   91.491600
  C    -54.926800   36.903700   92.558300
  H    -54.888100   37.947800   92.277900
  H    -53.986400   36.391100   92.670800
  H    -55.333000   36.918200   93.558300
  H    -61.929800   36.941900   89.700100
  H    -54.512400   40.252200   87.905600

 Total Charge           Charge          ....    0
 Multiplicity           Mult            ....    1
 Number of Electrons    NEL             ....  134
 Basis Dimension        Dim             ....  322

ORBITAL ENERGIES
----------------

  NO   OCC          E(Eh)            E(eV)
   0   2.0000     -88.968883     -2420.9664
   1   2.0000     -88.964506     -2420.8473
   2   2.0000     -10.337414      -281.2953
   3   2.0000     -10.334146      -281.2064
   4   2.0000     -10.317259      -280.7469
   5   2.0000     -10.305714      -280.4327
   6   2.0000     -10.301996      -280.3316
   7   2.0000     -10.300261      -280.2843
   8   2.0000     -10.298190      -280.2280
   9   2.0000     -10.289035      -279.9789
  10   2.0000     -10.287095      -279.9261
  11   2.0000     -10.285801      -279.8909
  12   2.0000     -10.285619      -279.8859
  13   2.0000     -10.282369      -279.7975
  14   2.0000     -10.276394      -279.6349
  15   2.0000     -10.274074      -279.5718
  16   2.0000      -8.082812      -219.9445
  17   2.0000      -8.079273      -219.8482
  18   2.0000      -6.041390      -164.3946
  19   2.0000      -6.037770      -164.2961
  20   2.0000      -6.037322      -164.2839
  21   2.0000      -6.033777      -164.1874
  22   2.0000      -6.033665      -164.1844
  23   2.0000      -6.030064      -164.0864
  24   2.0000      -1.004611       -27.3369
  25   2.0000      -0.985183       -26.8082
  26   2.0000      -0.918234       -24.9864
  27   2.0000      -0.904768       -24.6200
  28   2.0000      -0.867656       -23.6101
  29   2.0000      -0.850086       -23.1320
  30   2.0000      -0.845982       -23.0204
  31   2.0000      -0.818597       -22.2752
  32   2.0000      -0.789274       -21.4772
  33   2.0000      -0.774859       -21.0850
  34   2.0000      -0.721201       -19.6249
  35   2.0000      -0.706524       -19.2255
  36   2.0000      -0.687939       -18.7198
  37   2.0000      -0.657892       -17.9021
  38   2.0000      -0.636808       -17.3284
  39   2.0000      -0.627620       -17.0784
  40   2.0000      -0.589102       -16.0303
  41   2.0000      -0.569830       -15.5058
  42   2.0000      -0.562913       -15.3176
  43   2.0000      -0.548941       -14.9374
  44   2.0000      -0.544528       -14.8174
  45   2.0000      -0.536716       -14.6048
  46   2.0000      -0.519414       -14.1340
  47   2.0000      -0.511104       -13.9078
  48   2.0000      -0.502427       -13.6717
  49   2.0000      -0.497602       -13.5404
  50   2.0000      -0.494124       -13.4458
  51   2.0000      -0.484523       -13.1846
  52   2.0000      -0.473091       -12.8735
  53   2.0000      -0.467603       -12.7241
  54   2.0000      -0.463912       -12.6237
  55   2.0000      -0.449231       -12.2242
  56   2.0000      -0.443840       -12.0775
  57   2.0000      -0.443417       -12.0660
  58   2.0000      -0.430564       -11.7162
  59   2.0000      -0.425635       -11.5821
  60   2.0000      -0.419735       -11.4216
  61   2.0000      -0.408318       -11.1109
  62   2.0000      -0.404912       -11.0182
  63   2.0000      -0.353226        -9.6118
  64   2.0000      -0.332738        -9.0543
  65   2.0000      -0.327422        -8.9096
  66   2.0000      -0.279895        -7.6163
  67   0.0000       0.016509         0.4492
  68   0.0000       0.081220         2.2101
  69   0.0000       0.105539         2.8718
  70   0.0000       0.121727         3.3124
  71   0.0000       0.131015         3.5651

MULLIKEN ATOMIC CHARGES
-----------------------
   0 S :    0.108855
   1 C :   -0.137202
   2 C :   -0.114567
   3 C :    0.024149
   4 C :   -0.118973
   5 H :   -0.032101
   6 C :    0.098933
   7 H :    0.010545
   8 H :    0.033741
   9 C :   -0.064333
  10 H :    0.008729
  11 H :   -0.012901
  12 C :    0.038929
  13 H :    0.018909
  14 H :    0.042661
  15 H :    0.021310
  16 S :    0.098310
  17 C :   -0.074288
  18 C :   -0.051117
  19 C :   -0.030939
  20 C :   -0.135817
  21 H :    0.023733
  22 C :   -0.026321
  23 H :    0.027681
  24 H :    0.049440
  25 C :   -0.047751
  26 H :    0.019585
  27 H :    0.039288
  28 C :   -0.009616
  29 H :    0.037899
  30 H :    0.031614
  31 H :    0.025538
  32 H :    0.060179
  33 H :    0.035897
Sum of atomic charges:   -0.0000000

LOEWDIN ATOMIC CHARGES
----------------------
   0 S :    0.412161
   1 C :   -0.210417
   2 C :   -0.059117
   3 C :   -0.067000
   4 C :   -0.190234
   5 H :    0.011864
   6 C :   -0.031690
   7 H :    0.028218
   8 H :    0.036091
   9 C :   -0.042102
  10 H :    0.028147
  11 H :    0.013543
  12 C :   -0.046844
  13 H :    0.029325
  14 H :    0.033979
  15 H :    0.016323
  16 S :    0.400249
  17 C :   -0.180748
  18 C :   -0.078610
  19 C :   -0.063395
  20 C :   -0.192086
  21 H :    0.039140
  22 C :   -0.041778
  23 H :    0.032572
  24 H :    0.039183
  25 C :   -0.041285
  26 H :    0.024185
  27 H :    0.025091
  28 C :   -0.060572
  29 H :    0.030170
  30 H :    0.025451
  31 H :    0.025628
  32 H :    0.036357
  33 H :    0.018201

  Mayer bond orders larger than 0.100000
B(  0-S ,  1-C ) :   1.1497 B(  0-S ,  4-C ) :   1.1714 B(  1-C ,  2-C ) :   1.5577
B(  1-C ,  4-C ) :   0.1101 B(  1-C , 32-H ) :   0.9665 B(  2-C ,  3-C ) :   1.3139
B(  2-C ,  6-C ) :   1.0018 B(  3-C ,  4-C ) :   1.4880 B(  3-C ,  5-H ) :   0.9899
B(  4-C , 20-C ) :   1.0725 B(  6-C ,  7-H ) :   0.9307 B(  6-C ,  8-H ) :   0.9290
B(  6-C ,  9-C ) :   1.0940 B(  9-C , 10-H ) :   0.9376 B(  9-C , 11-H ) :   0.9407
B(  9-C , 12-C ) :   1.0665 B( 12-C , 13-H ) :   0.9668 B( 12-C , 14-H ) :   0.9736
B( 12-C , 15-H ) :   0.9724 B( 16-S , 17-C ) :   1.1615 B( 16-S , 20-C ) :   1.1328
B( 17-C , 18-C ) :   1.6153 B( 17-C , 33-H ) :   0.9674 B( 18-C , 19-C ) :   1.2558
B( 18-C , 21-H ) :   0.9933 B( 19-C , 20-C ) :   1.5687 B( 19-C , 22-C ) :   1.0147
B( 22-C , 23-H ) :   0.9427 B( 22-C , 24-H ) :   0.9324 B( 22-C , 25-C ) :   1.0513
B( 25-C , 26-H ) :   0.9519 B( 25-C , 27-H ) :   0.9540 B( 25-C , 28-C ) :   1.0714
B( 28-C , 29-H ) :   0.9759 B( 28-C , 30-H ) :   0.9745 B( 28-C , 31-H ) :   0.9726

Dispersion correction           -0.015056844
FINAL SINGLE POINT ENERGY     -1339.850357532995

DIPOLE MOMENT
-------------
                                X             Y             Z
Electronic contribution:     -5.32814      24.46639     -10.77597
Nuclear contribution   :      5.52843     -25.18725      10.97927
                        -----------------------------------------
Total Dipole Moment    :      0.20029      -0.72086       0.20330
                        -----------------------------------------
Magnitude (a.u.)       :      0.77530
Magnitude (Debye)      :      1.97065

Rotational constants in cm-1:     0.017590     0.009683     0.007699
Rotational constants in MHz :   527.343413   290.301186   230.824212

                             ****ORCA TERMINATED NORMALLY****
TOTAL RUN TIME: 0 days 0 hours 0 minutes 32 seconds 269 msec
