                         Program Version 4.2.1 -  RELEASE  -
|  1> ! wB97X-D3 SP def2-SVP
|  2> %pal
|  3> nprocs 16
|  4> end
|  5>
|  6> * xyz 0 1
|  7> S 	 -31.862 	 59.347 	 118.952
|  8> C 	 -33.5744 	 58.8107 	 118.615
|  9> C 	 -34.0066 	 59.4883 	 117.505
| 10> C 	 -33.106 	 60.5355 	 117.111
| 11> C 	 -31.9486 	 60.6388 	 117.827
| 12> H 	 -33.2991 	 61.1916 	 116.312
| 13> C 	 -35.3522 	 59.3272 	 116.907
| 14> H 	 -35.6991 	 60.4052 	 117.046
| 15> H 	 -35.9649 	 58.6793 	 117.469
| 16> C 	 -35.4277 	 58.9755 	 115.395
| 17> H 	 -36.4276 	 59.0148 	 115.03
| 18> H 	 -34.9549 	 59.8188 	 114.877
| 19> C 	 -34.6615 	 57.6729 	 115.084
| 20> H 	 -34.7521 	 57.3653 	 114.059
| 21> H 	 -33.568 	 57.6825 	 115.334
| 22> H 	 -34.9885 	 56.8058 	 115.694
| 23> S 	 -29.2463 	 60.5722 	 117.466
| 24> C 	 -28.2553 	 62.056 	 117.109
| 25> C 	 -29.1814 	 63.09 	 117.084
| 26> C 	 -30.5829 	 62.7713 	 117.198
| 27> C 	 -30.7711 	 61.4223 	 117.606
| 28> H 	 -28.8766 	 64.0807 	 116.918
| 29> C 	 -31.6535 	 63.8051 	 117.122
| 30> H 	 -32.3374 	 63.4373 	 116.338
| 31> H 	 -31.214 	 64.6796 	 116.676
| 32> C 	 -32.4647 	 64.2188 	 118.404
| 33> H 	 -31.9135 	 63.8435 	 119.226
| 34> H 	 -33.3793 	 63.5762 	 118.48
| 35> C 	 -33.0309 	 65.5907 	 118.437
| 36> H 	 -32.1416 	 66.2234 	 118.001
| 37> H 	 -33.259 	 65.9938 	 119.434
| 38> H 	 -33.9555 	 65.6037 	 117.791
| 39> H 	 -33.9794 	 57.9028 	 119.119
| 40> H 	 -27.165 	 62.1231 	 116.954
| 41> *
| 42>
| 43>                          ****END OF INPUT****

CARTESIAN COORDINATES (ANGSTROEM)
---------------------------------
  S    -31.862000   59.347000  118.952000
  C    -33.574400   58.810700  118.615000
  C    -34.006600   59.488300  117.505000
  C    -33.106000   60.535500  117.111000
  C    -31.948600   60.638800  117.827000
  H    -33.299100   61.191600  116.312000
  C    -35.352200   59.327200  116.907000
  H    -35.699100   60.405200  117.046000
  H    -35.964900   58.679300  117.469000
  C    -35.427700   58.975500  115.395000
  H    -36.427600   59.014800  115.030000
  H    -34.954900   59.818800  114.877000
  C    -34.661500   57.672900  115.084000
  H    -34.752100   57.365300  114.059000
  H    -33.568000   57.682500  115.334000
  H    -34.988500   56.805800  115.694000
  S    -29.246300   60.572200  117.466000
  C    -28.255300   62.056000  117.109000
  C    -29.181400   63.090000  117.084000
  C    -30.582900   62.771300  117.198000
  C    -30.771100   61.422300  117.606000
  H    -28.876600   64.080700  116.918000
  C    -31.653500   63.805100  117.122000
  H    -32.337400   63.437300  116.338000
  H    -31.214000   64.679600  116.676000
  C    -32.464700   64.218800  118.404000
  H    -31.913500   63.843500  119.226000
  H    -33.379300   63.576200  118.480000
  C    -33.030900   65.590700  118.437000
  H    -32.141600   66.223400  118.001000
  H    -33.259000   65.993800  119.434000
  H    -33.955500   65.603700  117.791000
  H    -33.979400   57.902800  119.119000
  H    -27.165000   62.123100  116.954000

 Total Charge           Charge          ....    0
 Multiplicity           Mult            ....    1
 Number of Electrons    NEL             ....  134
 Basis Dimension        Dim             ....  322

ORBITAL ENERGIES
----------------

  NO   OCC          E(Eh)            E(eV)
   0   2.0000     -88.965459     -2420.8732
   1   2.0000     -88.959224     -2420.7036
   2   2.0000     -10.331822      -281.1432
   3   2.0000     -10.328876      -281.0630
   4   2.0000     -10.327943      -281.0376
   5   2.0000     -10.320665      -280.8396
   6   2.0000     -10.307304      -280.4760
   7   2.0000     -10.304186      -280.3911
   8   2.0000     -10.295574      -280.1568
   9   2.0000     -10.293819      -280.1091
  10   2.0000     -10.292617      -280.0764
  11   2.0000     -10.291344      -280.0417
  12   2.0000     -10.290831      -280.0277
  13   2.0000     -10.290668      -280.0233
  14   2.0000     -10.281825      -279.7827
  15   2.0000     -10.280269      -279.7403
  16   2.0000      -8.078988      -219.8404
  17   2.0000      -8.074113      -219.7078
  18   2.0000      -6.037753      -164.2956
  19   2.0000      -6.033479      -164.1793
  20   2.0000      -6.032718      -164.1586
  21   2.0000      -6.029677      -164.0759
  22   2.0000      -6.028598      -164.0465
  23   2.0000      -6.024733      -163.9413
  24   2.0000      -1.008500       -27.4427
  25   2.0000      -0.979149       -26.6440
  26   2.0000      -0.916632       -24.9428
  27   2.0000      -0.907648       -24.6984
  28   2.0000      -0.871364       -23.7110
  29   2.0000      -0.852526       -23.1984
  30   2.0000      -0.840023       -22.8582
  31   2.0000      -0.818135       -22.2626
  32   2.0000      -0.782015       -21.2797
  33   2.0000      -0.769117       -20.9287
  34   2.0000      -0.716040       -19.4844
  35   2.0000      -0.703246       -19.1363
  36   2.0000      -0.690940       -18.8014
  37   2.0000      -0.663479       -18.0542
  38   2.0000      -0.641705       -17.4617
  39   2.0000      -0.627058       -17.0631
  40   2.0000      -0.593384       -16.1468
  41   2.0000      -0.564659       -15.3651
  42   2.0000      -0.559920       -15.2362
  43   2.0000      -0.553694       -15.0668
  44   2.0000      -0.541697       -14.7403
  45   2.0000      -0.535323       -14.5669
  46   2.0000      -0.520219       -14.1559
  47   2.0000      -0.516486       -14.0543
  48   2.0000      -0.506950       -13.7948
  49   2.0000      -0.496502       -13.5105
  50   2.0000      -0.490779       -13.3548
  51   2.0000      -0.485093       -13.2001
  52   2.0000      -0.473398       -12.8818
  53   2.0000      -0.463925       -12.6240
  54   2.0000      -0.460808       -12.5392
  55   2.0000      -0.453309       -12.3352
  56   2.0000      -0.443164       -12.0591
  57   2.0000      -0.432607       -11.7718
  58   2.0000      -0.426129       -11.5956
  59   2.0000      -0.421627       -11.4731
  60   2.0000      -0.419103       -11.4044
  61   2.0000      -0.407963       -11.1012
  62   2.0000      -0.400905       -10.9092
  63   2.0000      -0.353448        -9.6178
  64   2.0000      -0.326709        -8.8902
  65   2.0000      -0.324922        -8.8416
  66   2.0000      -0.290644        -7.9088
  67   0.0000       0.019851         0.5402
  68   0.0000       0.069701         1.8967
  69   0.0000       0.105375         2.8674
  70   0.0000       0.114096         3.1047
  71   0.0000       0.127506         3.4696

MULLIKEN ATOMIC CHARGES
-----------------------
   0 S :    0.071312
   1 C :   -0.151565
   2 C :   -0.063593
   3 C :    0.033378
   4 C :   -0.121036
   5 H :   -0.014698
   6 C :    0.033619
   7 H :    0.047770
   8 H :    0.012750
   9 C :   -0.032651
  10 H :    0.028679
  11 H :    0.022705
  12 C :   -0.074656
  13 H :    0.034529
  14 H :    0.052430
  15 H :    0.025172
  16 S :    0.088379
  17 C :   -0.103514
  18 C :   -0.005973
  19 C :   -0.077811
  20 C :   -0.116632
  21 H :   -0.001209
  22 C :    0.066576
  23 H :    0.030648
  24 H :    0.000203
  25 C :   -0.038198
  26 H :    0.025801
  27 H :    0.024429
  28 C :   -0.084068
  29 H :    0.037445
  30 H :    0.049278
  31 H :    0.050321
  32 H :    0.071817
  33 H :    0.078361
Sum of atomic charges:   -0.0000000

LOEWDIN ATOMIC CHARGES
----------------------
   0 S :    0.381523
   1 C :   -0.182017
   2 C :   -0.060562
   3 C :   -0.063521
   4 C :   -0.193993
   5 H :    0.019812
   6 C :   -0.029638
   7 H :    0.046474
   8 H :    0.020523
   9 C :   -0.036770
  10 H :    0.022941
  11 H :    0.024509
  12 C :   -0.074557
  13 H :    0.022882
  14 H :    0.036330
  15 H :    0.026065
  16 S :    0.386104
  17 C :   -0.177113
  18 C :   -0.062759
  19 C :   -0.060972
  20 C :   -0.193972
  21 H :    0.019969
  22 C :   -0.036686
  23 H :    0.035176
  24 H :    0.024460
  25 C :   -0.051165
  26 H :    0.020381
  27 H :    0.029890
  28 C :   -0.073133
  29 H :    0.032879
  30 H :    0.031285
  31 H :    0.034143
  32 H :    0.038102
  33 H :    0.043410

  Mayer bond orders larger than 0.100000
B(  0-S ,  1-C ) :   1.1077 B(  0-S ,  4-C ) :   1.1494 B(  1-C ,  2-C ) :   1.6084
B(  1-C , 32-H ) :   0.9683 B(  2-C ,  3-C ) :   1.2169 B(  2-C ,  6-C ) :   1.0177
B(  3-C ,  4-C ) :   1.5734 B(  3-C ,  5-H ) :   1.0026 B(  4-C , 20-C ) :   1.0588
B(  6-C ,  7-H ) :   0.9431 B(  6-C ,  8-H ) :   0.9490 B(  6-C ,  9-C ) :   1.0677
B(  9-C , 10-H ) :   0.9578 B(  9-C , 11-H ) :   0.9525 B(  9-C , 12-C ) :   1.0662
B( 12-C , 13-H ) :   0.9764 B( 12-C , 14-H ) :   0.9714 B( 12-C , 15-H ) :   0.9762
B( 16-S , 17-C ) :   1.1292 B( 16-S , 20-C ) :   1.1534 B( 17-C , 18-C ) :   1.5859
B( 17-C , 20-C ) :   0.1103 B( 17-C , 33-H ) :   0.9698 B( 18-C , 19-C ) :   1.2685
B( 18-C , 21-H ) :   0.9878 B( 19-C , 20-C ) :   1.5369 B( 19-C , 22-C ) :   1.0737
B( 22-C , 23-H ) :   0.9188 B( 22-C , 24-H ) :   0.9289 B( 22-C , 25-C ) :   1.0401
B( 25-C , 26-H ) :   0.9626 B( 25-C , 27-H ) :   0.9468 B( 25-C , 28-C ) :   1.0723
B( 28-C , 29-H ) :   0.9766 B( 28-C , 30-H ) :   0.9720 B( 28-C , 31-H ) :   0.9775

Dispersion correction           -0.014451972
FINAL SINGLE POINT ENERGY     -1339.857045773859

DIPOLE MOMENT
-------------
                                X             Y             Z
Electronic contribution:     20.00766      -9.74983       8.71853
Nuclear contribution   :    -20.49857      10.06569      -9.10856
                        -----------------------------------------
Total Dipole Moment    :     -0.49090       0.31586      -0.39003
                        -----------------------------------------
Magnitude (a.u.)       :      0.70205
Magnitude (Debye)      :      1.78448

Rotational constants in cm-1:     0.017496     0.008953     0.007212
Rotational constants in MHz :   524.506158   268.406610   216.218073

                             ****ORCA TERMINATED NORMALLY****
TOTAL RUN TIME: 0 days 0 hours 0 minutes 28 seconds 396 msec
