                         Program Version 4.2.1 -  RELEASE  -
|  1> ! wB97X-D3 SP def2-SVP
|  2> %pal
|  3> nprocs 16
|  4> end
|  5>
|  6> * xyz 0 1
|  7> S 	 -69.9632 	 47.9001 	 124.27
|  8> C 	 -68.9223 	 49.2709 	 123.963
|  9> C 	 -69.6615 	 50.3453 	 123.346
| 10> C 	 -71.0786 	 50.0256 	 123.209
| 11> C 	 -71.4133 	 48.7697 	 123.689
| 12> H 	 -71.8934 	 50.6325 	 122.922
| 13> C 	 -69.1078 	 51.7709 	 122.98
| 14> H 	 -68.2061 	 51.8609 	 123.517
| 15> H 	 -69.8301 	 52.4756 	 123.3
| 16> C 	 -68.7395 	 51.9017 	 121.499
| 17> H 	 -67.7919 	 51.429 	 121.361
| 18> H 	 -69.5968 	 51.5313 	 120.88
| 19> C 	 -68.5235 	 53.3896 	 121.116
| 20> H 	 -69.1351 	 53.9699 	 121.814
| 21> H 	 -67.4549 	 53.6666 	 121.345
| 22> H 	 -68.7823 	 53.5999 	 120.129
| 23> S 	 -72.7653 	 46.501 	 123.31
| 24> C 	 -74.5122 	 46.4946 	 123.445
| 25> C 	 -75.0132 	 47.7319 	 123.74
| 26> C 	 -74.0177 	 48.7506 	 123.822
| 27> C 	 -72.7582 	 48.2132 	 123.728
| 28> H 	 -76.0488 	 47.8421 	 123.925
| 29> C 	 -74.376 	 50.1002 	 124.305
| 30> H 	 -73.4943 	 50.6763 	 124.562
| 31> H 	 -74.7627 	 49.8591 	 125.316
| 32> C 	 -75.3937 	 50.9543 	 123.465
| 33> H 	 -75.8672 	 51.7646 	 124.102
| 34> H 	 -76.3278 	 50.3147 	 123.269
| 35> C 	 -75.096 	 51.21 	 122.012
| 36> H 	 -74.0209 	 51.4439 	 121.95
| 37> H 	 -75.7765 	 51.9512 	 121.702
| 38> H 	 -75.159 	 50.3592 	 121.409
| 39> H 	 -67.9111 	 49.2658 	 124.202
| 40> H 	 -75.0496 	 45.5722 	 123.623
| 41> *
| 42>
| 43>                          ****END OF INPUT****

CARTESIAN COORDINATES (ANGSTROEM)
---------------------------------
  S    -69.963200   47.900100  124.270000
  C    -68.922300   49.270900  123.963000
  C    -69.661500   50.345300  123.346000
  C    -71.078600   50.025600  123.209000
  C    -71.413300   48.769700  123.689000
  H    -71.893400   50.632500  122.922000
  C    -69.107800   51.770900  122.980000
  H    -68.206100   51.860900  123.517000
  H    -69.830100   52.475600  123.300000
  C    -68.739500   51.901700  121.499000
  H    -67.791900   51.429000  121.361000
  H    -69.596800   51.531300  120.880000
  C    -68.523500   53.389600  121.116000
  H    -69.135100   53.969900  121.814000
  H    -67.454900   53.666600  121.345000
  H    -68.782300   53.599900  120.129000
  S    -72.765300   46.501000  123.310000
  C    -74.512200   46.494600  123.445000
  C    -75.013200   47.731900  123.740000
  C    -74.017700   48.750600  123.822000
  C    -72.758200   48.213200  123.728000
  H    -76.048800   47.842100  123.925000
  C    -74.376000   50.100200  124.305000
  H    -73.494300   50.676300  124.562000
  H    -74.762700   49.859100  125.316000
  C    -75.393700   50.954300  123.465000
  H    -75.867200   51.764600  124.102000
  H    -76.327800   50.314700  123.269000
  C    -75.096000   51.210000  122.012000
  H    -74.020900   51.443900  121.950000
  H    -75.776500   51.951200  121.702000
  H    -75.159000   50.359200  121.409000
  H    -67.911100   49.265800  124.202000
  H    -75.049600   45.572200  123.623000

 Total Charge           Charge          ....    0
 Multiplicity           Mult            ....    1
 Number of Electrons    NEL             ....  134
 Basis Dimension        Dim             ....  322

ORBITAL ENERGIES
----------------

  NO   OCC          E(Eh)            E(eV)
   0   2.0000     -88.968635     -2420.9596
   1   2.0000     -88.961651     -2420.7696
   2   2.0000     -10.331089      -281.1232
   3   2.0000     -10.326578      -281.0005
   4   2.0000     -10.318343      -280.7764
   5   2.0000     -10.314226      -280.6644
   6   2.0000     -10.313458      -280.6435
   7   2.0000     -10.302776      -280.3528
   8   2.0000     -10.298941      -280.2484
   9   2.0000     -10.295860      -280.1646
  10   2.0000     -10.294211      -280.1197
  11   2.0000     -10.290819      -280.0274
  12   2.0000     -10.289155      -279.9821
  13   2.0000     -10.285156      -279.8733
  14   2.0000     -10.275754      -279.6175
  15   2.0000     -10.273420      -279.5540
  16   2.0000      -8.082451      -219.9347
  17   2.0000      -8.076728      -219.7789
  18   2.0000      -6.041034      -164.3849
  19   2.0000      -6.037051      -164.2765
  20   2.0000      -6.035264      -164.2279
  21   2.0000      -6.033229      -164.1725
  22   2.0000      -6.031331      -164.1209
  23   2.0000      -6.027306      -164.0113
  24   2.0000      -1.005925       -27.3726
  25   2.0000      -0.976733       -26.5783
  26   2.0000      -0.912258       -24.8238
  27   2.0000      -0.908877       -24.7318
  28   2.0000      -0.870205       -23.6795
  29   2.0000      -0.860347       -23.4112
  30   2.0000      -0.844304       -22.9747
  31   2.0000      -0.815141       -22.1811
  32   2.0000      -0.785468       -21.3737
  33   2.0000      -0.770494       -20.9662
  34   2.0000      -0.705358       -19.1938
  35   2.0000      -0.696338       -18.9483
  36   2.0000      -0.692921       -18.8553
  37   2.0000      -0.665547       -18.1105
  38   2.0000      -0.647669       -17.6240
  39   2.0000      -0.618199       -16.8221
  40   2.0000      -0.596441       -16.2300
  41   2.0000      -0.575437       -15.6584
  42   2.0000      -0.565070       -15.3763
  43   2.0000      -0.560462       -15.2510
  44   2.0000      -0.539635       -14.6842
  45   2.0000      -0.527543       -14.3552
  46   2.0000      -0.516847       -14.0641
  47   2.0000      -0.513121       -13.9627
  48   2.0000      -0.505818       -13.7640
  49   2.0000      -0.504941       -13.7402
  50   2.0000      -0.495617       -13.4864
  51   2.0000      -0.485329       -13.2065
  52   2.0000      -0.469288       -12.7700
  53   2.0000      -0.466496       -12.6940
  54   2.0000      -0.454572       -12.3695
  55   2.0000      -0.453049       -12.3281
  56   2.0000      -0.446919       -12.1613
  57   2.0000      -0.443072       -12.0566
  58   2.0000      -0.432408       -11.7664
  59   2.0000      -0.429976       -11.7003
  60   2.0000      -0.419538       -11.4162
  61   2.0000      -0.411332       -11.1929
  62   2.0000      -0.392083       -10.6691
  63   2.0000      -0.354345        -9.6422
  64   2.0000      -0.332209        -9.0399
  65   2.0000      -0.326701        -8.8900
  66   2.0000      -0.285616        -7.7720
  67   0.0000       0.023272         0.6333
  68   0.0000       0.074325         2.0225
  69   0.0000       0.103385         2.8132
  70   0.0000       0.112981         3.0744
  71   0.0000       0.125972         3.4279

MULLIKEN ATOMIC CHARGES
-----------------------
   0 S :    0.107969
   1 C :   -0.098919
   2 C :   -0.102316
   3 C :    0.042105
   4 C :   -0.130165
   5 H :   -0.022402
   6 C :    0.094251
   7 H :    0.007439
   8 H :    0.023455
   9 C :   -0.090182
  10 H :    0.031380
  11 H :    0.044154
  12 C :   -0.027798
  13 H :    0.017213
  14 H :    0.032603
  15 H :    0.030745
  16 S :    0.082355
  17 C :   -0.079815
  18 C :   -0.030592
  19 C :   -0.032796
  20 C :   -0.137146
  21 H :    0.010739
  22 C :    0.030381
  23 H :    0.023814
  24 H :    0.043456
  25 C :   -0.133945
  26 H :    0.046849
  27 H :    0.023519
  28 C :    0.013661
  29 H :    0.019512
  30 H :    0.037389
  31 H :    0.030006
  32 H :    0.030627
  33 H :    0.062455
Sum of atomic charges:    0.0000000

LOEWDIN ATOMIC CHARGES
----------------------
   0 S :    0.391729
   1 C :   -0.193817
   2 C :   -0.047106
   3 C :   -0.062881
   4 C :   -0.184320
   5 H :    0.021098
   6 C :   -0.021483
   7 H :    0.023622
   8 H :    0.023140
   9 C :   -0.037453
  10 H :    0.022942
  11 H :    0.029702
  12 C :   -0.061281
  13 H :    0.021835
  14 H :    0.030052
  15 H :    0.016405
  16 S :    0.389468
  17 C :   -0.181582
  18 C :   -0.060262
  19 C :   -0.066552
  20 C :   -0.181387
  21 H :    0.027004
  22 C :   -0.039991
  23 H :    0.027438
  24 H :    0.045553
  25 C :   -0.056034
  26 H :    0.033628
  27 H :    0.029984
  28 C :   -0.055999
  29 H :    0.022211
  30 H :    0.028759
  31 H :    0.022263
  32 H :    0.014511
  33 H :    0.028806

  Mayer bond orders larger than 0.100000
B(  0-S ,  1-C ) :   1.1410 B(  0-S ,  4-C ) :   1.1381 B(  1-C ,  2-C ) :   1.5897
B(  1-C ,  4-C ) :   0.1005 B(  1-C , 32-H ) :   0.9806 B(  2-C ,  3-C ) :   1.2247
B(  2-C ,  6-C ) :   1.0224 B(  3-C ,  4-C ) :   1.5870 B(  3-C ,  5-H ) :   0.9958
B(  4-C , 20-C ) :   1.0426 B(  6-C ,  7-H ) :   0.9387 B(  6-C ,  8-H ) :   0.9451
B(  6-C ,  9-C ) :   1.0732 B(  9-C , 10-H ) :   0.9596 B(  9-C , 11-H ) :   0.9633
B(  9-C , 12-C ) :   1.0714 B( 12-C , 13-H ) :   0.9783 B( 12-C , 14-H ) :   0.9768
B( 12-C , 15-H ) :   0.9779 B( 16-S , 17-C ) :   1.1368 B( 16-S , 20-C ) :   1.1348
B( 17-C , 18-C ) :   1.6452 B( 17-C , 33-H ) :   0.9619 B( 18-C , 19-C ) :   1.2014
B( 18-C , 21-H ) :   0.9941 B( 19-C , 20-C ) :   1.6099 B( 19-C , 22-C ) :   1.0391
B( 22-C , 23-H ) :   0.9436 B( 22-C , 24-H ) :   0.9348 B( 22-C , 25-C ) :   1.0592
B( 25-C , 26-H ) :   0.9606 B( 25-C , 27-H ) :   0.9569 B( 25-C , 28-C ) :   1.0551
B( 28-C , 29-H ) :   0.9735 B( 28-C , 30-H ) :   0.9693 B( 28-C , 31-H ) :   0.9713

Dispersion correction           -0.014050566
FINAL SINGLE POINT ENERGY     -1339.852455631351

DIPOLE MOMENT
-------------
                                X             Y             Z
Electronic contribution:      2.94941     -28.32884       9.46480
Nuclear contribution   :     -3.24602      28.94508      -9.38854
                        -----------------------------------------
Total Dipole Moment    :     -0.29661       0.61624       0.07626
                        -----------------------------------------
Magnitude (a.u.)       :      0.68815
Magnitude (Debye)      :      1.74914

Rotational constants in cm-1:     0.017857     0.008829     0.006436
Rotational constants in MHz :   535.335507   264.679465   192.942754

                             ****ORCA TERMINATED NORMALLY****
TOTAL RUN TIME: 0 days 0 hours 0 minutes 32 seconds 206 msec
