                         Program Version 4.2.1 -  RELEASE  -
|  1> ! wB97X-D3 SP def2-SVP
|  2> %pal
|  3> nprocs 16
|  4> end
|  5>
|  6> * xyz 0 1
|  7> S 	 54.7519 	 -3.98575 	 89.3299
|  8> C 	 55.4254 	 -2.7742 	 90.4439
|  9> C 	 56.118 	 -1.83553 	 89.7274
| 10> C 	 56.2215 	 -2.12452 	 88.3308
| 11> C 	 55.5618 	 -3.24592 	 87.9402
| 12> H 	 56.6497 	 -1.44153 	 87.541
| 13> C 	 56.8229 	 -0.764478 	 90.4343
| 14> H 	 56.1229 	 -0.406662 	 91.1819
| 15> H 	 57.0176 	 -0.0582805 	 89.67
| 16> C 	 58.1825 	 -1.09852 	 91.0868
| 17> H 	 58.2815 	 -0.442471 	 91.933
| 18> H 	 58.2323 	 -2.08199 	 91.6248
| 19> C 	 59.3843 	 -0.902971 	 90.1359
| 20> H 	 59.3608 	 0.072587 	 89.6664
| 21> H 	 60.1986 	 -1.09919 	 90.7812
| 22> H 	 59.4123 	 -1.5527 	 89.2971
| 23> S 	 53.5966 	 -3.59338 	 85.9736
| 24> C 	 54.1187 	 -4.43454 	 84.4792
| 25> C 	 55.4709 	 -4.41974 	 84.3979
| 26> C 	 56.1833 	 -4.01763 	 85.5443
| 27> C 	 55.2876 	 -3.63215 	 86.5687
| 28> H 	 55.9439 	 -4.76401 	 83.5044
| 29> C 	 57.7199 	 -3.88784 	 85.5704
| 30> H 	 57.965 	 -3.36217 	 86.471
| 31> H 	 57.9966 	 -3.21702 	 84.7659
| 32> C 	 58.4922 	 -5.18994 	 85.4462
| 33> H 	 58.1531 	 -5.70909 	 84.5818
| 34> H 	 58.2116 	 -5.82231 	 86.2902
| 35> C 	 60.0594 	 -5.14199 	 85.4768
| 36> H 	 60.4477 	 -4.80224 	 86.4594
| 37> H 	 60.4507 	 -4.50536 	 84.6694
| 38> H 	 60.3806 	 -6.15886 	 85.2028
| 39> H 	 55.3745 	 -2.84638 	 91.5773
| 40> H 	 53.4986 	 -4.84167 	 83.6815
| 41> *
| 42>
| 43>                          ****END OF INPUT****

CARTESIAN COORDINATES (ANGSTROEM)
---------------------------------
  S     54.751900   -3.985750   89.329900
  C     55.425400   -2.774200   90.443900
  C     56.118000   -1.835530   89.727400
  C     56.221500   -2.124520   88.330800
  C     55.561800   -3.245920   87.940200
  H     56.649700   -1.441530   87.541000
  C     56.822900   -0.764478   90.434300
  H     56.122900   -0.406662   91.181900
  H     57.017600   -0.058280   89.670000
  C     58.182500   -1.098520   91.086800
  H     58.281500   -0.442471   91.933000
  H     58.232300   -2.081990   91.624800
  C     59.384300   -0.902971   90.135900
  H     59.360800    0.072587   89.666400
  H     60.198600   -1.099190   90.781200
  H     59.412300   -1.552700   89.297100
  S     53.596600   -3.593380   85.973600
  C     54.118700   -4.434540   84.479200
  C     55.470900   -4.419740   84.397900
  C     56.183300   -4.017630   85.544300
  C     55.287600   -3.632150   86.568700
  H     55.943900   -4.764010   83.504400
  C     57.719900   -3.887840   85.570400
  H     57.965000   -3.362170   86.471000
  H     57.996600   -3.217020   84.765900
  C     58.492200   -5.189940   85.446200
  H     58.153100   -5.709090   84.581800
  H     58.211600   -5.822310   86.290200
  C     60.059400   -5.141990   85.476800
  H     60.447700   -4.802240   86.459400
  H     60.450700   -4.505360   84.669400
  H     60.380600   -6.158860   85.202800
  H     55.374500   -2.846380   91.577300
  H     53.498600   -4.841670   83.681500

 Total Charge           Charge          ....    0
 Multiplicity           Mult            ....    1
 Number of Electrons    NEL             ....  134
 Basis Dimension        Dim             ....  322

ORBITAL ENERGIES
----------------

  NO   OCC          E(Eh)            E(eV)
   0   2.0000     -88.965783     -2420.8820
   1   2.0000     -88.963186     -2420.8114
   2   2.0000     -10.330679      -281.1121
   3   2.0000     -10.327516      -281.0260
   4   2.0000     -10.318139      -280.7708
   5   2.0000     -10.316663      -280.7307
   6   2.0000     -10.304789      -280.4076
   7   2.0000     -10.297300      -280.2038
   8   2.0000     -10.294648      -280.1316
   9   2.0000     -10.289885      -280.0020
  10   2.0000     -10.288976      -279.9773
  11   2.0000     -10.286388      -279.9068
  12   2.0000     -10.285303      -279.8773
  13   2.0000     -10.282633      -279.8047
  14   2.0000     -10.282535      -279.8020
  15   2.0000     -10.273335      -279.5517
  16   2.0000      -8.079109      -219.8437
  17   2.0000      -8.077279      -219.7939
  18   2.0000      -6.037786      -164.2965
  19   2.0000      -6.035907      -164.2454
  20   2.0000      -6.033990      -164.1932
  21   2.0000      -6.031831      -164.1345
  22   2.0000      -6.029591      -164.0735
  23   2.0000      -6.027976      -164.0296
  24   2.0000      -1.002648       -27.2834
  25   2.0000      -0.980241       -26.6737
  26   2.0000      -0.915327       -24.9073
  27   2.0000      -0.904205       -24.6047
  28   2.0000      -0.870009       -23.6741
  29   2.0000      -0.847633       -23.0653
  30   2.0000      -0.843557       -22.9544
  31   2.0000      -0.817407       -22.2428
  32   2.0000      -0.784086       -21.3361
  33   2.0000      -0.770110       -20.9558
  34   2.0000      -0.709698       -19.3119
  35   2.0000      -0.705347       -19.1935
  36   2.0000      -0.696581       -18.9549
  37   2.0000      -0.654961       -17.8224
  38   2.0000      -0.636194       -17.3117
  39   2.0000      -0.612597       -16.6696
  40   2.0000      -0.593141       -16.1402
  41   2.0000      -0.572009       -15.5652
  42   2.0000      -0.564535       -15.3618
  43   2.0000      -0.556128       -15.1330
  44   2.0000      -0.535224       -14.5642
  45   2.0000      -0.523868       -14.2552
  46   2.0000      -0.522119       -14.2076
  47   2.0000      -0.511068       -13.9069
  48   2.0000      -0.502566       -13.6755
  49   2.0000      -0.501826       -13.6554
  50   2.0000      -0.485557       -13.2127
  51   2.0000      -0.481819       -13.1110
  52   2.0000      -0.476242       -12.9592
  53   2.0000      -0.464446       -12.6382
  54   2.0000      -0.459184       -12.4950
  55   2.0000      -0.445442       -12.1211
  56   2.0000      -0.442848       -12.0505
  57   2.0000      -0.436052       -11.8656
  58   2.0000      -0.430664       -11.7190
  59   2.0000      -0.428268       -11.6538
  60   2.0000      -0.422650       -11.5009
  61   2.0000      -0.416545       -11.3348
  62   2.0000      -0.409074       -11.1315
  63   2.0000      -0.343995        -9.3606
  64   2.0000      -0.331020        -9.0075
  65   2.0000      -0.324331        -8.8255
  66   2.0000      -0.294749        -8.0205
  67   0.0000       0.027992         0.7617
  68   0.0000       0.062145         1.6911
  69   0.0000       0.105548         2.8721
  70   0.0000       0.120230         3.2716
  71   0.0000       0.128708         3.5023

MULLIKEN ATOMIC CHARGES
-----------------------
   0 S :    0.101883
   1 C :   -0.152279
   2 C :   -0.092956
   3 C :    0.023807
   4 C :   -0.159516
   5 H :    0.040727
   6 C :    0.086533
   7 H :    0.029581
   8 H :    0.001704
   9 C :   -0.073592
  10 H :    0.018629
  11 H :    0.027389
  12 C :   -0.017437
  13 H :    0.026608
  14 H :    0.031732
  15 H :    0.024842
  16 S :    0.104780
  17 C :   -0.096482
  18 C :   -0.023356
  19 C :   -0.025923
  20 C :   -0.187583
  21 H :    0.006802
  22 C :    0.121693
  23 H :    0.001526
  24 H :    0.025819
  25 C :   -0.095168
  26 H :    0.017076
  27 H :    0.032605
  28 C :   -0.047745
  29 H :    0.046577
  30 H :    0.028162
  31 H :    0.037769
  32 H :    0.076506
  33 H :    0.059289
Sum of atomic charges:    0.0000000

LOEWDIN ATOMIC CHARGES
----------------------
   0 S :    0.385278
   1 C :   -0.192330
   2 C :   -0.072487
   3 C :   -0.069155
   4 C :   -0.192259
   5 H :    0.043013
   6 C :   -0.033352
   7 H :    0.034626
   8 H :    0.024732
   9 C :   -0.037375
  10 H :    0.021122
  11 H :    0.027406
  12 C :   -0.056623
  13 H :    0.024874
  14 H :    0.025734
  15 H :    0.019472
  16 S :    0.371322
  17 C :   -0.173570
  18 C :   -0.071629
  19 C :   -0.049699
  20 C :   -0.183737
  21 H :    0.026626
  22 C :   -0.027230
  23 H :    0.023535
  24 H :    0.031026
  25 C :   -0.042154
  26 H :    0.016336
  27 H :    0.028625
  28 C :   -0.064994
  29 H :    0.028946
  30 H :    0.022694
  31 H :    0.031079
  32 H :    0.045168
  33 H :    0.034976

  Mayer bond orders larger than 0.100000
B(  0-S ,  1-C ) :   1.1267 B(  0-S ,  4-C ) :   1.1424 B(  1-C ,  2-C ) :   1.6096
B(  1-C , 32-H ) :   0.9627 B(  2-C ,  3-C ) :   1.2375 B(  2-C ,  6-C ) :   1.0416
B(  3-C ,  4-C ) :   1.5874 B(  3-C ,  5-H ) :   0.9754 B(  4-C , 20-C ) :   1.0440
B(  6-C ,  7-H ) :   0.9341 B(  6-C ,  8-H ) :   0.9335 B(  6-C ,  9-C ) :   1.0641
B(  9-C , 10-H ) :   0.9544 B(  9-C , 11-H ) :   0.9565 B(  9-C , 12-C ) :   1.0769
B( 12-C , 13-H ) :   0.9737 B( 12-C , 14-H ) :   0.9732 B( 12-C , 15-H ) :   0.9782
B( 16-S , 17-C ) :   1.1227 B( 16-S , 20-C ) :   1.1402 B( 17-C , 18-C ) :   1.6378
B( 17-C , 20-C ) :   0.1012 B( 17-C , 33-H ) :   0.9656 B( 18-C , 19-C ) :   1.2385
B( 18-C , 21-H ) :   0.9858 B( 19-C , 20-C ) :   1.5891 B( 19-C , 22-C ) :   1.0376
B( 22-C , 23-H ) :   0.9244 B( 22-C , 24-H ) :   0.9347 B( 22-C , 25-C ) :   1.0626
B( 25-C , 26-H ) :   0.9598 B( 25-C , 27-H ) :   0.9532 B( 25-C , 28-C ) :   1.0834
B( 28-C , 29-H ) :   0.9763 B( 28-C , 30-H ) :   0.9752 B( 28-C , 31-H ) :   0.9745

Dispersion correction           -0.013955553
FINAL SINGLE POINT ENERGY     -1339.872563275349

DIPOLE MOMENT
-------------
                                X             Y             Z
Electronic contribution:    -29.46834      -5.21842      -2.30228
Nuclear contribution   :     30.12770       5.47082       2.26077
                        -----------------------------------------
Total Dipole Moment    :      0.65936       0.25240      -0.04151
                        -----------------------------------------
Magnitude (a.u.)       :      0.70723
Magnitude (Debye)      :      1.79765

Rotational constants in cm-1:     0.016329     0.009354     0.006663
Rotational constants in MHz :   489.525678   280.435955   199.751646

                             ****ORCA TERMINATED NORMALLY****
TOTAL RUN TIME: 0 days 0 hours 0 minutes 28 seconds 356 msec
