                         Program Version 4.2.1 -  RELEASE  -
|  1> ! wB97X-D3 SP def2-SVP
|  2> %pal
|  3> nprocs 16
|  4> end
|  5>
|  6> * xyz 0 1
|  7> S 	 50.0311 	 25.9147 	 42.1203
|  8> C 	 51.6206 	 25.2284 	 41.8524
|  9> C 	 52.4294 	 25.5789 	 42.8649
| 10> C 	 51.8127 	 26.4927 	 43.7324
| 11> C 	 50.5067 	 26.936 	 43.4396
| 12> H 	 52.3401 	 27.01 	 44.4943
| 13> C 	 53.8326 	 25.0208 	 43.135
| 14> H 	 54.0896 	 24.2731 	 42.3365
| 15> H 	 53.603 	 24.4042 	 44.0214
| 16> C 	 54.9354 	 26.0419 	 43.458
| 17> H 	 54.8721 	 26.9383 	 42.832
| 18> H 	 54.786 	 26.5803 	 44.4207
| 19> C 	 56.3205 	 25.4366 	 43.234
| 20> H 	 57.0012 	 26.3174 	 43.4018
| 21> H 	 56.5574 	 24.5701 	 43.8721
| 22> H 	 56.4848 	 25.0078 	 42.1896
| 23> S 	 49.5931 	 29.4901 	 43.2798
| 24> C 	 48.6486 	 30.0915 	 44.5568
| 25> C 	 48.6515 	 29.2787 	 45.6378
| 26> C 	 49.249 	 27.9921 	 45.356
| 27> C 	 49.7805 	 27.9865 	 44.0904
| 28> H 	 48.1878 	 29.6779 	 46.4904
| 29> C 	 49.352 	 26.9007 	 46.3682
| 30> H 	 49.4142 	 25.9903 	 45.7934
| 31> H 	 48.358 	 26.8536 	 46.8102
| 32> C 	 50.5561 	 27.2543 	 47.29
| 33> H 	 50.532 	 28.3071 	 47.5811
| 34> H 	 51.5118 	 27.1807 	 46.7797
| 35> C 	 50.5658 	 26.4371 	 48.6299
| 36> H 	 50.2687 	 25.4191 	 48.5126
| 37> H 	 49.8116 	 26.8739 	 49.2547
| 38> H 	 51.5288 	 26.5562 	 49.1778
| 39> H 	 51.9155 	 24.5069 	 41.1474
| 40> H 	 48.1205 	 31.0733 	 44.5971
| 41> *
| 42>
| 43>                          ****END OF INPUT****

CARTESIAN COORDINATES (ANGSTROEM)
---------------------------------
  S     50.031100   25.914700   42.120300
  C     51.620600   25.228400   41.852400
  C     52.429400   25.578900   42.864900
  C     51.812700   26.492700   43.732400
  C     50.506700   26.936000   43.439600
  H     52.340100   27.010000   44.494300
  C     53.832600   25.020800   43.135000
  H     54.089600   24.273100   42.336500
  H     53.603000   24.404200   44.021400
  C     54.935400   26.041900   43.458000
  H     54.872100   26.938300   42.832000
  H     54.786000   26.580300   44.420700
  C     56.320500   25.436600   43.234000
  H     57.001200   26.317400   43.401800
  H     56.557400   24.570100   43.872100
  H     56.484800   25.007800   42.189600
  S     49.593100   29.490100   43.279800
  C     48.648600   30.091500   44.556800
  C     48.651500   29.278700   45.637800
  C     49.249000   27.992100   45.356000
  C     49.780500   27.986500   44.090400
  H     48.187800   29.677900   46.490400
  C     49.352000   26.900700   46.368200
  H     49.414200   25.990300   45.793400
  H     48.358000   26.853600   46.810200
  C     50.556100   27.254300   47.290000
  H     50.532000   28.307100   47.581100
  H     51.511800   27.180700   46.779700
  C     50.565800   26.437100   48.629900
  H     50.268700   25.419100   48.512600
  H     49.811600   26.873900   49.254700
  H     51.528800   26.556200   49.177800
  H     51.915500   24.506900   41.147400
  H     48.120500   31.073300   44.597100

 Total Charge           Charge          ....    0
 Multiplicity           Mult            ....    1
 Number of Electrons    NEL             ....  134
 Basis Dimension        Dim             ....  322

ORBITAL ENERGIES
----------------

  NO   OCC          E(Eh)            E(eV)
   0   2.0000     -88.962446     -2420.7912
   1   2.0000     -88.960950     -2420.7505
   2   2.0000     -10.326000      -280.9847
   3   2.0000     -10.317532      -280.7543
   4   2.0000     -10.311182      -280.5815
   5   2.0000     -10.305124      -280.4167
   6   2.0000     -10.300715      -280.2967
   7   2.0000     -10.299243      -280.2567
   8   2.0000     -10.292647      -280.0772
   9   2.0000     -10.291967      -280.0587
  10   2.0000     -10.291961      -280.0585
  11   2.0000     -10.290289      -280.0130
  12   2.0000     -10.290192      -280.0104
  13   2.0000     -10.285757      -279.8897
  14   2.0000     -10.284824      -279.8643
  15   2.0000     -10.276575      -279.6398
  16   2.0000      -8.078933      -219.8390
  17   2.0000      -8.075707      -219.7512
  18   2.0000      -6.037341      -164.2844
  19   2.0000      -6.034186      -164.1986
  20   2.0000      -6.033271      -164.1736
  21   2.0000      -6.030096      -164.0873
  22   2.0000      -6.029608      -164.0740
  23   2.0000      -6.026571      -163.9913
  24   2.0000      -1.014607       -27.6089
  25   2.0000      -0.992700       -27.0127
  26   2.0000      -0.910801       -24.7842
  27   2.0000      -0.909262       -24.7423
  28   2.0000      -0.876188       -23.8423
  29   2.0000      -0.849279       -23.1100
  30   2.0000      -0.844068       -22.9683
  31   2.0000      -0.816489       -22.2178
  32   2.0000      -0.781572       -21.2677
  33   2.0000      -0.771566       -20.9954
  34   2.0000      -0.713790       -19.4232
  35   2.0000      -0.706175       -19.2160
  36   2.0000      -0.696713       -18.9585
  37   2.0000      -0.659616       -17.9491
  38   2.0000      -0.640076       -17.4174
  39   2.0000      -0.620114       -16.8742
  40   2.0000      -0.592437       -16.1210
  41   2.0000      -0.574994       -15.6464
  42   2.0000      -0.556175       -15.1343
  43   2.0000      -0.553292       -15.0558
  44   2.0000      -0.535852       -14.5813
  45   2.0000      -0.530743       -14.4423
  46   2.0000      -0.516256       -14.0480
  47   2.0000      -0.512797       -13.9539
  48   2.0000      -0.503609       -13.7039
  49   2.0000      -0.501049       -13.6342
  50   2.0000      -0.496178       -13.5017
  51   2.0000      -0.477189       -12.9850
  52   2.0000      -0.476054       -12.9541
  53   2.0000      -0.461839       -12.5673
  54   2.0000      -0.455908       -12.4059
  55   2.0000      -0.453616       -12.3435
  56   2.0000      -0.450262       -12.2523
  57   2.0000      -0.446055       -12.1378
  58   2.0000      -0.432372       -11.7654
  59   2.0000      -0.420813       -11.4509
  60   2.0000      -0.419996       -11.4287
  61   2.0000      -0.416157       -11.3242
  62   2.0000      -0.401955       -10.9377
  63   2.0000      -0.333229        -9.0676
  64   2.0000      -0.328221        -8.9314
  65   2.0000      -0.322611        -8.7787
  66   2.0000      -0.307965        -8.3802
  67   0.0000       0.040295         1.0965
  68   0.0000       0.070016         1.9052
  69   0.0000       0.122516         3.3338
  70   0.0000       0.123354         3.3566
  71   0.0000       0.139157         3.7866

MULLIKEN ATOMIC CHARGES
-----------------------
   0 S :    0.107865
   1 C :   -0.109068
   2 C :   -0.076440
   3 C :    0.034992
   4 C :   -0.176368
   5 H :   -0.008295
   6 C :    0.065690
   7 H :    0.021992
   8 H :    0.047403
   9 C :   -0.085817
  10 H :    0.031016
  11 H :    0.037650
  12 C :   -0.078081
  13 H :    0.046425
  14 H :    0.038818
  15 H :    0.043775
  16 S :    0.134843
  17 C :   -0.102628
  18 C :   -0.033623
  19 C :   -0.057299
  20 C :   -0.191601
  21 H :   -0.004566
  22 C :    0.135523
  23 H :    0.027997
  24 H :    0.023874
  25 C :   -0.079522
  26 H :    0.028955
  27 H :    0.024409
  28 C :   -0.027666
  29 H :    0.030342
  30 H :    0.020889
  31 H :    0.040533
  32 H :    0.022674
  33 H :    0.065310
Sum of atomic charges:   -0.0000000

LOEWDIN ATOMIC CHARGES
----------------------
   0 S :    0.409832
   1 C :   -0.189322
   2 C :   -0.073567
   3 C :   -0.062537
   4 C :   -0.206220
   5 H :    0.016013
   6 C :   -0.032952
   7 H :    0.032388
   8 H :    0.041087
   9 C :   -0.054698
  10 H :    0.027321
  11 H :    0.029971
  12 C :   -0.072668
  13 H :    0.034617
  14 H :    0.024459
  15 H :    0.032606
  16 S :    0.438190
  17 C :   -0.201448
  18 C :   -0.075427
  19 C :   -0.042342
  20 C :   -0.223115
  21 H :    0.023610
  22 C :   -0.027744
  23 H :    0.032242
  24 H :    0.033439
  25 C :   -0.031650
  26 H :    0.026581
  27 H :    0.022608
  28 C :   -0.066118
  29 H :    0.020399
  30 H :    0.021471
  31 H :    0.031038
  32 H :    0.022003
  33 H :    0.039931

  Mayer bond orders larger than 0.100000
B(  0-S ,  1-C ) :   1.1419 B(  0-S ,  4-C ) :   1.1511 B(  1-C ,  2-C ) :   1.6046
B(  1-C ,  4-C ) :   0.1012 B(  1-C , 32-H ) :   0.9712 B(  2-C ,  3-C ) :   1.2716
B(  2-C ,  6-C ) :   1.0070 B(  3-C ,  4-C ) :   1.5491 B(  3-C ,  5-H ) :   0.9933
B(  4-C , 20-C ) :   1.0489 B(  6-C ,  7-H ) :   0.9494 B(  6-C ,  8-H ) :   0.9332
B(  6-C ,  9-C ) :   1.0452 B(  9-C , 10-H ) :   0.9627 B(  9-C , 11-H ) :   0.9462
B(  9-C , 12-C ) :   1.0801 B( 12-C , 13-H ) :   0.9743 B( 12-C , 14-H ) :   0.9752
B( 12-C , 15-H ) :   0.9745 B( 16-S , 17-C ) :   1.1603 B( 16-S , 20-C ) :   1.1474
B( 17-C , 18-C ) :   1.6424 B( 17-C , 33-H ) :   0.9584 B( 18-C , 19-C ) :   1.2016
B( 18-C , 21-H ) :   0.9996 B( 19-C , 20-C ) :   1.6114 B( 19-C , 22-C ) :   1.0459
B( 22-C , 23-H ) :   0.9147 B( 22-C , 24-H ) :   0.9355 B( 22-C , 25-C ) :   1.0438
B( 25-C , 26-H ) :   0.9639 B( 25-C , 27-H ) :   0.9542 B( 25-C , 28-C ) :   1.0703
B( 28-C , 29-H ) :   0.9757 B( 28-C , 30-H ) :   0.9787 B( 28-C , 31-H ) :   0.9751

Dispersion correction           -0.014278509
FINAL SINGLE POINT ENERGY     -1339.867868581171

DIPOLE MOMENT
-------------
                                X             Y             Z
Electronic contribution:    -19.98970       9.31789     -17.81684
Nuclear contribution   :     20.36043      -9.36256      18.40519
                        -----------------------------------------
Total Dipole Moment    :      0.37073      -0.04467       0.58835
                        -----------------------------------------
Magnitude (a.u.)       :      0.69685
Magnitude (Debye)      :      1.77124

Rotational constants in cm-1:     0.016927     0.008650     0.007017
Rotational constants in MHz :   507.450209   259.329739   210.352648

                             ****ORCA TERMINATED NORMALLY****
TOTAL RUN TIME: 0 days 0 hours 0 minutes 34 seconds 262 msec
