                         Program Version 4.2.1 -  RELEASE  -
|  1> ! wB97X-D3 SP def2-SVP
|  2> %pal
|  3> nprocs 16
|  4> end
|  5>
|  6> * xyz 0 1
|  7> S 	 -95.2065 	 43.4177 	 124.812
|  8> C 	 -93.9859 	 42.1601 	 124.616
|  9> C 	 -94.3467 	 40.9033 	 125.072
| 10> C 	 -95.7272 	 40.9296 	 125.276
| 11> C 	 -96.3513 	 42.1565 	 125.429
| 12> H 	 -96.3001 	 40.0563 	 125.494
| 13> C 	 -93.648 	 39.6305 	 124.967
| 14> H 	 -94.1037 	 38.9082 	 124.191
| 15> H 	 -93.5235 	 39.1002 	 125.955
| 16> C 	 -92.1876 	 39.7207 	 124.587
| 17> H 	 -92.0134 	 40.1337 	 123.646
| 18> H 	 -91.6425 	 40.2691 	 125.374
| 19> C 	 -91.6892 	 38.2261 	 124.505
| 20> H 	 -90.6255 	 38.2142 	 124.187
| 21> H 	 -91.7052 	 37.6224 	 125.449
| 22> H 	 -92.2809 	 37.6143 	 123.813
| 23> S 	 -98.3273 	 41.8413 	 127.381
| 24> C 	 -99.9804 	 42.0821 	 126.904
| 25> C 	 -100.032 	 42.5447 	 125.616
| 26> C 	 -98.7545 	 42.7486 	 124.958
| 27> C 	 -97.7351 	 42.323 	 125.733
| 28> H 	 -100.965 	 42.858 	 125.244
| 29> C 	 -98.6589 	 43.1859 	 123.522
| 30> H 	 -97.6907 	 43.6031 	 123.192
| 31> H 	 -99.3654 	 43.9886 	 123.294
| 32> C 	 -99.1355 	 42.1232 	 122.477
| 33> H 	 -100.148 	 41.71 	 122.762
| 34> H 	 -98.4653 	 41.2422 	 122.532
| 35> C 	 -99.1253 	 42.6761 	 121.061
| 36> H 	 -98.1728 	 43.1471 	 120.927
| 37> H 	 -99.9492 	 43.3126 	 120.771
| 38> H 	 -99.24 	 41.9642 	 120.248
| 39> H 	 -92.9284 	 42.4077 	 124.355
| 40> H 	 -100.835 	 41.9438 	 127.547
| 41> *
| 42>
| 43>                          ****END OF INPUT****

CARTESIAN COORDINATES (ANGSTROEM)
---------------------------------
  S    -95.206500   43.417700  124.812000
  C    -93.985900   42.160100  124.616000
  C    -94.346700   40.903300  125.072000
  C    -95.727200   40.929600  125.276000
  C    -96.351300   42.156500  125.429000
  H    -96.300100   40.056300  125.494000
  C    -93.648000   39.630500  124.967000
  H    -94.103700   38.908200  124.191000
  H    -93.523500   39.100200  125.955000
  C    -92.187600   39.720700  124.587000
  H    -92.013400   40.133700  123.646000
  H    -91.642500   40.269100  125.374000
  C    -91.689200   38.226100  124.505000
  H    -90.625500   38.214200  124.187000
  H    -91.705200   37.622400  125.449000
  H    -92.280900   37.614300  123.813000
  S    -98.327300   41.841300  127.381000
  C    -99.980400   42.082100  126.904000
  C    -100.032000   42.544700  125.616000
  C    -98.754500   42.748600  124.958000
  C    -97.735100   42.323000  125.733000
  H    -100.965000   42.858000  125.244000
  C    -98.658900   43.185900  123.522000
  H    -97.690700   43.603100  123.192000
  H    -99.365400   43.988600  123.294000
  C    -99.135500   42.123200  122.477000
  H    -100.148000   41.710000  122.762000
  H    -98.465300   41.242200  122.532000
  C    -99.125300   42.676100  121.061000
  H    -98.172800   43.147100  120.927000
  H    -99.949200   43.312600  120.771000
  H    -99.240000   41.964200  120.248000
  H    -92.928400   42.407700  124.355000
  H    -100.835000   41.943800  127.547000

 Total Charge           Charge          ....    0
 Multiplicity           Mult            ....    1
 Number of Electrons    NEL             ....  134
 Basis Dimension        Dim             ....  322

ORBITAL ENERGIES
----------------

  NO   OCC          E(Eh)            E(eV)
   0   2.0000     -88.969562     -2420.9849
   1   2.0000     -88.961377     -2420.7621
   2   2.0000     -10.326879      -281.0087
   3   2.0000     -10.324075      -280.9324
   4   2.0000     -10.321235      -280.8551
   5   2.0000     -10.317076      -280.7419
   6   2.0000     -10.303069      -280.3608
   7   2.0000     -10.298542      -280.2376
   8   2.0000     -10.295482      -280.1543
   9   2.0000     -10.293102      -280.0896
  10   2.0000     -10.290790      -280.0266
  11   2.0000     -10.290086      -280.0075
  12   2.0000     -10.287008      -279.9237
  13   2.0000     -10.286908      -279.9210
  14   2.0000     -10.286619      -279.9131
  15   2.0000     -10.273049      -279.5439
  16   2.0000      -8.082692      -219.9412
  17   2.0000      -8.075698      -219.7509
  18   2.0000      -6.041278      -164.3915
  19   2.0000      -6.037530      -164.2895
  20   2.0000      -6.034351      -164.2030
  21   2.0000      -6.033359      -164.1760
  22   2.0000      -6.030318      -164.0933
  23   2.0000      -6.026263      -163.9829
  24   2.0000      -1.003913       -27.3179
  25   2.0000      -0.983370       -26.7589
  26   2.0000      -0.919508       -25.0211
  27   2.0000      -0.905980       -24.6530
  28   2.0000      -0.871990       -23.7281
  29   2.0000      -0.851990       -23.1838
  30   2.0000      -0.848142       -23.0791
  31   2.0000      -0.807894       -21.9839
  32   2.0000      -0.781349       -21.2616
  33   2.0000      -0.768842       -20.9213
  34   2.0000      -0.714804       -19.4508
  35   2.0000      -0.699028       -19.0215
  36   2.0000      -0.693103       -18.8603
  37   2.0000      -0.661990       -18.0137
  38   2.0000      -0.636960       -17.3326
  39   2.0000      -0.617664       -16.8075
  40   2.0000      -0.602855       -16.4045
  41   2.0000      -0.581946       -15.8356
  42   2.0000      -0.571997       -15.5648
  43   2.0000      -0.559624       -15.2281
  44   2.0000      -0.529077       -14.3969
  45   2.0000      -0.515931       -14.0392
  46   2.0000      -0.515171       -14.0185
  47   2.0000      -0.509288       -13.8584
  48   2.0000      -0.508253       -13.8303
  49   2.0000      -0.494145       -13.4464
  50   2.0000      -0.481742       -13.1089
  51   2.0000      -0.475636       -12.9427
  52   2.0000      -0.468594       -12.7511
  53   2.0000      -0.459321       -12.4988
  54   2.0000      -0.456995       -12.4355
  55   2.0000      -0.451224       -12.2784
  56   2.0000      -0.444847       -12.1049
  57   2.0000      -0.435494       -11.8504
  58   2.0000      -0.433110       -11.7855
  59   2.0000      -0.427967       -11.6456
  60   2.0000      -0.422062       -11.4849
  61   2.0000      -0.419482       -11.4147
  62   2.0000      -0.411030       -11.1847
  63   2.0000      -0.341506        -9.2929
  64   2.0000      -0.330693        -8.9986
  65   2.0000      -0.326164        -8.8754
  66   2.0000      -0.298136        -8.1127
  67   0.0000       0.032082         0.8730
  68   0.0000       0.063276         1.7218
  69   0.0000       0.103902         2.8273
  70   0.0000       0.109791         2.9876
  71   0.0000       0.126041         3.4298

MULLIKEN ATOMIC CHARGES
-----------------------
   0 S :    0.112083
   1 C :   -0.142335
   2 C :   -0.009710
   3 C :    0.022815
   4 C :   -0.151710
   5 H :    0.004470
   6 C :   -0.025042
   7 H :    0.056639
   8 H :    0.046653
   9 C :   -0.071456
  10 H :    0.023835
  11 H :    0.042610
  12 C :   -0.079827
  13 H :    0.037159
  14 H :    0.035116
  15 H :    0.029307
  16 S :    0.095745
  17 C :   -0.083088
  18 C :   -0.023460
  19 C :    0.025963
  20 C :   -0.186756
  21 H :   -0.001070
  22 C :    0.057340
  23 H :    0.022984
  24 H :    0.019753
  25 C :   -0.095362
  26 H :    0.031401
  27 H :    0.033486
  28 C :   -0.030530
  29 H :    0.028216
  30 H :    0.027338
  31 H :    0.023281
  32 H :    0.064591
  33 H :    0.059557
Sum of atomic charges:    0.0000000

LOEWDIN ATOMIC CHARGES
----------------------
   0 S :    0.379469
   1 C :   -0.186758
   2 C :   -0.078028
   3 C :   -0.040840
   4 C :   -0.184248
   5 H :    0.025664
   6 C :   -0.045379
   7 H :    0.046490
   8 H :    0.044283
   9 C :   -0.036171
  10 H :    0.013226
  11 H :    0.028657
  12 C :   -0.071475
  13 H :    0.027205
  14 H :    0.027488
  15 H :    0.023067
  16 S :    0.376889
  17 C :   -0.179296
  18 C :   -0.066390
  19 C :   -0.049518
  20 C :   -0.177729
  21 H :    0.020991
  22 C :   -0.035787
  23 H :    0.024643
  24 H :    0.032469
  25 C :   -0.039704
  26 H :    0.025013
  27 H :    0.024986
  28 C :   -0.071252
  29 H :    0.024880
  30 H :    0.024823
  31 H :    0.028163
  32 H :    0.032085
  33 H :    0.032088

  Mayer bond orders larger than 0.100000
B(  0-S ,  1-C ) :   1.1481 B(  0-S ,  4-C ) :   1.0955 B(  1-C ,  2-C ) :   1.6082
B(  1-C , 32-H ) :   0.9467 B(  2-C ,  3-C ) :   1.2390 B(  2-C ,  6-C ) :   1.0358
B(  3-C ,  4-C ) :   1.6055 B(  3-C ,  5-H ) :   0.9878 B(  4-C , 20-C ) :   1.0699
B(  6-C ,  7-H ) :   0.9427 B(  6-C ,  8-H ) :   0.9319 B(  6-C ,  9-C ) :   1.0842
B(  9-C , 10-H ) :   0.9457 B(  9-C , 11-H ) :   0.9541 B(  9-C , 12-C ) :   1.0807
B( 12-C , 13-H ) :   0.9739 B( 12-C , 14-H ) :   0.9752 B( 12-C , 15-H ) :   0.9740
B( 16-S , 17-C ) :   1.1392 B( 16-S , 20-C ) :   1.1118 B( 17-C , 18-C ) :   1.6413
B( 17-C , 33-H ) :   0.9683 B( 18-C , 19-C ) :   1.1945 B( 18-C , 21-H ) :   0.9932
B( 19-C , 20-C ) :   1.6335 B( 19-C , 22-C ) :   1.0654 B( 22-C , 23-H ) :   0.9303
B( 22-C , 24-H ) :   0.9297 B( 22-C , 25-C ) :   1.0521 B( 25-C , 26-H ) :   0.9566
B( 25-C , 27-H ) :   0.9551 B( 25-C , 28-C ) :   1.0801 B( 28-C , 29-H ) :   0.9725
B( 28-C , 30-H ) :   0.9731 B( 28-C , 31-H ) :   0.9705

Dispersion correction           -0.013749945
FINAL SINGLE POINT ENERGY     -1339.867488210575

DIPOLE MOMENT
-------------
                                X             Y             Z
Electronic contribution:     -7.61373      12.65010      18.39733
Nuclear contribution   :      7.58678     -13.01448     -18.82457
                        -----------------------------------------
Total Dipole Moment    :     -0.02695      -0.36438      -0.42723
                        -----------------------------------------
Magnitude (a.u.)       :      0.56216
Magnitude (Debye)      :      1.42890

Rotational constants in cm-1:     0.019046     0.007561     0.006452
Rotational constants in MHz :   570.995180   226.685723   193.422795

                             ****ORCA TERMINATED NORMALLY****
TOTAL RUN TIME: 0 days 0 hours 0 minutes 34 seconds 240 msec
