                         Program Version 4.2.1 -  RELEASE  -
|  1> ! wB97X-D3 SP def2-SVP
|  2> %pal
|  3> nprocs 16
|  4> end
|  5>
|  6> * xyz 0 1
|  7> S 	 -31.8773 	 59.7274 	 111.482
|  8> C 	 -30.4287 	 60.3586 	 110.696
|  9> C 	 -30.6337 	 60.9794 	 109.495
| 10> C 	 -32.0096 	 60.9288 	 109.141
| 11> C 	 -32.8104 	 60.2759 	 110.067
| 12> H 	 -32.4233 	 61.3588 	 108.169
| 13> C 	 -29.5677 	 61.641 	 108.6
| 14> H 	 -29.9413 	 62.2263 	 107.796
| 15> H 	 -28.9138 	 60.8466 	 108.141
| 16> C 	 -28.7092 	 62.5279 	 109.399
| 17> H 	 -28.4385 	 62.1079 	 110.399
| 18> H 	 -27.7598 	 62.8184 	 108.94
| 19> C 	 -29.3907 	 63.9653 	 109.617
| 20> H 	 -29.7014 	 64.4036 	 108.688
| 21> H 	 -30.2718 	 63.6864 	 110.307
| 22> H 	 -28.7454 	 64.6174 	 110.195
| 23> S 	 -34.9809 	 60.464 	 111.54
| 24> C 	 -36.5685 	 60.1083 	 110.906
| 25> C 	 -36.4904 	 60.0965 	 109.502
| 26> C 	 -35.2152 	 60.1213 	 108.905
| 27> C 	 -34.2633 	 60.1777 	 109.986
| 28> H 	 -37.3995 	 59.9752 	 108.883
| 29> C 	 -34.952 	 60.144 	 107.362
| 30> H 	 -35.2628 	 59.2261 	 106.953
| 31> H 	 -33.9196 	 60.2458 	 107.051
| 32> C 	 -35.8808 	 61.1489 	 106.65
| 33> H 	 -36.873 	 61.0634 	 107.012
| 34> H 	 -35.9062 	 60.9631 	 105.534
| 35> C 	 -35.39 	 62.5582 	 106.922
| 36> H 	 -34.3396 	 62.6603 	 106.877
| 37> H 	 -35.6904 	 62.9412 	 107.899
| 38> H 	 -35.8572 	 63.1156 	 106.158
| 39> H 	 -29.4962 	 60.2628 	 111.275
| 40> H 	 -37.5168 	 59.9062 	 111.418
| 41> *
| 42>
| 43>                          ****END OF INPUT****

CARTESIAN COORDINATES (ANGSTROEM)
---------------------------------
  S    -31.877300   59.727400  111.482000
  C    -30.428700   60.358600  110.696000
  C    -30.633700   60.979400  109.495000
  C    -32.009600   60.928800  109.141000
  C    -32.810400   60.275900  110.067000
  H    -32.423300   61.358800  108.169000
  C    -29.567700   61.641000  108.600000
  H    -29.941300   62.226300  107.796000
  H    -28.913800   60.846600  108.141000
  C    -28.709200   62.527900  109.399000
  H    -28.438500   62.107900  110.399000
  H    -27.759800   62.818400  108.940000
  C    -29.390700   63.965300  109.617000
  H    -29.701400   64.403600  108.688000
  H    -30.271800   63.686400  110.307000
  H    -28.745400   64.617400  110.195000
  S    -34.980900   60.464000  111.540000
  C    -36.568500   60.108300  110.906000
  C    -36.490400   60.096500  109.502000
  C    -35.215200   60.121300  108.905000
  C    -34.263300   60.177700  109.986000
  H    -37.399500   59.975200  108.883000
  C    -34.952000   60.144000  107.362000
  H    -35.262800   59.226100  106.953000
  H    -33.919600   60.245800  107.051000
  C    -35.880800   61.148900  106.650000
  H    -36.873000   61.063400  107.012000
  H    -35.906200   60.963100  105.534000
  C    -35.390000   62.558200  106.922000
  H    -34.339600   62.660300  106.877000
  H    -35.690400   62.941200  107.899000
  H    -35.857200   63.115600  106.158000
  H    -29.496200   60.262800  111.275000
  H    -37.516800   59.906200  111.418000

 Total Charge           Charge          ....    0
 Multiplicity           Mult            ....    1
 Number of Electrons    NEL             ....  134
 Basis Dimension        Dim             ....  322

ORBITAL ENERGIES
----------------

  NO   OCC          E(Eh)            E(eV)
   0   2.0000     -88.970374     -2421.0070
   1   2.0000     -88.968093     -2420.9449
   2   2.0000     -10.330617      -281.1104
   3   2.0000     -10.329475      -281.0793
   4   2.0000     -10.317298      -280.7480
   5   2.0000     -10.316746      -280.7329
   6   2.0000     -10.311536      -280.5912
   7   2.0000     -10.304448      -280.3983
   8   2.0000     -10.298790      -280.2443
   9   2.0000     -10.295837      -280.1640
  10   2.0000     -10.295008      -280.1414
  11   2.0000     -10.294514      -280.1280
  12   2.0000     -10.288066      -279.9525
  13   2.0000     -10.286692      -279.9151
  14   2.0000     -10.280841      -279.7559
  15   2.0000     -10.265666      -279.3430
  16   2.0000      -8.084374      -219.9870
  17   2.0000      -8.082817      -219.9446
  18   2.0000      -6.042902      -164.4357
  19   2.0000      -6.041305      -164.3923
  20   2.0000      -6.039156      -164.3338
  21   2.0000      -6.037275      -164.2826
  22   2.0000      -6.034975      -164.2200
  23   2.0000      -6.033651      -164.1840
  24   2.0000      -1.005450       -27.3597
  25   2.0000      -0.981633       -26.7116
  26   2.0000      -0.917040       -24.9539
  27   2.0000      -0.912809       -24.8388
  28   2.0000      -0.863788       -23.5049
  29   2.0000      -0.851366       -23.1668
  30   2.0000      -0.842328       -22.9209
  31   2.0000      -0.804653       -21.8957
  32   2.0000      -0.785667       -21.3791
  33   2.0000      -0.773358       -21.0441
  34   2.0000      -0.704959       -19.1829
  35   2.0000      -0.700672       -19.0663
  36   2.0000      -0.687451       -18.7065
  37   2.0000      -0.656558       -17.8658
  38   2.0000      -0.634162       -17.2564
  39   2.0000      -0.616320       -16.7709
  40   2.0000      -0.600935       -16.3523
  41   2.0000      -0.575298       -15.6546
  42   2.0000      -0.555478       -15.1153
  43   2.0000      -0.554622       -15.0920
  44   2.0000      -0.541769       -14.7423
  45   2.0000      -0.527617       -14.3572
  46   2.0000      -0.520258       -14.1569
  47   2.0000      -0.510976       -13.9044
  48   2.0000      -0.499883       -13.6025
  49   2.0000      -0.493989       -13.4421
  50   2.0000      -0.486367       -13.2347
  51   2.0000      -0.481399       -13.0995
  52   2.0000      -0.469930       -12.7875
  53   2.0000      -0.464602       -12.6425
  54   2.0000      -0.459942       -12.5157
  55   2.0000      -0.451462       -12.2849
  56   2.0000      -0.444782       -12.1031
  57   2.0000      -0.439628       -11.9629
  58   2.0000      -0.435507       -11.8507
  59   2.0000      -0.428591       -11.6625
  60   2.0000      -0.423947       -11.5362
  61   2.0000      -0.416902       -11.3445
  62   2.0000      -0.397678       -10.8214
  63   2.0000      -0.349614        -9.5135
  64   2.0000      -0.335075        -9.1178
  65   2.0000      -0.331674        -9.0253
  66   2.0000      -0.279548        -7.6069
  67   0.0000       0.017742         0.4828
  68   0.0000       0.074552         2.0287
  69   0.0000       0.096562         2.6276
  70   0.0000       0.116694         3.1754
  71   0.0000       0.134458         3.6588

MULLIKEN ATOMIC CHARGES
-----------------------
   0 S :    0.113274
   1 C :   -0.168133
   2 C :   -0.060064
   3 C :   -0.016098
   4 C :   -0.127748
   5 H :    0.029039
   6 C :    0.132317
   7 H :    0.007853
   8 H :    0.051305
   9 C :   -0.121804
  10 H :    0.031322
  11 H :    0.024875
  12 C :   -0.083141
  13 H :    0.034434
  14 H :    0.048985
  15 H :    0.037319
  16 S :    0.108618
  17 C :   -0.091292
  18 C :   -0.080811
  19 C :   -0.013332
  20 C :   -0.173493
  21 H :    0.026905
  22 C :    0.118438
  23 H :    0.014776
  24 H :    0.020998
  25 C :   -0.118584
  26 H :    0.023599
  27 H :    0.038910
  28 C :   -0.007957
  29 H :    0.013049
  30 H :    0.041467
  31 H :    0.021039
  32 H :    0.061649
  33 H :    0.062285
Sum of atomic charges:    0.0000000

LOEWDIN ATOMIC CHARGES
----------------------
   0 S :    0.387448
   1 C :   -0.190614
   2 C :   -0.062362
   3 C :   -0.067919
   4 C :   -0.191592
   5 H :    0.039681
   6 C :   -0.028357
   7 H :    0.024532
   8 H :    0.044132
   9 C :   -0.045950
  10 H :    0.023746
  11 H :    0.018952
  12 C :   -0.067104
  13 H :    0.017503
  14 H :    0.036177
  15 H :    0.021940
  16 S :    0.423018
  17 C :   -0.208658
  18 C :   -0.074151
  19 C :   -0.056251
  20 C :   -0.191944
  21 H :    0.030691
  22 C :   -0.021494
  23 H :    0.026258
  24 H :    0.026679
  25 C :   -0.034425
  26 H :    0.017704
  27 H :    0.029858
  28 C :   -0.057748
  29 H :    0.014863
  30 H :    0.030365
  31 H :    0.021554
  32 H :    0.027146
  33 H :    0.036321

  Mayer bond orders larger than 0.100000
B(  0-S ,  1-C ) :   1.1332 B(  0-S ,  4-C ) :   1.1402 B(  1-C ,  2-C ) :   1.6100
B(  1-C , 32-H ) :   0.9617 B(  2-C ,  3-C ) :   1.2522 B(  2-C ,  6-C ) :   1.0077
B(  3-C ,  4-C ) :   1.5719 B(  3-C ,  5-H ) :   0.9770 B(  4-C , 20-C ) :   1.0635
B(  6-C ,  7-H ) :   0.9447 B(  6-C ,  8-H ) :   0.9318 B(  6-C ,  9-C ) :   1.0688
B(  9-C , 10-H ) :   0.9596 B(  9-C , 11-H ) :   0.9561 B(  9-C , 12-C ) :   1.0636
B( 12-C , 13-H ) :   0.9759 B( 12-C , 14-H ) :   0.9803 B( 12-C , 15-H ) :   0.9777
B( 16-S , 17-C ) :   1.1409 B( 16-S , 20-C ) :   1.1846 B( 17-C , 18-C ) :   1.5808
B( 17-C , 20-C ) :   0.1129 B( 17-C , 33-H ) :   0.9689 B( 18-C , 19-C ) :   1.2862
B( 18-C , 21-H ) :   0.9724 B( 19-C , 20-C ) :   1.5168 B( 19-C , 22-C ) :   1.0198
B( 22-C , 23-H ) :   0.9249 B( 22-C , 24-H ) :   0.9484 B( 22-C , 25-C ) :   1.0786
B( 25-C , 26-H ) :   0.9518 B( 25-C , 27-H ) :   0.9596 B( 25-C , 28-C ) :   1.0683
B( 28-C , 29-H ) :   0.9775 B( 28-C , 30-H ) :   0.9741 B( 28-C , 31-H ) :   0.9733

Dispersion correction           -0.014473846
FINAL SINGLE POINT ENERGY     -1339.860248361437

DIPOLE MOMENT
-------------
                                X             Y             Z
Electronic contribution:     -6.87031     -15.46256      20.31521
Nuclear contribution   :      6.94946      15.67237     -20.94291
                        -----------------------------------------
Total Dipole Moment    :      0.07915       0.20981      -0.62770
                        -----------------------------------------
Magnitude (a.u.)       :      0.66655
Magnitude (Debye)      :      1.69424

Rotational constants in cm-1:     0.019358     0.008917     0.006893
Rotational constants in MHz :   580.338607   267.324693   206.660682

                             ****ORCA TERMINATED NORMALLY****
TOTAL RUN TIME: 0 days 0 hours 0 minutes 30 seconds 577 msec
