                         Program Version 4.2.1 -  RELEASE  -
|  1> ! wB97X-D3 SP def2-SVP
|  2> %pal
|  3> nprocs 16
|  4> end
|  5>
|  6> * xyz 0 1
|  7> S 	 -37.2135 	 49.2954 	 107.269
|  8> C 	 -36.968 	 48.5711 	 108.831
|  9> C 	 -38.1599 	 48.1781 	 109.422
| 10> C 	 -39.3025 	 48.4571 	 108.604
| 11> C 	 -38.9397 	 48.9302 	 107.369
| 12> H 	 -40.3276 	 48.3442 	 108.917
| 13> C 	 -38.3105 	 47.6429 	 110.801
| 14> H 	 -37.3004 	 47.2385 	 111.023
| 15> H 	 -38.9497 	 46.8172 	 110.804
| 16> C 	 -38.7502 	 48.6582 	 111.877
| 17> H 	 -39.6634 	 49.1995 	 111.631
| 18> H 	 -38.8633 	 48.1304 	 112.829
| 19> C 	 -37.7326 	 49.6959 	 112.063
| 20> H 	 -36.6718 	 49.377 	 112.179
| 21> H 	 -37.8374 	 50.5347 	 111.334
| 22> H 	 -38.0144 	 50.0053 	 113.105
| 23> S 	 -39.7604 	 50.8526 	 105.565
| 24> C 	 -40.9377 	 50.4638 	 104.309
| 25> C 	 -41.3374 	 49.1415 	 104.511
| 26> C 	 -40.7891 	 48.4812 	 105.674
| 27> C 	 -39.8417 	 49.2569 	 106.337
| 28> H 	 -41.9821 	 48.6915 	 103.772
| 29> C 	 -41.0442 	 47.0011 	 105.905
| 30> H 	 -40.5904 	 46.5991 	 106.863
| 31> H 	 -40.4877 	 46.4441 	 105.118
| 32> C 	 -42.4834 	 46.5615 	 105.756
| 33> H 	 -42.8242 	 46.5543 	 104.701
| 34> H 	 -43.069 	 47.3232 	 106.304
| 35> C 	 -42.7252 	 45.1267 	 106.311
| 36> H 	 -43.6174 	 44.7487 	 105.984
| 37> H 	 -42.753 	 45.1195 	 107.342
| 38> H 	 -41.9429 	 44.4443 	 106.015
| 39> H 	 -36.0654 	 48.4367 	 109.379
| 40> H 	 -41.4897 	 50.9957 	 103.496
| 41> *
| 42>
| 43>                          ****END OF INPUT****

CARTESIAN COORDINATES (ANGSTROEM)
---------------------------------
  S    -37.213500   49.295400  107.269000
  C    -36.968000   48.571100  108.831000
  C    -38.159900   48.178100  109.422000
  C    -39.302500   48.457100  108.604000
  C    -38.939700   48.930200  107.369000
  H    -40.327600   48.344200  108.917000
  C    -38.310500   47.642900  110.801000
  H    -37.300400   47.238500  111.023000
  H    -38.949700   46.817200  110.804000
  C    -38.750200   48.658200  111.877000
  H    -39.663400   49.199500  111.631000
  H    -38.863300   48.130400  112.829000
  C    -37.732600   49.695900  112.063000
  H    -36.671800   49.377000  112.179000
  H    -37.837400   50.534700  111.334000
  H    -38.014400   50.005300  113.105000
  S    -39.760400   50.852600  105.565000
  C    -40.937700   50.463800  104.309000
  C    -41.337400   49.141500  104.511000
  C    -40.789100   48.481200  105.674000
  C    -39.841700   49.256900  106.337000
  H    -41.982100   48.691500  103.772000
  C    -41.044200   47.001100  105.905000
  H    -40.590400   46.599100  106.863000
  H    -40.487700   46.444100  105.118000
  C    -42.483400   46.561500  105.756000
  H    -42.824200   46.554300  104.701000
  H    -43.069000   47.323200  106.304000
  C    -42.725200   45.126700  106.311000
  H    -43.617400   44.748700  105.984000
  H    -42.753000   45.119500  107.342000
  H    -41.942900   44.444300  106.015000
  H    -36.065400   48.436700  109.379000
  H    -41.489700   50.995700  103.496000

 Total Charge           Charge          ....    0
 Multiplicity           Mult            ....    1
 Number of Electrons    NEL             ....  134
 Basis Dimension        Dim             ....  322

ORBITAL ENERGIES
----------------

  NO   OCC          E(Eh)            E(eV)
   0   2.0000     -88.970084     -2420.9991
   1   2.0000     -88.965894     -2420.8850
   2   2.0000     -10.326964      -281.0110
   3   2.0000     -10.325972      -280.9840
   4   2.0000     -10.323142      -280.9070
   5   2.0000     -10.311025      -280.5772
   6   2.0000     -10.305294      -280.4213
   7   2.0000     -10.296352      -280.1780
   8   2.0000     -10.293504      -280.1005
   9   2.0000     -10.293152      -280.0909
  10   2.0000     -10.292028      -280.0603
  11   2.0000     -10.288007      -279.9509
  12   2.0000     -10.284659      -279.8598
  13   2.0000     -10.284482      -279.8550
  14   2.0000     -10.277004      -279.6515
  15   2.0000     -10.265533      -279.3394
  16   2.0000      -8.084471      -219.9896
  17   2.0000      -8.079700      -219.8598
  18   2.0000      -6.043061      -164.4400
  19   2.0000      -6.039143      -164.3334
  20   2.0000      -6.038446      -164.3145
  21   2.0000      -6.035037      -164.2217
  22   2.0000      -6.034220      -164.1995
  23   2.0000      -6.030331      -164.0936
  24   2.0000      -1.007337       -27.4110
  25   2.0000      -0.980637       -26.6845
  26   2.0000      -0.920558       -25.0496
  27   2.0000      -0.907952       -24.7066
  28   2.0000      -0.875774       -23.8310
  29   2.0000      -0.855662       -23.2837
  30   2.0000      -0.844886       -22.9905
  31   2.0000      -0.816036       -22.2055
  32   2.0000      -0.782862       -21.3028
  33   2.0000      -0.773132       -21.0380
  34   2.0000      -0.712961       -19.4007
  35   2.0000      -0.696295       -18.9472
  36   2.0000      -0.689665       -18.7668
  37   2.0000      -0.652962       -17.7680
  38   2.0000      -0.639086       -17.3904
  39   2.0000      -0.623112       -16.9557
  40   2.0000      -0.592389       -16.1197
  41   2.0000      -0.573331       -15.6011
  42   2.0000      -0.566961       -15.4278
  43   2.0000      -0.553522       -15.0621
  44   2.0000      -0.551145       -14.9974
  45   2.0000      -0.526024       -14.3139
  46   2.0000      -0.522056       -14.2059
  47   2.0000      -0.512779       -13.9534
  48   2.0000      -0.508883       -13.8474
  49   2.0000      -0.496022       -13.4975
  50   2.0000      -0.491020       -13.3613
  51   2.0000      -0.481485       -13.1019
  52   2.0000      -0.471094       -12.8191
  53   2.0000      -0.465022       -12.6539
  54   2.0000      -0.452872       -12.3233
  55   2.0000      -0.450853       -12.2683
  56   2.0000      -0.445609       -12.1256
  57   2.0000      -0.433127       -11.7860
  58   2.0000      -0.431700       -11.7472
  59   2.0000      -0.424243       -11.5442
  60   2.0000      -0.416451       -11.3322
  61   2.0000      -0.414462       -11.2781
  62   2.0000      -0.411299       -11.1920
  63   2.0000      -0.350333        -9.5331
  64   2.0000      -0.329636        -8.9699
  65   2.0000      -0.326850        -8.8941
  66   2.0000      -0.288679        -7.8554
  67   0.0000       0.026988         0.7344
  68   0.0000       0.068250         1.8572
  69   0.0000       0.114220         3.1081
  70   0.0000       0.118088         3.2133
  71   0.0000       0.124994         3.4013

MULLIKEN ATOMIC CHARGES
-----------------------
   0 S :    0.126774
   1 C :   -0.090720
   2 C :   -0.122748
   3 C :    0.028474
   4 C :   -0.152233
   5 H :    0.017438
   6 C :    0.094419
   7 H :    0.012029
   8 H :    0.009237
   9 C :   -0.047957
  10 H :    0.032852
  11 H :    0.031621
  12 C :   -0.085740
  13 H :    0.029013
  14 H :    0.059138
  15 H :    0.027122
  16 S :    0.100982
  17 C :   -0.094008
  18 C :   -0.068101
  19 C :   -0.003752
  20 C :   -0.153504
  21 H :    0.019555
  22 C :    0.032960
  23 H :    0.033706
  24 H :    0.040696
  25 C :   -0.126663
  26 H :    0.037159
  27 H :    0.034127
  28 C :    0.030344
  29 H :    0.008325
  30 H :    0.012700
  31 H :    0.022329
  32 H :    0.028487
  33 H :    0.075939
Sum of atomic charges:   -0.0000000

LOEWDIN ATOMIC CHARGES
----------------------
   0 S :    0.407952
   1 C :   -0.199366
   2 C :   -0.062662
   3 C :   -0.052699
   4 C :   -0.187344
   5 H :    0.032713
   6 C :   -0.032159
   7 H :    0.031469
   8 H :    0.019078
   9 C :   -0.040013
  10 H :    0.029337
  11 H :    0.025921
  12 C :   -0.075501
  13 H :    0.023085
  14 H :    0.032571
  15 H :    0.033418
  16 S :    0.390208
  17 C :   -0.199393
  18 C :   -0.073318
  19 C :   -0.056653
  20 C :   -0.192689
  21 H :    0.027052
  22 C :   -0.042830
  23 H :    0.033895
  24 H :    0.037902
  25 C :   -0.042680
  26 H :    0.024028
  27 H :    0.024784
  28 C :   -0.048539
  29 H :    0.014849
  30 H :    0.016237
  31 H :    0.026525
  32 H :    0.023526
  33 H :    0.051296

  Mayer bond orders larger than 0.100000
B(  0-S ,  1-C ) :   1.1237 B(  0-S ,  4-C ) :   1.1355 B(  1-C ,  2-C ) :   1.6232
B(  1-C , 32-H ) :   0.9660 B(  2-C ,  3-C ) :   1.2252 B(  2-C ,  6-C ) :   1.0318
B(  3-C ,  4-C ) :   1.5683 B(  3-C ,  5-H ) :   0.9981 B(  4-C , 20-C ) :   1.0857
B(  6-C ,  7-H ) :   0.9386 B(  6-C ,  8-H ) :   0.9336 B(  6-C ,  9-C ) :   1.0721
B(  9-C , 10-H ) :   0.9516 B(  9-C , 11-H ) :   0.9614 B(  9-C , 12-C ) :   1.0714
B( 12-C , 13-H ) :   0.9745 B( 12-C , 14-H ) :   0.9736 B( 12-C , 15-H ) :   0.9737
B( 16-S , 17-C ) :   1.1343 B( 16-S , 20-C ) :   1.1215 B( 17-C , 18-C ) :   1.6322
B( 17-C , 33-H ) :   0.9596 B( 18-C , 19-C ) :   1.2313 B( 18-C , 21-H ) :   0.9850
B( 19-C , 20-C ) :   1.5823 B( 19-C , 22-C ) :   1.0505 B( 22-C , 23-H ) :   0.9437
B( 22-C , 24-H ) :   0.9256 B( 22-C , 25-C ) :   1.0488 B( 25-C , 26-H ) :   0.9507
B( 25-C , 27-H ) :   0.9652 B( 25-C , 28-C ) :   1.0851 B( 28-C , 29-H ) :   0.9721
B( 28-C , 30-H ) :   0.9729 B( 28-C , 31-H ) :   0.9711

Dispersion correction           -0.014131475
FINAL SINGLE POINT ENERGY     -1339.867020848056

DIPOLE MOMENT
-------------
                                X             Y             Z
Electronic contribution:     10.49555      16.24945     -15.92920
Nuclear contribution   :    -10.90157     -16.76901      16.24298
                        -----------------------------------------
Total Dipole Moment    :     -0.40602      -0.51956       0.31377
                        -----------------------------------------
Magnitude (a.u.)       :      0.73024
Magnitude (Debye)      :      1.85612

Rotational constants in cm-1:     0.018195     0.008602     0.006626
Rotational constants in MHz :   545.475745   257.883667   198.629909

                             ****ORCA TERMINATED NORMALLY****
TOTAL RUN TIME: 0 days 0 hours 0 minutes 27 seconds 842 msec
