                         Program Version 4.2.1 -  RELEASE  -
|  1> ! wB97X-D3 SP def2-SVP
|  2> %pal
|  3> nprocs 16
|  4> end
|  5>
|  6> * xyz 0 1
|  7> S 	 -113.966 	 44.9094 	 132.744
|  8> C 	 -114.436 	 43.6057 	 133.825
|  9> C 	 -114.646 	 44.1064 	 135.141
| 10> C 	 -114.413 	 45.5227 	 135.217
| 11> C 	 -114.163 	 46.1249 	 133.973
| 12> H 	 -114.482 	 46.1655 	 136.106
| 13> C 	 -115.137 	 43.3909 	 136.326
| 14> H 	 -115.495 	 42.5298 	 135.895
| 15> H 	 -116.006 	 43.8903 	 136.776
| 16> C 	 -114.128 	 43.1347 	 137.443
| 17> H 	 -114.66 	 42.5156 	 138.168
| 18> H 	 -113.315 	 42.5221 	 137.07
| 19> C 	 -113.69 	 44.3691 	 138.195
| 20> H 	 -113.036 	 44.0979 	 138.911
| 21> H 	 -113.159 	 45.0145 	 137.434
| 22> H 	 -114.48 	 44.9783 	 138.595
| 23> S 	 -112.655 	 47.8536 	 132.358
| 24> C 	 -112.579 	 49.5479 	 132.793
| 25> C 	 -113.517 	 49.8489 	 133.774
| 26> C 	 -114.243 	 48.67 	 134.303
| 27> C 	 -113.734 	 47.506 	 133.714
| 28> H 	 -113.618 	 50.8395 	 134.08
| 29> C 	 -115.364 	 48.7865 	 135.379
| 30> H 	 -114.814 	 48.7836 	 136.359
| 31> H 	 -115.966 	 47.9206 	 135.275
| 32> C 	 -116.305 	 49.9605 	 135.297
| 33> H 	 -115.768 	 50.9042 	 135.394
| 34> H 	 -117.003 	 49.8309 	 136.097
| 35> C 	 -117.231 	 49.8377 	 134.07
| 36> H 	 -116.633 	 50.0767 	 133.162
| 37> H 	 -118.045 	 50.5032 	 134.153
| 38> H 	 -117.641 	 48.8088 	 133.961
| 39> H 	 -114.586 	 42.5747 	 133.488
| 40> H 	 -111.871 	 50.2697 	 132.356
| 41> *
| 42>
| 43>                          ****END OF INPUT****

CARTESIAN COORDINATES (ANGSTROEM)
---------------------------------
  S    -113.966000   44.909400  132.744000
  C    -114.436000   43.605700  133.825000
  C    -114.646000   44.106400  135.141000
  C    -114.413000   45.522700  135.217000
  C    -114.163000   46.124900  133.973000
  H    -114.482000   46.165500  136.106000
  C    -115.137000   43.390900  136.326000
  H    -115.495000   42.529800  135.895000
  H    -116.006000   43.890300  136.776000
  C    -114.128000   43.134700  137.443000
  H    -114.660000   42.515600  138.168000
  H    -113.315000   42.522100  137.070000
  C    -113.690000   44.369100  138.195000
  H    -113.036000   44.097900  138.911000
  H    -113.159000   45.014500  137.434000
  H    -114.480000   44.978300  138.595000
  S    -112.655000   47.853600  132.358000
  C    -112.579000   49.547900  132.793000
  C    -113.517000   49.848900  133.774000
  C    -114.243000   48.670000  134.303000
  C    -113.734000   47.506000  133.714000
  H    -113.618000   50.839500  134.080000
  C    -115.364000   48.786500  135.379000
  H    -114.814000   48.783600  136.359000
  H    -115.966000   47.920600  135.275000
  C    -116.305000   49.960500  135.297000
  H    -115.768000   50.904200  135.394000
  H    -117.003000   49.830900  136.097000
  C    -117.231000   49.837700  134.070000
  H    -116.633000   50.076700  133.162000
  H    -118.045000   50.503200  134.153000
  H    -117.641000   48.808800  133.961000
  H    -114.586000   42.574700  133.488000
  H    -111.871000   50.269700  132.356000

 Total Charge           Charge          ....    0
 Multiplicity           Mult            ....    1
 Number of Electrons    NEL             ....  134
 Basis Dimension        Dim             ....  322

ORBITAL ENERGIES
----------------

  NO   OCC          E(Eh)            E(eV)
   0   2.0000     -88.966541     -2420.9027
   1   2.0000     -88.965622     -2420.8776
   2   2.0000     -10.330753      -281.1141
   3   2.0000     -10.330324      -281.1024
   4   2.0000     -10.320834      -280.8442
   5   2.0000     -10.320352      -280.8310
   6   2.0000     -10.311021      -280.5771
   7   2.0000     -10.303269      -280.3662
   8   2.0000     -10.295446      -280.1533
   9   2.0000     -10.295140      -280.1450
  10   2.0000     -10.294797      -280.1357
  11   2.0000     -10.285171      -279.8737
  12   2.0000     -10.283071      -279.8166
  13   2.0000     -10.280230      -279.7393
  14   2.0000     -10.276166      -279.6287
  15   2.0000     -10.269572      -279.4493
  16   2.0000      -8.081176      -219.9000
  17   2.0000      -8.080081      -219.8702
  18   2.0000      -6.039769      -164.3505
  19   2.0000      -6.038761      -164.3230
  20   2.0000      -6.035583      -164.2366
  21   2.0000      -6.034774      -164.2146
  22   2.0000      -6.031993      -164.1389
  23   2.0000      -6.030539      -164.0993
  24   2.0000      -1.001141       -27.2424
  25   2.0000      -0.977109       -26.5885
  26   2.0000      -0.919586       -25.0232
  27   2.0000      -0.913275       -24.8515
  28   2.0000      -0.866971       -23.5915
  29   2.0000      -0.850809       -23.1517
  30   2.0000      -0.839513       -22.8443
  31   2.0000      -0.814495       -22.1635
  32   2.0000      -0.786371       -21.3982
  33   2.0000      -0.773416       -21.0457
  34   2.0000      -0.706295       -19.2193
  35   2.0000      -0.700224       -19.0541
  36   2.0000      -0.692358       -18.8400
  37   2.0000      -0.655407       -17.8345
  38   2.0000      -0.637621       -17.3506
  39   2.0000      -0.618388       -16.8272
  40   2.0000      -0.597662       -16.2632
  41   2.0000      -0.576908       -15.6985
  42   2.0000      -0.557625       -15.1738
  43   2.0000      -0.555365       -15.1122
  44   2.0000      -0.546607       -14.8739
  45   2.0000      -0.535923       -14.5832
  46   2.0000      -0.518871       -14.1192
  47   2.0000      -0.516413       -14.0523
  48   2.0000      -0.500299       -13.6138
  49   2.0000      -0.491975       -13.3873
  50   2.0000      -0.490681       -13.3521
  51   2.0000      -0.483635       -13.1604
  52   2.0000      -0.465711       -12.6727
  53   2.0000      -0.464211       -12.6318
  54   2.0000      -0.463135       -12.6025
  55   2.0000      -0.449902       -12.2424
  56   2.0000      -0.445278       -12.1166
  57   2.0000      -0.439145       -11.9497
  58   2.0000      -0.436383       -11.8746
  59   2.0000      -0.431900       -11.7526
  60   2.0000      -0.420142       -11.4326
  61   2.0000      -0.409798       -11.1512
  62   2.0000      -0.407945       -11.1007
  63   2.0000      -0.355271        -9.6674
  64   2.0000      -0.330307        -8.9881
  65   2.0000      -0.324248        -8.8232
  66   2.0000      -0.281710        -7.6657
  67   0.0000       0.022833         0.6213
  68   0.0000       0.076183         2.0730
  69   0.0000       0.096984         2.6391
  70   0.0000       0.116005         3.1567
  71   0.0000       0.138510         3.7691

MULLIKEN ATOMIC CHARGES
-----------------------
   0 S :    0.095015
   1 C :   -0.126634
   2 C :   -0.107051
   3 C :   -0.011365
   4 C :   -0.132224
   5 H :    0.024694
   6 C :    0.109269
   7 H :   -0.015140
   8 H :    0.028607
   9 C :   -0.065802
  10 H :    0.022272
  11 H :    0.028398
  12 C :   -0.018286
  13 H :    0.014857
  14 H :    0.040757
  15 H :    0.025300
  16 S :    0.098114
  17 C :   -0.104293
  18 C :   -0.011475
  19 C :   -0.079693
  20 C :   -0.129225
  21 H :   -0.003828
  22 C :    0.053119
  23 H :    0.056413
  24 H :    0.018744
  25 C :   -0.047319
  26 H :    0.035551
  27 H :    0.022800
  28 C :   -0.061440
  29 H :    0.045897
  30 H :    0.027852
  31 H :    0.037405
  32 H :    0.057869
  33 H :    0.070846
Sum of atomic charges:    0.0000000

LOEWDIN ATOMIC CHARGES
----------------------
   0 S :    0.406509
   1 C :   -0.205208
   2 C :   -0.057166
   3 C :   -0.071838
   4 C :   -0.190858
   5 H :    0.033020
   6 C :   -0.032287
   7 H :    0.019239
   8 H :    0.035155
   9 C :   -0.031906
  10 H :    0.023083
  11 H :    0.025241
  12 C :   -0.057473
  13 H :    0.012207
  14 H :    0.034412
  15 H :    0.022743
  16 S :    0.387742
  17 C :   -0.187125
  18 C :   -0.065627
  19 C :   -0.051737
  20 C :   -0.194494
  21 H :    0.017983
  22 C :   -0.031503
  23 H :    0.038911
  24 H :    0.023801
  25 C :   -0.039313
  26 H :    0.023095
  27 H :    0.026136
  28 C :   -0.060919
  29 H :    0.030604
  30 H :    0.017290
  31 H :    0.031433
  32 H :    0.031626
  33 H :    0.037223

  Mayer bond orders larger than 0.100000
B(  0-S ,  1-C ) :   1.1424 B(  0-S ,  4-C ) :   1.1567 B(  1-C ,  2-C ) :   1.5731
B(  1-C , 32-H ) :   0.9682 B(  2-C ,  3-C ) :   1.2545 B(  2-C ,  6-C ) :   1.0312
B(  3-C ,  4-C ) :   1.5407 B(  3-C ,  5-H ) :   0.9791 B(  4-C , 20-C ) :   1.0711
B(  6-C ,  7-H ) :   0.9212 B(  6-C ,  8-H ) :   0.9393 B(  6-C ,  9-C ) :   1.0816
B(  9-C , 10-H ) :   0.9518 B(  9-C , 11-H ) :   0.9517 B(  9-C , 12-C ) :   1.0894
B( 12-C , 13-H ) :   0.9671 B( 12-C , 14-H ) :   0.9655 B( 12-C , 15-H ) :   0.9712
B( 16-S , 17-C ) :   1.1382 B( 16-S , 20-C ) :   1.1261 B( 17-C , 18-C ) :   1.6334
B( 17-C , 33-H ) :   0.9652 B( 18-C , 19-C ) :   1.2059 B( 18-C , 21-H ) :   0.9983
B( 19-C , 20-C ) :   1.6083 B( 19-C , 22-C ) :   1.0235 B( 22-C , 23-H ) :   0.9327
B( 22-C , 24-H ) :   0.9295 B( 22-C , 25-C ) :   1.0896 B( 25-C , 26-H ) :   0.9504
B( 25-C , 27-H ) :   0.9498 B( 25-C , 28-C ) :   1.0753 B( 28-C , 29-H ) :   0.9757
B( 28-C , 30-H ) :   0.9776 B( 28-C , 31-H ) :   0.9722

Dispersion correction           -0.014411827
FINAL SINGLE POINT ENERGY     -1339.872365481728

DIPOLE MOMENT
-------------
                                X             Y             Z
Electronic contribution:     12.72205      -2.15695     -22.04442
Nuclear contribution   :    -13.05863       2.31223      22.69827
                        -----------------------------------------
Total Dipole Moment    :     -0.33657       0.15528       0.65385
                        -----------------------------------------
Magnitude (a.u.)       :      0.75161
Magnitude (Debye)      :      1.91043

Rotational constants in cm-1:     0.018204     0.008938     0.007234
Rotational constants in MHz :   545.747088   267.960370   216.878197

                             ****ORCA TERMINATED NORMALLY****
TOTAL RUN TIME: 0 days 0 hours 0 minutes 32 seconds 598 msec
