                         Program Version 4.2.1 -  RELEASE  -
|  1> ! wB97X-D3 SP def2-SVP
|  2> %pal
|  3> nprocs 16
|  4> end
|  5>
|  6> * xyz 0 1
|  7> S 	 -44.8778 	 35.9049 	 80.6169
|  8> C 	 -43.8088 	 37.2699 	 80.4723
|  9> C 	 -42.5282 	 36.9049 	 80.3307
| 10> C 	 -42.3783 	 35.4604 	 80.1828
| 11> C 	 -43.5835 	 34.7695 	 80.3282
| 12> H 	 -41.5377 	 34.8748 	 79.8727
| 13> C 	 -41.3252 	 37.9182 	 80.3719
| 14> H 	 -40.5829 	 37.681 	 81.1593
| 15> H 	 -41.6159 	 38.9245 	 80.6688
| 16> C 	 -40.672 	 37.9203 	 78.9764
| 17> H 	 -40.4042 	 36.8876 	 78.8889
| 18> H 	 -41.4377 	 38.1723 	 78.2831
| 19> C 	 -39.5897 	 38.9506 	 78.7677
| 20> H 	 -39.2766 	 38.9884 	 77.6932
| 21> H 	 -39.9465 	 39.9371 	 78.9568
| 22> H 	 -38.7747 	 38.6645 	 79.4879
| 23> S 	 -44.2544 	 33.2378 	 78.1607
| 24> C 	 -43.8865 	 31.5056 	 78.2662
| 25> C 	 -43.343 	 31.191 	 79.493
| 26> C 	 -43.4317 	 32.2509 	 80.4575
| 27> C 	 -43.8163 	 33.4719 	 79.8609
| 28> H 	 -43.0617 	 30.1814 	 79.7583
| 29> C 	 -43.0251 	 32.0765 	 81.9073
| 30> H 	 -43.4094 	 31.0842 	 82.3233
| 31> H 	 -43.5924 	 32.8599 	 82.4159
| 32> C 	 -41.4786 	 32.1564 	 82.2038
| 33> H 	 -41.0079 	 33.06 	 81.7769
| 34> H 	 -40.9186 	 31.3754 	 81.6054
| 35> C 	 -41.1157 	 32.0078 	 83.7216
| 36> H 	 -41.0951 	 30.9748 	 84.1537
| 37> H 	 -41.7896 	 32.5936 	 84.2728
| 38> H 	 -40.1461 	 32.3711 	 83.9653
| 39> H 	 -44.1053 	 38.2926 	 80.6257
| 40> H 	 -44.0025 	 30.9348 	 77.3152
| 41> *
| 42>
| 43>                          ****END OF INPUT****

CARTESIAN COORDINATES (ANGSTROEM)
---------------------------------
  S    -44.877800   35.904900   80.616900
  C    -43.808800   37.269900   80.472300
  C    -42.528200   36.904900   80.330700
  C    -42.378300   35.460400   80.182800
  C    -43.583500   34.769500   80.328200
  H    -41.537700   34.874800   79.872700
  C    -41.325200   37.918200   80.371900
  H    -40.582900   37.681000   81.159300
  H    -41.615900   38.924500   80.668800
  C    -40.672000   37.920300   78.976400
  H    -40.404200   36.887600   78.888900
  H    -41.437700   38.172300   78.283100
  C    -39.589700   38.950600   78.767700
  H    -39.276600   38.988400   77.693200
  H    -39.946500   39.937100   78.956800
  H    -38.774700   38.664500   79.487900
  S    -44.254400   33.237800   78.160700
  C    -43.886500   31.505600   78.266200
  C    -43.343000   31.191000   79.493000
  C    -43.431700   32.250900   80.457500
  C    -43.816300   33.471900   79.860900
  H    -43.061700   30.181400   79.758300
  C    -43.025100   32.076500   81.907300
  H    -43.409400   31.084200   82.323300
  H    -43.592400   32.859900   82.415900
  C    -41.478600   32.156400   82.203800
  H    -41.007900   33.060000   81.776900
  H    -40.918600   31.375400   81.605400
  C    -41.115700   32.007800   83.721600
  H    -41.095100   30.974800   84.153700
  H    -41.789600   32.593600   84.272800
  H    -40.146100   32.371100   83.965300
  H    -44.105300   38.292600   80.625700
  H    -44.002500   30.934800   77.315200

 Total Charge           Charge          ....    0
 Multiplicity           Mult            ....    1
 Number of Electrons    NEL             ....  134
 Basis Dimension        Dim             ....  322

ORBITAL ENERGIES
----------------

  NO   OCC          E(Eh)            E(eV)
   0   2.0000     -88.962513     -2420.7930
   1   2.0000     -88.962338     -2420.7883
   2   2.0000     -10.324565      -280.9457
   3   2.0000     -10.323804      -280.9250
   4   2.0000     -10.322807      -280.8979
   5   2.0000     -10.310535      -280.5639
   6   2.0000     -10.306406      -280.4516
   7   2.0000     -10.304599      -280.4024
   8   2.0000     -10.300461      -280.2898
   9   2.0000     -10.299625      -280.2671
  10   2.0000     -10.297374      -280.2058
  11   2.0000     -10.296998      -280.1955
  12   2.0000     -10.296173      -280.1731
  13   2.0000     -10.281244      -279.7669
  14   2.0000     -10.277308      -279.6598
  15   2.0000     -10.275682      -279.6155
  16   2.0000      -8.077686      -219.8050
  17   2.0000      -8.076981      -219.7858
  18   2.0000      -6.036203      -164.2534
  19   2.0000      -6.035431      -164.2324
  20   2.0000      -6.032065      -164.1408
  21   2.0000      -6.031576      -164.1275
  22   2.0000      -6.028429      -164.0419
  23   2.0000      -6.027751      -164.0234
  24   2.0000      -1.007804       -27.4237
  25   2.0000      -0.980202       -26.6726
  26   2.0000      -0.912525       -24.8311
  27   2.0000      -0.897167       -24.4131
  28   2.0000      -0.877451       -23.8767
  29   2.0000      -0.846120       -23.0241
  30   2.0000      -0.843927       -22.9644
  31   2.0000      -0.812223       -22.1017
  32   2.0000      -0.782213       -21.2851
  33   2.0000      -0.769928       -20.9508
  34   2.0000      -0.709971       -19.3193
  35   2.0000      -0.698592       -19.0097
  36   2.0000      -0.690272       -18.7832
  37   2.0000      -0.659306       -17.9406
  38   2.0000      -0.650046       -17.6886
  39   2.0000      -0.613228       -16.6868
  40   2.0000      -0.595579       -16.2065
  41   2.0000      -0.575089       -15.6490
  42   2.0000      -0.560471       -15.2512
  43   2.0000      -0.549990       -14.9660
  44   2.0000      -0.526932       -14.3385
  45   2.0000      -0.521200       -14.1826
  46   2.0000      -0.515553       -14.0289
  47   2.0000      -0.511645       -13.9226
  48   2.0000      -0.507522       -13.8104
  49   2.0000      -0.498421       -13.5627
  50   2.0000      -0.492180       -13.3929
  51   2.0000      -0.478238       -13.0135
  52   2.0000      -0.473763       -12.8918
  53   2.0000      -0.465368       -12.6633
  54   2.0000      -0.454204       -12.3595
  55   2.0000      -0.450557       -12.2603
  56   2.0000      -0.442285       -12.0352
  57   2.0000      -0.437474       -11.9043
  58   2.0000      -0.428970       -11.6729
  59   2.0000      -0.426413       -11.6033
  60   2.0000      -0.423676       -11.5288
  61   2.0000      -0.411967       -11.2102
  62   2.0000      -0.410640       -11.1741
  63   2.0000      -0.340464        -9.2645
  64   2.0000      -0.325809        -8.8657
  65   2.0000      -0.322157        -8.7663
  66   2.0000      -0.306751        -8.3471
  67   0.0000       0.035908         0.9771
  68   0.0000       0.053546         1.4571
  69   0.0000       0.116001         3.1565
  70   0.0000       0.121910         3.3173
  71   0.0000       0.125649         3.4191

MULLIKEN ATOMIC CHARGES
-----------------------
   0 S :    0.103687
   1 C :   -0.109707
   2 C :   -0.077502
   3 C :    0.048637
   4 C :   -0.197051
   5 H :    0.022105
   6 C :    0.055322
   7 H :    0.035915
   8 H :    0.004251
   9 C :   -0.083020
  10 H :    0.026186
  11 H :    0.022793
  12 C :   -0.024540
  13 H :    0.044351
  14 H :    0.021761
  15 H :    0.036234
  16 S :    0.103147
  17 C :   -0.119027
  18 C :   -0.002959
  19 C :   -0.058235
  20 C :   -0.147734
  21 H :    0.019852
  22 C :    0.054840
  23 H :    0.040096
  24 H :    0.034682
  25 C :   -0.092673
  26 H :    0.027951
  27 H :    0.029209
  28 C :   -0.021798
  29 H :    0.037506
  30 H :    0.020380
  31 H :    0.020162
  32 H :    0.042416
  33 H :    0.082760
Sum of atomic charges:   -0.0000000

LOEWDIN ATOMIC CHARGES
----------------------
   0 S :    0.404384
   1 C :   -0.188507
   2 C :   -0.062506
   3 C :   -0.045120
   4 C :   -0.208927
   5 H :    0.027959
   6 C :   -0.025495
   7 H :    0.030500
   8 H :    0.020098
   9 C :   -0.043121
  10 H :    0.020697
  11 H :    0.021360
  12 C :   -0.065757
  13 H :    0.034106
  14 H :    0.019637
  15 H :    0.030580
  16 S :    0.389499
  17 C :   -0.177063
  18 C :   -0.072099
  19 C :   -0.049399
  20 C :   -0.206366
  21 H :    0.030701
  22 C :   -0.036109
  23 H :    0.039390
  24 H :    0.032428
  25 C :   -0.043919
  26 H :    0.024548
  27 H :    0.026640
  28 C :   -0.065850
  29 H :    0.031204
  30 H :    0.018471
  31 H :    0.022897
  32 H :    0.027954
  33 H :    0.037184

  Mayer bond orders larger than 0.100000
B(  0-S ,  1-C ) :   1.1359 B(  0-S ,  4-C ) :   1.1363 B(  1-C ,  2-C ) :   1.6616
B(  1-C , 32-H ) :   0.9663 B(  2-C ,  3-C ) :   1.1973 B(  2-C ,  6-C ) :   1.0111
B(  3-C ,  4-C ) :   1.6032 B(  3-C ,  5-H ) :   0.9873 B(  4-C , 20-C ) :   1.0451
B(  6-C ,  7-H ) :   0.9475 B(  6-C ,  8-H ) :   0.9463 B(  6-C ,  9-C ) :   1.0449
B(  9-C , 10-H ) :   0.9641 B(  9-C , 11-H ) :   0.9548 B(  9-C , 12-C ) :   1.0867
B( 12-C , 13-H ) :   0.9729 B( 12-C , 14-H ) :   0.9715 B( 12-C , 15-H ) :   0.9732
B( 16-S , 17-C ) :   1.1568 B( 16-S , 20-C ) :   1.1366 B( 17-C , 18-C ) :   1.5927
B( 17-C , 33-H ) :   0.9649 B( 18-C , 19-C ) :   1.2508 B( 18-C , 21-H ) :   0.9889
B( 19-C , 20-C ) :   1.5786 B( 19-C , 22-C ) :   1.0522 B( 22-C , 23-H ) :   0.9402
B( 22-C , 24-H ) :   0.9288 B( 22-C , 25-C ) :   1.0482 B( 25-C , 26-H ) :   0.9561
B( 25-C , 27-H ) :   0.9581 B( 25-C , 28-C ) :   1.0698 B( 28-C , 29-H ) :   0.9767
B( 28-C , 30-H ) :   0.9766 B( 28-C , 31-H ) :   0.9744

Dispersion correction           -0.014125587
FINAL SINGLE POINT ENERGY     -1339.871485368260

DIPOLE MOMENT
-------------
                                X             Y             Z
Electronic contribution:    -23.51757      -4.91858      -9.77671
Nuclear contribution   :     24.12632       4.96858       9.86840
                        -----------------------------------------
Total Dipole Moment    :      0.60875       0.05000       0.09169
                        -----------------------------------------
Magnitude (a.u.)       :      0.61764
Magnitude (Debye)      :      1.56993

Rotational constants in cm-1:     0.016392     0.008397     0.007210
Rotational constants in MHz :   491.409302   251.740958   216.144710

                             ****ORCA TERMINATED NORMALLY****
TOTAL RUN TIME: 0 days 0 hours 0 minutes 28 seconds 16 msec
