                         Program Version 4.2.1 -  RELEASE  -
|  1> ! wB97X-D3 SP def2-SVP
|  2> %pal
|  3> nprocs 16
|  4> end
|  5>
|  6> * xyz 0 1
|  7> S 	 -57.0326 	 51.0112 	 137.42
|  8> C 	 -55.9741 	 52.3452 	 137.041
|  9> C 	 -55.9335 	 53.2658 	 138.087
| 10> C 	 -56.9578 	 53.0148 	 139.094
| 11> C 	 -57.7278 	 51.9315 	 138.797
| 12> H 	 -57.0943 	 53.5871 	 140.01
| 13> C 	 -54.8846 	 54.3819 	 138.169
| 14> H 	 -54.4452 	 54.37 	 137.167
| 15> H 	 -54.1685 	 54.068 	 138.863
| 16> C 	 -55.4086 	 55.7554 	 138.363
| 17> H 	 -56.0945 	 55.7255 	 139.219
| 18> H 	 -54.6801 	 56.4895 	 138.734
| 19> C 	 -56.1293 	 56.447 	 137.186
| 20> H 	 -57.1899 	 56.1466 	 137.118
| 21> H 	 -56.0679 	 57.5547 	 137.4
| 22> H 	 -55.6181 	 56.3901 	 136.222
| 23> S 	 -58.485 	 49.8161 	 140.402
| 24> C 	 -60.0049 	 49.8858 	 141.219
| 25> C 	 -60.6285 	 51.1511 	 141.103
| 26> C 	 -59.9342 	 51.9846 	 140.216
| 27> C 	 -58.8057 	 51.4079 	 139.609
| 28> H 	 -61.5089 	 51.3655 	 141.652
| 29> C 	 -60.3033 	 53.4551 	 139.937
| 30> H 	 -59.651 	 54.2483 	 140.291
| 31> H 	 -61.1357 	 53.6595 	 140.577
| 32> C 	 -60.6924 	 53.7937 	 138.524
| 33> H 	 -61.5537 	 53.1419 	 138.282
| 34> H 	 -59.8883 	 53.6037 	 137.822
| 35> C 	 -61.1493 	 55.2503 	 138.318
| 36> H 	 -60.3586 	 56.021 	 138.492
| 37> H 	 -62.0748 	 55.4647 	 138.909
| 38> H 	 -61.3804 	 55.3386 	 137.293
| 39> H 	 -55.258 	 52.14 	 136.31
| 40> H 	 -60.4071 	 49.0014 	 141.644
| 41> *
| 42>
| 43>                          ****END OF INPUT****

CARTESIAN COORDINATES (ANGSTROEM)
---------------------------------
  S    -57.032600   51.011200  137.420000
  C    -55.974100   52.345200  137.041000
  C    -55.933500   53.265800  138.087000
  C    -56.957800   53.014800  139.094000
  C    -57.727800   51.931500  138.797000
  H    -57.094300   53.587100  140.010000
  C    -54.884600   54.381900  138.169000
  H    -54.445200   54.370000  137.167000
  H    -54.168500   54.068000  138.863000
  C    -55.408600   55.755400  138.363000
  H    -56.094500   55.725500  139.219000
  H    -54.680100   56.489500  138.734000
  C    -56.129300   56.447000  137.186000
  H    -57.189900   56.146600  137.118000
  H    -56.067900   57.554700  137.400000
  H    -55.618100   56.390100  136.222000
  S    -58.485000   49.816100  140.402000
  C    -60.004900   49.885800  141.219000
  C    -60.628500   51.151100  141.103000
  C    -59.934200   51.984600  140.216000
  C    -58.805700   51.407900  139.609000
  H    -61.508900   51.365500  141.652000
  C    -60.303300   53.455100  139.937000
  H    -59.651000   54.248300  140.291000
  H    -61.135700   53.659500  140.577000
  C    -60.692400   53.793700  138.524000
  H    -61.553700   53.141900  138.282000
  H    -59.888300   53.603700  137.822000
  C    -61.149300   55.250300  138.318000
  H    -60.358600   56.021000  138.492000
  H    -62.074800   55.464700  138.909000
  H    -61.380400   55.338600  137.293000
  H    -55.258000   52.140000  136.310000
  H    -60.407100   49.001400  141.644000

 Total Charge           Charge          ....    0
 Multiplicity           Mult            ....    1
 Number of Electrons    NEL             ....  134
 Basis Dimension        Dim             ....  322

ORBITAL ENERGIES
----------------

  NO   OCC          E(Eh)            E(eV)
   0   2.0000     -88.964490     -2420.8469
   1   2.0000     -88.962597     -2420.7953
   2   2.0000     -10.330835      -281.1163
   3   2.0000     -10.327618      -281.0288
   4   2.0000     -10.317876      -280.7637
   5   2.0000     -10.312397      -280.6146
   6   2.0000     -10.307622      -280.4847
   7   2.0000     -10.307407      -280.4788
   8   2.0000     -10.298265      -280.2300
   9   2.0000     -10.295832      -280.1638
  10   2.0000     -10.287638      -279.9409
  11   2.0000     -10.286281      -279.9039
  12   2.0000     -10.284815      -279.8641
  13   2.0000     -10.283853      -279.8379
  14   2.0000     -10.279470      -279.7186
  15   2.0000     -10.277308      -279.6598
  16   2.0000      -8.079012      -219.8411
  17   2.0000      -8.077201      -219.7918
  18   2.0000      -6.037284      -164.2829
  19   2.0000      -6.035684      -164.2393
  20   2.0000      -6.033581      -164.1821
  21   2.0000      -6.031941      -164.1375
  22   2.0000      -6.030011      -164.0849
  23   2.0000      -6.027773      -164.0240
  24   2.0000      -1.001687       -27.2573
  25   2.0000      -0.979863       -26.6634
  26   2.0000      -0.914651       -24.8889
  27   2.0000      -0.908110       -24.7109
  28   2.0000      -0.869928       -23.6720
  29   2.0000      -0.851208       -23.1626
  30   2.0000      -0.842847       -22.9350
  31   2.0000      -0.813245       -22.1295
  32   2.0000      -0.784741       -21.3539
  33   2.0000      -0.771802       -21.0018
  34   2.0000      -0.708591       -19.2817
  35   2.0000      -0.695217       -18.9178
  36   2.0000      -0.686543       -18.6818
  37   2.0000      -0.664450       -18.0806
  38   2.0000      -0.647344       -17.6151
  39   2.0000      -0.622094       -16.9280
  40   2.0000      -0.600221       -16.3328
  41   2.0000      -0.567511       -15.4427
  42   2.0000      -0.566473       -15.4145
  43   2.0000      -0.556664       -15.1476
  44   2.0000      -0.542298       -14.7567
  45   2.0000      -0.520800       -14.1717
  46   2.0000      -0.518167       -14.1000
  47   2.0000      -0.511936       -13.9305
  48   2.0000      -0.502812       -13.6822
  49   2.0000      -0.499140       -13.5823
  50   2.0000      -0.489389       -13.3170
  51   2.0000      -0.480809       -13.0835
  52   2.0000      -0.470073       -12.7913
  53   2.0000      -0.462877       -12.5955
  54   2.0000      -0.458591       -12.4789
  55   2.0000      -0.445038       -12.1101
  56   2.0000      -0.440498       -11.9866
  57   2.0000      -0.439866       -11.9694
  58   2.0000      -0.431716       -11.7476
  59   2.0000      -0.424134       -11.5413
  60   2.0000      -0.420321       -11.4375
  61   2.0000      -0.411126       -11.1873
  62   2.0000      -0.407763       -11.0958
  63   2.0000      -0.342989        -9.3332
  64   2.0000      -0.333488        -9.0747
  65   2.0000      -0.324784        -8.8378
  66   2.0000      -0.293404        -7.9839
  67   0.0000       0.021598         0.5877
  68   0.0000       0.060747         1.6530
  69   0.0000       0.103910         2.8275
  70   0.0000       0.116296         3.1646
  71   0.0000       0.123894         3.3713

MULLIKEN ATOMIC CHARGES
-----------------------
   0 S :    0.089343
   1 C :   -0.096943
   2 C :   -0.129676
   3 C :    0.034639
   4 C :   -0.156904
   5 H :    0.027620
   6 C :    0.141679
   7 H :    0.010632
   8 H :    0.033378
   9 C :   -0.092735
  10 H :    0.015034
  11 H :    0.026169
  12 C :   -0.072796
  13 H :    0.052681
  14 H :    0.034224
  15 H :    0.033742
  16 S :    0.096274
  17 C :   -0.091120
  18 C :   -0.022641
  19 C :   -0.013470
  20 C :   -0.144980
  21 H :    0.009599
  22 C :    0.091255
  23 H :    0.017421
  24 H :   -0.013851
  25 C :   -0.093886
  26 H :    0.030471
  27 H :    0.045406
  28 C :   -0.051518
  29 H :    0.036237
  30 H :    0.035367
  31 H :    0.024480
  32 H :    0.040325
  33 H :    0.054546
Sum of atomic charges:    0.0000000

LOEWDIN ATOMIC CHARGES
----------------------
   0 S :    0.382441
   1 C :   -0.188288
   2 C :   -0.054535
   3 C :   -0.055655
   4 C :   -0.184128
   5 H :    0.035815
   6 C :   -0.028066
   7 H :    0.031727
   8 H :    0.029563
   9 C :   -0.052743
  10 H :    0.021736
  11 H :    0.027260
  12 C :   -0.069653
  13 H :    0.029318
  14 H :    0.034277
  15 H :    0.024298
  16 S :    0.399744
  17 C :   -0.179892
  18 C :   -0.068808
  19 C :   -0.049925
  20 C :   -0.183681
  21 H :    0.028760
  22 C :   -0.037433
  23 H :    0.026586
  24 H :    0.022847
  25 C :   -0.040069
  26 H :    0.028230
  27 H :    0.024815
  28 C :   -0.066358
  29 H :    0.026940
  30 H :    0.027938
  31 H :    0.021786
  32 H :    0.014802
  33 H :    0.020352

  Mayer bond orders larger than 0.100000
B(  0-S ,  1-C ) :   1.1352 B(  0-S ,  4-C ) :   1.1331 B(  1-C ,  2-C ) :   1.6254
B(  1-C , 32-H ) :   0.9737 B(  2-C ,  3-C ) :   1.2081 B(  2-C ,  6-C ) :   1.0118
B(  3-C ,  4-C ) :   1.5928 B(  3-C ,  5-H ) :   0.9927 B(  4-C , 20-C ) :   1.0497
B(  6-C ,  7-H ) :   0.9403 B(  6-C ,  8-H ) :   0.9322 B(  6-C ,  9-C ) :   1.0746
B(  9-C , 10-H ) :   0.9524 B(  9-C , 11-H ) :   0.9567 B(  9-C , 12-C ) :   1.0734
B( 12-C , 13-H ) :   0.9766 B( 12-C , 14-H ) :   0.9762 B( 12-C , 15-H ) :   0.9745
B( 16-S , 17-C ) :   1.1917 B( 16-S , 20-C ) :   1.1433 B( 17-C , 18-C ) :   1.5430
B( 17-C , 20-C ) :   0.1177 B( 17-C , 33-H ) :   0.9713 B( 18-C , 19-C ) :   1.2850
B( 18-C , 21-H ) :   1.0012 B( 19-C , 20-C ) :   1.5605 B( 19-C , 22-C ) :   1.0271
B( 22-C , 23-H ) :   0.9358 B( 22-C , 24-H ) :   0.9239 B( 22-C , 25-C ) :   1.0688
B( 25-C , 26-H ) :   0.9513 B( 25-C , 27-H ) :   0.9548 B( 25-C , 28-C ) :   1.0939
B( 28-C , 29-H ) :   0.9715 B( 28-C , 30-H ) :   0.9736 B( 28-C , 31-H ) :   0.9727

Dispersion correction           -0.014760666
FINAL SINGLE POINT ENERGY     -1339.870785917703

DIPOLE MOMENT
-------------
                                X             Y             Z
Electronic contribution:      3.08551     -30.21036       4.78692
Nuclear contribution   :     -2.99014      30.78935      -4.55756
                        -----------------------------------------
Total Dipole Moment    :      0.09538       0.57898       0.22936
                        -----------------------------------------
Magnitude (a.u.)       :      0.63002
Magnitude (Debye)      :      1.60139

Rotational constants in cm-1:     0.017834     0.009752     0.007287
Rotational constants in MHz :   534.649295   292.368860   218.471693

                             ****ORCA TERMINATED NORMALLY****
TOTAL RUN TIME: 0 days 0 hours 0 minutes 34 seconds 63 msec
