                         Program Version 4.2.1 -  RELEASE  -
|  1> ! wB97X-D3 SP def2-SVP
|  2> %pal
|  3> nprocs 16
|  4> end
|  5>
|  6> * xyz 0 1
|  7> S 	 -2.83335 	 -22.0826 	 84.1049
|  8> C 	 -2.59995 	 -20.7506 	 82.9045
|  9> C 	 -1.99055 	 -19.6568 	 83.5038
| 10> C 	 -1.84536 	 -19.8687 	 84.9135
| 11> C 	 -2.19456 	 -21.156 	 85.3854
| 12> H 	 -1.44947 	 -19.2677 	 85.686
| 13> C 	 -1.67894 	 -18.2785 	 82.9193
| 14> H 	 -2.20755 	 -17.6887 	 83.6502
| 15> H 	 -2.19893 	 -17.9758 	 82.0643
| 16> C 	 -0.214977 	 -17.8477 	 82.6972
| 17> H 	 -0.154175 	 -16.7937 	 82.4077
| 18> H 	 0.389923 	 -17.9902 	 83.6299
| 19> C 	 0.438219 	 -18.7125 	 81.6155
| 20> H 	 0.264818 	 -19.8033 	 81.7867
| 21> H 	 0.103276 	 -18.4872 	 80.5858
| 22> H 	 1.53077 	 -18.6029 	 81.6968
| 23> S 	 -1.63649 	 -23.433 	 87.0303
| 24> C 	 -1.64263 	 -23.2533 	 88.737
| 25> C 	 -1.9193 	 -21.9112 	 88.9971
| 26> C 	 -2.14433 	 -21.0317 	 87.9068
| 27> C 	 -1.99462 	 -21.6873 	 86.7122
| 28> H 	 -1.98974 	 -21.738 	 90.046
| 29> C 	 -2.72668 	 -19.6161 	 88.1048
| 30> H 	 -3.67528 	 -19.8117 	 88.5967
| 31> H 	 -3.0691 	 -19.0894 	 87.2201
| 32> C 	 -1.85831 	 -18.7585 	 89.0165
| 33> H 	 -0.903812 	 -18.66 	 88.4557
| 34> H 	 -1.5438 	 -19.3016 	 89.9211
| 35> C 	 -2.34716 	 -17.3878 	 89.2324
| 36> H 	 -2.43066 	 -16.8331 	 88.3126
| 37> H 	 -1.54801 	 -16.7918 	 89.7053
| 38> H 	 -3.28947 	 -17.3355 	 89.7439
| 39> H 	 -3.0228 	 -20.5743 	 81.881
| 40> H 	 -1.39346 	 -24.1129 	 89.4448
| 41> *
| 42>
| 43>                          ****END OF INPUT****

CARTESIAN COORDINATES (ANGSTROEM)
---------------------------------
  S     -2.833350  -22.082600   84.104900
  C     -2.599950  -20.750600   82.904500
  C     -1.990550  -19.656800   83.503800
  C     -1.845360  -19.868700   84.913500
  C     -2.194560  -21.156000   85.385400
  H     -1.449470  -19.267700   85.686000
  C     -1.678940  -18.278500   82.919300
  H     -2.207550  -17.688700   83.650200
  H     -2.198930  -17.975800   82.064300
  C     -0.214977  -17.847700   82.697200
  H     -0.154175  -16.793700   82.407700
  H      0.389923  -17.990200   83.629900
  C      0.438219  -18.712500   81.615500
  H      0.264818  -19.803300   81.786700
  H      0.103276  -18.487200   80.585800
  H      1.530770  -18.602900   81.696800
  S     -1.636490  -23.433000   87.030300
  C     -1.642630  -23.253300   88.737000
  C     -1.919300  -21.911200   88.997100
  C     -2.144330  -21.031700   87.906800
  C     -1.994620  -21.687300   86.712200
  H     -1.989740  -21.738000   90.046000
  C     -2.726680  -19.616100   88.104800
  H     -3.675280  -19.811700   88.596700
  H     -3.069100  -19.089400   87.220100
  C     -1.858310  -18.758500   89.016500
  H     -0.903812  -18.660000   88.455700
  H     -1.543800  -19.301600   89.921100
  C     -2.347160  -17.387800   89.232400
  H     -2.430660  -16.833100   88.312600
  H     -1.548010  -16.791800   89.705300
  H     -3.289470  -17.335500   89.743900
  H     -3.022800  -20.574300   81.881000
  H     -1.393460  -24.112900   89.444800

 Total Charge           Charge          ....    0
 Multiplicity           Mult            ....    1
 Number of Electrons    NEL             ....  134
 Basis Dimension        Dim             ....  322

ORBITAL ENERGIES
----------------

  NO   OCC          E(Eh)            E(eV)
   0   2.0000     -88.969717     -2420.9891
   1   2.0000     -88.964847     -2420.8565
   2   2.0000     -10.331786      -281.1422
   3   2.0000     -10.330352      -281.1032
   4   2.0000     -10.325843      -280.9805
   5   2.0000     -10.320722      -280.8411
   6   2.0000     -10.308350      -280.5045
   7   2.0000     -10.307171      -280.4724
   8   2.0000     -10.294033      -280.1149
   9   2.0000     -10.293742      -280.1070
  10   2.0000     -10.292833      -280.0822
  11   2.0000     -10.291608      -280.0489
  12   2.0000     -10.289380      -279.9883
  13   2.0000     -10.285898      -279.8935
  14   2.0000     -10.278614      -279.6953
  15   2.0000     -10.275085      -279.5993
  16   2.0000      -8.083876      -219.9734
  17   2.0000      -8.079390      -219.8514
  18   2.0000      -6.042536      -164.4258
  19   2.0000      -6.038352      -164.3119
  20   2.0000      -6.037953      -164.3010
  21   2.0000      -6.034595      -164.2097
  22   2.0000      -6.033842      -164.1892
  23   2.0000      -6.030160      -164.0890
  24   2.0000      -1.007419       -27.4133
  25   2.0000      -0.983425       -26.7603
  26   2.0000      -0.917701       -24.9719
  27   2.0000      -0.912878       -24.8407
  28   2.0000      -0.872656       -23.7462
  29   2.0000      -0.857354       -23.3298
  30   2.0000      -0.840721       -22.8772
  31   2.0000      -0.808064       -21.9885
  32   2.0000      -0.788557       -21.4577
  33   2.0000      -0.780905       -21.2495
  34   2.0000      -0.706719       -19.2308
  35   2.0000      -0.700292       -19.0559
  36   2.0000      -0.695742       -18.9321
  37   2.0000      -0.658001       -17.9051
  38   2.0000      -0.637434       -17.3455
  39   2.0000      -0.619803       -16.8657
  40   2.0000      -0.601888       -16.3782
  41   2.0000      -0.569599       -15.4996
  42   2.0000      -0.567482       -15.4420
  43   2.0000      -0.551304       -15.0017
  44   2.0000      -0.539061       -14.6686
  45   2.0000      -0.534204       -14.5364
  46   2.0000      -0.517060       -14.0699
  47   2.0000      -0.515509       -14.0277
  48   2.0000      -0.505583       -13.7576
  49   2.0000      -0.499357       -13.5882
  50   2.0000      -0.491602       -13.3772
  51   2.0000      -0.482639       -13.1333
  52   2.0000      -0.471062       -12.8182
  53   2.0000      -0.467355       -12.7174
  54   2.0000      -0.458885       -12.4869
  55   2.0000      -0.452105       -12.3024
  56   2.0000      -0.439313       -11.9543
  57   2.0000      -0.433686       -11.8012
  58   2.0000      -0.430925       -11.7261
  59   2.0000      -0.425191       -11.5700
  60   2.0000      -0.420278       -11.4364
  61   2.0000      -0.412761       -11.2318
  62   2.0000      -0.407416       -11.0863
  63   2.0000      -0.358798        -9.7634
  64   2.0000      -0.332751        -9.0546
  65   2.0000      -0.329280        -8.9602
  66   2.0000      -0.284451        -7.7403
  67   0.0000       0.021297         0.5795
  68   0.0000       0.076721         2.0877
  69   0.0000       0.105080         2.8594
  70   0.0000       0.121609         3.3091
  71   0.0000       0.126351         3.4382

MULLIKEN ATOMIC CHARGES
-----------------------
   0 S :    0.113544
   1 C :   -0.129685
   2 C :   -0.077454
   3 C :    0.019636
   4 C :   -0.169389
   5 H :   -0.007403
   6 C :    0.080502
   7 H :    0.023865
   8 H :   -0.000337
   9 C :   -0.062027
  10 H :    0.037639
  11 H :    0.034752
  12 C :   -0.084966
  13 H :    0.046594
  14 H :    0.033703
  15 H :    0.036572
  16 S :    0.096962
  17 C :   -0.135459
  18 C :   -0.042839
  19 C :   -0.004549
  20 C :   -0.132796
  21 H :    0.011240
  22 C :    0.069011
  23 H :    0.028945
  24 H :    0.020989
  25 C :   -0.105258
  26 H :    0.021279
  27 H :    0.034678
  28 C :   -0.000343
  29 H :    0.014802
  30 H :    0.032245
  31 H :    0.032626
  32 H :    0.064416
  33 H :    0.098507
Sum of atomic charges:    0.0000000

LOEWDIN ATOMIC CHARGES
----------------------
   0 S :    0.411003
   1 C :   -0.203385
   2 C :   -0.056430
   3 C :   -0.068025
   4 C :   -0.199273
   5 H :    0.020700
   6 C :   -0.034337
   7 H :    0.034812
   8 H :    0.021160
   9 C :   -0.039153
  10 H :    0.027838
  11 H :    0.028000
  12 C :   -0.074630
  13 H :    0.031726
  14 H :    0.023804
  15 H :    0.027733
  16 S :    0.389591
  17 C :   -0.204984
  18 C :   -0.077187
  19 C :   -0.053767
  20 C :   -0.181702
  21 H :    0.024542
  22 C :   -0.028265
  23 H :    0.033206
  24 H :    0.028761
  25 C :   -0.049656
  26 H :    0.027533
  27 H :    0.025952
  28 C :   -0.065385
  29 H :    0.024827
  30 H :    0.034215
  31 H :    0.022532
  32 H :    0.044744
  33 H :    0.053496

  Mayer bond orders larger than 0.100000
B(  0-S ,  1-C ) :   1.1208 B(  0-S ,  4-C ) :   1.1556 B(  1-C ,  2-C ) :   1.6105
B(  1-C , 32-H ) :   0.9580 B(  2-C ,  3-C ) :   1.2383 B(  2-C ,  6-C ) :   1.0022
B(  3-C ,  4-C ) :   1.5514 B(  3-C ,  5-H ) :   0.9938 B(  4-C , 20-C ) :   1.0860
B(  6-C ,  7-H ) :   0.9391 B(  6-C ,  8-H ) :   0.9440 B(  6-C ,  9-C ) :   1.0709
B(  9-C , 10-H ) :   0.9545 B(  9-C , 11-H ) :   0.9589 B(  9-C , 12-C ) :   1.0717
B( 12-C , 13-H ) :   0.9749 B( 12-C , 14-H ) :   0.9755 B( 12-C , 15-H ) :   0.9750
B( 16-S , 17-C ) :   1.1609 B( 16-S , 20-C ) :   1.1260 B( 17-C , 18-C ) :   1.5939
B( 17-C , 33-H ) :   0.9594 B( 18-C , 19-C ) :   1.2380 B( 18-C , 21-H ) :   0.9956
B( 19-C , 20-C ) :   1.5812 B( 19-C , 22-C ) :   1.0246 B( 22-C , 23-H ) :   0.9299
B( 22-C , 24-H ) :   0.9400 B( 22-C , 25-C ) :   1.0532 B( 25-C , 26-H ) :   0.9500
B( 25-C , 27-H ) :   0.9538 B( 25-C , 28-C ) :   1.1033 B( 28-C , 29-H ) :   0.9637
B( 28-C , 30-H ) :   0.9672 B( 28-C , 31-H ) :   0.9718

Dispersion correction           -0.013959080
FINAL SINGLE POINT ENERGY     -1339.864559385724

DIPOLE MOMENT
-------------
                                X             Y             Z
Electronic contribution:     -6.59627     -27.91588       0.08896
Nuclear contribution   :      6.57061      28.63828       0.22599
                        -----------------------------------------
Total Dipole Moment    :     -0.02567       0.72240       0.31495
                        -----------------------------------------
Magnitude (a.u.)       :      0.78849
Magnitude (Debye)      :      2.00419

Rotational constants in cm-1:     0.016923     0.008978     0.006576
Rotational constants in MHz :   507.349790   269.159786   197.132356

                             ****ORCA TERMINATED NORMALLY****
TOTAL RUN TIME: 0 days 0 hours 0 minutes 31 seconds 793 msec
