                         Program Version 4.2.1 -  RELEASE  -
|  1> ! wB97X-D3 SP def2-SVP
|  2> %pal
|  3> nprocs 16
|  4> end
|  5>
|  6> * xyz 0 1
|  7> S 	 4.71009 	 -7.88852 	 77.607
|  8> C 	 5.38522 	 -8.47801 	 79.1106
|  9> C 	 5.35089 	 -7.64311 	 80.2121
| 10> C 	 4.66848 	 -6.45213 	 79.7672
| 11> C 	 4.2692 	 -6.43752 	 78.4604
| 12> H 	 4.46529 	 -5.54615 	 80.3479
| 13> C 	 5.97098 	 -7.84776 	 81.5661
| 14> H 	 6.64119 	 -6.9796 	 81.6435
| 15> H 	 6.73024 	 -8.61387 	 81.5643
| 16> C 	 4.96381 	 -7.79519 	 82.7042
| 17> H 	 5.46517 	 -7.53862 	 83.6643
| 18> H 	 4.2742 	 -6.96608 	 82.5291
| 19> C 	 4.04439 	 -9.01643 	 82.7887
| 20> H 	 3.01198 	 -8.73094 	 82.9883
| 21> H 	 4.15927 	 -9.75561 	 81.9767
| 22> H 	 4.27436 	 -9.65171 	 83.6087
| 23> S 	 4.42942 	 -4.71975 	 76.4262
| 24> C 	 3.19281 	 -3.54166 	 76.2162
| 25> C 	 2.14591 	 -3.71831 	 77.0616
| 26> C 	 2.36962 	 -4.80842 	 77.9607
| 27> C 	 3.58011 	 -5.44073 	 77.7434
| 28> H 	 1.35547 	 -2.92656 	 77.0151
| 29> C 	 1.36361 	 -5.05964 	 79.065
| 30> H 	 1.19184 	 -4.04871 	 79.5686
| 31> H 	 1.83212 	 -5.7196 	 79.8315
| 32> C 	 0.0234411 	 -5.62731 	 78.6121
| 33> H 	 -0.491292 	 -5.10419 	 77.8539
| 34> H 	 -0.629778 	 -5.75085 	 79.4423
| 35> C 	 0.321761 	 -6.86896 	 77.8184
| 36> H 	 0.841307 	 -6.72639 	 76.8899
| 37> H 	 -0.564524 	 -7.49914 	 77.515
| 38> H 	 0.985147 	 -7.59765 	 78.3389
| 39> H 	 5.89436 	 -9.40173 	 79.2183
| 40> H 	 3.13301 	 -2.79731 	 75.4147
| 41> *
| 42>
| 43>                          ****END OF INPUT****

CARTESIAN COORDINATES (ANGSTROEM)
---------------------------------
  S      4.710090   -7.888520   77.607000
  C      5.385220   -8.478010   79.110600
  C      5.350890   -7.643110   80.212100
  C      4.668480   -6.452130   79.767200
  C      4.269200   -6.437520   78.460400
  H      4.465290   -5.546150   80.347900
  C      5.970980   -7.847760   81.566100
  H      6.641190   -6.979600   81.643500
  H      6.730240   -8.613870   81.564300
  C      4.963810   -7.795190   82.704200
  H      5.465170   -7.538620   83.664300
  H      4.274200   -6.966080   82.529100
  C      4.044390   -9.016430   82.788700
  H      3.011980   -8.730940   82.988300
  H      4.159270   -9.755610   81.976700
  H      4.274360   -9.651710   83.608700
  S      4.429420   -4.719750   76.426200
  C      3.192810   -3.541660   76.216200
  C      2.145910   -3.718310   77.061600
  C      2.369620   -4.808420   77.960700
  C      3.580110   -5.440730   77.743400
  H      1.355470   -2.926560   77.015100
  C      1.363610   -5.059640   79.065000
  H      1.191840   -4.048710   79.568600
  H      1.832120   -5.719600   79.831500
  C      0.023441   -5.627310   78.612100
  H     -0.491292   -5.104190   77.853900
  H     -0.629778   -5.750850   79.442300
  C      0.321761   -6.868960   77.818400
  H      0.841307   -6.726390   76.889900
  H     -0.564524   -7.499140   77.515000
  H      0.985147   -7.597650   78.338900
  H      5.894360   -9.401730   79.218300
  H      3.133010   -2.797310   75.414700

 Total Charge           Charge          ....    0
 Multiplicity           Mult            ....    1
 Number of Electrons    NEL             ....  134
 Basis Dimension        Dim             ....  322

ORBITAL ENERGIES
----------------

  NO   OCC          E(Eh)            E(eV)
   0   2.0000     -88.965894     -2420.8851
   1   2.0000     -88.962228     -2420.7853
   2   2.0000     -10.319439      -280.8062
   3   2.0000     -10.317031      -280.7407
   4   2.0000     -10.311454      -280.5889
   5   2.0000     -10.308417      -280.5063
   6   2.0000     -10.302532      -280.3461
   7   2.0000     -10.301828      -280.3270
   8   2.0000     -10.296314      -280.1769
   9   2.0000     -10.295404      -280.1522
  10   2.0000     -10.293259      -280.0938
  11   2.0000     -10.292006      -280.0597
  12   2.0000     -10.291928      -280.0576
  13   2.0000     -10.276895      -279.6485
  14   2.0000     -10.273278      -279.5501
  15   2.0000     -10.268340      -279.4157
  16   2.0000      -8.081001      -219.8952
  17   2.0000      -8.078275      -219.8210
  18   2.0000      -6.039362      -164.3394
  19   2.0000      -6.036666      -164.2660
  20   2.0000      -6.035713      -164.2401
  21   2.0000      -6.032591      -164.1552
  22   2.0000      -6.031642      -164.1293
  23   2.0000      -6.029077      -164.0595
  24   2.0000      -1.014737       -27.6124
  25   2.0000      -0.987307       -26.8660
  26   2.0000      -0.918002       -24.9801
  27   2.0000      -0.913505       -24.8577
  28   2.0000      -0.874571       -23.7983
  29   2.0000      -0.849838       -23.1253
  30   2.0000      -0.845138       -22.9974
  31   2.0000      -0.814360       -22.1599
  32   2.0000      -0.788110       -21.4456
  33   2.0000      -0.769788       -20.9470
  34   2.0000      -0.714582       -19.4448
  35   2.0000      -0.699809       -19.0428
  36   2.0000      -0.692603       -18.8467
  37   2.0000      -0.656409       -17.8618
  38   2.0000      -0.644403       -17.5351
  39   2.0000      -0.620620       -16.8879
  40   2.0000      -0.597391       -16.2558
  41   2.0000      -0.569455       -15.4957
  42   2.0000      -0.553824       -15.0703
  43   2.0000      -0.548945       -14.9376
  44   2.0000      -0.540658       -14.7120
  45   2.0000      -0.533680       -14.5222
  46   2.0000      -0.521384       -14.1876
  47   2.0000      -0.513052       -13.9608
  48   2.0000      -0.504200       -13.7200
  49   2.0000      -0.495018       -13.4701
  50   2.0000      -0.487883       -13.2760
  51   2.0000      -0.472914       -12.8686
  52   2.0000      -0.467765       -12.7285
  53   2.0000      -0.462766       -12.5925
  54   2.0000      -0.451687       -12.2910
  55   2.0000      -0.449098       -12.2206
  56   2.0000      -0.443877       -12.0785
  57   2.0000      -0.443021       -12.0552
  58   2.0000      -0.428308       -11.6549
  59   2.0000      -0.424820       -11.5599
  60   2.0000      -0.421947       -11.4817
  61   2.0000      -0.416017       -11.3204
  62   2.0000      -0.407928       -11.1003
  63   2.0000      -0.342732        -9.3262
  64   2.0000      -0.332204        -9.0397
  65   2.0000      -0.327340        -8.9074
  66   2.0000      -0.295834        -8.0500
  67   0.0000       0.041191         1.1209
  68   0.0000       0.070022         1.9054
  69   0.0000       0.113962         3.1011
  70   0.0000       0.120187         3.2704
  71   0.0000       0.126583         3.4445

MULLIKEN ATOMIC CHARGES
-----------------------
   0 S :    0.121229
   1 C :   -0.098289
   2 C :   -0.094860
   3 C :    0.028057
   4 C :   -0.177301
   5 H :    0.014987
   6 C :    0.090663
   7 H :    0.030114
   8 H :    0.015760
   9 C :   -0.068830
  10 H :    0.037048
  11 H :    0.028000
  12 C :   -0.037691
  13 H :    0.034265
  14 H :    0.035818
  15 H :    0.013634
  16 S :    0.115705
  17 C :   -0.089773
  18 C :   -0.067412
  19 C :   -0.027412
  20 C :   -0.173090
  21 H :    0.037722
  22 C :    0.033016
  23 H :    0.039089
  24 H :    0.032423
  25 C :    0.013987
  26 H :    0.020007
  27 H :    0.028018
  28 C :   -0.102221
  29 H :    0.039436
  30 H :    0.030233
  31 H :    0.022970
  32 H :    0.019621
  33 H :    0.055076
Sum of atomic charges:   -0.0000000

LOEWDIN ATOMIC CHARGES
----------------------
   0 S :    0.406005
   1 C :   -0.189131
   2 C :   -0.057972
   3 C :   -0.058850
   4 C :   -0.202344
   5 H :    0.031982
   6 C :   -0.033353
   7 H :    0.041280
   8 H :    0.028515
   9 C :   -0.042417
  10 H :    0.029274
  11 H :    0.027434
  12 C :   -0.071904
  13 H :    0.028972
  14 H :    0.031580
  15 H :    0.021692
  16 S :    0.424348
  17 C :   -0.194121
  18 C :   -0.080896
  19 C :   -0.054279
  20 C :   -0.218451
  21 H :    0.042461
  22 C :   -0.033287
  23 H :    0.036544
  24 H :    0.031962
  25 C :   -0.038032
  26 H :    0.023222
  27 H :    0.023526
  28 C :   -0.073615
  29 H :    0.023818
  30 H :    0.026962
  31 H :    0.022169
  32 H :    0.014683
  33 H :    0.032221

  Mayer bond orders larger than 0.100000
B(  0-S ,  1-C ) :   1.1335 B(  0-S ,  4-C ) :   1.1312 B(  1-C ,  2-C ) :   1.6493
B(  1-C , 32-H ) :   0.9620 B(  2-C ,  3-C ) :   1.1975 B(  2-C ,  6-C ) :   1.0170
B(  3-C ,  4-C ) :   1.6387 B(  3-C ,  5-H ) :   0.9852 B(  4-C , 20-C ) :   1.0305
B(  6-C ,  7-H ) :   0.9296 B(  6-C ,  8-H ) :   0.9436 B(  6-C ,  9-C ) :   1.0713
B(  9-C , 10-H ) :   0.9574 B(  9-C , 11-H ) :   0.9649 B(  9-C , 12-C ) :   1.0515
B( 12-C , 13-H ) :   0.9793 B( 12-C , 14-H ) :   0.9787 B( 12-C , 15-H ) :   0.9721
B( 16-S , 17-C ) :   1.1538 B( 16-S , 20-C ) :   1.1487 B( 17-C , 18-C ) :   1.6461
B( 17-C , 33-H ) :   0.9607 B( 18-C , 19-C ) :   1.2118 B( 18-C , 21-H ) :   0.9842
B( 19-C , 20-C ) :   1.5979 B( 19-C , 22-C ) :   1.0406 B( 22-C , 23-H ) :   0.9361
B( 22-C , 24-H ) :   0.9368 B( 22-C , 25-C ) :   1.0739 B( 25-C , 26-H ) :   0.9544
B( 25-C , 27-H ) :   0.9562 B( 25-C , 28-C ) :   1.0587 B( 28-C , 29-H ) :   0.9689
B( 28-C , 30-H ) :   0.9728 B( 28-C , 31-H ) :   0.9762

Dispersion correction           -0.015298636
FINAL SINGLE POINT ENERGY     -1339.874596733974

DIPOLE MOMENT
-------------
                                X             Y             Z
Electronic contribution:     12.52045       6.64751     -20.76600
Nuclear contribution   :    -12.66135      -6.47400      21.32519
                        -----------------------------------------
Total Dipole Moment    :     -0.14090       0.17352       0.55920
                        -----------------------------------------
Magnitude (a.u.)       :      0.60222
Magnitude (Debye)      :      1.53071

Rotational constants in cm-1:     0.020328     0.009058     0.007581
Rotational constants in MHz :   609.430210   271.544288   227.278695

                             ****ORCA TERMINATED NORMALLY****
TOTAL RUN TIME: 0 days 0 hours 0 minutes 36 seconds 753 msec
