                         Program Version 4.2.1 -  RELEASE  -
|  1> ! wB97X-D3 SP def2-SVP
|  2> %pal
|  3> nprocs 16
|  4> end
|  5>
|  6> * xyz 0 1
|  7> S 	 28.1828 	 -5.6245 	 80.2404
|  8> C 	 29.156 	 -5.65232 	 78.7353
|  9> C 	 28.9229 	 -4.4606 	 78.0019
| 10> C 	 27.9954 	 -3.61448 	 78.663
| 11> C 	 27.588 	 -4.03963 	 79.9129
| 12> H 	 27.8265 	 -2.61734 	 78.2373
| 13> C 	 29.6574 	 -4.0028 	 76.8248
| 14> H 	 29.7398 	 -2.94776 	 77.0208
| 15> H 	 29.0928 	 -4.12457 	 75.8707
| 16> C 	 31.0917 	 -4.5971 	 76.6598
| 17> H 	 31.0999 	 -5.7099 	 76.5242
| 18> H 	 31.3901 	 -4.24522 	 75.6728
| 19> C 	 32.0362 	 -4.24047 	 77.8162
| 20> H 	 32.1553 	 -3.13377 	 77.8798
| 21> H 	 31.7902 	 -4.53941 	 78.8737
| 22> H 	 32.9648 	 -4.69773 	 77.4996
| 23> S 	 26.339 	 -1.6951 	 80.4521
| 24> C 	 25.7911 	 -1.34541 	 82.1206
| 25> C 	 25.93 	 -2.40103 	 82.9488
| 26> C 	 26.6423 	 -3.51545 	 82.3236
| 27> C 	 26.9072 	 -3.28915 	 80.9416
| 28> H 	 25.644 	 -2.23923 	 83.9926
| 29> C 	 26.8828 	 -4.80333 	 83.1554
| 30> H 	 26.9195 	 -4.55388 	 84.255
| 31> H 	 27.8445 	 -5.09262 	 82.9167
| 32> C 	 25.7515 	 -5.88561 	 82.8313
| 33> H 	 25.9987 	 -6.82502 	 83.3409
| 34> H 	 25.8915 	 -6.06171 	 81.7685
| 35> C 	 24.2522 	 -5.53581 	 83.143
| 36> H 	 23.6658 	 -6.20268 	 82.4226
| 37> H 	 23.997 	 -4.49466 	 82.8411
| 38> H 	 23.9698 	 -5.61774 	 84.1826
| 39> H 	 29.8571 	 -6.46565 	 78.4332
| 40> H 	 25.2616 	 -0.469891 	 82.5426
| 41> *
| 42>
| 43>                          ****END OF INPUT****

CARTESIAN COORDINATES (ANGSTROEM)
---------------------------------
  S     28.182800   -5.624500   80.240400
  C     29.156000   -5.652320   78.735300
  C     28.922900   -4.460600   78.001900
  C     27.995400   -3.614480   78.663000
  C     27.588000   -4.039630   79.912900
  H     27.826500   -2.617340   78.237300
  C     29.657400   -4.002800   76.824800
  H     29.739800   -2.947760   77.020800
  H     29.092800   -4.124570   75.870700
  C     31.091700   -4.597100   76.659800
  H     31.099900   -5.709900   76.524200
  H     31.390100   -4.245220   75.672800
  C     32.036200   -4.240470   77.816200
  H     32.155300   -3.133770   77.879800
  H     31.790200   -4.539410   78.873700
  H     32.964800   -4.697730   77.499600
  S     26.339000   -1.695100   80.452100
  C     25.791100   -1.345410   82.120600
  C     25.930000   -2.401030   82.948800
  C     26.642300   -3.515450   82.323600
  C     26.907200   -3.289150   80.941600
  H     25.644000   -2.239230   83.992600
  C     26.882800   -4.803330   83.155400
  H     26.919500   -4.553880   84.255000
  H     27.844500   -5.092620   82.916700
  C     25.751500   -5.885610   82.831300
  H     25.998700   -6.825020   83.340900
  H     25.891500   -6.061710   81.768500
  C     24.252200   -5.535810   83.143000
  H     23.665800   -6.202680   82.422600
  H     23.997000   -4.494660   82.841100
  H     23.969800   -5.617740   84.182600
  H     29.857100   -6.465650   78.433200
  H     25.261600   -0.469891   82.542600

 Total Charge           Charge          ....    0
 Multiplicity           Mult            ....    1
 Number of Electrons    NEL             ....  134
 Basis Dimension        Dim             ....  322

ORBITAL ENERGIES
----------------

  NO   OCC          E(Eh)            E(eV)
   0   2.0000     -88.969514     -2420.9836
   1   2.0000     -88.966812     -2420.9100
   2   2.0000     -10.335103      -281.2325
   3   2.0000     -10.333103      -281.1780
   4   2.0000     -10.320672      -280.8398
   5   2.0000     -10.318183      -280.7720
   6   2.0000     -10.312820      -280.6261
   7   2.0000     -10.300632      -280.2944
   8   2.0000     -10.295307      -280.1496
   9   2.0000     -10.294252      -280.1208
  10   2.0000     -10.294158      -280.1183
  11   2.0000     -10.292537      -280.0742
  12   2.0000     -10.291293      -280.0403
  13   2.0000     -10.290315      -280.0137
  14   2.0000     -10.283357      -279.8244
  15   2.0000     -10.283001      -279.8147
  16   2.0000      -8.083171      -219.9543
  17   2.0000      -8.080514      -219.8820
  18   2.0000      -6.041813      -164.4061
  19   2.0000      -6.039329      -164.3385
  20   2.0000      -6.037701      -164.2942
  21   2.0000      -6.035279      -164.2283
  22   2.0000      -6.033989      -164.1932
  23   2.0000      -6.030914      -164.1095
  24   2.0000      -1.005486       -27.3607
  25   2.0000      -0.978216       -26.6186
  26   2.0000      -0.916588       -24.9416
  27   2.0000      -0.894063       -24.3287
  28   2.0000      -0.868884       -23.6435
  29   2.0000      -0.852737       -23.2042
  30   2.0000      -0.833529       -22.6815
  31   2.0000      -0.811389       -22.0790
  32   2.0000      -0.784547       -21.3486
  33   2.0000      -0.769164       -20.9300
  34   2.0000      -0.709901       -19.3174
  35   2.0000      -0.706220       -19.2172
  36   2.0000      -0.686708       -18.6863
  37   2.0000      -0.658416       -17.9164
  38   2.0000      -0.629006       -17.1161
  39   2.0000      -0.610559       -16.6142
  40   2.0000      -0.586158       -15.9502
  41   2.0000      -0.572367       -15.5749
  42   2.0000      -0.555795       -15.1240
  43   2.0000      -0.547383       -14.8950
  44   2.0000      -0.535956       -14.5841
  45   2.0000      -0.533562       -14.5190
  46   2.0000      -0.517383       -14.0787
  47   2.0000      -0.514644       -14.0042
  48   2.0000      -0.501535       -13.6475
  49   2.0000      -0.496139       -13.5006
  50   2.0000      -0.484819       -13.1926
  51   2.0000      -0.476228       -12.9588
  52   2.0000      -0.468997       -12.7621
  53   2.0000      -0.466136       -12.6842
  54   2.0000      -0.459657       -12.5079
  55   2.0000      -0.447290       -12.1714
  56   2.0000      -0.439508       -11.9596
  57   2.0000      -0.436964       -11.8904
  58   2.0000      -0.428191       -11.6517
  59   2.0000      -0.419459       -11.4141
  60   2.0000      -0.417368       -11.3572
  61   2.0000      -0.413510       -11.2522
  62   2.0000      -0.410112       -11.1597
  63   2.0000      -0.363309        -9.8861
  64   2.0000      -0.331492        -9.0204
  65   2.0000      -0.328471        -8.9382
  66   2.0000      -0.277700        -7.5566
  67   0.0000       0.015108         0.4111
  68   0.0000       0.084449         2.2980
  69   0.0000       0.103059         2.8044
  70   0.0000       0.118180         3.2158
  71   0.0000       0.125424         3.4130

MULLIKEN ATOMIC CHARGES
-----------------------
   0 S :    0.088607
   1 C :   -0.140652
   2 C :   -0.092352
   3 C :   -0.027444
   4 C :   -0.085513
   5 H :    0.023627
   6 C :    0.058549
   7 H :    0.020772
   8 H :    0.053127
   9 C :   -0.093585
  10 H :    0.030981
  11 H :    0.026485
  12 C :   -0.067952
  13 H :    0.034406
  14 H :    0.062094
  15 H :    0.035261
  16 S :    0.081949
  17 C :   -0.083021
  18 C :   -0.043795
  19 C :   -0.105333
  20 C :   -0.104917
  21 H :    0.030877
  22 C :    0.077448
  23 H :    0.030000
  24 H :    0.013747
  25 C :   -0.066130
  26 H :    0.035331
  27 H :    0.025429
  28 C :   -0.074210
  29 H :    0.049328
  30 H :    0.041645
  31 H :    0.039603
  32 H :    0.065289
  33 H :    0.060348
Sum of atomic charges:    0.0000000

LOEWDIN ATOMIC CHARGES
----------------------
   0 S :    0.421041
   1 C :   -0.203386
   2 C :   -0.058620
   3 C :   -0.082700
   4 C :   -0.192425
   5 H :    0.029000
   6 C :   -0.038837
   7 H :    0.031484
   8 H :    0.040964
   9 C :   -0.042419
  10 H :    0.024313
  11 H :    0.026734
  12 C :   -0.072953
  13 H :    0.028078
  14 H :    0.035726
  15 H :    0.026664
  16 S :    0.384516
  17 C :   -0.179087
  18 C :   -0.077016
  19 C :   -0.051989
  20 C :   -0.189449
  21 H :    0.038212
  22 C :   -0.034403
  23 H :    0.033897
  24 H :    0.008260
  25 C :   -0.037659
  26 H :    0.024455
  27 H :    0.013317
  28 C :   -0.072788
  29 H :    0.040412
  30 H :    0.028485
  31 H :    0.021681
  32 H :    0.036306
  33 H :    0.040186

  Mayer bond orders larger than 0.100000
B(  0-S ,  1-C ) :   1.1207 B(  0-S ,  4-C ) :   1.1513 B(  1-C ,  2-C ) :   1.5833
B(  1-C , 32-H ) :   0.9613 B(  2-C ,  3-C ) :   1.2961 B(  2-C ,  6-C ) :   1.0186
B(  3-C ,  4-C ) :   1.5222 B(  3-C ,  5-H ) :   0.9748 B(  4-C , 20-C ) :   1.1120
B(  6-C ,  7-H ) :   0.9425 B(  6-C ,  8-H ) :   0.9248 B(  6-C ,  9-C ) :   1.0856
B(  9-C , 10-H ) :   0.9530 B(  9-C , 11-H ) :   0.9531 B(  9-C , 12-C ) :   1.0656
B( 12-C , 13-H ) :   0.9745 B( 12-C , 14-H ) :   0.9734 B( 12-C , 15-H ) :   0.9738
B( 16-S , 17-C ) :   1.1192 B( 16-S , 20-C ) :   1.1248 B( 17-C , 18-C ) :   1.6864
B( 17-C , 33-H ) :   0.9555 B( 18-C , 19-C ) :   1.2083 B( 18-C , 21-H ) :   0.9800
B( 19-C , 20-C ) :   1.5695 B( 19-C , 22-C ) :   1.0334 B( 22-C , 23-H ) :   0.9401
B( 22-C , 24-H ) :   0.9298 B( 22-C , 25-C ) :   1.0532 B( 25-C , 26-H ) :   0.9589
B( 25-C , 27-H ) :   0.9577 B( 25-C , 28-C ) :   1.0673 B( 28-C , 29-H ) :   0.9744
B( 28-C , 30-H ) :   0.9737 B( 28-C , 31-H ) :   0.9781

Dispersion correction           -0.014849764
FINAL SINGLE POINT ENERGY     -1339.869929400225

DIPOLE MOMENT
-------------
                                X             Y             Z
Electronic contribution:     -6.67764       7.41098       1.09368
Nuclear contribution   :      6.93360      -7.36640      -1.08316
                        -----------------------------------------
Total Dipole Moment    :      0.25596       0.04458       0.01052
                        -----------------------------------------
Magnitude (a.u.)       :      0.26003
Magnitude (Debye)      :      0.66093

Rotational constants in cm-1:     0.024908     0.007997     0.006655
Rotational constants in MHz :   746.734163   239.746929   199.525088

                             ****ORCA TERMINATED NORMALLY****
TOTAL RUN TIME: 0 days 0 hours 0 minutes 30 seconds 90 msec
