                         Program Version 4.2.1 -  RELEASE  -
|  1> ! wB97X-D3 SP def2-SVP
|  2> %pal
|  3> nprocs 16
|  4> end
|  5>
|  6> * xyz 0 1
|  7> S 	 -73.1838 	 50.7262 	 138.106
|  8> C 	 -72.6529 	 49.8464 	 139.515
|  9> C 	 -73.0322 	 48.4998 	 139.444
| 10> C 	 -73.7637 	 48.214 	 138.224
| 11> C 	 -73.8621 	 49.3077 	 137.385
| 12> H 	 -74.2263 	 47.3434 	 137.965
| 13> C 	 -72.8174 	 47.4786 	 140.594
| 14> H 	 -73.7831 	 47.1587 	 140.978
| 15> H 	 -72.2596 	 47.9738 	 141.384
| 16> C 	 -72.1957 	 46.1157 	 140.061
| 17> H 	 -72.8389 	 45.6952 	 139.327
| 18> H 	 -71.1201 	 46.3119 	 139.716
| 19> C 	 -72.1512 	 44.9832 	 141.118
| 20> H 	 -71.6213 	 44.1106 	 140.832
| 21> H 	 -71.713 	 45.3082 	 142.059
| 22> H 	 -73.1646 	 44.6713 	 141.335
| 23> S 	 -73.7457 	 48.0762 	 134.95
| 24> C 	 -74.8971 	 48.5663 	 133.676
| 25> C 	 -75.8057 	 49.5159 	 134.124
| 26> C 	 -75.5348 	 49.9687 	 135.478
| 27> C 	 -74.3972 	 49.328 	 136.003
| 28> H 	 -76.5566 	 49.8224 	 133.455
| 29> C 	 -76.4026 	 50.9183 	 136.229
| 30> H 	 -76.6101 	 50.5773 	 137.236
| 31> H 	 -77.329 	 50.9088 	 135.685
| 32> C 	 -75.8521 	 52.3625 	 136.228
| 33> H 	 -75.9694 	 52.7618 	 135.237
| 34> H 	 -74.829 	 52.2981 	 136.578
| 35> C 	 -76.718 	 53.2473 	 137.195
| 36> H 	 -76.4813 	 54.2956 	 137.053
| 37> H 	 -76.4578 	 53.0699 	 138.238
| 38> H 	 -77.8484 	 53.138 	 137.074
| 39> H 	 -72.0948 	 50.2898 	 140.29
| 40> H 	 -75.0903 	 48.0366 	 132.759
| 41> *
| 42>
| 43>                          ****END OF INPUT****

CARTESIAN COORDINATES (ANGSTROEM)
---------------------------------
  S    -73.183800   50.726200  138.106000
  C    -72.652900   49.846400  139.515000
  C    -73.032200   48.499800  139.444000
  C    -73.763700   48.214000  138.224000
  C    -73.862100   49.307700  137.385000
  H    -74.226300   47.343400  137.965000
  C    -72.817400   47.478600  140.594000
  H    -73.783100   47.158700  140.978000
  H    -72.259600   47.973800  141.384000
  C    -72.195700   46.115700  140.061000
  H    -72.838900   45.695200  139.327000
  H    -71.120100   46.311900  139.716000
  C    -72.151200   44.983200  141.118000
  H    -71.621300   44.110600  140.832000
  H    -71.713000   45.308200  142.059000
  H    -73.164600   44.671300  141.335000
  S    -73.745700   48.076200  134.950000
  C    -74.897100   48.566300  133.676000
  C    -75.805700   49.515900  134.124000
  C    -75.534800   49.968700  135.478000
  C    -74.397200   49.328000  136.003000
  H    -76.556600   49.822400  133.455000
  C    -76.402600   50.918300  136.229000
  H    -76.610100   50.577300  137.236000
  H    -77.329000   50.908800  135.685000
  C    -75.852100   52.362500  136.228000
  H    -75.969400   52.761800  135.237000
  H    -74.829000   52.298100  136.578000
  C    -76.718000   53.247300  137.195000
  H    -76.481300   54.295600  137.053000
  H    -76.457800   53.069900  138.238000
  H    -77.848400   53.138000  137.074000
  H    -72.094800   50.289800  140.290000
  H    -75.090300   48.036600  132.759000

 Total Charge           Charge          ....    0
 Multiplicity           Mult            ....    1
 Number of Electrons    NEL             ....  134
 Basis Dimension        Dim             ....  322

ORBITAL ENERGIES
----------------

  NO   OCC          E(Eh)            E(eV)
   0   2.0000     -88.968075     -2420.9444
   1   2.0000     -88.966667     -2420.9061
   2   2.0000     -10.329416      -281.0777
   3   2.0000     -10.328230      -281.0454
   4   2.0000     -10.318422      -280.7785
   5   2.0000     -10.313152      -280.6351
   6   2.0000     -10.308403      -280.5059
   7   2.0000     -10.305952      -280.4392
   8   2.0000     -10.300049      -280.2786
   9   2.0000     -10.295446      -280.1533
  10   2.0000     -10.294120      -280.1172
  11   2.0000     -10.290317      -280.0138
  12   2.0000     -10.284892      -279.8661
  13   2.0000     -10.284848      -279.8649
  14   2.0000     -10.280020      -279.7336
  15   2.0000     -10.273957      -279.5686
  16   2.0000      -8.081752      -219.9156
  17   2.0000      -8.081490      -219.9085
  18   2.0000      -6.040336      -164.3659
  19   2.0000      -6.039939      -164.3551
  20   2.0000      -6.036463      -164.2605
  21   2.0000      -6.035912      -164.2455
  22   2.0000      -6.032438      -164.1510
  23   2.0000      -6.032412      -164.1503
  24   2.0000      -1.002880       -27.2898
  25   2.0000      -0.978130       -26.6163
  26   2.0000      -0.907210       -24.6864
  27   2.0000      -0.902565       -24.5600
  28   2.0000      -0.867156       -23.5965
  29   2.0000      -0.848619       -23.0921
  30   2.0000      -0.842720       -22.9316
  31   2.0000      -0.815545       -22.1921
  32   2.0000      -0.781617       -21.2689
  33   2.0000      -0.766563       -20.8592
  34   2.0000      -0.706608       -19.2278
  35   2.0000      -0.695725       -18.9316
  36   2.0000      -0.687807       -18.7162
  37   2.0000      -0.666751       -18.1432
  38   2.0000      -0.648522       -17.6472
  39   2.0000      -0.616765       -16.7830
  40   2.0000      -0.592080       -16.1113
  41   2.0000      -0.571827       -15.5602
  42   2.0000      -0.570671       -15.5287
  43   2.0000      -0.561462       -15.2782
  44   2.0000      -0.523820       -14.2539
  45   2.0000      -0.518178       -14.1003
  46   2.0000      -0.512338       -13.9414
  47   2.0000      -0.511805       -13.9269
  48   2.0000      -0.503121       -13.6906
  49   2.0000      -0.500056       -13.6072
  50   2.0000      -0.489726       -13.3261
  51   2.0000      -0.475540       -12.9401
  52   2.0000      -0.470865       -12.8129
  53   2.0000      -0.466529       -12.6949
  54   2.0000      -0.457120       -12.4389
  55   2.0000      -0.449745       -12.2382
  56   2.0000      -0.443949       -12.0805
  57   2.0000      -0.434089       -11.8122
  58   2.0000      -0.431487       -11.7414
  59   2.0000      -0.428907       -11.6711
  60   2.0000      -0.424449       -11.5499
  61   2.0000      -0.419528       -11.4159
  62   2.0000      -0.416247       -11.3266
  63   2.0000      -0.340193        -9.2571
  64   2.0000      -0.334274        -9.0960
  65   2.0000      -0.326251        -8.8777
  66   2.0000      -0.295040        -8.0285
  67   0.0000       0.032411         0.8820
  68   0.0000       0.067195         1.8285
  69   0.0000       0.099083         2.6962
  70   0.0000       0.120603         3.2818
  71   0.0000       0.132484         3.6051

MULLIKEN ATOMIC CHARGES
-----------------------
   0 S :    0.099315
   1 C :   -0.109988
   2 C :   -0.072312
   3 C :    0.055807
   4 C :   -0.158488
   5 H :   -0.023249
   6 C :    0.083067
   7 H :    0.029651
   8 H :    0.022036
   9 C :   -0.117368
  10 H :    0.035831
  11 H :    0.051367
  12 C :   -0.030776
  13 H :    0.030489
  14 H :    0.022052
  15 H :    0.018532
  16 S :    0.107571
  17 C :   -0.091300
  18 C :   -0.023069
  19 C :   -0.035445
  20 C :   -0.153481
  21 H :    0.005634
  22 C :    0.081707
  23 H :    0.033252
  24 H :    0.006710
  25 C :   -0.055725
  26 H :    0.029192
  27 H :    0.033335
  28 C :   -0.065234
  29 H :    0.030045
  30 H :    0.032853
  31 H :    0.040039
  32 H :    0.033659
  33 H :    0.054292
Sum of atomic charges:   -0.0000000

LOEWDIN ATOMIC CHARGES
----------------------
   0 S :    0.424931
   1 C :   -0.197017
   2 C :   -0.053278
   3 C :   -0.057773
   4 C :   -0.197155
   5 H :    0.013064
   6 C :   -0.024432
   7 H :    0.030860
   8 H :    0.027627
   9 C :   -0.038538
  10 H :    0.020379
  11 H :    0.033022
  12 C :   -0.064921
  13 H :    0.022558
  14 H :    0.021470
  15 H :    0.021051
  16 S :    0.396771
  17 C :   -0.177925
  18 C :   -0.061848
  19 C :   -0.049012
  20 C :   -0.198873
  21 H :    0.025081
  22 C :   -0.033231
  23 H :    0.030869
  24 H :    0.027772
  25 C :   -0.027711
  26 H :    0.022754
  27 H :    0.012154
  28 C :   -0.073175
  29 H :    0.022840
  30 H :    0.024084
  31 H :    0.031149
  32 H :    0.018426
  33 H :    0.028026

  Mayer bond orders larger than 0.100000
B(  0-S ,  1-C ) :   1.1410 B(  0-S ,  4-C ) :   1.1652 B(  1-C ,  2-C ) :   1.6067
B(  1-C , 32-H ) :   0.9769 B(  2-C ,  3-C ) :   1.2203 B(  2-C ,  6-C ) :   1.0286
B(  3-C ,  4-C ) :   1.5845 B(  3-C ,  5-H ) :   1.0089 B(  4-C , 20-C ) :   1.0103
B(  6-C ,  7-H ) :   0.9414 B(  6-C ,  8-H ) :   0.9460 B(  6-C ,  9-C ) :   1.0499
B(  9-C , 10-H ) :   0.9589 B(  9-C , 11-H ) :   0.9598 B(  9-C , 12-C ) :   1.0824
B( 12-C , 13-H ) :   0.9756 B( 12-C , 14-H ) :   0.9757 B( 12-C , 15-H ) :   0.9740
B( 16-S , 17-C ) :   1.1411 B( 16-S , 20-C ) :   1.1391 B( 17-C , 18-C ) :   1.6370
B( 17-C , 33-H ) :   0.9632 B( 18-C , 19-C ) :   1.2331 B( 18-C , 21-H ) :   0.9926
B( 19-C , 20-C ) :   1.5810 B( 19-C , 22-C ) :   1.0536 B( 22-C , 23-H ) :   0.9335
B( 22-C , 24-H ) :   0.9217 B( 22-C , 25-C ) :   1.0640 B( 25-C , 26-H ) :   0.9560
B( 25-C , 27-H ) :   0.9548 B( 25-C , 28-C ) :   1.0775 B( 28-C , 29-H ) :   0.9757
B( 28-C , 30-H ) :   0.9755 B( 28-C , 31-H ) :   0.9744

Dispersion correction           -0.014120821
FINAL SINGLE POINT ENERGY     -1339.882619319475

DIPOLE MOMENT
-------------
                                X             Y             Z
Electronic contribution:      5.62203       1.90408     -14.40020
Nuclear contribution   :     -5.99983      -2.10903      14.64378
                        -----------------------------------------
Total Dipole Moment    :     -0.37781      -0.20495       0.24359
                        -----------------------------------------
Magnitude (a.u.)       :      0.49404
Magnitude (Debye)      :      1.25575

Rotational constants in cm-1:     0.019804     0.008141     0.006322
Rotational constants in MHz :   593.723411   244.052631   189.520724

                             ****ORCA TERMINATED NORMALLY****
TOTAL RUN TIME: 0 days 0 hours 0 minutes 33 seconds 480 msec
