                         Program Version 4.2.1 -  RELEASE  -
|  1> ! wB97X-D3 SP def2-SVP
|  2> %pal
|  3> nprocs 16
|  4> end
|  5>
|  6> * xyz 0 1
|  7> S 	 -43.6175 	 36.0617 	 78.6755
|  8> C 	 -42.3215 	 37.3203 	 78.639
|  9> C 	 -41.1067 	 36.8121 	 79.0594
| 10> C 	 -41.187 	 35.4294 	 79.2818
| 11> C 	 -42.4433 	 34.8299 	 79.1676
| 12> H 	 -40.3852 	 34.7153 	 79.4221
| 13> C 	 -39.8393 	 37.5882 	 79.1051
| 14> H 	 -40.145 	 38.5775 	 78.9222
| 15> H 	 -39.2095 	 37.4481 	 78.2461
| 16> C 	 -39.1059 	 37.5406 	 80.4412
| 17> H 	 -39.738 	 37.783 	 81.2781
| 18> H 	 -38.7263 	 36.58 	 80.633
| 19> C 	 -37.8975 	 38.4896 	 80.4697
| 20> H 	 -37.368 	 38.5837 	 81.4196
| 21> H 	 -37.0813 	 38.2052 	 79.7701
| 22> H 	 -38.1971 	 39.5212 	 80.1246
| 23> S 	 -43.7738 	 32.8037 	 77.93
| 24> C 	 -43.8976 	 31.2531 	 78.7346
| 25> C 	 -43.1571 	 31.1939 	 79.8869
| 26> C 	 -42.5339 	 32.4249 	 80.1964
| 27> C 	 -42.8286 	 33.4534 	 79.2722
| 28> H 	 -43.1708 	 30.2358 	 80.4097
| 29> C 	 -41.6707 	 32.5738 	 81.4221
| 30> H 	 -42.0455 	 32.0328 	 82.3256
| 31> H 	 -41.5941 	 33.6613 	 81.7249
| 32> C 	 -40.1925 	 32.0525 	 81.2597
| 33> H 	 -39.6811 	 32.7355 	 80.5578
| 34> H 	 -39.9773 	 31.1012 	 80.8416
| 35> C 	 -39.2976 	 32.2353 	 82.4777
| 36> H 	 -39.5621 	 31.6991 	 83.394
| 37> H 	 -39.2766 	 33.3211 	 82.6889
| 38> H 	 -38.2578 	 32.0198 	 82.4122
| 39> H 	 -42.4456 	 38.2351 	 78.0872
| 40> H 	 -44.3162 	 30.4454 	 78.239
| 41> *
| 42>
| 43>                          ****END OF INPUT****

CARTESIAN COORDINATES (ANGSTROEM)
---------------------------------
  S    -43.617500   36.061700   78.675500
  C    -42.321500   37.320300   78.639000
  C    -41.106700   36.812100   79.059400
  C    -41.187000   35.429400   79.281800
  C    -42.443300   34.829900   79.167600
  H    -40.385200   34.715300   79.422100
  C    -39.839300   37.588200   79.105100
  H    -40.145000   38.577500   78.922200
  H    -39.209500   37.448100   78.246100
  C    -39.105900   37.540600   80.441200
  H    -39.738000   37.783000   81.278100
  H    -38.726300   36.580000   80.633000
  C    -37.897500   38.489600   80.469700
  H    -37.368000   38.583700   81.419600
  H    -37.081300   38.205200   79.770100
  H    -38.197100   39.521200   80.124600
  S    -43.773800   32.803700   77.930000
  C    -43.897600   31.253100   78.734600
  C    -43.157100   31.193900   79.886900
  C    -42.533900   32.424900   80.196400
  C    -42.828600   33.453400   79.272200
  H    -43.170800   30.235800   80.409700
  C    -41.670700   32.573800   81.422100
  H    -42.045500   32.032800   82.325600
  H    -41.594100   33.661300   81.724900
  C    -40.192500   32.052500   81.259700
  H    -39.681100   32.735500   80.557800
  H    -39.977300   31.101200   80.841600
  C    -39.297600   32.235300   82.477700
  H    -39.562100   31.699100   83.394000
  H    -39.276600   33.321100   82.688900
  H    -38.257800   32.019800   82.412200
  H    -42.445600   38.235100   78.087200
  H    -44.316200   30.445400   78.239000

 Total Charge           Charge          ....    0
 Multiplicity           Mult            ....    1
 Number of Electrons    NEL             ....  134
 Basis Dimension        Dim             ....  322

ORBITAL ENERGIES
----------------

  NO   OCC          E(Eh)            E(eV)
   0   2.0000     -88.966166     -2420.8925
   1   2.0000     -88.964369     -2420.8436
   2   2.0000     -10.330984      -281.1204
   3   2.0000     -10.330762      -281.1143
   4   2.0000     -10.317200      -280.7453
   5   2.0000     -10.313364      -280.6409
   6   2.0000     -10.310672      -280.5676
   7   2.0000     -10.303044      -280.3601
   8   2.0000     -10.301388      -280.3150
   9   2.0000     -10.295776      -280.1623
  10   2.0000     -10.292728      -280.0794
  11   2.0000     -10.287992      -279.9505
  12   2.0000     -10.286377      -279.9065
  13   2.0000     -10.284330      -279.8509
  14   2.0000     -10.284267      -279.8491
  15   2.0000     -10.275715      -279.6164
  16   2.0000      -8.080893      -219.8923
  17   2.0000      -8.078068      -219.8154
  18   2.0000      -6.039306      -164.3379
  19   2.0000      -6.036655      -164.2657
  20   2.0000      -6.035391      -164.2313
  21   2.0000      -6.032703      -164.1582
  22   2.0000      -6.031752      -164.1323
  23   2.0000      -6.028809      -164.0522
  24   2.0000      -1.005311       -27.3559
  25   2.0000      -0.982089       -26.7240
  26   2.0000      -0.918014       -24.9804
  27   2.0000      -0.905548       -24.6412
  28   2.0000      -0.873913       -23.7804
  29   2.0000      -0.854847       -23.2616
  30   2.0000      -0.843911       -22.9640
  31   2.0000      -0.817073       -22.2337
  32   2.0000      -0.784084       -21.3360
  33   2.0000      -0.770860       -20.9762
  34   2.0000      -0.716854       -19.5066
  35   2.0000      -0.703009       -19.1298
  36   2.0000      -0.697761       -18.9870
  37   2.0000      -0.663784       -18.0625
  38   2.0000      -0.647970       -17.6322
  39   2.0000      -0.619969       -16.8702
  40   2.0000      -0.601818       -16.3763
  41   2.0000      -0.573796       -15.6138
  42   2.0000      -0.566327       -15.4105
  43   2.0000      -0.558190       -15.1891
  44   2.0000      -0.529049       -14.3962
  45   2.0000      -0.526246       -14.3199
  46   2.0000      -0.519362       -14.1325
  47   2.0000      -0.514930       -14.0120
  48   2.0000      -0.506768       -13.7899
  49   2.0000      -0.498298       -13.5594
  50   2.0000      -0.496017       -13.4973
  51   2.0000      -0.476856       -12.9759
  52   2.0000      -0.465975       -12.6798
  53   2.0000      -0.461581       -12.5603
  54   2.0000      -0.459308       -12.4984
  55   2.0000      -0.449913       -12.2428
  56   2.0000      -0.442742       -12.0476
  57   2.0000      -0.440833       -11.9957
  58   2.0000      -0.431910       -11.7529
  59   2.0000      -0.428483       -11.6596
  60   2.0000      -0.422914       -11.5081
  61   2.0000      -0.419823       -11.4240
  62   2.0000      -0.411491       -11.1973
  63   2.0000      -0.347532        -9.4568
  64   2.0000      -0.335335        -9.1249
  65   2.0000      -0.330572        -8.9953
  66   2.0000      -0.288978        -7.8635
  67   0.0000       0.019401         0.5279
  68   0.0000       0.069502         1.8913
  69   0.0000       0.109111         2.9691
  70   0.0000       0.121782         3.3139
  71   0.0000       0.123144         3.3509

MULLIKEN ATOMIC CHARGES
-----------------------
   0 S :    0.091583
   1 C :   -0.128909
   2 C :   -0.074901
   3 C :    0.029792
   4 C :   -0.161940
   5 H :    0.002725
   6 C :    0.123320
   7 H :   -0.016601
   8 H :    0.031429
   9 C :   -0.037313
  10 H :    0.032518
  11 H :    0.018053
  12 C :   -0.082020
  13 H :    0.038450
  14 H :    0.027868
  15 H :    0.028845
  16 S :    0.102500
  17 C :   -0.069943
  18 C :   -0.037377
  19 C :    0.020491
  20 C :   -0.155336
  21 H :    0.028729
  22 C :    0.027075
  23 H :    0.036170
  24 H :    0.040599
  25 C :   -0.057044
  26 H :    0.016154
  27 H :    0.023594
  28 C :   -0.058916
  29 H :    0.026539
  30 H :    0.020597
  31 H :    0.023286
  32 H :    0.054126
  33 H :    0.035859
Sum of atomic charges:   -0.0000000

LOEWDIN ATOMIC CHARGES
----------------------
   0 S :    0.372373
   1 C :   -0.177232
   2 C :   -0.060301
   3 C :   -0.064227
   4 C :   -0.186772
   5 H :    0.028401
   6 C :   -0.027495
   7 H :    0.024179
   8 H :    0.034274
   9 C :   -0.030990
  10 H :    0.028538
  11 H :    0.016642
  12 C :   -0.072638
  13 H :    0.026193
  14 H :    0.025585
  15 H :    0.026038
  16 S :    0.404130
  17 C :   -0.167040
  18 C :   -0.068544
  19 C :   -0.051313
  20 C :   -0.196855
  21 H :    0.039614
  22 C :   -0.033578
  23 H :    0.034348
  24 H :    0.039272
  25 C :   -0.042956
  26 H :    0.024432
  27 H :    0.017971
  28 C :   -0.072813
  29 H :    0.020620
  30 H :    0.026366
  31 H :    0.023420
  32 H :    0.026562
  33 H :    0.013796

  Mayer bond orders larger than 0.100000
B(  0-S ,  1-C ) :   1.1292 B(  0-S ,  4-C ) :   1.1382 B(  1-C ,  2-C ) :   1.6091
B(  1-C ,  4-C ) :   0.1033 B(  1-C , 32-H ) :   0.9644 B(  2-C ,  3-C ) :   1.2332
B(  2-C ,  6-C ) :   1.0322 B(  3-C ,  4-C ) :   1.5716 B(  3-C ,  5-H ) :   0.9942
B(  4-C , 20-C ) :   1.0731 B(  6-C ,  7-H ) :   0.9225 B(  6-C ,  8-H ) :   0.9310
B(  6-C ,  9-C ) :   1.0583 B(  9-C , 10-H ) :   0.9557 B(  9-C , 11-H ) :   0.9541
B(  9-C , 12-C ) :   1.0848 B( 12-C , 13-H ) :   0.9757 B( 12-C , 14-H ) :   0.9740
B( 12-C , 15-H ) :   0.9755 B( 16-S , 17-C ) :   1.1590 B( 16-S , 20-C ) :   1.1461
B( 17-C , 18-C ) :   1.6033 B( 17-C , 20-C ) :   0.1042 B( 17-C , 33-H ) :   0.9741
B( 18-C , 19-C ) :   1.2361 B( 18-C , 21-H ) :   0.9948 B( 19-C , 20-C ) :   1.5567
B( 19-C , 22-C ) :   1.0592 B( 22-C , 23-H ) :   0.9431 B( 22-C , 24-H ) :   0.9314
B( 22-C , 25-C ) :   1.0429 B( 25-C , 26-H ) :   0.9510 B( 25-C , 27-H ) :   0.9608
B( 25-C , 28-C ) :   1.0796 B( 28-C , 29-H ) :   0.9744 B( 28-C , 30-H ) :   0.9745
B( 28-C , 31-H ) :   0.9733

Dispersion correction           -0.013888647
FINAL SINGLE POINT ENERGY     -1339.873958357408

DIPOLE MOMENT
-------------
                                X             Y             Z
Electronic contribution:    -28.53383      -5.44412     -16.87950
Nuclear contribution   :     29.22336       5.27140      17.02219
                        -----------------------------------------
Total Dipole Moment    :      0.68952      -0.17272       0.14269
                        -----------------------------------------
Magnitude (a.u.)       :      0.72501
Magnitude (Debye)      :      1.84282

Rotational constants in cm-1:     0.016950     0.009317     0.006325
Rotational constants in MHz :   508.136317   279.306416   189.606444

                             ****ORCA TERMINATED NORMALLY****
TOTAL RUN TIME: 0 days 0 hours 0 minutes 29 seconds 942 msec
