                         Program Version 4.2.1 -  RELEASE  -
|  1> ! wB97X-D3 SP def2-SVP
|  2> %pal
|  3> nprocs 16
|  4> end
|  5>
|  6> * xyz 0 1
|  7> S 	 -68.7602 	 45.7072 	 125.976
|  8> C 	 -69.8806 	 46.6272 	 126.971
|  9> C 	 -70.0536 	 46.1076 	 128.238
| 10> C 	 -69.2225 	 44.9193 	 128.367
| 11> C 	 -68.4986 	 44.5947 	 127.263
| 12> H 	 -69.1124 	 44.2477 	 129.138
| 13> C 	 -71.1127 	 46.5905 	 129.229
| 14> H 	 -71.7059 	 47.4757 	 128.948
| 15> H 	 -70.7003 	 46.837 	 130.186
| 16> C 	 -72.2147 	 45.5564 	 129.429
| 17> H 	 -71.9541 	 44.6631 	 129.974
| 18> H 	 -72.8631 	 46.1045 	 130.012
| 19> C 	 -72.9555 	 45.2432 	 128.139
| 20> H 	 -73.9736 	 44.7993 	 128.391
| 21> H 	 -73.1861 	 46.1247 	 127.507
| 22> H 	 -72.4061 	 44.4282 	 127.638
| 23> S 	 -65.9146 	 43.4768 	 127.196
| 24> C 	 -65.7201 	 41.7036 	 127.261
| 25> C 	 -66.9386 	 41.0934 	 127.079
| 26> C 	 -68.0514 	 42.0081 	 127.059
| 27> C 	 -67.6898 	 43.318 	 127.11
| 28> H 	 -66.9591 	 39.9868 	 127.002
| 29> C 	 -69.5303 	 41.5823 	 126.822
| 30> H 	 -69.4244 	 40.6464 	 126.255
| 31> H 	 -69.9309 	 42.326 	 126.081
| 32> C 	 -70.4458 	 41.3625 	 128.06
| 33> H 	 -70.4562 	 42.2205 	 128.713
| 34> H 	 -70.0918 	 40.6165 	 128.773
| 35> C 	 -71.9232 	 41.1303 	 127.629
| 36> H 	 -72.5679 	 41.4349 	 128.456
| 37> H 	 -72.0922 	 40.114 	 127.318
| 38> H 	 -72.2588 	 41.8827 	 126.835
| 39> H 	 -70.4567 	 47.5661 	 126.728
| 40> H 	 -64.7143 	 41.2503 	 127.484
| 41> *
| 42>
| 43>                          ****END OF INPUT****

CARTESIAN COORDINATES (ANGSTROEM)
---------------------------------
  S    -68.760200   45.707200  125.976000
  C    -69.880600   46.627200  126.971000
  C    -70.053600   46.107600  128.238000
  C    -69.222500   44.919300  128.367000
  C    -68.498600   44.594700  127.263000
  H    -69.112400   44.247700  129.138000
  C    -71.112700   46.590500  129.229000
  H    -71.705900   47.475700  128.948000
  H    -70.700300   46.837000  130.186000
  C    -72.214700   45.556400  129.429000
  H    -71.954100   44.663100  129.974000
  H    -72.863100   46.104500  130.012000
  C    -72.955500   45.243200  128.139000
  H    -73.973600   44.799300  128.391000
  H    -73.186100   46.124700  127.507000
  H    -72.406100   44.428200  127.638000
  S    -65.914600   43.476800  127.196000
  C    -65.720100   41.703600  127.261000
  C    -66.938600   41.093400  127.079000
  C    -68.051400   42.008100  127.059000
  C    -67.689800   43.318000  127.110000
  H    -66.959100   39.986800  127.002000
  C    -69.530300   41.582300  126.822000
  H    -69.424400   40.646400  126.255000
  H    -69.930900   42.326000  126.081000
  C    -70.445800   41.362500  128.060000
  H    -70.456200   42.220500  128.713000
  H    -70.091800   40.616500  128.773000
  C    -71.923200   41.130300  127.629000
  H    -72.567900   41.434900  128.456000
  H    -72.092200   40.114000  127.318000
  H    -72.258800   41.882700  126.835000
  H    -70.456700   47.566100  126.728000
  H    -64.714300   41.250300  127.484000

 Total Charge           Charge          ....    0
 Multiplicity           Mult            ....    1
 Number of Electrons    NEL             ....  134
 Basis Dimension        Dim             ....  322

ORBITAL ENERGIES
----------------

  NO   OCC          E(Eh)            E(eV)
   0   2.0000     -88.967406     -2420.9262
   1   2.0000     -88.959788     -2420.7189
   2   2.0000     -10.329106      -281.0693
   3   2.0000     -10.328145      -281.0431
   4   2.0000     -10.325761      -280.9782
   5   2.0000     -10.317136      -280.7436
   6   2.0000     -10.305713      -280.4327
   7   2.0000     -10.305254      -280.4202
   8   2.0000     -10.300318      -280.2859
   9   2.0000     -10.299301      -280.2582
  10   2.0000     -10.295542      -280.1559
  11   2.0000     -10.289410      -279.9891
  12   2.0000     -10.289368      -279.9879
  13   2.0000     -10.283397      -279.8255
  14   2.0000     -10.283009      -279.8149
  15   2.0000     -10.278078      -279.6807
  16   2.0000      -8.082306      -219.9307
  17   2.0000      -8.073988      -219.7044
  18   2.0000      -6.040822      -164.3791
  19   2.0000      -6.036798      -164.2696
  20   2.0000      -6.033033      -164.1672
  21   2.0000      -6.032555      -164.1542
  22   2.0000      -6.028614      -164.0469
  23   2.0000      -6.024669      -163.9396
  24   2.0000      -1.003787       -27.3144
  25   2.0000      -0.981548       -26.7093
  26   2.0000      -0.919574       -25.0229
  27   2.0000      -0.898406       -24.4469
  28   2.0000      -0.864038       -23.5117
  29   2.0000      -0.846801       -23.0426
  30   2.0000      -0.843639       -22.9566
  31   2.0000      -0.815417       -22.1886
  32   2.0000      -0.783467       -21.3192
  33   2.0000      -0.769738       -20.9456
  34   2.0000      -0.704178       -19.1616
  35   2.0000      -0.698755       -19.0141
  36   2.0000      -0.684888       -18.6367
  37   2.0000      -0.657873       -17.9016
  38   2.0000      -0.646068       -17.5804
  39   2.0000      -0.619974       -16.8703
  40   2.0000      -0.590019       -16.0552
  41   2.0000      -0.570815       -15.5327
  42   2.0000      -0.560559       -15.2536
  43   2.0000      -0.558866       -15.2075
  44   2.0000      -0.542538       -14.7632
  45   2.0000      -0.519750       -14.1431
  46   2.0000      -0.515320       -14.0226
  47   2.0000      -0.505319       -13.7504
  48   2.0000      -0.504495       -13.7280
  49   2.0000      -0.490978       -13.3602
  50   2.0000      -0.485994       -13.2246
  51   2.0000      -0.475540       -12.9401
  52   2.0000      -0.472169       -12.8484
  53   2.0000      -0.463302       -12.6071
  54   2.0000      -0.459557       -12.5052
  55   2.0000      -0.443804       -12.0765
  56   2.0000      -0.442888       -12.0516
  57   2.0000      -0.436549       -11.8791
  58   2.0000      -0.434158       -11.8140
  59   2.0000      -0.432529       -11.7697
  60   2.0000      -0.420843       -11.4517
  61   2.0000      -0.412842       -11.2340
  62   2.0000      -0.408826       -11.1247
  63   2.0000      -0.337203        -9.1758
  64   2.0000      -0.330501        -8.9934
  65   2.0000      -0.326198        -8.8763
  66   2.0000      -0.311267        -8.4700
  67   0.0000       0.046906         1.2764
  68   0.0000       0.058989         1.6052
  69   0.0000       0.112160         3.0520
  70   0.0000       0.121587         3.3085
  71   0.0000       0.126995         3.4557

MULLIKEN ATOMIC CHARGES
-----------------------
   0 S :    0.121288
   1 C :   -0.133249
   2 C :   -0.067493
   3 C :    0.069745
   4 C :   -0.161237
   5 H :   -0.021310
   6 C :    0.073057
   7 H :    0.018447
   8 H :    0.025830
   9 C :   -0.048181
  10 H :    0.031445
  11 H :    0.003932
  12 C :   -0.083094
  13 H :    0.034380
  14 H :    0.037045
  15 H :    0.047090
  16 S :    0.080098
  17 C :   -0.126876
  18 C :   -0.031533
  19 C :   -0.027119
  20 C :   -0.174758
  21 H :    0.034230
  22 C :    0.048750
  23 H :    0.021957
  24 H :    0.044963
  25 C :   -0.043084
  26 H :    0.005287
  27 H :    0.027364
  28 C :   -0.067133
  29 H :    0.030060
  30 H :    0.042535
  31 H :    0.042424
  32 H :    0.060404
  33 H :    0.084736
Sum of atomic charges:    0.0000000

LOEWDIN ATOMIC CHARGES
----------------------
   0 S :    0.410909
   1 C :   -0.203539
   2 C :   -0.060313
   3 C :   -0.051112
   4 C :   -0.202940
   5 H :    0.016184
   6 C :   -0.024684
   7 H :    0.032899
   8 H :    0.027814
   9 C :   -0.037775
  10 H :    0.021015
  11 H :    0.014229
  12 C :   -0.069915
  13 H :    0.030694
  14 H :    0.027445
  15 H :    0.028328
  16 S :    0.367387
  17 C :   -0.176149
  18 C :   -0.080688
  19 C :   -0.061446
  20 C :   -0.186827
  21 H :    0.038977
  22 C :   -0.029655
  23 H :    0.030527
  24 H :    0.038912
  25 C :   -0.042966
  26 H :    0.017530
  27 H :    0.026762
  28 C :   -0.067435
  29 H :    0.026479
  30 H :    0.021958
  31 H :    0.033863
  32 H :    0.040954
  33 H :    0.042580

  Mayer bond orders larger than 0.100000
B(  0-S ,  1-C ) :   1.1342 B(  0-S ,  4-C ) :   1.1448 B(  1-C ,  2-C ) :   1.6476
B(  1-C , 32-H ) :   0.9547 B(  2-C ,  3-C ) :   1.1863 B(  2-C ,  6-C ) :   1.0300
B(  3-C ,  4-C ) :   1.6366 B(  3-C ,  5-H ) :   1.0049 B(  4-C , 20-C ) :   0.9697
B(  6-C ,  7-H ) :   0.9483 B(  6-C ,  8-H ) :   0.9359 B(  6-C ,  9-C ) :   1.0753
B(  9-C , 10-H ) :   0.9544 B(  9-C , 11-H ) :   0.9542 B(  9-C , 12-C ) :   1.0761
B( 12-C , 13-H ) :   0.9741 B( 12-C , 14-H ) :   0.9721 B( 12-C , 15-H ) :   0.9728
B( 16-S , 17-C ) :   1.1504 B( 16-S , 20-C ) :   1.1278 B( 17-C , 18-C ) :   1.6234
B( 17-C , 33-H ) :   0.9614 B( 18-C , 19-C ) :   1.2152 B( 18-C , 21-H ) :   0.9858
B( 19-C , 20-C ) :   1.6649 B( 19-C , 22-C ) :   1.0136 B( 22-C , 23-H ) :   0.9405
B( 22-C , 24-H ) :   0.9435 B( 22-C , 25-C ) :   1.0563 B( 25-C , 26-H ) :   0.9548
B( 25-C , 27-H ) :   0.9515 B( 25-C , 28-C ) :   1.0785 B( 28-C , 29-H ) :   0.9757
B( 28-C , 30-H ) :   0.9779 B( 28-C , 31-H ) :   0.9718

Dispersion correction           -0.016414828
FINAL SINGLE POINT ENERGY     -1339.872982218519

DIPOLE MOMENT
-------------
                                X             Y             Z
Electronic contribution:     28.59315       7.00527      -9.67831
Nuclear contribution   :    -29.20864      -7.29882      10.12685
                        -----------------------------------------
Total Dipole Moment    :     -0.61549      -0.29356       0.44854
                        -----------------------------------------
Magnitude (a.u.)       :      0.81620
Magnitude (Debye)      :      2.07462

Rotational constants in cm-1:     0.018725     0.010174     0.007544
Rotational constants in MHz :   561.371174   305.000660   226.149092

                             ****ORCA TERMINATED NORMALLY****
TOTAL RUN TIME: 0 days 0 hours 0 minutes 36 seconds 385 msec
