                         Program Version 4.2.1 -  RELEASE  -
|  1> ! wB97X-D3 SP def2-SVP
|  2> %pal
|  3> nprocs 16
|  4> end
|  5>
|  6> * xyz 0 1
|  7> S 	 -28.3539 	 54.1364 	 110.279
|  8> C 	 -28.7321 	 52.8467 	 111.455
|  9> C 	 -29.2871 	 53.3385 	 112.604
| 10> C 	 -29.3484 	 54.755 	 112.541
| 11> C 	 -28.9128 	 55.3486 	 111.392
| 12> H 	 -29.7074 	 55.4557 	 113.289
| 13> C 	 -29.6241 	 52.5191 	 113.824
| 14> H 	 -30.7588 	 52.5816 	 113.904
| 15> H 	 -29.1509 	 53.0503 	 114.637
| 16> C 	 -29.1408 	 51.027 	 113.966
| 17> H 	 -29.6671 	 50.4626 	 114.735
| 18> H 	 -29.4264 	 50.4414 	 113.093
| 19> C 	 -27.6324 	 50.9392 	 114.204
| 20> H 	 -27.5079 	 51.0683 	 115.245
| 21> H 	 -27.1573 	 50.0081 	 114
| 22> H 	 -27.1099 	 51.7379 	 113.761
| 23> S 	 -29.9512 	 57.653 	 110.387
| 24> C 	 -29.1885 	 59.2067 	 110.7
| 25> C 	 -28.0752 	 59.0429 	 111.467
| 26> C 	 -27.7723 	 57.66 	 111.777
| 27> C 	 -28.6553 	 56.7532 	 111.153
| 28> H 	 -27.5549 	 60.0295 	 111.693
| 29> C 	 -26.6237 	 57.3634 	 112.792
| 30> H 	 -26.9999 	 56.6665 	 113.534
| 31> H 	 -26.3118 	 58.3553 	 113.234
| 32> C 	 -25.42 	 56.7957 	 112.101
| 33> H 	 -25.68 	 55.8638 	 111.528
| 34> H 	 -24.7183 	 56.5763 	 112.825
| 35> C 	 -24.7754 	 57.7471 	 111.143
| 36> H 	 -24.3446 	 58.5659 	 111.649
| 37> H 	 -25.5126 	 58.2753 	 110.498
| 38> H 	 -23.9969 	 57.2433 	 110.512
| 39> H 	 -28.6234 	 51.8958 	 111.202
| 40> H 	 -29.4546 	 60.1464 	 110.286
| 41> *
| 42>
| 43>                          ****END OF INPUT****

CARTESIAN COORDINATES (ANGSTROEM)
---------------------------------
  S    -28.353900   54.136400  110.279000
  C    -28.732100   52.846700  111.455000
  C    -29.287100   53.338500  112.604000
  C    -29.348400   54.755000  112.541000
  C    -28.912800   55.348600  111.392000
  H    -29.707400   55.455700  113.289000
  C    -29.624100   52.519100  113.824000
  H    -30.758800   52.581600  113.904000
  H    -29.150900   53.050300  114.637000
  C    -29.140800   51.027000  113.966000
  H    -29.667100   50.462600  114.735000
  H    -29.426400   50.441400  113.093000
  C    -27.632400   50.939200  114.204000
  H    -27.507900   51.068300  115.245000
  H    -27.157300   50.008100  114.000000
  H    -27.109900   51.737900  113.761000
  S    -29.951200   57.653000  110.387000
  C    -29.188500   59.206700  110.700000
  C    -28.075200   59.042900  111.467000
  C    -27.772300   57.660000  111.777000
  C    -28.655300   56.753200  111.153000
  H    -27.554900   60.029500  111.693000
  C    -26.623700   57.363400  112.792000
  H    -26.999900   56.666500  113.534000
  H    -26.311800   58.355300  113.234000
  C    -25.420000   56.795700  112.101000
  H    -25.680000   55.863800  111.528000
  H    -24.718300   56.576300  112.825000
  C    -24.775400   57.747100  111.143000
  H    -24.344600   58.565900  111.649000
  H    -25.512600   58.275300  110.498000
  H    -23.996900   57.243300  110.512000
  H    -28.623400   51.895800  111.202000
  H    -29.454600   60.146400  110.286000

 Total Charge           Charge          ....    0
 Multiplicity           Mult            ....    1
 Number of Electrons    NEL             ....  134
 Basis Dimension        Dim             ....  322

ORBITAL ENERGIES
----------------

  NO   OCC          E(Eh)            E(eV)
   0   2.0000     -88.962518     -2420.7932
   1   2.0000     -88.962070     -2420.7810
   2   2.0000     -10.328391      -281.0498
   3   2.0000     -10.324882      -280.9543
   4   2.0000     -10.314011      -280.6585
   5   2.0000     -10.312597      -280.6200
   6   2.0000     -10.306695      -280.4594
   7   2.0000     -10.303688      -280.3776
   8   2.0000     -10.303352      -280.3684
   9   2.0000     -10.298295      -280.2308
  10   2.0000     -10.294825      -280.1364
  11   2.0000     -10.293016      -280.0872
  12   2.0000     -10.292995      -280.0866
  13   2.0000     -10.272521      -279.5295
  14   2.0000     -10.268444      -279.4186
  15   2.0000     -10.268067      -279.4083
  16   2.0000      -8.077173      -219.7911
  17   2.0000      -8.076740      -219.7793
  18   2.0000      -6.035779      -164.2419
  19   2.0000      -6.035241      -164.2272
  20   2.0000      -6.031582      -164.1277
  21   2.0000      -6.031215      -164.1177
  22   2.0000      -6.027933      -164.0284
  23   2.0000      -6.027536      -164.0176
  24   2.0000      -1.006895       -27.3990
  25   2.0000      -0.983529       -26.7632
  26   2.0000      -0.913391       -24.8546
  27   2.0000      -0.912501       -24.8304
  28   2.0000      -0.873112       -23.7586
  29   2.0000      -0.850688       -23.1484
  30   2.0000      -0.840523       -22.8718
  31   2.0000      -0.817027       -22.2324
  32   2.0000      -0.786044       -21.3893
  33   2.0000      -0.773741       -21.0546
  34   2.0000      -0.716580       -19.4991
  35   2.0000      -0.710032       -19.3209
  36   2.0000      -0.685156       -18.6440
  37   2.0000      -0.653992       -17.7960
  38   2.0000      -0.652686       -17.7605
  39   2.0000      -0.610439       -16.6109
  40   2.0000      -0.588374       -16.0105
  41   2.0000      -0.574939       -15.6449
  42   2.0000      -0.559886       -15.2353
  43   2.0000      -0.557417       -15.1681
  44   2.0000      -0.546552       -14.8724
  45   2.0000      -0.541421       -14.7328
  46   2.0000      -0.519505       -14.1364
  47   2.0000      -0.514028       -13.9874
  48   2.0000      -0.508652       -13.8411
  49   2.0000      -0.497711       -13.5434
  50   2.0000      -0.486248       -13.2315
  51   2.0000      -0.483969       -13.1695
  52   2.0000      -0.469979       -12.7888
  53   2.0000      -0.463938       -12.6244
  54   2.0000      -0.457041       -12.4367
  55   2.0000      -0.445041       -12.1102
  56   2.0000      -0.439527       -11.9601
  57   2.0000      -0.436502       -11.8778
  58   2.0000      -0.430897       -11.7253
  59   2.0000      -0.429075       -11.6757
  60   2.0000      -0.419861       -11.4250
  61   2.0000      -0.412220       -11.2171
  62   2.0000      -0.408167       -11.1068
  63   2.0000      -0.336008        -9.1432
  64   2.0000      -0.331149        -9.0110
  65   2.0000      -0.319116        -8.6836
  66   2.0000      -0.315396        -8.5824
  67   0.0000       0.042009         1.1431
  68   0.0000       0.055184         1.5016
  69   0.0000       0.115298         3.1374
  70   0.0000       0.119906         3.2628
  71   0.0000       0.128563         3.4984

MULLIKEN ATOMIC CHARGES
-----------------------
   0 S :    0.097565
   1 C :   -0.075771
   2 C :   -0.060478
   3 C :    0.033442
   4 C :   -0.169340
   5 H :    0.010512
   6 C :    0.042566
   7 H :    0.057480
   8 H :    0.032123
   9 C :   -0.069820
  10 H :    0.029267
  11 H :    0.021998
  12 C :   -0.019118
  13 H :    0.013478
  14 H :    0.029403
  15 H :    0.029757
  16 S :    0.099994
  17 C :   -0.080513
  18 C :   -0.068635
  19 C :   -0.049897
  20 C :   -0.162348
  21 H :    0.046874
  22 C :    0.086625
  23 H :    0.032303
  24 H :    0.025374
  25 C :   -0.035068
  26 H :    0.038011
  27 H :    0.011363
  28 C :   -0.062041
  29 H :    0.004357
  30 H :    0.034025
  31 H :    0.044072
  32 H :   -0.010952
  33 H :    0.043396
Sum of atomic charges:    0.0000000

LOEWDIN ATOMIC CHARGES
----------------------
   0 S :    0.394820
   1 C :   -0.156236
   2 C :   -0.063263
   3 C :   -0.058332
   4 C :   -0.206968
   5 H :    0.033302
   6 C :   -0.030083
   7 H :    0.045722
   8 H :    0.031676
   9 C :   -0.041332
  10 H :    0.028214
  11 H :    0.019111
  12 C :   -0.060083
  13 H :    0.022708
  14 H :    0.024827
  15 H :    0.021330
  16 S :    0.403749
  17 C :   -0.177672
  18 C :   -0.089630
  19 C :   -0.044447
  20 C :   -0.211717
  21 H :    0.046153
  22 C :   -0.023763
  23 H :    0.030583
  24 H :    0.034496
  25 C :   -0.042471
  26 H :    0.029328
  27 H :    0.013837
  28 C :   -0.068291
  29 H :    0.013274
  30 H :    0.028297
  31 H :    0.032969
  32 H :   -0.005033
  33 H :    0.024925

  Mayer bond orders larger than 0.100000
B(  0-S ,  1-C ) :   1.1369 B(  0-S ,  4-C ) :   1.1432 B(  1-C ,  2-C ) :   1.6152
B(  1-C , 32-H ) :   0.9860 B(  2-C ,  3-C ) :   1.2149 B(  2-C ,  6-C ) :   1.0003
B(  3-C ,  4-C ) :   1.6237 B(  3-C ,  5-H ) :   0.9987 B(  4-C , 20-C ) :   0.9922
B(  6-C ,  7-H ) :   0.9319 B(  6-C ,  8-H ) :   0.9485 B(  6-C ,  9-C ) :   1.0758
B(  9-C , 10-H ) :   0.9582 B(  9-C , 11-H ) :   0.9566 B(  9-C , 12-C ) :   1.0624
B( 12-C , 13-H ) :   0.9722 B( 12-C , 14-H ) :   0.9751 B( 12-C , 15-H ) :   0.9811
B( 16-S , 17-C ) :   1.1559 B( 16-S , 20-C ) :   1.1459 B( 17-C , 18-C ) :   1.6421
B( 17-C , 33-H ) :   0.9670 B( 18-C , 19-C ) :   1.2218 B( 18-C , 21-H ) :   0.9766
B( 19-C , 20-C ) :   1.6007 B( 19-C , 22-C ) :   1.0242 B( 22-C , 23-H ) :   0.9314
B( 22-C , 24-H ) :   0.9382 B( 22-C , 25-C ) :   1.0879 B( 25-C , 26-H ) :   0.9528
B( 25-C , 27-H ) :   0.9511 B( 25-C , 28-C ) :   1.0765 B( 28-C , 29-H ) :   0.9703
B( 28-C , 30-H ) :   0.9725 B( 28-C , 31-H ) :   0.9728

Dispersion correction           -0.015051250
FINAL SINGLE POINT ENERGY     -1339.864656366811

DIPOLE MOMENT
-------------
                                X             Y             Z
Electronic contribution:    -14.76413       9.52901     -15.91921
Nuclear contribution   :     14.97282      -9.59195      16.62192
                        -----------------------------------------
Total Dipole Moment    :      0.20869      -0.06294       0.70270
                        -----------------------------------------
Magnitude (a.u.)       :      0.73574
Magnitude (Debye)      :      1.87009

Rotational constants in cm-1:     0.022072     0.008027     0.006932
Rotational constants in MHz :   661.704230   240.650345   207.823776

                             ****ORCA TERMINATED NORMALLY****
TOTAL RUN TIME: 0 days 0 hours 0 minutes 30 seconds 630 msec
