                         Program Version 4.2.1 -  RELEASE  -
|  1> ! wB97X-D3 SP def2-SVP
|  2> %pal
|  3> nprocs 16
|  4> end
|  5>
|  6> * xyz 0 1
|  7> S 	 -55.5223 	 38.0636 	 115.802
|  8> C 	 -55.7679 	 36.5542 	 116.671
|  9> C 	 -56.7857 	 35.9017 	 116.119
| 10> C 	 -57.6413 	 36.6044 	 115.252
| 11> C 	 -57.0679 	 37.8355 	 114.911
| 12> H 	 -58.5896 	 36.2028 	 114.812
| 13> C 	 -57.0414 	 34.4254 	 116.291
| 14> H 	 -58.013 	 34.4187 	 116.793
| 15> H 	 -56.2638 	 33.9767 	 116.921
| 16> C 	 -56.9693 	 33.5296 	 114.994
| 17> H 	 -57.127 	 32.4513 	 115.189
| 18> H 	 -57.7989 	 33.6685 	 114.329
| 19> C 	 -55.6759 	 33.7274 	 114.273
| 20> H 	 -54.9353 	 33.1698 	 114.811
| 21> H 	 -55.6883 	 33.3016 	 113.26
| 22> H 	 -55.4383 	 34.8165 	 114.126
| 23> S 	 -57.847 	 40.4176 	 114.543
| 24> C 	 -58.0833 	 41.0882 	 112.946
| 25> C 	 -57.82 	 40.1138 	 111.987
| 26> C 	 -57.6756 	 38.7731 	 112.532
| 27> C 	 -57.5411 	 38.8015 	 113.911
| 28> H 	 -57.8297 	 40.3814 	 110.931
| 29> C 	 -57.3384 	 37.6006 	 111.644
| 30> H 	 -56.6479 	 36.9489 	 112.22
| 31> H 	 -56.7974 	 37.9947 	 110.814
| 32> C 	 -58.4659 	 36.8088 	 111.064
| 33> H 	 -58.0589 	 36.1772 	 110.269
| 34> H 	 -59.13 	 37.5206 	 110.545
| 35> C 	 -59.2687 	 35.9391 	 112.085
| 36> H 	 -59.9202 	 36.5337 	 112.725
| 37> H 	 -58.5798 	 35.315 	 112.642
| 38> H 	 -59.9142 	 35.2791 	 111.468
| 39> H 	 -55.0351 	 36.0735 	 117.336
| 40> H 	 -58.3551 	 42.0753 	 112.679
| 41> *
| 42>
| 43>                          ****END OF INPUT****

CARTESIAN COORDINATES (ANGSTROEM)
---------------------------------
  S    -55.522300   38.063600  115.802000
  C    -55.767900   36.554200  116.671000
  C    -56.785700   35.901700  116.119000
  C    -57.641300   36.604400  115.252000
  C    -57.067900   37.835500  114.911000
  H    -58.589600   36.202800  114.812000
  C    -57.041400   34.425400  116.291000
  H    -58.013000   34.418700  116.793000
  H    -56.263800   33.976700  116.921000
  C    -56.969300   33.529600  114.994000
  H    -57.127000   32.451300  115.189000
  H    -57.798900   33.668500  114.329000
  C    -55.675900   33.727400  114.273000
  H    -54.935300   33.169800  114.811000
  H    -55.688300   33.301600  113.260000
  H    -55.438300   34.816500  114.126000
  S    -57.847000   40.417600  114.543000
  C    -58.083300   41.088200  112.946000
  C    -57.820000   40.113800  111.987000
  C    -57.675600   38.773100  112.532000
  C    -57.541100   38.801500  113.911000
  H    -57.829700   40.381400  110.931000
  C    -57.338400   37.600600  111.644000
  H    -56.647900   36.948900  112.220000
  H    -56.797400   37.994700  110.814000
  C    -58.465900   36.808800  111.064000
  H    -58.058900   36.177200  110.269000
  H    -59.130000   37.520600  110.545000
  C    -59.268700   35.939100  112.085000
  H    -59.920200   36.533700  112.725000
  H    -58.579800   35.315000  112.642000
  H    -59.914200   35.279100  111.468000
  H    -55.035100   36.073500  117.336000
  H    -58.355100   42.075300  112.679000

 Total Charge           Charge          ....    0
 Multiplicity           Mult            ....    1
 Number of Electrons    NEL             ....  134
 Basis Dimension        Dim             ....  322

ORBITAL ENERGIES
----------------

  NO   OCC          E(Eh)            E(eV)
   0   2.0000     -88.966073     -2420.8899
   1   2.0000     -88.963635     -2420.8236
   2   2.0000     -10.337981      -281.3108
   3   2.0000     -10.328539      -281.0538
   4   2.0000     -10.317293      -280.7478
   5   2.0000     -10.310096      -280.5520
   6   2.0000     -10.306947      -280.4663
   7   2.0000     -10.298236      -280.2293
   8   2.0000     -10.297601      -280.2120
   9   2.0000     -10.292372      -280.0697
  10   2.0000     -10.290920      -280.0302
  11   2.0000     -10.287816      -279.9457
  12   2.0000     -10.287217      -279.9294
  13   2.0000     -10.286507      -279.9101
  14   2.0000     -10.282424      -279.7990
  15   2.0000     -10.275571      -279.6125
  16   2.0000      -8.079893      -219.8651
  17   2.0000      -8.078272      -219.8210
  18   2.0000      -6.038507      -164.3161
  19   2.0000      -6.036850      -164.2710
  20   2.0000      -6.034697      -164.2124
  21   2.0000      -6.032672      -164.1574
  22   2.0000      -6.030397      -164.0955
  23   2.0000      -6.029068      -164.0593
  24   2.0000      -1.004971       -27.3467
  25   2.0000      -0.984965       -26.8023
  26   2.0000      -0.912634       -24.8340
  27   2.0000      -0.909613       -24.7518
  28   2.0000      -0.869871       -23.6704
  29   2.0000      -0.848213       -23.0810
  30   2.0000      -0.845025       -22.9943
  31   2.0000      -0.815985       -22.2041
  32   2.0000      -0.783536       -21.3211
  33   2.0000      -0.772082       -21.0094
  34   2.0000      -0.711811       -19.3694
  35   2.0000      -0.696104       -18.9420
  36   2.0000      -0.693380       -18.8678
  37   2.0000      -0.660671       -17.9778
  38   2.0000      -0.634235       -17.2584
  39   2.0000      -0.621006       -16.8984
  40   2.0000      -0.593482       -16.1495
  41   2.0000      -0.564505       -15.3610
  42   2.0000      -0.560290       -15.2463
  43   2.0000      -0.551717       -15.0130
  44   2.0000      -0.549110       -14.9421
  45   2.0000      -0.541173       -14.7261
  46   2.0000      -0.522216       -14.2102
  47   2.0000      -0.512165       -13.9367
  48   2.0000      -0.501772       -13.6539
  49   2.0000      -0.495329       -13.4786
  50   2.0000      -0.490981       -13.3603
  51   2.0000      -0.476387       -12.9632
  52   2.0000      -0.470787       -12.8108
  53   2.0000      -0.468999       -12.7621
  54   2.0000      -0.457187       -12.4407
  55   2.0000      -0.445374       -12.1192
  56   2.0000      -0.443162       -12.0591
  57   2.0000      -0.436335       -11.8733
  58   2.0000      -0.435595       -11.8531
  59   2.0000      -0.421562       -11.4713
  60   2.0000      -0.417946       -11.3729
  61   2.0000      -0.415189       -11.2979
  62   2.0000      -0.411133       -11.1875
  63   2.0000      -0.340544        -9.2667
  64   2.0000      -0.330870        -9.0034
  65   2.0000      -0.324028        -8.8173
  66   2.0000      -0.301383        -8.2011
  67   0.0000       0.031620         0.8604
  68   0.0000       0.062433         1.6989
  69   0.0000       0.111644         3.0380
  70   0.0000       0.112719         3.0672
  71   0.0000       0.127836         3.4786

MULLIKEN ATOMIC CHARGES
-----------------------
   0 S :    0.102831
   1 C :   -0.118629
   2 C :   -0.113949
   3 C :    0.040245
   4 C :   -0.147177
   5 H :    0.030802
   6 C :    0.067115
   7 H :    0.041447
   8 H :    0.013913
   9 C :   -0.066613
  10 H :    0.027279
  11 H :    0.008779
  12 C :   -0.061504
  13 H :    0.026783
  14 H :    0.029252
  15 H :    0.060386
  16 S :    0.107435
  17 C :   -0.070860
  18 C :   -0.055677
  19 C :   -0.009093
  20 C :   -0.188648
  21 H :    0.025381
  22 C :    0.064672
  23 H :    0.032292
  24 H :    0.014166
  25 C :   -0.077019
  26 H :    0.029568
  27 H :    0.022435
  28 C :   -0.051729
  29 H :    0.050934
  30 H :    0.030378
  31 H :    0.033495
  32 H :    0.056731
  33 H :    0.044579
Sum of atomic charges:    0.0000000

LOEWDIN ATOMIC CHARGES
----------------------
   0 S :    0.381203
   1 C :   -0.197993
   2 C :   -0.079816
   3 C :   -0.060116
   4 C :   -0.175713
   5 H :    0.043818
   6 C :   -0.027343
   7 H :    0.034142
   8 H :    0.026392
   9 C :   -0.046899
  10 H :    0.029741
  11 H :    0.012366
  12 C :   -0.068189
  13 H :    0.022448
  14 H :    0.027726
  15 H :    0.034921
  16 S :    0.405674
  17 C :   -0.180606
  18 C :   -0.071314
  19 C :   -0.051903
  20 C :   -0.199680
  21 H :    0.030919
  22 C :   -0.034272
  23 H :    0.032374
  24 H :    0.029834
  25 C :   -0.040242
  26 H :    0.025552
  27 H :    0.023964
  28 C :   -0.064318
  29 H :    0.025937
  30 H :    0.019344
  31 H :    0.030598
  32 H :    0.036919
  33 H :    0.024533

  Mayer bond orders larger than 0.100000
B(  0-S ,  1-C ) :   1.1062 B(  0-S ,  4-C ) :   1.1512 B(  1-C ,  2-C ) :   1.6593
B(  1-C , 32-H ) :   0.9589 B(  2-C ,  3-C ) :   1.2111 B(  2-C ,  6-C ) :   1.0199
B(  3-C ,  4-C ) :   1.5747 B(  3-C ,  5-H ) :   0.9870 B(  4-C , 20-C ) :   1.0287
B(  6-C ,  7-H ) :   0.9383 B(  6-C ,  8-H ) :   0.9469 B(  6-C ,  9-C ) :   1.0590
B(  9-C , 10-H ) :   0.9527 B(  9-C , 11-H ) :   0.9537 B(  9-C , 12-C ) :   1.0777
B( 12-C , 13-H ) :   0.9758 B( 12-C , 14-H ) :   0.9705 B( 12-C , 15-H ) :   0.9710
B( 16-S , 17-C ) :   1.1496 B( 16-S , 20-C ) :   1.1451 B( 17-C , 18-C ) :   1.6195
B( 17-C , 33-H ) :   0.9735 B( 18-C , 19-C ) :   1.2304 B( 18-C , 21-H ) :   0.9837
B( 19-C , 20-C ) :   1.5894 B( 19-C , 22-C ) :   1.0395 B( 22-C , 23-H ) :   0.9377
B( 22-C , 24-H ) :   0.9301 B( 22-C , 25-C ) :   1.0832 B( 25-C , 26-H ) :   0.9533
B( 25-C , 27-H ) :   0.9516 B( 25-C , 28-C ) :   1.0766 B( 28-C , 29-H ) :   0.9704
B( 28-C , 30-H ) :   0.9703 B( 28-C , 31-H ) :   0.9706

Dispersion correction           -0.016630452
FINAL SINGLE POINT ENERGY     -1339.879338314743

DIPOLE MOMENT
-------------
                                X             Y             Z
Electronic contribution:      4.20079      26.12870      12.30080
Nuclear contribution   :     -4.29633     -26.68829     -12.87238
                        -----------------------------------------
Total Dipole Moment    :     -0.09554      -0.55959      -0.57159
                        -----------------------------------------
Magnitude (a.u.)       :      0.80559
Magnitude (Debye)      :      2.04765

Rotational constants in cm-1:     0.019434     0.010706     0.007746
Rotational constants in MHz :   582.606990   320.942978   232.205419

                             ****ORCA TERMINATED NORMALLY****
TOTAL RUN TIME: 0 days 0 hours 0 minutes 33 seconds 426 msec
