                         Program Version 4.2.1 -  RELEASE  -
|  1> ! wB97X-D3 SP def2-SVP
|  2> %pal
|  3> nprocs 16
|  4> end
|  5>
|  6> * xyz 0 1
|  7> S 	 -97.7928 	 61.4275 	 130.482
|  8> C 	 -97.9123 	 60.758 	 132.107
|  9> C 	 -96.6942 	 60.6209 	 132.663
| 10> C 	 -95.6628 	 61.1986 	 131.814
| 11> C 	 -96.0582 	 61.6866 	 130.587
| 12> H 	 -94.6334 	 61.1673 	 132.029
| 13> C 	 -96.3913 	 59.8676 	 133.895
| 14> H 	 -97.2948 	 59.4089 	 134.174
| 15> H 	 -96.1868 	 60.541 	 134.75
| 16> C 	 -95.2561 	 58.9471 	 133.794
| 17> H 	 -95.3645 	 58.207 	 132.966
| 18> H 	 -94.3705 	 59.5486 	 133.6
| 19> C 	 -94.9435 	 58.099 	 135.004
| 20> H 	 -95.7695 	 57.439 	 135.28
| 21> H 	 -94.2026 	 57.3223 	 134.795
| 22> H 	 -94.6501 	 58.5697 	 135.944
| 23> S 	 -96.3024 	 62.9596 	 128.113
| 24> C 	 -94.849 	 63.256 	 127.152
| 25> C 	 -93.7108 	 62.9532 	 127.894
| 26> C 	 -93.9875 	 62.3278 	 129.104
| 27> C 	 -95.3187 	 62.2678 	 129.444
| 28> H 	 -92.7003 	 63.2086 	 127.485
| 29> C 	 -92.8326 	 61.7948 	 129.915
| 30> H 	 -92.9971 	 62.0426 	 130.922
| 31> H 	 -91.9393 	 62.3437 	 129.603
| 32> C 	 -92.593 	 60.2169 	 129.787
| 33> H 	 -92.8244 	 60.0811 	 128.735
| 34> H 	 -93.4888 	 59.7256 	 130.257
| 35> C 	 -91.2487 	 59.5501 	 130.097
| 36> H 	 -91.489 	 58.5198 	 129.844
| 37> H 	 -90.7936 	 59.6184 	 131.121
| 38> H 	 -90.491 	 59.8854 	 129.361
| 39> H 	 -98.8191 	 60.2201 	 132.468
| 40> H 	 -94.8524 	 63.7923 	 126.227
| 41> *
| 42>
| 43>                          ****END OF INPUT****

CARTESIAN COORDINATES (ANGSTROEM)
---------------------------------
  S    -97.792800   61.427500  130.482000
  C    -97.912300   60.758000  132.107000
  C    -96.694200   60.620900  132.663000
  C    -95.662800   61.198600  131.814000
  C    -96.058200   61.686600  130.587000
  H    -94.633400   61.167300  132.029000
  C    -96.391300   59.867600  133.895000
  H    -97.294800   59.408900  134.174000
  H    -96.186800   60.541000  134.750000
  C    -95.256100   58.947100  133.794000
  H    -95.364500   58.207000  132.966000
  H    -94.370500   59.548600  133.600000
  C    -94.943500   58.099000  135.004000
  H    -95.769500   57.439000  135.280000
  H    -94.202600   57.322300  134.795000
  H    -94.650100   58.569700  135.944000
  S    -96.302400   62.959600  128.113000
  C    -94.849000   63.256000  127.152000
  C    -93.710800   62.953200  127.894000
  C    -93.987500   62.327800  129.104000
  C    -95.318700   62.267800  129.444000
  H    -92.700300   63.208600  127.485000
  C    -92.832600   61.794800  129.915000
  H    -92.997100   62.042600  130.922000
  H    -91.939300   62.343700  129.603000
  C    -92.593000   60.216900  129.787000
  H    -92.824400   60.081100  128.735000
  H    -93.488800   59.725600  130.257000
  C    -91.248700   59.550100  130.097000
  H    -91.489000   58.519800  129.844000
  H    -90.793600   59.618400  131.121000
  H    -90.491000   59.885400  129.361000
  H    -98.819100   60.220100  132.468000
  H    -94.852400   63.792300  126.227000

 Total Charge           Charge          ....    0
 Multiplicity           Mult            ....    1
 Number of Electrons    NEL             ....  134
 Basis Dimension        Dim             ....  322

ORBITAL ENERGIES
----------------

  NO   OCC          E(Eh)            E(eV)
   0   2.0000     -88.968677     -2420.9608
   1   2.0000     -88.960698     -2420.7437
   2   2.0000     -10.336387      -281.2674
   3   2.0000     -10.335813      -281.2518
   4   2.0000     -10.322003      -280.8760
   5   2.0000     -10.313865      -280.6545
   6   2.0000     -10.302013      -280.3320
   7   2.0000     -10.298498      -280.2364
   8   2.0000     -10.298306      -280.2311
   9   2.0000     -10.293147      -280.0908
  10   2.0000     -10.291069      -280.0342
  11   2.0000     -10.289869      -280.0016
  12   2.0000     -10.288683      -279.9693
  13   2.0000     -10.286939      -279.9218
  14   2.0000     -10.284588      -279.8579
  15   2.0000     -10.278058      -279.6802
  16   2.0000      -8.082434      -219.9342
  17   2.0000      -8.075518      -219.7460
  18   2.0000      -6.041038      -164.3850
  19   2.0000      -6.037094      -164.2777
  20   2.0000      -6.034274      -164.2009
  21   2.0000      -6.033137      -164.1700
  22   2.0000      -6.030055      -164.0861
  23   2.0000      -6.025951      -163.9745
  24   2.0000      -1.007093       -27.4044
  25   2.0000      -0.987043       -26.8588
  26   2.0000      -0.925940       -25.1961
  27   2.0000      -0.902941       -24.5703
  28   2.0000      -0.873648       -23.7732
  29   2.0000      -0.854746       -23.2588
  30   2.0000      -0.842930       -22.9373
  31   2.0000      -0.819285       -22.2939
  32   2.0000      -0.786724       -21.4078
  33   2.0000      -0.778574       -21.1861
  34   2.0000      -0.714549       -19.4439
  35   2.0000      -0.699633       -19.0380
  36   2.0000      -0.690884       -18.7999
  37   2.0000      -0.666139       -18.1266
  38   2.0000      -0.642551       -17.4847
  39   2.0000      -0.625079       -17.0093
  40   2.0000      -0.595977       -16.2174
  41   2.0000      -0.580939       -15.8081
  42   2.0000      -0.563722       -15.3397
  43   2.0000      -0.554031       -15.0759
  44   2.0000      -0.530176       -14.4268
  45   2.0000      -0.526254       -14.3201
  46   2.0000      -0.519572       -14.1383
  47   2.0000      -0.517302       -14.0765
  48   2.0000      -0.507771       -13.8171
  49   2.0000      -0.501403       -13.6439
  50   2.0000      -0.495649       -13.4873
  51   2.0000      -0.483500       -13.1567
  52   2.0000      -0.473757       -12.8916
  53   2.0000      -0.468584       -12.7508
  54   2.0000      -0.460192       -12.5225
  55   2.0000      -0.453176       -12.3315
  56   2.0000      -0.448485       -12.2039
  57   2.0000      -0.433659       -11.8004
  58   2.0000      -0.427822       -11.6416
  59   2.0000      -0.423498       -11.5240
  60   2.0000      -0.417733       -11.3671
  61   2.0000      -0.415672       -11.3110
  62   2.0000      -0.409664       -11.1475
  63   2.0000      -0.364103        -9.9077
  64   2.0000      -0.336992        -9.1700
  65   2.0000      -0.325098        -8.8464
  66   2.0000      -0.286872        -7.8062
  67   0.0000       0.016870         0.4591
  68   0.0000       0.087790         2.3889
  69   0.0000       0.089712         2.4412
  70   0.0000       0.119486         3.2514
  71   0.0000       0.131124         3.5681

MULLIKEN ATOMIC CHARGES
-----------------------
   0 S :    0.072070
   1 C :   -0.131608
   2 C :   -0.088668
   3 C :    0.008505
   4 C :   -0.093455
   5 H :   -0.027264
   6 C :    0.148603
   7 H :   -0.013736
   8 H :    0.032133
   9 C :   -0.101119
  10 H :    0.038362
  11 H :    0.033576
  12 C :   -0.048139
  13 H :    0.016392
  14 H :    0.027783
  15 H :    0.030923
  16 S :    0.091553
  17 C :   -0.087362
  18 C :   -0.047087
  19 C :   -0.085297
  20 C :   -0.095937
  21 H :    0.037455
  22 C :    0.083131
  23 H :    0.018331
  24 H :    0.008996
  25 C :   -0.095291
  26 H :    0.023600
  27 H :    0.034361
  28 C :   -0.042456
  29 H :    0.040887
  30 H :    0.051423
  31 H :    0.036764
  32 H :    0.065904
  33 H :    0.056667
Sum of atomic charges:    0.0000000

LOEWDIN ATOMIC CHARGES
----------------------
   0 S :    0.381974
   1 C :   -0.195183
   2 C :   -0.061092
   3 C :   -0.069562
   4 C :   -0.174068
   5 H :    0.015131
   6 C :   -0.032228
   7 H :    0.021460
   8 H :    0.039649
   9 C :   -0.044458
  10 H :    0.033016
  11 H :    0.025396
  12 C :   -0.072156
  13 H :    0.024060
  14 H :    0.030048
  15 H :    0.023206
  16 S :    0.383974
  17 C :   -0.170932
  18 C :   -0.074203
  19 C :   -0.062948
  20 C :   -0.176863
  21 H :    0.041761
  22 C :   -0.027335
  23 H :    0.016092
  24 H :    0.028438
  25 C :   -0.047116
  26 H :    0.026341
  27 H :    0.028231
  28 C :   -0.072119
  29 H :    0.034683
  30 H :    0.030942
  31 H :    0.029728
  32 H :    0.039398
  33 H :    0.026737

  Mayer bond orders larger than 0.100000
B(  0-S ,  1-C ) :   1.1171 B(  0-S ,  4-C ) :   1.1373 B(  1-C ,  2-C ) :   1.6540
B(  1-C , 32-H ) :   0.9550 B(  2-C ,  3-C ) :   1.2091 B(  2-C ,  6-C ) :   1.0381
B(  3-C ,  4-C ) :   1.5990 B(  3-C ,  5-H ) :   0.9953 B(  4-C , 20-C ) :   1.0621
B(  6-C ,  7-H ) :   0.9284 B(  6-C ,  8-H ) :   0.9167 B(  6-C ,  9-C ) :   1.0770
B(  9-C , 10-H ) :   0.9536 B(  9-C , 11-H ) :   0.9429 B(  9-C , 12-C ) :   1.0987
B( 12-C , 13-H ) :   0.9692 B( 12-C , 14-H ) :   0.9717 B( 12-C , 15-H ) :   0.9725
B( 16-S , 17-C ) :   1.1600 B( 16-S , 20-C ) :   1.1256 B( 17-C , 18-C ) :   1.5921
B( 17-C , 20-C ) :   0.1080 B( 17-C , 33-H ) :   0.9688 B( 18-C , 19-C ) :   1.2659
B( 18-C , 21-H ) :   0.9808 B( 19-C , 20-C ) :   1.5938 B( 19-C , 22-C ) :   1.0446
B( 22-C , 23-H ) :   0.9309 B( 22-C , 24-H ) :   0.9319 B( 22-C , 25-C ) :   1.0434
B( 25-C , 26-H ) :   0.9530 B( 25-C , 27-H ) :   0.9549 B( 25-C , 28-C ) :   1.0752
B( 28-C , 29-H ) :   0.9702 B( 28-C , 30-H ) :   0.9764 B( 28-C , 31-H ) :   0.9721

Dispersion correction           -0.014065679
FINAL SINGLE POINT ENERGY     -1339.876295523745

DIPOLE MOMENT
-------------
                                X             Y             Z
Electronic contribution:    -21.13445      18.67375     -17.85478
Nuclear contribution   :     21.80365     -19.08364      18.09777
                        -----------------------------------------
Total Dipole Moment    :      0.66920      -0.40989       0.24298
                        -----------------------------------------
Magnitude (a.u.)       :      0.82151
Magnitude (Debye)      :      2.08811

Rotational constants in cm-1:     0.017488     0.009621     0.006452
Rotational constants in MHz :   524.280181   288.418206   193.414587

                             ****ORCA TERMINATED NORMALLY****
TOTAL RUN TIME: 0 days 0 hours 0 minutes 35 seconds 177 msec
