                         Program Version 4.2.1 -  RELEASE  -
|  1> ! wB97X-D3 SP def2-SVP
|  2> %pal
|  3> nprocs 16
|  4> end
|  5>
|  6> * xyz 0 1
|  7> S 	 39.36 	 9.87095 	 86.0486
|  8> C 	 40.0679 	 10.453 	 84.4495
|  9> C 	 40.3684 	 9.39703 	 83.645
| 10> C 	 40.1334 	 8.1296 	 84.3072
| 11> C 	 39.5977 	 8.17546 	 85.5842
| 12> H 	 40.4176 	 7.15077 	 83.9023
| 13> C 	 40.939 	 9.53023 	 82.2956
| 14> H 	 41.029 	 10.5748 	 82.1273
| 15> H 	 40.1752 	 9.07781 	 81.5611
| 16> C 	 42.2999 	 8.90112 	 82.0081
| 17> H 	 42.2944 	 7.88552 	 82.3561
| 18> H 	 42.4481 	 8.81251 	 80.92
| 19> C 	 43.5445 	 9.60374 	 82.695
| 20> H 	 43.1952 	 9.92971 	 83.6678
| 21> H 	 44.3456 	 8.89598 	 82.8003
| 22> H 	 43.9026 	 10.4567 	 82.1498
| 23> S 	 37.6076 	 6.71379 	 86.869
| 24> C 	 38.0707 	 5.32738 	 87.8642
| 25> C 	 39.4739 	 5.17811 	 87.8091
| 26> C 	 40.0905 	 6.01617 	 86.8466
| 27> C 	 39.2561 	 6.98601 	 86.3579
| 28> H 	 39.8456 	 4.4288 	 88.504
| 29> C 	 41.5746 	 5.86608 	 86.5659
| 30> H 	 42.1343 	 6.75332 	 86.8175
| 31> H 	 41.7156 	 5.71501 	 85.4647
| 32> C 	 42.3874 	 4.67593 	 87.2915
| 33> H 	 43.2565 	 4.37419 	 86.6568
| 34> H 	 41.7192 	 3.83891 	 87.4803
| 35> C 	 42.8357 	 5.0731 	 88.6932
| 36> H 	 41.9524 	 5.48251 	 89.1808
| 37> H 	 43.748 	 5.734 	 88.8262
| 38> H 	 43.1299 	 4.20079 	 89.2819
| 39> H 	 40.233 	 11.4977 	 84.2632
| 40> H 	 37.4454 	 4.72308 	 88.5596
| 41> *
| 42>
| 43>                          ****END OF INPUT****

CARTESIAN COORDINATES (ANGSTROEM)
---------------------------------
  S     39.360000    9.870950   86.048600
  C     40.067900   10.453000   84.449500
  C     40.368400    9.397030   83.645000
  C     40.133400    8.129600   84.307200
  C     39.597700    8.175460   85.584200
  H     40.417600    7.150770   83.902300
  C     40.939000    9.530230   82.295600
  H     41.029000   10.574800   82.127300
  H     40.175200    9.077810   81.561100
  C     42.299900    8.901120   82.008100
  H     42.294400    7.885520   82.356100
  H     42.448100    8.812510   80.920000
  C     43.544500    9.603740   82.695000
  H     43.195200    9.929710   83.667800
  H     44.345600    8.895980   82.800300
  H     43.902600   10.456700   82.149800
  S     37.607600    6.713790   86.869000
  C     38.070700    5.327380   87.864200
  C     39.473900    5.178110   87.809100
  C     40.090500    6.016170   86.846600
  C     39.256100    6.986010   86.357900
  H     39.845600    4.428800   88.504000
  C     41.574600    5.866080   86.565900
  H     42.134300    6.753320   86.817500
  H     41.715600    5.715010   85.464700
  C     42.387400    4.675930   87.291500
  H     43.256500    4.374190   86.656800
  H     41.719200    3.838910   87.480300
  C     42.835700    5.073100   88.693200
  H     41.952400    5.482510   89.180800
  H     43.748000    5.734000   88.826200
  H     43.129900    4.200790   89.281900
  H     40.233000   11.497700   84.263200
  H     37.445400    4.723080   88.559600

 Total Charge           Charge          ....    0
 Multiplicity           Mult            ....    1
 Number of Electrons    NEL             ....  134
 Basis Dimension        Dim             ....  322

ORBITAL ENERGIES
----------------

  NO   OCC          E(Eh)            E(eV)
   0   2.0000     -88.968483     -2420.9555
   1   2.0000     -88.965283     -2420.8684
   2   2.0000     -10.334124      -281.2058
   3   2.0000     -10.327107      -281.0149
   4   2.0000     -10.324684      -280.9489
   5   2.0000     -10.321172      -280.8534
   6   2.0000     -10.306508      -280.4543
   7   2.0000     -10.302679      -280.3501
   8   2.0000     -10.297784      -280.2170
   9   2.0000     -10.296759      -280.1891
  10   2.0000     -10.296691      -280.1872
  11   2.0000     -10.295082      -280.1434
  12   2.0000     -10.294339      -280.1232
  13   2.0000     -10.289711      -279.9973
  14   2.0000     -10.280299      -279.7412
  15   2.0000     -10.276913      -279.6490
  16   2.0000      -8.082691      -219.9412
  17   2.0000      -8.078374      -219.8237
  18   2.0000      -6.041199      -164.3894
  19   2.0000      -6.037180      -164.2800
  20   2.0000      -6.037168      -164.2797
  21   2.0000      -6.033558      -164.1814
  22   2.0000      -6.033198      -164.1717
  23   2.0000      -6.028824      -164.0526
  24   2.0000      -1.003915       -27.3179
  25   2.0000      -0.979518       -26.6540
  26   2.0000      -0.913450       -24.8562
  27   2.0000      -0.902307       -24.5530
  28   2.0000      -0.868628       -23.6366
  29   2.0000      -0.849231       -23.1088
  30   2.0000      -0.838949       -22.8290
  31   2.0000      -0.814247       -22.1568
  32   2.0000      -0.783821       -21.3289
  33   2.0000      -0.773285       -21.0421
  34   2.0000      -0.712408       -19.3856
  35   2.0000      -0.698023       -18.9942
  36   2.0000      -0.694989       -18.9116
  37   2.0000      -0.655448       -17.8357
  38   2.0000      -0.640181       -17.4202
  39   2.0000      -0.620298       -16.8792
  40   2.0000      -0.597938       -16.2707
  41   2.0000      -0.569975       -15.5098
  42   2.0000      -0.554940       -15.1007
  43   2.0000      -0.550952       -14.9922
  44   2.0000      -0.535169       -14.5627
  45   2.0000      -0.533142       -14.5075
  46   2.0000      -0.524983       -14.2855
  47   2.0000      -0.519005       -14.1229
  48   2.0000      -0.504665       -13.7326
  49   2.0000      -0.494085       -13.4447
  50   2.0000      -0.487309       -13.2604
  51   2.0000      -0.477586       -12.9958
  52   2.0000      -0.470302       -12.7976
  53   2.0000      -0.468322       -12.7437
  54   2.0000      -0.455749       -12.4016
  55   2.0000      -0.447874       -12.1873
  56   2.0000      -0.442430       -12.0391
  57   2.0000      -0.435886       -11.8611
  58   2.0000      -0.431446       -11.7402
  59   2.0000      -0.425533       -11.5793
  60   2.0000      -0.422346       -11.4926
  61   2.0000      -0.413894       -11.2626
  62   2.0000      -0.409900       -11.1540
  63   2.0000      -0.341225        -9.2852
  64   2.0000      -0.333605        -9.0779
  65   2.0000      -0.327997        -8.9253
  66   2.0000      -0.298243        -8.1156
  67   0.0000       0.030047         0.8176
  68   0.0000       0.061359         1.6697
  69   0.0000       0.113204         3.0804
  70   0.0000       0.122113         3.3229
  71   0.0000       0.122336         3.3289

MULLIKEN ATOMIC CHARGES
-----------------------
   0 S :    0.089309
   1 C :   -0.140319
   2 C :   -0.057582
   3 C :    0.013739
   4 C :   -0.141018
   5 H :    0.018784
   6 C :    0.070615
   7 H :    0.004876
   8 H :    0.055291
   9 C :   -0.082031
  10 H :    0.018463
  11 H :    0.032412
  12 C :   -0.037302
  13 H :    0.031854
  14 H :    0.032573
  15 H :    0.031674
  16 S :    0.119834
  17 C :   -0.114181
  18 C :   -0.076842
  19 C :    0.009322
  20 C :   -0.174342
  21 H :    0.029896
  22 C :    0.038918
  23 H :    0.042682
  24 H :    0.040371
  25 C :   -0.071892
  26 H :    0.042123
  27 H :    0.031005
  28 C :   -0.087624
  29 H :    0.034540
  30 H :    0.045343
  31 H :    0.028705
  32 H :    0.049520
  33 H :    0.071282
Sum of atomic charges:   -0.0000000

LOEWDIN ATOMIC CHARGES
----------------------
   0 S :    0.352370
   1 C :   -0.160530
   2 C :   -0.066146
   3 C :   -0.060420
   4 C :   -0.183310
   5 H :    0.029958
   6 C :   -0.035253
   7 H :    0.024131
   8 H :    0.048973
   9 C :   -0.039340
  10 H :    0.017691
  11 H :    0.026341
  12 C :   -0.058503
  13 H :    0.025570
  14 H :    0.024937
  15 H :    0.021774
  16 S :    0.409642
  17 C :   -0.190993
  18 C :   -0.078051
  19 C :   -0.056038
  20 C :   -0.203534
  21 H :    0.034166
  22 C :   -0.033728
  23 H :    0.033272
  24 H :    0.036122
  25 C :   -0.039639
  26 H :    0.030560
  27 H :    0.022514
  28 C :   -0.079290
  29 H :    0.024579
  30 H :    0.030739
  31 H :    0.024796
  32 H :    0.026393
  33 H :    0.040248

  Mayer bond orders larger than 0.100000
B(  0-S ,  1-C ) :   1.1061 B(  0-S ,  4-C ) :   1.1234 B(  1-C ,  2-C ) :   1.6323
B(  1-C , 32-H ) :   0.9703 B(  2-C ,  3-C ) :   1.1926 B(  2-C ,  6-C ) :   1.0441
B(  3-C ,  4-C ) :   1.6107 B(  3-C ,  5-H ) :   0.9871 B(  4-C , 20-C ) :   1.0532
B(  6-C ,  7-H ) :   0.9383 B(  6-C ,  8-H ) :   0.9273 B(  6-C ,  9-C ) :   1.0733
B(  9-C , 10-H ) :   0.9598 B(  9-C , 11-H ) :   0.9560 B(  9-C , 12-C ) :   1.0618
B( 12-C , 13-H ) :   0.9800 B( 12-C , 14-H ) :   0.9778 B( 12-C , 15-H ) :   0.9776
B( 16-S , 17-C ) :   1.1597 B( 16-S , 20-C ) :   1.1425 B( 17-C , 18-C ) :   1.6116
B( 17-C , 20-C ) :   0.1038 B( 17-C , 33-H ) :   0.9594 B( 18-C , 19-C ) :   1.2445
B( 18-C , 21-H ) :   0.9815 B( 19-C , 20-C ) :   1.5934 B( 19-C , 22-C ) :   1.0272
B( 22-C , 23-H ) :   0.9332 B( 22-C , 24-H ) :   0.9351 B( 22-C , 25-C ) :   1.0685
B( 25-C , 26-H ) :   0.9576 B( 25-C , 27-H ) :   0.9537 B( 25-C , 28-C ) :   1.0742
B( 28-C , 29-H ) :   0.9751 B( 28-C , 30-H ) :   0.9732 B( 28-C , 31-H ) :   0.9745

Dispersion correction           -0.014295400
FINAL SINGLE POINT ENERGY     -1339.873163024250

DIPOLE MOMENT
-------------
                                X             Y             Z
Electronic contribution:    -26.13748       6.55253       7.37941
Nuclear contribution   :     26.74655      -6.85800      -7.61312
                        -----------------------------------------
Total Dipole Moment    :      0.60907      -0.30547      -0.23371
                        -----------------------------------------
Magnitude (a.u.)       :      0.72035
Magnitude (Debye)      :      1.83099

Rotational constants in cm-1:     0.017881     0.008764     0.006682
Rotational constants in MHz :   536.060731   262.750933   200.317618

                             ****ORCA TERMINATED NORMALLY****
TOTAL RUN TIME: 0 days 0 hours 0 minutes 30 seconds 708 msec
