                         Program Version 4.2.1 -  RELEASE  -
|  1> ! wB97X-D3 SP def2-SVP
|  2> %pal
|  3> nprocs 16
|  4> end
|  5>
|  6> * xyz 0 1
|  7> S 	 -15.8988 	 35.7622 	 34.0012
|  8> C 	 -16.4977 	 34.1463 	 33.5677
|  9> C 	 -17.4614 	 33.5972 	 34.3756
| 10> C 	 -17.7578 	 34.6253 	 35.3185
| 11> C 	 -16.9811 	 35.7333 	 35.4257
| 12> H 	 -18.5561 	 34.5867 	 36.0909
| 13> C 	 -17.9709 	 32.151 	 34.3031
| 14> H 	 -18.4227 	 31.8052 	 35.2576
| 15> H 	 -17.0627 	 31.5194 	 34.1644
| 16> C 	 -19.0788 	 32.0745 	 33.2066
| 17> H 	 -18.484 	 32.1255 	 32.2446
| 18> H 	 -19.4237 	 31.0513 	 33.1118
| 19> C 	 -20.1503 	 33.1453 	 33.2589
| 20> H 	 -20.8622 	 33.0652 	 32.4883
| 21> H 	 -20.7574 	 33.0105 	 34.114
| 22> H 	 -19.8191 	 34.1711 	 33.1482
| 23> S 	 -17.6129 	 38.3768 	 35.7746
| 24> C 	 -17.8085 	 39.0341 	 37.3924
| 25> C 	 -17.5343 	 38.0715 	 38.3899
| 26> C 	 -17.2564 	 36.7846 	 37.8422
| 27> C 	 -17.2144 	 36.8179 	 36.4123
| 28> H 	 -17.6335 	 38.3054 	 39.4521
| 29> C 	 -17.1582 	 35.5333 	 38.6515
| 30> H 	 -16.1606 	 35.5249 	 39.162
| 31> H 	 -17.0908 	 34.6711 	 37.9622
| 32> C 	 -18.1416 	 35.4298 	 39.8558
| 33> H 	 -19.1644 	 35.2591 	 39.5171
| 34> H 	 -18.1597 	 36.3625 	 40.4563
| 35> C 	 -17.6761 	 34.5228 	 40.9256
| 36> H 	 -18.4975 	 34.4009 	 41.6364
| 37> H 	 -16.8725 	 34.9581 	 41.5368
| 38> H 	 -17.4948 	 33.5211 	 40.547
| 39> H 	 -15.9574 	 33.5051 	 32.89
| 40> H 	 -17.9139 	 40.0983 	 37.4917
| 41> *
| 42>
| 43>                          ****END OF INPUT****

CARTESIAN COORDINATES (ANGSTROEM)
---------------------------------
  S    -15.898800   35.762200   34.001200
  C    -16.497700   34.146300   33.567700
  C    -17.461400   33.597200   34.375600
  C    -17.757800   34.625300   35.318500
  C    -16.981100   35.733300   35.425700
  H    -18.556100   34.586700   36.090900
  C    -17.970900   32.151000   34.303100
  H    -18.422700   31.805200   35.257600
  H    -17.062700   31.519400   34.164400
  C    -19.078800   32.074500   33.206600
  H    -18.484000   32.125500   32.244600
  H    -19.423700   31.051300   33.111800
  C    -20.150300   33.145300   33.258900
  H    -20.862200   33.065200   32.488300
  H    -20.757400   33.010500   34.114000
  H    -19.819100   34.171100   33.148200
  S    -17.612900   38.376800   35.774600
  C    -17.808500   39.034100   37.392400
  C    -17.534300   38.071500   38.389900
  C    -17.256400   36.784600   37.842200
  C    -17.214400   36.817900   36.412300
  H    -17.633500   38.305400   39.452100
  C    -17.158200   35.533300   38.651500
  H    -16.160600   35.524900   39.162000
  H    -17.090800   34.671100   37.962200
  C    -18.141600   35.429800   39.855800
  H    -19.164400   35.259100   39.517100
  H    -18.159700   36.362500   40.456300
  C    -17.676100   34.522800   40.925600
  H    -18.497500   34.400900   41.636400
  H    -16.872500   34.958100   41.536800
  H    -17.494800   33.521100   40.547000
  H    -15.957400   33.505100   32.890000
  H    -17.913900   40.098300   37.491700

 Total Charge           Charge          ....    0
 Multiplicity           Mult            ....    1
 Number of Electrons    NEL             ....  134
 Basis Dimension        Dim             ....  322

ORBITAL ENERGIES
----------------

  NO   OCC          E(Eh)            E(eV)
   0   2.0000     -88.966257     -2420.8949
   1   2.0000     -88.965819     -2420.8830
   2   2.0000     -10.328372      -281.0493
   3   2.0000     -10.327527      -281.0263
   4   2.0000     -10.318981      -280.7938
   5   2.0000     -10.313069      -280.6329
   6   2.0000     -10.306343      -280.4499
   7   2.0000     -10.306273      -280.4480
   8   2.0000     -10.302737      -280.3517
   9   2.0000     -10.299484      -280.2632
  10   2.0000     -10.293330      -280.0958
  11   2.0000     -10.293088      -280.0892
  12   2.0000     -10.291509      -280.0462
  13   2.0000     -10.287458      -279.9360
  14   2.0000     -10.276577      -279.6399
  15   2.0000     -10.270196      -279.4662
  16   2.0000      -8.080678      -219.8864
  17   2.0000      -8.079888      -219.8649
  18   2.0000      -6.038973      -164.3288
  19   2.0000      -6.038522      -164.3165
  20   2.0000      -6.035073      -164.2227
  21   2.0000      -6.034748      -164.2138
  22   2.0000      -6.031778      -164.1330
  23   2.0000      -6.030380      -164.0950
  24   2.0000      -1.001191       -27.2438
  25   2.0000      -0.980275       -26.6746
  26   2.0000      -0.913546       -24.8589
  27   2.0000      -0.909693       -24.7540
  28   2.0000      -0.864420       -23.5221
  29   2.0000      -0.857668       -23.3383
  30   2.0000      -0.842228       -22.9182
  31   2.0000      -0.812454       -22.1080
  32   2.0000      -0.787884       -21.4394
  33   2.0000      -0.769678       -20.9440
  34   2.0000      -0.704627       -19.1739
  35   2.0000      -0.699184       -19.0258
  36   2.0000      -0.692760       -18.8510
  37   2.0000      -0.654885       -17.8203
  38   2.0000      -0.637070       -17.3356
  39   2.0000      -0.612142       -16.6572
  40   2.0000      -0.596668       -16.2362
  41   2.0000      -0.573483       -15.6053
  42   2.0000      -0.570058       -15.5121
  43   2.0000      -0.551290       -15.0014
  44   2.0000      -0.539974       -14.6934
  45   2.0000      -0.531941       -14.4749
  46   2.0000      -0.515174       -14.0186
  47   2.0000      -0.508842       -13.8463
  48   2.0000      -0.502451       -13.6724
  49   2.0000      -0.490095       -13.3362
  50   2.0000      -0.485615       -13.2143
  51   2.0000      -0.474801       -12.9200
  52   2.0000      -0.468432       -12.7467
  53   2.0000      -0.461941       -12.5701
  54   2.0000      -0.460892       -12.5415
  55   2.0000      -0.454729       -12.3738
  56   2.0000      -0.445801       -12.1309
  57   2.0000      -0.436750       -11.8846
  58   2.0000      -0.428795       -11.6681
  59   2.0000      -0.426198       -11.5974
  60   2.0000      -0.421286       -11.4638
  61   2.0000      -0.415244       -11.2994
  62   2.0000      -0.409612       -11.1461
  63   2.0000      -0.342054        -9.3078
  64   2.0000      -0.330090        -8.9822
  65   2.0000      -0.327375        -8.9083
  66   2.0000      -0.290707        -7.9105
  67   0.0000       0.032655         0.8886
  68   0.0000       0.064100         1.7443
  69   0.0000       0.110847         3.0163
  70   0.0000       0.117023         3.1843
  71   0.0000       0.126359         3.4384

MULLIKEN ATOMIC CHARGES
-----------------------
   0 S :    0.103299
   1 C :   -0.113570
   2 C :   -0.093447
   3 C :    0.009695
   4 C :   -0.158352
   5 H :    0.019379
   6 C :    0.060786
   7 H :    0.030554
   8 H :    0.046774
   9 C :   -0.088055
  10 H :    0.024017
  11 H :    0.025604
  12 C :    0.007178
  13 H :    0.014164
  14 H :    0.017354
  15 H :    0.051754
  16 S :    0.111979
  17 C :   -0.106968
  18 C :   -0.035518
  19 C :   -0.020676
  20 C :   -0.181912
  21 H :    0.028220
  22 C :    0.071394
  23 H :    0.027579
  24 H :    0.030018
  25 C :   -0.087609
  26 H :    0.035856
  27 H :    0.024878
  28 C :   -0.049556
  29 H :    0.024924
  30 H :    0.040916
  31 H :    0.029811
  32 H :    0.039781
  33 H :    0.059750
Sum of atomic charges:    0.0000000

LOEWDIN ATOMIC CHARGES
----------------------
   0 S :    0.369568
   1 C :   -0.178507
   2 C :   -0.063584
   3 C :   -0.063962
   4 C :   -0.194579
   5 H :    0.030493
   6 C :   -0.029080
   7 H :    0.030331
   8 H :    0.039832
   9 C :   -0.043251
  10 H :    0.026901
  11 H :    0.021613
  12 C :   -0.060862
  13 H :    0.025400
  14 H :    0.022088
  15 H :    0.034656
  16 S :    0.420234
  17 C :   -0.184882
  18 C :   -0.067998
  19 C :   -0.054888
  20 C :   -0.208641
  21 H :    0.033584
  22 C :   -0.041066
  23 H :    0.039060
  24 H :    0.033205
  25 C :   -0.044273
  26 H :    0.022972
  27 H :    0.029553
  28 C :   -0.066720
  29 H :    0.029130
  30 H :    0.029153
  31 H :    0.021058
  32 H :    0.020623
  33 H :    0.022836

  Mayer bond orders larger than 0.100000
B(  0-S ,  1-C ) :   1.1406 B(  0-S ,  4-C ) :   1.1041 B(  1-C ,  2-C ) :   1.6438
B(  1-C , 32-H ) :   0.9521 B(  2-C ,  3-C ) :   1.2087 B(  2-C ,  6-C ) :   1.0037
B(  3-C ,  4-C ) :   1.6336 B(  3-C ,  5-H ) :   0.9777 B(  4-C , 20-C ) :   1.0284
B(  6-C ,  7-H ) :   0.9466 B(  6-C ,  8-H ) :   0.9471 B(  6-C ,  9-C ) :   1.0562
B(  9-C , 10-H ) :   0.9558 B(  9-C , 11-H ) :   0.9595 B(  9-C , 12-C ) :   1.0764
B( 12-C , 13-H ) :   0.9662 B( 12-C , 14-H ) :   0.9723 B( 12-C , 15-H ) :   0.9665
B( 16-S , 17-C ) :   1.1746 B( 16-S , 20-C ) :   1.1719 B( 17-C , 18-C ) :   1.5658
B( 17-C , 20-C ) :   0.1087 B( 17-C , 33-H ) :   0.9709 B( 18-C , 19-C ) :   1.2726
B( 18-C , 21-H ) :   0.9858 B( 19-C , 20-C ) :   1.5474 B( 19-C , 22-C ) :   1.0561
B( 22-C , 23-H ) :   0.9234 B( 22-C , 24-H ) :   0.9291 B( 22-C , 25-C ) :   1.0489
B( 25-C , 26-H ) :   0.9579 B( 25-C , 27-H ) :   0.9519 B( 25-C , 28-C ) :   1.0921
B( 28-C , 29-H ) :   0.9686 B( 28-C , 30-H ) :   0.9733 B( 28-C , 31-H ) :   0.9725

Dispersion correction           -0.014130191
FINAL SINGLE POINT ENERGY     -1339.865203548769

DIPOLE MOMENT
-------------
                                X             Y             Z
Electronic contribution:     11.52850      20.33967     -12.00960
Nuclear contribution   :    -11.87871     -20.87938      12.43241
                        -----------------------------------------
Total Dipole Moment    :     -0.35021      -0.53970       0.42281
                        -----------------------------------------
Magnitude (a.u.)       :      0.76987
Magnitude (Debye)      :      1.95685

Rotational constants in cm-1:     0.017090     0.008677     0.006794
Rotational constants in MHz :   512.334546   260.132982   203.683940

                             ****ORCA TERMINATED NORMALLY****
TOTAL RUN TIME: 0 days 0 hours 0 minutes 33 seconds 830 msec
