                         Program Version 4.2.1 -  RELEASE  -
|  1> ! wB97X-D3 SP def2-SVP
|  2> %pal
|  3> nprocs 16
|  4> end
|  5>
|  6> * xyz 0 1
|  7> S 	 -37.6883 	 44.3355 	 97.1495
|  8> C 	 -39.0952 	 45.3129 	 97.543
|  9> C 	 -40.2476 	 44.5979 	 97.2229
| 10> C 	 -40.0393 	 43.3216 	 96.6872
| 11> C 	 -38.7029 	 43.049 	 96.5525
| 12> H 	 -40.7936 	 42.6783 	 96.2425
| 13> C 	 -41.6248 	 45.1913 	 97.1529
| 14> H 	 -41.61 	 46.1849 	 97.6267
| 15> H 	 -42.465 	 44.5619 	 97.5979
| 16> C 	 -42.1181 	 45.3427 	 95.7128
| 17> H 	 -41.3232 	 45.7952 	 95.081
| 18> H 	 -42.2327 	 44.3512 	 95.3454
| 19> C 	 -43.3632 	 46.2753 	 95.6045
| 20> H 	 -44.2514 	 45.7679 	 95.885
| 21> H 	 -43.1533 	 47.2565 	 96.1207
| 22> H 	 -43.4454 	 46.6381 	 94.6082
| 23> S 	 -36.4718 	 41.5048 	 96.2098
| 24> C 	 -36.552 	 39.9485 	 95.4098
| 25> C 	 -37.8166 	 39.6465 	 95.0407
| 26> C 	 -38.7492 	 40.7243 	 95.2804
| 27> C 	 -38.1618 	 41.84 	 95.9646
| 28> H 	 -38.0246 	 38.782 	 94.3586
| 29> C 	 -40.2394 	 40.6155 	 94.8734
| 30> H 	 -40.3448 	 41.5516 	 94.2888
| 31> H 	 -41.0265 	 40.6875 	 95.6617
| 32> C 	 -40.6891 	 39.472 	 93.9419
| 33> H 	 -40.6834 	 38.5343 	 94.4258
| 34> H 	 -39.8827 	 39.3888 	 93.1663
| 35> C 	 -42.1363 	 39.7392 	 93.3604
| 36> H 	 -42.4417 	 38.7763 	 92.8305
| 37> H 	 -42.1733 	 40.6543 	 92.7339
| 38> H 	 -42.966 	 39.7344 	 94.0861
| 39> H 	 -39.0575 	 46.3232 	 97.8912
| 40> H 	 -35.752 	 39.3343 	 95.0657
| 41> *
| 42>
| 43>                          ****END OF INPUT****

CARTESIAN COORDINATES (ANGSTROEM)
---------------------------------
  S    -37.688300   44.335500   97.149500
  C    -39.095200   45.312900   97.543000
  C    -40.247600   44.597900   97.222900
  C    -40.039300   43.321600   96.687200
  C    -38.702900   43.049000   96.552500
  H    -40.793600   42.678300   96.242500
  C    -41.624800   45.191300   97.152900
  H    -41.610000   46.184900   97.626700
  H    -42.465000   44.561900   97.597900
  C    -42.118100   45.342700   95.712800
  H    -41.323200   45.795200   95.081000
  H    -42.232700   44.351200   95.345400
  C    -43.363200   46.275300   95.604500
  H    -44.251400   45.767900   95.885000
  H    -43.153300   47.256500   96.120700
  H    -43.445400   46.638100   94.608200
  S    -36.471800   41.504800   96.209800
  C    -36.552000   39.948500   95.409800
  C    -37.816600   39.646500   95.040700
  C    -38.749200   40.724300   95.280400
  C    -38.161800   41.840000   95.964600
  H    -38.024600   38.782000   94.358600
  C    -40.239400   40.615500   94.873400
  H    -40.344800   41.551600   94.288800
  H    -41.026500   40.687500   95.661700
  C    -40.689100   39.472000   93.941900
  H    -40.683400   38.534300   94.425800
  H    -39.882700   39.388800   93.166300
  C    -42.136300   39.739200   93.360400
  H    -42.441700   38.776300   92.830500
  H    -42.173300   40.654300   92.733900
  H    -42.966000   39.734400   94.086100
  H    -39.057500   46.323200   97.891200
  H    -35.752000   39.334300   95.065700

 Total Charge           Charge          ....    0
 Multiplicity           Mult            ....    1
 Number of Electrons    NEL             ....  134
 Basis Dimension        Dim             ....  322

ORBITAL ENERGIES
----------------

  NO   OCC          E(Eh)            E(eV)
   0   2.0000     -88.969754     -2420.9901
   1   2.0000     -88.966616     -2420.9047
   2   2.0000     -10.332674      -281.1664
   3   2.0000     -10.331138      -281.1246
   4   2.0000     -10.315225      -280.6915
   5   2.0000     -10.313904      -280.6556
   6   2.0000     -10.313807      -280.6529
   7   2.0000     -10.300739      -280.2974
   8   2.0000     -10.299023      -280.2507
   9   2.0000     -10.296666      -280.1865
  10   2.0000     -10.295771      -280.1622
  11   2.0000     -10.295619      -280.1580
  12   2.0000     -10.292254      -280.0665
  13   2.0000     -10.288848      -279.9738
  14   2.0000     -10.284826      -279.8643
  15   2.0000     -10.279704      -279.7250
  16   2.0000      -8.084294      -219.9848
  17   2.0000      -8.081432      -219.9069
  18   2.0000      -6.042899      -164.4357
  19   2.0000      -6.040071      -164.3587
  20   2.0000      -6.038871      -164.3260
  21   2.0000      -6.035858      -164.2441
  22   2.0000      -6.034934      -164.2189
  23   2.0000      -6.032131      -164.1426
  24   2.0000      -1.010647       -27.5011
  25   2.0000      -0.986097       -26.8331
  26   2.0000      -0.913611       -24.8606
  27   2.0000      -0.905145       -24.6303
  28   2.0000      -0.873628       -23.7726
  29   2.0000      -0.854035       -23.2395
  30   2.0000      -0.841414       -22.8960
  31   2.0000      -0.817607       -22.2482
  32   2.0000      -0.779956       -21.2237
  33   2.0000      -0.770318       -20.9614
  34   2.0000      -0.713882       -19.4257
  35   2.0000      -0.704632       -19.1740
  36   2.0000      -0.694637       -18.9020
  37   2.0000      -0.652233       -17.7482
  38   2.0000      -0.637268       -17.3409
  39   2.0000      -0.628628       -17.1058
  40   2.0000      -0.598922       -16.2975
  41   2.0000      -0.576299       -15.6819
  42   2.0000      -0.568994       -15.4831
  43   2.0000      -0.561042       -15.2667
  44   2.0000      -0.524909       -14.2835
  45   2.0000      -0.518573       -14.1111
  46   2.0000      -0.513466       -13.9721
  47   2.0000      -0.511633       -13.9222
  48   2.0000      -0.508202       -13.8289
  49   2.0000      -0.498224       -13.5574
  50   2.0000      -0.489758       -13.3270
  51   2.0000      -0.483598       -13.1594
  52   2.0000      -0.476074       -12.9546
  53   2.0000      -0.471841       -12.8395
  54   2.0000      -0.460189       -12.5224
  55   2.0000      -0.457300       -12.4438
  56   2.0000      -0.447874       -12.1873
  57   2.0000      -0.432695       -11.7742
  58   2.0000      -0.428801       -11.6683
  59   2.0000      -0.424944       -11.5633
  60   2.0000      -0.422886       -11.5073
  61   2.0000      -0.415693       -11.3116
  62   2.0000      -0.408890       -11.1265
  63   2.0000      -0.364568        -9.9204
  64   2.0000      -0.337480        -9.1833
  65   2.0000      -0.326961        -8.8971
  66   2.0000      -0.280302        -7.6274
  67   0.0000       0.015697         0.4271
  68   0.0000       0.090132         2.4526
  69   0.0000       0.096082         2.6145
  70   0.0000       0.123363         3.3569
  71   0.0000       0.129805         3.5322

MULLIKEN ATOMIC CHARGES
-----------------------
   0 S :    0.109408
   1 C :   -0.117584
   2 C :   -0.027702
   3 C :   -0.036677
   4 C :   -0.093932
   5 H :    0.002851
   6 C :    0.037624
   7 H :    0.012621
   8 H :    0.037817
   9 C :   -0.108731
  10 H :    0.030935
  11 H :    0.018931
  12 C :   -0.016411
  13 H :    0.036116
  14 H :    0.033279
  15 H :    0.022049
  16 S :    0.090667
  17 C :   -0.060829
  18 C :   -0.055597
  19 C :   -0.058453
  20 C :   -0.113825
  21 H :    0.041208
  22 C :   -0.032513
  23 H :    0.041794
  24 H :    0.061795
  25 C :   -0.058470
  26 H :    0.027179
  27 H :    0.035855
  28 C :   -0.082257
  29 H :    0.041294
  30 H :    0.054691
  31 H :    0.035242
  32 H :    0.044199
  33 H :    0.047428
Sum of atomic charges:    0.0000000

LOEWDIN ATOMIC CHARGES
----------------------
   0 S :    0.403586
   1 C :   -0.195097
   2 C :   -0.059263
   3 C :   -0.067352
   4 C :   -0.183144
   5 H :    0.032997
   6 C :   -0.037838
   7 H :    0.024416
   8 H :    0.037093
   9 C :   -0.041438
  10 H :    0.025483
  11 H :    0.013998
  12 C :   -0.061237
  13 H :    0.020662
  14 H :    0.034821
  15 H :    0.023600
  16 S :    0.406771
  17 C :   -0.183749
  18 C :   -0.082802
  19 C :   -0.057072
  20 C :   -0.194947
  21 H :    0.041985
  22 C :   -0.049949
  23 H :    0.036668
  24 H :    0.031020
  25 C :   -0.041283
  26 H :    0.017100
  27 H :    0.027761
  28 C :   -0.074371
  29 H :    0.037522
  30 H :    0.030479
  31 H :    0.026957
  32 H :    0.026850
  33 H :    0.029775

  Mayer bond orders larger than 0.100000
B(  0-S ,  1-C ) :   1.1208 B(  0-S ,  4-C ) :   1.1485 B(  1-C ,  2-C ) :   1.5936
B(  1-C , 32-H ) :   0.9725 B(  2-C ,  3-C ) :   1.2356 B(  2-C ,  6-C ) :   1.0484
B(  3-C ,  4-C ) :   1.5582 B(  3-C ,  5-H ) :   0.9866 B(  4-C , 20-C ) :   1.1051
B(  6-C ,  7-H ) :   0.9429 B(  6-C ,  8-H ) :   0.9369 B(  6-C ,  9-C ) :   1.0538
B(  9-C , 10-H ) :   0.9575 B(  9-C , 11-H ) :   0.9544 B(  9-C , 12-C ) :   1.0829
B( 12-C , 13-H ) :   0.9767 B( 12-C , 14-H ) :   0.9717 B( 12-C , 15-H ) :   0.9742
B( 16-S , 17-C ) :   1.1500 B( 16-S , 20-C ) :   1.1366 B( 17-C , 18-C ) :   1.6180
B( 17-C , 33-H ) :   0.9614 B( 18-C , 19-C ) :   1.2791 B( 18-C , 21-H ) :   0.9693
B( 19-C , 20-C ) :   1.5543 B( 19-C , 22-C ) :   1.0151 B( 22-C , 23-H ) :   0.9367
B( 22-C , 24-H ) :   0.9282 B( 22-C , 25-C ) :   1.0722 B( 25-C , 26-H ) :   0.9488
B( 25-C , 27-H ) :   0.9513 B( 25-C , 28-C ) :   1.0742 B( 28-C , 29-H ) :   0.9722
B( 28-C , 30-H ) :   0.9771 B( 28-C , 31-H ) :   0.9735

Dispersion correction           -0.013533497
FINAL SINGLE POINT ENERGY     -1339.870310058514

DIPOLE MOMENT
-------------
                                X             Y             Z
Electronic contribution:     31.27457       0.03651      12.56163
Nuclear contribution   :    -31.95152      -0.15526     -13.06197
                        -----------------------------------------
Total Dipole Moment    :     -0.67696      -0.11875      -0.50034
                        -----------------------------------------
Magnitude (a.u.)       :      0.85012
Magnitude (Debye)      :      2.16084

Rotational constants in cm-1:     0.015728     0.009764     0.006187
Rotational constants in MHz :   471.510722   292.716769   185.483161

                             ****ORCA TERMINATED NORMALLY****
TOTAL RUN TIME: 0 days 0 hours 0 minutes 27 seconds 994 msec
