                         Program Version 4.2.1 -  RELEASE  -
|  1> ! wB97X-D3 SP def2-SVP
|  2> %pal
|  3> nprocs 16
|  4> end
|  5>
|  6> * xyz 0 1
|  7> S 	 38.7726 	 18.3092 	 66.2984
|  8> C 	 37.2424 	 17.8226 	 66.9021
|  9> C 	 37.303 	 16.5251 	 67.375
| 10> C 	 38.5155 	 15.85 	 67.0169
| 11> C 	 39.4296 	 16.6619 	 66.4786
| 12> H 	 38.7035 	 14.8322 	 67.2756
| 13> C 	 36.2003 	 15.7598 	 67.9473
| 14> H 	 36.2008 	 14.7744 	 67.5974
| 15> H 	 35.2804 	 16.337 	 67.5405
| 16> C 	 36.1341 	 15.8406 	 69.4532
| 17> H 	 36.5167 	 14.9316 	 69.8858
| 18> H 	 36.9776 	 16.4641 	 69.8542
| 19> C 	 34.7124 	 16.1231 	 70.0399
| 20> H 	 34.2769 	 17.0439 	 69.6968
| 21> H 	 33.9397 	 15.355 	 69.7704
| 22> H 	 34.6683 	 16.0602 	 71.0988
| 23> S 	 41.6337 	 15.266 	 67.016
| 24> C 	 42.8233 	 15.0627 	 65.8075
| 25> C 	 42.568 	 15.7639 	 64.6793
| 26> C 	 41.386 	 16.5512 	 64.7874
| 27> C 	 40.7114 	 16.2897 	 65.9465
| 28> H 	 43.3856 	 15.7885 	 64.0417
| 29> C 	 40.9083 	 17.3731 	 63.6798
| 30> H 	 40.2007 	 18.1186 	 64.0442
| 31> H 	 40.4985 	 16.6785 	 62.9274
| 32> C 	 41.9605 	 18.0381 	 62.7644
| 33> H 	 41.529 	 18.8182 	 62.0469
| 34> H 	 42.434 	 17.2385 	 62.1598
| 35> C 	 43.1418 	 18.7424 	 63.5551
| 36> H 	 42.71 	 19.3982 	 64.3228
| 37> H 	 43.5963 	 19.5096 	 63.0003
| 38> H 	 43.8691 	 18.0986 	 63.9328
| 39> H 	 36.4133 	 18.4622 	 66.9786
| 40> H 	 43.7999 	 14.5591 	 65.7609
| 41> *
| 42>
| 43>                          ****END OF INPUT****

CARTESIAN COORDINATES (ANGSTROEM)
---------------------------------
  S     38.772600   18.309200   66.298400
  C     37.242400   17.822600   66.902100
  C     37.303000   16.525100   67.375000
  C     38.515500   15.850000   67.016900
  C     39.429600   16.661900   66.478600
  H     38.703500   14.832200   67.275600
  C     36.200300   15.759800   67.947300
  H     36.200800   14.774400   67.597400
  H     35.280400   16.337000   67.540500
  C     36.134100   15.840600   69.453200
  H     36.516700   14.931600   69.885800
  H     36.977600   16.464100   69.854200
  C     34.712400   16.123100   70.039900
  H     34.276900   17.043900   69.696800
  H     33.939700   15.355000   69.770400
  H     34.668300   16.060200   71.098800
  S     41.633700   15.266000   67.016000
  C     42.823300   15.062700   65.807500
  C     42.568000   15.763900   64.679300
  C     41.386000   16.551200   64.787400
  C     40.711400   16.289700   65.946500
  H     43.385600   15.788500   64.041700
  C     40.908300   17.373100   63.679800
  H     40.200700   18.118600   64.044200
  H     40.498500   16.678500   62.927400
  C     41.960500   18.038100   62.764400
  H     41.529000   18.818200   62.046900
  H     42.434000   17.238500   62.159800
  C     43.141800   18.742400   63.555100
  H     42.710000   19.398200   64.322800
  H     43.596300   19.509600   63.000300
  H     43.869100   18.098600   63.932800
  H     36.413300   18.462200   66.978600
  H     43.799900   14.559100   65.760900

 Total Charge           Charge          ....    0
 Multiplicity           Mult            ....    1
 Number of Electrons    NEL             ....  134
 Basis Dimension        Dim             ....  322

ORBITAL ENERGIES
----------------

  NO   OCC          E(Eh)            E(eV)
   0   2.0000     -88.965003     -2420.8608
   1   2.0000     -88.962624     -2420.7961
   2   2.0000     -10.324969      -280.9567
   3   2.0000     -10.319789      -280.8157
   4   2.0000     -10.309810      -280.5442
   5   2.0000     -10.307686      -280.4864
   6   2.0000     -10.298507      -280.2366
   7   2.0000     -10.296057      -280.1700
   8   2.0000     -10.293285      -280.0945
   9   2.0000     -10.286340      -279.9055
  10   2.0000     -10.285773      -279.8901
  11   2.0000     -10.285129      -279.8726
  12   2.0000     -10.284908      -279.8666
  13   2.0000     -10.281136      -279.7639
  14   2.0000     -10.280323      -279.7418
  15   2.0000     -10.266008      -279.3523
  16   2.0000      -8.080554      -219.8830
  17   2.0000      -8.077464      -219.7990
  18   2.0000      -6.039020      -164.3301
  19   2.0000      -6.036066      -164.2497
  20   2.0000      -6.035003      -164.2208
  21   2.0000      -6.031970      -164.1383
  22   2.0000      -6.031254      -164.1188
  23   2.0000      -6.028130      -164.0338
  24   2.0000      -1.016149       -27.6508
  25   2.0000      -0.992597       -27.0099
  26   2.0000      -0.915582       -24.9143
  27   2.0000      -0.910393       -24.7731
  28   2.0000      -0.878330       -23.9006
  29   2.0000      -0.850680       -23.1482
  30   2.0000      -0.843433       -22.9510
  31   2.0000      -0.823205       -22.4005
  32   2.0000      -0.787057       -21.4169
  33   2.0000      -0.772979       -21.0338
  34   2.0000      -0.714568       -19.4444
  35   2.0000      -0.706377       -19.2215
  36   2.0000      -0.691321       -18.8118
  37   2.0000      -0.664449       -18.0806
  38   2.0000      -0.643011       -17.4972
  39   2.0000      -0.624042       -16.9811
  40   2.0000      -0.591031       -16.0828
  41   2.0000      -0.576243       -15.6804
  42   2.0000      -0.560601       -15.2547
  43   2.0000      -0.558367       -15.1939
  44   2.0000      -0.536827       -14.6078
  45   2.0000      -0.527841       -14.3633
  46   2.0000      -0.519613       -14.1394
  47   2.0000      -0.516235       -14.0475
  48   2.0000      -0.505371       -13.7518
  49   2.0000      -0.500248       -13.6125
  50   2.0000      -0.488468       -13.2919
  51   2.0000      -0.483267       -13.1504
  52   2.0000      -0.472899       -12.8682
  53   2.0000      -0.472138       -12.8475
  54   2.0000      -0.465073       -12.6553
  55   2.0000      -0.448413       -12.2019
  56   2.0000      -0.441383       -12.0106
  57   2.0000      -0.433194       -11.7878
  58   2.0000      -0.427301       -11.6274
  59   2.0000      -0.421525       -11.4703
  60   2.0000      -0.417514       -11.3611
  61   2.0000      -0.413862       -11.2618
  62   2.0000      -0.405790       -11.0421
  63   2.0000      -0.354935        -9.6583
  64   2.0000      -0.331573        -9.0225
  65   2.0000      -0.325158        -8.8480
  66   2.0000      -0.289570        -7.8796
  67   0.0000       0.032278         0.8783
  68   0.0000       0.082343         2.2407
  69   0.0000       0.110350         3.0028
  70   0.0000       0.117389         3.1943
  71   0.0000       0.134835         3.6690

MULLIKEN ATOMIC CHARGES
-----------------------
   0 S :    0.100808
   1 C :   -0.102486
   2 C :   -0.100177
   3 C :    0.008193
   4 C :   -0.109816
   5 H :    0.007827
   6 C :    0.066667
   7 H :    0.020217
   8 H :    0.033285
   9 C :   -0.053352
  10 H :    0.009681
  11 H :    0.039825
  12 C :   -0.050071
  13 H :    0.030246
  14 H :    0.030578
  15 H :    0.025910
  16 S :    0.117551
  17 C :   -0.072654
  18 C :   -0.053442
  19 C :   -0.021327
  20 C :   -0.154856
  21 H :   -0.005123
  22 C :    0.101986
  23 H :    0.028199
  24 H :    0.047833
  25 C :   -0.148564
  26 H :    0.050800
  27 H :    0.033502
  28 C :   -0.019879
  29 H :    0.022628
  30 H :    0.011620
  31 H :    0.026109
  32 H :    0.028785
  33 H :    0.049495
Sum of atomic charges:    0.0000000

LOEWDIN ATOMIC CHARGES
----------------------
   0 S :    0.406172
   1 C :   -0.197362
   2 C :   -0.062515
   3 C :   -0.064501
   4 C :   -0.178376
   5 H :    0.027173
   6 C :   -0.033330
   7 H :    0.024066
   8 H :    0.042742
   9 C :   -0.048431
  10 H :    0.021884
  11 H :    0.033406
  12 C :   -0.065611
  13 H :    0.019796
  14 H :    0.031970
  15 H :    0.021791
  16 S :    0.427390
  17 C :   -0.197571
  18 C :   -0.072001
  19 C :   -0.054370
  20 C :   -0.194794
  21 H :    0.020677
  22 C :   -0.041289
  23 H :    0.018329
  24 H :    0.047778
  25 C :   -0.043058
  26 H :    0.037014
  27 H :    0.021176
  28 C :   -0.068861
  29 H :    0.029848
  30 H :    0.019188
  31 H :    0.013897
  32 H :    0.018392
  33 H :    0.039380

  Mayer bond orders larger than 0.100000
B(  0-S ,  1-C ) :   1.1370 B(  0-S ,  4-C ) :   1.1265 B(  1-C ,  2-C ) :   1.6104
B(  1-C , 32-H ) :   0.9737 B(  2-C ,  3-C ) :   1.2218 B(  2-C ,  6-C ) :   1.0426
B(  3-C ,  4-C ) :   1.5941 B(  3-C ,  5-H ) :   0.9948 B(  4-C , 20-C ) :   1.0432
B(  6-C ,  7-H ) :   0.9379 B(  6-C ,  8-H ) :   0.9546 B(  6-C ,  9-C ) :   1.0275
B(  9-C , 10-H ) :   0.9452 B(  9-C , 11-H ) :   0.9627 B(  9-C , 12-C ) :   1.0739
B( 12-C , 13-H ) :   0.9785 B( 12-C , 14-H ) :   0.9750 B( 12-C , 15-H ) :   0.9751
B( 16-S , 17-C ) :   1.1489 B( 16-S , 20-C ) :   1.1331 B( 17-C , 18-C ) :   1.6695
B( 17-C , 33-H ) :   0.9546 B( 18-C , 19-C ) :   1.1946 B( 18-C , 21-H ) :   0.9908
B( 19-C , 20-C ) :   1.5998 B( 19-C , 22-C ) :   1.0705 B( 22-C , 23-H ) :   0.9254
B( 22-C , 24-H ) :   0.9241 B( 22-C , 25-C ) :   1.0591 B( 25-C , 26-H ) :   0.9600
B( 25-C , 27-H ) :   0.9530 B( 25-C , 28-C ) :   1.0781 B( 28-C , 29-H ) :   0.9728
B( 28-C , 30-H ) :   0.9731 B( 28-C , 31-H ) :   0.9738

Dispersion correction           -0.014165906
FINAL SINGLE POINT ENERGY     -1339.850574143179

DIPOLE MOMENT
-------------
                                X             Y             Z
Electronic contribution:      8.22539      -2.52575       1.27667
Nuclear contribution   :     -8.32259       2.37045      -1.40887
                        -----------------------------------------
Total Dipole Moment    :     -0.09720      -0.15530      -0.13220
                        -----------------------------------------
Magnitude (a.u.)       :      0.22593
Magnitude (Debye)      :      0.57426

Rotational constants in cm-1:     0.028793     0.007075     0.005994
Rotational constants in MHz :   863.198338   212.095659   179.695189

                             ****ORCA TERMINATED NORMALLY****
TOTAL RUN TIME: 0 days 0 hours 0 minutes 29 seconds 517 msec
