                         Program Version 4.2.1 -  RELEASE  -
|  1> ! wB97X-D3 SP def2-SVP
|  2> %pal
|  3> nprocs 16
|  4> end
|  5>
|  6> * xyz 0 1
|  7> S 	 59.0674 	 16.4738 	 54.3552
|  8> C 	 58.199 	 17.9928 	 54.6236
|  9> C 	 56.9961 	 17.781 	 55.1928
| 10> C 	 56.8332 	 16.4109 	 55.5334
| 11> C 	 57.8966 	 15.5791 	 55.2881
| 12> H 	 55.8729 	 16.0928 	 56.0146
| 13> C 	 56.0627 	 18.8545 	 55.7473
| 14> H 	 55.0111 	 18.426 	 55.8581
| 15> H 	 55.992 	 19.6752 	 55.114
| 16> C 	 56.6194 	 19.3952 	 57.131
| 17> H 	 56.6525 	 18.5803 	 57.8703
| 18> H 	 57.7065 	 19.6582 	 57.1017
| 19> C 	 55.7936 	 20.6081 	 57.7327
| 20> H 	 56.2824 	 21.0453 	 58.6279
| 21> H 	 55.5781 	 21.4371 	 57.0004
| 22> H 	 54.8334 	 20.2592 	 58.0292
| 23> S 	 58.9133 	 13.4042 	 56.5235
| 24> C 	 58.4113 	 11.8286 	 56.053
| 25> C 	 57.5123 	 11.8678 	 55.0182
| 26> C 	 57.1366 	 13.1873 	 54.6211
| 27> C 	 57.8565 	 14.1377 	 55.3615
| 28> H 	 57.2865 	 10.8429 	 54.7423
| 29> C 	 56.0893 	 13.4005 	 53.5581
| 30> H 	 56.3026 	 12.7417 	 52.8017
| 31> H 	 56.2367 	 14.4391 	 53.0903
| 32> C 	 54.5849 	 13.2994 	 53.9586
| 33> H 	 54.4356 	 14.0555 	 54.6277
| 34> H 	 54.546 	 12.3746 	 54.4857
| 35> C 	 53.5595 	 13.2989 	 52.7914
| 36> H 	 53.7609 	 12.5519 	 51.9968
| 37> H 	 53.5908 	 14.3037 	 52.2641
| 38> H 	 52.5809 	 13.0525 	 53.1377
| 39> H 	 58.5985 	 18.9378 	 54.2602
| 40> H 	 58.9549 	 10.9424 	 56.431
| 41> *
| 42>
| 43>                          ****END OF INPUT****

CARTESIAN COORDINATES (ANGSTROEM)
---------------------------------
  S     59.067400   16.473800   54.355200
  C     58.199000   17.992800   54.623600
  C     56.996100   17.781000   55.192800
  C     56.833200   16.410900   55.533400
  C     57.896600   15.579100   55.288100
  H     55.872900   16.092800   56.014600
  C     56.062700   18.854500   55.747300
  H     55.011100   18.426000   55.858100
  H     55.992000   19.675200   55.114000
  C     56.619400   19.395200   57.131000
  H     56.652500   18.580300   57.870300
  H     57.706500   19.658200   57.101700
  C     55.793600   20.608100   57.732700
  H     56.282400   21.045300   58.627900
  H     55.578100   21.437100   57.000400
  H     54.833400   20.259200   58.029200
  S     58.913300   13.404200   56.523500
  C     58.411300   11.828600   56.053000
  C     57.512300   11.867800   55.018200
  C     57.136600   13.187300   54.621100
  C     57.856500   14.137700   55.361500
  H     57.286500   10.842900   54.742300
  C     56.089300   13.400500   53.558100
  H     56.302600   12.741700   52.801700
  H     56.236700   14.439100   53.090300
  C     54.584900   13.299400   53.958600
  H     54.435600   14.055500   54.627700
  H     54.546000   12.374600   54.485700
  C     53.559500   13.298900   52.791400
  H     53.760900   12.551900   51.996800
  H     53.590800   14.303700   52.264100
  H     52.580900   13.052500   53.137700
  H     58.598500   18.937800   54.260200
  H     58.954900   10.942400   56.431000

 Total Charge           Charge          ....    0
 Multiplicity           Mult            ....    1
 Number of Electrons    NEL             ....  134
 Basis Dimension        Dim             ....  322

ORBITAL ENERGIES
----------------

  NO   OCC          E(Eh)            E(eV)
   0   2.0000     -88.963201     -2420.8118
   1   2.0000     -88.961478     -2420.7649
   2   2.0000     -10.324340      -280.9396
   3   2.0000     -10.324110      -280.9333
   4   2.0000     -10.314095      -280.6608
   5   2.0000     -10.313076      -280.6331
   6   2.0000     -10.308642      -280.5124
   7   2.0000     -10.299998      -280.2772
   8   2.0000     -10.297031      -280.1965
   9   2.0000     -10.296808      -280.1904
  10   2.0000     -10.294067      -280.1158
  11   2.0000     -10.291990      -280.0593
  12   2.0000     -10.287020      -279.9240
  13   2.0000     -10.284960      -279.8680
  14   2.0000     -10.284874      -279.8656
  15   2.0000     -10.278943      -279.7043
  16   2.0000      -8.077952      -219.8122
  17   2.0000      -8.077443      -219.7984
  18   2.0000      -6.036497      -164.2614
  19   2.0000      -6.035667      -164.2388
  20   2.0000      -6.032493      -164.1525
  21   2.0000      -6.031685      -164.1305
  22   2.0000      -6.028617      -164.0470
  23   2.0000      -6.028537      -164.0448
  24   2.0000      -1.010115       -27.4866
  25   2.0000      -0.988475       -26.8978
  26   2.0000      -0.906071       -24.6554
  27   2.0000      -0.904006       -24.5993
  28   2.0000      -0.868429       -23.6312
  29   2.0000      -0.850416       -23.1410
  30   2.0000      -0.841764       -22.9056
  31   2.0000      -0.813391       -22.1335
  32   2.0000      -0.782665       -21.2974
  33   2.0000      -0.772075       -21.0092
  34   2.0000      -0.711476       -19.3603
  35   2.0000      -0.701682       -19.0937
  36   2.0000      -0.696896       -18.9635
  37   2.0000      -0.656846       -17.8737
  38   2.0000      -0.640189       -17.4204
  39   2.0000      -0.624303       -16.9882
  40   2.0000      -0.593605       -16.1528
  41   2.0000      -0.568987       -15.4829
  42   2.0000      -0.561035       -15.2665
  43   2.0000      -0.547768       -14.9055
  44   2.0000      -0.521176       -14.1819
  45   2.0000      -0.520353       -14.1595
  46   2.0000      -0.517777       -14.0894
  47   2.0000      -0.510633       -13.8950
  48   2.0000      -0.509465       -13.8633
  49   2.0000      -0.500817       -13.6279
  50   2.0000      -0.491508       -13.3746
  51   2.0000      -0.472683       -12.8624
  52   2.0000      -0.465479       -12.6663
  53   2.0000      -0.461642       -12.5619
  54   2.0000      -0.458875       -12.4866
  55   2.0000      -0.448556       -12.2058
  56   2.0000      -0.445243       -12.1157
  57   2.0000      -0.438992       -11.9456
  58   2.0000      -0.434691       -11.8286
  59   2.0000      -0.426675       -11.6104
  60   2.0000      -0.423382       -11.5208
  61   2.0000      -0.416367       -11.3299
  62   2.0000      -0.415047       -11.2940
  63   2.0000      -0.334943        -9.1143
  64   2.0000      -0.332034        -9.0351
  65   2.0000      -0.324663        -8.8345
  66   2.0000      -0.308454        -8.3935
  67   0.0000       0.040143         1.0923
  68   0.0000       0.061633         1.6771
  69   0.0000       0.113864         3.0984
  70   0.0000       0.124541         3.3889
  71   0.0000       0.131154         3.5689

MULLIKEN ATOMIC CHARGES
-----------------------
   0 S :    0.106413
   1 C :   -0.142503
   2 C :   -0.054680
   3 C :    0.000530
   4 C :   -0.120874
   5 H :    0.025246
   6 C :    0.075296
   7 H :    0.037792
   8 H :    0.009138
   9 C :   -0.098671
  10 H :    0.029273
  11 H :    0.036717
  12 C :   -0.054492
  13 H :    0.044348
  14 H :    0.037276
  15 H :    0.023078
  16 S :    0.112640
  17 C :   -0.124739
  18 C :   -0.046177
  19 C :    0.005019
  20 C :   -0.204854
  21 H :    0.020237
  22 C :    0.072219
  23 H :   -0.000778
  24 H :    0.031363
  25 C :   -0.010895
  26 H :    0.004576
  27 H :    0.013529
  28 C :   -0.054557
  29 H :    0.030488
  30 H :    0.042450
  31 H :    0.034127
  32 H :    0.050864
  33 H :    0.070604
Sum of atomic charges:    0.0000000

LOEWDIN ATOMIC CHARGES
----------------------
   0 S :    0.399131
   1 C :   -0.177777
   2 C :   -0.073872
   3 C :   -0.060334
   4 C :   -0.210634
   5 H :    0.035176
   6 C :   -0.023303
   7 H :    0.037949
   8 H :    0.017268
   9 C :   -0.041549
  10 H :    0.024879
  11 H :    0.028114
  12 C :   -0.072359
  13 H :    0.031677
  14 H :    0.028528
  15 H :    0.017674
  16 S :    0.426763
  17 C :   -0.200219
  18 C :   -0.078816
  19 C :   -0.047812
  20 C :   -0.208114
  21 H :    0.036686
  22 C :   -0.028438
  23 H :    0.016329
  24 H :    0.036980
  25 C :   -0.025700
  26 H :    0.010750
  27 H :    0.019597
  28 C :   -0.065617
  29 H :    0.027637
  30 H :    0.033350
  31 H :    0.023325
  32 H :    0.028492
  33 H :    0.034238

  Mayer bond orders larger than 0.100000
B(  0-S ,  1-C ) :   1.1446 B(  0-S ,  4-C ) :   1.1440 B(  1-C ,  2-C ) :   1.6038
B(  1-C , 32-H ) :   0.9699 B(  2-C ,  3-C ) :   1.2515 B(  2-C ,  6-C ) :   1.0380
B(  3-C ,  4-C ) :   1.5769 B(  3-C ,  5-H ) :   0.9902 B(  4-C , 20-C ) :   1.0198
B(  6-C ,  7-H ) :   0.9436 B(  6-C ,  8-H ) :   0.9388 B(  6-C ,  9-C ) :   1.0438
B(  9-C , 10-H ) :   0.9583 B(  9-C , 11-H ) :   0.9620 B(  9-C , 12-C ) :   1.0661
B( 12-C , 13-H ) :   0.9758 B( 12-C , 14-H ) :   0.9779 B( 12-C , 15-H ) :   0.9769
B( 16-S , 17-C ) :   1.1688 B( 16-S , 20-C ) :   1.1702 B( 17-C , 18-C ) :   1.6182
B( 17-C , 33-H ) :   0.9613 B( 18-C , 19-C ) :   1.2095 B( 18-C , 21-H ) :   0.9952
B( 19-C , 20-C ) :   1.5804 B( 19-C , 22-C ) :   1.0562 B( 22-C , 23-H ) :   0.9272
B( 22-C , 24-H ) :   0.9286 B( 22-C , 25-C ) :   1.0584 B( 25-C , 26-H ) :   0.9544
B( 25-C , 27-H ) :   0.9551 B( 25-C , 28-C ) :   1.0795 B( 28-C , 29-H ) :   0.9754
B( 28-C , 30-H ) :   0.9758 B( 28-C , 31-H ) :   0.9751

Dispersion correction           -0.014073251
FINAL SINGLE POINT ENERGY     -1339.873651220748

DIPOLE MOMENT
-------------
                                X             Y             Z
Electronic contribution:     23.53292     -10.94428       0.95645
Nuclear contribution   :    -24.05683      10.99848      -1.01988
                        -----------------------------------------
Total Dipole Moment    :     -0.52391       0.05420      -0.06343
                        -----------------------------------------
Magnitude (a.u.)       :      0.53051
Magnitude (Debye)      :      1.34846

Rotational constants in cm-1:     0.017463     0.008026     0.006603
Rotational constants in MHz :   523.512690   240.600898   197.944095

                             ****ORCA TERMINATED NORMALLY****
TOTAL RUN TIME: 0 days 0 hours 0 minutes 29 seconds 125 msec
