                         Program Version 4.2.1 -  RELEASE  -
|  1> ! wB97X-D3 SP def2-SVP
|  2> %pal
|  3> nprocs 16
|  4> end
|  5>
|  6> * xyz 0 1
|  7> S 	 38.4755 	 28.9927 	 52.609
|  8> C 	 38.587 	 30.7072 	 53.0396
|  9> C 	 38.6977 	 31.5242 	 51.9129
| 10> C 	 38.7465 	 30.712 	 50.7381
| 11> C 	 38.625 	 29.3325 	 50.9546
| 12> H 	 38.8485 	 31.0928 	 49.757
| 13> C 	 38.9131 	 32.9854 	 51.878
| 14> H 	 38.0369 	 33.5115 	 51.87
| 15> H 	 39.2946 	 33.1756 	 50.8693
| 16> C 	 39.8594 	 33.6297 	 52.9256
| 17> H 	 39.8544 	 34.6848 	 52.7366
| 18> H 	 39.5372 	 33.4721 	 53.9699
| 19> C 	 41.3028 	 33.206 	 52.7269
| 20> H 	 41.8456 	 33.4731 	 51.794
| 21> H 	 41.821 	 33.6064 	 53.5172
| 22> H 	 41.2991 	 32.1383 	 52.9481
| 23> S 	 39.9746 	 27.5535 	 49.2913
| 24> C 	 39.1194 	 26.2648 	 48.5879
| 25> C 	 37.7441 	 26.3195 	 48.8659
| 26> C 	 37.5062 	 27.3976 	 49.7525
| 27> C 	 38.5508 	 28.2293 	 49.9631
| 28> H 	 37.0489 	 25.5732 	 48.5773
| 29> C 	 36.2046 	 27.4906 	 50.5339
| 30> H 	 35.411 	 27.4632 	 49.7595
| 31> H 	 36.1912 	 28.4132 	 51.082
| 32> C 	 35.7537 	 26.36 	 51.5428
| 33> H 	 34.8814 	 26.8202 	 52.0022
| 34> H 	 36.559 	 26.3349 	 52.2758
| 35> C 	 35.414 	 25.0207 	 50.985
| 36> H 	 34.7885 	 24.3634 	 51.6239
| 37> H 	 36.2884 	 24.3625 	 50.7423
| 38> H 	 34.7045 	 25.1732 	 50.0924
| 39> H 	 38.6422 	 31.0309 	 54.0425
| 40> H 	 39.5435 	 25.4549 	 47.9237
| 41> *
| 42>
| 43>                          ****END OF INPUT****

CARTESIAN COORDINATES (ANGSTROEM)
---------------------------------
  S     38.475500   28.992700   52.609000
  C     38.587000   30.707200   53.039600
  C     38.697700   31.524200   51.912900
  C     38.746500   30.712000   50.738100
  C     38.625000   29.332500   50.954600
  H     38.848500   31.092800   49.757000
  C     38.913100   32.985400   51.878000
  H     38.036900   33.511500   51.870000
  H     39.294600   33.175600   50.869300
  C     39.859400   33.629700   52.925600
  H     39.854400   34.684800   52.736600
  H     39.537200   33.472100   53.969900
  C     41.302800   33.206000   52.726900
  H     41.845600   33.473100   51.794000
  H     41.821000   33.606400   53.517200
  H     41.299100   32.138300   52.948100
  S     39.974600   27.553500   49.291300
  C     39.119400   26.264800   48.587900
  C     37.744100   26.319500   48.865900
  C     37.506200   27.397600   49.752500
  C     38.550800   28.229300   49.963100
  H     37.048900   25.573200   48.577300
  C     36.204600   27.490600   50.533900
  H     35.411000   27.463200   49.759500
  H     36.191200   28.413200   51.082000
  C     35.753700   26.360000   51.542800
  H     34.881400   26.820200   52.002200
  H     36.559000   26.334900   52.275800
  C     35.414000   25.020700   50.985000
  H     34.788500   24.363400   51.623900
  H     36.288400   24.362500   50.742300
  H     34.704500   25.173200   50.092400
  H     38.642200   31.030900   54.042500
  H     39.543500   25.454900   47.923700

 Total Charge           Charge          ....    0
 Multiplicity           Mult            ....    1
 Number of Electrons    NEL             ....  134
 Basis Dimension        Dim             ....  322

ORBITAL ENERGIES
----------------

  NO   OCC          E(Eh)            E(eV)
   0   2.0000     -88.967336     -2420.9243
   1   2.0000     -88.965084     -2420.8630
   2   2.0000     -10.326449      -280.9970
   3   2.0000     -10.319681      -280.8128
   4   2.0000     -10.315854      -280.7087
   5   2.0000     -10.312459      -280.6163
   6   2.0000     -10.300784      -280.2986
   7   2.0000     -10.293266      -280.0940
   8   2.0000     -10.290693      -280.0240
   9   2.0000     -10.288865      -279.9743
  10   2.0000     -10.288132      -279.9543
  11   2.0000     -10.286667      -279.9144
  12   2.0000     -10.285309      -279.8775
  13   2.0000     -10.284853      -279.8651
  14   2.0000     -10.283528      -279.8290
  15   2.0000     -10.267579      -279.3950
  16   2.0000      -8.082124      -219.9258
  17   2.0000      -8.081257      -219.9022
  18   2.0000      -6.040513      -164.3707
  19   2.0000      -6.039607      -164.3461
  20   2.0000      -6.036480      -164.2610
  21   2.0000      -6.035498      -164.2343
  22   2.0000      -6.033164      -164.1707
  23   2.0000      -6.032161      -164.1434
  24   2.0000      -1.013794       -27.5867
  25   2.0000      -0.989227       -26.9182
  26   2.0000      -0.917710       -24.9722
  27   2.0000      -0.904394       -24.6098
  28   2.0000      -0.867444       -23.6044
  29   2.0000      -0.851289       -23.1647
  30   2.0000      -0.849462       -23.1150
  31   2.0000      -0.812247       -22.1024
  32   2.0000      -0.787691       -21.4342
  33   2.0000      -0.774432       -21.0734
  34   2.0000      -0.707083       -19.2407
  35   2.0000      -0.697644       -18.9839
  36   2.0000      -0.685613       -18.6565
  37   2.0000      -0.663910       -18.0659
  38   2.0000      -0.644672       -17.5424
  39   2.0000      -0.611439       -16.6381
  40   2.0000      -0.590969       -16.0811
  41   2.0000      -0.578913       -15.7530
  42   2.0000      -0.559012       -15.2115
  43   2.0000      -0.555397       -15.1131
  44   2.0000      -0.545210       -14.8359
  45   2.0000      -0.539100       -14.6696
  46   2.0000      -0.515987       -14.0407
  47   2.0000      -0.510834       -13.9005
  48   2.0000      -0.504741       -13.7347
  49   2.0000      -0.494476       -13.4554
  50   2.0000      -0.484680       -13.1888
  51   2.0000      -0.477122       -12.9831
  52   2.0000      -0.474060       -12.8998
  53   2.0000      -0.470162       -12.7938
  54   2.0000      -0.463864       -12.6224
  55   2.0000      -0.447263       -12.1706
  56   2.0000      -0.442123       -12.0308
  57   2.0000      -0.435667       -11.8551
  58   2.0000      -0.433037       -11.7835
  59   2.0000      -0.424990       -11.5646
  60   2.0000      -0.419213       -11.4074
  61   2.0000      -0.413318       -11.2469
  62   2.0000      -0.409682       -11.1480
  63   2.0000      -0.332971        -9.0606
  64   2.0000      -0.331077        -9.0091
  65   2.0000      -0.322199        -8.7675
  66   2.0000      -0.304796        -8.2939
  67   0.0000       0.045644         1.2420
  68   0.0000       0.061475         1.6728
  69   0.0000       0.111511         3.0344
  70   0.0000       0.124560         3.3895
  71   0.0000       0.128980         3.5097

MULLIKEN ATOMIC CHARGES
-----------------------
   0 S :    0.121600
   1 C :   -0.130358
   2 C :   -0.082697
   3 C :    0.049382
   4 C :   -0.196037
   5 H :   -0.007890
   6 C :    0.129198
   7 H :    0.015919
   8 H :    0.006417
   9 C :   -0.095608
  10 H :    0.022421
  11 H :    0.035796
  12 C :   -0.022914
  13 H :    0.045815
  14 H :    0.006758
  15 H :    0.030972
  16 S :    0.131545
  17 C :   -0.118802
  18 C :   -0.016393
  19 C :   -0.046375
  20 C :   -0.132775
  21 H :    0.008225
  22 C :    0.030967
  23 H :    0.019488
  24 H :    0.032057
  25 C :   -0.027216
  26 H :    0.032558
  27 H :    0.022801
  28 C :   -0.088474
  29 H :    0.034795
  30 H :    0.051061
  31 H :    0.030246
  32 H :    0.030992
  33 H :    0.076526
Sum of atomic charges:   -0.0000000

LOEWDIN ATOMIC CHARGES
----------------------
   0 S :    0.435917
   1 C :   -0.190693
   2 C :   -0.057216
   3 C :   -0.057197
   4 C :   -0.210691
   5 H :    0.023322
   6 C :   -0.029027
   7 H :    0.023088
   8 H :    0.034449
   9 C :   -0.033340
  10 H :    0.022618
  11 H :    0.026433
  12 C :   -0.064286
  13 H :    0.032088
  14 H :    0.014180
  15 H :    0.028005
  16 S :    0.447307
  17 C :   -0.205470
  18 C :   -0.070485
  19 C :   -0.059266
  20 C :   -0.230147
  21 H :    0.026876
  22 C :   -0.033149
  23 H :    0.028687
  24 H :    0.021704
  25 C :   -0.038527
  26 H :    0.030161
  27 H :    0.019235
  28 C :   -0.083667
  29 H :    0.029631
  30 H :    0.031551
  31 H :    0.030662
  32 H :    0.015075
  33 H :    0.042171

  Mayer bond orders larger than 0.100000
B(  0-S ,  1-C ) :   1.1489 B(  0-S ,  4-C ) :   1.1818 B(  1-C ,  2-C ) :   1.5714
B(  1-C , 32-H ) :   0.9784 B(  2-C ,  3-C ) :   1.2650 B(  2-C ,  6-C ) :   1.0198
B(  3-C ,  4-C ) :   1.5674 B(  3-C ,  5-H ) :   0.9986 B(  4-C , 20-C ) :   0.9716
B(  6-C ,  7-H ) :   0.9180 B(  6-C ,  8-H ) :   0.9347 B(  6-C ,  9-C ) :   1.0816
B(  9-C , 10-H ) :   0.9521 B(  9-C , 11-H ) :   0.9546 B(  9-C , 12-C ) :   1.0832
B( 12-C , 13-H ) :   0.9747 B( 12-C , 14-H ) :   0.9686 B( 12-C , 15-H ) :   0.9721
B( 16-S , 17-C ) :   1.1979 B( 16-S , 20-C ) :   1.1480 B( 17-C , 18-C ) :   1.5628
B( 17-C , 33-H ) :   0.9578 B( 18-C , 19-C ) :   1.2641 B( 18-C , 21-H ) :   0.9968
B( 19-C , 20-C ) :   1.6061 B( 19-C , 22-C ) :   1.0490 B( 22-C , 23-H ) :   0.9298
B( 22-C , 24-H ) :   0.9314 B( 22-C , 25-C ) :   1.0700 B( 25-C , 26-H ) :   0.9523
B( 25-C , 27-H ) :   0.9505 B( 25-C , 28-C ) :   1.0855 B( 28-C , 29-H ) :   0.9688
B( 28-C , 30-H ) :   0.9685 B( 28-C , 31-H ) :   0.9676

Dispersion correction           -0.014801252
FINAL SINGLE POINT ENERGY     -1339.872135347073

DIPOLE MOMENT
-------------
                                X             Y             Z
Electronic contribution:      7.06692      -7.49516      -6.36343
Nuclear contribution   :     -7.27239       7.69693       6.49044
                        -----------------------------------------
Total Dipole Moment    :     -0.20547       0.20177       0.12701
                        -----------------------------------------
Magnitude (a.u.)       :      0.31474
Magnitude (Debye)      :      0.80001

Rotational constants in cm-1:     0.026417     0.007493     0.006368
Rotational constants in MHz :   791.958710   224.619918   190.902453

                             ****ORCA TERMINATED NORMALLY****
TOTAL RUN TIME: 0 days 0 hours 0 minutes 35 seconds 471 msec
