                         Program Version 4.2.1 -  RELEASE  -
|  1> ! wB97X-D3 SP def2-SVP
|  2> %pal
|  3> nprocs 16
|  4> end
|  5>
|  6> * xyz 0 1
|  7> S 	 18.7097 	 -9.93754 	 80.839
|  8> C 	 19.3826 	 -11.2466 	 81.7736
|  9> C 	 20.6917 	 -11.4923 	 81.3971
| 10> C 	 21.1987 	 -10.519 	 80.4951
| 11> C 	 20.2405 	 -9.61336 	 80.0702
| 12> H 	 22.2268 	 -10.4397 	 80.1166
| 13> C 	 21.5557 	 -12.5731 	 82.0382
| 14> H 	 21.2303 	 -12.9216 	 82.9958
| 15> H 	 22.5366 	 -12.0737 	 82.1951
| 16> C 	 21.7286 	 -13.8895 	 81.1565
| 17> H 	 20.7642 	 -14.1593 	 80.7518
| 18> H 	 22.2757 	 -13.6196 	 80.3133
| 19> C 	 22.5106 	 -15.137 	 81.7949
| 20> H 	 23.548 	 -14.9073 	 82.1573
| 21> H 	 22.0893 	 -15.5235 	 82.6772
| 22> H 	 22.8104 	 -15.8831 	 80.9655
| 23> S 	 20.0123 	 -6.89979 	 80.2141
| 24> C 	 20.1319 	 -5.92452 	 78.7767
| 25> C 	 20.9032 	 -6.59383 	 77.8254
| 26> C 	 20.9986 	 -7.97412 	 78.125
| 27> C 	 20.4378 	 -8.37271 	 79.3124
| 28> H 	 21.2162 	 -6.11025 	 76.8772
| 29> C 	 21.7072 	 -8.88046 	 77.0908
| 30> H 	 22.1322 	 -9.7872 	 77.5887
| 31> H 	 22.6474 	 -8.41827 	 76.7422
| 32> C 	 20.8421 	 -9.36566 	 75.9221
| 33> H 	 20.4603 	 -8.50928 	 75.371
| 34> H 	 19.841 	 -9.78579 	 76.1945
| 35> C 	 21.5396 	 -10.4064 	 75.0984
| 36> H 	 21.7082 	 -11.3484 	 75.6531
| 37> H 	 22.5009 	 -10.0246 	 74.8539
| 38> H 	 21.1024 	 -10.559 	 74.1355
| 39> H 	 18.804 	 -11.8199 	 82.544
| 40> H 	 19.9613 	 -4.84164 	 78.8006
| 41> *
| 42>
| 43>                          ****END OF INPUT****

CARTESIAN COORDINATES (ANGSTROEM)
---------------------------------
  S     18.709700   -9.937540   80.839000
  C     19.382600  -11.246600   81.773600
  C     20.691700  -11.492300   81.397100
  C     21.198700  -10.519000   80.495100
  C     20.240500   -9.613360   80.070200
  H     22.226800  -10.439700   80.116600
  C     21.555700  -12.573100   82.038200
  H     21.230300  -12.921600   82.995800
  H     22.536600  -12.073700   82.195100
  C     21.728600  -13.889500   81.156500
  H     20.764200  -14.159300   80.751800
  H     22.275700  -13.619600   80.313300
  C     22.510600  -15.137000   81.794900
  H     23.548000  -14.907300   82.157300
  H     22.089300  -15.523500   82.677200
  H     22.810400  -15.883100   80.965500
  S     20.012300   -6.899790   80.214100
  C     20.131900   -5.924520   78.776700
  C     20.903200   -6.593830   77.825400
  C     20.998600   -7.974120   78.125000
  C     20.437800   -8.372710   79.312400
  H     21.216200   -6.110250   76.877200
  C     21.707200   -8.880460   77.090800
  H     22.132200   -9.787200   77.588700
  H     22.647400   -8.418270   76.742200
  C     20.842100   -9.365660   75.922100
  H     20.460300   -8.509280   75.371000
  H     19.841000   -9.785790   76.194500
  C     21.539600  -10.406400   75.098400
  H     21.708200  -11.348400   75.653100
  H     22.500900  -10.024600   74.853900
  H     21.102400  -10.559000   74.135500
  H     18.804000  -11.819900   82.544000
  H     19.961300   -4.841640   78.800600

 Total Charge           Charge          ....    0
 Multiplicity           Mult            ....    1
 Number of Electrons    NEL             ....  134
 Basis Dimension        Dim             ....  322

ORBITAL ENERGIES
----------------

  NO   OCC          E(Eh)            E(eV)
   0   2.0000     -88.967447     -2420.9273
   1   2.0000     -88.960934     -2420.7501
   2   2.0000     -10.331134      -281.1245
   3   2.0000     -10.328350      -281.0487
   4   2.0000     -10.319335      -280.8034
   5   2.0000     -10.319253      -280.8012
   6   2.0000     -10.304596      -280.4023
   7   2.0000     -10.303773      -280.3799
   8   2.0000     -10.298303      -280.2311
   9   2.0000     -10.297412      -280.2068
  10   2.0000     -10.296391      -280.1790
  11   2.0000     -10.296296      -280.1764
  12   2.0000     -10.290601      -280.0215
  13   2.0000     -10.288928      -279.9760
  14   2.0000     -10.283272      -279.8221
  15   2.0000     -10.271219      -279.4941
  16   2.0000      -8.082317      -219.9310
  17   2.0000      -8.075797      -219.7536
  18   2.0000      -6.040743      -164.3770
  19   2.0000      -6.036672      -164.2662
  20   2.0000      -6.034270      -164.2008
  21   2.0000      -6.033262      -164.1734
  22   2.0000      -6.030442      -164.0967
  23   2.0000      -6.026399      -163.9867
  24   2.0000      -1.008303       -27.4373
  25   2.0000      -0.986321       -26.8392
  26   2.0000      -0.907674       -24.6991
  27   2.0000      -0.900613       -24.5069
  28   2.0000      -0.864948       -23.5364
  29   2.0000      -0.851674       -23.1752
  30   2.0000      -0.844265       -22.9736
  31   2.0000      -0.811914       -22.0933
  32   2.0000      -0.779347       -21.2071
  33   2.0000      -0.770698       -20.9718
  34   2.0000      -0.709539       -19.3075
  35   2.0000      -0.701521       -19.0893
  36   2.0000      -0.693509       -18.8713
  37   2.0000      -0.662751       -18.0344
  38   2.0000      -0.642737       -17.4898
  39   2.0000      -0.619750       -16.8643
  40   2.0000      -0.597561       -16.2605
  41   2.0000      -0.563778       -15.3412
  42   2.0000      -0.556362       -15.1394
  43   2.0000      -0.553036       -15.0489
  44   2.0000      -0.526216       -14.3191
  45   2.0000      -0.518597       -14.1117
  46   2.0000      -0.515824       -14.0363
  47   2.0000      -0.510426       -13.8894
  48   2.0000      -0.503276       -13.6948
  49   2.0000      -0.497782       -13.5453
  50   2.0000      -0.489810       -13.3284
  51   2.0000      -0.485106       -13.2004
  52   2.0000      -0.470693       -12.8082
  53   2.0000      -0.468835       -12.7577
  54   2.0000      -0.459050       -12.4914
  55   2.0000      -0.449658       -12.2358
  56   2.0000      -0.439824       -11.9682
  57   2.0000      -0.437875       -11.9152
  58   2.0000      -0.433463       -11.7951
  59   2.0000      -0.422661       -11.5012
  60   2.0000      -0.419419       -11.4130
  61   2.0000      -0.417292       -11.3551
  62   2.0000      -0.403035       -10.9672
  63   2.0000      -0.343878        -9.3574
  64   2.0000      -0.333791        -9.0829
  65   2.0000      -0.324249        -8.8233
  66   2.0000      -0.297357        -8.0915
  67   0.0000       0.025213         0.6861
  68   0.0000       0.067297         1.8312
  69   0.0000       0.102794         2.7972
  70   0.0000       0.122638         3.3371
  71   0.0000       0.127376         3.4661

MULLIKEN ATOMIC CHARGES
-----------------------
   0 S :    0.122941
   1 C :   -0.145755
   2 C :   -0.078271
   3 C :    0.037881
   4 C :   -0.160919
   5 H :    0.026417
   6 C :    0.059849
   7 H :    0.013500
   8 H :    0.031568
   9 C :   -0.041117
  10 H :    0.029444
  11 H :    0.008354
  12 C :   -0.079106
  13 H :    0.022586
  14 H :    0.032852
  15 H :    0.052693
  16 S :    0.092721
  17 C :   -0.098142
  18 C :   -0.045776
  19 C :   -0.023458
  20 C :   -0.150752
  21 H :    0.038180
  22 C :    0.033335
  23 H :    0.010811
  24 H :    0.028680
  25 C :   -0.066995
  26 H :    0.013883
  27 H :    0.030226
  28 C :   -0.007150
  29 H :    0.041715
  30 H :    0.003323
  31 H :    0.026346
  32 H :    0.071178
  33 H :    0.068960
Sum of atomic charges:   -0.0000000

LOEWDIN ATOMIC CHARGES
----------------------
   0 S :    0.420033
   1 C :   -0.202335
   2 C :   -0.069783
   3 C :   -0.059513
   4 C :   -0.203094
   5 H :    0.036698
   6 C :   -0.027227
   7 H :    0.021913
   8 H :    0.033885
   9 C :   -0.032786
  10 H :    0.023301
  11 H :    0.013620
  12 C :   -0.077910
  13 H :    0.028279
  14 H :    0.015265
  15 H :    0.042216
  16 S :    0.397288
  17 C :   -0.184860
  18 C :   -0.076381
  19 C :   -0.059812
  20 C :   -0.188427
  21 H :    0.038632
  22 C :   -0.034185
  23 H :    0.027221
  24 H :    0.032294
  25 C :   -0.049051
  26 H :    0.020600
  27 H :    0.030261
  28 C :   -0.062142
  29 H :    0.031391
  30 H :    0.017352
  31 H :    0.025374
  32 H :    0.040572
  33 H :    0.031309

  Mayer bond orders larger than 0.100000
B(  0-S ,  1-C ) :   1.1498 B(  0-S ,  4-C ) :   1.1646 B(  1-C ,  2-C ) :   1.5885
B(  1-C , 32-H ) :   0.9644 B(  2-C ,  3-C ) :   1.2528 B(  2-C ,  6-C ) :   1.0270
B(  3-C ,  4-C ) :   1.5654 B(  3-C ,  5-H ) :   0.9873 B(  4-C , 20-C ) :   1.0235
B(  6-C ,  7-H ) :   0.9514 B(  6-C ,  8-H ) :   0.9438 B(  6-C ,  9-C ) :   1.0432
B(  9-C , 10-H ) :   0.9606 B(  9-C , 11-H ) :   0.9581 B(  9-C , 12-C ) :   1.0679
B( 12-C , 13-H ) :   0.9739 B( 12-C , 14-H ) :   0.9799 B( 12-C , 15-H ) :   0.9752
B( 16-S , 17-C ) :   1.1683 B( 16-S , 20-C ) :   1.1406 B( 17-C , 18-C ) :   1.5809
B( 17-C , 20-C ) :   0.1068 B( 17-C , 33-H ) :   0.9655 B( 18-C , 19-C ) :   1.2524
B( 18-C , 21-H ) :   0.9856 B( 19-C , 20-C ) :   1.6139 B( 19-C , 22-C ) :   1.0323
B( 22-C , 23-H ) :   0.9414 B( 22-C , 24-H ) :   0.9375 B( 22-C , 25-C ) :   1.0561
B( 25-C , 26-H ) :   0.9508 B( 25-C , 27-H ) :   0.9530 B( 25-C , 28-C ) :   1.0897
B( 28-C , 29-H ) :   0.9729 B( 28-C , 30-H ) :   0.9688 B( 28-C , 31-H ) :   0.9693

Dispersion correction           -0.013375571
FINAL SINGLE POINT ENERGY     -1339.865830731023

DIPOLE MOMENT
-------------
                                X             Y             Z
Electronic contribution:    -15.34656      23.09284      11.31440
Nuclear contribution   :     15.84183     -23.34659     -11.53125
                        -----------------------------------------
Total Dipole Moment    :      0.49527      -0.25375      -0.21684
                        -----------------------------------------
Magnitude (a.u.)       :      0.59725
Magnitude (Debye)      :      1.51809

Rotational constants in cm-1:     0.017706     0.008062     0.006144
Rotational constants in MHz :   530.811651   241.700246   184.195016

                             ****ORCA TERMINATED NORMALLY****
TOTAL RUN TIME: 0 days 0 hours 0 minutes 28 seconds 367 msec
