                         Program Version 4.2.1 -  RELEASE  -
|  1> ! wB97X-D3 SP def2-SVP
|  2> %pal
|  3> nprocs 16
|  4> end
|  5>
|  6> * xyz 0 1
|  7> S 	 32.0772 	 3.37932 	 71.7028
|  8> C 	 30.3464 	 3.7457 	 71.7138
|  9> C 	 29.8097 	 3.22748 	 72.8697
| 10> C 	 30.7541 	 2.52617 	 73.6525
| 11> C 	 32.0388 	 2.3827 	 73.1459
| 12> H 	 30.549 	 2.04993 	 74.6201
| 13> C 	 28.4103 	 3.51735 	 73.3893
| 14> H 	 28.2321 	 4.48038 	 72.9694
| 15> H 	 28.4697 	 3.59756 	 74.4094
| 16> C 	 27.2062 	 2.60322 	 72.9507
| 17> H 	 27.3889 	 1.6556 	 73.5303
| 18> H 	 26.2658 	 2.96306 	 73.338
| 19> C 	 27.0683 	 2.41945 	 71.4718
| 20> H 	 26.0847 	 2.02542 	 71.1915
| 21> H 	 27.0909 	 3.43111 	 71.0893
| 22> H 	 27.8049 	 1.73437 	 71.1103
| 23> S 	 33.9301 	 0.573482 	 72.38
| 24> C 	 35.0638 	 -0.0847212 	 73.5585
| 25> C 	 34.8609 	 0.544591 	 74.7772
| 26> C 	 33.7657 	 1.41269 	 74.8222
| 27> C 	 33.1614 	 1.53164 	 73.5913
| 28> H 	 35.4743 	 0.253233 	 75.623
| 29> C 	 33.4656 	 2.15285 	 76.0975
| 30> H 	 32.4871 	 2.63579 	 75.9859
| 31> H 	 34.1489 	 2.93935 	 76.2727
| 32> C 	 33.5214 	 1.37592 	 77.3607
| 33> H 	 34.5555 	 1.05689 	 77.5484
| 34> H 	 32.9866 	 0.38753 	 77.3391
| 35> C 	 33.0337 	 2.19826 	 78.5977
| 36> H 	 33.0487 	 1.62749 	 79.5547
| 37> H 	 32.0851 	 2.5915 	 78.4508
| 38> H 	 33.553 	 3.14558 	 78.7233
| 39> H 	 29.8338 	 4.36554 	 71.0586
| 40> H 	 35.8446 	 -0.854328 	 73.4894
| 41> *
| 42>
| 43>                          ****END OF INPUT****

CARTESIAN COORDINATES (ANGSTROEM)
---------------------------------
  S     32.077200    3.379320   71.702800
  C     30.346400    3.745700   71.713800
  C     29.809700    3.227480   72.869700
  C     30.754100    2.526170   73.652500
  C     32.038800    2.382700   73.145900
  H     30.549000    2.049930   74.620100
  C     28.410300    3.517350   73.389300
  H     28.232100    4.480380   72.969400
  H     28.469700    3.597560   74.409400
  C     27.206200    2.603220   72.950700
  H     27.388900    1.655600   73.530300
  H     26.265800    2.963060   73.338000
  C     27.068300    2.419450   71.471800
  H     26.084700    2.025420   71.191500
  H     27.090900    3.431110   71.089300
  H     27.804900    1.734370   71.110300
  S     33.930100    0.573482   72.380000
  C     35.063800   -0.084721   73.558500
  C     34.860900    0.544591   74.777200
  C     33.765700    1.412690   74.822200
  C     33.161400    1.531640   73.591300
  H     35.474300    0.253233   75.623000
  C     33.465600    2.152850   76.097500
  H     32.487100    2.635790   75.985900
  H     34.148900    2.939350   76.272700
  C     33.521400    1.375920   77.360700
  H     34.555500    1.056890   77.548400
  H     32.986600    0.387530   77.339100
  C     33.033700    2.198260   78.597700
  H     33.048700    1.627490   79.554700
  H     32.085100    2.591500   78.450800
  H     33.553000    3.145580   78.723300
  H     29.833800    4.365540   71.058600
  H     35.844600   -0.854328   73.489400

 Total Charge           Charge          ....    0
 Multiplicity           Mult            ....    1
 Number of Electrons    NEL             ....  134
 Basis Dimension        Dim             ....  322

ORBITAL ENERGIES
----------------

  NO   OCC          E(Eh)            E(eV)
   0   2.0000     -88.971038     -2421.0250
   1   2.0000     -88.964127     -2420.8370
   2   2.0000     -10.333086      -281.1776
   3   2.0000     -10.330038      -281.0946
   4   2.0000     -10.320573      -280.8371
   5   2.0000     -10.311616      -280.5933
   6   2.0000     -10.300446      -280.2894
   7   2.0000     -10.298824      -280.2453
   8   2.0000     -10.292060      -280.0612
   9   2.0000     -10.290876      -280.0290
  10   2.0000     -10.290407      -280.0162
  11   2.0000     -10.286729      -279.9161
  12   2.0000     -10.286610      -279.9129
  13   2.0000     -10.284123      -279.8452
  14   2.0000     -10.278153      -279.6828
  15   2.0000     -10.272776      -279.5365
  16   2.0000      -8.085593      -220.0202
  17   2.0000      -8.078382      -219.8240
  18   2.0000      -6.044104      -164.4684
  19   2.0000      -6.040053      -164.3582
  20   2.0000      -6.036958      -164.2740
  21   2.0000      -6.036397      -164.2587
  22   2.0000      -6.032812      -164.1612
  23   2.0000      -6.029212      -164.0632
  24   2.0000      -1.010726       -27.5033
  25   2.0000      -0.988209       -26.8905
  26   2.0000      -0.918268       -24.9873
  27   2.0000      -0.911203       -24.7951
  28   2.0000      -0.870941       -23.6995
  29   2.0000      -0.853079       -23.2134
  30   2.0000      -0.845395       -23.0044
  31   2.0000      -0.817540       -22.2464
  32   2.0000      -0.786181       -21.3931
  33   2.0000      -0.779395       -21.2084
  34   2.0000      -0.710443       -19.3321
  35   2.0000      -0.704092       -19.1593
  36   2.0000      -0.696557       -18.9543
  37   2.0000      -0.659735       -17.9523
  38   2.0000      -0.643002       -17.4970
  39   2.0000      -0.619895       -16.8682
  40   2.0000      -0.601784       -16.3754
  41   2.0000      -0.570519       -15.5246
  42   2.0000      -0.566760       -15.4223
  43   2.0000      -0.558888       -15.2081
  44   2.0000      -0.548555       -14.9269
  45   2.0000      -0.531134       -14.4529
  46   2.0000      -0.520562       -14.1652
  47   2.0000      -0.513664       -13.9775
  48   2.0000      -0.505613       -13.7584
  49   2.0000      -0.498363       -13.5611
  50   2.0000      -0.488026       -13.2799
  51   2.0000      -0.481095       -13.0913
  52   2.0000      -0.473657       -12.8889
  53   2.0000      -0.469550       -12.7771
  54   2.0000      -0.461266       -12.5517
  55   2.0000      -0.451222       -12.2784
  56   2.0000      -0.445978       -12.1357
  57   2.0000      -0.442578       -12.0432
  58   2.0000      -0.431072       -11.7301
  59   2.0000      -0.426659       -11.6100
  60   2.0000      -0.415199       -11.2981
  61   2.0000      -0.414275       -11.2730
  62   2.0000      -0.410965       -11.1829
  63   2.0000      -0.349383        -9.5072
  64   2.0000      -0.335834        -9.1385
  65   2.0000      -0.327662        -8.9161
  66   2.0000      -0.293187        -7.9780
  67   0.0000       0.028829         0.7845
  68   0.0000       0.068486         1.8636
  69   0.0000       0.112107         3.0506
  70   0.0000       0.121289         3.3004
  71   0.0000       0.128961         3.5092

MULLIKEN ATOMIC CHARGES
-----------------------
   0 S :    0.098901
   1 C :   -0.095789
   2 C :   -0.100976
   3 C :    0.025028
   4 C :   -0.164547
   5 H :    0.012819
   6 C :    0.106082
   7 H :    0.007771
   8 H :    0.004936
   9 C :   -0.076767
  10 H :    0.026201
  11 H :    0.023952
  12 C :   -0.024915
  13 H :    0.029736
  14 H :    0.018461
  15 H :    0.048781
  16 S :    0.128149
  17 C :   -0.091660
  18 C :   -0.060466
  19 C :   -0.000214
  20 C :   -0.159068
  21 H :    0.019107
  22 C :    0.116403
  23 H :    0.007006
  24 H :    0.025803
  25 C :   -0.121769
  26 H :    0.028085
  27 H :    0.036194
  28 C :   -0.018443
  29 H :    0.046765
  30 H :    0.004596
  31 H :    0.016815
  32 H :    0.022704
  33 H :    0.060322
Sum of atomic charges:    0.0000000

LOEWDIN ATOMIC CHARGES
----------------------
   0 S :    0.397192
   1 C :   -0.179944
   2 C :   -0.064840
   3 C :   -0.073836
   4 C :   -0.192263
   5 H :    0.029330
   6 C :   -0.019281
   7 H :    0.024443
   8 H :    0.019445
   9 C :   -0.039206
  10 H :    0.023925
  11 H :    0.020730
  12 C :   -0.062275
  13 H :    0.028890
  14 H :    0.023764
  15 H :    0.027732
  16 S :    0.426896
  17 C :   -0.189085
  18 C :   -0.070163
  19 C :   -0.057801
  20 C :   -0.204077
  21 H :    0.030470
  22 C :   -0.030530
  23 H :    0.028837
  24 H :    0.033112
  25 C :   -0.043447
  26 H :    0.020479
  27 H :    0.027556
  28 C :   -0.064462
  29 H :    0.033953
  30 H :    0.014221
  31 H :    0.025466
  32 H :    0.016295
  33 H :    0.038476

  Mayer bond orders larger than 0.100000
B(  0-S ,  1-C ) :   1.1372 B(  0-S ,  4-C ) :   1.1583 B(  1-C ,  2-C ) :   1.5831
B(  1-C ,  4-C ) :   0.1064 B(  1-C , 32-H ) :   0.9807 B(  2-C ,  3-C ) :   1.2701
B(  2-C ,  6-C ) :   1.0060 B(  3-C ,  4-C ) :   1.5606 B(  3-C ,  5-H ) :   0.9874
B(  4-C , 20-C ) :   1.0248 B(  6-C ,  7-H ) :   0.9386 B(  6-C ,  8-H ) :   0.9437
B(  6-C ,  9-C ) :   1.0700 B(  9-C , 10-H ) :   0.9558 B(  9-C , 11-H ) :   0.9573
B(  9-C , 12-C ) :   1.0807 B( 12-C , 13-H ) :   0.9716 B( 12-C , 14-H ) :   0.9731
B( 12-C , 15-H ) :   0.9730 B( 16-S , 17-C ) :   1.1501 B( 16-S , 20-C ) :   1.1555
B( 17-C , 18-C ) :   1.6089 B( 17-C , 20-C ) :   0.1014 B( 17-C , 33-H ) :   0.9645
B( 18-C , 19-C ) :   1.2585 B( 18-C , 21-H ) :   0.9848 B( 19-C , 20-C ) :   1.5778
B( 19-C , 22-C ) :   1.0442 B( 22-C , 23-H ) :   0.9302 B( 22-C , 24-H ) :   0.9230
B( 22-C , 25-C ) :   1.0607 B( 25-C , 26-H ) :   0.9450 B( 25-C , 27-H ) :   0.9601
B( 25-C , 28-C ) :   1.0822 B( 28-C , 29-H ) :   0.9750 B( 28-C , 30-H ) :   0.9718
B( 28-C , 31-H ) :   0.9686

Dispersion correction           -0.013615942
FINAL SINGLE POINT ENERGY     -1339.871671831299

DIPOLE MOMENT
-------------
                                X             Y             Z
Electronic contribution:     17.17425      -2.37279     -18.76142
Nuclear contribution   :    -17.44110       2.40584      19.39078
                        -----------------------------------------
Total Dipole Moment    :     -0.26685       0.03305       0.62935
                        -----------------------------------------
Magnitude (a.u.)       :      0.68439
Magnitude (Debye)      :      1.73958

Rotational constants in cm-1:     0.018472     0.008023     0.006291
Rotational constants in MHz :   553.773251   240.518154   188.600988

                             ****ORCA TERMINATED NORMALLY****
TOTAL RUN TIME: 0 days 0 hours 0 minutes 29 seconds 125 msec
