                         Program Version 4.2.1 -  RELEASE  -
|  1> ! wB97X-D3 SP def2-SVP
|  2> %pal
|  3> nprocs 16
|  4> end
|  5>
|  6> * xyz 0 1
|  7> S 	 38.4032 	 8.99969 	 90.0208
|  8> C 	 38.9729 	 7.30886 	 89.9308
|  9> C 	 38.1095 	 6.60586 	 89.0918
| 10> C 	 37.1271 	 7.45093 	 88.4452
| 11> C 	 37.2328 	 8.79348 	 88.7313
| 12> H 	 36.2252 	 7.12979 	 87.9184
| 13> C 	 38.0151 	 5.10242 	 89.0221
| 14> H 	 38.4628 	 4.66654 	 88.1549
| 15> H 	 36.9073 	 4.99846 	 88.9343
| 16> C 	 38.5984 	 4.35031 	 90.2965
| 17> H 	 39.6588 	 4.65309 	 90.4499
| 18> H 	 38.2138 	 4.78655 	 91.1841
| 19> C 	 38.3649 	 2.81018 	 90.2503
| 20> H 	 37.3459 	 2.72882 	 90.6845
| 21> H 	 38.4982 	 2.15838 	 89.3756
| 22> H 	 38.9924 	 2.30645 	 91.006
| 23> S 	 35.5909 	 10.8693 	 89.6433
| 24> C 	 34.8743 	 11.8786 	 88.4243
| 25> C 	 35.1067 	 11.4444 	 87.1387
| 26> C 	 35.8914 	 10.261 	 87.0645
| 27> C 	 36.3352 	 9.83582 	 88.3176
| 28> H 	 34.7047 	 12.027 	 86.2557
| 29> C 	 36.4294 	 9.55 	 85.8152
| 30> H 	 35.6032 	 9.2916 	 85.0751
| 31> H 	 36.8815 	 8.60244 	 86.02
| 32> C 	 37.5565 	 10.239 	 85.0739
| 33> H 	 37.1997 	 11.2258 	 84.7202
| 34> H 	 37.8334 	 9.74461 	 84.0927
| 35> C 	 38.7859 	 10.4023 	 85.9904
| 36> H 	 39.0901 	 9.35822 	 86.2976
| 37> H 	 38.5042 	 11.0336 	 86.9266
| 38> H 	 39.6063 	 10.8351 	 85.5309
| 39> H 	 39.7922 	 7.01591 	 90.5539
| 40> H 	 34.1545 	 12.7617 	 88.6421
| 41> *
| 42>
| 43>                          ****END OF INPUT****

CARTESIAN COORDINATES (ANGSTROEM)
---------------------------------
  S     38.403200    8.999690   90.020800
  C     38.972900    7.308860   89.930800
  C     38.109500    6.605860   89.091800
  C     37.127100    7.450930   88.445200
  C     37.232800    8.793480   88.731300
  H     36.225200    7.129790   87.918400
  C     38.015100    5.102420   89.022100
  H     38.462800    4.666540   88.154900
  H     36.907300    4.998460   88.934300
  C     38.598400    4.350310   90.296500
  H     39.658800    4.653090   90.449900
  H     38.213800    4.786550   91.184100
  C     38.364900    2.810180   90.250300
  H     37.345900    2.728820   90.684500
  H     38.498200    2.158380   89.375600
  H     38.992400    2.306450   91.006000
  S     35.590900   10.869300   89.643300
  C     34.874300   11.878600   88.424300
  C     35.106700   11.444400   87.138700
  C     35.891400   10.261000   87.064500
  C     36.335200    9.835820   88.317600
  H     34.704700   12.027000   86.255700
  C     36.429400    9.550000   85.815200
  H     35.603200    9.291600   85.075100
  H     36.881500    8.602440   86.020000
  C     37.556500   10.239000   85.073900
  H     37.199700   11.225800   84.720200
  H     37.833400    9.744610   84.092700
  C     38.785900   10.402300   85.990400
  H     39.090100    9.358220   86.297600
  H     38.504200   11.033600   86.926600
  H     39.606300   10.835100   85.530900
  H     39.792200    7.015910   90.553900
  H     34.154500   12.761700   88.642100

 Total Charge           Charge          ....    0
 Multiplicity           Mult            ....    1
 Number of Electrons    NEL             ....  134
 Basis Dimension        Dim             ....  322

ORBITAL ENERGIES
----------------

  NO   OCC          E(Eh)            E(eV)
   0   2.0000     -88.967936     -2420.9406
   1   2.0000     -88.962446     -2420.7912
   2   2.0000     -10.333515      -281.1892
   3   2.0000     -10.330048      -281.0949
   4   2.0000     -10.326130      -280.9883
   5   2.0000     -10.319633      -280.8115
   6   2.0000     -10.311177      -280.5814
   7   2.0000     -10.308363      -280.5048
   8   2.0000     -10.301267      -280.3117
   9   2.0000     -10.296517      -280.1825
  10   2.0000     -10.296019      -280.1689
  11   2.0000     -10.295152      -280.1453
  12   2.0000     -10.292587      -280.0755
  13   2.0000     -10.286960      -279.9224
  14   2.0000     -10.286740      -279.9164
  15   2.0000     -10.273558      -279.5577
  16   2.0000      -8.081707      -219.9144
  17   2.0000      -8.076820      -219.7814
  18   2.0000      -6.040187      -164.3619
  19   2.0000      -6.036474      -164.2608
  20   2.0000      -6.035417      -164.2320
  21   2.0000      -6.032414      -164.1503
  22   2.0000      -6.031389      -164.1224
  23   2.0000      -6.027480      -164.0161
  24   2.0000      -1.003209       -27.2987
  25   2.0000      -0.979507       -26.6537
  26   2.0000      -0.907982       -24.7074
  27   2.0000      -0.905843       -24.6492
  28   2.0000      -0.866750       -23.5855
  29   2.0000      -0.847867       -23.0716
  30   2.0000      -0.841065       -22.8865
  31   2.0000      -0.810364       -22.0511
  32   2.0000      -0.780474       -21.2378
  33   2.0000      -0.768043       -20.8995
  34   2.0000      -0.716833       -19.5060
  35   2.0000      -0.699205       -19.0263
  36   2.0000      -0.686323       -18.6758
  37   2.0000      -0.652722       -17.7615
  38   2.0000      -0.643300       -17.5051
  39   2.0000      -0.613151       -16.6847
  40   2.0000      -0.595668       -16.2089
  41   2.0000      -0.562045       -15.2940
  42   2.0000      -0.558440       -15.1959
  43   2.0000      -0.553174       -15.0526
  44   2.0000      -0.537625       -14.6295
  45   2.0000      -0.525172       -14.2907
  46   2.0000      -0.514619       -14.0035
  47   2.0000      -0.508865       -13.8469
  48   2.0000      -0.499828       -13.6010
  49   2.0000      -0.496418       -13.5082
  50   2.0000      -0.487420       -13.2634
  51   2.0000      -0.475684       -12.9440
  52   2.0000      -0.467927       -12.7329
  53   2.0000      -0.462440       -12.5836
  54   2.0000      -0.458908       -12.4875
  55   2.0000      -0.449185       -12.2230
  56   2.0000      -0.441377       -12.0105
  57   2.0000      -0.437382       -11.9018
  58   2.0000      -0.426661       -11.6100
  59   2.0000      -0.420142       -11.4326
  60   2.0000      -0.414226       -11.2717
  61   2.0000      -0.410187       -11.1618
  62   2.0000      -0.407799       -11.0968
  63   2.0000      -0.350921        -9.5490
  64   2.0000      -0.336239        -9.1495
  65   2.0000      -0.324864        -8.8400
  66   2.0000      -0.289176        -7.8689
  67   0.0000       0.022207         0.6043
  68   0.0000       0.064335         1.7506
  69   0.0000       0.105618         2.8740
  70   0.0000       0.117852         3.2069
  71   0.0000       0.124134         3.3778

MULLIKEN ATOMIC CHARGES
-----------------------
   0 S :    0.088041
   1 C :   -0.137434
   2 C :   -0.070220
   3 C :    0.016737
   4 C :   -0.143403
   5 H :    0.032594
   6 C :    0.069249
   7 H :    0.039350
   8 H :    0.034809
   9 C :   -0.093228
  10 H :    0.028928
  11 H :    0.019702
  12 C :   -0.059081
  13 H :    0.039091
  14 H :    0.048894
  15 H :    0.028228
  16 S :    0.101751
  17 C :   -0.118980
  18 C :   -0.057926
  19 C :   -0.009055
  20 C :   -0.174572
  21 H :    0.043272
  22 C :    0.057643
  23 H :    0.037870
  24 H :    0.010368
  25 C :   -0.085980
  26 H :    0.015914
  27 H :    0.035775
  28 C :   -0.064243
  29 H :    0.037876
  30 H :    0.063364
  31 H :    0.020743
  32 H :    0.054248
  33 H :    0.089674
Sum of atomic charges:   -0.0000000

LOEWDIN ATOMIC CHARGES
----------------------
   0 S :    0.385124
   1 C :   -0.184408
   2 C :   -0.060760
   3 C :   -0.069778
   4 C :   -0.192220
   5 H :    0.036133
   6 C :   -0.029095
   7 H :    0.028602
   8 H :    0.038159
   9 C :   -0.040447
  10 H :    0.021923
  11 H :    0.020445
  12 C :   -0.077559
  13 H :    0.034018
  14 H :    0.029934
  15 H :    0.029285
  16 S :    0.373724
  17 C :   -0.199544
  18 C :   -0.084514
  19 C :   -0.050266
  20 C :   -0.167526
  21 H :    0.044598
  22 C :   -0.037429
  23 H :    0.037765
  24 H :    0.025020
  25 C :   -0.047520
  26 H :    0.015466
  27 H :    0.029529
  28 C :   -0.068250
  29 H :    0.030949
  30 H :    0.041188
  31 H :    0.011432
  32 H :    0.024869
  33 H :    0.051152

  Mayer bond orders larger than 0.100000
B(  0-S ,  1-C ) :   1.1241 B(  0-S ,  4-C ) :   1.1446 B(  1-C ,  2-C ) :   1.5874
B(  1-C , 32-H ) :   0.9787 B(  2-C ,  3-C ) :   1.2420 B(  2-C ,  6-C ) :   1.0075
B(  3-C ,  4-C ) :   1.5744 B(  3-C ,  5-H ) :   0.9823 B(  4-C , 20-C ) :   1.0777
B(  6-C ,  7-H ) :   0.9347 B(  6-C ,  8-H ) :   0.9500 B(  6-C ,  9-C ) :   1.0677
B(  9-C , 10-H ) :   0.9525 B(  9-C , 11-H ) :   0.9582 B(  9-C , 12-C ) :   1.0648
B( 12-C , 13-H ) :   0.9773 B( 12-C , 14-H ) :   0.9802 B( 12-C , 15-H ) :   0.9732
B( 16-S , 17-C ) :   1.1490 B( 16-S , 20-C ) :   1.1173 B( 17-C , 18-C ) :   1.6293
B( 17-C , 20-C ) :   0.1005 B( 17-C , 33-H ) :   0.9510 B( 18-C , 19-C ) :   1.2309
B( 18-C , 21-H ) :   0.9791 B( 19-C , 20-C ) :   1.5958 B( 19-C , 22-C ) :   1.0441
B( 22-C , 23-H ) :   0.9312 B( 22-C , 24-H ) :   0.9351 B( 22-C , 25-C ) :   1.0704
B( 25-C , 26-H ) :   0.9544 B( 25-C , 27-H ) :   0.9539 B( 25-C , 28-C ) :   1.0704
B( 28-C , 29-H ) :   0.9720 B( 28-C , 30-H ) :   0.9709 B( 28-C , 31-H ) :   0.9744

Dispersion correction           -0.015008836
FINAL SINGLE POINT ENERGY     -1339.865110162878

DIPOLE MOMENT
-------------
                                X             Y             Z
Electronic contribution:     -7.53657      18.80958      10.88527
Nuclear contribution   :      7.42996     -19.25545     -11.18159
                        -----------------------------------------
Total Dipole Moment    :     -0.10662      -0.44588      -0.29633
                        -----------------------------------------
Magnitude (a.u.)       :      0.54588
Magnitude (Debye)      :      1.38751

Rotational constants in cm-1:     0.023405     0.007492     0.006674
Rotational constants in MHz :   701.661875   224.609679   200.071273

                             ****ORCA TERMINATED NORMALLY****
TOTAL RUN TIME: 0 days 0 hours 0 minutes 30 seconds 836 msec
