                         Program Version 4.2.1 -  RELEASE  -
|  1> ! wB97X-D3 SP def2-SVP
|  2> %pal
|  3> nprocs 16
|  4> end
|  5>
|  6> * xyz 0 1
|  7> S 	 -49.9148 	 63.9259 	 143.037
|  8> C 	 -48.2807 	 63.6476 	 143.764
|  9> C 	 -47.3352 	 63.8703 	 142.735
| 10> C 	 -47.8717 	 64.3476 	 141.551
| 11> C 	 -49.2375 	 64.469 	 141.494
| 12> H 	 -47.48 	 64.8387 	 140.665
| 13> C 	 -45.8827 	 63.5034 	 142.757
| 14> H 	 -45.3897 	 63.6541 	 141.764
| 15> H 	 -45.7747 	 62.4185 	 142.874
| 16> C 	 -45.1064 	 64.0293 	 143.984
| 17> H 	 -45.2511 	 65.0886 	 144.075
| 18> H 	 -45.6432 	 63.6194 	 144.831
| 19> C 	 -43.7096 	 63.662 	 144.161
| 20> H 	 -43.5716 	 62.641 	 144.473
| 21> H 	 -43.0296 	 63.729 	 143.279
| 22> H 	 -43.1889 	 64.2472 	 144.917
| 23> S 	 -51.4209 	 65.848 	 141.034
| 24> C 	 -52.0031 	 66.2014 	 139.456
| 25> C 	 -51.0344 	 65.9367 	 138.551
| 26> C 	 -49.9953 	 65.1501 	 139.1
| 27> C 	 -50.0951 	 65.0802 	 140.459
| 28> H 	 -51.1645 	 66.1663 	 137.493
| 29> C 	 -49.0135 	 64.2548 	 138.189
| 30> H 	 -49.6185 	 63.8611 	 137.301
| 31> H 	 -48.8196 	 63.3258 	 138.788
| 32> C 	 -47.69 	 64.9516 	 137.812
| 33> H 	 -47.277 	 65.6328 	 138.492
| 34> H 	 -47.8648 	 65.5784 	 137.001
| 35> C 	 -46.5566 	 64.0454 	 137.441
| 36> H 	 -46.3819 	 63.2958 	 138.126
| 37> H 	 -45.6573 	 64.6302 	 137.25
| 38> H 	 -46.7794 	 63.5378 	 136.488
| 39> H 	 -48.0253 	 63.1277 	 144.622
| 40> H 	 -52.8204 	 66.9062 	 139.223
| 41> *
| 42>
| 43>                          ****END OF INPUT****

CARTESIAN COORDINATES (ANGSTROEM)
---------------------------------
  S    -49.914800   63.925900  143.037000
  C    -48.280700   63.647600  143.764000
  C    -47.335200   63.870300  142.735000
  C    -47.871700   64.347600  141.551000
  C    -49.237500   64.469000  141.494000
  H    -47.480000   64.838700  140.665000
  C    -45.882700   63.503400  142.757000
  H    -45.389700   63.654100  141.764000
  H    -45.774700   62.418500  142.874000
  C    -45.106400   64.029300  143.984000
  H    -45.251100   65.088600  144.075000
  H    -45.643200   63.619400  144.831000
  C    -43.709600   63.662000  144.161000
  H    -43.571600   62.641000  144.473000
  H    -43.029600   63.729000  143.279000
  H    -43.188900   64.247200  144.917000
  S    -51.420900   65.848000  141.034000
  C    -52.003100   66.201400  139.456000
  C    -51.034400   65.936700  138.551000
  C    -49.995300   65.150100  139.100000
  C    -50.095100   65.080200  140.459000
  H    -51.164500   66.166300  137.493000
  C    -49.013500   64.254800  138.189000
  H    -49.618500   63.861100  137.301000
  H    -48.819600   63.325800  138.788000
  C    -47.690000   64.951600  137.812000
  H    -47.277000   65.632800  138.492000
  H    -47.864800   65.578400  137.001000
  C    -46.556600   64.045400  137.441000
  H    -46.381900   63.295800  138.126000
  H    -45.657300   64.630200  137.250000
  H    -46.779400   63.537800  136.488000
  H    -48.025300   63.127700  144.622000
  H    -52.820400   66.906200  139.223000

 Total Charge           Charge          ....    0
 Multiplicity           Mult            ....    1
 Number of Electrons    NEL             ....  134
 Basis Dimension        Dim             ....  322

ORBITAL ENERGIES
----------------

  NO   OCC          E(Eh)            E(eV)
   0   2.0000     -88.967979     -2420.9418
   1   2.0000     -88.964086     -2420.8358
   2   2.0000     -10.332204      -281.1536
   3   2.0000     -10.321079      -280.8508
   4   2.0000     -10.317543      -280.7546
   5   2.0000     -10.310617      -280.5662
   6   2.0000     -10.308676      -280.5133
   7   2.0000     -10.304104      -280.3889
   8   2.0000     -10.302744      -280.3519
   9   2.0000     -10.293174      -280.0915
  10   2.0000     -10.291031      -280.0332
  11   2.0000     -10.287421      -279.9350
  12   2.0000     -10.279868      -279.7294
  13   2.0000     -10.276204      -279.6297
  14   2.0000     -10.274626      -279.5868
  15   2.0000     -10.270355      -279.4706
  16   2.0000      -8.081997      -219.9223
  17   2.0000      -8.081027      -219.8959
  18   2.0000      -6.040232      -164.3631
  19   2.0000      -6.039683      -164.3481
  20   2.0000      -6.035985      -164.2475
  21   2.0000      -6.035645      -164.2382
  22   2.0000      -6.032860      -164.1625
  23   2.0000      -6.031832      -164.1345
  24   2.0000      -1.026869       -27.9425
  25   2.0000      -0.988004       -26.8850
  26   2.0000      -0.917004       -24.9529
  27   2.0000      -0.909216       -24.7410
  28   2.0000      -0.877868       -23.8880
  29   2.0000      -0.857116       -23.3233
  30   2.0000      -0.850052       -23.1311
  31   2.0000      -0.821841       -22.3634
  32   2.0000      -0.781562       -21.2674
  33   2.0000      -0.774261       -21.0687
  34   2.0000      -0.712581       -19.3903
  35   2.0000      -0.706298       -19.2193
  36   2.0000      -0.696163       -18.9436
  37   2.0000      -0.669383       -18.2148
  38   2.0000      -0.645556       -17.5665
  39   2.0000      -0.614061       -16.7095
  40   2.0000      -0.595797       -16.2125
  41   2.0000      -0.571600       -15.5540
  42   2.0000      -0.566026       -15.4024
  43   2.0000      -0.560503       -15.2521
  44   2.0000      -0.539342       -14.6762
  45   2.0000      -0.530406       -14.4331
  46   2.0000      -0.521903       -14.2017
  47   2.0000      -0.513717       -13.9790
  48   2.0000      -0.508533       -13.8379
  49   2.0000      -0.496728       -13.5166
  50   2.0000      -0.493822       -13.4376
  51   2.0000      -0.491168       -13.3654
  52   2.0000      -0.479606       -13.0507
  53   2.0000      -0.467339       -12.7169
  54   2.0000      -0.459357       -12.4997
  55   2.0000      -0.449534       -12.2324
  56   2.0000      -0.446009       -12.1365
  57   2.0000      -0.442056       -12.0290
  58   2.0000      -0.425659       -11.5828
  59   2.0000      -0.423559       -11.5256
  60   2.0000      -0.418009       -11.3746
  61   2.0000      -0.412117       -11.2143
  62   2.0000      -0.408657       -11.1201
  63   2.0000      -0.359408        -9.7800
  64   2.0000      -0.333226        -9.0675
  65   2.0000      -0.330670        -8.9980
  66   2.0000      -0.290342        -7.9006
  67   0.0000       0.022161         0.6030
  68   0.0000       0.080275         2.1844
  69   0.0000       0.104200         2.8354
  70   0.0000       0.118467         3.2237
  71   0.0000       0.129885         3.5343

MULLIKEN ATOMIC CHARGES
-----------------------
   0 S :    0.091027
   1 C :   -0.084734
   2 C :   -0.052472
   3 C :    0.014628
   4 C :   -0.140363
   5 H :   -0.003539
   6 C :    0.048203
   7 H :    0.028538
   8 H :    0.029596
   9 C :   -0.068110
  10 H :    0.026544
  11 H :    0.016623
  12 C :   -0.030591
  13 H :    0.017242
  14 H :    0.024588
  15 H :    0.030268
  16 S :    0.116961
  17 C :   -0.096083
  18 C :   -0.043713
  19 C :   -0.065326
  20 C :   -0.120751
  21 H :    0.023496
  22 C :    0.011003
  23 H :    0.048077
  24 H :    0.040589
  25 C :   -0.025834
  26 H :    0.020310
  27 H :    0.004173
  28 C :   -0.024346
  29 H :    0.015387
  30 H :    0.030816
  31 H :    0.020639
  32 H :    0.029973
  33 H :    0.067180
Sum of atomic charges:    0.0000000

LOEWDIN ATOMIC CHARGES
----------------------
   0 S :    0.376552
   1 C :   -0.178249
   2 C :   -0.055166
   3 C :   -0.079038
   4 C :   -0.173945
   5 H :    0.036861
   6 C :   -0.034580
   7 H :    0.031747
   8 H :    0.034554
   9 C :   -0.045857
  10 H :    0.022144
  11 H :    0.025705
  12 C :   -0.070681
  13 H :    0.022164
  14 H :    0.027192
  15 H :    0.031044
  16 S :    0.469545
  17 C :   -0.206941
  18 C :   -0.069170
  19 C :   -0.068294
  20 C :   -0.229929
  21 H :    0.033727
  22 C :   -0.027615
  23 H :    0.039925
  24 H :    0.033198
  25 C :   -0.045585
  26 H :    0.017932
  27 H :    0.019637
  28 C :   -0.054941
  29 H :    0.011103
  30 H :    0.029332
  31 H :    0.025776
  32 H :    0.015298
  33 H :    0.036555

  Mayer bond orders larger than 0.100000
B(  0-S ,  1-C ) :   1.1221 B(  0-S ,  4-C ) :   1.1476 B(  1-C ,  2-C ) :   1.5808
B(  1-C ,  4-C ) :   0.1126 B(  1-C , 32-H ) :   0.9758 B(  2-C ,  3-C ) :   1.2405
B(  2-C ,  6-C ) :   1.0269 B(  3-C ,  4-C ) :   1.5868 B(  3-C ,  5-H ) :   0.9889
B(  4-C , 20-C ) :   1.0123 B(  6-C ,  7-H ) :   0.9503 B(  6-C ,  8-H ) :   0.9323
B(  6-C ,  9-C ) :   1.0472 B(  9-C , 10-H ) :   0.9611 B(  9-C , 11-H ) :   0.9476
B(  9-C , 12-C ) :   1.1012 B( 12-C , 13-H ) :   0.9681 B( 12-C , 14-H ) :   0.9709
B( 12-C , 15-H ) :   0.9685 B( 16-S , 17-C ) :   1.1577 B( 16-S , 20-C ) :   1.1888
B( 17-C , 18-C ) :   1.6072 B( 17-C , 33-H ) :   0.9621 B( 18-C , 19-C ) :   1.2772
B( 18-C , 21-H ) :   0.9849 B( 19-C , 20-C ) :   1.5836 B( 19-C , 22-C ) :   1.0085
B( 22-C , 23-H ) :   0.9469 B( 22-C , 24-H ) :   0.9534 B( 22-C , 25-C ) :   1.0381
B( 25-C , 26-H ) :   0.9583 B( 25-C , 27-H ) :   0.9409 B( 25-C , 28-C ) :   1.0966
B( 28-C , 29-H ) :   0.9759 B( 28-C , 30-H ) :   0.9717 B( 28-C , 31-H ) :   0.9719

Dispersion correction           -0.013875530
FINAL SINGLE POINT ENERGY     -1339.846791968734

DIPOLE MOMENT
-------------
                                X             Y             Z
Electronic contribution:    -30.20569       5.87339       7.54309
Nuclear contribution   :     30.75033      -5.90269      -7.98379
                        -----------------------------------------
Total Dipole Moment    :      0.54464      -0.02930      -0.44070
                        -----------------------------------------
Magnitude (a.u.)       :      0.70122
Magnitude (Debye)      :      1.78235

Rotational constants in cm-1:     0.018723     0.008624     0.006224
Rotational constants in MHz :   561.310025   258.535390   186.577799

                             ****ORCA TERMINATED NORMALLY****
TOTAL RUN TIME: 0 days 0 hours 0 minutes 32 seconds 290 msec
