                         Program Version 4.2.1 -  RELEASE  -
|  1> ! wB97X-D3 SP def2-SVP
|  2> %pal
|  3> nprocs 16
|  4> end
|  5>
|  6> * xyz 0 1
|  7> S 	 67.9746 	 29.1318 	 72.429
|  8> C 	 67.546 	 28.7312 	 70.75
|  9> C 	 68.6593 	 28.2236 	 70.1004
| 10> C 	 69.8783 	 28.309 	 70.8666
| 11> C 	 69.6127 	 28.4444 	 72.1897
| 12> H 	 70.8676 	 28.0954 	 70.5668
| 13> C 	 68.79 	 27.7654 	 68.6247
| 14> H 	 69.6655 	 28.1909 	 68.1316
| 15> H 	 67.8839 	 28.1065 	 68.228
| 16> C 	 68.8012 	 26.2685 	 68.3564
| 17> H 	 68.1466 	 25.8048 	 69.0589
| 18> H 	 68.2263 	 26.0314 	 67.4798
| 19> C 	 70.1283 	 25.4916 	 68.321
| 20> H 	 70.8675 	 25.7721 	 67.5839
| 21> H 	 70.5414 	 25.4248 	 69.3284
| 22> H 	 69.7813 	 24.462 	 68.0461
| 23> S 	 70.816 	 30.0132 	 74.11
| 24> C 	 71.9564 	 29.2645 	 75.2439
| 25> C 	 72.138 	 27.9524 	 74.9116
| 26> C 	 71.4605 	 27.5023 	 73.7065
| 27> C 	 70.6649 	 28.5264 	 73.2306
| 28> H 	 72.7945 	 27.285 	 75.4688
| 29> C 	 71.5585 	 26.0796 	 73.3186
| 30> H 	 70.8438 	 25.7991 	 72.5364
| 31> H 	 71.2627 	 25.4401 	 74.1989
| 32> C 	 72.9442 	 25.4442 	 72.8732
| 33> H 	 72.7489 	 24.4062 	 72.7911
| 34> H 	 73.7029 	 25.3279 	 73.6777
| 35> C 	 73.5297 	 25.931 	 71.5541
| 36> H 	 74.5189 	 25.4494 	 71.4456
| 37> H 	 73.5983 	 27.0507 	 71.5746
| 38> H 	 72.9238 	 25.4647 	 70.7166
| 39> H 	 66.6655 	 28.9172 	 70.2776
| 40> H 	 72.5042 	 29.7127 	 76.0023
| 41> *
| 42>
| 43>                          ****END OF INPUT****

CARTESIAN COORDINATES (ANGSTROEM)
---------------------------------
  S     67.974600   29.131800   72.429000
  C     67.546000   28.731200   70.750000
  C     68.659300   28.223600   70.100400
  C     69.878300   28.309000   70.866600
  C     69.612700   28.444400   72.189700
  H     70.867600   28.095400   70.566800
  C     68.790000   27.765400   68.624700
  H     69.665500   28.190900   68.131600
  H     67.883900   28.106500   68.228000
  C     68.801200   26.268500   68.356400
  H     68.146600   25.804800   69.058900
  H     68.226300   26.031400   67.479800
  C     70.128300   25.491600   68.321000
  H     70.867500   25.772100   67.583900
  H     70.541400   25.424800   69.328400
  H     69.781300   24.462000   68.046100
  S     70.816000   30.013200   74.110000
  C     71.956400   29.264500   75.243900
  C     72.138000   27.952400   74.911600
  C     71.460500   27.502300   73.706500
  C     70.664900   28.526400   73.230600
  H     72.794500   27.285000   75.468800
  C     71.558500   26.079600   73.318600
  H     70.843800   25.799100   72.536400
  H     71.262700   25.440100   74.198900
  C     72.944200   25.444200   72.873200
  H     72.748900   24.406200   72.791100
  H     73.702900   25.327900   73.677700
  C     73.529700   25.931000   71.554100
  H     74.518900   25.449400   71.445600
  H     73.598300   27.050700   71.574600
  H     72.923800   25.464700   70.716600
  H     66.665500   28.917200   70.277600
  H     72.504200   29.712700   76.002300

 Total Charge           Charge          ....    0
 Multiplicity           Mult            ....    1
 Number of Electrons    NEL             ....  134
 Basis Dimension        Dim             ....  322

ORBITAL ENERGIES
----------------

  NO   OCC          E(Eh)            E(eV)
   0   2.0000     -88.965708     -2420.8800
   1   2.0000     -88.965247     -2420.8675
   2   2.0000     -10.328669      -281.0574
   3   2.0000     -10.327072      -281.0139
   4   2.0000     -10.313011      -280.6313
   5   2.0000     -10.312195      -280.6091
   6   2.0000     -10.303107      -280.3618
   7   2.0000     -10.302751      -280.3521
   8   2.0000     -10.298370      -280.2329
   9   2.0000     -10.292662      -280.0776
  10   2.0000     -10.288708      -279.9700
  11   2.0000     -10.288337      -279.9599
  12   2.0000     -10.287682      -279.9421
  13   2.0000     -10.286791      -279.9178
  14   2.0000     -10.281795      -279.7819
  15   2.0000     -10.279588      -279.7218
  16   2.0000      -8.080330      -219.8770
  17   2.0000      -8.078848      -219.8366
  18   2.0000      -6.039036      -164.3305
  19   2.0000      -6.037619      -164.2920
  20   2.0000      -6.034844      -164.2165
  21   2.0000      -6.033691      -164.1851
  22   2.0000      -6.030889      -164.1088
  23   2.0000      -6.029208      -164.0631
  24   2.0000      -1.004385       -27.3307
  25   2.0000      -0.980679       -26.6856
  26   2.0000      -0.908851       -24.7311
  27   2.0000      -0.905234       -24.6327
  28   2.0000      -0.869363       -23.6566
  29   2.0000      -0.852398       -23.1949
  30   2.0000      -0.843313       -22.9477
  31   2.0000      -0.819620       -22.3030
  32   2.0000      -0.783102       -21.3093
  33   2.0000      -0.774776       -21.0827
  34   2.0000      -0.707191       -19.2437
  35   2.0000      -0.701167       -19.0797
  36   2.0000      -0.695217       -18.9178
  37   2.0000      -0.659586       -17.9483
  38   2.0000      -0.648008       -17.6332
  39   2.0000      -0.613636       -16.6979
  40   2.0000      -0.597043       -16.2464
  41   2.0000      -0.569777       -15.5044
  42   2.0000      -0.554283       -15.0828
  43   2.0000      -0.550369       -14.9763
  44   2.0000      -0.543775       -14.7969
  45   2.0000      -0.532001       -14.4765
  46   2.0000      -0.520378       -14.1602
  47   2.0000      -0.513932       -13.9848
  48   2.0000      -0.508522       -13.8376
  49   2.0000      -0.498145       -13.5552
  50   2.0000      -0.489892       -13.3306
  51   2.0000      -0.485771       -13.2185
  52   2.0000      -0.467483       -12.7208
  53   2.0000      -0.463244       -12.6055
  54   2.0000      -0.459037       -12.4910
  55   2.0000      -0.445250       -12.1159
  56   2.0000      -0.441937       -12.0257
  57   2.0000      -0.434100       -11.8125
  58   2.0000      -0.431389       -11.7387
  59   2.0000      -0.429062       -11.6754
  60   2.0000      -0.425132       -11.5684
  61   2.0000      -0.412135       -11.2148
  62   2.0000      -0.402073       -10.9410
  63   2.0000      -0.345400        -9.3988
  64   2.0000      -0.328144        -8.9293
  65   2.0000      -0.324578        -8.8322
  66   2.0000      -0.298457        -8.1214
  67   0.0000       0.032185         0.8758
  68   0.0000       0.068533         1.8649
  69   0.0000       0.107189         2.9168
  70   0.0000       0.113438         3.0868
  71   0.0000       0.128097         3.4857

MULLIKEN ATOMIC CHARGES
-----------------------
   0 S :    0.091341
   1 C :   -0.072692
   2 C :   -0.107537
   3 C :    0.043819
   4 C :   -0.135305
   5 H :    0.005664
   6 C :    0.125547
   7 H :    0.032516
   8 H :   -0.007618
   9 C :   -0.064329
  10 H :    0.006007
  11 H :    0.014801
  12 C :   -0.058679
  13 H :    0.039800
  14 H :    0.041147
  15 H :    0.031943
  16 S :    0.108662
  17 C :   -0.058084
  18 C :   -0.034942
  19 C :    0.002235
  20 C :   -0.173528
  21 H :    0.017995
  22 C :    0.017122
  23 H :    0.026588
  24 H :    0.043839
  25 C :   -0.082838
  26 H :    0.010221
  27 H :    0.021637
  28 C :   -0.066006
  29 H :    0.036521
  30 H :    0.062120
  31 H :    0.042666
  32 H :    0.007634
  33 H :    0.031735
Sum of atomic charges:   -0.0000000

LOEWDIN ATOMIC CHARGES
----------------------
   0 S :    0.369635
   1 C :   -0.175499
   2 C :   -0.052128
   3 C :   -0.051831
   4 C :   -0.172743
   5 H :    0.026140
   6 C :   -0.025560
   7 H :    0.032587
   8 H :    0.022570
   9 C :   -0.047155
  10 H :    0.023631
  11 H :    0.023092
  12 C :   -0.067378
  13 H :    0.022570
  14 H :    0.023043
  15 H :    0.035283
  16 S :    0.398763
  17 C :   -0.170645
  18 C :   -0.059846
  19 C :   -0.064398
  20 C :   -0.198513
  21 H :    0.029464
  22 C :   -0.038362
  23 H :    0.030866
  24 H :    0.044629
  25 C :   -0.051264
  26 H :    0.020617
  27 H :    0.022569
  28 C :   -0.075296
  29 H :    0.031145
  30 H :    0.033207
  31 H :    0.032518
  32 H :    0.009197
  33 H :    0.019092

  Mayer bond orders larger than 0.100000
B(  0-S ,  1-C ) :   1.1101 B(  0-S ,  4-C ) :   1.1237 B(  1-C ,  2-C ) :   1.6475
B(  1-C , 32-H ) :   0.9792 B(  2-C ,  3-C ) :   1.1913 B(  2-C ,  6-C ) :   1.0290
B(  3-C ,  4-C ) :   1.6202 B(  3-C ,  5-H ) :   0.9956 B(  4-C , 20-C ) :   1.0147
B(  6-C ,  7-H ) :   0.9495 B(  6-C ,  8-H ) :   0.9223 B(  6-C ,  9-C ) :   1.0713
B(  9-C , 10-H ) :   0.9444 B(  9-C , 11-H ) :   0.9564 B(  9-C , 12-C ) :   1.0811
B( 12-C , 13-H ) :   0.9767 B( 12-C , 14-H ) :   0.9750 B( 12-C , 15-H ) :   0.9692
B( 16-S , 17-C ) :   1.1166 B( 16-S , 20-C ) :   1.1461 B( 17-C , 18-C ) :   1.6460
B( 17-C , 33-H ) :   0.9776 B( 18-C , 19-C ) :   1.2126 B( 18-C , 21-H ) :   0.9853
B( 19-C , 20-C ) :   1.6056 B( 19-C , 22-C ) :   1.0674 B( 22-C , 23-H ) :   0.9318
B( 22-C , 24-H ) :   0.9310 B( 22-C , 25-C ) :   1.0682 B( 25-C , 26-H ) :   0.9471
B( 25-C , 27-H ) :   0.9546 B( 25-C , 28-C ) :   1.0758 B( 28-C , 29-H ) :   0.9682
B( 28-C , 30-H ) :   0.9750 B( 28-C , 31-H ) :   0.9722

Dispersion correction           -0.014925259
FINAL SINGLE POINT ENERGY     -1339.855292703419

DIPOLE MOMENT
-------------
                                X             Y             Z
Electronic contribution:    -11.37958      23.45747      18.44485
Nuclear contribution   :     11.72173     -24.08370     -18.79319
                        -----------------------------------------
Total Dipole Moment    :      0.34215      -0.62622      -0.34834
                        -----------------------------------------
Magnitude (a.u.)       :      0.79408
Magnitude (Debye)      :      2.01839

Rotational constants in cm-1:     0.016735     0.010613     0.007005
Rotational constants in MHz :   501.689970   318.162365   209.997078

                             ****ORCA TERMINATED NORMALLY****
TOTAL RUN TIME: 0 days 0 hours 0 minutes 29 seconds 721 msec
