                         Program Version 4.2.1 -  RELEASE  -
|  1> ! wB97X-D3 SP def2-SVP
|  2> %pal
|  3> nprocs 16
|  4> end
|  5>
|  6> * xyz 0 1
|  7> S 	 57.6754 	 21.1952 	 79.8077
|  8> C 	 58.0885 	 21.36 	 81.514
|  9> C 	 57.1076 	 20.8047 	 82.3368
| 10> C 	 55.9275 	 20.3746 	 81.5513
| 11> C 	 56.0665 	 20.6214 	 80.1732
| 12> H 	 55.0157 	 19.9146 	 81.9478
| 13> C 	 57.1407 	 20.7565 	 83.87
| 14> H 	 58.1647 	 20.6146 	 84.2473
| 15> H 	 56.5716 	 19.8278 	 84.1536
| 16> C 	 56.6288 	 21.9434 	 84.5665
| 17> H 	 57.0181 	 21.9325 	 85.6134
| 18> H 	 57.0616 	 22.8658 	 84.0757
| 19> C 	 55.0742 	 22.1357 	 84.5612
| 20> H 	 54.8556 	 22.9787 	 85.2185
| 21> H 	 54.5897 	 22.3613 	 83.6781
| 22> H 	 54.5202 	 21.2716 	 85.0242
| 23> S 	 55.8333 	 19.4026 	 77.6901
| 24> C 	 54.2822 	 19.2588 	 76.9489
| 25> C 	 53.3567 	 19.9484 	 77.6978
| 26> C 	 53.8505 	 20.5004 	 78.9185
| 27> C 	 55.1746 	 20.315 	 79.0776
| 28> H 	 52.3218 	 20.097 	 77.3708
| 29> C 	 52.8644 	 21.1897 	 79.9311
| 30> H 	 53.409 	 22.0122 	 80.3853
| 31> H 	 52.6967 	 20.3858 	 80.7055
| 32> C 	 51.6182 	 21.8467 	 79.2806
| 33> H 	 51.0842 	 21.0739 	 78.746
| 34> H 	 51.9485 	 22.5789 	 78.5428
| 35> C 	 50.7519 	 22.5354 	 80.304
| 36> H 	 50.193 	 21.7049 	 80.6923
| 37> H 	 50.0671 	 23.2138 	 79.8057
| 38> H 	 51.3173 	 23.1111 	 81.0484
| 39> H 	 58.9691 	 21.8367 	 81.8934
| 40> H 	 54.2215 	 19.006 	 75.8422
| 41> *
| 42>
| 43>                          ****END OF INPUT****

CARTESIAN COORDINATES (ANGSTROEM)
---------------------------------
  S     57.675400   21.195200   79.807700
  C     58.088500   21.360000   81.514000
  C     57.107600   20.804700   82.336800
  C     55.927500   20.374600   81.551300
  C     56.066500   20.621400   80.173200
  H     55.015700   19.914600   81.947800
  C     57.140700   20.756500   83.870000
  H     58.164700   20.614600   84.247300
  H     56.571600   19.827800   84.153600
  C     56.628800   21.943400   84.566500
  H     57.018100   21.932500   85.613400
  H     57.061600   22.865800   84.075700
  C     55.074200   22.135700   84.561200
  H     54.855600   22.978700   85.218500
  H     54.589700   22.361300   83.678100
  H     54.520200   21.271600   85.024200
  S     55.833300   19.402600   77.690100
  C     54.282200   19.258800   76.948900
  C     53.356700   19.948400   77.697800
  C     53.850500   20.500400   78.918500
  C     55.174600   20.315000   79.077600
  H     52.321800   20.097000   77.370800
  C     52.864400   21.189700   79.931100
  H     53.409000   22.012200   80.385300
  H     52.696700   20.385800   80.705500
  C     51.618200   21.846700   79.280600
  H     51.084200   21.073900   78.746000
  H     51.948500   22.578900   78.542800
  C     50.751900   22.535400   80.304000
  H     50.193000   21.704900   80.692300
  H     50.067100   23.213800   79.805700
  H     51.317300   23.111100   81.048400
  H     58.969100   21.836700   81.893400
  H     54.221500   19.006000   75.842200

 Total Charge           Charge          ....    0
 Multiplicity           Mult            ....    1
 Number of Electrons    NEL             ....  134
 Basis Dimension        Dim             ....  322

ORBITAL ENERGIES
----------------

  NO   OCC          E(Eh)            E(eV)
   0   2.0000     -88.966113     -2420.8910
   1   2.0000     -88.960232     -2420.7310
   2   2.0000     -10.332271      -281.1554
   3   2.0000     -10.323721      -280.9227
   4   2.0000     -10.319750      -280.8147
   5   2.0000     -10.316689      -280.7314
   6   2.0000     -10.309749      -280.5425
   7   2.0000     -10.304380      -280.3964
   8   2.0000     -10.300525      -280.2915
   9   2.0000     -10.300503      -280.2909
  10   2.0000     -10.295026      -280.1419
  11   2.0000     -10.293718      -280.1063
  12   2.0000     -10.293270      -280.0941
  13   2.0000     -10.287325      -279.9323
  14   2.0000     -10.277685      -279.6700
  15   2.0000     -10.276593      -279.6403
  16   2.0000      -8.080682      -219.8865
  17   2.0000      -8.075331      -219.7409
  18   2.0000      -6.039284      -164.3373
  19   2.0000      -6.035184      -164.2257
  20   2.0000      -6.033919      -164.1913
  21   2.0000      -6.031384      -164.1223
  22   2.0000      -6.029771      -164.0784
  23   2.0000      -6.025984      -163.9754
  24   2.0000      -1.005817       -27.3697
  25   2.0000      -0.980030       -26.6680
  26   2.0000      -0.914839       -24.8940
  27   2.0000      -0.910454       -24.7747
  28   2.0000      -0.869761       -23.6674
  29   2.0000      -0.852521       -23.1983
  30   2.0000      -0.837079       -22.7781
  31   2.0000      -0.810640       -22.0586
  32   2.0000      -0.785453       -21.3733
  33   2.0000      -0.776297       -21.1241
  34   2.0000      -0.704538       -19.1715
  35   2.0000      -0.698597       -19.0098
  36   2.0000      -0.695764       -18.9327
  37   2.0000      -0.653865       -17.7926
  38   2.0000      -0.638420       -17.3723
  39   2.0000      -0.611148       -16.6302
  40   2.0000      -0.596202       -16.2235
  41   2.0000      -0.577229       -15.7072
  42   2.0000      -0.569176       -15.4881
  43   2.0000      -0.546907       -14.8821
  44   2.0000      -0.541556       -14.7365
  45   2.0000      -0.530103       -14.4248
  46   2.0000      -0.515795       -14.0355
  47   2.0000      -0.512337       -13.9414
  48   2.0000      -0.503592       -13.7034
  49   2.0000      -0.497380       -13.5344
  50   2.0000      -0.488724       -13.2988
  51   2.0000      -0.480137       -13.0652
  52   2.0000      -0.476663       -12.9707
  53   2.0000      -0.470084       -12.7916
  54   2.0000      -0.455924       -12.4063
  55   2.0000      -0.451184       -12.2773
  56   2.0000      -0.440070       -11.9749
  57   2.0000      -0.436847       -11.8872
  58   2.0000      -0.429906       -11.6983
  59   2.0000      -0.424889       -11.5618
  60   2.0000      -0.422264       -11.4904
  61   2.0000      -0.411732       -11.2038
  62   2.0000      -0.408599       -11.1185
  63   2.0000      -0.350585        -9.5399
  64   2.0000      -0.330454        -8.9921
  65   2.0000      -0.328786        -8.9467
  66   2.0000      -0.292588        -7.9617
  67   0.0000       0.027147         0.7387
  68   0.0000       0.069334         1.8867
  69   0.0000       0.109762         2.9868
  70   0.0000       0.121743         3.3128
  71   0.0000       0.127640         3.4733

MULLIKEN ATOMIC CHARGES
-----------------------
   0 S :    0.104562
   1 C :   -0.105797
   2 C :   -0.101361
   3 C :    0.028177
   4 C :   -0.165912
   5 H :    0.020179
   6 C :    0.060430
   7 H :    0.026890
   8 H :    0.032076
   9 C :   -0.075872
  10 H :    0.038332
  11 H :    0.032807
  12 C :   -0.048382
  13 H :    0.027304
  14 H :    0.025513
  15 H :    0.027845
  16 S :    0.088772
  17 C :   -0.108110
  18 C :   -0.053101
  19 C :   -0.048739
  20 C :   -0.141565
  21 H :    0.022932
  22 C :    0.047582
  23 H :    0.033405
  24 H :    0.055028
  25 C :   -0.118578
  26 H :    0.033188
  27 H :    0.034710
  28 C :   -0.003598
  29 H :    0.028679
  30 H :    0.031773
  31 H :    0.036692
  32 H :    0.042300
  33 H :    0.091838
Sum of atomic charges:   -0.0000000

LOEWDIN ATOMIC CHARGES
----------------------
   0 S :    0.402140
   1 C :   -0.191239
   2 C :   -0.056341
   3 C :   -0.062173
   4 C :   -0.191720
   5 H :    0.032488
   6 C :   -0.042412
   7 H :    0.033989
   8 H :    0.035667
   9 C :   -0.045221
  10 H :    0.030553
  11 H :    0.031518
  12 C :   -0.068178
  13 H :    0.028786
  14 H :    0.012846
  15 H :    0.027720
  16 S :    0.391364
  17 C :   -0.204025
  18 C :   -0.078499
  19 C :   -0.061195
  20 C :   -0.192496
  21 H :    0.030794
  22 C :   -0.028590
  23 H :    0.029733
  24 H :    0.037788
  25 C :   -0.043026
  26 H :    0.018480
  27 H :    0.025682
  28 C :   -0.058741
  29 H :    0.027213
  30 H :    0.026860
  31 H :    0.027679
  32 H :    0.025285
  33 H :    0.047272

  Mayer bond orders larger than 0.100000
B(  0-S ,  1-C ) :   1.1313 B(  0-S ,  4-C ) :   1.1505 B(  1-C ,  2-C ) :   1.6251
B(  1-C , 32-H ) :   0.9719 B(  2-C ,  3-C ) :   1.2160 B(  2-C ,  6-C ) :   1.0254
B(  3-C ,  4-C ) :   1.5731 B(  3-C ,  5-H ) :   0.9885 B(  4-C , 20-C ) :   1.0446
B(  6-C ,  7-H ) :   0.9377 B(  6-C ,  8-H ) :   0.9387 B(  6-C ,  9-C ) :   1.0841
B(  9-C , 10-H ) :   0.9545 B(  9-C , 11-H ) :   0.9487 B(  9-C , 12-C ) :   1.0756
B( 12-C , 13-H ) :   0.9726 B( 12-C , 14-H ) :   0.9767 B( 12-C , 15-H ) :   0.9748
B( 16-S , 17-C ) :   1.1585 B( 16-S , 20-C ) :   1.1238 B( 17-C , 18-C ) :   1.5964
B( 17-C , 33-H ) :   0.9538 B( 18-C , 19-C ) :   1.2495 B( 18-C , 21-H ) :   0.9841
B( 19-C , 20-C ) :   1.6484 B( 19-C , 22-C ) :   1.0087 B( 22-C , 23-H ) :   0.9365
B( 22-C , 24-H ) :   0.9378 B( 22-C , 25-C ) :   1.0693 B( 25-C , 26-H ) :   0.9498
B( 25-C , 27-H ) :   0.9587 B( 25-C , 28-C ) :   1.0825 B( 28-C , 29-H ) :   0.9766
B( 28-C , 30-H ) :   0.9727 B( 28-C , 31-H ) :   0.9737

Dispersion correction           -0.014008607
FINAL SINGLE POINT ENERGY     -1339.881630494292

DIPOLE MOMENT
-------------
                                X             Y             Z
Electronic contribution:     19.39446     -10.75615     -21.56125
Nuclear contribution   :    -19.89716      11.04081      22.03596
                        -----------------------------------------
Total Dipole Moment    :     -0.50270       0.28466       0.47472
                        -----------------------------------------
Magnitude (a.u.)       :      0.74772
Magnitude (Debye)      :      1.90056

Rotational constants in cm-1:     0.016357     0.009591     0.006458
Rotational constants in MHz :   490.361510   287.526203   193.620679

                             ****ORCA TERMINATED NORMALLY****
TOTAL RUN TIME: 0 days 0 hours 0 minutes 30 seconds 75 msec
