                         Program Version 4.2.1 -  RELEASE  -
|  1> ! wB97X-D3 SP def2-SVP
|  2> %pal
|  3> nprocs 16
|  4> end
|  5>
|  6> * xyz 0 1
|  7> S 	 -29.5168 	 67.4646 	 119.21
|  8> C 	 -31.1963 	 67.2859 	 119.671
|  9> C 	 -31.6257 	 65.9612 	 119.961
| 10> C 	 -30.5909 	 65.0563 	 119.681
| 11> C 	 -29.3572 	 65.6625 	 119.34
| 12> H 	 -30.6122 	 63.9647 	 119.712
| 13> C 	 -32.9883 	 65.482 	 120.499
| 14> H 	 -33.4631 	 64.8024 	 119.719
| 15> H 	 -33.762 	 66.2038 	 120.588
| 16> C 	 -33.0079 	 64.8106 	 121.845
| 17> H 	 -34.0007 	 64.3112 	 122.008
| 18> H 	 -32.2308 	 63.9936 	 121.887
| 19> C 	 -32.7824 	 65.8113 	 123.017
| 20> H 	 -31.7893 	 66.1963 	 122.906
| 21> H 	 -33.4893 	 66.6493 	 122.97
| 22> H 	 -32.9064 	 65.2662 	 123.965
| 23> S 	 -27.0176 	 65.1863 	 120.726
| 24> C 	 -25.7188 	 64.3464 	 119.961
| 25> C 	 -26.2199 	 63.6802 	 118.867
| 26> C 	 -27.5083 	 64.0972 	 118.479
| 27> C 	 -28.0966 	 64.9959 	 119.367
| 28> H 	 -25.6535 	 62.8697 	 118.472
| 29> C 	 -28.304 	 63.7312 	 117.247
| 30> H 	 -29.0663 	 64.4362 	 117.122
| 31> H 	 -28.8772 	 62.859 	 117.637
| 32> C 	 -27.5893 	 63.4305 	 115.966
| 33> H 	 -26.8083 	 62.6805 	 116.223
| 34> H 	 -27.1133 	 64.299 	 115.666
| 35> C 	 -28.4724 	 63.2212 	 114.713
| 36> H 	 -29.1845 	 64.004 	 114.451
| 37> H 	 -29.1231 	 62.3437 	 114.787
| 38> H 	 -27.8348 	 63.0211 	 113.849
| 39> H 	 -31.865 	 68.1345 	 119.767
| 40> H 	 -24.8494 	 64.0841 	 120.55
| 41> *
| 42>
| 43>                          ****END OF INPUT****

CARTESIAN COORDINATES (ANGSTROEM)
---------------------------------
  S    -29.516800   67.464600  119.210000
  C    -31.196300   67.285900  119.671000
  C    -31.625700   65.961200  119.961000
  C    -30.590900   65.056300  119.681000
  C    -29.357200   65.662500  119.340000
  H    -30.612200   63.964700  119.712000
  C    -32.988300   65.482000  120.499000
  H    -33.463100   64.802400  119.719000
  H    -33.762000   66.203800  120.588000
  C    -33.007900   64.810600  121.845000
  H    -34.000700   64.311200  122.008000
  H    -32.230800   63.993600  121.887000
  C    -32.782400   65.811300  123.017000
  H    -31.789300   66.196300  122.906000
  H    -33.489300   66.649300  122.970000
  H    -32.906400   65.266200  123.965000
  S    -27.017600   65.186300  120.726000
  C    -25.718800   64.346400  119.961000
  C    -26.219900   63.680200  118.867000
  C    -27.508300   64.097200  118.479000
  C    -28.096600   64.995900  119.367000
  H    -25.653500   62.869700  118.472000
  C    -28.304000   63.731200  117.247000
  H    -29.066300   64.436200  117.122000
  H    -28.877200   62.859000  117.637000
  C    -27.589300   63.430500  115.966000
  H    -26.808300   62.680500  116.223000
  H    -27.113300   64.299000  115.666000
  C    -28.472400   63.221200  114.713000
  H    -29.184500   64.004000  114.451000
  H    -29.123100   62.343700  114.787000
  H    -27.834800   63.021100  113.849000
  H    -31.865000   68.134500  119.767000
  H    -24.849400   64.084100  120.550000

 Total Charge           Charge          ....    0
 Multiplicity           Mult            ....    1
 Number of Electrons    NEL             ....  134
 Basis Dimension        Dim             ....  322

ORBITAL ENERGIES
----------------

  NO   OCC          E(Eh)            E(eV)
   0   2.0000     -88.974617     -2421.1224
   1   2.0000     -88.957848     -2420.6661
   2   2.0000     -10.332001      -281.1480
   3   2.0000     -10.322739      -280.8960
   4   2.0000     -10.317217      -280.7458
   5   2.0000     -10.313142      -280.6349
   6   2.0000     -10.310005      -280.5495
   7   2.0000     -10.301715      -280.3239
   8   2.0000     -10.299200      -280.2555
   9   2.0000     -10.296978      -280.1950
  10   2.0000     -10.293064      -280.0885
  11   2.0000     -10.290202      -280.0106
  12   2.0000     -10.280647      -279.7506
  13   2.0000     -10.280533      -279.7475
  14   2.0000     -10.279231      -279.7121
  15   2.0000     -10.276399      -279.6350
  16   2.0000      -8.087935      -220.0839
  17   2.0000      -8.073417      -219.6888
  18   2.0000      -6.046288      -164.5278
  19   2.0000      -6.042735      -164.4312
  20   2.0000      -6.038849      -164.3254
  21   2.0000      -6.031733      -164.1318
  22   2.0000      -6.027807      -164.0250
  23   2.0000      -6.024314      -163.9299
  24   2.0000      -1.006276       -27.3822
  25   2.0000      -0.980897       -26.6916
  26   2.0000      -0.911852       -24.8128
  27   2.0000      -0.910846       -24.7854
  28   2.0000      -0.871054       -23.7026
  29   2.0000      -0.850971       -23.1561
  30   2.0000      -0.847401       -23.0590
  31   2.0000      -0.809227       -22.0202
  32   2.0000      -0.784425       -21.3453
  33   2.0000      -0.772225       -21.0133
  34   2.0000      -0.708768       -19.2866
  35   2.0000      -0.704616       -19.1736
  36   2.0000      -0.688801       -18.7432
  37   2.0000      -0.651237       -17.7211
  38   2.0000      -0.643568       -17.5124
  39   2.0000      -0.623062       -16.9544
  40   2.0000      -0.599219       -16.3056
  41   2.0000      -0.568839       -15.4789
  42   2.0000      -0.564745       -15.3675
  43   2.0000      -0.551739       -15.0136
  44   2.0000      -0.536334       -14.5944
  45   2.0000      -0.529091       -14.3973
  46   2.0000      -0.516106       -14.0440
  47   2.0000      -0.508353       -13.8330
  48   2.0000      -0.502166       -13.6646
  49   2.0000      -0.493055       -13.4167
  50   2.0000      -0.488036       -13.2801
  51   2.0000      -0.482411       -13.1271
  52   2.0000      -0.474039       -12.8992
  53   2.0000      -0.465065       -12.6551
  54   2.0000      -0.460436       -12.5291
  55   2.0000      -0.450910       -12.2699
  56   2.0000      -0.448440       -12.2027
  57   2.0000      -0.437725       -11.9111
  58   2.0000      -0.432591       -11.7714
  59   2.0000      -0.424313       -11.5462
  60   2.0000      -0.422951       -11.5091
  61   2.0000      -0.414252       -11.2724
  62   2.0000      -0.401863       -10.9352
  63   2.0000      -0.343187        -9.3386
  64   2.0000      -0.324680        -8.8350
  65   2.0000      -0.322315        -8.7706
  66   2.0000      -0.296807        -8.0765
  67   0.0000       0.029093         0.7917
  68   0.0000       0.052817         1.4372
  69   0.0000       0.109857         2.9894
  70   0.0000       0.119272         3.2456
  71   0.0000       0.124194         3.3795

MULLIKEN ATOMIC CHARGES
-----------------------
   0 S :    0.133632
   1 C :   -0.116700
   2 C :   -0.062968
   3 C :    0.035605
   4 C :   -0.206657
   5 H :    0.027261
   6 C :    0.068431
   7 H :    0.043153
   8 H :    0.001391
   9 C :   -0.116128
  10 H :    0.036288
  11 H :    0.035930
  12 C :   -0.044784
  13 H :    0.040227
  14 H :    0.026074
  15 H :    0.042233
  16 S :    0.104937
  17 C :   -0.096486
  18 C :   -0.048816
  19 C :   -0.024652
  20 C :   -0.180569
  21 H :    0.013076
  22 C :    0.092390
  23 H :    0.008940
  24 H :    0.027223
  25 C :   -0.042425
  26 H :    0.035423
  27 H :    0.017136
  28 C :   -0.055541
  29 H :    0.037863
  30 H :    0.018373
  31 H :    0.036038
  32 H :    0.048535
  33 H :    0.065568
Sum of atomic charges:    0.0000000

LOEWDIN ATOMIC CHARGES
----------------------
   0 S :    0.397750
   1 C :   -0.190043
   2 C :   -0.066505
   3 C :   -0.041989
   4 C :   -0.189974
   5 H :    0.036084
   6 C :   -0.039454
   7 H :    0.041680
   8 H :    0.022579
   9 C :   -0.046842
  10 H :    0.028441
  11 H :    0.024003
  12 C :   -0.062537
  13 H :    0.024663
  14 H :    0.022694
  15 H :    0.029585
  16 S :    0.416301
  17 C :   -0.189839
  18 C :   -0.077823
  19 C :   -0.050573
  20 C :   -0.217004
  21 H :    0.027142
  22 C :   -0.033862
  23 H :    0.021229
  24 H :    0.036420
  25 C :   -0.041084
  26 H :    0.029600
  27 H :    0.020541
  28 C :   -0.064793
  29 H :    0.029282
  30 H :    0.020202
  31 H :    0.029507
  32 H :    0.025045
  33 H :    0.029574

  Mayer bond orders larger than 0.100000
B(  0-S ,  1-C ) :   1.1650 B(  0-S ,  4-C ) :   1.1302 B(  1-C ,  2-C ) :   1.5798
B(  1-C ,  4-C ) :   0.1098 B(  1-C , 32-H ) :   0.9636 B(  2-C ,  3-C ) :   1.2619
B(  2-C ,  6-C ) :   1.0195 B(  3-C ,  4-C ) :   1.5591 B(  3-C ,  5-H ) :   0.9847
B(  4-C , 20-C ) :   1.0701 B(  6-C ,  7-H ) :   0.9389 B(  6-C ,  8-H ) :   0.9410
B(  6-C ,  9-C ) :   1.0719 B(  9-C , 10-H ) :   0.9535 B(  9-C , 11-H ) :   0.9571
B(  9-C , 12-C ) :   1.0688 B( 12-C , 13-H ) :   0.9783 B( 12-C , 14-H ) :   0.9747
B( 12-C , 15-H ) :   0.9753 B( 16-S , 17-C ) :   1.1815 B( 16-S , 20-C ) :   1.1518
B( 17-C , 18-C ) :   1.5657 B( 17-C , 20-C ) :   0.1068 B( 17-C , 33-H ) :   0.9646
B( 18-C , 19-C ) :   1.2666 B( 18-C , 21-H ) :   0.9968 B( 19-C , 20-C ) :   1.5587
B( 19-C , 22-C ) :   1.0383 B( 22-C , 23-H ) :   0.9244 B( 22-C , 24-H ) :   0.9178
B( 22-C , 25-C ) :   1.0701 B( 25-C , 26-H ) :   0.9517 B( 25-C , 27-H ) :   0.9546
B( 25-C , 28-C ) :   1.0771 B( 28-C , 29-H ) :   0.9736 B( 28-C , 30-H ) :   0.9757
B( 28-C , 31-H ) :   0.9753

Dispersion correction           -0.014107851
FINAL SINGLE POINT ENERGY     -1339.864828865344

DIPOLE MOMENT
-------------
                                X             Y             Z
Electronic contribution:     14.72035      11.99977       6.01387
Nuclear contribution   :    -15.13648     -12.42928      -6.09448
                        -----------------------------------------
Total Dipole Moment    :     -0.41613      -0.42950      -0.08061
                        -----------------------------------------
Magnitude (a.u.)       :      0.60343
Magnitude (Debye)      :      1.53381

Rotational constants in cm-1:     0.018495     0.008062     0.006941
Rotational constants in MHz :   554.462905   241.699154   208.082836

                             ****ORCA TERMINATED NORMALLY****
TOTAL RUN TIME: 0 days 0 hours 0 minutes 25 seconds 750 msec
