                         Program Version 4.2.1 -  RELEASE  -
|  1> ! wB97X-D3 SP def2-SVP
|  2> %pal
|  3> nprocs 16
|  4> end
|  5>
|  6> * xyz 0 1
|  7> S 	 -66.1458 	 40.7659 	 122.802
|  8> C 	 -67.7894 	 41.0962 	 122.444
|  9> C 	 -68.7324 	 40.3201 	 123.083
| 10> C 	 -68.1401 	 39.4893 	 124.104
| 11> C 	 -66.7224 	 39.6063 	 124.077
| 12> H 	 -68.6439 	 38.7396 	 124.703
| 13> C 	 -70.2081 	 40.5959 	 122.936
| 14> H 	 -70.4102 	 41.615 	 123.353
| 15> H 	 -70.7616 	 39.9739 	 123.568
| 16> C 	 -70.8231 	 40.4669 	 121.546
| 17> H 	 -70.2796 	 41.0473 	 120.78
| 18> H 	 -70.6527 	 39.4942 	 121.152
| 19> C 	 -72.302 	 40.6854 	 121.338
| 20> H 	 -72.5577 	 40.4838 	 120.347
| 21> H 	 -72.9315 	 40.0882 	 122.052
| 22> H 	 -72.5386 	 41.7482 	 121.489
| 23> S 	 -64.5455 	 37.9691 	 123.831
| 24> C 	 -63.7227 	 37.4419 	 125.293
| 25> C 	 -64.4484 	 37.6984 	 126.43
| 26> C 	 -65.5943 	 38.5594 	 126.155
| 27> C 	 -65.8063 	 38.7396 	 124.757
| 28> H 	 -64.0943 	 37.4157 	 127.393
| 29> C 	 -66.3191 	 39.1337 	 127.388
| 30> H 	 -67.0363 	 38.4336 	 127.836
| 31> H 	 -66.8731 	 39.8947 	 127.018
| 32> C 	 -65.3449 	 39.8246 	 128.491
| 33> H 	 -64.7957 	 40.5445 	 127.963
| 34> H 	 -64.661 	 39.092 	 128.787
| 35> C 	 -66.1754 	 40.3943 	 129.725
| 36> H 	 -66.8231 	 41.2797 	 129.585
| 37> H 	 -65.5489 	 40.6319 	 130.61
| 38> H 	 -66.8467 	 39.5951 	 130.057
| 39> H 	 -68.3094 	 41.7009 	 121.665
| 40> H 	 -62.8297 	 36.8223 	 125.173
| 41> *
| 42>
| 43>                          ****END OF INPUT****

CARTESIAN COORDINATES (ANGSTROEM)
---------------------------------
  S    -66.145800   40.765900  122.802000
  C    -67.789400   41.096200  122.444000
  C    -68.732400   40.320100  123.083000
  C    -68.140100   39.489300  124.104000
  C    -66.722400   39.606300  124.077000
  H    -68.643900   38.739600  124.703000
  C    -70.208100   40.595900  122.936000
  H    -70.410200   41.615000  123.353000
  H    -70.761600   39.973900  123.568000
  C    -70.823100   40.466900  121.546000
  H    -70.279600   41.047300  120.780000
  H    -70.652700   39.494200  121.152000
  C    -72.302000   40.685400  121.338000
  H    -72.557700   40.483800  120.347000
  H    -72.931500   40.088200  122.052000
  H    -72.538600   41.748200  121.489000
  S    -64.545500   37.969100  123.831000
  C    -63.722700   37.441900  125.293000
  C    -64.448400   37.698400  126.430000
  C    -65.594300   38.559400  126.155000
  C    -65.806300   38.739600  124.757000
  H    -64.094300   37.415700  127.393000
  C    -66.319100   39.133700  127.388000
  H    -67.036300   38.433600  127.836000
  H    -66.873100   39.894700  127.018000
  C    -65.344900   39.824600  128.491000
  H    -64.795700   40.544500  127.963000
  H    -64.661000   39.092000  128.787000
  C    -66.175400   40.394300  129.725000
  H    -66.823100   41.279700  129.585000
  H    -65.548900   40.631900  130.610000
  H    -66.846700   39.595100  130.057000
  H    -68.309400   41.700900  121.665000
  H    -62.829700   36.822300  125.173000

 Total Charge           Charge          ....    0
 Multiplicity           Mult            ....    1
 Number of Electrons    NEL             ....  134
 Basis Dimension        Dim             ....  322

ORBITAL ENERGIES
----------------

  NO   OCC          E(Eh)            E(eV)
   0   2.0000     -88.974306     -2421.1139
   1   2.0000     -88.963891     -2420.8305
   2   2.0000     -10.334073      -281.2044
   3   2.0000     -10.327434      -281.0238
   4   2.0000     -10.317801      -280.7616
   5   2.0000     -10.310740      -280.5695
   6   2.0000     -10.309419      -280.5336
   7   2.0000     -10.302571      -280.3472
   8   2.0000     -10.298309      -280.2312
   9   2.0000     -10.293535      -280.1013
  10   2.0000     -10.290496      -280.0186
  11   2.0000     -10.289104      -279.9808
  12   2.0000     -10.287767      -279.9444
  13   2.0000     -10.287134      -279.9271
  14   2.0000     -10.282703      -279.8066
  15   2.0000     -10.278244      -279.6852
  16   2.0000      -8.088025      -220.0863
  17   2.0000      -8.078865      -219.8371
  18   2.0000      -6.046482      -164.5331
  19   2.0000      -6.042861      -164.4346
  20   2.0000      -6.038697      -164.3213
  21   2.0000      -6.037378      -164.2854
  22   2.0000      -6.033318      -164.1749
  23   2.0000      -6.029638      -164.0748
  24   2.0000      -1.000712       -27.2308
  25   2.0000      -0.978235       -26.6191
  26   2.0000      -0.913726       -24.8638
  27   2.0000      -0.895617       -24.3710
  28   2.0000      -0.870716       -23.6934
  29   2.0000      -0.854876       -23.2624
  30   2.0000      -0.840986       -22.8844
  31   2.0000      -0.813304       -22.1311
  32   2.0000      -0.782491       -21.2927
  33   2.0000      -0.766863       -20.8674
  34   2.0000      -0.715042       -19.4573
  35   2.0000      -0.706052       -19.2126
  36   2.0000      -0.696817       -18.9613
  37   2.0000      -0.658746       -17.9254
  38   2.0000      -0.630559       -17.1584
  39   2.0000      -0.614551       -16.7228
  40   2.0000      -0.595687       -16.2095
  41   2.0000      -0.573497       -15.6057
  42   2.0000      -0.560802       -15.2602
  43   2.0000      -0.554990       -15.1021
  44   2.0000      -0.531305       -14.4575
  45   2.0000      -0.516399       -14.0519
  46   2.0000      -0.512444       -13.9443
  47   2.0000      -0.510113       -13.8809
  48   2.0000      -0.500320       -13.6144
  49   2.0000      -0.491385       -13.3713
  50   2.0000      -0.487930       -13.2772
  51   2.0000      -0.477812       -13.0019
  52   2.0000      -0.474906       -12.9229
  53   2.0000      -0.467018       -12.7082
  54   2.0000      -0.457264       -12.4428
  55   2.0000      -0.451512       -12.2863
  56   2.0000      -0.447836       -12.1862
  57   2.0000      -0.439360       -11.9556
  58   2.0000      -0.436094       -11.8667
  59   2.0000      -0.430372       -11.7110
  60   2.0000      -0.423377       -11.5207
  61   2.0000      -0.418892       -11.3986
  62   2.0000      -0.408646       -11.1198
  63   2.0000      -0.349342        -9.5061
  64   2.0000      -0.330049        -8.9811
  65   2.0000      -0.329087        -8.9549
  66   2.0000      -0.285359        -7.7650
  67   0.0000       0.025667         0.6984
  68   0.0000       0.065040         1.7698
  69   0.0000       0.107693         2.9305
  70   0.0000       0.119198         3.2435
  71   0.0000       0.128076         3.4851

MULLIKEN ATOMIC CHARGES
-----------------------
   0 S :    0.134461
   1 C :   -0.092134
   2 C :   -0.115621
   3 C :    0.039903
   4 C :   -0.163206
   5 H :    0.024036
   6 C :    0.094920
   7 H :    0.044184
   8 H :   -0.008138
   9 C :   -0.098901
  10 H :    0.016433
  11 H :    0.013708
  12 C :   -0.019898
  13 H :    0.022929
  14 H :    0.034711
  15 H :    0.024250
  16 S :    0.095976
  17 C :   -0.113337
  18 C :    0.001409
  19 C :   -0.074603
  20 C :   -0.157335
  21 H :    0.014867
  22 C :    0.098386
  23 H :    0.039272
  24 H :   -0.006906
  25 C :   -0.052098
  26 H :    0.029753
  27 H :    0.020328
  28 C :   -0.075286
  29 H :    0.044175
  30 H :    0.040625
  31 H :    0.027300
  32 H :    0.048997
  33 H :    0.066839
Sum of atomic charges:   -0.0000000

LOEWDIN ATOMIC CHARGES
----------------------
   0 S :    0.404613
   1 C :   -0.215589
   2 C :   -0.069105
   3 C :   -0.046632
   4 C :   -0.179070
   5 H :    0.034712
   6 C :   -0.031802
   7 H :    0.039733
   8 H :    0.019914
   9 C :   -0.048995
  10 H :    0.021501
  11 H :    0.021146
  12 C :   -0.057504
  13 H :    0.020717
  14 H :    0.029103
  15 H :    0.023891
  16 S :    0.399628
  17 C :   -0.179995
  18 C :   -0.065706
  19 C :   -0.048096
  20 C :   -0.211995
  21 H :    0.026468
  22 C :   -0.024494
  23 H :    0.031992
  24 H :    0.012410
  25 C :   -0.018307
  26 H :    0.020232
  27 H :    0.012502
  28 C :   -0.073754
  29 H :    0.029207
  30 H :    0.030248
  31 H :    0.025360
  32 H :    0.038987
  33 H :    0.028680

  Mayer bond orders larger than 0.100000
B(  0-S ,  1-C ) :   1.1340 B(  0-S ,  4-C ) :   1.1290 B(  1-C ,  2-C ) :   1.6348
B(  1-C , 32-H ) :   0.9518 B(  2-C ,  3-C ) :   1.2428 B(  2-C ,  6-C ) :   1.0270
B(  3-C ,  4-C ) :   1.5573 B(  3-C ,  5-H ) :   0.9886 B(  4-C , 20-C ) :   1.0834
B(  6-C ,  7-H ) :   0.9417 B(  6-C ,  8-H ) :   0.9328 B(  6-C ,  9-C ) :   1.0522
B(  9-C , 10-H ) :   0.9501 B(  9-C , 11-H ) :   0.9515 B(  9-C , 12-C ) :   1.1000
B( 12-C , 13-H ) :   0.9710 B( 12-C , 14-H ) :   0.9724 B( 12-C , 15-H ) :   0.9735
B( 16-S , 17-C ) :   1.1519 B( 16-S , 20-C ) :   1.1378 B( 17-C , 18-C ) :   1.6121
B( 17-C , 33-H ) :   0.9654 B( 18-C , 19-C ) :   1.2277 B( 18-C , 21-H ) :   0.9925
B( 19-C , 20-C ) :   1.5788 B( 19-C , 22-C ) :   1.0415 B( 22-C , 23-H ) :   0.9402
B( 22-C , 24-H ) :   0.9266 B( 22-C , 25-C ) :   1.0498 B( 25-C , 26-H ) :   0.9620
B( 25-C , 27-H ) :   0.9608 B( 25-C , 28-C ) :   1.0660 B( 28-C , 29-H ) :   0.9798
B( 28-C , 30-H ) :   0.9773 B( 28-C , 31-H ) :   0.9760

Dispersion correction           -0.013138873
FINAL SINGLE POINT ENERGY     -1339.854836889434

DIPOLE MOMENT
-------------
                                X             Y             Z
Electronic contribution:     21.39285      -6.37834     -11.90142
Nuclear contribution   :    -21.81779       6.34529      12.22793
                        -----------------------------------------
Total Dipole Moment    :     -0.42493      -0.03305       0.32651
                        -----------------------------------------
Magnitude (a.u.)       :      0.53691
Magnitude (Debye)      :      1.36471

Rotational constants in cm-1:     0.019851     0.006900     0.005703
Rotational constants in MHz :   595.107600   206.854662   170.970952

                             ****ORCA TERMINATED NORMALLY****
TOTAL RUN TIME: 0 days 0 hours 0 minutes 31 seconds 789 msec
