                         Program Version 4.2.1 -  RELEASE  -
|  1> ! wB97X-D3 SP def2-SVP
|  2> %pal
|  3> nprocs 16
|  4> end
|  5>
|  6> * xyz 0 1
|  7> S 	 -0.344018 	 -13.8942 	 83.76
|  8> C 	 -1.45699 	 -14.2732 	 85.1008
|  9> C 	 -2.67998 	 -13.6765 	 84.9562
| 10> C 	 -2.74995 	 -12.9184 	 83.7045
| 11> C 	 -1.57969 	 -12.8303 	 82.9781
| 12> H 	 -3.55961 	 -12.326 	 83.2806
| 13> C 	 -3.87105 	 -13.8781 	 85.9239
| 14> H 	 -4.454 	 -14.7901 	 85.6848
| 15> H 	 -4.51662 	 -13.021 	 85.5957
| 16> C 	 -3.51203 	 -13.9257 	 87.3999
| 17> H 	 -2.81314 	 -14.6828 	 87.6165
| 18> H 	 -3.03867 	 -12.9673 	 87.495
| 19> C 	 -4.6102 	 -13.9842 	 88.5036
| 20> H 	 -4.19821 	 -14.0309 	 89.6032
| 21> H 	 -5.13177 	 -13.0273 	 88.55
| 22> H 	 -5.36684 	 -14.7691 	 88.3473
| 23> S 	 -0.777088 	 -13.2722 	 80.3953
| 24> C 	 -0.981957 	 -11.9495 	 79.2704
| 25> C 	 -1.61104 	 -10.8292 	 79.7962
| 26> C 	 -1.81175 	 -10.9363 	 81.2209
| 27> C 	 -1.43244 	 -12.2045 	 81.6612
| 28> H 	 -1.88182 	 -10.0282 	 79.1495
| 29> C 	 -2.707 	 -9.9021 	 81.9683
| 30> H 	 -2.06462 	 -9.02763 	 81.9208
| 31> H 	 -2.94734 	 -10.3685 	 82.9638
| 32> C 	 -4.03209 	 -9.62251 	 81.3782
| 33> H 	 -4.61314 	 -10.5181 	 81.2618
| 34> H 	 -3.9748 	 -9.18441 	 80.3718
| 35> C 	 -4.77336 	 -8.58941 	 82.1831
| 36> H 	 -4.89047 	 -8.91303 	 83.2248
| 37> H 	 -5.7374 	 -8.33668 	 81.743
| 38> H 	 -4.16219 	 -7.66163 	 82.0806
| 39> H 	 -1.2279 	 -14.9796 	 85.9044
| 40> H 	 -0.69892 	 -11.9404 	 78.2028
| 41> *
| 42>
| 43>                          ****END OF INPUT****

CARTESIAN COORDINATES (ANGSTROEM)
---------------------------------
  S     -0.344018  -13.894200   83.760000
  C     -1.456990  -14.273200   85.100800
  C     -2.679980  -13.676500   84.956200
  C     -2.749950  -12.918400   83.704500
  C     -1.579690  -12.830300   82.978100
  H     -3.559610  -12.326000   83.280600
  C     -3.871050  -13.878100   85.923900
  H     -4.454000  -14.790100   85.684800
  H     -4.516620  -13.021000   85.595700
  C     -3.512030  -13.925700   87.399900
  H     -2.813140  -14.682800   87.616500
  H     -3.038670  -12.967300   87.495000
  C     -4.610200  -13.984200   88.503600
  H     -4.198210  -14.030900   89.603200
  H     -5.131770  -13.027300   88.550000
  H     -5.366840  -14.769100   88.347300
  S     -0.777088  -13.272200   80.395300
  C     -0.981957  -11.949500   79.270400
  C     -1.611040  -10.829200   79.796200
  C     -1.811750  -10.936300   81.220900
  C     -1.432440  -12.204500   81.661200
  H     -1.881820  -10.028200   79.149500
  C     -2.707000   -9.902100   81.968300
  H     -2.064620   -9.027630   81.920800
  H     -2.947340  -10.368500   82.963800
  C     -4.032090   -9.622510   81.378200
  H     -4.613140  -10.518100   81.261800
  H     -3.974800   -9.184410   80.371800
  C     -4.773360   -8.589410   82.183100
  H     -4.890470   -8.913030   83.224800
  H     -5.737400   -8.336680   81.743000
  H     -4.162190   -7.661630   82.080600
  H     -1.227900  -14.979600   85.904400
  H     -0.698920  -11.940400   78.202800

 Total Charge           Charge          ....    0
 Multiplicity           Mult            ....    1
 Number of Electrons    NEL             ....  134
 Basis Dimension        Dim             ....  322

ORBITAL ENERGIES
----------------

  NO   OCC          E(Eh)            E(eV)
   0   2.0000     -88.970708     -2421.0160
   1   2.0000     -88.964567     -2420.8489
   2   2.0000     -10.333342      -281.1845
   3   2.0000     -10.331454      -281.1332
   4   2.0000     -10.319825      -280.8167
   5   2.0000     -10.317950      -280.7657
   6   2.0000     -10.308842      -280.5179
   7   2.0000     -10.308273      -280.5024
   8   2.0000     -10.301989      -280.3314
   9   2.0000     -10.299499      -280.2636
  10   2.0000     -10.297855      -280.2189
  11   2.0000     -10.294383      -280.1244
  12   2.0000     -10.291827      -280.0549
  13   2.0000     -10.285630      -279.8862
  14   2.0000     -10.282942      -279.8131
  15   2.0000     -10.281872      -279.7840
  16   2.0000      -8.084850      -220.0000
  17   2.0000      -8.077990      -219.8133
  18   2.0000      -6.043369      -164.4484
  19   2.0000      -6.039627      -164.3466
  20   2.0000      -6.036728      -164.2677
  21   2.0000      -6.035439      -164.2326
  22   2.0000      -6.032741      -164.1592
  23   2.0000      -6.028514      -164.0442
  24   2.0000      -0.999629       -27.2013
  25   2.0000      -0.976234       -26.5647
  26   2.0000      -0.922544       -25.1037
  27   2.0000      -0.908794       -24.7295
  28   2.0000      -0.866813       -23.5872
  29   2.0000      -0.855743       -23.2859
  30   2.0000      -0.840639       -22.8750
  31   2.0000      -0.812225       -22.1018
  32   2.0000      -0.783302       -21.3147
  33   2.0000      -0.771252       -20.9868
  34   2.0000      -0.709037       -19.2939
  35   2.0000      -0.700375       -19.0582
  36   2.0000      -0.689408       -18.7597
  37   2.0000      -0.661740       -18.0069
  38   2.0000      -0.639212       -17.3938
  39   2.0000      -0.611193       -16.6314
  40   2.0000      -0.594056       -16.1651
  41   2.0000      -0.583939       -15.8898
  42   2.0000      -0.570779       -15.5317
  43   2.0000      -0.562083       -15.2950
  44   2.0000      -0.526336       -14.3223
  45   2.0000      -0.523983       -14.2583
  46   2.0000      -0.514824       -14.0091
  47   2.0000      -0.512998       -13.9594
  48   2.0000      -0.502462       -13.6727
  49   2.0000      -0.496598       -13.5131
  50   2.0000      -0.494565       -13.4578
  51   2.0000      -0.475072       -12.9274
  52   2.0000      -0.473854       -12.8942
  53   2.0000      -0.464587       -12.6421
  54   2.0000      -0.457351       -12.4452
  55   2.0000      -0.454435       -12.3658
  56   2.0000      -0.445880       -12.1330
  57   2.0000      -0.436965       -11.8904
  58   2.0000      -0.430488       -11.7142
  59   2.0000      -0.424752       -11.5581
  60   2.0000      -0.419864       -11.4251
  61   2.0000      -0.415706       -11.3119
  62   2.0000      -0.414205       -11.2711
  63   2.0000      -0.347115        -9.4455
  64   2.0000      -0.334934        -9.1140
  65   2.0000      -0.327559        -8.9133
  66   2.0000      -0.293672        -7.9912
  67   0.0000       0.027792         0.7563
  68   0.0000       0.069060         1.8792
  69   0.0000       0.099838         2.7167
  70   0.0000       0.121052         3.2940
  71   0.0000       0.126125         3.4320

MULLIKEN ATOMIC CHARGES
-----------------------
   0 S :    0.089696
   1 C :   -0.134186
   2 C :   -0.084098
   3 C :    0.022375
   4 C :   -0.145581
   5 H :    0.011964
   6 C :    0.069774
   7 H :    0.044999
   8 H :    0.027861
   9 C :   -0.078272
  10 H :    0.029167
  11 H :    0.029866
  12 C :   -0.077389
  13 H :    0.049071
  14 H :    0.028236
  15 H :    0.040103
  16 S :    0.121647
  17 C :   -0.094524
  18 C :   -0.046542
  19 C :   -0.011140
  20 C :   -0.177245
  21 H :    0.013108
  22 C :    0.050933
  23 H :    0.035358
  24 H :    0.032864
  25 C :   -0.076703
  26 H :    0.027866
  27 H :    0.019801
  28 C :   -0.038498
  29 H :    0.034360
  30 H :    0.034038
  31 H :    0.029454
  32 H :    0.059552
  33 H :    0.062084
Sum of atomic charges:    0.0000000

LOEWDIN ATOMIC CHARGES
----------------------
   0 S :    0.358071
   1 C :   -0.182128
   2 C :   -0.066271
   3 C :   -0.065605
   4 C :   -0.176338
   5 H :    0.029398
   6 C :   -0.032711
   7 H :    0.032642
   8 H :    0.034273
   9 C :   -0.045201
  10 H :    0.017413
  11 H :    0.028838
  12 C :   -0.074927
  13 H :    0.041956
  14 H :    0.023351
  15 H :    0.023797
  16 S :    0.399024
  17 C :   -0.187388
  18 C :   -0.069210
  19 C :   -0.050255
  20 C :   -0.189566
  21 H :    0.026992
  22 C :   -0.029048
  23 H :    0.035434
  24 H :    0.036112
  25 C :   -0.049161
  26 H :    0.020353
  27 H :    0.023203
  28 C :   -0.060222
  29 H :    0.023746
  30 H :    0.026195
  31 H :    0.030189
  32 H :    0.032633
  33 H :    0.034414

  Mayer bond orders larger than 0.100000
B(  0-S ,  1-C ) :   1.1206 B(  0-S ,  4-C ) :   1.1148 B(  1-C ,  2-C ) :   1.6530
B(  1-C , 32-H ) :   0.9643 B(  2-C ,  3-C ) :   1.1999 B(  2-C ,  6-C ) :   1.0046
B(  3-C ,  4-C ) :   1.6245 B(  3-C ,  5-H ) :   0.9799 B(  4-C , 20-C ) :   1.0444
B(  6-C ,  7-H ) :   0.9336 B(  6-C ,  8-H ) :   0.9469 B(  6-C ,  9-C ) :   1.0560
B(  9-C , 10-H ) :   0.9556 B(  9-C , 11-H ) :   0.9612 B(  9-C , 12-C ) :   1.0795
B( 12-C , 13-H ) :   0.9742 B( 12-C , 14-H ) :   0.9764 B( 12-C , 15-H ) :   0.9759
B( 16-S , 17-C ) :   1.1420 B( 16-S , 20-C ) :   1.1333 B( 17-C , 18-C ) :   1.6495
B( 17-C , 33-H ) :   0.9604 B( 18-C , 19-C ) :   1.2016 B( 18-C , 21-H ) :   0.9897
B( 19-C , 20-C ) :   1.6206 B( 19-C , 22-C ) :   1.0310 B( 22-C , 23-H ) :   0.9225
B( 22-C , 24-H ) :   0.9377 B( 22-C , 25-C ) :   1.0871 B( 25-C , 26-H ) :   0.9515
B( 25-C , 27-H ) :   0.9395 B( 25-C , 28-C ) :   1.0916 B( 28-C , 29-H ) :   0.9737
B( 28-C , 30-H ) :   0.9714 B( 28-C , 31-H ) :   0.9734

Dispersion correction           -0.013446001
FINAL SINGLE POINT ENERGY     -1339.866017008289

DIPOLE MOMENT
-------------
                                X             Y             Z
Electronic contribution:     23.16777     -12.51432     -17.24484
Nuclear contribution   :    -23.85205      12.86494      17.29773
                        -----------------------------------------
Total Dipole Moment    :     -0.68427       0.35061       0.05289
                        -----------------------------------------
Magnitude (a.u.)       :      0.77069
Magnitude (Debye)      :      1.95893

Rotational constants in cm-1:     0.018053     0.008024     0.005814
Rotational constants in MHz :   541.206266   240.548324   174.313896

                             ****ORCA TERMINATED NORMALLY****
TOTAL RUN TIME: 0 days 0 hours 0 minutes 34 seconds 933 msec
