                         Program Version 4.2.1 -  RELEASE  -
|  1> ! wB97X-D3 SP def2-SVP
|  2> %pal
|  3> nprocs 16
|  4> end
|  5>
|  6> * xyz 0 1
|  7> S 	 44.7419 	 20.7927 	 83.8562
|  8> C 	 43.0603 	 21.3272 	 83.5413
|  9> C 	 42.3038 	 20.3608 	 82.928
| 10> C 	 43.0104 	 19.0761 	 82.8414
| 11> C 	 44.2409 	 19.1047 	 83.483
| 12> H 	 42.7181 	 18.2058 	 82.236
| 13> C 	 40.8052 	 20.4424 	 82.5873
| 14> H 	 40.6241 	 19.3565 	 82.5845
| 15> H 	 40.7642 	 20.7781 	 81.5823
| 16> C 	 39.8669 	 21.1284 	 83.5612
| 17> H 	 39.8026 	 20.6607 	 84.551
| 18> H 	 40.1756 	 22.1605 	 83.8639
| 19> C 	 38.4851 	 21.3021 	 82.9393
| 20> H 	 38.5755 	 21.7027 	 81.8974
| 21> H 	 38.0888 	 20.296 	 82.8702
| 22> H 	 37.8062 	 21.8776 	 83.6313
| 23> S 	 46.6655 	 18.124 	 82.5671
| 24> C 	 46.9454 	 16.4386 	 82.7799
| 25> C 	 45.8225 	 15.7475 	 83.1558
| 26> C 	 44.8049 	 16.6196 	 83.5535
| 27> C 	 45.1613 	 17.9587 	 83.3893
| 28> H 	 45.8182 	 14.674 	 83.1432
| 29> C 	 43.4242 	 16.0025 	 83.9196
| 30> H 	 42.7216 	 16.0308 	 83.0326
| 31> H 	 42.9477 	 16.6643 	 84.642
| 32> C 	 43.4028 	 14.6152 	 84.5343
| 33> H 	 44.0865 	 14.7287 	 85.3758
| 34> H 	 43.7125 	 13.7512 	 83.9201
| 35> C 	 42.0491 	 14.2864 	 85.1828
| 36> H 	 41.2976 	 14.1794 	 84.3887
| 37> H 	 41.7609 	 15.0175 	 85.9111
| 38> H 	 42.2574 	 13.3089 	 85.7248
| 39> H 	 42.7928 	 22.3269 	 83.8196
| 40> H 	 47.7996 	 15.8746 	 82.487
| 41> *
| 42>
| 43>                          ****END OF INPUT****

CARTESIAN COORDINATES (ANGSTROEM)
---------------------------------
  S     44.741900   20.792700   83.856200
  C     43.060300   21.327200   83.541300
  C     42.303800   20.360800   82.928000
  C     43.010400   19.076100   82.841400
  C     44.240900   19.104700   83.483000
  H     42.718100   18.205800   82.236000
  C     40.805200   20.442400   82.587300
  H     40.624100   19.356500   82.584500
  H     40.764200   20.778100   81.582300
  C     39.866900   21.128400   83.561200
  H     39.802600   20.660700   84.551000
  H     40.175600   22.160500   83.863900
  C     38.485100   21.302100   82.939300
  H     38.575500   21.702700   81.897400
  H     38.088800   20.296000   82.870200
  H     37.806200   21.877600   83.631300
  S     46.665500   18.124000   82.567100
  C     46.945400   16.438600   82.779900
  C     45.822500   15.747500   83.155800
  C     44.804900   16.619600   83.553500
  C     45.161300   17.958700   83.389300
  H     45.818200   14.674000   83.143200
  C     43.424200   16.002500   83.919600
  H     42.721600   16.030800   83.032600
  H     42.947700   16.664300   84.642000
  C     43.402800   14.615200   84.534300
  H     44.086500   14.728700   85.375800
  H     43.712500   13.751200   83.920100
  C     42.049100   14.286400   85.182800
  H     41.297600   14.179400   84.388700
  H     41.760900   15.017500   85.911100
  H     42.257400   13.308900   85.724800
  H     42.792800   22.326900   83.819600
  H     47.799600   15.874600   82.487000

 Total Charge           Charge          ....    0
 Multiplicity           Mult            ....    1
 Number of Electrons    NEL             ....  134
 Basis Dimension        Dim             ....  322

ORBITAL ENERGIES
----------------

  NO   OCC          E(Eh)            E(eV)
   0   2.0000     -88.968190     -2420.9475
   1   2.0000     -88.963741     -2420.8265
   2   2.0000     -10.332397      -281.1588
   3   2.0000     -10.322419      -280.8873
   4   2.0000     -10.316074      -280.7146
   5   2.0000     -10.307544      -280.4825
   6   2.0000     -10.305494      -280.4268
   7   2.0000     -10.299677      -280.2685
   8   2.0000     -10.299589      -280.2661
   9   2.0000     -10.296167      -280.1729
  10   2.0000     -10.293879      -280.1107
  11   2.0000     -10.291326      -280.0412
  12   2.0000     -10.286474      -279.9092
  13   2.0000     -10.285065      -279.8708
  14   2.0000     -10.284958      -279.8679
  15   2.0000     -10.283112      -279.8177
  16   2.0000      -8.083742      -219.9698
  17   2.0000      -8.077344      -219.7957
  18   2.0000      -6.042086      -164.4135
  19   2.0000      -6.038347      -164.3118
  20   2.0000      -6.036074      -164.2499
  21   2.0000      -6.034417      -164.2048
  22   2.0000      -6.032316      -164.1477
  23   2.0000      -6.027649      -164.0207
  24   2.0000      -1.008363       -27.4389
  25   2.0000      -0.978324       -26.6215
  26   2.0000      -0.912721       -24.8364
  27   2.0000      -0.910715       -24.7818
  28   2.0000      -0.868540       -23.6342
  29   2.0000      -0.854757       -23.2591
  30   2.0000      -0.845762       -23.0143
  31   2.0000      -0.809402       -22.0249
  32   2.0000      -0.779231       -21.2039
  33   2.0000      -0.769167       -20.9301
  34   2.0000      -0.707243       -19.2451
  35   2.0000      -0.697444       -18.9784
  36   2.0000      -0.692175       -18.8350
  37   2.0000      -0.653403       -17.7800
  38   2.0000      -0.639718       -17.4076
  39   2.0000      -0.614722       -16.7274
  40   2.0000      -0.596583       -16.2338
  41   2.0000      -0.574502       -15.6330
  42   2.0000      -0.567414       -15.4401
  43   2.0000      -0.562902       -15.3173
  44   2.0000      -0.528650       -14.3853
  45   2.0000      -0.524230       -14.2650
  46   2.0000      -0.519683       -14.1413
  47   2.0000      -0.511363       -13.9149
  48   2.0000      -0.504181       -13.7195
  49   2.0000      -0.492164       -13.3925
  50   2.0000      -0.483830       -13.1657
  51   2.0000      -0.479076       -13.0363
  52   2.0000      -0.474460       -12.9107
  53   2.0000      -0.462280       -12.5793
  54   2.0000      -0.456969       -12.4348
  55   2.0000      -0.451285       -12.2801
  56   2.0000      -0.449373       -12.2281
  57   2.0000      -0.439749       -11.9662
  58   2.0000      -0.432845       -11.7783
  59   2.0000      -0.422823       -11.5056
  60   2.0000      -0.421709       -11.4753
  61   2.0000      -0.414938       -11.2910
  62   2.0000      -0.408400       -11.1131
  63   2.0000      -0.347983        -9.4691
  64   2.0000      -0.332023        -9.0348
  65   2.0000      -0.325094        -8.8463
  66   2.0000      -0.289338        -7.8733
  67   0.0000       0.025861         0.7037
  68   0.0000       0.071266         1.9392
  69   0.0000       0.099696         2.7129
  70   0.0000       0.117377         3.1940
  71   0.0000       0.132227         3.5981

MULLIKEN ATOMIC CHARGES
-----------------------
   0 S :    0.078201
   1 C :   -0.132296
   2 C :   -0.070942
   3 C :   -0.018748
   4 C :   -0.139972
   5 H :    0.041967
   6 C :    0.094183
   7 H :    0.023386
   8 H :    0.033498
   9 C :   -0.082572
  10 H :    0.034823
  11 H :    0.026258
  12 C :   -0.067469
  13 H :    0.043316
  14 H :    0.025501
  15 H :    0.046918
  16 S :    0.127496
  17 C :   -0.070289
  18 C :   -0.044978
  19 C :   -0.047986
  20 C :   -0.133080
  21 H :    0.013943
  22 C :    0.046383
  23 H :    0.037396
  24 H :    0.023858
  25 C :   -0.110316
  26 H :    0.030204
  27 H :    0.043688
  28 C :   -0.050063
  29 H :    0.037055
  30 H :    0.033933
  31 H :    0.044622
  32 H :    0.045595
  33 H :    0.036487
Sum of atomic charges:   -0.0000000

LOEWDIN ATOMIC CHARGES
----------------------
   0 S :    0.352256
   1 C :   -0.172417
   2 C :   -0.060145
   3 C :   -0.060146
   4 C :   -0.175598
   5 H :    0.037941
   6 C :   -0.029565
   7 H :    0.035679
   8 H :    0.029996
   9 C :   -0.048153
  10 H :    0.029159
  11 H :    0.022408
  12 C :   -0.068156
  13 H :    0.030540
  14 H :    0.021332
  15 H :    0.032787
  16 S :    0.435004
  17 C :   -0.191430
  18 C :   -0.068137
  19 C :   -0.060064
  20 C :   -0.212177
  21 H :    0.030476
  22 C :   -0.037617
  23 H :    0.029646
  24 H :    0.031164
  25 C :   -0.051725
  26 H :    0.027207
  27 H :    0.024378
  28 C :   -0.060574
  29 H :    0.023864
  30 H :    0.020852
  31 H :    0.036759
  32 H :    0.021637
  33 H :    0.022819

  Mayer bond orders larger than 0.100000
B(  0-S ,  1-C ) :   1.1094 B(  0-S ,  4-C ) :   1.1256 B(  1-C ,  2-C ) :   1.6505
B(  1-C , 32-H ) :   0.9753 B(  2-C ,  3-C ) :   1.2045 B(  2-C ,  6-C ) :   0.9888
B(  3-C ,  4-C ) :   1.6080 B(  3-C ,  5-H ) :   0.9760 B(  4-C , 20-C ) :   1.0394
B(  6-C ,  7-H ) :   0.9478 B(  6-C ,  8-H ) :   0.9306 B(  6-C ,  9-C ) :   1.0686
B(  9-C , 10-H ) :   0.9538 B(  9-C , 11-H ) :   0.9556 B(  9-C , 12-C ) :   1.0776
B( 12-C , 13-H ) :   0.9755 B( 12-C , 14-H ) :   0.9761 B( 12-C , 15-H ) :   0.9724
B( 16-S , 17-C ) :   1.1646 B( 16-S , 20-C ) :   1.1595 B( 17-C , 18-C ) :   1.5939
B( 17-C , 33-H ) :   0.9654 B( 18-C , 19-C ) :   1.2768 B( 18-C , 21-H ) :   0.9922
B( 19-C , 20-C ) :   1.5835 B( 19-C , 22-C ) :   1.0269 B( 22-C , 23-H ) :   0.9305
B( 22-C , 24-H ) :   0.9320 B( 22-C , 25-C ) :   1.0703 B( 25-C , 26-H ) :   0.9558
B( 25-C , 27-H ) :   0.9472 B( 25-C , 28-C ) :   1.0878 B( 28-C , 29-H ) :   0.9755
B( 28-C , 30-H ) :   0.9743 B( 28-C , 31-H ) :   0.9742

Dispersion correction           -0.013389765
FINAL SINGLE POINT ENERGY     -1339.862572204376

DIPOLE MOMENT
-------------
                                X             Y             Z
Electronic contribution:     29.89377      10.02323      -4.24482
Nuclear contribution   :    -30.54980     -10.40831       4.06289
                        -----------------------------------------
Total Dipole Moment    :     -0.65604      -0.38507      -0.18194
                        -----------------------------------------
Magnitude (a.u.)       :      0.78216
Magnitude (Debye)      :      1.98809

Rotational constants in cm-1:     0.016925     0.008355     0.005976
Rotational constants in MHz :   507.398010   250.473328   179.148419

                             ****ORCA TERMINATED NORMALLY****
TOTAL RUN TIME: 0 days 0 hours 0 minutes 29 seconds 448 msec
