                         Program Version 4.2.1 -  RELEASE  -
|  1> ! wB97X-D3 SP def2-SVP
|  2> %pal
|  3> nprocs 16
|  4> end
|  5>
|  6> * xyz 0 1
|  7> S 	 60.3239 	 22.4152 	 80.909
|  8> C 	 58.9454 	 23.4084 	 81.2352
|  9> C 	 57.9835 	 22.5964 	 81.8317
| 10> C 	 58.4528 	 21.3066 	 81.9768
| 11> C 	 59.6566 	 21.006 	 81.4103
| 12> H 	 57.8489 	 20.5122 	 82.5169
| 13> C 	 56.5641 	 23.1107 	 82.2296
| 14> H 	 56.5792 	 24.265 	 82.3788
| 15> H 	 56.3597 	 22.5621 	 83.1623
| 16> C 	 55.5239 	 22.6474 	 81.0817
| 17> H 	 55.5522 	 23.3307 	 80.2407
| 18> H 	 55.8263 	 21.6201 	 80.6681
| 19> C 	 54.0265 	 22.3657 	 81.5642
| 20> H 	 53.3606 	 22.0609 	 80.7189
| 21> H 	 54.0178 	 21.5092 	 82.2171
| 22> H 	 53.5598 	 23.1963 	 82.0823
| 23> S 	 62.1187 	 19.8751 	 81.7801
| 24> C 	 62.2989 	 18.1105 	 81.5686
| 25> C 	 61.0479 	 17.5672 	 81.3033
| 26> C 	 59.9778 	 18.4678 	 81.2152
| 27> C 	 60.4144 	 19.7896 	 81.344
| 28> H 	 60.9854 	 16.5134 	 81.1411
| 29> C 	 58.5653 	 18.1068 	 80.7992
| 30> H 	 58.5688 	 18.0875 	 79.7237
| 31> H 	 57.9015 	 18.9299 	 80.9607
| 32> C 	 58.0005 	 16.7406 	 81.3587
| 33> H 	 58.6373 	 16.5556 	 82.1979
| 34> H 	 58.1139 	 15.9065 	 80.6927
| 35> C 	 56.5524 	 16.8871 	 81.6136
| 36> H 	 56.1434 	 16.0805 	 82.2242
| 37> H 	 56.0263 	 16.9698 	 80.6262
| 38> H 	 56.3516 	 17.8013 	 82.1641
| 39> H 	 58.7927 	 24.4399 	 80.9971
| 40> H 	 63.207 	 17.7215 	 81.8356
| 41> *
| 42>
| 43>                          ****END OF INPUT****

CARTESIAN COORDINATES (ANGSTROEM)
---------------------------------
  S     60.323900   22.415200   80.909000
  C     58.945400   23.408400   81.235200
  C     57.983500   22.596400   81.831700
  C     58.452800   21.306600   81.976800
  C     59.656600   21.006000   81.410300
  H     57.848900   20.512200   82.516900
  C     56.564100   23.110700   82.229600
  H     56.579200   24.265000   82.378800
  H     56.359700   22.562100   83.162300
  C     55.523900   22.647400   81.081700
  H     55.552200   23.330700   80.240700
  H     55.826300   21.620100   80.668100
  C     54.026500   22.365700   81.564200
  H     53.360600   22.060900   80.718900
  H     54.017800   21.509200   82.217100
  H     53.559800   23.196300   82.082300
  S     62.118700   19.875100   81.780100
  C     62.298900   18.110500   81.568600
  C     61.047900   17.567200   81.303300
  C     59.977800   18.467800   81.215200
  C     60.414400   19.789600   81.344000
  H     60.985400   16.513400   81.141100
  C     58.565300   18.106800   80.799200
  H     58.568800   18.087500   79.723700
  H     57.901500   18.929900   80.960700
  C     58.000500   16.740600   81.358700
  H     58.637300   16.555600   82.197900
  H     58.113900   15.906500   80.692700
  C     56.552400   16.887100   81.613600
  H     56.143400   16.080500   82.224200
  H     56.026300   16.969800   80.626200
  H     56.351600   17.801300   82.164100
  H     58.792700   24.439900   80.997100
  H     63.207000   17.721500   81.835600

 Total Charge           Charge          ....    0
 Multiplicity           Mult            ....    1
 Number of Electrons    NEL             ....  134
 Basis Dimension        Dim             ....  322

ORBITAL ENERGIES
----------------

  NO   OCC          E(Eh)            E(eV)
   0   2.0000     -88.964597     -2420.8498
   1   2.0000     -88.962262     -2420.7862
   2   2.0000     -10.327453      -281.0243
   3   2.0000     -10.318604      -280.7835
   4   2.0000     -10.317696      -280.7588
   5   2.0000     -10.312508      -280.6176
   6   2.0000     -10.307700      -280.4868
   7   2.0000     -10.304159      -280.3904
   8   2.0000     -10.302426      -280.3433
   9   2.0000     -10.298365      -280.2328
  10   2.0000     -10.296181      -280.1733
  11   2.0000     -10.288756      -279.9713
  12   2.0000     -10.288409      -279.9618
  13   2.0000     -10.283608      -279.8312
  14   2.0000     -10.283245      -279.8213
  15   2.0000     -10.279641      -279.7232
  16   2.0000      -8.079643      -219.8583
  17   2.0000      -8.078905      -219.8382
  18   2.0000      -6.037807      -164.2971
  19   2.0000      -6.037333      -164.2842
  20   2.0000      -6.033581      -164.1821
  21   2.0000      -6.033457      -164.1787
  22   2.0000      -6.030756      -164.1052
  23   2.0000      -6.029787      -164.0789
  24   2.0000      -1.025037       -27.8927
  25   2.0000      -0.988689       -26.9036
  26   2.0000      -0.913670       -24.8622
  27   2.0000      -0.901387       -24.5280
  28   2.0000      -0.868316       -23.6281
  29   2.0000      -0.858252       -23.3542
  30   2.0000      -0.842093       -22.9145
  31   2.0000      -0.815046       -22.1785
  32   2.0000      -0.782418       -21.2907
  33   2.0000      -0.772078       -21.0093
  34   2.0000      -0.711071       -19.3492
  35   2.0000      -0.705968       -19.2104
  36   2.0000      -0.697257       -18.9733
  37   2.0000      -0.660829       -17.9821
  38   2.0000      -0.640784       -17.4366
  39   2.0000      -0.623222       -16.9587
  40   2.0000      -0.607075       -16.5193
  41   2.0000      -0.571479       -15.5507
  42   2.0000      -0.564674       -15.3656
  43   2.0000      -0.550401       -14.9772
  44   2.0000      -0.537902       -14.6370
  45   2.0000      -0.526872       -14.3369
  46   2.0000      -0.520716       -14.1694
  47   2.0000      -0.508869       -13.8470
  48   2.0000      -0.501887       -13.6570
  49   2.0000      -0.501127       -13.6364
  50   2.0000      -0.491561       -13.3761
  51   2.0000      -0.486309       -13.2331
  52   2.0000      -0.476698       -12.9716
  53   2.0000      -0.468502       -12.7486
  54   2.0000      -0.460489       -12.5306
  55   2.0000      -0.449654       -12.2357
  56   2.0000      -0.440175       -11.9778
  57   2.0000      -0.436282       -11.8718
  58   2.0000      -0.434860       -11.8331
  59   2.0000      -0.426891       -11.6163
  60   2.0000      -0.420649       -11.4464
  61   2.0000      -0.418142       -11.3782
  62   2.0000      -0.407722       -11.0947
  63   2.0000      -0.353972        -9.6321
  64   2.0000      -0.333179        -9.0663
  65   2.0000      -0.330398        -8.9906
  66   2.0000      -0.285557        -7.7704
  67   0.0000       0.024394         0.6638
  68   0.0000       0.077763         2.1160
  69   0.0000       0.108353         2.9484
  70   0.0000       0.122941         3.3454
  71   0.0000       0.123435         3.3588

MULLIKEN ATOMIC CHARGES
-----------------------
   0 S :    0.111957
   1 C :   -0.117952
   2 C :   -0.106796
   3 C :   -0.010933
   4 C :   -0.147950
   5 H :    0.023667
   6 C :    0.052672
   7 H :    0.054455
   8 H :    0.034649
   9 C :   -0.100889
  10 H :    0.036698
  11 H :    0.046162
  12 C :   -0.067366
  13 H :    0.040942
  14 H :    0.027546
  15 H :    0.037274
  16 S :    0.087037
  17 C :   -0.068195
  18 C :   -0.018714
  19 C :   -0.047367
  20 C :   -0.121087
  21 H :    0.015854
  22 C :    0.088646
  23 H :    0.034494
  24 H :   -0.006192
  25 C :   -0.048091
  26 H :    0.027031
  27 H :    0.027321
  28 C :   -0.058694
  29 H :    0.036556
  30 H :    0.041257
  31 H :    0.025255
  32 H :    0.037869
  33 H :    0.032885
Sum of atomic charges:    0.0000000

LOEWDIN ATOMIC CHARGES
----------------------
   0 S :    0.470614
   1 C :   -0.212669
   2 C :   -0.068318
   3 C :   -0.088425
   4 C :   -0.232775
   5 H :    0.034973
   6 C :   -0.029644
   7 H :    0.042407
   8 H :    0.031871
   9 C :   -0.041409
  10 H :    0.020673
  11 H :    0.032800
  12 C :   -0.073637
  13 H :    0.032502
  14 H :    0.020232
  15 H :    0.021118
  16 S :    0.387894
  17 C :   -0.155393
  18 C :   -0.064029
  19 C :   -0.056659
  20 C :   -0.191017
  21 H :    0.029301
  22 C :   -0.026253
  23 H :    0.036594
  24 H :    0.023076
  25 C :   -0.038626
  26 H :    0.019912
  27 H :    0.023465
  28 C :   -0.064639
  29 H :    0.026625
  30 H :    0.033800
  31 H :    0.020547
  32 H :    0.025863
  33 H :    0.009228

  Mayer bond orders larger than 0.100000
B(  0-S ,  1-C ) :   1.1670 B(  0-S ,  4-C ) :   1.2052 B(  1-C ,  2-C ) :   1.5457
B(  1-C ,  4-C ) :   0.1105 B(  1-C , 32-H ) :   0.9782 B(  2-C ,  3-C ) :   1.3301
B(  2-C ,  6-C ) :   1.0095 B(  3-C ,  4-C ) :   1.5034 B(  3-C ,  5-H ) :   0.9761
B(  4-C , 20-C ) :   1.0341 B(  6-C ,  7-H ) :   0.9480 B(  6-C ,  8-H ) :   0.9463
B(  6-C ,  9-C ) :   1.0291 B(  9-C , 10-H ) :   0.9621 B(  9-C , 11-H ) :   0.9654
B(  9-C , 12-C ) :   1.0626 B( 12-C , 13-H ) :   0.9760 B( 12-C , 14-H ) :   0.9794
B( 12-C , 15-H ) :   0.9790 B( 16-S , 17-C ) :   1.1515 B( 16-S , 20-C ) :   1.1567
B( 17-C , 18-C ) :   1.5614 B( 17-C , 20-C ) :   0.1162 B( 17-C , 33-H ) :   0.9883
B( 18-C , 19-C ) :   1.2592 B( 18-C , 21-H ) :   0.9945 B( 19-C , 20-C ) :   1.5689
B( 19-C , 22-C ) :   1.0492 B( 22-C , 23-H ) :   0.9174 B( 22-C , 24-H ) :   0.9371
B( 22-C , 25-C ) :   1.0349 B( 25-C , 26-H ) :   0.9680 B( 25-C , 27-H ) :   0.9484
B( 25-C , 28-C ) :   1.0941 B( 28-C , 29-H ) :   0.9706 B( 28-C , 30-H ) :   0.9709
B( 28-C , 31-H ) :   0.9781

Dispersion correction           -0.013899649
FINAL SINGLE POINT ENERGY     -1339.862047397300

DIPOLE MOMENT
-------------
                                X             Y             Z
Electronic contribution:     32.37757       8.04232      -0.63962
Nuclear contribution   :    -32.99171      -8.39133       0.66346
                        -----------------------------------------
Total Dipole Moment    :     -0.61414      -0.34901       0.02384
                        -----------------------------------------
Magnitude (a.u.)       :      0.70678
Magnitude (Debye)      :      1.79650

Rotational constants in cm-1:     0.016898     0.009716     0.006399
Rotational constants in MHz :   506.579936   291.288534   191.851028

                             ****ORCA TERMINATED NORMALLY****
TOTAL RUN TIME: 0 days 0 hours 0 minutes 28 seconds 912 msec
