                         Program Version 4.2.1 -  RELEASE  -
|  1> ! wB97X-D3 SP def2-SVP
|  2> %pal
|  3> nprocs 16
|  4> end
|  5>
|  6> * xyz 0 1
|  7> S 	 -109.16 	 39.335 	 128.063
|  8> C 	 -107.656 	 38.8134 	 128.742
|  9> C 	 -106.628 	 38.8592 	 127.826
| 10> C 	 -107.079 	 39.3445 	 126.591
| 11> C 	 -108.465 	 39.7061 	 126.536
| 12> H 	 -106.445 	 39.5259 	 125.714
| 13> C 	 -105.297 	 38.2578 	 128.032
| 14> H 	 -105.235 	 37.3587 	 127.539
| 15> H 	 -105.189 	 37.9384 	 129.06
| 16> C 	 -104.15 	 39.3142 	 127.693
| 17> H 	 -103.2 	 38.8623 	 127.787
| 18> H 	 -104.189 	 39.8633 	 126.723
| 19> C 	 -104.04 	 40.3736 	 128.678
| 20> H 	 -104.956 	 40.9671 	 128.837
| 21> H 	 -103.832 	 39.8349 	 129.658
| 22> H 	 -103.264 	 41.0764 	 128.411
| 23> S 	 -108.207 	 41.7329 	 124.777
| 24> C 	 -109.443 	 42.021 	 123.53
| 25> C 	 -110.431 	 41.1398 	 123.7
| 26> C 	 -110.274 	 40.1591 	 124.714
| 27> C 	 -109.078 	 40.3303 	 125.398
| 28> H 	 -111.322 	 41.1067 	 123.109
| 29> C 	 -111.35 	 39.1405 	 125.002
| 30> H 	 -112.242 	 39.6675 	 125.266
| 31> H 	 -111.108 	 38.6213 	 125.884
| 32> C 	 -111.658 	 38.1398 	 123.918
| 33> H 	 -110.745 	 37.6206 	 123.563
| 34> H 	 -111.993 	 38.6084 	 123.007
| 35> C 	 -112.606 	 37.0372 	 124.467
| 36> H 	 -112.399 	 36.7449 	 125.509
| 37> H 	 -112.63 	 36.1711 	 123.788
| 38> H 	 -113.635 	 37.3465 	 124.524
| 39> H 	 -107.654 	 38.4466 	 129.737
| 40> H 	 -109.521 	 42.8558 	 122.888
| 41> *
| 42>
| 43>                          ****END OF INPUT****

CARTESIAN COORDINATES (ANGSTROEM)
---------------------------------
  S    -109.160000   39.335000  128.063000
  C    -107.656000   38.813400  128.742000
  C    -106.628000   38.859200  127.826000
  C    -107.079000   39.344500  126.591000
  C    -108.465000   39.706100  126.536000
  H    -106.445000   39.525900  125.714000
  C    -105.297000   38.257800  128.032000
  H    -105.235000   37.358700  127.539000
  H    -105.189000   37.938400  129.060000
  C    -104.150000   39.314200  127.693000
  H    -103.200000   38.862300  127.787000
  H    -104.189000   39.863300  126.723000
  C    -104.040000   40.373600  128.678000
  H    -104.956000   40.967100  128.837000
  H    -103.832000   39.834900  129.658000
  H    -103.264000   41.076400  128.411000
  S    -108.207000   41.732900  124.777000
  C    -109.443000   42.021000  123.530000
  C    -110.431000   41.139800  123.700000
  C    -110.274000   40.159100  124.714000
  C    -109.078000   40.330300  125.398000
  H    -111.322000   41.106700  123.109000
  C    -111.350000   39.140500  125.002000
  H    -112.242000   39.667500  125.266000
  H    -111.108000   38.621300  125.884000
  C    -111.658000   38.139800  123.918000
  H    -110.745000   37.620600  123.563000
  H    -111.993000   38.608400  123.007000
  C    -112.606000   37.037200  124.467000
  H    -112.399000   36.744900  125.509000
  H    -112.630000   36.171100  123.788000
  H    -113.635000   37.346500  124.524000
  H    -107.654000   38.446600  129.737000
  H    -109.521000   42.855800  122.888000

 Total Charge           Charge          ....    0
 Multiplicity           Mult            ....    1
 Number of Electrons    NEL             ....  134
 Basis Dimension        Dim             ....  322

ORBITAL ENERGIES
----------------

  NO   OCC          E(Eh)            E(eV)
   0   2.0000     -88.968556     -2420.9575
   1   2.0000     -88.962193     -2420.7843
   2   2.0000     -10.328917      -281.0641
   3   2.0000     -10.326901      -281.0093
   4   2.0000     -10.312304      -280.6120
   5   2.0000     -10.309937      -280.5477
   6   2.0000     -10.298472      -280.2357
   7   2.0000     -10.296634      -280.1857
   8   2.0000     -10.292803      -280.0814
   9   2.0000     -10.288051      -279.9521
  10   2.0000     -10.286089      -279.8987
  11   2.0000     -10.285411      -279.8803
  12   2.0000     -10.282625      -279.8044
  13   2.0000     -10.281658      -279.7781
  14   2.0000     -10.279059      -279.7074
  15   2.0000     -10.271125      -279.4915
  16   2.0000      -8.083576      -219.9653
  17   2.0000      -8.076389      -219.7697
  18   2.0000      -6.041906      -164.4086
  19   2.0000      -6.037838      -164.2979
  20   2.0000      -6.035049      -164.2220
  21   2.0000      -6.034743      -164.2137
  22   2.0000      -6.030998      -164.1118
  23   2.0000      -6.026961      -164.0020
  24   2.0000      -1.009330       -27.4653
  25   2.0000      -0.987846       -26.8806
  26   2.0000      -0.919830       -25.0298
  27   2.0000      -0.911957       -24.8156
  28   2.0000      -0.877529       -23.8788
  29   2.0000      -0.857164       -23.3246
  30   2.0000      -0.845508       -23.0075
  31   2.0000      -0.813018       -22.1233
  32   2.0000      -0.785736       -21.3810
  33   2.0000      -0.772901       -21.0317
  34   2.0000      -0.711247       -19.3540
  35   2.0000      -0.704965       -19.1831
  36   2.0000      -0.688157       -18.7257
  37   2.0000      -0.668610       -18.1938
  38   2.0000      -0.639789       -17.4095
  39   2.0000      -0.620330       -16.8800
  40   2.0000      -0.604993       -16.4627
  41   2.0000      -0.572427       -15.5765
  42   2.0000      -0.563416       -15.3313
  43   2.0000      -0.561343       -15.2749
  44   2.0000      -0.543613       -14.7925
  45   2.0000      -0.528203       -14.3731
  46   2.0000      -0.519698       -14.1417
  47   2.0000      -0.516707       -14.0603
  48   2.0000      -0.510300       -13.8860
  49   2.0000      -0.494799       -13.4642
  50   2.0000      -0.491043       -13.3620
  51   2.0000      -0.474082       -12.9004
  52   2.0000      -0.472826       -12.8662
  53   2.0000      -0.464319       -12.6348
  54   2.0000      -0.460350       -12.5268
  55   2.0000      -0.449972       -12.2443
  56   2.0000      -0.446598       -12.1526
  57   2.0000      -0.443652       -12.0724
  58   2.0000      -0.434226       -11.8159
  59   2.0000      -0.420356       -11.4385
  60   2.0000      -0.417819       -11.3694
  61   2.0000      -0.412511       -11.2250
  62   2.0000      -0.410113       -11.1597
  63   2.0000      -0.350182        -9.5289
  64   2.0000      -0.332469        -9.0470
  65   2.0000      -0.328715        -8.9448
  66   2.0000      -0.289458        -7.8766
  67   0.0000       0.028417         0.7733
  68   0.0000       0.075271         2.0482
  69   0.0000       0.109413         2.9773
  70   0.0000       0.123201         3.3525
  71   0.0000       0.138955         3.7812

MULLIKEN ATOMIC CHARGES
-----------------------
   0 S :    0.125471
   1 C :   -0.137432
   2 C :   -0.055630
   3 C :   -0.015541
   4 C :   -0.147089
   5 H :    0.021412
   6 C :    0.129447
   7 H :    0.024639
   8 H :    0.000464
   9 C :   -0.069292
  10 H :    0.015998
  11 H :    0.038765
  12 C :   -0.072875
  13 H :    0.039105
  14 H :    0.021085
  15 H :    0.035862
  16 S :    0.089681
  17 C :   -0.058121
  18 C :   -0.017453
  19 C :   -0.043885
  20 C :   -0.160798
  21 H :    0.003948
  22 C :    0.120050
  23 H :    0.023024
  24 H :   -0.015294
  25 C :   -0.074919
  26 H :    0.032619
  27 H :    0.022118
  28 C :   -0.050044
  29 H :    0.033794
  30 H :    0.037878
  31 H :    0.020826
  32 H :    0.038784
  33 H :    0.043407
Sum of atomic charges:    0.0000000

LOEWDIN ATOMIC CHARGES
----------------------
   0 S :    0.437710
   1 C :   -0.198398
   2 C :   -0.066633
   3 C :   -0.066296
   4 C :   -0.214890
   5 H :    0.028730
   6 C :   -0.015302
   7 H :    0.024870
   8 H :    0.029836
   9 C :   -0.042975
  10 H :    0.019814
  11 H :    0.029076
  12 C :   -0.067503
  13 H :    0.023442
  14 H :    0.025796
  15 H :    0.025600
  16 S :    0.391297
  17 C :   -0.169655
  18 C :   -0.066447
  19 C :   -0.056967
  20 C :   -0.185283
  21 H :    0.026289
  22 C :   -0.029202
  23 H :    0.031808
  24 H :    0.016778
  25 C :   -0.038246
  26 H :    0.029327
  27 H :    0.019304
  28 C :   -0.066521
  29 H :    0.028693
  30 H :    0.028982
  31 H :    0.020863
  32 H :    0.019755
  33 H :    0.026346

  Mayer bond orders larger than 0.100000
B(  0-S ,  1-C ) :   1.1673 B(  0-S ,  4-C ) :   1.1722 B(  1-C ,  2-C ) :   1.5381
B(  1-C ,  4-C ) :   0.1031 B(  1-C , 32-H ) :   0.9758 B(  2-C ,  3-C ) :   1.2892
B(  2-C ,  6-C ) :   1.0301 B(  3-C ,  4-C ) :   1.4933 B(  3-C ,  5-H ) :   0.9911
B(  4-C , 20-C ) :   1.0692 B(  6-C ,  7-H ) :   0.9382 B(  6-C ,  8-H ) :   0.9346
B(  6-C ,  9-C ) :   1.0559 B(  9-C , 10-H ) :   0.9558 B(  9-C , 11-H ) :   0.9608
B(  9-C , 12-C ) :   1.0773 B( 12-C , 13-H ) :   0.9730 B( 12-C , 14-H ) :   0.9731
B( 12-C , 15-H ) :   0.9710 B( 16-S , 17-C ) :   1.1224 B( 16-S , 20-C ) :   1.1364
B( 17-C , 18-C ) :   1.6254 B( 17-C , 33-H ) :   0.9728 B( 18-C , 19-C ) :   1.2421
B( 18-C , 21-H ) :   0.9875 B( 19-C , 20-C ) :   1.5905 B( 19-C , 22-C ) :   1.0492
B( 22-C , 23-H ) :   0.9277 B( 22-C , 24-H ) :   0.9217 B( 22-C , 25-C ) :   1.0661
B( 25-C , 26-H ) :   0.9562 B( 25-C , 27-H ) :   0.9542 B( 25-C , 28-C ) :   1.0762
B( 28-C , 29-H ) :   0.9748 B( 28-C , 30-H ) :   0.9763 B( 28-C , 31-H ) :   0.9746

Dispersion correction           -0.013922592
FINAL SINGLE POINT ENERGY     -1339.876360107637

DIPOLE MOMENT
-------------
                                X             Y             Z
Electronic contribution:     -3.16758      11.22324      -0.18557
Nuclear contribution   :      3.11444     -11.51928       0.11306
                        -----------------------------------------
Total Dipole Moment    :     -0.05314      -0.29604      -0.07251
                        -----------------------------------------
Magnitude (a.u.)       :      0.30939
Magnitude (Debye)      :      0.78641

Rotational constants in cm-1:     0.021350     0.008026     0.006497
Rotational constants in MHz :   640.057193   240.616960   194.778016

                             ****ORCA TERMINATED NORMALLY****
TOTAL RUN TIME: 0 days 0 hours 0 minutes 33 seconds 476 msec
