                         Program Version 4.2.1 -  RELEASE  -
|  1> ! wB97X-D3 SP def2-SVP
|  2> %pal
|  3> nprocs 16
|  4> end
|  5>
|  6> * xyz 0 1
|  7> S 	 -110.489 	 54.9757 	 115.282
|  8> C 	 -110.528 	 54.788 	 113.508
|  9> C 	 -109.257 	 54.586 	 113.032
| 10> C 	 -108.275 	 54.8819 	 114.028
| 11> C 	 -108.748 	 55.0164 	 115.267
| 12> H 	 -107.274 	 54.8337 	 113.871
| 13> C 	 -108.915 	 54.4603 	 111.527
| 14> H 	 -108.434 	 55.3345 	 111.113
| 15> H 	 -109.793 	 54.4707 	 110.899
| 16> C 	 -108.154 	 53.251 	 111.093
| 17> H 	 -108.172 	 53.0588 	 110.016
| 18> H 	 -107.08 	 53.3454 	 111.293
| 19> C 	 -108.514 	 51.9307 	 111.898
| 20> H 	 -108.347 	 52.2118 	 112.904
| 21> H 	 -109.577 	 51.6853 	 111.792
| 22> H 	 -107.911 	 51.0561 	 111.671
| 23> S 	 -108.508 	 56.9213 	 117.274
| 24> C 	 -107.305 	 56.6728 	 118.54
| 25> C 	 -106.568 	 55.5367 	 118.338
| 26> C 	 -106.845 	 54.9328 	 117.074
| 27> C 	 -107.991 	 55.4692 	 116.442
| 28> H 	 -105.764 	 55.2573 	 119.01
| 29> C 	 -106.131 	 53.6758 	 116.593
| 30> H 	 -105.066 	 53.761 	 116.733
| 31> H 	 -106.135 	 53.726 	 115.549
| 32> C 	 -106.497 	 52.2804 	 117.133
| 33> H 	 -106.31 	 52.3508 	 118.259
| 34> H 	 -105.831 	 51.4616 	 116.731
| 35> C 	 -107.905 	 51.7515 	 116.648
| 36> H 	 -107.932 	 51.6434 	 115.554
| 37> H 	 -108.818 	 52.2782 	 116.926
| 38> H 	 -108.079 	 50.7969 	 117.167
| 39> H 	 -111.442 	 54.9053 	 112.978
| 40> H 	 -107.303 	 57.2154 	 119.47
| 41> *
| 42>
| 43>                          ****END OF INPUT****

CARTESIAN COORDINATES (ANGSTROEM)
---------------------------------
  S    -110.489000   54.975700  115.282000
  C    -110.528000   54.788000  113.508000
  C    -109.257000   54.586000  113.032000
  C    -108.275000   54.881900  114.028000
  C    -108.748000   55.016400  115.267000
  H    -107.274000   54.833700  113.871000
  C    -108.915000   54.460300  111.527000
  H    -108.434000   55.334500  111.113000
  H    -109.793000   54.470700  110.899000
  C    -108.154000   53.251000  111.093000
  H    -108.172000   53.058800  110.016000
  H    -107.080000   53.345400  111.293000
  C    -108.514000   51.930700  111.898000
  H    -108.347000   52.211800  112.904000
  H    -109.577000   51.685300  111.792000
  H    -107.911000   51.056100  111.671000
  S    -108.508000   56.921300  117.274000
  C    -107.305000   56.672800  118.540000
  C    -106.568000   55.536700  118.338000
  C    -106.845000   54.932800  117.074000
  C    -107.991000   55.469200  116.442000
  H    -105.764000   55.257300  119.010000
  C    -106.131000   53.675800  116.593000
  H    -105.066000   53.761000  116.733000
  H    -106.135000   53.726000  115.549000
  C    -106.497000   52.280400  117.133000
  H    -106.310000   52.350800  118.259000
  H    -105.831000   51.461600  116.731000
  C    -107.905000   51.751500  116.648000
  H    -107.932000   51.643400  115.554000
  H    -108.818000   52.278200  116.926000
  H    -108.079000   50.796900  117.167000
  H    -111.442000   54.905300  112.978000
  H    -107.303000   57.215400  119.470000

 Total Charge           Charge          ....    0
 Multiplicity           Mult            ....    1
 Number of Electrons    NEL             ....  134
 Basis Dimension        Dim             ....  322

ORBITAL ENERGIES
----------------

  NO   OCC          E(Eh)            E(eV)
   0   2.0000     -88.967201     -2420.9206
   1   2.0000     -88.964762     -2420.8542
   2   2.0000     -10.330549      -281.1085
   3   2.0000     -10.326951      -281.0106
   4   2.0000     -10.317780      -280.7611
   5   2.0000     -10.316195      -280.7179
   6   2.0000     -10.307232      -280.4740
   7   2.0000     -10.306762      -280.4612
   8   2.0000     -10.300060      -280.2789
   9   2.0000     -10.294432      -280.1257
  10   2.0000     -10.291738      -280.0524
  11   2.0000     -10.286517      -279.9104
  12   2.0000     -10.284480      -279.8549
  13   2.0000     -10.283735      -279.8347
  14   2.0000     -10.275751      -279.6174
  15   2.0000     -10.272635      -279.5326
  16   2.0000      -8.081590      -219.9112
  17   2.0000      -8.079486      -219.8540
  18   2.0000      -6.040120      -164.3600
  19   2.0000      -6.038049      -164.3037
  20   2.0000      -6.036042      -164.2491
  21   2.0000      -6.034068      -164.1954
  22   2.0000      -6.032443      -164.1511
  23   2.0000      -6.030112      -164.0877
  24   2.0000      -1.009578       -27.4720
  25   2.0000      -0.984963       -26.8022
  26   2.0000      -0.912151       -24.8209
  27   2.0000      -0.900706       -24.5095
  28   2.0000      -0.870155       -23.6781
  29   2.0000      -0.847199       -23.0535
  30   2.0000      -0.839530       -22.8448
  31   2.0000      -0.817957       -22.2577
  32   2.0000      -0.787922       -21.4404
  33   2.0000      -0.776018       -21.1165
  34   2.0000      -0.706563       -19.2266
  35   2.0000      -0.695718       -18.9315
  36   2.0000      -0.693240       -18.8640
  37   2.0000      -0.658153       -17.9092
  38   2.0000      -0.650845       -17.7104
  39   2.0000      -0.629309       -17.1244
  40   2.0000      -0.596270       -16.2253
  41   2.0000      -0.568367       -15.4661
  42   2.0000      -0.554418       -15.0865
  43   2.0000      -0.548451       -14.9241
  44   2.0000      -0.541403       -14.7323
  45   2.0000      -0.537477       -14.6255
  46   2.0000      -0.518920       -14.1205
  47   2.0000      -0.509042       -13.8517
  48   2.0000      -0.500989       -13.6326
  49   2.0000      -0.499821       -13.6008
  50   2.0000      -0.491652       -13.3785
  51   2.0000      -0.472388       -12.8543
  52   2.0000      -0.468852       -12.7581
  53   2.0000      -0.464896       -12.6505
  54   2.0000      -0.461578       -12.5602
  55   2.0000      -0.450388       -12.2557
  56   2.0000      -0.442823       -12.0498
  57   2.0000      -0.438020       -11.9191
  58   2.0000      -0.429437       -11.6856
  59   2.0000      -0.420669       -11.4470
  60   2.0000      -0.414329       -11.2745
  61   2.0000      -0.412405       -11.2221
  62   2.0000      -0.405191       -11.0258
  63   2.0000      -0.348202        -9.4751
  64   2.0000      -0.334628        -9.1057
  65   2.0000      -0.331317        -9.0156
  66   2.0000      -0.296984        -8.0813
  67   0.0000       0.026926         0.7327
  68   0.0000       0.071216         1.9379
  69   0.0000       0.111993         3.0475
  70   0.0000       0.117495         3.1972
  71   0.0000       0.126752         3.4491

MULLIKEN ATOMIC CHARGES
-----------------------
   0 S :    0.092973
   1 C :   -0.134537
   2 C :   -0.066829
   3 C :    0.069143
   4 C :   -0.131310
   5 H :   -0.022901
   6 C :    0.106199
   7 H :    0.033097
   8 H :    0.007324
   9 C :   -0.122241
  10 H :    0.033509
  11 H :    0.022153
  12 C :   -0.048706
  13 H :    0.033556
  14 H :    0.030737
  15 H :    0.036233
  16 S :    0.111988
  17 C :   -0.093233
  18 C :   -0.025514
  19 C :   -0.051313
  20 C :   -0.150127
  21 H :    0.025346
  22 C :    0.115443
  23 H :    0.008883
  24 H :   -0.021745
  25 C :   -0.089854
  26 H :    0.040023
  27 H :    0.042550
  28 C :   -0.068206
  29 H :    0.044614
  30 H :    0.034703
  31 H :    0.029449
  32 H :    0.049884
  33 H :    0.058709
Sum of atomic charges:   -0.0000000

LOEWDIN ATOMIC CHARGES
----------------------
   0 S :    0.386549
   1 C :   -0.167938
   2 C :   -0.056865
   3 C :   -0.050320
   4 C :   -0.186169
   5 H :    0.013952
   6 C :   -0.033890
   7 H :    0.035273
   8 H :    0.029926
   9 C :   -0.046396
  10 H :    0.024548
  11 H :    0.019395
  12 C :   -0.061830
  13 H :    0.017868
  14 H :    0.023892
  15 H :    0.025010
  16 S :    0.404658
  17 C :   -0.180974
  18 C :   -0.067867
  19 C :   -0.052796
  20 C :   -0.195392
  21 H :    0.035133
  22 C :   -0.041825
  23 H :    0.031314
  24 H :    0.017502
  25 C :   -0.041141
  26 H :    0.029887
  27 H :    0.034215
  28 C :   -0.076039
  29 H :    0.027969
  30 H :    0.022648
  31 H :    0.027828
  32 H :    0.023539
  33 H :    0.028338

  Mayer bond orders larger than 0.100000
B(  0-S ,  1-C ) :   1.1337 B(  0-S ,  4-C ) :   1.1295 B(  1-C ,  2-C ) :   1.6168
B(  1-C , 32-H ) :   0.9759 B(  2-C ,  3-C ) :   1.2009 B(  2-C ,  6-C ) :   1.0223
B(  3-C ,  4-C ) :   1.6209 B(  3-C ,  5-H ) :   1.0045 B(  4-C , 20-C ) :   1.0265
B(  6-C ,  7-H ) :   0.9434 B(  6-C ,  8-H ) :   0.9382 B(  6-C ,  9-C ) :   1.0665
B(  9-C , 10-H ) :   0.9598 B(  9-C , 11-H ) :   0.9571 B(  9-C , 12-C ) :   1.0735
B( 12-C , 13-H ) :   0.9672 B( 12-C , 14-H ) :   0.9775 B( 12-C , 15-H ) :   0.9763
B( 16-S , 17-C ) :   1.1488 B( 16-S , 20-C ) :   1.1534 B( 17-C , 18-C ) :   1.6156
B( 17-C , 33-H ) :   0.9647 B( 18-C , 19-C ) :   1.2498 B( 18-C , 21-H ) :   0.9875
B( 19-C , 20-C ) :   1.5719 B( 19-C , 22-C ) :   1.0500 B( 22-C , 23-H ) :   0.9209
B( 22-C , 24-H ) :   0.9215 B( 22-C , 25-C ) :   1.0722 B( 25-C , 26-H ) :   0.9558
B( 25-C , 27-H ) :   0.9517 B( 25-C , 28-C ) :   1.0642 B( 28-C , 29-H ) :   0.9744
B( 28-C , 30-H ) :   0.9761 B( 28-C , 31-H ) :   0.9725

Dispersion correction           -0.016006512
FINAL SINGLE POINT ENERGY     -1339.867248677255

DIPOLE MOMENT
-------------
                                X             Y             Z
Electronic contribution:     -9.97997      21.87097      13.22390
Nuclear contribution   :     10.36670     -22.09356     -13.50516
                        -----------------------------------------
Total Dipole Moment    :      0.38673      -0.22259      -0.28126
                        -----------------------------------------
Magnitude (a.u.)       :      0.52746
Magnitude (Debye)      :      1.34070

Rotational constants in cm-1:     0.020204     0.009644     0.007721
Rotational constants in MHz :   605.689346   289.131608   231.460798

                             ****ORCA TERMINATED NORMALLY****
TOTAL RUN TIME: 0 days 0 hours 0 minutes 35 seconds 655 msec
