                         Program Version 4.2.1 -  RELEASE  -
|  1> ! wB97X-D3 SP def2-SVP
|  2> %pal
|  3> nprocs 16
|  4> end
|  5>
|  6> * xyz 0 1
|  7> S 	 -55.8923 	 38.9574 	 114.217
|  8> C 	 -55.5786 	 39.4382 	 112.579
|  9> C 	 -54.3375 	 38.9335 	 112.133
| 10> C 	 -53.6245 	 38.2742 	 113.143
| 11> C 	 -54.3081 	 38.1358 	 114.32
| 12> H 	 -52.5759 	 37.9392 	 112.955
| 13> C 	 -53.8347 	 39.0956 	 110.712
| 14> H 	 -54.6554 	 39.1492 	 110.038
| 15> H 	 -53.1461 	 38.3451 	 110.315
| 16> C 	 -53.1626 	 40.4611 	 110.507
| 17> H 	 -53.7186 	 41.3158 	 110.967
| 18> H 	 -52.1946 	 40.52 	 111.082
| 19> C 	 -52.9845 	 40.8842 	 109.045
| 20> H 	 -52.3387 	 40.1928 	 108.553
| 21> H 	 -53.9847 	 40.8422 	 108.566
| 22> H 	 -52.5394 	 41.8717 	 108.884
| 23> S 	 -54.0248 	 38.0964 	 117.104
| 24> C 	 -53.493 	 36.5885 	 117.836
| 25> C 	 -53.2555 	 35.6104 	 116.915
| 26> C 	 -53.5356 	 35.9963 	 115.559
| 27> C 	 -53.9567 	 37.3175 	 115.525
| 28> H 	 -52.894 	 34.7088 	 117.41
| 29> C 	 -53.2794 	 35.1551 	 114.318
| 30> H 	 -52.2122 	 35.0451 	 114.119
| 31> H 	 -53.595 	 35.6404 	 113.385
| 32> C 	 -53.7752 	 33.6205 	 114.423
| 33> H 	 -53.1938 	 33.0854 	 115.219
| 34> H 	 -53.5539 	 33.0725 	 113.509
| 35> C 	 -55.3215 	 33.4385 	 114.572
| 36> H 	 -55.5904 	 33.9563 	 115.516
| 37> H 	 -55.5561 	 32.3811 	 114.694
| 38> H 	 -55.8062 	 33.9386 	 113.756
| 39> H 	 -56.3072 	 39.9495 	 111.984
| 40> H 	 -53.2931 	 36.3016 	 118.87
| 41> *
| 42>
| 43>                          ****END OF INPUT****

CARTESIAN COORDINATES (ANGSTROEM)
---------------------------------
  S    -55.892300   38.957400  114.217000
  C    -55.578600   39.438200  112.579000
  C    -54.337500   38.933500  112.133000
  C    -53.624500   38.274200  113.143000
  C    -54.308100   38.135800  114.320000
  H    -52.575900   37.939200  112.955000
  C    -53.834700   39.095600  110.712000
  H    -54.655400   39.149200  110.038000
  H    -53.146100   38.345100  110.315000
  C    -53.162600   40.461100  110.507000
  H    -53.718600   41.315800  110.967000
  H    -52.194600   40.520000  111.082000
  C    -52.984500   40.884200  109.045000
  H    -52.338700   40.192800  108.553000
  H    -53.984700   40.842200  108.566000
  H    -52.539400   41.871700  108.884000
  S    -54.024800   38.096400  117.104000
  C    -53.493000   36.588500  117.836000
  C    -53.255500   35.610400  116.915000
  C    -53.535600   35.996300  115.559000
  C    -53.956700   37.317500  115.525000
  H    -52.894000   34.708800  117.410000
  C    -53.279400   35.155100  114.318000
  H    -52.212200   35.045100  114.119000
  H    -53.595000   35.640400  113.385000
  C    -53.775200   33.620500  114.423000
  H    -53.193800   33.085400  115.219000
  H    -53.553900   33.072500  113.509000
  C    -55.321500   33.438500  114.572000
  H    -55.590400   33.956300  115.516000
  H    -55.556100   32.381100  114.694000
  H    -55.806200   33.938600  113.756000
  H    -56.307200   39.949500  111.984000
  H    -53.293100   36.301600  118.870000

 Total Charge           Charge          ....    0
 Multiplicity           Mult            ....    1
 Number of Electrons    NEL             ....  134
 Basis Dimension        Dim             ....  322

ORBITAL ENERGIES
----------------

  NO   OCC          E(Eh)            E(eV)
   0   2.0000     -88.968485     -2420.9555
   1   2.0000     -88.968029     -2420.9432
   2   2.0000     -10.333397      -281.1860
   3   2.0000     -10.330350      -281.1031
   4   2.0000     -10.316319      -280.7213
   5   2.0000     -10.315391      -280.6961
   6   2.0000     -10.310046      -280.5506
   7   2.0000     -10.303380      -280.3692
   8   2.0000     -10.297512      -280.2095
   9   2.0000     -10.296697      -280.1874
  10   2.0000     -10.293524      -280.1010
  11   2.0000     -10.292848      -280.0826
  12   2.0000     -10.292785      -280.0809
  13   2.0000     -10.288545      -279.9655
  14   2.0000     -10.278409      -279.6897
  15   2.0000     -10.273536      -279.5571
  16   2.0000      -8.082754      -219.9429
  17   2.0000      -8.082370      -219.9325
  18   2.0000      -6.041382      -164.3944
  19   2.0000      -6.040813      -164.3789
  20   2.0000      -6.037426      -164.2867
  21   2.0000      -6.036863      -164.2714
  22   2.0000      -6.033311      -164.1747
  23   2.0000      -6.033291      -164.1742
  24   2.0000      -1.004028       -27.3210
  25   2.0000      -0.984272       -26.7834
  26   2.0000      -0.911435       -24.8014
  27   2.0000      -0.895270       -24.3615
  28   2.0000      -0.865664       -23.5559
  29   2.0000      -0.852211       -23.1898
  30   2.0000      -0.843480       -22.9523
  31   2.0000      -0.818228       -22.2651
  32   2.0000      -0.782405       -21.2903
  33   2.0000      -0.769298       -20.9337
  34   2.0000      -0.701987       -19.1020
  35   2.0000      -0.693717       -18.8770
  36   2.0000      -0.691036       -18.8041
  37   2.0000      -0.650156       -17.6916
  38   2.0000      -0.643273       -17.5043
  39   2.0000      -0.627675       -17.0799
  40   2.0000      -0.593246       -16.1431
  41   2.0000      -0.572732       -15.5848
  42   2.0000      -0.559051       -15.2125
  43   2.0000      -0.542345       -14.7580
  44   2.0000      -0.535593       -14.5742
  45   2.0000      -0.522441       -14.2163
  46   2.0000      -0.514713       -14.0060
  47   2.0000      -0.513535       -13.9740
  48   2.0000      -0.501847       -13.6560
  49   2.0000      -0.495610       -13.4862
  50   2.0000      -0.487725       -13.2717
  51   2.0000      -0.478930       -13.0324
  52   2.0000      -0.468575       -12.7506
  53   2.0000      -0.467364       -12.7176
  54   2.0000      -0.457834       -12.4583
  55   2.0000      -0.448156       -12.1949
  56   2.0000      -0.441032       -12.0011
  57   2.0000      -0.433575       -11.7982
  58   2.0000      -0.428461       -11.6590
  59   2.0000      -0.426782       -11.6133
  60   2.0000      -0.425158       -11.5691
  61   2.0000      -0.415128       -11.2962
  62   2.0000      -0.412236       -11.2175
  63   2.0000      -0.347177        -9.4472
  64   2.0000      -0.332894        -9.0585
  65   2.0000      -0.330711        -8.9991
  66   2.0000      -0.293095        -7.9755
  67   0.0000       0.031535         0.8581
  68   0.0000       0.067287         1.8310
  69   0.0000       0.109776         2.9872
  70   0.0000       0.119383         3.2486
  71   0.0000       0.133445         3.6312

MULLIKEN ATOMIC CHARGES
-----------------------
   0 S :    0.112990
   1 C :   -0.114179
   2 C :   -0.095350
   3 C :    0.020452
   4 C :   -0.140873
   5 H :    0.033018
   6 C :    0.100557
   7 H :    0.003293
   8 H :    0.030218
   9 C :   -0.130265
  10 H :    0.031818
  11 H :    0.027647
  12 C :   -0.034409
  13 H :    0.018890
  14 H :    0.031513
  15 H :    0.041068
  16 S :    0.116724
  17 C :   -0.089808
  18 C :   -0.062643
  19 C :    0.022290
  20 C :   -0.173093
  21 H :    0.021678
  22 C :    0.050530
  23 H :    0.038638
  24 H :    0.031026
  25 C :   -0.123678
  26 H :    0.036445
  27 H :    0.026677
  28 C :   -0.043483
  29 H :    0.038086
  30 H :    0.038928
  31 H :    0.038181
  32 H :    0.045723
  33 H :    0.051388
Sum of atomic charges:    0.0000000

LOEWDIN ATOMIC CHARGES
----------------------
   0 S :    0.404478
   1 C :   -0.196270
   2 C :   -0.060442
   3 C :   -0.069251
   4 C :   -0.182058
   5 H :    0.042570
   6 C :   -0.029304
   7 H :    0.025096
   8 H :    0.032698
   9 C :   -0.050730
  10 H :    0.025521
  11 H :    0.023145
  12 C :   -0.067534
  13 H :    0.016777
  14 H :    0.027123
  15 H :    0.029940
  16 S :    0.395073
  17 C :   -0.187236
  18 C :   -0.075388
  19 C :   -0.052183
  20 C :   -0.193779
  21 H :    0.036042
  22 C :   -0.034418
  23 H :    0.035611
  24 H :    0.031993
  25 C :   -0.043864
  26 H :    0.023221
  27 H :    0.020873
  28 C :   -0.065424
  29 H :    0.027705
  30 H :    0.026342
  31 H :    0.024348
  32 H :    0.023739
  33 H :    0.035587

  Mayer bond orders larger than 0.100000
B(  0-S ,  1-C ) :   1.1558 B(  0-S ,  4-C ) :   1.1614 B(  1-C ,  2-C ) :   1.5716
B(  1-C ,  4-C ) :   0.1067 B(  1-C , 32-H ) :   0.9720 B(  2-C ,  3-C ) :   1.2803
B(  2-C ,  6-C ) :   1.0338 B(  3-C ,  4-C ) :   1.5535 B(  3-C ,  5-H ) :   0.9883
B(  4-C , 20-C ) :   1.0095 B(  6-C ,  7-H ) :   0.9348 B(  6-C ,  8-H ) :   0.9453
B(  6-C ,  9-C ) :   1.0479 B(  9-C , 10-H ) :   0.9608 B(  9-C , 11-H ) :   0.9536
B(  9-C , 12-C ) :   1.0791 B( 12-C , 13-H ) :   0.9742 B( 12-C , 14-H ) :   0.9730
B( 12-C , 15-H ) :   0.9737 B( 16-S , 17-C ) :   1.1258 B( 16-S , 20-C ) :   1.1394
B( 17-C , 18-C ) :   1.6879 B( 17-C , 33-H ) :   0.9598 B( 18-C , 19-C ) :   1.1759
B( 18-C , 21-H ) :   0.9869 B( 19-C , 20-C ) :   1.6152 B( 19-C , 22-C ) :   1.0436
B( 22-C , 23-H ) :   0.9360 B( 22-C , 24-H ) :   0.9333 B( 22-C , 25-C ) :   1.0607
B( 25-C , 26-H ) :   0.9578 B( 25-C , 27-H ) :   0.9598 B( 25-C , 28-C ) :   1.0680
B( 28-C , 29-H ) :   0.9770 B( 28-C , 30-H ) :   0.9755 B( 28-C , 31-H ) :   0.9763

Dispersion correction           -0.014060422
FINAL SINGLE POINT ENERGY     -1339.884182503479

DIPOLE MOMENT
-------------
                                X             Y             Z
Electronic contribution:     -6.80145       8.36045      22.52313
Nuclear contribution   :      7.14979      -8.70012     -22.99384
                        -----------------------------------------
Total Dipole Moment    :      0.34834      -0.33967      -0.47072
                        -----------------------------------------
Magnitude (a.u.)       :      0.67697
Magnitude (Debye)      :      1.72072

Rotational constants in cm-1:     0.020699     0.007451     0.006431
Rotational constants in MHz :   620.544468   223.370749   192.799498

                             ****ORCA TERMINATED NORMALLY****
TOTAL RUN TIME: 0 days 0 hours 0 minutes 29 seconds 386 msec
