                         Program Version 4.2.1 -  RELEASE  -
|  1> ! wB97X-D3 SP def2-SVP
|  2> %pal
|  3> nprocs 16
|  4> end
|  5>
|  6> * xyz 0 1
|  7> S 	 -20.5016 	 -6.2998 	 95.6685
|  8> C 	 -22.0824 	 -6.34477 	 96.3914
|  9> C 	 -22.9865 	 -5.55029 	 95.6892
| 10> C 	 -22.4091 	 -4.96132 	 94.5113
| 11> C 	 -21.1393 	 -5.3806 	 94.2591
| 12> H 	 -22.894 	 -4.30551 	 93.7803
| 13> C 	 -24.5164 	 -5.44118 	 96.0102
| 14> H 	 -24.5985 	 -5.64768 	 97.0913
| 15> H 	 -25.1401 	 -6.18803 	 95.5314
| 16> C 	 -25.0528 	 -4.07207 	 95.6597
| 17> H 	 -25.0141 	 -3.98506 	 94.543
| 18> H 	 -26.0814 	 -3.89104 	 95.9185
| 19> C 	 -24.3514 	 -2.91327 	 96.353
| 20> H 	 -24.6179 	 -1.83149 	 95.9963
| 21> H 	 -24.6215 	 -2.87538 	 97.4299
| 22> H 	 -23.2483 	 -2.97916 	 96.3628
| 23> S 	 -18.484 	 -4.7923 	 93.5669
| 24> C 	 -18.0864 	 -4.16886 	 91.9692
| 25> C 	 -19.2479 	 -4.21747 	 91.1897
| 26> C 	 -20.4137 	 -4.62811 	 91.7942
| 27> C 	 -20.25 	 -4.87769 	 93.1512
| 28> H 	 -19.1925 	 -3.84776 	 90.1733
| 29> C 	 -21.652 	 -5.01493 	 91.0267
| 30> H 	 -22.4053 	 -5.55244 	 91.5893
| 31> H 	 -21.366 	 -5.77988 	 90.2606
| 32> C 	 -22.2781 	 -3.76224 	 90.3313
| 33> H 	 -21.5796 	 -3.34085 	 89.537
| 34> H 	 -22.3494 	 -2.93852 	 91.0632
| 35> C 	 -23.6502 	 -4.12602 	 89.7374
| 36> H 	 -23.6619 	 -4.92089 	 88.9914
| 37> H 	 -24.0461 	 -3.20721 	 89.2818
| 38> H 	 -24.2547 	 -4.46834 	 90.5866
| 39> H 	 -22.3132 	 -6.78664 	 97.3429
| 40> H 	 -17.1247 	 -3.68011 	 91.6672
| 41> *
| 42>
| 43>                          ****END OF INPUT****

CARTESIAN COORDINATES (ANGSTROEM)
---------------------------------
  S    -20.501600   -6.299800   95.668500
  C    -22.082400   -6.344770   96.391400
  C    -22.986500   -5.550290   95.689200
  C    -22.409100   -4.961320   94.511300
  C    -21.139300   -5.380600   94.259100
  H    -22.894000   -4.305510   93.780300
  C    -24.516400   -5.441180   96.010200
  H    -24.598500   -5.647680   97.091300
  H    -25.140100   -6.188030   95.531400
  C    -25.052800   -4.072070   95.659700
  H    -25.014100   -3.985060   94.543000
  H    -26.081400   -3.891040   95.918500
  C    -24.351400   -2.913270   96.353000
  H    -24.617900   -1.831490   95.996300
  H    -24.621500   -2.875380   97.429900
  H    -23.248300   -2.979160   96.362800
  S    -18.484000   -4.792300   93.566900
  C    -18.086400   -4.168860   91.969200
  C    -19.247900   -4.217470   91.189700
  C    -20.413700   -4.628110   91.794200
  C    -20.250000   -4.877690   93.151200
  H    -19.192500   -3.847760   90.173300
  C    -21.652000   -5.014930   91.026700
  H    -22.405300   -5.552440   91.589300
  H    -21.366000   -5.779880   90.260600
  C    -22.278100   -3.762240   90.331300
  H    -21.579600   -3.340850   89.537000
  H    -22.349400   -2.938520   91.063200
  C    -23.650200   -4.126020   89.737400
  H    -23.661900   -4.920890   88.991400
  H    -24.046100   -3.207210   89.281800
  H    -24.254700   -4.468340   90.586600
  H    -22.313200   -6.786640   97.342900
  H    -17.124700   -3.680110   91.667200

 Total Charge           Charge          ....    0
 Multiplicity           Mult            ....    1
 Number of Electrons    NEL             ....  134
 Basis Dimension        Dim             ....  322

ORBITAL ENERGIES
----------------

  NO   OCC          E(Eh)            E(eV)
   0   2.0000     -88.968428     -2420.9540
   1   2.0000     -88.965366     -2420.8707
   2   2.0000     -10.337137      -281.2878
   3   2.0000     -10.336912      -281.2817
   4   2.0000     -10.325271      -280.9649
   5   2.0000     -10.316184      -280.7176
   6   2.0000     -10.307563      -280.4831
   7   2.0000     -10.301997      -280.3316
   8   2.0000     -10.298164      -280.2273
   9   2.0000     -10.296340      -280.1777
  10   2.0000     -10.296134      -280.1720
  11   2.0000     -10.296129      -280.1719
  12   2.0000     -10.292092      -280.0620
  13   2.0000     -10.288864      -279.9742
  14   2.0000     -10.283825      -279.8371
  15   2.0000     -10.282982      -279.8142
  16   2.0000      -8.082464      -219.9350
  17   2.0000      -8.078943      -219.8392
  18   2.0000      -6.041144      -164.3879
  19   2.0000      -6.037488      -164.2884
  20   2.0000      -6.037204      -164.2807
  21   2.0000      -6.033649      -164.1839
  22   2.0000      -6.032941      -164.1647
  23   2.0000      -6.029703      -164.0766
  24   2.0000      -1.002062       -27.2675
  25   2.0000      -0.982936       -26.7470
  26   2.0000      -0.911690       -24.8083
  27   2.0000      -0.907326       -24.6896
  28   2.0000      -0.865359       -23.5476
  29   2.0000      -0.852720       -23.2037
  30   2.0000      -0.840660       -22.8755
  31   2.0000      -0.812700       -22.1147
  32   2.0000      -0.779996       -21.2248
  33   2.0000      -0.771010       -20.9803
  34   2.0000      -0.703312       -19.1381
  35   2.0000      -0.698611       -19.0102
  36   2.0000      -0.691375       -18.8133
  37   2.0000      -0.658193       -17.9103
  38   2.0000      -0.641740       -17.4626
  39   2.0000      -0.623641       -16.9701
  40   2.0000      -0.599376       -16.3098
  41   2.0000      -0.562682       -15.3113
  42   2.0000      -0.557459       -15.1692
  43   2.0000      -0.550974       -14.9928
  44   2.0000      -0.540270       -14.7015
  45   2.0000      -0.531671       -14.4675
  46   2.0000      -0.514026       -13.9874
  47   2.0000      -0.505914       -13.7666
  48   2.0000      -0.505038       -13.7428
  49   2.0000      -0.500051       -13.6071
  50   2.0000      -0.485391       -13.2082
  51   2.0000      -0.481606       -13.1052
  52   2.0000      -0.473643       -12.8885
  53   2.0000      -0.463517       -12.6129
  54   2.0000      -0.453781       -12.3480
  55   2.0000      -0.452382       -12.3099
  56   2.0000      -0.444829       -12.1044
  57   2.0000      -0.439456       -11.9582
  58   2.0000      -0.432255       -11.7623
  59   2.0000      -0.423172       -11.5151
  60   2.0000      -0.418605       -11.3908
  61   2.0000      -0.412161       -11.2155
  62   2.0000      -0.409380       -11.1398
  63   2.0000      -0.358340        -9.7509
  64   2.0000      -0.333885        -9.0855
  65   2.0000      -0.328552        -8.9404
  66   2.0000      -0.285402        -7.7662
  67   0.0000       0.020360         0.5540
  68   0.0000       0.069818         1.8998
  69   0.0000       0.096698         2.6313
  70   0.0000       0.115053         3.1308
  71   0.0000       0.121444         3.3046

MULLIKEN ATOMIC CHARGES
-----------------------
   0 S :    0.099011
   1 C :   -0.104655
   2 C :   -0.109195
   3 C :   -0.000606
   4 C :   -0.104760
   5 H :    0.024096
   6 C :    0.100290
   7 H :    0.016085
   8 H :    0.048383
   9 C :   -0.082796
  10 H :    0.033464
  11 H :    0.029365
  12 C :   -0.109974
  13 H :    0.044765
  14 H :    0.029097
  15 H :    0.050735
  16 S :    0.075483
  17 C :   -0.110048
  18 C :   -0.044105
  19 C :   -0.000510
  20 C :   -0.154004
  21 H :    0.017465
  22 C :    0.041387
  23 H :    0.018574
  24 H :    0.044808
  25 C :   -0.135302
  26 H :    0.039447
  27 H :    0.038470
  28 C :   -0.028763
  29 H :    0.034737
  30 H :    0.040656
  31 H :    0.030094
  32 H :    0.045659
  33 H :    0.082647
Sum of atomic charges:    0.0000000

LOEWDIN ATOMIC CHARGES
----------------------
   0 S :    0.385320
   1 C :   -0.195652
   2 C :   -0.061911
   3 C :   -0.068884
   4 C :   -0.171157
   5 H :    0.035262
   6 C :   -0.025809
   7 H :    0.028842
   8 H :    0.034152
   9 C :   -0.052901
  10 H :    0.025110
  11 H :    0.026507
  12 C :   -0.081875
  13 H :    0.036063
  14 H :    0.026150
  15 H :    0.025681
  16 S :    0.371196
  17 C :   -0.188836
  18 C :   -0.073411
  19 C :   -0.067817
  20 C :   -0.162543
  21 H :    0.029816
  22 C :   -0.030476
  23 H :    0.025008
  24 H :    0.040515
  25 C :   -0.046018
  26 H :    0.026419
  27 H :    0.024854
  28 C :   -0.066627
  29 H :    0.024896
  30 H :    0.029346
  31 H :    0.025792
  32 H :    0.027974
  33 H :    0.045012

  Mayer bond orders larger than 0.100000
B(  0-S ,  1-C ) :   1.1334 B(  0-S ,  4-C ) :   1.1283 B(  1-C ,  2-C ) :   1.6346
B(  1-C , 32-H ) :   0.9677 B(  2-C ,  3-C ) :   1.2141 B(  2-C ,  6-C ) :   0.9998
B(  3-C ,  4-C ) :   1.6059 B(  3-C ,  5-H ) :   0.9891 B(  4-C , 20-C ) :   1.0428
B(  6-C ,  7-H ) :   0.9399 B(  6-C ,  8-H ) :   0.9449 B(  6-C ,  9-C ) :   1.0782
B(  9-C , 10-H ) :   0.9486 B(  9-C , 11-H ) :   0.9546 B(  9-C , 12-C ) :   1.0664
B( 12-C , 13-H ) :   0.9742 B( 12-C , 14-H ) :   0.9732 B( 12-C , 15-H ) :   0.9743
B( 16-S , 17-C ) :   1.1550 B( 16-S , 20-C ) :   1.1322 B( 17-C , 18-C ) :   1.5853
B( 17-C , 20-C ) :   0.1092 B( 17-C , 33-H ) :   0.9627 B( 18-C , 19-C ) :   1.2717
B( 18-C , 21-H ) :   0.9852 B( 19-C , 20-C ) :   1.5712 B( 19-C , 22-C ) :   1.0358
B( 22-C , 23-H ) :   0.9461 B( 22-C , 24-H ) :   0.9369 B( 22-C , 25-C ) :   1.0370
B( 25-C , 26-H ) :   0.9547 B( 25-C , 27-H ) :   0.9605 B( 25-C , 28-C ) :   1.0799
B( 28-C , 29-H ) :   0.9743 B( 28-C , 30-H ) :   0.9738 B( 28-C , 31-H ) :   0.9742

Dispersion correction           -0.014265330
FINAL SINGLE POINT ENERGY     -1339.878543037128

DIPOLE MOMENT
-------------
                                X             Y             Z
Electronic contribution:     26.36064     -10.50237       8.88259
Nuclear contribution   :    -26.96635      10.70838      -9.22811
                        -----------------------------------------
Total Dipole Moment    :     -0.60571       0.20601      -0.34551
                        -----------------------------------------
Magnitude (a.u.)       :      0.72712
Magnitude (Debye)      :      1.84819

Rotational constants in cm-1:     0.015991     0.010034     0.006938
Rotational constants in MHz :   479.383715   300.825691   207.993978

                             ****ORCA TERMINATED NORMALLY****
TOTAL RUN TIME: 0 days 0 hours 0 minutes 28 seconds 901 msec
