                         Program Version 4.2.1 -  RELEASE  -
|  1> ! wB97X-D3 SP def2-SVP
|  2> %pal
|  3> nprocs 16
|  4> end
|  5>
|  6> * xyz 0 1
|  7> S 	 -15.605 	 -8.56492 	 85.4032
|  8> C 	 -16.4735 	 -8.3165 	 86.9412
|  9> C 	 -15.6904 	 -8.69072 	 88.0379
| 10> C 	 -14.3615 	 -8.97984 	 87.6611
| 11> C 	 -14.0859 	 -8.75393 	 86.287
| 12> H 	 -13.5476 	 -9.47622 	 88.1972
| 13> C 	 -16.3227 	 -8.86875 	 89.3903
| 14> H 	 -16.6828 	 -9.84785 	 89.4088
| 15> H 	 -17.1524 	 -8.22484 	 89.4821
| 16> C 	 -15.4339 	 -8.72208 	 90.6686
| 17> H 	 -14.4822 	 -9.34927 	 90.5704
| 18> H 	 -15.0444 	 -7.72884 	 90.7735
| 19> C 	 -16.2377 	 -9.05265 	 91.947
| 20> H 	 -15.6856 	 -8.72557 	 92.7853
| 21> H 	 -17.1608 	 -8.52635 	 91.9899
| 22> H 	 -16.4702 	 -10.1013 	 92.0097
| 23> S 	 -12.8792 	 -10.4789 	 84.6026
| 24> C 	 -11.2073 	 -10.4902 	 84.3137
| 25> C 	 -10.6044 	 -9.5748 	 85.1508
| 26> C 	 -11.4953 	 -8.78137 	 85.9406
| 27> C 	 -12.8404 	 -9.07917 	 85.6127
| 28> H 	 -9.52806 	 -9.41978 	 85.1029
| 29> C 	 -11.055 	 -7.66136 	 86.822
| 30> H 	 -11.9374 	 -7.25339 	 87.4136
| 31> H 	 -10.8147 	 -6.94793 	 86.0932
| 32> C 	 -9.83671 	 -7.82998 	 87.7553
| 33> H 	 -9.4429 	 -6.86765 	 87.9605
| 34> H 	 -9.04415 	 -8.45062 	 87.1826
| 35> C 	 -10.1702 	 -8.56193 	 89.0723
| 36> H 	 -9.22872 	 -8.53757 	 89.6705
| 37> H 	 -10.5388 	 -9.52007 	 88.9193
| 38> H 	 -10.8716 	 -8.03205 	 89.6448
| 39> H 	 -17.5758 	 -8.055 	 87.0877
| 40> H 	 -10.6965 	 -11.0495 	 83.5956
| 41> *
| 42>
| 43>                          ****END OF INPUT****

CARTESIAN COORDINATES (ANGSTROEM)
---------------------------------
  S    -15.605000   -8.564920   85.403200
  C    -16.473500   -8.316500   86.941200
  C    -15.690400   -8.690720   88.037900
  C    -14.361500   -8.979840   87.661100
  C    -14.085900   -8.753930   86.287000
  H    -13.547600   -9.476220   88.197200
  C    -16.322700   -8.868750   89.390300
  H    -16.682800   -9.847850   89.408800
  H    -17.152400   -8.224840   89.482100
  C    -15.433900   -8.722080   90.668600
  H    -14.482200   -9.349270   90.570400
  H    -15.044400   -7.728840   90.773500
  C    -16.237700   -9.052650   91.947000
  H    -15.685600   -8.725570   92.785300
  H    -17.160800   -8.526350   91.989900
  H    -16.470200  -10.101300   92.009700
  S    -12.879200  -10.478900   84.602600
  C    -11.207300  -10.490200   84.313700
  C    -10.604400   -9.574800   85.150800
  C    -11.495300   -8.781370   85.940600
  C    -12.840400   -9.079170   85.612700
  H     -9.528060   -9.419780   85.102900
  C    -11.055000   -7.661360   86.822000
  H    -11.937400   -7.253390   87.413600
  H    -10.814700   -6.947930   86.093200
  C     -9.836710   -7.829980   87.755300
  H     -9.442900   -6.867650   87.960500
  H     -9.044150   -8.450620   87.182600
  C    -10.170200   -8.561930   89.072300
  H     -9.228720   -8.537570   89.670500
  H    -10.538800   -9.520070   88.919300
  H    -10.871600   -8.032050   89.644800
  H    -17.575800   -8.055000   87.087700
  H    -10.696500  -11.049500   83.595600

 Total Charge           Charge          ....    0
 Multiplicity           Mult            ....    1
 Number of Electrons    NEL             ....  134
 Basis Dimension        Dim             ....  322

ORBITAL ENERGIES
----------------

  NO   OCC          E(Eh)            E(eV)
   0   2.0000     -88.968908     -2420.9671
   1   2.0000     -88.961248     -2420.7586
   2   2.0000     -10.331358      -281.1305
   3   2.0000     -10.322315      -280.8845
   4   2.0000     -10.320588      -280.8375
   5   2.0000     -10.309481      -280.5352
   6   2.0000     -10.305059      -280.4149
   7   2.0000     -10.302731      -280.3516
   8   2.0000     -10.297766      -280.2165
   9   2.0000     -10.292835      -280.0823
  10   2.0000     -10.292135      -280.0632
  11   2.0000     -10.291642      -280.0498
  12   2.0000     -10.287150      -279.9276
  13   2.0000     -10.286160      -279.9006
  14   2.0000     -10.273318      -279.5512
  15   2.0000     -10.271259      -279.4952
  16   2.0000      -8.082439      -219.9343
  17   2.0000      -8.077410      -219.7975
  18   2.0000      -6.040953      -164.3827
  19   2.0000      -6.037275      -164.2826
  20   2.0000      -6.035798      -164.2424
  21   2.0000      -6.033107      -164.1692
  22   2.0000      -6.031576      -164.1275
  23   2.0000      -6.028335      -164.0393
  24   2.0000      -1.008557       -27.4442
  25   2.0000      -0.981915       -26.7193
  26   2.0000      -0.911049       -24.7909
  27   2.0000      -0.909999       -24.7623
  28   2.0000      -0.869930       -23.6720
  29   2.0000      -0.852752       -23.2045
  30   2.0000      -0.844831       -22.9890
  31   2.0000      -0.813888       -22.1470
  32   2.0000      -0.785739       -21.3811
  33   2.0000      -0.772891       -21.0314
  34   2.0000      -0.714121       -19.4322
  35   2.0000      -0.702130       -19.1059
  36   2.0000      -0.690928       -18.8011
  37   2.0000      -0.652396       -17.7526
  38   2.0000      -0.638482       -17.3740
  39   2.0000      -0.613886       -16.7047
  40   2.0000      -0.598129       -16.2759
  41   2.0000      -0.572439       -15.5769
  42   2.0000      -0.562523       -15.3070
  43   2.0000      -0.558177       -15.1888
  44   2.0000      -0.540395       -14.7049
  45   2.0000      -0.526676       -14.3316
  46   2.0000      -0.522798       -14.2260
  47   2.0000      -0.508060       -13.8250
  48   2.0000      -0.502646       -13.6777
  49   2.0000      -0.498778       -13.5724
  50   2.0000      -0.493408       -13.4263
  51   2.0000      -0.484690       -13.1891
  52   2.0000      -0.472956       -12.8698
  53   2.0000      -0.467181       -12.7126
  54   2.0000      -0.456967       -12.4347
  55   2.0000      -0.451457       -12.2848
  56   2.0000      -0.446408       -12.1474
  57   2.0000      -0.437823       -11.9138
  58   2.0000      -0.432929       -11.7806
  59   2.0000      -0.429652       -11.6914
  60   2.0000      -0.420444       -11.4409
  61   2.0000      -0.417375       -11.3573
  62   2.0000      -0.416153       -11.3241
  63   2.0000      -0.342054        -9.3078
  64   2.0000      -0.328843        -8.9483
  65   2.0000      -0.322931        -8.7874
  66   2.0000      -0.288624        -7.8539
  67   0.0000       0.023620         0.6427
  68   0.0000       0.066227         1.8021
  69   0.0000       0.108809         2.9608
  70   0.0000       0.118628         3.2280
  71   0.0000       0.134530         3.6607

MULLIKEN ATOMIC CHARGES
-----------------------
   0 S :    0.109493
   1 C :   -0.144610
   2 C :   -0.070713
   3 C :    0.017635
   4 C :   -0.177527
   5 H :    0.027678
   6 C :    0.101623
   7 H :    0.027686
   8 H :    0.010222
   9 C :   -0.117780
  10 H :    0.037962
  11 H :    0.025307
  12 C :   -0.009215
  13 H :    0.025173
  14 H :    0.018918
  15 H :    0.030961
  16 S :    0.111017
  17 C :   -0.060228
  18 C :   -0.053648
  19 C :   -0.046921
  20 C :   -0.146522
  21 H :    0.019623
  22 C :    0.046971
  23 H :    0.037110
  24 H :    0.031836
  25 C :   -0.084159
  26 H :    0.023990
  27 H :    0.035831
  28 C :   -0.014215
  29 H :    0.037380
  30 H :    0.029235
  31 H :    0.012924
  32 H :    0.071197
  33 H :    0.035767
Sum of atomic charges:   -0.0000000

LOEWDIN ATOMIC CHARGES
----------------------
   0 S :    0.393441
   1 C :   -0.204113
   2 C :   -0.062266
   3 C :   -0.062709
   4 C :   -0.194181
   5 H :    0.035213
   6 C :   -0.024930
   7 H :    0.029887
   8 H :    0.025180
   9 C :   -0.039958
  10 H :    0.028202
  11 H :    0.018500
  12 C :   -0.056020
  13 H :    0.023441
  14 H :    0.021825
  15 H :    0.024213
  16 S :    0.439886
  17 C :   -0.193503
  18 C :   -0.078190
  19 C :   -0.054173
  20 C :   -0.220097
  21 H :    0.028413
  22 C :   -0.040222
  23 H :    0.038199
  24 H :    0.032929
  25 C :   -0.034731
  26 H :    0.020065
  27 H :    0.030362
  28 C :   -0.056081
  29 H :    0.034066
  30 H :    0.016315
  31 H :    0.016248
  32 H :    0.043779
  33 H :    0.021009

  Mayer bond orders larger than 0.100000
B(  0-S ,  1-C ) :   1.1366 B(  0-S ,  4-C ) :   1.1583 B(  1-C ,  2-C ) :   1.5946
B(  1-C ,  4-C ) :   0.1089 B(  1-C , 32-H ) :   0.9588 B(  2-C ,  3-C ) :   1.2570
B(  2-C ,  6-C ) :   1.0182 B(  3-C ,  4-C ) :   1.5340 B(  3-C ,  5-H ) :   0.9904
B(  4-C , 20-C ) :   1.0371 B(  6-C ,  7-H ) :   0.9326 B(  6-C ,  8-H ) :   0.9380
B(  6-C ,  9-C ) :   1.0632 B(  9-C , 10-H ) :   0.9519 B(  9-C , 11-H ) :   0.9611
B(  9-C , 12-C ) :   1.0847 B( 12-C , 13-H ) :   0.9732 B( 12-C , 14-H ) :   0.9729
B( 12-C , 15-H ) :   0.9764 B( 16-S , 17-C ) :   1.1793 B( 16-S , 20-C ) :   1.1641
B( 17-C , 18-C ) :   1.5694 B( 17-C , 20-C ) :   0.1028 B( 17-C , 33-H ) :   0.9774
B( 18-C , 19-C ) :   1.2682 B( 18-C , 21-H ) :   0.9875 B( 19-C , 20-C ) :   1.5424
B( 19-C , 22-C ) :   1.0379 B( 22-C , 23-H ) :   0.9364 B( 22-C , 24-H ) :   0.9281
B( 22-C , 25-C ) :   1.0741 B( 25-C , 26-H ) :   0.9526 B( 25-C , 27-H ) :   0.9549
B( 25-C , 28-C ) :   1.0770 B( 28-C , 29-H ) :   0.9729 B( 28-C , 30-H ) :   0.9778
B( 28-C , 31-H ) :   0.9731

Dispersion correction           -0.014008941
FINAL SINGLE POINT ENERGY     -1339.862943019842

DIPOLE MOMENT
-------------
                                X             Y             Z
Electronic contribution:     -6.62391      -5.24620     -29.69256
Nuclear contribution   :      6.84586       5.27441      30.34243
                        -----------------------------------------
Total Dipole Moment    :      0.22195       0.02822       0.64987
                        -----------------------------------------
Magnitude (a.u.)       :      0.68730
Magnitude (Debye)      :      1.74698

Rotational constants in cm-1:     0.016936     0.009136     0.006594
Rotational constants in MHz :   507.743328   273.892515   197.671884

                             ****ORCA TERMINATED NORMALLY****
TOTAL RUN TIME: 0 days 0 hours 0 minutes 33 seconds 647 msec
