                         Program Version 4.2.1 -  RELEASE  -
|  1> ! wB97X-D3 SP def2-SVP
|  2> %pal
|  3> nprocs 16
|  4> end
|  5>
|  6> * xyz 0 1
|  7> S 	 -37.9945 	 30.812 	 93.0559
|  8> C 	 -38.5426 	 29.7929 	 94.3375
|  9> C 	 -39.8718 	 29.4296 	 94.2806
| 10> C 	 -40.4176 	 29.8204 	 93.0217
| 11> C 	 -39.5278 	 30.5916 	 92.2497
| 12> H 	 -41.3935 	 29.6308 	 92.6238
| 13> C 	 -40.4086 	 28.3785 	 95.3325
| 14> H 	 -39.7025 	 28.23 	 96.1274
| 15> H 	 -40.5683 	 27.4249 	 94.7767
| 16> C 	 -41.708 	 28.7519 	 96.1095
| 17> H 	 -41.9577 	 27.9176 	 96.794
| 18> H 	 -41.5046 	 29.6421 	 96.6984
| 19> C 	 -42.8106 	 29.066 	 95.1598
| 20> H 	 -42.6272 	 30.0056 	 94.7833
| 21> H 	 -42.847 	 28.3465 	 94.3322
| 22> H 	 -43.7224 	 29.13 	 95.6845
| 23> S 	 -41.1883 	 32.0292 	 90.548
| 24> C 	 -40.7934 	 32.0713 	 88.8206
| 25> C 	 -39.6529 	 31.3253 	 88.5714
| 26> C 	 -39.0627 	 30.7409 	 89.7066
| 27> C 	 -39.7578 	 31.0307 	 90.89
| 28> H 	 -39.4484 	 31.177 	 87.5342
| 29> C 	 -37.7842 	 29.9215 	 89.6135
| 30> H 	 -37.6955 	 29.2269 	 90.4218
| 31> H 	 -36.8282 	 30.5872 	 89.7517
| 32> C 	 -37.5925 	 29.2307 	 88.2273
| 33> H 	 -37.6282 	 29.9778 	 87.4462
| 34> H 	 -38.4975 	 28.5729 	 87.9802
| 35> C 	 -36.2739 	 28.5247 	 88.0951
| 36> H 	 -36.4645 	 27.4047 	 88.1563
| 37> H 	 -35.5666 	 28.8807 	 88.8486
| 38> H 	 -35.9043 	 28.8519 	 87.1286
| 39> H 	 -37.9568 	 29.4962 	 95.1703
| 40> H 	 -41.3978 	 32.471 	 87.9954
| 41> *
| 42>
| 43>                          ****END OF INPUT****

CARTESIAN COORDINATES (ANGSTROEM)
---------------------------------
  S    -37.994500   30.812000   93.055900
  C    -38.542600   29.792900   94.337500
  C    -39.871800   29.429600   94.280600
  C    -40.417600   29.820400   93.021700
  C    -39.527800   30.591600   92.249700
  H    -41.393500   29.630800   92.623800
  C    -40.408600   28.378500   95.332500
  H    -39.702500   28.230000   96.127400
  H    -40.568300   27.424900   94.776700
  C    -41.708000   28.751900   96.109500
  H    -41.957700   27.917600   96.794000
  H    -41.504600   29.642100   96.698400
  C    -42.810600   29.066000   95.159800
  H    -42.627200   30.005600   94.783300
  H    -42.847000   28.346500   94.332200
  H    -43.722400   29.130000   95.684500
  S    -41.188300   32.029200   90.548000
  C    -40.793400   32.071300   88.820600
  C    -39.652900   31.325300   88.571400
  C    -39.062700   30.740900   89.706600
  C    -39.757800   31.030700   90.890000
  H    -39.448400   31.177000   87.534200
  C    -37.784200   29.921500   89.613500
  H    -37.695500   29.226900   90.421800
  H    -36.828200   30.587200   89.751700
  C    -37.592500   29.230700   88.227300
  H    -37.628200   29.977800   87.446200
  H    -38.497500   28.572900   87.980200
  C    -36.273900   28.524700   88.095100
  H    -36.464500   27.404700   88.156300
  H    -35.566600   28.880700   88.848600
  H    -35.904300   28.851900   87.128600
  H    -37.956800   29.496200   95.170300
  H    -41.397800   32.471000   87.995400

 Total Charge           Charge          ....    0
 Multiplicity           Mult            ....    1
 Number of Electrons    NEL             ....  134
 Basis Dimension        Dim             ....  322

ORBITAL ENERGIES
----------------

  NO   OCC          E(Eh)            E(eV)
   0   2.0000     -88.971084     -2421.0263
   1   2.0000     -88.966550     -2420.9029
   2   2.0000     -10.328803      -281.0610
   3   2.0000     -10.327427      -281.0236
   4   2.0000     -10.318892      -280.7913
   5   2.0000     -10.309015      -280.5226
   6   2.0000     -10.304468      -280.3988
   7   2.0000     -10.303847      -280.3819
   8   2.0000     -10.298805      -280.2447
   9   2.0000     -10.297903      -280.2202
  10   2.0000     -10.296710      -280.1877
  11   2.0000     -10.289231      -279.9842
  12   2.0000     -10.286535      -279.9108
  13   2.0000     -10.283320      -279.8234
  14   2.0000     -10.279445      -279.7179
  15   2.0000     -10.262147      -279.2472
  16   2.0000      -8.085785      -220.0254
  17   2.0000      -8.080172      -219.8727
  18   2.0000      -6.044069      -164.4675
  19   2.0000      -6.040363      -164.3666
  20   2.0000      -6.038707      -164.3216
  21   2.0000      -6.036731      -164.2678
  22   2.0000      -6.034788      -164.2149
  23   2.0000      -6.031023      -164.1125
  24   2.0000      -1.004757       -27.3408
  25   2.0000      -0.981557       -26.7095
  26   2.0000      -0.911584       -24.8055
  27   2.0000      -0.906066       -24.6553
  28   2.0000      -0.871154       -23.7053
  29   2.0000      -0.852637       -23.2014
  30   2.0000      -0.846581       -23.0366
  31   2.0000      -0.814923       -22.1752
  32   2.0000      -0.784139       -21.3375
  33   2.0000      -0.766743       -20.8641
  34   2.0000      -0.703584       -19.1455
  35   2.0000      -0.696674       -18.9575
  36   2.0000      -0.690341       -18.7851
  37   2.0000      -0.653621       -17.7859
  38   2.0000      -0.639109       -17.3910
  39   2.0000      -0.613121       -16.6839
  40   2.0000      -0.595859       -16.2141
  41   2.0000      -0.575735       -15.6666
  42   2.0000      -0.562380       -15.3031
  43   2.0000      -0.551714       -15.0129
  44   2.0000      -0.545124       -14.8336
  45   2.0000      -0.529392       -14.4055
  46   2.0000      -0.517464       -14.0809
  47   2.0000      -0.508610       -13.8400
  48   2.0000      -0.503412       -13.6985
  49   2.0000      -0.493788       -13.4367
  50   2.0000      -0.487613       -13.2686
  51   2.0000      -0.475778       -12.9466
  52   2.0000      -0.474573       -12.9138
  53   2.0000      -0.468493       -12.7483
  54   2.0000      -0.458518       -12.4769
  55   2.0000      -0.449073       -12.2199
  56   2.0000      -0.445073       -12.1111
  57   2.0000      -0.438273       -11.9260
  58   2.0000      -0.431611       -11.7447
  59   2.0000      -0.424575       -11.5533
  60   2.0000      -0.414640       -11.2829
  61   2.0000      -0.414041       -11.2666
  62   2.0000      -0.410325       -11.1655
  63   2.0000      -0.341824        -9.3015
  64   2.0000      -0.336339        -9.1523
  65   2.0000      -0.329122        -8.9559
  66   2.0000      -0.291210        -7.9242
  67   0.0000       0.027144         0.7386
  68   0.0000       0.071202         1.9375
  69   0.0000       0.109211         2.9718
  70   0.0000       0.117732         3.2036
  71   0.0000       0.128965         3.5093

MULLIKEN ATOMIC CHARGES
-----------------------
   0 S :    0.136492
   1 C :   -0.118436
   2 C :   -0.054955
   3 C :    0.028177
   4 C :   -0.184465
   5 H :    0.006653
   6 C :    0.026348
   7 H :    0.018145
   8 H :    0.051982
   9 C :   -0.092006
  10 H :    0.035174
  11 H :    0.028606
  12 C :    0.000099
  13 H :    0.018609
  14 H :    0.027288
  15 H :    0.021618
  16 S :    0.106244
  17 C :   -0.104843
  18 C :   -0.050078
  19 C :    0.008326
  20 C :   -0.161875
  21 H :    0.015903
  22 C :    0.048964
  23 H :    0.026633
  24 H :    0.048347
  25 C :   -0.147286
  26 H :    0.026099
  27 H :    0.041547
  28 C :   -0.019290
  29 H :    0.054624
  30 H :    0.032913
  31 H :    0.027558
  32 H :    0.033319
  33 H :    0.063568
Sum of atomic charges:    0.0000000

LOEWDIN ATOMIC CHARGES
----------------------
   0 S :    0.427855
   1 C :   -0.195800
   2 C :   -0.065260
   3 C :   -0.054435
   4 C :   -0.201297
   5 H :    0.026584
   6 C :   -0.023414
   7 H :    0.025024
   8 H :    0.035183
   9 C :   -0.040100
  10 H :    0.024918
  11 H :    0.024429
  12 C :   -0.056750
  13 H :    0.016931
  14 H :    0.023941
  15 H :    0.022106
  16 S :    0.391410
  17 C :   -0.184834
  18 C :   -0.073365
  19 C :   -0.056825
  20 C :   -0.194513
  21 H :    0.029335
  22 C :   -0.037193
  23 H :    0.020959
  24 H :    0.041652
  25 C :   -0.052452
  26 H :    0.015483
  27 H :    0.030248
  28 C :   -0.068021
  29 H :    0.038641
  30 H :    0.026344
  31 H :    0.027871
  32 H :    0.019059
  33 H :    0.036289

  Mayer bond orders larger than 0.100000
B(  0-S ,  1-C ) :   1.1584 B(  0-S ,  4-C ) :   1.1473 B(  1-C ,  2-C ) :   1.6119
B(  1-C , 32-H ) :   0.9661 B(  2-C ,  3-C ) :   1.2368 B(  2-C ,  6-C ) :   1.0083
B(  3-C ,  4-C ) :   1.5705 B(  3-C ,  5-H ) :   0.9929 B(  4-C , 20-C ) :   1.0437
B(  6-C ,  7-H ) :   0.9455 B(  6-C ,  8-H ) :   0.9489 B(  6-C ,  9-C ) :   1.0724
B(  9-C , 10-H ) :   0.9571 B(  9-C , 11-H ) :   0.9527 B(  9-C , 12-C ) :   1.0930
B( 12-C , 13-H ) :   0.9652 B( 12-C , 14-H ) :   0.9742 B( 12-C , 15-H ) :   0.9666
B( 16-S , 17-C ) :   1.1489 B( 16-S , 20-C ) :   1.1391 B( 17-C , 18-C ) :   1.6185
B( 17-C , 20-C ) :   0.1027 B( 17-C , 33-H ) :   0.9593 B( 18-C , 19-C ) :   1.2445
B( 18-C , 21-H ) :   0.9877 B( 19-C , 20-C ) :   1.5680 B( 19-C , 22-C ) :   1.0417
B( 22-C , 23-H ) :   0.9328 B( 22-C , 24-H ) :   0.9292 B( 22-C , 25-C ) :   1.0682
B( 25-C , 26-H ) :   0.9558 B( 25-C , 27-H ) :   0.9597 B( 25-C , 28-C ) :   1.0681
B( 28-C , 29-H ) :   0.9746 B( 28-C , 30-H ) :   0.9726 B( 28-C , 31-H ) :   0.9795

Dispersion correction           -0.013943604
FINAL SINGLE POINT ENERGY     -1339.872985570709

DIPOLE MOMENT
-------------
                                X             Y             Z
Electronic contribution:     -0.72746      16.02123      -0.56935
Nuclear contribution   :      0.75246     -16.47357       0.49706
                        -----------------------------------------
Total Dipole Moment    :      0.02500      -0.45234      -0.07230
                        -----------------------------------------
Magnitude (a.u.)       :      0.45876
Magnitude (Debye)      :      1.16608

Rotational constants in cm-1:     0.019935     0.007896     0.006513
Rotational constants in MHz :   597.647259   236.720512   195.261979

                             ****ORCA TERMINATED NORMALLY****
TOTAL RUN TIME: 0 days 0 hours 0 minutes 29 seconds 30 msec
