                         Program Version 4.2.1 -  RELEASE  -
|  1> ! wB97X-D3 SP def2-SVP
|  2> %pal
|  3> nprocs 16
|  4> end
|  5>
|  6> * xyz 0 1
|  7> S 	 46.8713 	 10.816 	 86.8448
|  8> C 	 46.9671 	 9.29716 	 87.691
|  9> C 	 45.9681 	 9.17859 	 88.6602
| 10> C 	 45.1354 	 10.3353 	 88.7105
| 11> C 	 45.4636 	 11.275 	 87.8025
| 12> H 	 44.4689 	 10.5037 	 89.4798
| 13> C 	 45.7856 	 8.01648 	 89.6209
| 14> H 	 46.0128 	 7.132 	 89.0205
| 15> H 	 44.6988 	 7.88284 	 89.8436
| 16> C 	 46.6149 	 8.02624 	 90.8873
| 17> H 	 46.2718 	 7.23462 	 91.5015
| 18> H 	 47.6374 	 7.7559 	 90.672
| 19> C 	 46.5885 	 9.36113 	 91.6281
| 20> H 	 45.6761 	 9.86568 	 91.4158
| 21> H 	 46.7839 	 9.30301 	 92.676
| 22> H 	 47.4051 	 9.94379 	 91.2218
| 23> S 	 45.846 	 13.9392 	 87.0776
| 24> C 	 44.5418 	 15.0558 	 87.09
| 25> C 	 43.4137 	 14.4873 	 87.4361
| 26> C 	 43.5635 	 13.1555 	 87.9355
| 27> C 	 44.836 	 12.6105 	 87.6362
| 28> H 	 42.5678 	 15.1813 	 87.6201
| 29> C 	 42.3511 	 12.3566 	 88.517
| 30> H 	 42.5037 	 11.2598 	 88.3953
| 31> H 	 41.4954 	 12.6135 	 87.941
| 32> C 	 42.1082 	 12.6642 	 89.9789
| 33> H 	 42.1418 	 13.6965 	 90.0963
| 34> H 	 42.9705 	 12.3395 	 90.5612
| 35> C 	 40.8664 	 12.0083 	 90.5997
| 36> H 	 40.02 	 12.4756 	 90.0814
| 37> H 	 40.7882 	 12.3732 	 91.5799
| 38> H 	 40.8438 	 10.8332 	 90.4875
| 39> H 	 47.892 	 8.63769 	 87.7329
| 40> H 	 44.6864 	 16.1018 	 87.1238
| 41> *
| 42>
| 43>                          ****END OF INPUT****

CARTESIAN COORDINATES (ANGSTROEM)
---------------------------------
  S     46.871300   10.816000   86.844800
  C     46.967100    9.297160   87.691000
  C     45.968100    9.178590   88.660200
  C     45.135400   10.335300   88.710500
  C     45.463600   11.275000   87.802500
  H     44.468900   10.503700   89.479800
  C     45.785600    8.016480   89.620900
  H     46.012800    7.132000   89.020500
  H     44.698800    7.882840   89.843600
  C     46.614900    8.026240   90.887300
  H     46.271800    7.234620   91.501500
  H     47.637400    7.755900   90.672000
  C     46.588500    9.361130   91.628100
  H     45.676100    9.865680   91.415800
  H     46.783900    9.303010   92.676000
  H     47.405100    9.943790   91.221800
  S     45.846000   13.939200   87.077600
  C     44.541800   15.055800   87.090000
  C     43.413700   14.487300   87.436100
  C     43.563500   13.155500   87.935500
  C     44.836000   12.610500   87.636200
  H     42.567800   15.181300   87.620100
  C     42.351100   12.356600   88.517000
  H     42.503700   11.259800   88.395300
  H     41.495400   12.613500   87.941000
  C     42.108200   12.664200   89.978900
  H     42.141800   13.696500   90.096300
  H     42.970500   12.339500   90.561200
  C     40.866400   12.008300   90.599700
  H     40.020000   12.475600   90.081400
  H     40.788200   12.373200   91.579900
  H     40.843800   10.833200   90.487500
  H     47.892000    8.637690   87.732900
  H     44.686400   16.101800   87.123800

 Total Charge           Charge          ....    0
 Multiplicity           Mult            ....    1
 Number of Electrons    NEL             ....  134
 Basis Dimension        Dim             ....  322

ORBITAL ENERGIES
----------------

  NO   OCC          E(Eh)            E(eV)
   0   2.0000     -88.968784     -2420.9637
   1   2.0000     -88.960804     -2420.7465
   2   2.0000     -10.333947      -281.2010
   3   2.0000     -10.332248      -281.1548
   4   2.0000     -10.318127      -280.7705
   5   2.0000     -10.310205      -280.5550
   6   2.0000     -10.306189      -280.4456
   7   2.0000     -10.301558      -280.3197
   8   2.0000     -10.293150      -280.0909
   9   2.0000     -10.291106      -280.0352
  10   2.0000     -10.289736      -279.9980
  11   2.0000     -10.285874      -279.8929
  12   2.0000     -10.285233      -279.8754
  13   2.0000     -10.280165      -279.7375
  14   2.0000     -10.279035      -279.7068
  15   2.0000     -10.269123      -279.4370
  16   2.0000      -8.083336      -219.9588
  17   2.0000      -8.076507      -219.7729
  18   2.0000      -6.041967      -164.4103
  19   2.0000      -6.037932      -164.3005
  20   2.0000      -6.035004      -164.2208
  21   2.0000      -6.033912      -164.1911
  22   2.0000      -6.030842      -164.1076
  23   2.0000      -6.027258      -164.0100
  24   2.0000      -1.010458       -27.4960
  25   2.0000      -0.990586       -26.9552
  26   2.0000      -0.915619       -24.9153
  27   2.0000      -0.911255       -24.7965
  28   2.0000      -0.872074       -23.7303
  29   2.0000      -0.853855       -23.2346
  30   2.0000      -0.844566       -22.9818
  31   2.0000      -0.822074       -22.3698
  32   2.0000      -0.785523       -21.3752
  33   2.0000      -0.773875       -21.0582
  34   2.0000      -0.706801       -19.2330
  35   2.0000      -0.703470       -19.1424
  36   2.0000      -0.694887       -18.9088
  37   2.0000      -0.659601       -17.9486
  38   2.0000      -0.634738       -17.2721
  39   2.0000      -0.624270       -16.9872
  40   2.0000      -0.600503       -16.3405
  41   2.0000      -0.575373       -15.6567
  42   2.0000      -0.565249       -15.3812
  43   2.0000      -0.556450       -15.1418
  44   2.0000      -0.545797       -14.8519
  45   2.0000      -0.529645       -14.4124
  46   2.0000      -0.514365       -13.9966
  47   2.0000      -0.509088       -13.8530
  48   2.0000      -0.508270       -13.8307
  49   2.0000      -0.498282       -13.5589
  50   2.0000      -0.489344       -13.3157
  51   2.0000      -0.479271       -13.0416
  52   2.0000      -0.478258       -13.0141
  53   2.0000      -0.467788       -12.7292
  54   2.0000      -0.457159       -12.4399
  55   2.0000      -0.451437       -12.2842
  56   2.0000      -0.446674       -12.1546
  57   2.0000      -0.441582       -12.0161
  58   2.0000      -0.437143       -11.8953
  59   2.0000      -0.423020       -11.5109
  60   2.0000      -0.420575       -11.4444
  61   2.0000      -0.414418       -11.2769
  62   2.0000      -0.408852       -11.1254
  63   2.0000      -0.361590        -9.8394
  64   2.0000      -0.335949        -9.1416
  65   2.0000      -0.329430        -8.9642
  66   2.0000      -0.286915        -7.8073
  67   0.0000       0.023229         0.6321
  68   0.0000       0.078889         2.1467
  69   0.0000       0.106701         2.9035
  70   0.0000       0.119014         3.2385
  71   0.0000       0.127774         3.4769

MULLIKEN ATOMIC CHARGES
-----------------------
   0 S :    0.110115
   1 C :   -0.136969
   2 C :   -0.108486
   3 C :    0.009079
   4 C :   -0.081767
   5 H :   -0.019893
   6 C :    0.032035
   7 H :    0.027400
   8 H :    0.032803
   9 C :   -0.032450
  10 H :    0.018537
  11 H :    0.016133
  12 C :   -0.022340
  13 H :    0.015126
  14 H :    0.030790
  15 H :    0.035372
  16 S :    0.080269
  17 C :   -0.065819
  18 C :   -0.026806
  19 C :   -0.079680
  20 C :   -0.122678
  21 H :    0.031230
  22 C :    0.059515
  23 H :    0.027104
  24 H :    0.014206
  25 C :   -0.070394
  26 H :    0.004388
  27 H :    0.017178
  28 C :   -0.027352
  29 H :    0.024562
  30 H :    0.027332
  31 H :    0.056011
  32 H :    0.075446
  33 H :    0.050002
Sum of atomic charges:    0.0000000

LOEWDIN ATOMIC CHARGES
----------------------
   0 S :    0.402461
   1 C :   -0.217495
   2 C :   -0.058093
   3 C :   -0.063298
   4 C :   -0.174880
   5 H :    0.017276
   6 C :   -0.037842
   7 H :    0.034730
   8 H :    0.034573
   9 C :   -0.036529
  10 H :    0.019427
  11 H :    0.020528
  12 C :   -0.058787
  13 H :    0.018384
  14 H :    0.024115
  15 H :    0.031658
  16 S :    0.401053
  17 C :   -0.183611
  18 C :   -0.083533
  19 C :   -0.051819
  20 C :   -0.187928
  21 H :    0.039514
  22 C :   -0.027476
  23 H :    0.029924
  24 H :    0.023333
  25 C :   -0.044034
  26 H :    0.014292
  27 H :    0.020412
  28 C :   -0.064893
  29 H :    0.025095
  30 H :    0.020592
  31 H :    0.040903
  32 H :    0.044361
  33 H :    0.027587

  Mayer bond orders larger than 0.100000
B(  0-S ,  1-C ) :   1.1303 B(  0-S ,  4-C ) :   1.1441 B(  1-C ,  2-C ) :   1.6270
B(  1-C , 32-H ) :   0.9539 B(  2-C ,  3-C ) :   1.2384 B(  2-C ,  6-C ) :   1.0158
B(  3-C ,  4-C ) :   1.5804 B(  3-C ,  5-H ) :   1.0053 B(  4-C , 20-C ) :   1.0484
B(  6-C ,  7-H ) :   0.9375 B(  6-C ,  8-H ) :   0.9429 B(  6-C ,  9-C ) :   1.0859
B(  9-C , 10-H ) :   0.9539 B(  9-C , 11-H ) :   0.9564 B(  9-C , 12-C ) :   1.0725
B( 12-C , 13-H ) :   0.9800 B( 12-C , 14-H ) :   0.9729 B( 12-C , 15-H ) :   0.9697
B( 16-S , 17-C ) :   1.1523 B( 16-S , 20-C ) :   1.1386 B( 17-C , 18-C ) :   1.6405
B( 17-C , 33-H ) :   0.9645 B( 18-C , 19-C ) :   1.2491 B( 18-C , 21-H ) :   0.9745
B( 19-C , 20-C ) :   1.5841 B( 19-C , 22-C ) :   1.0317 B( 22-C , 23-H ) :   0.9403
B( 22-C , 24-H ) :   0.9397 B( 22-C , 25-C ) :   1.0635 B( 25-C , 26-H ) :   0.9502
B( 25-C , 27-H ) :   0.9474 B( 25-C , 28-C ) :   1.0852 B( 28-C , 29-H ) :   0.9723
B( 28-C , 30-H ) :   0.9710 B( 28-C , 31-H ) :   0.9719

Dispersion correction           -0.014555228
FINAL SINGLE POINT ENERGY     -1339.867243724153

DIPOLE MOMENT
-------------
                                X             Y             Z
Electronic contribution:     14.10676      11.54659     -23.07893
Nuclear contribution   :    -14.42927     -11.60108      23.81001
                        -----------------------------------------
Total Dipole Moment    :     -0.32251      -0.05450       0.73108
                        -----------------------------------------
Magnitude (a.u.)       :      0.80091
Magnitude (Debye)      :      2.03575

Rotational constants in cm-1:     0.016660     0.009964     0.006939
Rotational constants in MHz :   499.456722   298.706538   208.024730

                             ****ORCA TERMINATED NORMALLY****
TOTAL RUN TIME: 0 days 0 hours 0 minutes 30 seconds 601 msec
