                         Program Version 4.2.1 -  RELEASE  -
|  1> ! wB97X-D3 SP def2-SVP
|  2> %pal
|  3> nprocs 16
|  4> end
|  5>
|  6> * xyz 0 1
|  7> S 	 8.95537 	 23.5535 	 61.0093
|  8> C 	 9.79886 	 22.0224 	 60.673
|  9> C 	 9.28663 	 20.9552 	 61.434
| 10> C 	 8.21446 	 21.4081 	 62.2893
| 11> C 	 7.94635 	 22.7691 	 62.1901
| 12> H 	 7.64082 	 20.7994 	 62.9437
| 13> C 	 9.90537 	 19.5997 	 61.4454
| 14> H 	 9.55912 	 19.1971 	 60.4952
| 15> H 	 9.5271 	 19.1476 	 62.3347
| 16> C 	 11.4212 	 19.4593 	 61.4611
| 17> H 	 11.7917 	 18.3928 	 61.5819
| 18> H 	 11.9183 	 19.8183 	 60.5671
| 19> C 	 11.9438 	 20.3441 	 62.6093
| 20> H 	 11.2424 	 20.5036 	 63.4267
| 21> H 	 12.789 	 19.9146 	 63.0765
| 22> H 	 12.1322 	 21.3553 	 62.4005
| 23> S 	 7.2598 	 24.7455 	 64.1
| 24> C 	 5.46803 	 25.12 	 64.3205
| 25> C 	 4.68286 	 24.3243 	 63.5032
| 26> C 	 5.49732 	 23.4038 	 62.7107
| 27> C 	 6.87623 	 23.5395 	 62.8706
| 28> H 	 3.54654 	 24.2802 	 63.5621
| 29> C 	 4.87073 	 22.3909 	 61.7371
| 30> H 	 4.1662 	 21.7463 	 62.2933
| 31> H 	 5.62768 	 21.6671 	 61.5424
| 32> C 	 4.26643 	 22.9759 	 60.4382
| 33> H 	 4.79984 	 23.8813 	 60.0157
| 34> H 	 3.32464 	 23.4517 	 60.6885
| 35> C 	 4.09159 	 21.8961 	 59.4294
| 36> H 	 3.39309 	 22.1847 	 58.7063
| 37> H 	 3.5821 	 21.0473 	 59.8014
| 38> H 	 5.07112 	 21.729 	 58.8936
| 39> H 	 10.6703 	 22.0195 	 60.0735
| 40> H 	 5.0734 	 25.8032 	 65.067
| 41> *
| 42>
| 43>                          ****END OF INPUT****

CARTESIAN COORDINATES (ANGSTROEM)
---------------------------------
  S      8.955370   23.553500   61.009300
  C      9.798860   22.022400   60.673000
  C      9.286630   20.955200   61.434000
  C      8.214460   21.408100   62.289300
  C      7.946350   22.769100   62.190100
  H      7.640820   20.799400   62.943700
  C      9.905370   19.599700   61.445400
  H      9.559120   19.197100   60.495200
  H      9.527100   19.147600   62.334700
  C     11.421200   19.459300   61.461100
  H     11.791700   18.392800   61.581900
  H     11.918300   19.818300   60.567100
  C     11.943800   20.344100   62.609300
  H     11.242400   20.503600   63.426700
  H     12.789000   19.914600   63.076500
  H     12.132200   21.355300   62.400500
  S      7.259800   24.745500   64.100000
  C      5.468030   25.120000   64.320500
  C      4.682860   24.324300   63.503200
  C      5.497320   23.403800   62.710700
  C      6.876230   23.539500   62.870600
  H      3.546540   24.280200   63.562100
  C      4.870730   22.390900   61.737100
  H      4.166200   21.746300   62.293300
  H      5.627680   21.667100   61.542400
  C      4.266430   22.975900   60.438200
  H      4.799840   23.881300   60.015700
  H      3.324640   23.451700   60.688500
  C      4.091590   21.896100   59.429400
  H      3.393090   22.184700   58.706300
  H      3.582100   21.047300   59.801400
  H      5.071120   21.729000   58.893600
  H     10.670300   22.019500   60.073500
  H      5.073400   25.803200   65.067000

 Total Charge           Charge          ....    0
 Multiplicity           Mult            ....    1
 Number of Electrons    NEL             ....  134
 Basis Dimension        Dim             ....  322

ORBITAL ENERGIES
----------------

  NO   OCC          E(Eh)            E(eV)
   0   2.0000     -88.966459     -2420.9004
   1   2.0000     -88.965790     -2420.8822
   2   2.0000     -10.331664      -281.1389
   3   2.0000     -10.328810      -281.0612
   4   2.0000     -10.327678      -281.0304
   5   2.0000     -10.313937      -280.6565
   6   2.0000     -10.306055      -280.4420
   7   2.0000     -10.305940      -280.4389
   8   2.0000     -10.305766      -280.4342
   9   2.0000     -10.297416      -280.2069
  10   2.0000     -10.293250      -280.0936
  11   2.0000     -10.289548      -279.9928
  12   2.0000     -10.286358      -279.9060
  13   2.0000     -10.284061      -279.8435
  14   2.0000     -10.268193      -279.4117
  15   2.0000     -10.263286      -279.2782
  16   2.0000      -8.080803      -219.8898
  17   2.0000      -8.078901      -219.8381
  18   2.0000      -6.039249      -164.3363
  19   2.0000      -6.037608      -164.2917
  20   2.0000      -6.035261      -164.2278
  21   2.0000      -6.033772      -164.1873
  22   2.0000      -6.031775      -164.1330
  23   2.0000      -6.029391      -164.0681
  24   2.0000      -0.997299       -27.1379
  25   2.0000      -0.972526       -26.4638
  26   2.0000      -0.917685       -24.9715
  27   2.0000      -0.904561       -24.6144
  28   2.0000      -0.861723       -23.4487
  29   2.0000      -0.848464       -23.0879
  30   2.0000      -0.844026       -22.9671
  31   2.0000      -0.813615       -22.1396
  32   2.0000      -0.783923       -21.3316
  33   2.0000      -0.766328       -20.8529
  34   2.0000      -0.712059       -19.3761
  35   2.0000      -0.700627       -19.0650
  36   2.0000      -0.694893       -18.9090
  37   2.0000      -0.654195       -17.8016
  38   2.0000      -0.644246       -17.5308
  39   2.0000      -0.608755       -16.5651
  40   2.0000      -0.589536       -16.0421
  41   2.0000      -0.577086       -15.7033
  42   2.0000      -0.561070       -15.2675
  43   2.0000      -0.557858       -15.1801
  44   2.0000      -0.542413       -14.7598
  45   2.0000      -0.523684       -14.2502
  46   2.0000      -0.515330       -14.0228
  47   2.0000      -0.511700       -13.9241
  48   2.0000      -0.507551       -13.8112
  49   2.0000      -0.493060       -13.4169
  50   2.0000      -0.488131       -13.2827
  51   2.0000      -0.473296       -12.8790
  52   2.0000      -0.468440       -12.7469
  53   2.0000      -0.459916       -12.5150
  54   2.0000      -0.454994       -12.3810
  55   2.0000      -0.446910       -12.1610
  56   2.0000      -0.444547       -12.0967
  57   2.0000      -0.435943       -11.8626
  58   2.0000      -0.433934       -11.8079
  59   2.0000      -0.427216       -11.6251
  60   2.0000      -0.416478       -11.3329
  61   2.0000      -0.410677       -11.1751
  62   2.0000      -0.405709       -11.0399
  63   2.0000      -0.338617        -9.2142
  64   2.0000      -0.330238        -8.9862
  65   2.0000      -0.323453        -8.8016
  66   2.0000      -0.300495        -8.1769
  67   0.0000       0.035886         0.9765
  68   0.0000       0.058751         1.5987
  69   0.0000       0.106309         2.8928
  70   0.0000       0.117221         3.1897
  71   0.0000       0.122861         3.3432

MULLIKEN ATOMIC CHARGES
-----------------------
   0 S :    0.113829
   1 C :   -0.123924
   2 C :   -0.118846
   3 C :    0.063354
   4 C :   -0.179380
   5 H :    0.002484
   6 C :    0.108983
   7 H :    0.042159
   8 H :    0.023541
   9 C :   -0.084741
  10 H :    0.047777
  11 H :    0.026743
  12 C :   -0.025740
  13 H :    0.013589
  14 H :    0.019597
  15 H :    0.018580
  16 S :    0.091082
  17 C :   -0.104771
  18 C :   -0.028226
  19 C :   -0.064167
  20 C :   -0.153673
  21 H :    0.052898
  22 C :    0.086556
  23 H :    0.023679
  24 H :   -0.001642
  25 C :   -0.073943
  26 H :    0.040800
  27 H :    0.012313
  28 C :   -0.007594
  29 H :    0.005991
  30 H :    0.014969
  31 H :    0.055432
  32 H :    0.037766
  33 H :    0.064527
Sum of atomic charges:    0.0000000

LOEWDIN ATOMIC CHARGES
----------------------
   0 S :    0.405810
   1 C :   -0.186823
   2 C :   -0.055379
   3 C :   -0.058736
   4 C :   -0.194532
   5 H :    0.026375
   6 C :   -0.032157
   7 H :    0.039517
   8 H :    0.029037
   9 C :   -0.040541
  10 H :    0.036445
  11 H :    0.021179
  12 C :   -0.066466
  13 H :    0.026203
  14 H :    0.019104
  15 H :    0.020676
  16 S :    0.360792
  17 C :   -0.156417
  18 C :   -0.075522
  19 C :   -0.051116
  20 C :   -0.206092
  21 H :    0.047257
  22 C :   -0.034661
  23 H :    0.032513
  24 H :    0.022339
  25 C :   -0.044175
  26 H :    0.034291
  27 H :    0.017887
  28 C :   -0.064655
  29 H :    0.019635
  30 H :    0.021692
  31 H :    0.039758
  32 H :    0.015770
  33 H :    0.030991

  Mayer bond orders larger than 0.100000
B(  0-S ,  1-C ) :   1.1404 B(  0-S ,  4-C ) :   1.1702 B(  1-C ,  2-C ) :   1.5849
B(  1-C ,  4-C ) :   0.1009 B(  1-C , 32-H ) :   0.9760 B(  2-C ,  3-C ) :   1.2462
B(  2-C ,  6-C ) :   1.0072 B(  3-C ,  4-C ) :   1.5770 B(  3-C ,  5-H ) :   0.9965
B(  4-C , 20-C ) :   1.0031 B(  6-C ,  7-H ) :   0.9226 B(  6-C ,  8-H ) :   0.9480
B(  6-C ,  9-C ) :   1.0886 B(  9-C , 10-H ) :   0.9614 B(  9-C , 11-H ) :   0.9506
B(  9-C , 12-C ) :   1.0656 B( 12-C , 13-H ) :   0.9754 B( 12-C , 14-H ) :   0.9752
B( 12-C , 15-H ) :   0.9698 B( 16-S , 17-C ) :   1.1292 B( 16-S , 20-C ) :   1.1196
B( 17-C , 18-C ) :   1.6404 B( 17-C , 33-H ) :   0.9668 B( 18-C , 19-C ) :   1.2162
B( 18-C , 21-H ) :   0.9743 B( 19-C , 20-C ) :   1.6325 B( 19-C , 22-C ) :   1.0443
B( 22-C , 23-H ) :   0.9266 B( 22-C , 24-H ) :   0.9314 B( 22-C , 25-C ) :   1.0447
B( 25-C , 26-H ) :   0.9578 B( 25-C , 27-H ) :   0.9499 B( 25-C , 28-C ) :   1.1002
B( 28-C , 29-H ) :   0.9653 B( 28-C , 30-H ) :   0.9669 B( 28-C , 31-H ) :   0.9730

Dispersion correction           -0.014840839
FINAL SINGLE POINT ENERGY     -1339.865192619571

DIPOLE MOMENT
-------------
                                X             Y             Z
Electronic contribution:      1.04501      18.51497       9.03138
Nuclear contribution   :     -1.31930     -19.05662      -9.13004
                        -----------------------------------------
Total Dipole Moment    :     -0.27429      -0.54165      -0.09866
                        -----------------------------------------
Magnitude (a.u.)       :      0.61511
Magnitude (Debye)      :      1.56348

Rotational constants in cm-1:     0.019779     0.008449     0.006818
Rotational constants in MHz :   592.968598   253.301231   204.386343

                             ****ORCA TERMINATED NORMALLY****
TOTAL RUN TIME: 0 days 0 hours 0 minutes 35 seconds 545 msec
