                         Program Version 4.2.1 -  RELEASE  -
|  1> ! wB97X-D3 SP def2-SVP
|  2> %pal
|  3> nprocs 16
|  4> end
|  5>
|  6> * xyz 0 1
|  7> S 	 -7.71919 	 75.4548 	 57.1602
|  8> C 	 -7.03298 	 74.1978 	 58.1528
|  9> C 	 -6.66433 	 73.0737 	 57.429
| 10> C 	 -6.91506 	 73.3123 	 56.015
| 11> C 	 -7.40855 	 74.5595 	 55.6951
| 12> H 	 -6.78842 	 72.4951 	 55.2885
| 13> C 	 -6.2442 	 71.7337 	 57.9173
| 14> H 	 -5.27905 	 71.9017 	 58.2927
| 15> H 	 -6.02108 	 71.0891 	 57.1046
| 16> C 	 -6.97447 	 71.089 	 59.0508
| 17> H 	 -6.92682 	 71.7952 	 59.8679
| 18> H 	 -8.05034 	 71.0843 	 58.7855
| 19> C 	 -6.54415 	 69.7407 	 59.3441
| 20> H 	 -7.2362 	 69.1738 	 59.9268
| 21> H 	 -6.44194 	 69.2391 	 58.3279
| 22> H 	 -5.5553 	 69.7333 	 59.7788
| 23> S 	 -8.98027 	 76.1735 	 54.1459
| 24> C 	 -8.4176 	 76.5394 	 52.544
| 25> C 	 -7.16521 	 76.0302 	 52.2728
| 26> C 	 -6.65135 	 75.2211 	 53.3044
| 27> C 	 -7.47071 	 75.2903 	 54.4518
| 28> H 	 -6.70383 	 76.1896 	 51.2855
| 29> C 	 -5.2552 	 74.7272 	 53.1872
| 30> H 	 -4.59828 	 74.9654 	 54.0113
| 31> H 	 -4.77259 	 75.1756 	 52.3162
| 32> C 	 -5.02044 	 73.3015 	 52.8935
| 33> H 	 -5.13489 	 72.6987 	 53.798
| 34> H 	 -4.02074 	 73.1287 	 52.6221
| 35> C 	 -5.91996 	 72.7025 	 51.8458
| 36> H 	 -5.81802 	 73.2405 	 50.9115
| 37> H 	 -6.95416 	 72.7424 	 52.1417
| 38> H 	 -5.58663 	 71.6538 	 51.661
| 39> H 	 -7.07327 	 74.2181 	 59.2026
| 40> H 	 -8.91344 	 77.1109 	 51.7144
| 41> *
| 42>
| 43>                          ****END OF INPUT****

CARTESIAN COORDINATES (ANGSTROEM)
---------------------------------
  S     -7.719190   75.454800   57.160200
  C     -7.032980   74.197800   58.152800
  C     -6.664330   73.073700   57.429000
  C     -6.915060   73.312300   56.015000
  C     -7.408550   74.559500   55.695100
  H     -6.788420   72.495100   55.288500
  C     -6.244200   71.733700   57.917300
  H     -5.279050   71.901700   58.292700
  H     -6.021080   71.089100   57.104600
  C     -6.974470   71.089000   59.050800
  H     -6.926820   71.795200   59.867900
  H     -8.050340   71.084300   58.785500
  C     -6.544150   69.740700   59.344100
  H     -7.236200   69.173800   59.926800
  H     -6.441940   69.239100   58.327900
  H     -5.555300   69.733300   59.778800
  S     -8.980270   76.173500   54.145900
  C     -8.417600   76.539400   52.544000
  C     -7.165210   76.030200   52.272800
  C     -6.651350   75.221100   53.304400
  C     -7.470710   75.290300   54.451800
  H     -6.703830   76.189600   51.285500
  C     -5.255200   74.727200   53.187200
  H     -4.598280   74.965400   54.011300
  H     -4.772590   75.175600   52.316200
  C     -5.020440   73.301500   52.893500
  H     -5.134890   72.698700   53.798000
  H     -4.020740   73.128700   52.622100
  C     -5.919960   72.702500   51.845800
  H     -5.818020   73.240500   50.911500
  H     -6.954160   72.742400   52.141700
  H     -5.586630   71.653800   51.661000
  H     -7.073270   74.218100   59.202600
  H     -8.913440   77.110900   51.714400

 Total Charge           Charge          ....    0
 Multiplicity           Mult            ....    1
 Number of Electrons    NEL             ....  134
 Basis Dimension        Dim             ....  322

ORBITAL ENERGIES
----------------

  NO   OCC          E(Eh)            E(eV)
   0   2.0000     -88.971469     -2421.0368
   1   2.0000     -88.962913     -2420.8039
   2   2.0000     -10.330330      -281.1026
   3   2.0000     -10.327001      -281.0120
   4   2.0000     -10.318958      -280.7931
   5   2.0000     -10.310224      -280.5554
   6   2.0000     -10.303710      -280.3782
   7   2.0000     -10.302250      -280.3385
   8   2.0000     -10.295958      -280.1673
   9   2.0000     -10.291906      -280.0570
  10   2.0000     -10.282368      -279.7974
  11   2.0000     -10.281000      -279.7602
  12   2.0000     -10.280242      -279.7396
  13   2.0000     -10.277755      -279.6719
  14   2.0000     -10.271402      -279.4991
  15   2.0000     -10.271134      -279.4918
  16   2.0000      -8.085793      -220.0256
  17   2.0000      -8.078164      -219.8180
  18   2.0000      -6.044243      -164.4722
  19   2.0000      -6.040407      -164.3678
  20   2.0000      -6.036752      -164.2684
  21   2.0000      -6.036592      -164.2640
  22   2.0000      -6.032583      -164.1549
  23   2.0000      -6.028838      -164.0530
  24   2.0000      -1.007659       -27.4198
  25   2.0000      -0.984556       -26.7911
  26   2.0000      -0.930559       -25.3218
  27   2.0000      -0.922539       -25.1036
  28   2.0000      -0.874792       -23.8043
  29   2.0000      -0.854033       -23.2394
  30   2.0000      -0.850645       -23.1472
  31   2.0000      -0.814098       -22.1527
  32   2.0000      -0.789629       -21.4869
  33   2.0000      -0.776438       -21.1279
  34   2.0000      -0.712783       -19.3958
  35   2.0000      -0.705452       -19.1963
  36   2.0000      -0.684255       -18.6195
  37   2.0000      -0.662589       -18.0300
  38   2.0000      -0.641073       -17.4445
  39   2.0000      -0.619529       -16.8582
  40   2.0000      -0.596496       -16.2315
  41   2.0000      -0.579492       -15.7688
  42   2.0000      -0.569818       -15.5055
  43   2.0000      -0.558005       -15.1841
  44   2.0000      -0.555554       -15.1174
  45   2.0000      -0.534448       -14.5431
  46   2.0000      -0.523350       -14.2411
  47   2.0000      -0.507059       -13.7978
  48   2.0000      -0.501716       -13.6524
  49   2.0000      -0.497167       -13.5286
  50   2.0000      -0.490855       -13.3568
  51   2.0000      -0.486316       -13.2333
  52   2.0000      -0.474792       -12.9197
  53   2.0000      -0.466812       -12.7026
  54   2.0000      -0.455878       -12.4051
  55   2.0000      -0.453579       -12.3425
  56   2.0000      -0.445698       -12.1281
  57   2.0000      -0.436187       -11.8692
  58   2.0000      -0.433460       -11.7950
  59   2.0000      -0.429754       -11.6942
  60   2.0000      -0.426776       -11.6132
  61   2.0000      -0.410515       -11.1707
  62   2.0000      -0.404320       -11.0021
  63   2.0000      -0.350068        -9.5258
  64   2.0000      -0.335715        -9.1353
  65   2.0000      -0.327672        -8.9164
  66   2.0000      -0.285428        -7.7669
  67   0.0000       0.023724         0.6456
  68   0.0000       0.070081         1.9070
  69   0.0000       0.102628         2.7927
  70   0.0000       0.124604         3.3906
  71   0.0000       0.128748         3.5034

MULLIKEN ATOMIC CHARGES
-----------------------
   0 S :    0.098052
   1 C :   -0.107889
   2 C :   -0.103497
   3 C :   -0.019690
   4 C :   -0.106540
   5 H :    0.025256
   6 C :    0.112188
   7 H :    0.011093
   8 H :   -0.006672
   9 C :   -0.067247
  10 H :    0.017260
  11 H :    0.027323
  12 C :   -0.016963
  13 H :    0.036372
  14 H :    0.026905
  15 H :    0.026643
  16 S :    0.117579
  17 C :   -0.093320
  18 C :   -0.058462
  19 C :   -0.024834
  20 C :   -0.138890
  21 H :    0.027182
  22 C :    0.079903
  23 H :    0.037188
  24 H :    0.010099
  25 C :   -0.058268
  26 H :    0.001255
  27 H :    0.007263
  28 C :   -0.050958
  29 H :    0.015801
  30 H :    0.043411
  31 H :    0.035593
  32 H :    0.028716
  33 H :    0.068148
Sum of atomic charges:    0.0000000

LOEWDIN ATOMIC CHARGES
----------------------
   0 S :    0.407850
   1 C :   -0.192990
   2 C :   -0.053392
   3 C :   -0.067228
   4 C :   -0.198247
   5 H :    0.031353
   6 C :   -0.034706
   7 H :    0.032707
   8 H :    0.023345
   9 C :   -0.045778
  10 H :    0.019756
  11 H :    0.026984
  12 C :   -0.059510
  13 H :    0.026075
  14 H :    0.034974
  15 H :    0.024451
  16 S :    0.409312
  17 C :   -0.200062
  18 C :   -0.073891
  19 C :   -0.052272
  20 C :   -0.190519
  21 H :    0.035810
  22 C :   -0.032241
  23 H :    0.037661
  24 H :    0.032890
  25 C :   -0.042565
  26 H :    0.014209
  27 H :    0.017429
  28 C :   -0.062784
  29 H :    0.018899
  30 H :    0.023983
  31 H :    0.031155
  32 H :    0.014566
  33 H :    0.042773

  Mayer bond orders larger than 0.100000
B(  0-S ,  1-C ) :   1.1420 B(  0-S ,  4-C ) :   1.1451 B(  1-C ,  2-C ) :   1.6062
B(  1-C , 32-H ) :   0.9739 B(  2-C ,  3-C ) :   1.2483 B(  2-C ,  6-C ) :   1.0241
B(  3-C ,  4-C ) :   1.5762 B(  3-C ,  5-H ) :   0.9882 B(  4-C , 20-C ) :   1.0216
B(  6-C ,  7-H ) :   0.9100 B(  6-C ,  8-H ) :   0.9349 B(  6-C ,  9-C ) :   1.0643
B(  9-C , 10-H ) :   0.9424 B(  9-C , 11-H ) :   0.9540 B(  9-C , 12-C ) :   1.1012
B( 12-C , 13-H ) :   0.9698 B( 12-C , 14-H ) :   0.9684 B( 12-C , 15-H ) :   0.9701
B( 16-S , 17-C ) :   1.1539 B( 16-S , 20-C ) :   1.1391 B( 17-C , 18-C ) :   1.6199
B( 17-C , 20-C ) :   0.1032 B( 17-C , 33-H ) :   0.9557 B( 18-C , 19-C ) :   1.2537
B( 18-C , 21-H ) :   0.9797 B( 19-C , 20-C ) :   1.5672 B( 19-C , 22-C ) :   1.0409
B( 22-C , 23-H ) :   0.9365 B( 22-C , 24-H ) :   0.9346 B( 22-C , 25-C ) :   1.0838
B( 25-C , 26-H ) :   0.9419 B( 25-C , 27-H ) :   0.9479 B( 25-C , 28-C ) :   1.0929
B( 28-C , 29-H ) :   0.9736 B( 28-C , 30-H ) :   0.9660 B( 28-C , 31-H ) :   0.9719

Dispersion correction           -0.014466941
FINAL SINGLE POINT ENERGY     -1339.870629365317

DIPOLE MOMENT
-------------
                                X             Y             Z
Electronic contribution:    -14.26518      24.99642      -0.09131
Nuclear contribution   :     14.70555     -25.51325      -0.03908
                        -----------------------------------------
Total Dipole Moment    :      0.44037      -0.51684      -0.13039
                        -----------------------------------------
Magnitude (a.u.)       :      0.69141
Magnitude (Debye)      :      1.75743

Rotational constants in cm-1:     0.021207     0.008206     0.006415
Rotational constants in MHz :   635.754909   246.007324   192.313025

                             ****ORCA TERMINATED NORMALLY****
TOTAL RUN TIME: 0 days 0 hours 0 minutes 34 seconds 943 msec
