                         Program Version 4.2.1 -  RELEASE  -
|  1> ! wB97X-D3 SP def2-SVP
|  2> %pal
|  3> nprocs 16
|  4> end
|  5>
|  6> * xyz 0 1
|  7> S 	 -73.752 	 43.1181 	 125.338
|  8> C 	 -73.7808 	 41.3569 	 125.544
|  9> C 	 -72.5245 	 40.8889 	 125.79
| 10> C 	 -71.5309 	 41.9226 	 125.851
| 11> C 	 -72.0061 	 43.2083 	 125.766
| 12> H 	 -70.4273 	 41.6964 	 125.898
| 13> C 	 -72.192 	 39.4573 	 125.826
| 14> H 	 -73.1051 	 38.8378 	 125.625
| 15> H 	 -72.0762 	 39.2987 	 126.857
| 16> C 	 -71.0651 	 39.0413 	 124.833
| 17> H 	 -70.2354 	 39.6369 	 125.16
| 18> H 	 -70.8143 	 38.0056 	 125.075
| 19> C 	 -71.3251 	 39.3569 	 123.348
| 20> H 	 -71.6522 	 40.392 	 123.163
| 21> H 	 -70.5072 	 39.1883 	 122.718
| 22> H 	 -72.1061 	 38.6026 	 123.11
| 23> S 	 -71.2544 	 45.0507 	 123.762
| 24> C 	 -70.0915 	 46.3075 	 124.166
| 25> C 	 -69.65 	 46.1933 	 125.435
| 26> C 	 -70.2901 	 45.1208 	 126.169
| 27> C 	 -71.2199 	 44.4152 	 125.44
| 28> H 	 -68.9873 	 46.9383 	 125.842
| 29> C 	 -70.0166 	 44.9774 	 127.642
| 30> H 	 -69.3673 	 44.0863 	 127.741
| 31> H 	 -70.9078 	 44.645 	 128.142
| 32> C 	 -69.3318 	 46.1578 	 128.435
| 33> H 	 -68.4232 	 46.555 	 127.923
| 34> H 	 -68.9636 	 45.7266 	 129.384
| 35> C 	 -70.3447 	 47.3502 	 128.759
| 36> H 	 -71.1188 	 46.9473 	 129.372
| 37> H 	 -70.8606 	 47.7176 	 127.909
| 38> H 	 -69.8159 	 48.2446 	 129.128
| 39> H 	 -74.5714 	 40.6915 	 125.352
| 40> H 	 -69.7915 	 47.0722 	 123.527
| 41> *
| 42>
| 43>                          ****END OF INPUT****

CARTESIAN COORDINATES (ANGSTROEM)
---------------------------------
  S    -73.752000   43.118100  125.338000
  C    -73.780800   41.356900  125.544000
  C    -72.524500   40.888900  125.790000
  C    -71.530900   41.922600  125.851000
  C    -72.006100   43.208300  125.766000
  H    -70.427300   41.696400  125.898000
  C    -72.192000   39.457300  125.826000
  H    -73.105100   38.837800  125.625000
  H    -72.076200   39.298700  126.857000
  C    -71.065100   39.041300  124.833000
  H    -70.235400   39.636900  125.160000
  H    -70.814300   38.005600  125.075000
  C    -71.325100   39.356900  123.348000
  H    -71.652200   40.392000  123.163000
  H    -70.507200   39.188300  122.718000
  H    -72.106100   38.602600  123.110000
  S    -71.254400   45.050700  123.762000
  C    -70.091500   46.307500  124.166000
  C    -69.650000   46.193300  125.435000
  C    -70.290100   45.120800  126.169000
  C    -71.219900   44.415200  125.440000
  H    -68.987300   46.938300  125.842000
  C    -70.016600   44.977400  127.642000
  H    -69.367300   44.086300  127.741000
  H    -70.907800   44.645000  128.142000
  C    -69.331800   46.157800  128.435000
  H    -68.423200   46.555000  127.923000
  H    -68.963600   45.726600  129.384000
  C    -70.344700   47.350200  128.759000
  H    -71.118800   46.947300  129.372000
  H    -70.860600   47.717600  127.909000
  H    -69.815900   48.244600  129.128000
  H    -74.571400   40.691500  125.352000
  H    -69.791500   47.072200  123.527000

 Total Charge           Charge          ....    0
 Multiplicity           Mult            ....    1
 Number of Electrons    NEL             ....  134
 Basis Dimension        Dim             ....  322

ORBITAL ENERGIES
----------------

  NO   OCC          E(Eh)            E(eV)
   0   2.0000     -88.963316     -2420.8149
   1   2.0000     -88.960926     -2420.7499
   2   2.0000     -10.334754      -281.2230
   3   2.0000     -10.328396      -281.0500
   4   2.0000     -10.311495      -280.5900
   5   2.0000     -10.311356      -280.5863
   6   2.0000     -10.303366      -280.3688
   7   2.0000     -10.301745      -280.3247
   8   2.0000     -10.300098      -280.2799
   9   2.0000     -10.295241      -280.1477
  10   2.0000     -10.292244      -280.0662
  11   2.0000     -10.289987      -280.0048
  12   2.0000     -10.289117      -279.9811
  13   2.0000     -10.288765      -279.9715
  14   2.0000     -10.278075      -279.6806
  15   2.0000     -10.275977      -279.6236
  16   2.0000      -8.077011      -219.7866
  17   2.0000      -8.075099      -219.7346
  18   2.0000      -6.035694      -164.2396
  19   2.0000      -6.033761      -164.1870
  20   2.0000      -6.031764      -164.1326
  21   2.0000      -6.029771      -164.0784
  22   2.0000      -6.027523      -164.0172
  23   2.0000      -6.025624      -163.9656
  24   2.0000      -1.001051       -27.2400
  25   2.0000      -0.981878       -26.7183
  26   2.0000      -0.913973       -24.8705
  27   2.0000      -0.898621       -24.4527
  28   2.0000      -0.870325       -23.6828
  29   2.0000      -0.843866       -22.9627
  30   2.0000      -0.838053       -22.8046
  31   2.0000      -0.820963       -22.3395
  32   2.0000      -0.783584       -21.3224
  33   2.0000      -0.774399       -21.0725
  34   2.0000      -0.714889       -19.4531
  35   2.0000      -0.702991       -19.1293
  36   2.0000      -0.697655       -18.9842
  37   2.0000      -0.655109       -17.8264
  38   2.0000      -0.637560       -17.3489
  39   2.0000      -0.621232       -16.9046
  40   2.0000      -0.600497       -16.3404
  41   2.0000      -0.569353       -15.4929
  42   2.0000      -0.559989       -15.2381
  43   2.0000      -0.545844       -14.8532
  44   2.0000      -0.539190       -14.6721
  45   2.0000      -0.525016       -14.2864
  46   2.0000      -0.522537       -14.2190
  47   2.0000      -0.509556       -13.8657
  48   2.0000      -0.504887       -13.7387
  49   2.0000      -0.498448       -13.5635
  50   2.0000      -0.486318       -13.2334
  51   2.0000      -0.479193       -13.0395
  52   2.0000      -0.471616       -12.8333
  53   2.0000      -0.467355       -12.7174
  54   2.0000      -0.458208       -12.4685
  55   2.0000      -0.449138       -12.2217
  56   2.0000      -0.446216       -12.1421
  57   2.0000      -0.442685       -12.0461
  58   2.0000      -0.431858       -11.7514
  59   2.0000      -0.424745       -11.5579
  60   2.0000      -0.416134       -11.3236
  61   2.0000      -0.414093       -11.2681
  62   2.0000      -0.404837       -11.0162
  63   2.0000      -0.345694        -9.4068
  64   2.0000      -0.325978        -8.8703
  65   2.0000      -0.324345        -8.8259
  66   2.0000      -0.301833        -8.2133
  67   0.0000       0.030090         0.8188
  68   0.0000       0.065383         1.7792
  69   0.0000       0.115346         3.1387
  70   0.0000       0.126737         3.4487
  71   0.0000       0.135064         3.6753

MULLIKEN ATOMIC CHARGES
-----------------------
   0 S :    0.083265
   1 C :   -0.084196
   2 C :   -0.125533
   3 C :    0.018277
   4 C :   -0.156520
   5 H :    0.044054
   6 C :    0.074515
   7 H :    0.009622
   8 H :    0.029534
   9 C :   -0.074787
  10 H :    0.015055
  11 H :    0.033878
  12 C :   -0.030107
  13 H :    0.056082
  14 H :    0.029430
  15 H :    0.031491
  16 S :    0.092060
  17 C :   -0.059035
  18 C :   -0.026436
  19 C :   -0.043118
  20 C :   -0.149330
  21 H :    0.014887
  22 C :    0.060198
  23 H :    0.033828
  24 H :    0.026348
  25 C :   -0.096363
  26 H :    0.035721
  27 H :    0.036009
  28 C :   -0.034745
  29 H :    0.030476
  30 H :    0.023585
  31 H :    0.040685
  32 H :    0.029007
  33 H :    0.032165
Sum of atomic charges:   -0.0000000

LOEWDIN ATOMIC CHARGES
----------------------
   0 S :    0.370937
   1 C :   -0.176467
   2 C :   -0.071756
   3 C :   -0.056559
   4 C :   -0.184707
   5 H :    0.041566
   6 C :   -0.033986
   7 H :    0.029038
   8 H :    0.030468
   9 C :   -0.035596
  10 H :    0.014112
  11 H :    0.026714
  12 C :   -0.058895
  13 H :    0.034958
  14 H :    0.020264
  15 H :    0.031091
  16 S :    0.375029
  17 C :   -0.162653
  18 C :   -0.073620
  19 C :   -0.053117
  20 C :   -0.192232
  21 H :    0.030488
  22 C :   -0.037093
  23 H :    0.038362
  24 H :    0.030544
  25 C :   -0.038520
  26 H :    0.022854
  27 H :    0.028772
  28 C :   -0.065499
  29 H :    0.023908
  30 H :    0.020383
  31 H :    0.030223
  32 H :    0.021890
  33 H :    0.019097

  Mayer bond orders larger than 0.100000
B(  0-S ,  1-C ) :   1.1224 B(  0-S ,  4-C ) :   1.1310 B(  1-C ,  2-C ) :   1.6338
B(  1-C , 32-H ) :   0.9690 B(  2-C ,  3-C ) :   1.2304 B(  2-C ,  6-C ) :   1.0194
B(  3-C ,  4-C ) :   1.5987 B(  3-C ,  5-H ) :   0.9775 B(  4-C , 20-C ) :   1.0237
B(  6-C ,  7-H ) :   0.9407 B(  6-C ,  8-H ) :   0.9331 B(  6-C ,  9-C ) :   1.0548
B(  9-C , 10-H ) :   0.9565 B(  9-C , 11-H ) :   0.9578 B(  9-C , 12-C ) :   1.0652
B( 12-C , 13-H ) :   0.9718 B( 12-C , 14-H ) :   0.9750 B( 12-C , 15-H ) :   0.9776
B( 16-S , 17-C ) :   1.1420 B( 16-S , 20-C ) :   1.1086 B( 17-C , 18-C ) :   1.6475
B( 17-C , 33-H ) :   0.9684 B( 18-C , 19-C ) :   1.2162 B( 18-C , 21-H ) :   0.9858
B( 19-C , 20-C ) :   1.6482 B( 19-C , 22-C ) :   1.0348 B( 22-C , 23-H ) :   0.9196
B( 22-C , 24-H ) :   0.9370 B( 22-C , 25-C ) :   1.0757 B( 25-C , 26-H ) :   0.9533
B( 25-C , 27-H ) :   0.9557 B( 25-C , 28-C ) :   1.0622 B( 28-C , 29-H ) :   0.9756
B( 28-C , 30-H ) :   0.9788 B( 28-C , 31-H ) :   0.9768

Dispersion correction           -0.014534874
FINAL SINGLE POINT ENERGY     -1339.869669750347

DIPOLE MOMENT
-------------
                                X             Y             Z
Electronic contribution:    -10.88167       7.18593     -10.31903
Nuclear contribution   :     11.38542      -7.52011      10.55354
                        -----------------------------------------
Total Dipole Moment    :      0.50375      -0.33419       0.23451
                        -----------------------------------------
Magnitude (a.u.)       :      0.64841
Magnitude (Debye)      :      1.64813

Rotational constants in cm-1:     0.021808     0.007541     0.007076
Rotational constants in MHz :   653.788235   226.059802   212.118217

                             ****ORCA TERMINATED NORMALLY****
TOTAL RUN TIME: 0 days 0 hours 0 minutes 34 seconds 349 msec
