                         Program Version 4.2.1 -  RELEASE  -
|  1> ! wB97X-D3 SP def2-SVP
|  2> %pal
|  3> nprocs 16
|  4> end
|  5>
|  6> * xyz 0 1
|  7> S 	 -41.7838 	 51.9079 	 102.029
|  8> C 	 -41.4522 	 51.5799 	 103.64
|  9> C 	 -42.0043 	 52.5341 	 104.485
| 10> C 	 -42.8916 	 53.4141 	 103.791
| 11> C 	 -42.7516 	 53.2727 	 102.451
| 12> H 	 -43.4779 	 54.1641 	 104.202
| 13> C 	 -42.1102 	 52.5411 	 106.001
| 14> H 	 -42.0368 	 53.5684 	 106.396
| 15> H 	 -41.1508 	 52.2565 	 106.318
| 16> C 	 -43.2072 	 51.6368 	 106.71
| 17> H 	 -43.1995 	 51.7707 	 107.815
| 18> H 	 -44.2557 	 51.819 	 106.448
| 19> C 	 -42.9496 	 50.1155 	 106.456
| 20> H 	 -43.292 	 49.8404 	 105.452
| 21> H 	 -41.9823 	 49.6989 	 106.722
| 22> H 	 -43.7038 	 49.5213 	 107.002
| 23> S 	 -44.4126 	 52.8363 	 100.154
| 24> C 	 -45.065 	 54.2171 	 99.3381
| 25> C 	 -44.7737 	 55.4023 	 99.9781
| 26> C 	 -43.9617 	 55.2309 	 101.139
| 27> C 	 -43.7018 	 53.8531 	 101.478
| 28> H 	 -45.1993 	 56.2586 	 99.4105
| 29> C 	 -43.3439 	 56.4103 	 101.869
| 30> H 	 -43.0263 	 57.0841 	 101.082
| 31> H 	 -42.3306 	 56.2376 	 102.297
| 32> C 	 -44.3037 	 57.1408 	 102.765
| 33> H 	 -44.625 	 56.3227 	 103.401
| 34> H 	 -45.119 	 57.4376 	 102.082
| 35> C 	 -43.6674 	 58.2526 	 103.512
| 36> H 	 -43.0028 	 57.9484 	 104.335
| 37> H 	 -44.5653 	 58.8012 	 103.933
| 38> H 	 -43.0447 	 58.902 	 102.85
| 39> H 	 -40.8926 	 50.7404 	 103.977
| 40> H 	 -45.5739 	 54.2662 	 98.3732
| 41> *
| 42>
| 43>                          ****END OF INPUT****

CARTESIAN COORDINATES (ANGSTROEM)
---------------------------------
  S    -41.783800   51.907900  102.029000
  C    -41.452200   51.579900  103.640000
  C    -42.004300   52.534100  104.485000
  C    -42.891600   53.414100  103.791000
  C    -42.751600   53.272700  102.451000
  H    -43.477900   54.164100  104.202000
  C    -42.110200   52.541100  106.001000
  H    -42.036800   53.568400  106.396000
  H    -41.150800   52.256500  106.318000
  C    -43.207200   51.636800  106.710000
  H    -43.199500   51.770700  107.815000
  H    -44.255700   51.819000  106.448000
  C    -42.949600   50.115500  106.456000
  H    -43.292000   49.840400  105.452000
  H    -41.982300   49.698900  106.722000
  H    -43.703800   49.521300  107.002000
  S    -44.412600   52.836300  100.154000
  C    -45.065000   54.217100   99.338100
  C    -44.773700   55.402300   99.978100
  C    -43.961700   55.230900  101.139000
  C    -43.701800   53.853100  101.478000
  H    -45.199300   56.258600   99.410500
  C    -43.343900   56.410300  101.869000
  H    -43.026300   57.084100  101.082000
  H    -42.330600   56.237600  102.297000
  C    -44.303700   57.140800  102.765000
  H    -44.625000   56.322700  103.401000
  H    -45.119000   57.437600  102.082000
  C    -43.667400   58.252600  103.512000
  H    -43.002800   57.948400  104.335000
  H    -44.565300   58.801200  103.933000
  H    -43.044700   58.902000  102.850000
  H    -40.892600   50.740400  103.977000
  H    -45.573900   54.266200   98.373200

 Total Charge           Charge          ....    0
 Multiplicity           Mult            ....    1
 Number of Electrons    NEL             ....  134
 Basis Dimension        Dim             ....  322

ORBITAL ENERGIES
----------------

  NO   OCC          E(Eh)            E(eV)
   0   2.0000     -88.967506     -2420.9289
   1   2.0000     -88.965044     -2420.8619
   2   2.0000     -10.334038      -281.2035
   3   2.0000     -10.322991      -280.9029
   4   2.0000     -10.314935      -280.6837
   5   2.0000     -10.310858      -280.5727
   6   2.0000     -10.309340      -280.5314
   7   2.0000     -10.298942      -280.2485
   8   2.0000     -10.298853      -280.2460
   9   2.0000     -10.294949      -280.1398
  10   2.0000     -10.291754      -280.0529
  11   2.0000     -10.285018      -279.8696
  12   2.0000     -10.284097      -279.8445
  13   2.0000     -10.282975      -279.8140
  14   2.0000     -10.280436      -279.7449
  15   2.0000     -10.279256      -279.7128
  16   2.0000      -8.084113      -219.9799
  17   2.0000      -8.078867      -219.8371
  18   2.0000      -6.042382      -164.4216
  19   2.0000      -6.038352      -164.3119
  20   2.0000      -6.037412      -164.2863
  21   2.0000      -6.035005      -164.2208
  22   2.0000      -6.033412      -164.1775
  23   2.0000      -6.029730      -164.0773
  24   2.0000      -1.013259       -27.5722
  25   2.0000      -0.981148       -26.6984
  26   2.0000      -0.916613       -24.9423
  27   2.0000      -0.902464       -24.5573
  28   2.0000      -0.869532       -23.6612
  29   2.0000      -0.853382       -23.2217
  30   2.0000      -0.846503       -23.0345
  31   2.0000      -0.814639       -22.1675
  32   2.0000      -0.782232       -21.2856
  33   2.0000      -0.768812       -20.9204
  34   2.0000      -0.706293       -19.2192
  35   2.0000      -0.699530       -19.0352
  36   2.0000      -0.690853       -18.7991
  37   2.0000      -0.659893       -17.9566
  38   2.0000      -0.640375       -17.4255
  39   2.0000      -0.624129       -16.9834
  40   2.0000      -0.592461       -16.1217
  41   2.0000      -0.570765       -15.5313
  42   2.0000      -0.565371       -15.3845
  43   2.0000      -0.541515       -14.7354
  44   2.0000      -0.539665       -14.6850
  45   2.0000      -0.528601       -14.3840
  46   2.0000      -0.519096       -14.1253
  47   2.0000      -0.508622       -13.8403
  48   2.0000      -0.502137       -13.6638
  49   2.0000      -0.497781       -13.5453
  50   2.0000      -0.491792       -13.3823
  51   2.0000      -0.483210       -13.1488
  52   2.0000      -0.468686       -12.7536
  53   2.0000      -0.461569       -12.5599
  54   2.0000      -0.456705       -12.4276
  55   2.0000      -0.447339       -12.1727
  56   2.0000      -0.441195       -12.0055
  57   2.0000      -0.437999       -11.9186
  58   2.0000      -0.430276       -11.7084
  59   2.0000      -0.422122       -11.4865
  60   2.0000      -0.418311       -11.3828
  61   2.0000      -0.412871       -11.2348
  62   2.0000      -0.403828       -10.9887
  63   2.0000      -0.352885        -9.6025
  64   2.0000      -0.330294        -8.9878
  65   2.0000      -0.328893        -8.9496
  66   2.0000      -0.288278        -7.8444
  67   0.0000       0.027568         0.7502
  68   0.0000       0.074474         2.0266
  69   0.0000       0.114071         3.1040
  70   0.0000       0.123335         3.3561
  71   0.0000       0.129446         3.5224

MULLIKEN ATOMIC CHARGES
-----------------------
   0 S :    0.126085
   1 C :   -0.112087
   2 C :   -0.095391
   3 C :    0.031778
   4 C :   -0.113164
   5 H :   -0.009955
   6 C :    0.093082
   7 H :    0.021306
   8 H :   -0.005767
   9 C :   -0.050319
  10 H :    0.035561
  11 H :    0.033506
  12 C :   -0.079884
  13 H :    0.036818
  14 H :    0.038005
  15 H :    0.022739
  16 S :    0.093866
  17 C :   -0.108390
  18 C :   -0.047090
  19 C :   -0.043188
  20 C :   -0.139224
  21 H :    0.033815
  22 C :    0.025959
  23 H :    0.008370
  24 H :    0.028763
  25 C :   -0.063708
  26 H :    0.023979
  27 H :    0.032157
  28 C :   -0.038437
  29 H :    0.039097
  30 H :    0.046743
  31 H :    0.033251
  32 H :    0.041365
  33 H :    0.060359
Sum of atomic charges:   -0.0000000

LOEWDIN ATOMIC CHARGES
----------------------
   0 S :    0.449494
   1 C :   -0.207999
   2 C :   -0.066377
   3 C :   -0.041203
   4 C :   -0.204028
   5 H :    0.022041
   6 C :   -0.039816
   7 H :    0.034088
   8 H :    0.022003
   9 C :   -0.034275
  10 H :    0.028195
  11 H :    0.026639
  12 C :   -0.076181
  13 H :    0.027320
  14 H :    0.021678
  15 H :    0.028709
  16 S :    0.383342
  17 C :   -0.196016
  18 C :   -0.086552
  19 C :   -0.049594
  20 C :   -0.183424
  21 H :    0.042490
  22 C :   -0.045791
  23 H :    0.025179
  24 H :    0.031152
  25 C :   -0.047768
  26 H :    0.022729
  27 H :    0.029110
  28 C :   -0.070045
  29 H :    0.028695
  30 H :    0.037826
  31 H :    0.028116
  32 H :    0.024459
  33 H :    0.035806

  Mayer bond orders larger than 0.100000
B(  0-S ,  1-C ) :   1.1661 B(  0-S ,  4-C ) :   1.1575 B(  1-C ,  2-C ) :   1.5767
B(  1-C , 32-H ) :   0.9743 B(  2-C ,  3-C ) :   1.2476 B(  2-C ,  6-C ) :   1.0403
B(  3-C ,  4-C ) :   1.5545 B(  3-C ,  5-H ) :   1.0094 B(  4-C , 20-C ) :   1.0455
B(  6-C ,  7-H ) :   0.9388 B(  6-C ,  8-H ) :   0.9296 B(  6-C ,  9-C ) :   1.0449
B(  9-C , 10-H ) :   0.9590 B(  9-C , 11-H ) :   0.9607 B(  9-C , 12-C ) :   1.0769
B( 12-C , 13-H ) :   0.9730 B( 12-C , 14-H ) :   0.9786 B( 12-C , 15-H ) :   0.9701
B( 16-S , 17-C ) :   1.1610 B( 16-S , 20-C ) :   1.1227 B( 17-C , 18-C ) :   1.6306
B( 17-C , 33-H ) :   0.9589 B( 18-C , 19-C ) :   1.2408 B( 18-C , 21-H ) :   0.9844
B( 19-C , 20-C ) :   1.5669 B( 19-C , 22-C ) :   1.0447 B( 22-C , 23-H ) :   0.9263
B( 22-C , 24-H ) :   0.9380 B( 22-C , 25-C ) :   1.0518 B( 25-C , 26-H ) :   0.9517
B( 25-C , 27-H ) :   0.9532 B( 25-C , 28-C ) :   1.0866 B( 28-C , 29-H ) :   0.9712
B( 28-C , 30-H ) :   0.9717 B( 28-C , 31-H ) :   0.9701

Dispersion correction           -0.014314023
FINAL SINGLE POINT ENERGY     -1339.856191358862

DIPOLE MOMENT
-------------
                                X             Y             Z
Electronic contribution:      1.79512     -11.17658     -22.41296
Nuclear contribution   :     -1.83286      11.46814      22.78349
                        -----------------------------------------
Total Dipole Moment    :     -0.03774       0.29155       0.37054
                        -----------------------------------------
Magnitude (a.u.)       :      0.47300
Magnitude (Debye)      :      1.20226

Rotational constants in cm-1:     0.017985     0.008813     0.006702
Rotational constants in MHz :   539.168193   264.217137   200.906292

                             ****ORCA TERMINATED NORMALLY****
TOTAL RUN TIME: 0 days 0 hours 0 minutes 29 seconds 812 msec
