                         Program Version 4.2.1 -  RELEASE  -
|  1> ! wB97X-D3 SP def2-SVP
|  2> %pal
|  3> nprocs 16
|  4> end
|  5>
|  6> * xyz 0 1
|  7> S 	 -32.333 	 59.9416 	 108.337
|  8> C 	 -30.7416 	 59.5558 	 108.952
|  9> C 	 -29.863 	 60.589 	 108.714
| 10> C 	 -30.4692 	 61.7391 	 108.16
| 11> C 	 -31.7414 	 61.5021 	 107.719
| 12> H 	 -30.0567 	 62.6704 	 107.989
| 13> C 	 -28.3365 	 60.4396 	 108.962
| 14> H 	 -27.9192 	 59.5978 	 108.383
| 15> H 	 -28.2247 	 60.0532 	 109.979
| 16> C 	 -27.4765 	 61.6572 	 108.719
| 17> H 	 -27.6676 	 62.517 	 109.344
| 18> H 	 -26.4502 	 61.4411 	 109.007
| 19> C 	 -27.3826 	 62.2125 	 107.277
| 20> H 	 -28.1267 	 63.0039 	 107.18
| 21> H 	 -26.4532 	 62.7245 	 107.035
| 22> H 	 -27.7484 	 61.5199 	 106.48
| 23> S 	 -34.3259 	 62.6429 	 107.718
| 24> C 	 -34.6747 	 64.0113 	 106.591
| 25> C 	 -33.6501 	 64.1642 	 105.689
| 26> C 	 -32.4887 	 63.3014 	 105.989
| 27> C 	 -32.6869 	 62.4478 	 107.099
| 28> H 	 -33.8062 	 64.8404 	 104.85
| 29> C 	 -31.2498 	 63.4368 	 105.213
| 30> H 	 -31.3007 	 62.7459 	 104.346
| 31> H 	 -30.4213 	 63.0734 	 105.763
| 32> C 	 -30.8264 	 64.788 	 104.601
| 33> H 	 -30.6092 	 65.5253 	 105.355
| 34> H 	 -31.5617 	 65.1663 	 103.937
| 35> C 	 -29.5021 	 64.6135 	 103.869
| 36> H 	 -29.6544 	 63.7174 	 103.212
| 37> H 	 -28.7144 	 64.4358 	 104.631
| 38> H 	 -29.2836 	 65.5414 	 103.362
| 39> H 	 -30.4848 	 58.677 	 109.542
| 40> H 	 -35.6419 	 64.4287 	 106.549
| 41> *
| 42>
| 43>                          ****END OF INPUT****

CARTESIAN COORDINATES (ANGSTROEM)
---------------------------------
  S    -32.333000   59.941600  108.337000
  C    -30.741600   59.555800  108.952000
  C    -29.863000   60.589000  108.714000
  C    -30.469200   61.739100  108.160000
  C    -31.741400   61.502100  107.719000
  H    -30.056700   62.670400  107.989000
  C    -28.336500   60.439600  108.962000
  H    -27.919200   59.597800  108.383000
  H    -28.224700   60.053200  109.979000
  C    -27.476500   61.657200  108.719000
  H    -27.667600   62.517000  109.344000
  H    -26.450200   61.441100  109.007000
  C    -27.382600   62.212500  107.277000
  H    -28.126700   63.003900  107.180000
  H    -26.453200   62.724500  107.035000
  H    -27.748400   61.519900  106.480000
  S    -34.325900   62.642900  107.718000
  C    -34.674700   64.011300  106.591000
  C    -33.650100   64.164200  105.689000
  C    -32.488700   63.301400  105.989000
  C    -32.686900   62.447800  107.099000
  H    -33.806200   64.840400  104.850000
  C    -31.249800   63.436800  105.213000
  H    -31.300700   62.745900  104.346000
  H    -30.421300   63.073400  105.763000
  C    -30.826400   64.788000  104.601000
  H    -30.609200   65.525300  105.355000
  H    -31.561700   65.166300  103.937000
  C    -29.502100   64.613500  103.869000
  H    -29.654400   63.717400  103.212000
  H    -28.714400   64.435800  104.631000
  H    -29.283600   65.541400  103.362000
  H    -30.484800   58.677000  109.542000
  H    -35.641900   64.428700  106.549000

 Total Charge           Charge          ....    0
 Multiplicity           Mult            ....    1
 Number of Electrons    NEL             ....  134
 Basis Dimension        Dim             ....  322

ORBITAL ENERGIES
----------------

  NO   OCC          E(Eh)            E(eV)
   0   2.0000     -88.965767     -2420.8816
   1   2.0000     -88.962382     -2420.7895
   2   2.0000     -10.331974      -281.1473
   3   2.0000     -10.331851      -281.1440
   4   2.0000     -10.320265      -280.8287
   5   2.0000     -10.313030      -280.6318
   6   2.0000     -10.309202      -280.5277
   7   2.0000     -10.301915      -280.3294
   8   2.0000     -10.301075      -280.3065
   9   2.0000     -10.298104      -280.2256
  10   2.0000     -10.289261      -279.9850
  11   2.0000     -10.288277      -279.9583
  12   2.0000     -10.285605      -279.8855
  13   2.0000     -10.282795      -279.8091
  14   2.0000     -10.282426      -279.7990
  15   2.0000     -10.281326      -279.7691
  16   2.0000      -8.080064      -219.8697
  17   2.0000      -8.076237      -219.7656
  18   2.0000      -6.038570      -164.3178
  19   2.0000      -6.034958      -164.2196
  20   2.0000      -6.034663      -164.2115
  21   2.0000      -6.030899      -164.1091
  22   2.0000      -6.030821      -164.1070
  23   2.0000      -6.026785      -163.9971
  24   2.0000      -1.002655       -27.2836
  25   2.0000      -0.977607       -26.6020
  26   2.0000      -0.915000       -24.8984
  27   2.0000      -0.909601       -24.7515
  28   2.0000      -0.870468       -23.6867
  29   2.0000      -0.851814       -23.1790
  30   2.0000      -0.842939       -22.9375
  31   2.0000      -0.822936       -22.3932
  32   2.0000      -0.785081       -21.3631
  33   2.0000      -0.766587       -20.8599
  34   2.0000      -0.708392       -19.2763
  35   2.0000      -0.701762       -19.0959
  36   2.0000      -0.693785       -18.8789
  37   2.0000      -0.655400       -17.8343
  38   2.0000      -0.645431       -17.5631
  39   2.0000      -0.627452       -17.0738
  40   2.0000      -0.602821       -16.4036
  41   2.0000      -0.577689       -15.7197
  42   2.0000      -0.568329       -15.4650
  43   2.0000      -0.552353       -15.0303
  44   2.0000      -0.533989       -14.5306
  45   2.0000      -0.531992       -14.4762
  46   2.0000      -0.519783       -14.1440
  47   2.0000      -0.512333       -13.9413
  48   2.0000      -0.504086       -13.7169
  49   2.0000      -0.496800       -13.5186
  50   2.0000      -0.493854       -13.4384
  51   2.0000      -0.481738       -13.1088
  52   2.0000      -0.468746       -12.7552
  53   2.0000      -0.466829       -12.7031
  54   2.0000      -0.456247       -12.4151
  55   2.0000      -0.453261       -12.3339
  56   2.0000      -0.447885       -12.1876
  57   2.0000      -0.436759       -11.8848
  58   2.0000      -0.432127       -11.7588
  59   2.0000      -0.427933       -11.6447
  60   2.0000      -0.425431       -11.5766
  61   2.0000      -0.415180       -11.2976
  62   2.0000      -0.407383       -11.0855
  63   2.0000      -0.351602        -9.5676
  64   2.0000      -0.331319        -9.0157
  65   2.0000      -0.322092        -8.7646
  66   2.0000      -0.288915        -7.8618
  67   0.0000       0.024941         0.6787
  68   0.0000       0.070678         1.9232
  69   0.0000       0.105109         2.8602
  70   0.0000       0.116578         3.1723
  71   0.0000       0.124201         3.3797

MULLIKEN ATOMIC CHARGES
-----------------------
   0 S :    0.103993
   1 C :   -0.128813
   2 C :   -0.067189
   3 C :    0.059111
   4 C :   -0.158346
   5 H :   -0.016992
   6 C :    0.073336
   7 H :    0.042628
   8 H :    0.027955
   9 C :   -0.068323
  10 H :    0.025747
  11 H :    0.023391
  12 C :   -0.077638
  13 H :    0.013867
  14 H :    0.039738
  15 H :    0.047615
  16 S :    0.081306
  17 C :   -0.087087
  18 C :   -0.023628
  19 C :   -0.034833
  20 C :   -0.123563
  21 H :    0.031934
  22 C :    0.062506
  23 H :    0.032415
  24 H :   -0.019051
  25 C :   -0.064413
  26 H :    0.025213
  27 H :    0.023124
  28 C :   -0.055131
  29 H :    0.036172
  30 H :    0.036343
  31 H :    0.036851
  32 H :    0.051440
  33 H :    0.050322
Sum of atomic charges:   -0.0000000

LOEWDIN ATOMIC CHARGES
----------------------
   0 S :    0.392833
   1 C :   -0.198172
   2 C :   -0.061217
   3 C :   -0.054005
   4 C :   -0.173261
   5 H :    0.019651
   6 C :   -0.032642
   7 H :    0.038374
   8 H :    0.034845
   9 C :   -0.050361
  10 H :    0.024572
  11 H :    0.028574
  12 C :   -0.074001
  13 H :    0.016203
  14 H :    0.028648
  15 H :    0.032759
  16 S :    0.368957
  17 C :   -0.156164
  18 C :   -0.066810
  19 C :   -0.051092
  20 C :   -0.198444
  21 H :    0.035664
  22 C :   -0.040853
  23 H :    0.039843
  24 H :    0.021493
  25 C :   -0.035367
  26 H :    0.021847
  27 H :    0.014426
  28 C :   -0.060646
  29 H :    0.028478
  30 H :    0.027221
  31 H :    0.025454
  32 H :    0.032090
  33 H :    0.021102

  Mayer bond orders larger than 0.100000
B(  0-S ,  1-C ) :   1.1363 B(  0-S ,  4-C ) :   1.1435 B(  1-C ,  2-C ) :   1.6214
B(  1-C ,  4-C ) :   0.1011 B(  1-C , 32-H ) :   0.9718 B(  2-C ,  3-C ) :   1.2445
B(  2-C ,  6-C ) :   0.9937 B(  3-C ,  4-C ) :   1.5806 B(  3-C ,  5-H ) :   0.9952
B(  4-C , 20-C ) :   1.0488 B(  6-C ,  7-H ) :   0.9432 B(  6-C ,  8-H ) :   0.9342
B(  6-C ,  9-C ) :   1.0928 B(  9-C , 10-H ) :   0.9554 B(  9-C , 11-H ) :   0.9533
B(  9-C , 12-C ) :   1.0582 B( 12-C , 13-H ) :   0.9770 B( 12-C , 14-H ) :   0.9712
B( 12-C , 15-H ) :   0.9783 B( 16-S , 17-C ) :   1.1351 B( 16-S , 20-C ) :   1.1191
B( 17-C , 18-C ) :   1.6367 B( 17-C , 33-H ) :   0.9719 B( 18-C , 19-C ) :   1.2027
B( 18-C , 21-H ) :   0.9873 B( 19-C , 20-C ) :   1.5979 B( 19-C , 22-C ) :   1.0682
B( 22-C , 23-H ) :   0.9067 B( 22-C , 24-H ) :   0.9294 B( 22-C , 25-C ) :   1.0773
B( 25-C , 26-H ) :   0.9543 B( 25-C , 27-H ) :   0.9457 B( 25-C , 28-C ) :   1.0869
B( 28-C , 29-H ) :   0.9737 B( 28-C , 30-H ) :   0.9758 B( 28-C , 31-H ) :   0.9715

Dispersion correction           -0.014770449
FINAL SINGLE POINT ENERGY     -1339.872404600231

DIPOLE MOMENT
-------------
                                X             Y             Z
Electronic contribution:    -27.96864     -11.17971      11.76379
Nuclear contribution   :     28.60522      11.52556     -12.00980
                        -----------------------------------------
Total Dipole Moment    :      0.63658       0.34585      -0.24601
                        -----------------------------------------
Magnitude (a.u.)       :      0.76509
Magnitude (Debye)      :      1.94470

Rotational constants in cm-1:     0.015479     0.011013     0.006840
Rotational constants in MHz :   464.051241   330.164728   205.044532

                             ****ORCA TERMINATED NORMALLY****
TOTAL RUN TIME: 0 days 0 hours 0 minutes 28 seconds 357 msec
