                         Program Version 4.2.1 -  RELEASE  -
|  1> ! wB97X-D3 SP def2-SVP
|  2> %pal
|  3> nprocs 16
|  4> end
|  5>
|  6> * xyz 0 1
|  7> S 	 -30.4513 	 54.429 	 112.563
|  8> C 	 -31.7382 	 54.7083 	 111.395
|  9> C 	 -31.8673 	 53.5938 	 110.569
| 10> C 	 -30.9375 	 52.5675 	 110.935
| 11> C 	 -29.954 	 52.8723 	 111.887
| 12> H 	 -30.9697 	 51.5883 	 110.423
| 13> C 	 -32.9193 	 53.4073 	 109.508
| 14> H 	 -33.0539 	 52.3773 	 109.415
| 15> H 	 -32.4853 	 53.5836 	 108.527
| 16> C 	 -34.2107 	 54.1574 	 109.77
| 17> H 	 -34.4641 	 54.0089 	 110.842
| 18> H 	 -33.9936 	 55.2171 	 109.534
| 19> C 	 -35.404 	 53.7138 	 108.916
| 20> H 	 -35.7127 	 52.7416 	 109.318
| 21> H 	 -36.2734 	 54.3504 	 108.898
| 22> H 	 -35.1189 	 53.5496 	 107.897
| 23> S 	 -28.6137 	 52.1452 	 114.151
| 24> C 	 -27.4457 	 50.8707 	 114.156
| 25> C 	 -27.1037 	 50.4496 	 112.82
| 26> C 	 -27.9387 	 51.1555 	 111.86
| 27> C 	 -28.8602 	 52.086 	 112.435
| 28> H 	 -26.278 	 49.7304 	 112.695
| 29> C 	 -27.874 	 50.8603 	 110.415
| 30> H 	 -26.8204 	 50.9822 	 110.093
| 31> H 	 -28.5276 	 51.5835 	 109.906
| 32> C 	 -28.3421 	 49.4652 	 110.048
| 33> H 	 -29.4144 	 49.3153 	 110.125
| 34> H 	 -28.022 	 48.8007 	 110.904
| 35> C 	 -27.6762 	 48.9133 	 108.795
| 36> H 	 -27.7558 	 49.6228 	 107.929
| 37> H 	 -28.1434 	 47.9797 	 108.396
| 38> H 	 -26.6296 	 48.7922 	 108.905
| 39> H 	 -32.4302 	 55.4855 	 111.393
| 40> H 	 -27.0038 	 50.5386 	 115.092
| 41> *
| 42>
| 43>                          ****END OF INPUT****

CARTESIAN COORDINATES (ANGSTROEM)
---------------------------------
  S    -30.451300   54.429000  112.563000
  C    -31.738200   54.708300  111.395000
  C    -31.867300   53.593800  110.569000
  C    -30.937500   52.567500  110.935000
  C    -29.954000   52.872300  111.887000
  H    -30.969700   51.588300  110.423000
  C    -32.919300   53.407300  109.508000
  H    -33.053900   52.377300  109.415000
  H    -32.485300   53.583600  108.527000
  C    -34.210700   54.157400  109.770000
  H    -34.464100   54.008900  110.842000
  H    -33.993600   55.217100  109.534000
  C    -35.404000   53.713800  108.916000
  H    -35.712700   52.741600  109.318000
  H    -36.273400   54.350400  108.898000
  H    -35.118900   53.549600  107.897000
  S    -28.613700   52.145200  114.151000
  C    -27.445700   50.870700  114.156000
  C    -27.103700   50.449600  112.820000
  C    -27.938700   51.155500  111.860000
  C    -28.860200   52.086000  112.435000
  H    -26.278000   49.730400  112.695000
  C    -27.874000   50.860300  110.415000
  H    -26.820400   50.982200  110.093000
  H    -28.527600   51.583500  109.906000
  C    -28.342100   49.465200  110.048000
  H    -29.414400   49.315300  110.125000
  H    -28.022000   48.800700  110.904000
  C    -27.676200   48.913300  108.795000
  H    -27.755800   49.622800  107.929000
  H    -28.143400   47.979700  108.396000
  H    -26.629600   48.792200  108.905000
  H    -32.430200   55.485500  111.393000
  H    -27.003800   50.538600  115.092000

 Total Charge           Charge          ....    0
 Multiplicity           Mult            ....    1
 Number of Electrons    NEL             ....  134
 Basis Dimension        Dim             ....  322

ORBITAL ENERGIES
----------------

  NO   OCC          E(Eh)            E(eV)
   0   2.0000     -88.968330     -2420.9513
   1   2.0000     -88.964634     -2420.8508
   2   2.0000     -10.337724      -281.3038
   3   2.0000     -10.332946      -281.1738
   4   2.0000     -10.326870      -281.0084
   5   2.0000     -10.312389      -280.6144
   6   2.0000     -10.311968      -280.6029
   7   2.0000     -10.309227      -280.5283
   8   2.0000     -10.301480      -280.3175
   9   2.0000     -10.298074      -280.2248
  10   2.0000     -10.292651      -280.0773
  11   2.0000     -10.288470      -279.9635
  12   2.0000     -10.287362      -279.9334
  13   2.0000     -10.287276      -279.9310
  14   2.0000     -10.281318      -279.7689
  15   2.0000     -10.278062      -279.6803
  16   2.0000      -8.083606      -219.9661
  17   2.0000      -8.078766      -219.8344
  18   2.0000      -6.041972      -164.4104
  19   2.0000      -6.037814      -164.2973
  20   2.0000      -6.037412      -164.2863
  21   2.0000      -6.034717      -164.2130
  22   2.0000      -6.033265      -164.1735
  23   2.0000      -6.029496      -164.0709
  24   2.0000      -1.004256       -27.3272
  25   2.0000      -0.981697       -26.7133
  26   2.0000      -0.917928       -24.9781
  27   2.0000      -0.915129       -24.9019
  28   2.0000      -0.868644       -23.6370
  29   2.0000      -0.852041       -23.1852
  30   2.0000      -0.844489       -22.9797
  31   2.0000      -0.813342       -22.1322
  32   2.0000      -0.784003       -21.3338
  33   2.0000      -0.771464       -20.9926
  34   2.0000      -0.715866       -19.4797
  35   2.0000      -0.704246       -19.1635
  36   2.0000      -0.692748       -18.8506
  37   2.0000      -0.664120       -18.0716
  38   2.0000      -0.637613       -17.3503
  39   2.0000      -0.616487       -16.7755
  40   2.0000      -0.595830       -16.2134
  41   2.0000      -0.574204       -15.6249
  42   2.0000      -0.571746       -15.5580
  43   2.0000      -0.563636       -15.3373
  44   2.0000      -0.526064       -14.3149
  45   2.0000      -0.525345       -14.2954
  46   2.0000      -0.520478       -14.1629
  47   2.0000      -0.514546       -14.0015
  48   2.0000      -0.510417       -13.8892
  49   2.0000      -0.504927       -13.7398
  50   2.0000      -0.497743       -13.5443
  51   2.0000      -0.476902       -12.9772
  52   2.0000      -0.473084       -12.8733
  53   2.0000      -0.458949       -12.4886
  54   2.0000      -0.457953       -12.4615
  55   2.0000      -0.454119       -12.3572
  56   2.0000      -0.449485       -12.2311
  57   2.0000      -0.442465       -12.0401
  58   2.0000      -0.435521       -11.8511
  59   2.0000      -0.427380       -11.6296
  60   2.0000      -0.422364       -11.4931
  61   2.0000      -0.410355       -11.1663
  62   2.0000      -0.405058       -11.0222
  63   2.0000      -0.352771        -9.5994
  64   2.0000      -0.330362        -8.9896
  65   2.0000      -0.325359        -8.8535
  66   2.0000      -0.284946        -7.7538
  67   0.0000       0.020535         0.5588
  68   0.0000       0.071162         1.9364
  69   0.0000       0.109292         2.9740
  70   0.0000       0.113866         3.0985
  71   0.0000       0.135901         3.6981

MULLIKEN ATOMIC CHARGES
-----------------------
   0 S :    0.091005
   1 C :   -0.090894
   2 C :   -0.127179
   3 C :    0.004773
   4 C :   -0.128178
   5 H :    0.015323
   6 C :    0.129268
   7 H :   -0.010906
   8 H :    0.031496
   9 C :   -0.127169
  10 H :    0.049390
  11 H :    0.041880
  12 C :   -0.020178
  13 H :    0.026746
  14 H :    0.036167
  15 H :    0.021053
  16 S :    0.114907
  17 C :   -0.112413
  18 C :   -0.039618
  19 C :   -0.060557
  20 C :   -0.131286
  21 H :    0.042340
  22 C :    0.069765
  23 H :    0.033140
  24 H :    0.030123
  25 C :   -0.080916
  26 H :    0.025543
  27 H :    0.024606
  28 C :   -0.049292
  29 H :    0.026631
  30 H :    0.039830
  31 H :    0.028028
  32 H :    0.028669
  33 H :    0.067903
Sum of atomic charges:   -0.0000000

LOEWDIN ATOMIC CHARGES
----------------------
   0 S :    0.392676
   1 C :   -0.186326
   2 C :   -0.059982
   3 C :   -0.073061
   4 C :   -0.188117
   5 H :    0.029774
   6 C :   -0.032629
   7 H :    0.020832
   8 H :    0.036613
   9 C :   -0.044001
  10 H :    0.031521
  11 H :    0.026417
  12 C :   -0.061826
  13 H :    0.027255
  14 H :    0.025919
  15 H :    0.021054
  16 S :    0.431914
  17 C :   -0.189291
  18 C :   -0.074221
  19 C :   -0.047945
  20 C :   -0.213868
  21 H :    0.040011
  22 C :   -0.038009
  23 H :    0.037636
  24 H :    0.032255
  25 C :   -0.048475
  26 H :    0.022311
  27 H :    0.027872
  28 C :   -0.069212
  29 H :    0.026551
  30 H :    0.031765
  31 H :    0.019408
  32 H :    0.016557
  33 H :    0.028624

  Mayer bond orders larger than 0.100000
B(  0-S ,  1-C ) :   1.1369 B(  0-S ,  4-C ) :   1.1440 B(  1-C ,  2-C ) :   1.5904
B(  1-C ,  4-C ) :   0.1032 B(  1-C , 32-H ) :   0.9729 B(  2-C ,  3-C ) :   1.2818
B(  2-C ,  6-C ) :   1.0174 B(  3-C ,  4-C ) :   1.5357 B(  3-C ,  5-H ) :   0.9824
B(  4-C , 20-C ) :   1.0731 B(  6-C ,  7-H ) :   0.9318 B(  6-C ,  8-H ) :   0.9131
B(  6-C ,  9-C ) :   1.0669 B(  9-C , 10-H ) :   0.9649 B(  9-C , 11-H ) :   0.9452
B(  9-C , 12-C ) :   1.0848 B( 12-C , 13-H ) :   0.9745 B( 12-C , 14-H ) :   0.9755
B( 12-C , 15-H ) :   0.9735 B( 16-S , 17-C ) :   1.1987 B( 16-S , 20-C ) :   1.1476
B( 17-C , 18-C ) :   1.5459 B( 17-C , 20-C ) :   0.1049 B( 17-C , 33-H ) :   0.9693
B( 18-C , 19-C ) :   1.2549 B( 18-C , 21-H ) :   0.9900 B( 19-C , 20-C ) :   1.5367
B( 19-C , 22-C ) :   1.0695 B( 22-C , 23-H ) :   0.9335 B( 22-C , 24-H ) :   0.9226
B( 22-C , 25-C ) :   1.0500 B( 25-C , 26-H ) :   0.9514 B( 25-C , 27-H ) :   0.9585
B( 25-C , 28-C ) :   1.0720 B( 28-C , 29-H ) :   0.9736 B( 28-C , 30-H ) :   0.9731
B( 28-C , 31-H ) :   0.9757

Dispersion correction           -0.013443456
FINAL SINGLE POINT ENERGY     -1339.877861999781

DIPOLE MOMENT
-------------
                                X             Y             Z
Electronic contribution:     11.45298      10.82025      24.82520
Nuclear contribution   :    -11.60788     -11.29056     -25.31049
                        -----------------------------------------
Total Dipole Moment    :     -0.15490      -0.47031      -0.48529
                        -----------------------------------------
Magnitude (a.u.)       :      0.69332
Magnitude (Debye)      :      1.76228

Rotational constants in cm-1:     0.018923     0.007772     0.005806
Rotational constants in MHz :   567.300805   233.009086   174.054913

                             ****ORCA TERMINATED NORMALLY****
TOTAL RUN TIME: 0 days 0 hours 0 minutes 28 seconds 869 msec
