                         Program Version 4.2.1 -  RELEASE  -
|  1> ! wB97X-D3 SP def2-SVP
|  2> %pal
|  3> nprocs 16
|  4> end
|  5>
|  6> * xyz 0 1
|  7> S 	 47.6508 	 4.85193 	 86.8525
|  8> C 	 47.0493 	 6.43843 	 86.9824
|  9> C 	 47.9873 	 7.39657 	 86.8031
| 10> C 	 49.2526 	 6.84965 	 86.4642
| 11> C 	 49.2301 	 5.47407 	 86.4426
| 12> H 	 50.2159 	 7.28153 	 86.2983
| 13> C 	 47.7161 	 8.9024 	 86.9864
| 14> H 	 48.4024 	 9.32095 	 87.6857
| 15> H 	 46.7404 	 8.82579 	 87.3788
| 16> C 	 47.8668 	 9.64233 	 85.6272
| 17> H 	 48.8549 	 9.50203 	 85.1136
| 18> H 	 47.1522 	 9.21801 	 84.9163
| 19> C 	 47.5303 	 11.1594 	 85.8408
| 20> H 	 48.1296 	 11.6574 	 86.5756
| 21> H 	 47.7125 	 11.4387 	 84.8084
| 22> H 	 46.4604 	 11.2374 	 86.2732
| 23> S 	 50.104 	 3.73045 	 84.5136
| 24> C 	 51.467 	 2.74329 	 84.7639
| 25> C 	 52.1477 	 3.16582 	 85.8592
| 26> C 	 51.5459 	 4.20215 	 86.5963
| 27> C 	 50.2993 	 4.51111 	 86.0997
| 28> H 	 53.1405 	 2.82512 	 86.0781
| 29> C 	 52.1731 	 4.97761 	 87.7692
| 30> H 	 51.4484 	 4.94364 	 88.5697
| 31> H 	 52.1495 	 6.03175 	 87.5185
| 32> C 	 53.541 	 4.48744 	 88.2401
| 33> H 	 54.2324 	 4.42067 	 87.3892
| 34> H 	 53.5 	 3.48296 	 88.5115
| 35> C 	 54.2653 	 5.4906 	 89.1725
| 36> H 	 54.5685 	 6.38269 	 88.7553
| 37> H 	 55.2538 	 5.08285 	 89.5154
| 38> H 	 53.5872 	 5.55878 	 89.996
| 39> H 	 46.019 	 6.69155 	 87.2225
| 40> H 	 51.799 	 1.96737 	 84.1073
| 41> *
| 42>
| 43>                          ****END OF INPUT****

CARTESIAN COORDINATES (ANGSTROEM)
---------------------------------
  S     47.650800    4.851930   86.852500
  C     47.049300    6.438430   86.982400
  C     47.987300    7.396570   86.803100
  C     49.252600    6.849650   86.464200
  C     49.230100    5.474070   86.442600
  H     50.215900    7.281530   86.298300
  C     47.716100    8.902400   86.986400
  H     48.402400    9.320950   87.685700
  H     46.740400    8.825790   87.378800
  C     47.866800    9.642330   85.627200
  H     48.854900    9.502030   85.113600
  H     47.152200    9.218010   84.916300
  C     47.530300   11.159400   85.840800
  H     48.129600   11.657400   86.575600
  H     47.712500   11.438700   84.808400
  H     46.460400   11.237400   86.273200
  S     50.104000    3.730450   84.513600
  C     51.467000    2.743290   84.763900
  C     52.147700    3.165820   85.859200
  C     51.545900    4.202150   86.596300
  C     50.299300    4.511110   86.099700
  H     53.140500    2.825120   86.078100
  C     52.173100    4.977610   87.769200
  H     51.448400    4.943640   88.569700
  H     52.149500    6.031750   87.518500
  C     53.541000    4.487440   88.240100
  H     54.232400    4.420670   87.389200
  H     53.500000    3.482960   88.511500
  C     54.265300    5.490600   89.172500
  H     54.568500    6.382690   88.755300
  H     55.253800    5.082850   89.515400
  H     53.587200    5.558780   89.996000
  H     46.019000    6.691550   87.222500
  H     51.799000    1.967370   84.107300

 Total Charge           Charge          ....    0
 Multiplicity           Mult            ....    1
 Number of Electrons    NEL             ....  134
 Basis Dimension        Dim             ....  322

ORBITAL ENERGIES
----------------

  NO   OCC          E(Eh)            E(eV)
   0   2.0000     -88.962841     -2420.8020
   1   2.0000     -88.958841     -2420.6931
   2   2.0000     -10.325108      -280.9605
   3   2.0000     -10.321075      -280.8507
   4   2.0000     -10.308711      -280.5143
   5   2.0000     -10.305447      -280.4255
   6   2.0000     -10.300466      -280.2899
   7   2.0000     -10.294027      -280.1147
   8   2.0000     -10.292558      -280.0747
   9   2.0000     -10.291717      -280.0518
  10   2.0000     -10.290338      -280.0143
  11   2.0000     -10.287445      -279.9356
  12   2.0000     -10.284066      -279.8436
  13   2.0000     -10.283994      -279.8417
  14   2.0000     -10.283857      -279.8380
  15   2.0000     -10.277104      -279.6542
  16   2.0000      -8.078696      -219.8325
  17   2.0000      -8.074342      -219.7140
  18   2.0000      -6.036995      -164.2750
  19   2.0000      -6.033094      -164.1688
  20   2.0000      -6.032670      -164.1573
  21   2.0000      -6.029556      -164.0726
  22   2.0000      -6.028817      -164.0525
  23   2.0000      -6.025166      -163.9531
  24   2.0000      -1.010826       -27.5060
  25   2.0000      -0.991921       -26.9915
  26   2.0000      -0.910354       -24.7720
  27   2.0000      -0.908391       -24.7186
  28   2.0000      -0.868887       -23.6436
  29   2.0000      -0.852016       -23.1845
  30   2.0000      -0.847220       -23.0540
  31   2.0000      -0.816798       -22.2262
  32   2.0000      -0.784707       -21.3530
  33   2.0000      -0.770708       -20.9720
  34   2.0000      -0.714682       -19.4475
  35   2.0000      -0.704088       -19.1592
  36   2.0000      -0.690435       -18.7877
  37   2.0000      -0.652638       -17.7592
  38   2.0000      -0.648044       -17.6342
  39   2.0000      -0.615395       -16.7457
  40   2.0000      -0.601417       -16.3654
  41   2.0000      -0.574178       -15.6242
  42   2.0000      -0.568621       -15.4730
  43   2.0000      -0.554629       -15.0922
  44   2.0000      -0.538456       -14.6521
  45   2.0000      -0.531967       -14.4756
  46   2.0000      -0.517525       -14.0826
  47   2.0000      -0.508665       -13.8415
  48   2.0000      -0.503155       -13.6915
  49   2.0000      -0.500663       -13.6237
  50   2.0000      -0.492592       -13.4041
  51   2.0000      -0.478225       -13.0132
  52   2.0000      -0.472172       -12.8484
  53   2.0000      -0.467825       -12.7302
  54   2.0000      -0.460433       -12.5290
  55   2.0000      -0.454869       -12.3776
  56   2.0000      -0.448706       -12.2099
  57   2.0000      -0.441280       -12.0078
  58   2.0000      -0.437017       -11.8918
  59   2.0000      -0.425778       -11.5860
  60   2.0000      -0.423232       -11.5167
  61   2.0000      -0.406752       -11.0683
  62   2.0000      -0.403224       -10.9723
  63   2.0000      -0.338654        -9.2152
  64   2.0000      -0.327217        -8.9040
  65   2.0000      -0.322741        -8.7822
  66   2.0000      -0.303441        -8.2570
  67   0.0000       0.039917         1.0862
  68   0.0000       0.067928         1.8484
  69   0.0000       0.119416         3.2495
  70   0.0000       0.123899         3.3715
  71   0.0000       0.144438         3.9304

MULLIKEN ATOMIC CHARGES
-----------------------
   0 S :    0.130667
   1 C :   -0.123679
   2 C :   -0.109229
   3 C :    0.057917
   4 C :   -0.199239
   5 H :    0.000802
   6 C :    0.147273
   7 H :    0.024386
   8 H :   -0.000461
   9 C :   -0.141961
  10 H :    0.044781
  11 H :    0.033915
  12 C :   -0.037257
  13 H :    0.030708
  14 H :    0.045289
  15 H :    0.042155
  16 S :    0.106459
  17 C :   -0.058716
  18 C :   -0.054190
  19 C :   -0.021396
  20 C :   -0.191637
  21 H :    0.001874
  22 C :    0.100763
  23 H :    0.028609
  24 H :    0.019397
  25 C :   -0.090275
  26 H :    0.021099
  27 H :    0.021648
  28 C :   -0.001374
  29 H :    0.022793
  30 H :    0.028609
  31 H :    0.029417
  32 H :    0.042405
  33 H :    0.048450
Sum of atomic charges:    0.0000000

LOEWDIN ATOMIC CHARGES
----------------------
   0 S :    0.428648
   1 C :   -0.215171
   2 C :   -0.066870
   3 C :   -0.058771
   4 C :   -0.200132
   5 H :    0.029010
   6 C :   -0.019393
   7 H :    0.026303
   8 H :    0.022961
   9 C :   -0.041715
  10 H :    0.028271
  11 H :    0.025571
  12 C :   -0.069379
  13 H :    0.017671
  14 H :    0.030816
  15 H :    0.036017
  16 S :    0.415884
  17 C :   -0.191894
  18 C :   -0.082780
  19 C :   -0.051548
  20 C :   -0.200450
  21 H :    0.025188
  22 C :   -0.027708
  23 H :    0.033832
  24 H :    0.030531
  25 C :   -0.041479
  26 H :    0.023068
  27 H :    0.017467
  28 C :   -0.051558
  29 H :    0.015426
  30 H :    0.033395
  31 H :    0.022535
  32 H :    0.027883
  33 H :    0.028370

  Mayer bond orders larger than 0.100000
B(  0-S ,  1-C ) :   1.1462 B(  0-S ,  4-C ) :   1.1687 B(  1-C ,  2-C ) :   1.6415
B(  1-C , 32-H ) :   0.9582 B(  2-C ,  3-C ) :   1.2137 B(  2-C ,  6-C ) :   1.0086
B(  3-C ,  4-C ) :   1.6006 B(  3-C ,  5-H ) :   1.0005 B(  4-C , 20-C ) :   0.9912
B(  6-C ,  7-H ) :   0.9394 B(  6-C ,  8-H ) :   0.9360 B(  6-C ,  9-C ) :   1.0555
B(  9-C , 10-H ) :   0.9619 B(  9-C , 11-H ) :   0.9564 B(  9-C , 12-C ) :   1.0605
B( 12-C , 13-H ) :   0.9782 B( 12-C , 14-H ) :   0.9780 B( 12-C , 15-H ) :   0.9741
B( 16-S , 17-C ) :   1.1720 B( 16-S , 20-C ) :   1.1594 B( 17-C , 18-C ) :   1.5710
B( 17-C , 20-C ) :   0.1060 B( 17-C , 33-H ) :   0.9683 B( 18-C , 19-C ) :   1.2780
B( 18-C , 21-H ) :   0.9890 B( 19-C , 20-C ) :   1.5965 B( 19-C , 22-C ) :   1.0195
B( 22-C , 23-H ) :   0.9207 B( 22-C , 24-H ) :   0.9341 B( 22-C , 25-C ) :   1.0762
B( 25-C , 26-H ) :   0.9505 B( 25-C , 27-H ) :   0.9551 B( 25-C , 28-C ) :   1.0750
B( 28-C , 29-H ) :   0.9759 B( 28-C , 30-H ) :   0.9715 B( 28-C , 31-H ) :   0.9781

Dispersion correction           -0.013404089
FINAL SINGLE POINT ENERGY     -1339.860456763920

DIPOLE MOMENT
-------------
                                X             Y             Z
Electronic contribution:    -10.95789     -21.39343      -9.68495
Nuclear contribution   :     11.38313      21.85337       9.88542
                        -----------------------------------------
Total Dipole Moment    :      0.42524       0.45994       0.20047
                        -----------------------------------------
Magnitude (a.u.)       :      0.65769
Magnitude (Debye)      :      1.67173

Rotational constants in cm-1:     0.017780     0.007588     0.006244
Rotational constants in MHz :   533.016810   227.470872   187.195400

                             ****ORCA TERMINATED NORMALLY****
TOTAL RUN TIME: 0 days 0 hours 0 minutes 28 seconds 754 msec
