                         Program Version 4.2.1 -  RELEASE  -
|  1> ! wB97X-D3 SP def2-SVP
|  2> %pal
|  3> nprocs 16
|  4> end
|  5>
|  6> * xyz 0 1
|  7> S 	 65.5968 	 -3.97898 	 90.1808
|  8> C 	 64.4484 	 -3.27776 	 91.3058
|  9> C 	 65.1717 	 -2.6556 	 92.3134
| 10> C 	 66.6021 	 -2.84614 	 92.2263
| 11> C 	 66.9926 	 -3.5177 	 91.0795
| 12> H 	 67.2471 	 -2.44066 	 92.9744
| 13> C 	 64.5738 	 -1.84314 	 93.3965
| 14> H 	 65.27 	 -1.74417 	 94.2381
| 15> H 	 63.6887 	 -2.32364 	 93.8501
| 16> C 	 64.2827 	 -0.333005 	 93.0231
| 17> H 	 65.1564 	 0.0202442 	 92.5371
| 18> H 	 63.535 	 -0.348078 	 92.2302
| 19> C 	 63.9193 	 0.755035 	 94.1434
| 20> H 	 62.8847 	 0.590842 	 94.3939
| 21> H 	 64.4125 	 0.480466 	 95.0225
| 22> H 	 63.989 	 1.79089 	 93.7891
| 23> S 	 68.5459 	 -5.64788 	 90.0932
| 24> C 	 70.2602 	 -5.46877 	 89.9683
| 25> C 	 70.6504 	 -4.19913 	 90.37
| 26> C 	 69.5407 	 -3.33301 	 90.6446
| 27> C 	 68.3305 	 -4.02172 	 90.6854
| 28> H 	 71.7232 	 -4.2313 	 90.3797
| 29> C 	 69.7994 	 -1.86927 	 91.1975
| 30> H 	 68.8906 	 -1.37307 	 91.3639
| 31> H 	 70.2366 	 -1.31462 	 90.3758
| 32> C 	 70.6988 	 -1.77443 	 92.3808
| 33> H 	 71.6525 	 -2.25365 	 92.0731
| 34> H 	 70.2711 	 -2.47803 	 93.1229
| 35> C 	 70.791 	 -0.427562 	 93.0974
| 36> H 	 71.2046 	 0.293282 	 92.427
| 37> H 	 71.4509 	 -0.466441 	 93.9821
| 38> H 	 69.8205 	 -0.117488 	 93.3956
| 39> H 	 63.3256 	 -3.39464 	 91.4374
| 40> H 	 70.9058 	 -6.27686 	 89.6197
| 41> *
| 42>
| 43>                          ****END OF INPUT****

CARTESIAN COORDINATES (ANGSTROEM)
---------------------------------
  S     65.596800   -3.978980   90.180800
  C     64.448400   -3.277760   91.305800
  C     65.171700   -2.655600   92.313400
  C     66.602100   -2.846140   92.226300
  C     66.992600   -3.517700   91.079500
  H     67.247100   -2.440660   92.974400
  C     64.573800   -1.843140   93.396500
  H     65.270000   -1.744170   94.238100
  H     63.688700   -2.323640   93.850100
  C     64.282700   -0.333005   93.023100
  H     65.156400    0.020244   92.537100
  H     63.535000   -0.348078   92.230200
  C     63.919300    0.755035   94.143400
  H     62.884700    0.590842   94.393900
  H     64.412500    0.480466   95.022500
  H     63.989000    1.790890   93.789100
  S     68.545900   -5.647880   90.093200
  C     70.260200   -5.468770   89.968300
  C     70.650400   -4.199130   90.370000
  C     69.540700   -3.333010   90.644600
  C     68.330500   -4.021720   90.685400
  H     71.723200   -4.231300   90.379700
  C     69.799400   -1.869270   91.197500
  H     68.890600   -1.373070   91.363900
  H     70.236600   -1.314620   90.375800
  C     70.698800   -1.774430   92.380800
  H     71.652500   -2.253650   92.073100
  H     70.271100   -2.478030   93.122900
  C     70.791000   -0.427562   93.097400
  H     71.204600    0.293282   92.427000
  H     71.450900   -0.466441   93.982100
  H     69.820500   -0.117488   93.395600
  H     63.325600   -3.394640   91.437400
  H     70.905800   -6.276860   89.619700

 Total Charge           Charge          ....    0
 Multiplicity           Mult            ....    1
 Number of Electrons    NEL             ....  134
 Basis Dimension        Dim             ....  322

ORBITAL ENERGIES
----------------

  NO   OCC          E(Eh)            E(eV)
   0   2.0000     -88.968188     -2420.9475
   1   2.0000     -88.966014     -2420.8883
   2   2.0000     -10.334433      -281.2142
   3   2.0000     -10.332845      -281.1710
   4   2.0000     -10.320162      -280.8259
   5   2.0000     -10.318223      -280.7731
   6   2.0000     -10.313478      -280.6440
   7   2.0000     -10.300913      -280.3021
   8   2.0000     -10.296607      -280.1849
   9   2.0000     -10.295585      -280.1571
  10   2.0000     -10.294674      -280.1323
  11   2.0000     -10.287161      -279.9279
  12   2.0000     -10.286592      -279.9124
  13   2.0000     -10.285512      -279.8830
  14   2.0000     -10.280056      -279.7346
  15   2.0000     -10.278295      -279.6866
  16   2.0000      -8.083002      -219.9497
  17   2.0000      -8.081326      -219.9041
  18   2.0000      -6.041679      -164.4024
  19   2.0000      -6.039691      -164.3484
  20   2.0000      -6.037251      -164.2819
  21   2.0000      -6.035649      -164.2384
  22   2.0000      -6.033799      -164.1880
  23   2.0000      -6.032285      -164.1468
  24   2.0000      -1.009447       -27.4685
  25   2.0000      -0.987987       -26.8845
  26   2.0000      -0.912389       -24.8274
  27   2.0000      -0.906369       -24.6636
  28   2.0000      -0.866948       -23.5909
  29   2.0000      -0.850921       -23.1547
  30   2.0000      -0.843609       -22.9558
  31   2.0000      -0.818665       -22.2770
  32   2.0000      -0.787659       -21.4333
  33   2.0000      -0.776535       -21.1306
  34   2.0000      -0.706845       -19.2342
  35   2.0000      -0.702385       -19.1129
  36   2.0000      -0.696991       -18.9661
  37   2.0000      -0.656471       -17.8635
  38   2.0000      -0.633949       -17.2506
  39   2.0000      -0.627535       -17.0761
  40   2.0000      -0.596766       -16.2388
  41   2.0000      -0.573261       -15.5992
  42   2.0000      -0.568435       -15.4679
  43   2.0000      -0.552003       -15.0208
  44   2.0000      -0.528713       -14.3870
  45   2.0000      -0.527523       -14.3546
  46   2.0000      -0.520634       -14.1672
  47   2.0000      -0.512024       -13.9329
  48   2.0000      -0.502265       -13.6673
  49   2.0000      -0.499833       -13.6012
  50   2.0000      -0.497437       -13.5360
  51   2.0000      -0.487904       -13.2765
  52   2.0000      -0.481662       -13.1067
  53   2.0000      -0.466276       -12.6880
  54   2.0000      -0.456909       -12.4331
  55   2.0000      -0.450823       -12.2675
  56   2.0000      -0.443763       -12.0754
  57   2.0000      -0.435628       -11.8540
  58   2.0000      -0.430527       -11.7152
  59   2.0000      -0.425677       -11.5833
  60   2.0000      -0.418435       -11.3862
  61   2.0000      -0.413996       -11.2654
  62   2.0000      -0.406747       -11.0681
  63   2.0000      -0.349399        -9.5076
  64   2.0000      -0.333504        -9.0751
  65   2.0000      -0.328583        -8.9412
  66   2.0000      -0.296691        -8.0734
  67   0.0000       0.026545         0.7223
  68   0.0000       0.075690         2.0596
  69   0.0000       0.115462         3.1419
  70   0.0000       0.118396         3.2217
  71   0.0000       0.126771         3.4496

MULLIKEN ATOMIC CHARGES
-----------------------
   0 S :    0.110591
   1 C :   -0.125520
   2 C :   -0.118129
   3 C :    0.044177
   4 C :   -0.131689
   5 H :    0.003768
   6 C :    0.041836
   7 H :    0.010197
   8 H :    0.030561
   9 C :   -0.083117
  10 H :    0.015693
  11 H :    0.020001
  12 C :   -0.015706
  13 H :    0.019846
  14 H :    0.018061
  15 H :    0.053194
  16 S :    0.115661
  17 C :   -0.134237
  18 C :   -0.037029
  19 C :   -0.019983
  20 C :   -0.140652
  21 H :    0.021883
  22 C :    0.107845
  23 H :   -0.003587
  24 H :    0.020163
  25 C :   -0.113731
  26 H :    0.031344
  27 H :    0.027614
  28 C :   -0.001246
  29 H :    0.023681
  30 H :    0.041142
  31 H :    0.021038
  32 H :    0.077007
  33 H :    0.069323
Sum of atomic charges:   -0.0000000

LOEWDIN ATOMIC CHARGES
----------------------
   0 S :    0.422678
   1 C :   -0.215274
   2 C :   -0.066928
   3 C :   -0.061749
   4 C :   -0.194627
   5 H :    0.026867
   6 C :   -0.038692
   7 H :    0.025959
   8 H :    0.029613
   9 C :   -0.035517
  10 H :    0.015762
  11 H :    0.017933
  12 C :   -0.059978
  13 H :    0.023895
  14 H :    0.016805
  15 H :    0.035074
  16 S :    0.416766
  17 C :   -0.191240
  18 C :   -0.078886
  19 C :   -0.045745
  20 C :   -0.204373
  21 H :    0.035934
  22 C :   -0.025764
  23 H :    0.016048
  24 H :    0.029321
  25 C :   -0.049904
  26 H :    0.024530
  27 H :    0.025010
  28 C :   -0.054557
  29 H :    0.021095
  30 H :    0.033560
  31 H :    0.020836
  32 H :    0.052345
  33 H :    0.033203

  Mayer bond orders larger than 0.100000
B(  0-S ,  1-C ) :   1.1328 B(  0-S ,  4-C ) :   1.1690 B(  1-C ,  2-C ) :   1.5973
B(  1-C , 32-H ) :   0.9580 B(  2-C ,  3-C ) :   1.2650 B(  2-C ,  6-C ) :   1.0524
B(  3-C ,  4-C ) :   1.5385 B(  3-C ,  5-H ) :   0.9971 B(  4-C , 20-C ) :   1.0321
B(  6-C ,  7-H ) :   0.9369 B(  6-C ,  8-H ) :   0.9411 B(  6-C ,  9-C ) :   1.0448
B(  9-C , 10-H ) :   0.9595 B(  9-C , 11-H ) :   0.9614 B(  9-C , 12-C ) :   1.0643
B( 12-C , 13-H ) :   0.9761 B( 12-C , 14-H ) :   0.9762 B( 12-C , 15-H ) :   0.9773
B( 16-S , 17-C ) :   1.1672 B( 16-S , 20-C ) :   1.1526 B( 17-C , 18-C ) :   1.6114
B( 17-C , 33-H ) :   0.9659 B( 18-C , 19-C ) :   1.2002 B( 18-C , 21-H ) :   0.9971
B( 19-C , 20-C ) :   1.5858 B( 19-C , 22-C ) :   1.0407 B( 22-C , 23-H ) :   0.9346
B( 22-C , 24-H ) :   0.9254 B( 22-C , 25-C ) :   1.0668 B( 25-C , 26-H ) :   0.9483
B( 25-C , 27-H ) :   0.9557 B( 25-C , 28-C ) :   1.0830 B( 28-C , 29-H ) :   0.9751
B( 28-C , 30-H ) :   0.9730 B( 28-C , 31-H ) :   0.9716

Dispersion correction           -0.013724037
FINAL SINGLE POINT ENERGY     -1339.865396672776

DIPOLE MOMENT
-------------
                                X             Y             Z
Electronic contribution:     -1.35348     -26.47261     -19.16673
Nuclear contribution   :      1.59369      26.84912      19.64567
                        -----------------------------------------
Total Dipole Moment    :      0.24021       0.37651       0.47895
                        -----------------------------------------
Magnitude (a.u.)       :      0.65487
Magnitude (Debye)      :      1.66454

Rotational constants in cm-1:     0.017364     0.008822     0.006092
Rotational constants in MHz :   520.551430   264.465416   182.635635

                             ****ORCA TERMINATED NORMALLY****
TOTAL RUN TIME: 0 days 0 hours 0 minutes 29 seconds 731 msec
