                         Program Version 4.2.1 -  RELEASE  -
|  1> ! wB97X-D3 SP def2-SVP
|  2> %pal
|  3> nprocs 16
|  4> end
|  5>
|  6> * xyz 0 1
|  7> S 	 -6.24816 	 27.8396 	 48.5744
|  8> C 	 -4.82633 	 27.2993 	 47.7389
|  9> C 	 -4.45247 	 28.1576 	 46.7124
| 10> C 	 -5.48355 	 29.1144 	 46.5079
| 11> C 	 -6.52927 	 29.1112 	 47.4324
| 12> H 	 -5.46274 	 29.7898 	 45.6798
| 13> C 	 -3.32426 	 27.8508 	 45.7439
| 14> H 	 -3.08068 	 26.8359 	 45.736
| 15> H 	 -2.51067 	 28.3863 	 46.1767
| 16> C 	 -3.65312 	 28.2274 	 44.2841
| 17> H 	 -3.92736 	 29.2285 	 44.1221
| 18> H 	 -2.63833 	 28.1777 	 43.748
| 19> C 	 -4.74272 	 27.3563 	 43.5733
| 20> H 	 -4.78459 	 27.667 	 42.4867
| 21> H 	 -4.45641 	 26.3546 	 43.4948
| 22> H 	 -5.67592 	 27.494 	 44.1119
| 23> S 	 -9.21497 	 28.6581 	 47.103
| 24> C 	 -10.3006 	 29.9954 	 47.3399
| 25> C 	 -9.61335 	 31.1941 	 47.3194
| 26> C 	 -8.18756 	 31.0798 	 47.3364
| 27> C 	 -7.85287 	 29.7562 	 47.4352
| 28> H 	 -10.1242 	 32.1603 	 47.2841
| 29> C 	 -7.21038 	 32.2055 	 47.5258
| 30> H 	 -6.34235 	 31.811 	 48.0485
| 31> H 	 -7.50036 	 32.9754 	 48.2501
| 32> C 	 -6.76529 	 32.8612 	 46.2357
| 33> H 	 -7.61466 	 33.126 	 45.6252
| 34> H 	 -6.38307 	 32.0683 	 45.5386
| 35> C 	 -5.85334 	 34.0738 	 46.2761
| 36> H 	 -4.90878 	 33.7806 	 46.7335
| 37> H 	 -6.33095 	 34.7972 	 46.9166
| 38> H 	 -5.60207 	 34.4416 	 45.3056
| 39> H 	 -4.33368 	 26.3519 	 48.0574
| 40> H 	 -11.4163 	 30.0054 	 47.2291
| 41> *
| 42>
| 43>                          ****END OF INPUT****

CARTESIAN COORDINATES (ANGSTROEM)
---------------------------------
  S     -6.248160   27.839600   48.574400
  C     -4.826330   27.299300   47.738900
  C     -4.452470   28.157600   46.712400
  C     -5.483550   29.114400   46.507900
  C     -6.529270   29.111200   47.432400
  H     -5.462740   29.789800   45.679800
  C     -3.324260   27.850800   45.743900
  H     -3.080680   26.835900   45.736000
  H     -2.510670   28.386300   46.176700
  C     -3.653120   28.227400   44.284100
  H     -3.927360   29.228500   44.122100
  H     -2.638330   28.177700   43.748000
  C     -4.742720   27.356300   43.573300
  H     -4.784590   27.667000   42.486700
  H     -4.456410   26.354600   43.494800
  H     -5.675920   27.494000   44.111900
  S     -9.214970   28.658100   47.103000
  C    -10.300600   29.995400   47.339900
  C     -9.613350   31.194100   47.319400
  C     -8.187560   31.079800   47.336400
  C     -7.852870   29.756200   47.435200
  H    -10.124200   32.160300   47.284100
  C     -7.210380   32.205500   47.525800
  H     -6.342350   31.811000   48.048500
  H     -7.500360   32.975400   48.250100
  C     -6.765290   32.861200   46.235700
  H     -7.614660   33.126000   45.625200
  H     -6.383070   32.068300   45.538600
  C     -5.853340   34.073800   46.276100
  H     -4.908780   33.780600   46.733500
  H     -6.330950   34.797200   46.916600
  H     -5.602070   34.441600   45.305600
  H     -4.333680   26.351900   48.057400
  H    -11.416300   30.005400   47.229100

 Total Charge           Charge          ....    0
 Multiplicity           Mult            ....    1
 Number of Electrons    NEL             ....  134
 Basis Dimension        Dim             ....  322

ORBITAL ENERGIES
----------------

  NO   OCC          E(Eh)            E(eV)
   0   2.0000     -88.966168     -2420.8925
   1   2.0000     -88.961717     -2420.7714
   2   2.0000     -10.326638      -281.0021
   3   2.0000     -10.326402      -280.9957
   4   2.0000     -10.318679      -280.7855
   5   2.0000     -10.314139      -280.6620
   6   2.0000     -10.301964      -280.3307
   7   2.0000     -10.299287      -280.2579
   8   2.0000     -10.294154      -280.1182
   9   2.0000     -10.293497      -280.1003
  10   2.0000     -10.290720      -280.0247
  11   2.0000     -10.290617      -280.0219
  12   2.0000     -10.288326      -279.9596
  13   2.0000     -10.283320      -279.8234
  14   2.0000     -10.278434      -279.6904
  15   2.0000     -10.275640      -279.6144
  16   2.0000      -8.080628      -219.8851
  17   2.0000      -8.077223      -219.7924
  18   2.0000      -6.039186      -164.3346
  19   2.0000      -6.035486      -164.2339
  20   2.0000      -6.035399      -164.2315
  21   2.0000      -6.031482      -164.1250
  22   2.0000      -6.031094      -164.1144
  23   2.0000      -6.028337      -164.0394
  24   2.0000      -1.007720       -27.4214
  25   2.0000      -0.985441       -26.8152
  26   2.0000      -0.912715       -24.8362
  27   2.0000      -0.911581       -24.8054
  28   2.0000      -0.864371       -23.5207
  29   2.0000      -0.854811       -23.2606
  30   2.0000      -0.840931       -22.8829
  31   2.0000      -0.813780       -22.1441
  32   2.0000      -0.789180       -21.4747
  33   2.0000      -0.774816       -21.0838
  34   2.0000      -0.709366       -19.3028
  35   2.0000      -0.699356       -19.0305
  36   2.0000      -0.686192       -18.6722
  37   2.0000      -0.656876       -17.8745
  38   2.0000      -0.641516       -17.4565
  39   2.0000      -0.625950       -17.0330
  40   2.0000      -0.601540       -16.3687
  41   2.0000      -0.564958       -15.3733
  42   2.0000      -0.559878       -15.2350
  43   2.0000      -0.554590       -15.0912
  44   2.0000      -0.536274       -14.5927
  45   2.0000      -0.529207       -14.4005
  46   2.0000      -0.516358       -14.0508
  47   2.0000      -0.513535       -13.9740
  48   2.0000      -0.507297       -13.8043
  49   2.0000      -0.493360       -13.4250
  50   2.0000      -0.489242       -13.3129
  51   2.0000      -0.475919       -12.9504
  52   2.0000      -0.473918       -12.8960
  53   2.0000      -0.466133       -12.6841
  54   2.0000      -0.455395       -12.3919
  55   2.0000      -0.453150       -12.3308
  56   2.0000      -0.442571       -12.0430
  57   2.0000      -0.438653       -11.9363
  58   2.0000      -0.437134       -11.8950
  59   2.0000      -0.430973       -11.7274
  60   2.0000      -0.428773       -11.6675
  61   2.0000      -0.408181       -11.1072
  62   2.0000      -0.401330       -10.9207
  63   2.0000      -0.338534        -9.2120
  64   2.0000      -0.335097        -9.1185
  65   2.0000      -0.324695        -8.8354
  66   2.0000      -0.297692        -8.1006
  67   0.0000       0.030115         0.8195
  68   0.0000       0.067517         1.8372
  69   0.0000       0.108838         2.9616
  70   0.0000       0.127488         3.4691
  71   0.0000       0.132346         3.6013

MULLIKEN ATOMIC CHARGES
-----------------------
   0 S :    0.111140
   1 C :   -0.164450
   2 C :   -0.100140
   3 C :    0.044978
   4 C :   -0.177280
   5 H :   -0.008756
   6 C :    0.144095
   7 H :    0.010653
   8 H :    0.033570
   9 C :   -0.126338
  10 H :    0.019830
  11 H :    0.030027
  12 C :   -0.035969
  13 H :    0.040104
  14 H :    0.019588
  15 H :    0.053144
  16 S :    0.115874
  17 C :   -0.088868
  18 C :   -0.050215
  19 C :    0.005790
  20 C :   -0.162579
  21 H :    0.019288
  22 C :    0.079369
  23 H :    0.023416
  24 H :    0.020718
  25 C :   -0.115614
  26 H :    0.012115
  27 H :    0.014139
  28 C :    0.011789
  29 H :    0.023673
  30 H :    0.028301
  31 H :    0.031736
  32 H :    0.065534
  33 H :    0.071338
Sum of atomic charges:   -0.0000000

LOEWDIN ATOMIC CHARGES
----------------------
   0 S :    0.421815
   1 C :   -0.203965
   2 C :   -0.068897
   3 C :   -0.059377
   4 C :   -0.210355
   5 H :    0.021699
   6 C :   -0.020890
   7 H :    0.024588
   8 H :    0.034717
   9 C :   -0.043256
  10 H :    0.011770
  11 H :    0.031424
  12 C :   -0.059711
  13 H :    0.036680
  14 H :    0.014697
  15 H :    0.029603
  16 S :    0.399866
  17 C :   -0.199508
  18 C :   -0.069443
  19 C :   -0.052325
  20 C :   -0.186037
  21 H :    0.031055
  22 C :   -0.032717
  23 H :    0.033192
  24 H :    0.031063
  25 C :   -0.051742
  26 H :    0.018891
  27 H :    0.023175
  28 C :   -0.055685
  29 H :    0.024771
  30 H :    0.024434
  31 H :    0.026220
  32 H :    0.032674
  33 H :    0.041573

  Mayer bond orders larger than 0.100000
B(  0-S ,  1-C ) :   1.1718 B(  0-S ,  4-C ) :   1.1695 B(  1-C ,  2-C ) :   1.5662
B(  1-C , 32-H ) :   0.9657 B(  2-C ,  3-C ) :   1.2822 B(  2-C ,  6-C ) :   1.0021
B(  3-C ,  4-C ) :   1.5412 B(  3-C ,  5-H ) :   0.9953 B(  4-C , 20-C ) :   1.0131
B(  6-C ,  7-H ) :   0.9488 B(  6-C ,  8-H ) :   0.9223 B(  6-C ,  9-C ) :   1.0824
B(  9-C , 10-H ) :   0.9556 B(  9-C , 11-H ) :   0.9527 B(  9-C , 12-C ) :   1.0676
B( 12-C , 13-H ) :   0.9734 B( 12-C , 14-H ) :   0.9769 B( 12-C , 15-H ) :   0.9745
B( 16-S , 17-C ) :   1.1342 B( 16-S , 20-C ) :   1.1467 B( 17-C , 18-C ) :   1.6309
B( 17-C , 33-H ) :   0.9597 B( 18-C , 19-C ) :   1.2252 B( 18-C , 21-H ) :   0.9840
B( 19-C , 20-C ) :   1.6133 B( 19-C , 22-C ) :   1.0468 B( 22-C , 23-H ) :   0.9279
B( 22-C , 24-H ) :   0.9411 B( 22-C , 25-C ) :   1.0482 B( 25-C , 26-H ) :   0.9532
B( 25-C , 27-H ) :   0.9452 B( 25-C , 28-C ) :   1.0876 B( 28-C , 29-H ) :   0.9732
B( 28-C , 30-H ) :   0.9715 B( 28-C , 31-H ) :   0.9712

Dispersion correction           -0.014638995
FINAL SINGLE POINT ENERGY     -1339.874505655441

DIPOLE MOMENT
-------------
                                X             Y             Z
Electronic contribution:    -15.38258     -13.48176      16.59050
Nuclear contribution   :     15.70357      13.77852     -17.06015
                        -----------------------------------------
Total Dipole Moment    :      0.32099       0.29675      -0.46965
                        -----------------------------------------
Magnitude (a.u.)       :      0.64162
Magnitude (Debye)      :      1.63086

Rotational constants in cm-1:     0.016086     0.009828     0.007684
Rotational constants in MHz :   482.233022   294.647926   230.356343

                             ****ORCA TERMINATED NORMALLY****
TOTAL RUN TIME: 0 days 0 hours 0 minutes 36 seconds 207 msec
