                         Program Version 4.2.1 -  RELEASE  -
|  1> ! wB97X-D3 SP def2-SVP
|  2> %pal
|  3> nprocs 16
|  4> end
|  5>
|  6> * xyz 0 1
|  7> S 	 -7.98872 	 8.93941 	 83.8501
|  8> C 	 -7.26079 	 7.41831 	 84.5368
|  9> C 	 -8.22488 	 6.79745 	 85.2697
| 10> C 	 -9.53086 	 7.40679 	 85.204
| 11> C 	 -9.58819 	 8.56638 	 84.4835
| 12> H 	 -10.3397 	 7.07713 	 85.865
| 13> C 	 -7.96696 	 5.50948 	 86.0622
| 14> H 	 -7.7532 	 5.82876 	 87.079
| 15> H 	 -7.07337 	 5.02869 	 85.6487
| 16> C 	 -9.0116 	 4.44691 	 86.0266
| 17> H 	 -9.9024 	 4.8678 	 86.6105
| 18> H 	 -9.359 	 4.23532 	 84.9873
| 19> C 	 -8.63511 	 3.19893 	 86.8419
| 20> H 	 -7.71478 	 2.67732 	 86.4256
| 21> H 	 -8.43858 	 3.53826 	 87.9022
| 22> H 	 -9.29972 	 2.4299 	 86.9601
| 23> S 	 -10.5889 	 11.0335 	 84.3537
| 24> C 	 -12.2788 	 11.4205 	 84.2557
| 25> C 	 -12.9653 	 10.2487 	 83.9124
| 26> C 	 -12.1624 	 9.03915 	 83.9352
| 27> C 	 -10.8087 	 9.33391 	 84.2416
| 28> H 	 -13.9598 	 10.277 	 83.5466
| 29> C 	 -12.7529 	 7.63275 	 83.7797
| 30> H 	 -12.6719 	 7.1718 	 84.7723
| 31> H 	 -12.037 	 7.06237 	 83.1241
| 32> C 	 -14.047 	 7.36492 	 83.006
| 33> H 	 -14.7559 	 8.11899 	 83.4997
| 34> H 	 -14.4635 	 6.36953 	 83.2737
| 35> C 	 -13.9384 	 7.48925 	 81.5047
| 36> H 	 -14.9091 	 7.33464 	 81.1249
| 37> H 	 -13.0852 	 6.90387 	 80.9988
| 38> H 	 -13.6714 	 8.52726 	 81.2811
| 39> H 	 -6.27116 	 7.14073 	 84.4908
| 40> H 	 -12.6803 	 12.3867 	 84.1615
| 41> *
| 42>
| 43>                          ****END OF INPUT****

CARTESIAN COORDINATES (ANGSTROEM)
---------------------------------
  S     -7.988720    8.939410   83.850100
  C     -7.260790    7.418310   84.536800
  C     -8.224880    6.797450   85.269700
  C     -9.530860    7.406790   85.204000
  C     -9.588190    8.566380   84.483500
  H    -10.339700    7.077130   85.865000
  C     -7.966960    5.509480   86.062200
  H     -7.753200    5.828760   87.079000
  H     -7.073370    5.028690   85.648700
  C     -9.011600    4.446910   86.026600
  H     -9.902400    4.867800   86.610500
  H     -9.359000    4.235320   84.987300
  C     -8.635110    3.198930   86.841900
  H     -7.714780    2.677320   86.425600
  H     -8.438580    3.538260   87.902200
  H     -9.299720    2.429900   86.960100
  S    -10.588900   11.033500   84.353700
  C    -12.278800   11.420500   84.255700
  C    -12.965300   10.248700   83.912400
  C    -12.162400    9.039150   83.935200
  C    -10.808700    9.333910   84.241600
  H    -13.959800   10.277000   83.546600
  C    -12.752900    7.632750   83.779700
  H    -12.671900    7.171800   84.772300
  H    -12.037000    7.062370   83.124100
  C    -14.047000    7.364920   83.006000
  H    -14.755900    8.118990   83.499700
  H    -14.463500    6.369530   83.273700
  C    -13.938400    7.489250   81.504700
  H    -14.909100    7.334640   81.124900
  H    -13.085200    6.903870   80.998800
  H    -13.671400    8.527260   81.281100
  H     -6.271160    7.140730   84.490800
  H    -12.680300   12.386700   84.161500

 Total Charge           Charge          ....    0
 Multiplicity           Mult            ....    1
 Number of Electrons    NEL             ....  134
 Basis Dimension        Dim             ....  322

ORBITAL ENERGIES
----------------

  NO   OCC          E(Eh)            E(eV)
   0   2.0000     -88.965131     -2420.8643
   1   2.0000     -88.964626     -2420.8505
   2   2.0000     -10.334205      -281.2080
   3   2.0000     -10.330530      -281.1080
   4   2.0000     -10.317113      -280.7429
   5   2.0000     -10.313756      -280.6516
   6   2.0000     -10.313603      -280.6474
   7   2.0000     -10.301857      -280.3278
   8   2.0000     -10.296997      -280.1955
   9   2.0000     -10.296406      -280.1794
  10   2.0000     -10.295749      -280.1616
  11   2.0000     -10.295436      -280.1531
  12   2.0000     -10.292916      -280.0845
  13   2.0000     -10.291985      -280.0591
  14   2.0000     -10.283735      -279.8346
  15   2.0000     -10.281988      -279.7871
  16   2.0000      -8.080191      -219.8732
  17   2.0000      -8.078717      -219.8331
  18   2.0000      -6.038659      -164.3203
  19   2.0000      -6.037606      -164.2916
  20   2.0000      -6.034392      -164.2042
  21   2.0000      -6.033388      -164.1768
  22   2.0000      -6.031118      -164.1151
  23   2.0000      -6.029111      -164.0604
  24   2.0000      -1.006582       -27.3905
  25   2.0000      -0.981966       -26.7207
  26   2.0000      -0.916150       -24.9297
  27   2.0000      -0.910406       -24.7734
  28   2.0000      -0.873457       -23.7680
  29   2.0000      -0.850132       -23.1333
  30   2.0000      -0.839293       -22.8383
  31   2.0000      -0.819026       -22.2868
  32   2.0000      -0.783173       -21.3112
  33   2.0000      -0.776852       -21.1392
  34   2.0000      -0.712416       -19.3858
  35   2.0000      -0.697080       -18.9685
  36   2.0000      -0.693298       -18.8656
  37   2.0000      -0.656074       -17.8527
  38   2.0000      -0.641356       -17.4522
  39   2.0000      -0.622420       -16.9369
  40   2.0000      -0.596990       -16.2449
  41   2.0000      -0.575936       -15.6720
  42   2.0000      -0.566028       -15.4024
  43   2.0000      -0.561986       -15.2924
  44   2.0000      -0.538918       -14.6647
  45   2.0000      -0.523608       -14.2481
  46   2.0000      -0.519291       -14.1306
  47   2.0000      -0.517223       -14.0744
  48   2.0000      -0.507880       -13.8201
  49   2.0000      -0.502748       -13.6805
  50   2.0000      -0.493461       -13.4277
  51   2.0000      -0.484153       -13.1745
  52   2.0000      -0.470949       -12.8152
  53   2.0000      -0.463997       -12.6260
  54   2.0000      -0.459612       -12.5067
  55   2.0000      -0.453113       -12.3298
  56   2.0000      -0.446816       -12.1585
  57   2.0000      -0.437485       -11.9046
  58   2.0000      -0.433433       -11.7943
  59   2.0000      -0.421881       -11.4800
  60   2.0000      -0.412051       -11.2125
  61   2.0000      -0.408640       -11.1197
  62   2.0000      -0.401437       -10.9236
  63   2.0000      -0.353870        -9.6293
  64   2.0000      -0.329694        -8.9714
  65   2.0000      -0.325720        -8.8633
  66   2.0000      -0.292772        -7.9667
  67   0.0000       0.024169         0.6577
  68   0.0000       0.072083         1.9615
  69   0.0000       0.105852         2.8804
  70   0.0000       0.123279         3.3546
  71   0.0000       0.132728         3.6117

MULLIKEN ATOMIC CHARGES
-----------------------
   0 S :    0.087779
   1 C :   -0.102536
   2 C :   -0.066768
   3 C :   -0.016761
   4 C :   -0.080976
   5 H :    0.024230
   6 C :    0.075606
   7 H :    0.038242
   8 H :    0.014886
   9 C :   -0.110744
  10 H :    0.031868
  11 H :    0.046323
  12 C :   -0.038023
  13 H :    0.033542
  14 H :    0.030230
  15 H :    0.017592
  16 S :    0.102735
  17 C :   -0.063502
  18 C :   -0.051491
  19 C :   -0.030742
  20 C :   -0.172647
  21 H :    0.013980
  22 C :    0.018713
  23 H :    0.049734
  24 H :    0.031153
  25 C :   -0.098802
  26 H :    0.033338
  27 H :    0.036138
  28 C :   -0.032965
  29 H :    0.034029
  30 H :    0.052756
  31 H :    0.026790
  32 H :    0.018422
  33 H :    0.047872
Sum of atomic charges:   -0.0000000

LOEWDIN ATOMIC CHARGES
----------------------
   0 S :    0.365502
   1 C :   -0.162516
   2 C :   -0.056162
   3 C :   -0.074593
   4 C :   -0.184710
   5 H :    0.033473
   6 C :   -0.032858
   7 H :    0.033939
   8 H :    0.028809
   9 C :   -0.049933
  10 H :    0.027720
  11 H :    0.029359
  12 C :   -0.065836
  13 H :    0.029316
  14 H :    0.033127
  15 H :    0.012058
  16 S :    0.434875
  17 C :   -0.187103
  18 C :   -0.070560
  19 C :   -0.054243
  20 C :   -0.205539
  21 H :    0.023176
  22 C :   -0.046119
  23 H :    0.035408
  24 H :    0.036944
  25 C :   -0.051080
  26 H :    0.027664
  27 H :    0.029661
  28 C :   -0.068058
  29 H :    0.023516
  30 H :    0.039874
  31 H :    0.027224
  32 H :    0.015284
  33 H :    0.022383

  Mayer bond orders larger than 0.100000
B(  0-S ,  1-C ) :   1.0969 B(  0-S ,  4-C ) :   1.1335 B(  1-C ,  2-C ) :   1.6501
B(  1-C , 32-H ) :   0.9831 B(  2-C ,  3-C ) :   1.2180 B(  2-C ,  6-C ) :   1.0109
B(  3-C ,  4-C ) :   1.5904 B(  3-C ,  5-H ) :   0.9915 B(  4-C , 20-C ) :   1.0436
B(  6-C ,  7-H ) :   0.9294 B(  6-C ,  8-H ) :   0.9468 B(  6-C ,  9-C ) :   1.0723
B(  9-C , 10-H ) :   0.9432 B(  9-C , 11-H ) :   0.9599 B(  9-C , 12-C ) :   1.0789
B( 12-C , 13-H ) :   0.9736 B( 12-C , 14-H ) :   0.9714 B( 12-C , 15-H ) :   0.9759
B( 16-S , 17-C ) :   1.1739 B( 16-S , 20-C ) :   1.1672 B( 17-C , 18-C ) :   1.5651
B( 17-C , 20-C ) :   0.1080 B( 17-C , 33-H ) :   0.9747 B( 18-C , 19-C ) :   1.2737
B( 18-C , 21-H ) :   0.9865 B( 19-C , 20-C ) :   1.5437 B( 19-C , 22-C ) :   1.0242
B( 22-C , 23-H ) :   0.9378 B( 22-C , 24-H ) :   0.9369 B( 22-C , 25-C ) :   1.0610
B( 25-C , 26-H ) :   0.9489 B( 25-C , 27-H ) :   0.9512 B( 25-C , 28-C ) :   1.0801
B( 28-C , 29-H ) :   0.9717 B( 28-C , 30-H ) :   0.9679 B( 28-C , 31-H ) :   0.9729

Dispersion correction           -0.013634344
FINAL SINGLE POINT ENERGY     -1339.861387176995

DIPOLE MOMENT
-------------
                                X             Y             Z
Electronic contribution:     11.31221      26.65174      -2.20452
Nuclear contribution   :    -11.70611     -27.25219       2.34458
                        -----------------------------------------
Total Dipole Moment    :     -0.39390      -0.60044       0.14006
                        -----------------------------------------
Magnitude (a.u.)       :      0.73164
Magnitude (Debye)      :      1.85969

Rotational constants in cm-1:     0.017220     0.008425     0.006338
Rotational constants in MHz :   516.257165   252.566764   190.016929

                             ****ORCA TERMINATED NORMALLY****
TOTAL RUN TIME: 0 days 0 hours 0 minutes 34 seconds 443 msec
