                         Program Version 4.2.1 -  RELEASE  -
|  1> ! wB97X-D3 SP def2-SVP
|  2> %pal
|  3> nprocs 16
|  4> end
|  5>
|  6> * xyz 0 1
|  7> S 	 -27.0593 	 -2.53293 	 103.72
|  8> C 	 -26.7152 	 -2.78181 	 105.478
|  9> C 	 -27.4441 	 -1.91687 	 106.26
| 10> C 	 -28.21 	 -0.974887 	 105.448
| 11> C 	 -28.2055 	 -1.23615 	 104.104
| 12> H 	 -28.9021 	 -0.252729 	 105.881
| 13> C 	 -27.5522 	 -1.89223 	 107.749
| 14> H 	 -27.3942 	 -2.90041 	 108.02
| 15> H 	 -28.6056 	 -1.69689 	 107.936
| 16> C 	 -26.6447 	 -0.948116 	 108.566
| 17> H 	 -27.0075 	 -0.00174083 	 108.234
| 18> H 	 -26.8575 	 -1.15022 	 109.65
| 19> C 	 -25.1934 	 -0.996277 	 108.233
| 20> H 	 -24.9166 	 -0.733741 	 107.152
| 21> H 	 -24.6427 	 -0.300227 	 108.876
| 22> H 	 -24.8642 	 -2.0422 	 108.446
| 23> S 	 -27.7205 	 0.724923 	 102.235
| 24> C 	 -29.0091 	 1.36858 	 101.275
| 25> C 	 -30.2248 	 0.807949 	 101.573
| 26> C 	 -30.1247 	 -0.178111 	 102.644
| 27> C 	 -28.7957 	 -0.376174 	 103.062
| 28> H 	 -31.0831 	 1.26582 	 101.015
| 29> C 	 -31.3248 	 -0.974863 	 103.196
| 30> H 	 -32.0286 	 -0.195194 	 103.438
| 31> H 	 -30.9553 	 -1.30722 	 104.202
| 32> C 	 -31.9562 	 -1.94881 	 102.125
| 33> H 	 -31.1809 	 -2.55252 	 101.602
| 34> H 	 -32.6673 	 -1.43865 	 101.446
| 35> C 	 -32.8242 	 -3.06285 	 102.721
| 36> H 	 -32.3416 	 -3.42578 	 103.631
| 37> H 	 -33.1538 	 -3.89413 	 102.178
| 38> H 	 -33.7083 	 -2.52948 	 103.088
| 39> H 	 -26.1429 	 -3.64826 	 105.833
| 40> H 	 -28.8772 	 2.08264 	 100.466
| 41> *
| 42>
| 43>                          ****END OF INPUT****

CARTESIAN COORDINATES (ANGSTROEM)
---------------------------------
  S    -27.059300   -2.532930  103.720000
  C    -26.715200   -2.781810  105.478000
  C    -27.444100   -1.916870  106.260000
  C    -28.210000   -0.974887  105.448000
  C    -28.205500   -1.236150  104.104000
  H    -28.902100   -0.252729  105.881000
  C    -27.552200   -1.892230  107.749000
  H    -27.394200   -2.900410  108.020000
  H    -28.605600   -1.696890  107.936000
  C    -26.644700   -0.948116  108.566000
  H    -27.007500   -0.001741  108.234000
  H    -26.857500   -1.150220  109.650000
  C    -25.193400   -0.996277  108.233000
  H    -24.916600   -0.733741  107.152000
  H    -24.642700   -0.300227  108.876000
  H    -24.864200   -2.042200  108.446000
  S    -27.720500    0.724923  102.235000
  C    -29.009100    1.368580  101.275000
  C    -30.224800    0.807949  101.573000
  C    -30.124700   -0.178111  102.644000
  C    -28.795700   -0.376174  103.062000
  H    -31.083100    1.265820  101.015000
  C    -31.324800   -0.974863  103.196000
  H    -32.028600   -0.195194  103.438000
  H    -30.955300   -1.307220  104.202000
  C    -31.956200   -1.948810  102.125000
  H    -31.180900   -2.552520  101.602000
  H    -32.667300   -1.438650  101.446000
  C    -32.824200   -3.062850  102.721000
  H    -32.341600   -3.425780  103.631000
  H    -33.153800   -3.894130  102.178000
  H    -33.708300   -2.529480  103.088000
  H    -26.142900   -3.648260  105.833000
  H    -28.877200    2.082640  100.466000

 Total Charge           Charge          ....    0
 Multiplicity           Mult            ....    1
 Number of Electrons    NEL             ....  134
 Basis Dimension        Dim             ....  322

ORBITAL ENERGIES
----------------

  NO   OCC          E(Eh)            E(eV)
   0   2.0000     -88.964746     -2420.8538
   1   2.0000     -88.962121     -2420.7824
   2   2.0000     -10.332275      -281.1555
   3   2.0000     -10.326587      -281.0007
   4   2.0000     -10.321134      -280.8523
   5   2.0000     -10.313714      -280.6504
   6   2.0000     -10.310452      -280.5617
   7   2.0000     -10.303209      -280.3646
   8   2.0000     -10.298791      -280.2443
   9   2.0000     -10.297468      -280.2084
  10   2.0000     -10.296652      -280.1861
  11   2.0000     -10.294292      -280.1219
  12   2.0000     -10.287769      -279.9444
  13   2.0000     -10.286557      -279.9115
  14   2.0000     -10.282794      -279.8090
  15   2.0000     -10.268318      -279.4151
  16   2.0000      -8.078474      -219.8265
  17   2.0000      -8.077366      -219.7963
  18   2.0000      -6.037130      -164.2787
  19   2.0000      -6.035788      -164.2421
  20   2.0000      -6.033225      -164.1724
  21   2.0000      -6.031763      -164.1326
  22   2.0000      -6.029012      -164.0578
  23   2.0000      -6.028221      -164.0362
  24   2.0000      -1.000881       -27.2354
  25   2.0000      -0.978746       -26.6330
  26   2.0000      -0.916273       -24.9331
  27   2.0000      -0.900600       -24.5066
  28   2.0000      -0.868083       -23.6217
  29   2.0000      -0.848867       -23.0988
  30   2.0000      -0.844357       -22.9761
  31   2.0000      -0.815086       -22.1796
  32   2.0000      -0.783408       -21.3176
  33   2.0000      -0.769786       -20.9469
  34   2.0000      -0.703239       -19.1361
  35   2.0000      -0.694823       -18.9071
  36   2.0000      -0.692803       -18.8521
  37   2.0000      -0.650641       -17.7048
  38   2.0000      -0.638478       -17.3739
  39   2.0000      -0.619802       -16.8657
  40   2.0000      -0.584457       -15.9039
  41   2.0000      -0.568703       -15.4752
  42   2.0000      -0.561950       -15.2914
  43   2.0000      -0.553647       -15.0655
  44   2.0000      -0.545025       -14.8309
  45   2.0000      -0.527959       -14.3665
  46   2.0000      -0.521878       -14.2010
  47   2.0000      -0.511989       -13.9319
  48   2.0000      -0.500733       -13.6256
  49   2.0000      -0.497296       -13.5321
  50   2.0000      -0.486558       -13.2399
  51   2.0000      -0.477684       -12.9984
  52   2.0000      -0.466733       -12.7004
  53   2.0000      -0.459568       -12.5055
  54   2.0000      -0.457431       -12.4473
  55   2.0000      -0.445951       -12.1350
  56   2.0000      -0.440285       -11.9808
  57   2.0000      -0.435038       -11.8380
  58   2.0000      -0.428282       -11.6541
  59   2.0000      -0.423744       -11.5307
  60   2.0000      -0.419114       -11.4047
  61   2.0000      -0.414477       -11.2785
  62   2.0000      -0.406055       -11.0493
  63   2.0000      -0.338212        -9.2032
  64   2.0000      -0.326941        -8.8965
  65   2.0000      -0.324793        -8.8381
  66   2.0000      -0.307236        -8.3603
  67   0.0000       0.041743         1.1359
  68   0.0000       0.059442         1.6175
  69   0.0000       0.108065         2.9406
  70   0.0000       0.122380         3.3301
  71   0.0000       0.126750         3.4491

MULLIKEN ATOMIC CHARGES
-----------------------
   0 S :    0.092898
   1 C :   -0.135300
   2 C :   -0.112645
   3 C :    0.046602
   4 C :   -0.168797
   5 H :    0.021408
   6 C :    0.080213
   7 H :    0.002729
   8 H :    0.024968
   9 C :   -0.036794
  10 H :    0.013585
  11 H :    0.047466
  12 C :   -0.077414
  13 H :    0.060220
  14 H :    0.039631
  15 H :    0.025579
  16 S :    0.114990
  17 C :   -0.104200
  18 C :   -0.048928
  19 C :   -0.064084
  20 C :   -0.164140
  21 H :    0.039061
  22 C :    0.088819
  23 H :    0.022823
  24 H :    0.032514
  25 C :   -0.078028
  26 H :    0.050399
  27 H :    0.042530
  28 C :   -0.041985
  29 H :    0.022492
  30 H :    0.033219
  31 H :    0.012063
  32 H :    0.059754
  33 H :    0.058353
Sum of atomic charges:   -0.0000000

LOEWDIN ATOMIC CHARGES
----------------------
   0 S :    0.368510
   1 C :   -0.177872
   2 C :   -0.061792
   3 C :   -0.059185
   4 C :   -0.191275
   5 H :    0.032328
   6 C :   -0.032472
   7 H :    0.020898
   8 H :    0.033673
   9 C :   -0.039895
  10 H :    0.019084
  11 H :    0.034720
  12 C :   -0.073428
  13 H :    0.038779
  14 H :    0.028180
  15 H :    0.024326
  16 S :    0.413898
  17 C :   -0.191427
  18 C :   -0.084590
  19 C :   -0.050100
  20 C :   -0.211286
  21 H :    0.043587
  22 C :   -0.033154
  23 H :    0.030494
  24 H :    0.036830
  25 C :   -0.038959
  26 H :    0.031720
  27 H :    0.030325
  28 C :   -0.068473
  29 H :    0.023994
  30 H :    0.018121
  31 H :    0.021803
  32 H :    0.031990
  33 H :    0.030648

  Mayer bond orders larger than 0.100000
B(  0-S ,  1-C ) :   1.1172 B(  0-S ,  4-C ) :   1.1352 B(  1-C ,  2-C ) :   1.6418
B(  1-C , 32-H ) :   0.9640 B(  2-C ,  3-C ) :   1.2035 B(  2-C ,  6-C ) :   1.0170
B(  3-C ,  4-C ) :   1.6233 B(  3-C ,  5-H ) :   0.9848 B(  4-C , 20-C ) :   1.0032
B(  6-C ,  7-H ) :   0.9340 B(  6-C ,  8-H ) :   0.9410 B(  6-C ,  9-C ) :   1.0614
B(  9-C , 10-H ) :   0.9508 B(  9-C , 11-H ) :   0.9537 B(  9-C , 12-C ) :   1.0903
B( 12-C , 13-H ) :   0.9663 B( 12-C , 14-H ) :   0.9709 B( 12-C , 15-H ) :   0.9754
B( 16-S , 17-C ) :   1.1595 B( 16-S , 20-C ) :   1.1483 B( 17-C , 18-C ) :   1.6410
B( 17-C , 33-H ) :   0.9636 B( 18-C , 19-C ) :   1.2105 B( 18-C , 21-H ) :   0.9842
B( 19-C , 20-C ) :   1.6136 B( 19-C , 22-C ) :   1.0437 B( 22-C , 23-H ) :   0.9272
B( 22-C , 24-H ) :   0.9366 B( 22-C , 25-C ) :   1.0411 B( 25-C , 26-H ) :   0.9665
B( 25-C , 27-H ) :   0.9574 B( 25-C , 28-C ) :   1.0741 B( 28-C , 29-H ) :   0.9769
B( 28-C , 30-H ) :   0.9792 B( 28-C , 31-H ) :   0.9747

Dispersion correction           -0.014008341
FINAL SINGLE POINT ENERGY     -1339.870074884684

DIPOLE MOMENT
-------------
                                X             Y             Z
Electronic contribution:     10.91401       5.43923     -15.46096
Nuclear contribution   :    -11.36253      -5.37286      15.89189
                        -----------------------------------------
Total Dipole Moment    :     -0.44852       0.06637       0.43093
                        -----------------------------------------
Magnitude (a.u.)       :      0.62552
Magnitude (Debye)      :      1.58995

Rotational constants in cm-1:     0.019403     0.007838     0.006662
Rotational constants in MHz :   581.697468   234.972270   199.716021

                             ****ORCA TERMINATED NORMALLY****
TOTAL RUN TIME: 0 days 0 hours 0 minutes 29 seconds 117 msec
