                         Program Version 4.2.1 -  RELEASE  -
|  1> ! wB97X-D3 SP def2-SVP
|  2> %pal
|  3> nprocs 16
|  4> end
|  5>
|  6> * xyz 0 1
|  7> S 	 70.5505 	 22.2495 	 74.295
|  8> C 	 69.4649 	 21.6571 	 75.5069
|  9> C 	 68.1865 	 22.2292 	 75.3661
| 10> C 	 68.1805 	 23.3218 	 74.3867
| 11> C 	 69.3658 	 23.4598 	 73.649
| 12> H 	 67.2832 	 23.9426 	 74.3112
| 13> C 	 66.9975 	 21.9191 	 76.1635
| 14> H 	 67.0828 	 22.6419 	 76.9885
| 15> H 	 67.2077 	 20.9151 	 76.4471
| 16> C 	 65.6064 	 22.0637 	 75.4831
| 17> H 	 65.3522 	 23.1079 	 75.1849
| 18> H 	 65.7984 	 21.5589 	 74.5426
| 19> C 	 64.4997 	 21.3548 	 76.2759
| 20> H 	 64.7087 	 20.3758 	 76.2515
| 21> H 	 64.3551 	 21.6985 	 77.337
| 22> H 	 63.523 	 21.4818 	 75.713
| 23> S 	 68.3243 	 25.0772 	 71.6904
| 24> C 	 69.4213 	 26.2523 	 70.947
| 25> C 	 70.7301 	 26.0505 	 71.2875
| 26> C 	 70.9191 	 24.9853 	 72.1978
| 27> C 	 69.6813 	 24.4022 	 72.5625
| 28> H 	 71.4989 	 26.7541 	 70.8995
| 29> C 	 72.2644 	 24.6926 	 72.8367
| 30> H 	 72.122 	 24.5623 	 73.928
| 31> H 	 72.8693 	 25.5896 	 72.8071
| 32> C 	 73.072 	 23.5655 	 72.2518
| 33> H 	 72.6154 	 22.5742 	 72.4258
| 34> H 	 74.0637 	 23.5335 	 72.7183
| 35> C 	 73.2949 	 23.7313 	 70.7274
| 36> H 	 73.8736 	 24.6345 	 70.6083
| 37> H 	 72.3712 	 23.62 	 70.1661
| 38> H 	 74.0388 	 23.0524 	 70.4051
| 39> H 	 69.791 	 20.7633 	 76.1029
| 40> H 	 69.1339 	 26.9432 	 70.1224
| 41> *
| 42>
| 43>                          ****END OF INPUT****

CARTESIAN COORDINATES (ANGSTROEM)
---------------------------------
  S     70.550500   22.249500   74.295000
  C     69.464900   21.657100   75.506900
  C     68.186500   22.229200   75.366100
  C     68.180500   23.321800   74.386700
  C     69.365800   23.459800   73.649000
  H     67.283200   23.942600   74.311200
  C     66.997500   21.919100   76.163500
  H     67.082800   22.641900   76.988500
  H     67.207700   20.915100   76.447100
  C     65.606400   22.063700   75.483100
  H     65.352200   23.107900   75.184900
  H     65.798400   21.558900   74.542600
  C     64.499700   21.354800   76.275900
  H     64.708700   20.375800   76.251500
  H     64.355100   21.698500   77.337000
  H     63.523000   21.481800   75.713000
  S     68.324300   25.077200   71.690400
  C     69.421300   26.252300   70.947000
  C     70.730100   26.050500   71.287500
  C     70.919100   24.985300   72.197800
  C     69.681300   24.402200   72.562500
  H     71.498900   26.754100   70.899500
  C     72.264400   24.692600   72.836700
  H     72.122000   24.562300   73.928000
  H     72.869300   25.589600   72.807100
  C     73.072000   23.565500   72.251800
  H     72.615400   22.574200   72.425800
  H     74.063700   23.533500   72.718300
  C     73.294900   23.731300   70.727400
  H     73.873600   24.634500   70.608300
  H     72.371200   23.620000   70.166100
  H     74.038800   23.052400   70.405100
  H     69.791000   20.763300   76.102900
  H     69.133900   26.943200   70.122400

 Total Charge           Charge          ....    0
 Multiplicity           Mult            ....    1
 Number of Electrons    NEL             ....  134
 Basis Dimension        Dim             ....  322

ORBITAL ENERGIES
----------------

  NO   OCC          E(Eh)            E(eV)
   0   2.0000     -88.970745     -2421.0171
   1   2.0000     -88.964601     -2420.8499
   2   2.0000     -10.339734      -281.3585
   3   2.0000     -10.333076      -281.1773
   4   2.0000     -10.318979      -280.7937
   5   2.0000     -10.316983      -280.7394
   6   2.0000     -10.305753      -280.4338
   7   2.0000     -10.303168      -280.3635
   8   2.0000     -10.298170      -280.2274
   9   2.0000     -10.295567      -280.1566
  10   2.0000     -10.292066      -280.0614
  11   2.0000     -10.287289      -279.9314
  12   2.0000     -10.287182      -279.9285
  13   2.0000     -10.281394      -279.7709
  14   2.0000     -10.279812      -279.7279
  15   2.0000     -10.267323      -279.3881
  16   2.0000      -8.084830      -219.9994
  17   2.0000      -8.077990      -219.8133
  18   2.0000      -6.043318      -164.4470
  19   2.0000      -6.039519      -164.3437
  20   2.0000      -6.036696      -164.2669
  21   2.0000      -6.035575      -164.2364
  22   2.0000      -6.032556      -164.1542
  23   2.0000      -6.028757      -164.0508
  24   2.0000      -1.000842       -27.2343
  25   2.0000      -0.977960       -26.6116
  26   2.0000      -0.913716       -24.8635
  27   2.0000      -0.909055       -24.7366
  28   2.0000      -0.868841       -23.6424
  29   2.0000      -0.850773       -23.1507
  30   2.0000      -0.843337       -22.9484
  31   2.0000      -0.813374       -22.1330
  32   2.0000      -0.782725       -21.2990
  33   2.0000      -0.766995       -20.8710
  34   2.0000      -0.714948       -19.4547
  35   2.0000      -0.694549       -18.8996
  36   2.0000      -0.681912       -18.5558
  37   2.0000      -0.662703       -18.0331
  38   2.0000      -0.629753       -17.1364
  39   2.0000      -0.614997       -16.7349
  40   2.0000      -0.594052       -16.1650
  41   2.0000      -0.575818       -15.6688
  42   2.0000      -0.558683       -15.2026
  43   2.0000      -0.553405       -15.0589
  44   2.0000      -0.548109       -14.9148
  45   2.0000      -0.520794       -14.1715
  46   2.0000      -0.514167       -13.9912
  47   2.0000      -0.510472       -13.8906
  48   2.0000      -0.506949       -13.7948
  49   2.0000      -0.492507       -13.4018
  50   2.0000      -0.488804       -13.3010
  51   2.0000      -0.476404       -12.9636
  52   2.0000      -0.470601       -12.8057
  53   2.0000      -0.469346       -12.7715
  54   2.0000      -0.457162       -12.4400
  55   2.0000      -0.448664       -12.2088
  56   2.0000      -0.440909       -11.9977
  57   2.0000      -0.433970       -11.8089
  58   2.0000      -0.431311       -11.7366
  59   2.0000      -0.421635       -11.4733
  60   2.0000      -0.419595       -11.4178
  61   2.0000      -0.414516       -11.2796
  62   2.0000      -0.408379       -11.1126
  63   2.0000      -0.359591        -9.7850
  64   2.0000      -0.336996        -9.1701
  65   2.0000      -0.320127        -8.7111
  66   2.0000      -0.279856        -7.6153
  67   0.0000       0.018379         0.5001
  68   0.0000       0.082266         2.2386
  69   0.0000       0.108790         2.9603
  70   0.0000       0.113636         3.0922
  71   0.0000       0.127437         3.4677

MULLIKEN ATOMIC CHARGES
-----------------------
   0 S :    0.080314
   1 C :   -0.140175
   2 C :   -0.129597
   3 C :   -0.015332
   4 C :   -0.101140
   5 H :    0.021157
   6 C :    0.079601
   7 H :    0.051845
   8 H :    0.014502
   9 C :   -0.117451
  10 H :    0.041501
  11 H :    0.030539
  12 C :   -0.013148
  13 H :    0.007729
  14 H :    0.045587
  15 H :    0.040663
  16 S :    0.110237
  17 C :   -0.112461
  18 C :   -0.041571
  19 C :   -0.053748
  20 C :   -0.124316
  21 H :    0.036317
  22 C :    0.054485
  23 H :    0.038527
  24 H :    0.013586
  25 C :   -0.078396
  26 H :    0.037732
  27 H :    0.027154
  28 C :   -0.033272
  29 H :    0.010358
  30 H :    0.060286
  31 H :    0.014733
  32 H :    0.074415
  33 H :    0.069340
Sum of atomic charges:   -0.0000000

LOEWDIN ATOMIC CHARGES
----------------------
   0 S :    0.403797
   1 C :   -0.222416
   2 C :   -0.061648
   3 C :   -0.078083
   4 C :   -0.167833
   5 H :    0.028872
   6 C :   -0.037295
   7 H :    0.041423
   8 H :    0.028941
   9 C :   -0.042667
  10 H :    0.024796
  11 H :    0.026423
  12 C :   -0.058092
  13 H :    0.007585
  14 H :    0.033179
  15 H :    0.036615
  16 S :    0.406239
  17 C :   -0.189171
  18 C :   -0.072468
  19 C :   -0.055506
  20 C :   -0.192790
  21 H :    0.041938
  22 C :   -0.044109
  23 H :    0.030260
  24 H :    0.028881
  25 C :   -0.042678
  26 H :    0.014675
  27 H :    0.026193
  28 C :   -0.064801
  29 H :    0.022201
  30 H :    0.030060
  31 H :    0.021417
  32 H :    0.038508
  33 H :    0.037554

  Mayer bond orders larger than 0.100000
B(  0-S ,  1-C ) :   1.1366 B(  0-S ,  4-C ) :   1.1360 B(  1-C ,  2-C ) :   1.5942
B(  1-C , 32-H ) :   0.9610 B(  2-C ,  3-C ) :   1.2475 B(  2-C ,  6-C ) :   1.0316
B(  3-C ,  4-C ) :   1.5496 B(  3-C ,  5-H ) :   0.9795 B(  4-C , 20-C ) :   1.0777
B(  6-C ,  7-H ) :   0.9239 B(  6-C ,  8-H ) :   0.9408 B(  6-C ,  9-C ) :   1.0652
B(  9-C , 10-H ) :   0.9490 B(  9-C , 11-H ) :   0.9595 B(  9-C , 12-C ) :   1.0845
B( 12-C , 13-H ) :   0.9733 B( 12-C , 14-H ) :   0.9749 B( 12-C , 15-H ) :   0.9727
B( 16-S , 17-C ) :   1.1405 B( 16-S , 20-C ) :   1.1506 B( 17-C , 18-C ) :   1.6238
B( 17-C , 33-H ) :   0.9584 B( 18-C , 19-C ) :   1.2596 B( 18-C , 21-H ) :   0.9816
B( 19-C , 20-C ) :   1.5371 B( 19-C , 22-C ) :   1.0343 B( 22-C , 23-H ) :   0.9259
B( 22-C , 24-H ) :   0.9348 B( 22-C , 25-C ) :   1.0783 B( 25-C , 26-H ) :   0.9520
B( 25-C , 27-H ) :   0.9526 B( 25-C , 28-C ) :   1.0832 B( 28-C , 29-H ) :   0.9716
B( 28-C , 30-H ) :   0.9728 B( 28-C , 31-H ) :   0.9695

Dispersion correction           -0.014285619
FINAL SINGLE POINT ENERGY     -1339.875078730178

DIPOLE MOMENT
-------------
                                X             Y             Z
Electronic contribution:      1.51448       5.85945      -5.01506
Nuclear contribution   :     -1.54677      -5.83658       5.14358
                        -----------------------------------------
Total Dipole Moment    :     -0.03229       0.02287       0.12853
                        -----------------------------------------
Magnitude (a.u.)       :      0.13448
Magnitude (Debye)      :      0.34182

Rotational constants in cm-1:     0.024143     0.007789     0.006134
Rotational constants in MHz :   723.799066   233.505746   183.893122

                             ****ORCA TERMINATED NORMALLY****
TOTAL RUN TIME: 0 days 0 hours 0 minutes 28 seconds 146 msec
