                         Program Version 4.2.1 -  RELEASE  -
|  1> ! wB97X-D3 SP def2-SVP
|  2> %pal
|  3> nprocs 16
|  4> end
|  5>
|  6> * xyz 0 1
|  7> S 	 60.5536 	 5.13278 	 79.07
|  8> C 	 60.1542 	 6.59776 	 80.0256
|  9> C 	 59.6862 	 7.56666 	 79.18
| 10> C 	 59.7687 	 7.27771 	 77.8061
| 11> C 	 60.3436 	 6.0555 	 77.5581
| 12> H 	 59.3495 	 7.87081 	 76.9993
| 13> C 	 58.8898 	 8.82158 	 79.5456
| 14> H 	 59.4965 	 9.71532 	 79.3214
| 15> H 	 58.7778 	 8.74467 	 80.6687
| 16> C 	 57.5356 	 8.89033 	 78.9081
| 17> H 	 57.6741 	 9.13937 	 77.9175
| 18> H 	 57.205 	 7.89198 	 78.7278
| 19> C 	 56.3869 	 9.72964 	 79.536
| 20> H 	 56.1706 	 9.28533 	 80.507
| 21> H 	 56.6646 	 10.7368 	 79.6438
| 22> H 	 55.5406 	 9.63834 	 78.8597
| 23> S 	 60.1754 	 3.66342 	 76.1857
| 24> C 	 59.9764 	 3.8484 	 74.4396
| 25> C 	 60.7419 	 4.89481 	 74.0214
| 26> C 	 60.935 	 5.86598 	 75.0306
| 27> C 	 60.5216 	 5.41394 	 76.3108
| 28> H 	 60.9824 	 4.99359 	 72.98
| 29> C 	 61.5532 	 7.21919 	 74.7897
| 30> H 	 61.0848 	 7.88054 	 75.5476
| 31> H 	 61.2075 	 7.80292 	 73.8794
| 32> C 	 63.0851 	 7.227 	 75.1121
| 33> H 	 63.7081 	 6.68824 	 74.3422
| 34> H 	 63.2106 	 6.73299 	 76.0539
| 35> C 	 63.6828 	 8.62241 	 75.3621
| 36> H 	 64.6612 	 8.41684 	 75.7739
| 37> H 	 63.1689 	 9.12325 	 76.1967
| 38> H 	 63.7901 	 9.25636 	 74.4658
| 39> H 	 60.1613 	 6.57636 	 81.1063
| 40> H 	 59.8113 	 2.96544 	 73.8228
| 41> *
| 42>
| 43>                          ****END OF INPUT****

CARTESIAN COORDINATES (ANGSTROEM)
---------------------------------
  S     60.553600    5.132780   79.070000
  C     60.154200    6.597760   80.025600
  C     59.686200    7.566660   79.180000
  C     59.768700    7.277710   77.806100
  C     60.343600    6.055500   77.558100
  H     59.349500    7.870810   76.999300
  C     58.889800    8.821580   79.545600
  H     59.496500    9.715320   79.321400
  H     58.777800    8.744670   80.668700
  C     57.535600    8.890330   78.908100
  H     57.674100    9.139370   77.917500
  H     57.205000    7.891980   78.727800
  C     56.386900    9.729640   79.536000
  H     56.170600    9.285330   80.507000
  H     56.664600   10.736800   79.643800
  H     55.540600    9.638340   78.859700
  S     60.175400    3.663420   76.185700
  C     59.976400    3.848400   74.439600
  C     60.741900    4.894810   74.021400
  C     60.935000    5.865980   75.030600
  C     60.521600    5.413940   76.310800
  H     60.982400    4.993590   72.980000
  C     61.553200    7.219190   74.789700
  H     61.084800    7.880540   75.547600
  H     61.207500    7.802920   73.879400
  C     63.085100    7.227000   75.112100
  H     63.708100    6.688240   74.342200
  H     63.210600    6.732990   76.053900
  C     63.682800    8.622410   75.362100
  H     64.661200    8.416840   75.773900
  H     63.168900    9.123250   76.196700
  H     63.790100    9.256360   74.465800
  H     60.161300    6.576360   81.106300
  H     59.811300    2.965440   73.822800

 Total Charge           Charge          ....    0
 Multiplicity           Mult            ....    1
 Number of Electrons    NEL             ....  134
 Basis Dimension        Dim             ....  322

ORBITAL ENERGIES
----------------

  NO   OCC          E(Eh)            E(eV)
   0   2.0000     -88.964672     -2420.8518
   1   2.0000     -88.961326     -2420.7607
   2   2.0000     -10.331848      -281.1439
   3   2.0000     -10.329961      -281.0925
   4   2.0000     -10.317940      -280.7654
   5   2.0000     -10.315840      -280.7083
   6   2.0000     -10.308150      -280.4990
   7   2.0000     -10.300088      -280.2796
   8   2.0000     -10.296992      -280.1954
   9   2.0000     -10.294021      -280.1145
  10   2.0000     -10.293384      -280.0972
  11   2.0000     -10.291552      -280.0474
  12   2.0000     -10.289064      -279.9797
  13   2.0000     -10.278434      -279.6904
  14   2.0000     -10.277101      -279.6541
  15   2.0000     -10.274452      -279.5820
  16   2.0000      -8.078651      -219.8313
  17   2.0000      -8.075873      -219.7557
  18   2.0000      -6.037375      -164.2853
  19   2.0000      -6.034457      -164.2059
  20   2.0000      -6.033539      -164.1810
  21   2.0000      -6.030940      -164.1102
  22   2.0000      -6.028967      -164.0565
  23   2.0000      -6.026019      -163.9763
  24   2.0000      -1.007628       -27.4189
  25   2.0000      -0.983807       -26.7708
  26   2.0000      -0.914599       -24.8875
  27   2.0000      -0.903307       -24.5802
  28   2.0000      -0.875028       -23.8107
  29   2.0000      -0.851694       -23.1758
  30   2.0000      -0.843617       -22.9560
  31   2.0000      -0.816462       -22.2171
  32   2.0000      -0.783032       -21.3074
  33   2.0000      -0.769583       -20.9414
  34   2.0000      -0.715697       -19.4751
  35   2.0000      -0.700147       -19.0520
  36   2.0000      -0.692235       -18.8367
  37   2.0000      -0.659803       -17.9542
  38   2.0000      -0.641251       -17.4493
  39   2.0000      -0.624279       -16.9875
  40   2.0000      -0.596131       -16.2216
  41   2.0000      -0.570921       -15.5355
  42   2.0000      -0.563773       -15.3410
  43   2.0000      -0.554148       -15.0791
  44   2.0000      -0.529741       -14.4150
  45   2.0000      -0.526429       -14.3249
  46   2.0000      -0.517216       -14.0742
  47   2.0000      -0.508511       -13.8373
  48   2.0000      -0.506152       -13.7731
  49   2.0000      -0.501042       -13.6340
  50   2.0000      -0.495764       -13.4904
  51   2.0000      -0.481267       -13.0959
  52   2.0000      -0.475995       -12.9525
  53   2.0000      -0.464182       -12.6310
  54   2.0000      -0.453704       -12.3459
  55   2.0000      -0.450788       -12.2666
  56   2.0000      -0.446076       -12.1383
  57   2.0000      -0.436331       -11.8732
  58   2.0000      -0.431706       -11.7473
  59   2.0000      -0.419031       -11.4024
  60   2.0000      -0.415832       -11.3154
  61   2.0000      -0.413108       -11.2412
  62   2.0000      -0.411923       -11.2090
  63   2.0000      -0.359310        -9.7773
  64   2.0000      -0.335048        -9.1171
  65   2.0000      -0.323116        -8.7924
  66   2.0000      -0.279177        -7.5968
  67   0.0000       0.009940         0.2705
  68   0.0000       0.059950         1.6313
  69   0.0000       0.096381         2.6227
  70   0.0000       0.114050         3.1034
  71   0.0000       0.139220         3.7884

MULLIKEN ATOMIC CHARGES
-----------------------
   0 S :    0.076713
   1 C :   -0.128451
   2 C :   -0.070547
   3 C :   -0.016421
   4 C :   -0.110561
   5 H :    0.033109
   6 C :    0.069859
   7 H :    0.040670
   8 H :    0.015462
   9 C :   -0.086841
  10 H :   -0.001967
  11 H :    0.021720
  12 C :    0.000294
  13 H :    0.035274
  14 H :    0.026391
  15 H :    0.036829
  16 S :    0.075932
  17 C :   -0.088035
  18 C :   -0.019673
  19 C :   -0.044584
  20 C :   -0.133649
  21 H :    0.019889
  22 C :    0.052340
  23 H :   -0.003912
  24 H :    0.038268
  25 C :   -0.077334
  26 H :    0.039489
  27 H :    0.032713
  28 C :   -0.052476
  29 H :    0.027670
  30 H :    0.035181
  31 H :    0.042965
  32 H :    0.050292
  33 H :    0.063392
Sum of atomic charges:    0.0000000

LOEWDIN ATOMIC CHARGES
----------------------
   0 S :    0.364157
   1 C :   -0.180693
   2 C :   -0.063100
   3 C :   -0.068816
   4 C :   -0.168564
   5 H :    0.034620
   6 C :   -0.031167
   7 H :    0.031612
   8 H :    0.029328
   9 C :   -0.047636
  10 H :    0.010759
  11 H :    0.025657
  12 C :   -0.047000
  13 H :    0.027380
  14 H :    0.017876
  15 H :    0.031647
  16 S :    0.368943
  17 C :   -0.175333
  18 C :   -0.061778
  19 C :   -0.052383
  20 C :   -0.179626
  21 H :    0.031749
  22 C :   -0.048900
  23 H :    0.030747
  24 H :    0.035362
  25 C :   -0.036532
  26 H :    0.027640
  27 H :    0.027041
  28 C :   -0.068658
  29 H :    0.027176
  30 H :    0.027223
  31 H :    0.025069
  32 H :    0.028385
  33 H :    0.027815

  Mayer bond orders larger than 0.100000
B(  0-S ,  1-C ) :   1.1057 B(  0-S ,  4-C ) :   1.1275 B(  1-C ,  2-C ) :   1.6346
B(  1-C , 32-H ) :   0.9730 B(  2-C ,  3-C ) :   1.2226 B(  2-C ,  6-C ) :   1.0164
B(  3-C ,  4-C ) :   1.5758 B(  3-C ,  5-H ) :   0.9862 B(  4-C , 20-C ) :   1.1188
B(  6-C ,  7-H ) :   0.9336 B(  6-C ,  8-H ) :   0.9459 B(  6-C ,  9-C ) :   1.0656
B(  9-C , 10-H ) :   0.9379 B(  9-C , 11-H ) :   0.9544 B(  9-C , 12-C ) :   1.0863
B( 12-C , 13-H ) :   0.9756 B( 12-C , 14-H ) :   0.9773 B( 12-C , 15-H ) :   0.9729
B( 16-S , 17-C ) :   1.1381 B( 16-S , 20-C ) :   1.1171 B( 17-C , 18-C ) :   1.6132
B( 17-C , 20-C ) :   0.1101 B( 17-C , 33-H ) :   0.9619 B( 18-C , 19-C ) :   1.2405
B( 18-C , 21-H ) :   0.9924 B( 19-C , 20-C ) :   1.5493 B( 19-C , 22-C ) :   1.0554
B( 22-C , 23-H ) :   0.9260 B( 22-C , 24-H ) :   0.9372 B( 22-C , 25-C ) :   1.0486
B( 25-C , 26-H ) :   0.9572 B( 25-C , 27-H ) :   0.9561 B( 25-C , 28-C ) :   1.0887
B( 28-C , 29-H ) :   0.9729 B( 28-C , 30-H ) :   0.9721 B( 28-C , 31-H ) :   0.9761

Dispersion correction           -0.013979575
FINAL SINGLE POINT ENERGY     -1339.849110886667

DIPOLE MOMENT
-------------
                                X             Y             Z
Electronic contribution:      1.81644     -25.96764       1.44531
Nuclear contribution   :     -1.90444      26.53476      -1.73145
                        -----------------------------------------
Total Dipole Moment    :     -0.08800       0.56712      -0.28614
                        -----------------------------------------
Magnitude (a.u.)       :      0.64128
Magnitude (Debye)      :      1.63001

Rotational constants in cm-1:     0.017020     0.008598     0.007351
Rotational constants in MHz :   510.261646   257.753857   220.373713

                             ****ORCA TERMINATED NORMALLY****
TOTAL RUN TIME: 0 days 0 hours 0 minutes 28 seconds 691 msec
