                         Program Version 4.2.1 -  RELEASE  -
|  1> ! wB97X-D3 SP def2-SVP
|  2> %pal
|  3> nprocs 16
|  4> end
|  5>
|  6> * xyz 0 1
|  7> S 	 -43.5284 	 19.9997 	 78.3676
|  8> C 	 -44.564 	 21.1722 	 79.1293
|  9> C 	 -43.8435 	 22.2943 	 79.5405
| 10> C 	 -42.4346 	 22.2118 	 79.1107
| 11> C 	 -42.1493 	 21.0723 	 78.4086
| 12> H 	 -41.5971 	 22.9035 	 79.3085
| 13> C 	 -44.3935 	 23.4581 	 80.3847
| 14> H 	 -44.4944 	 22.9612 	 81.3173
| 15> H 	 -45.4876 	 23.7378 	 80.047
| 16> C 	 -43.5045 	 24.6895 	 80.5838
| 17> H 	 -44.0097 	 25.3284 	 81.3263
| 18> H 	 -42.4437 	 24.433 	 81.0044
| 19> C 	 -43.4701 	 25.4202 	 79.2447
| 20> H 	 -43.2957 	 24.7441 	 78.4378
| 21> H 	 -44.2483 	 26.0925 	 79.1376
| 22> H 	 -42.5765 	 26.0019 	 79.403
| 23> S 	 -40.106 	 19.2149 	 78.4475
| 24> C 	 -38.8705 	 19.3991 	 77.2627
| 25> C 	 -39.0035 	 20.5599 	 76.5431
| 26> C 	 -40.0489 	 21.4231 	 76.9916
| 27> C 	 -40.8962 	 20.7125 	 77.8237
| 28> H 	 -38.2778 	 20.8406 	 75.7759
| 29> C 	 -40.3742 	 22.7393 	 76.2635
| 30> H 	 -39.4608 	 23.3278 	 76.0376
| 31> H 	 -40.8285 	 23.4092 	 76.9733
| 32> C 	 -41.3287 	 22.6855 	 75.0012
| 33> H 	 -42.1691 	 22.0192 	 75.1399
| 34> H 	 -40.7769 	 22.4781 	 74.0994
| 35> C 	 -41.8137 	 24.1297 	 74.6639
| 36> H 	 -42.1449 	 24.6701 	 75.5382
| 37> H 	 -42.5689 	 24.1407 	 73.9294
| 38> H 	 -41.0739 	 24.7491 	 74.3223
| 39> H 	 -45.5482 	 21.0769 	 79.5884
| 40> H 	 -38.1638 	 18.6989 	 77.0157
| 41> *
| 42>
| 43>                          ****END OF INPUT****

CARTESIAN COORDINATES (ANGSTROEM)
---------------------------------
  S    -43.528400   19.999700   78.367600
  C    -44.564000   21.172200   79.129300
  C    -43.843500   22.294300   79.540500
  C    -42.434600   22.211800   79.110700
  C    -42.149300   21.072300   78.408600
  H    -41.597100   22.903500   79.308500
  C    -44.393500   23.458100   80.384700
  H    -44.494400   22.961200   81.317300
  H    -45.487600   23.737800   80.047000
  C    -43.504500   24.689500   80.583800
  H    -44.009700   25.328400   81.326300
  H    -42.443700   24.433000   81.004400
  C    -43.470100   25.420200   79.244700
  H    -43.295700   24.744100   78.437800
  H    -44.248300   26.092500   79.137600
  H    -42.576500   26.001900   79.403000
  S    -40.106000   19.214900   78.447500
  C    -38.870500   19.399100   77.262700
  C    -39.003500   20.559900   76.543100
  C    -40.048900   21.423100   76.991600
  C    -40.896200   20.712500   77.823700
  H    -38.277800   20.840600   75.775900
  C    -40.374200   22.739300   76.263500
  H    -39.460800   23.327800   76.037600
  H    -40.828500   23.409200   76.973300
  C    -41.328700   22.685500   75.001200
  H    -42.169100   22.019200   75.139900
  H    -40.776900   22.478100   74.099400
  C    -41.813700   24.129700   74.663900
  H    -42.144900   24.670100   75.538200
  H    -42.568900   24.140700   73.929400
  H    -41.073900   24.749100   74.322300
  H    -45.548200   21.076900   79.588400
  H    -38.163800   18.698900   77.015700

 Total Charge           Charge          ....    0
 Multiplicity           Mult            ....    1
 Number of Electrons    NEL             ....  134
 Basis Dimension        Dim             ....  322

ORBITAL ENERGIES
----------------

  NO   OCC          E(Eh)            E(eV)
   0   2.0000     -88.966454     -2420.9003
   1   2.0000     -88.964898     -2420.8579
   2   2.0000     -10.327173      -281.0167
   3   2.0000     -10.323984      -280.9299
   4   2.0000     -10.311759      -280.5972
   5   2.0000     -10.307841      -280.4906
   6   2.0000     -10.307317      -280.4764
   7   2.0000     -10.305573      -280.4289
   8   2.0000     -10.298346      -280.2322
   9   2.0000     -10.297507      -280.2094
  10   2.0000     -10.297271      -280.2030
  11   2.0000     -10.297207      -280.2013
  12   2.0000     -10.290617      -280.0219
  13   2.0000     -10.288426      -279.9623
  14   2.0000     -10.266257      -279.3590
  15   2.0000     -10.264429      -279.3093
  16   2.0000      -8.081044      -219.8964
  17   2.0000      -8.079527      -219.8551
  18   2.0000      -6.039714      -164.3490
  19   2.0000      -6.038042      -164.3035
  20   2.0000      -6.035514      -164.2347
  21   2.0000      -6.034129      -164.1970
  22   2.0000      -6.031697      -164.1308
  23   2.0000      -6.030203      -164.0902
  24   2.0000      -1.006040       -27.3757
  25   2.0000      -0.981618       -26.7112
  26   2.0000      -0.913687       -24.8627
  27   2.0000      -0.901654       -24.5353
  28   2.0000      -0.873123       -23.7589
  29   2.0000      -0.852940       -23.2097
  30   2.0000      -0.841522       -22.8990
  31   2.0000      -0.813498       -22.1364
  32   2.0000      -0.784737       -21.3538
  33   2.0000      -0.773654       -21.0522
  34   2.0000      -0.712287       -19.3823
  35   2.0000      -0.701899       -19.0997
  36   2.0000      -0.690328       -18.7848
  37   2.0000      -0.658931       -17.9304
  38   2.0000      -0.634630       -17.2691
  39   2.0000      -0.617199       -16.7948
  40   2.0000      -0.598631       -16.2896
  41   2.0000      -0.565736       -15.3945
  42   2.0000      -0.561220       -15.2716
  43   2.0000      -0.556166       -15.1340
  44   2.0000      -0.541292       -14.7293
  45   2.0000      -0.525976       -14.3125
  46   2.0000      -0.516122       -14.0444
  47   2.0000      -0.509452       -13.8629
  48   2.0000      -0.499426       -13.5901
  49   2.0000      -0.498082       -13.5535
  50   2.0000      -0.491014       -13.3612
  51   2.0000      -0.485719       -13.2171
  52   2.0000      -0.465463       -12.6659
  53   2.0000      -0.463287       -12.6067
  54   2.0000      -0.457098       -12.4383
  55   2.0000      -0.449316       -12.2265
  56   2.0000      -0.445018       -12.1096
  57   2.0000      -0.440212       -11.9788
  58   2.0000      -0.437364       -11.9013
  59   2.0000      -0.426677       -11.6105
  60   2.0000      -0.420519       -11.4429
  61   2.0000      -0.415494       -11.3062
  62   2.0000      -0.408333       -11.1113
  63   2.0000      -0.342933        -9.3317
  64   2.0000      -0.333371        -9.0715
  65   2.0000      -0.322866        -8.7856
  66   2.0000      -0.293614        -7.9896
  67   0.0000       0.027984         0.7615
  68   0.0000       0.067896         1.8475
  69   0.0000       0.110641         3.0107
  70   0.0000       0.124705         3.3934
  71   0.0000       0.125524         3.4157

MULLIKEN ATOMIC CHARGES
-----------------------
   0 S :    0.120467
   1 C :   -0.105413
   2 C :   -0.128159
   3 C :    0.013864
   4 C :   -0.160923
   5 H :    0.029450
   6 C :    0.035267
   7 H :    0.032068
   8 H :    0.051196
   9 C :   -0.126922
  10 H :    0.036884
  11 H :    0.052836
  12 C :   -0.000407
  13 H :    0.045324
  14 H :    0.023092
  15 H :    0.017782
  16 S :    0.106130
  17 C :   -0.042513
  18 C :   -0.041237
  19 C :   -0.008096
  20 C :   -0.170787
  21 H :    0.019741
  22 C :    0.041266
  23 H :    0.025104
  24 H :   -0.000778
  25 C :   -0.033263
  26 H :    0.046667
  27 H :    0.030036
  28 C :   -0.027142
  29 H :    0.017115
  30 H :    0.024300
  31 H :    0.004219
  32 H :    0.048511
  33 H :    0.024322
Sum of atomic charges:   -0.0000000

LOEWDIN ATOMIC CHARGES
----------------------
   0 S :    0.412711
   1 C :   -0.218116
   2 C :   -0.056818
   3 C :   -0.071031
   4 C :   -0.202625
   5 H :    0.035713
   6 C :   -0.045915
   7 H :    0.027957
   8 H :    0.044690
   9 C :   -0.046879
  10 H :    0.029843
  11 H :    0.033934
  12 C :   -0.056357
  13 H :    0.022749
  14 H :    0.017721
  15 H :    0.027604
  16 S :    0.393153
  17 C :   -0.180320
  18 C :   -0.067600
  19 C :   -0.052235
  20 C :   -0.179252
  21 H :    0.032430
  22 C :   -0.034876
  23 H :    0.034910
  24 H :    0.022448
  25 C :   -0.023045
  26 H :    0.027762
  27 H :    0.024754
  28 C :   -0.057148
  29 H :    0.021358
  30 H :    0.021885
  31 H :    0.012687
  32 H :    0.035108
  33 H :    0.012799

  Mayer bond orders larger than 0.100000
B(  0-S ,  1-C ) :   1.1256 B(  0-S ,  4-C ) :   1.1413 B(  1-C ,  2-C ) :   1.6487
B(  1-C , 32-H ) :   0.9630 B(  2-C ,  3-C ) :   1.2110 B(  2-C ,  6-C ) :   0.9926
B(  3-C ,  4-C ) :   1.6012 B(  3-C ,  5-H ) :   0.9801 B(  4-C , 20-C ) :   1.0503
B(  6-C ,  7-H ) :   0.9286 B(  6-C ,  8-H ) :   0.9439 B(  6-C ,  9-C ) :   1.0902
B(  9-C , 10-H ) :   0.9503 B(  9-C , 11-H ) :   0.9523 B(  9-C , 12-C ) :   1.0610
B( 12-C , 13-H ) :   0.9793 B( 12-C , 14-H ) :   0.9733 B( 12-C , 15-H ) :   0.9738
B( 16-S , 17-C ) :   1.1386 B( 16-S , 20-C ) :   1.1372 B( 17-C , 18-C ) :   1.6349
B( 17-C , 20-C ) :   0.1018 B( 17-C , 33-H ) :   0.9741 B( 18-C , 19-C ) :   1.2170
B( 18-C , 21-H ) :   0.9855 B( 19-C , 20-C ) :   1.5962 B( 19-C , 22-C ) :   1.0638
B( 22-C , 23-H ) :   0.9333 B( 22-C , 24-H ) :   0.9347 B( 22-C , 25-C ) :   1.0516
B( 25-C , 26-H ) :   0.9627 B( 25-C , 27-H ) :   0.9585 B( 25-C , 28-C ) :   1.0713
B( 28-C , 29-H ) :   0.9757 B( 28-C , 30-H ) :   0.9732 B( 28-C , 31-H ) :   0.9741

Dispersion correction           -0.014997096
FINAL SINGLE POINT ENERGY     -1339.851863075170

DIPOLE MOMENT
-------------
                                X             Y             Z
Electronic contribution:      4.66911     -28.83303       5.81434
Nuclear contribution   :     -4.60715      29.54096      -5.80655
                        -----------------------------------------
Total Dipole Moment    :      0.06196       0.70792       0.00779
                        -----------------------------------------
Magnitude (a.u.)       :      0.71067
Magnitude (Debye)      :      1.80638

Rotational constants in cm-1:     0.016807     0.010097     0.007686
Rotational constants in MHz :   503.873275   302.712330   230.417300

                             ****ORCA TERMINATED NORMALLY****
TOTAL RUN TIME: 0 days 0 hours 0 minutes 29 seconds 524 msec
