                         Program Version 4.2.1 -  RELEASE  -
|  1> ! wB97X-D3 SP def2-SVP
|  2> %pal
|  3> nprocs 16
|  4> end
|  5>
|  6> * xyz 0 1
|  7> S 	 -68.7781 	 36.4246 	 140.717
|  8> C 	 -69.1012 	 34.7436 	 140.505
|  9> C 	 -68.1624 	 33.9438 	 141.102
| 10> C 	 -67.1777 	 34.684 	 141.839
| 11> C 	 -67.345 	 36.0323 	 141.67
| 12> H 	 -66.2114 	 34.3051 	 142.25
| 13> C 	 -68.046 	 32.4498 	 140.916
| 14> H 	 -68.947 	 31.9885 	 140.595
| 15> H 	 -67.9601 	 32.0066 	 141.851
| 16> C 	 -66.8564 	 31.9777 	 140.064
| 17> H 	 -66.5834 	 32.4476 	 139.117
| 18> H 	 -66.0152 	 32.2771 	 140.71
| 19> C 	 -66.6698 	 30.4621 	 139.933
| 20> H 	 -65.7876 	 30.1397 	 139.554
| 21> H 	 -66.7899 	 30.1465 	 140.965
| 22> H 	 -67.5078 	 29.9523 	 139.463
| 23> S 	 -66.8063 	 38.2932 	 143.172
| 24> C 	 -65.2009 	 38.9004 	 143.167
| 25> C 	 -64.4383 	 38.3026 	 142.208
| 26> C 	 -65.0484 	 37.1343 	 141.641
| 27> C 	 -66.3937 	 37.0284 	 142.09
| 28> H 	 -63.4339 	 38.7317 	 142.137
| 29> C 	 -64.3278 	 36.1926 	 140.661
| 30> H 	 -65.0671 	 35.5691 	 140.155
| 31> H 	 -63.8595 	 35.44 	 141.259
| 32> C 	 -63.4021 	 36.7481 	 139.574
| 33> H 	 -62.6419 	 36.0491 	 139.281
| 34> H 	 -62.8907 	 37.6022 	 140.093
| 35> C 	 -64.1508 	 37.4015 	 138.403
| 36> H 	 -64.6391 	 38.2039 	 138.921
| 37> H 	 -64.8716 	 36.7683 	 137.903
| 38> H 	 -63.4209 	 37.7526 	 137.623
| 39> H 	 -69.9217 	 34.3113 	 139.929
| 40> H 	 -64.8889 	 39.8314 	 143.54
| 41> *
| 42>
| 43>                          ****END OF INPUT****

CARTESIAN COORDINATES (ANGSTROEM)
---------------------------------
  S    -68.778100   36.424600  140.717000
  C    -69.101200   34.743600  140.505000
  C    -68.162400   33.943800  141.102000
  C    -67.177700   34.684000  141.839000
  C    -67.345000   36.032300  141.670000
  H    -66.211400   34.305100  142.250000
  C    -68.046000   32.449800  140.916000
  H    -68.947000   31.988500  140.595000
  H    -67.960100   32.006600  141.851000
  C    -66.856400   31.977700  140.064000
  H    -66.583400   32.447600  139.117000
  H    -66.015200   32.277100  140.710000
  C    -66.669800   30.462100  139.933000
  H    -65.787600   30.139700  139.554000
  H    -66.789900   30.146500  140.965000
  H    -67.507800   29.952300  139.463000
  S    -66.806300   38.293200  143.172000
  C    -65.200900   38.900400  143.167000
  C    -64.438300   38.302600  142.208000
  C    -65.048400   37.134300  141.641000
  C    -66.393700   37.028400  142.090000
  H    -63.433900   38.731700  142.137000
  C    -64.327800   36.192600  140.661000
  H    -65.067100   35.569100  140.155000
  H    -63.859500   35.440000  141.259000
  C    -63.402100   36.748100  139.574000
  H    -62.641900   36.049100  139.281000
  H    -62.890700   37.602200  140.093000
  C    -64.150800   37.401500  138.403000
  H    -64.639100   38.203900  138.921000
  H    -64.871600   36.768300  137.903000
  H    -63.420900   37.752600  137.623000
  H    -69.921700   34.311300  139.929000
  H    -64.888900   39.831400  143.540000

 Total Charge           Charge          ....    0
 Multiplicity           Mult            ....    1
 Number of Electrons    NEL             ....  134
 Basis Dimension        Dim             ....  322

ORBITAL ENERGIES
----------------

  NO   OCC          E(Eh)            E(eV)
   0   2.0000     -88.967574     -2420.9308
   1   2.0000     -88.967107     -2420.9181
   2   2.0000     -10.325973      -280.9840
   3   2.0000     -10.324157      -280.9346
   4   2.0000     -10.311777      -280.5977
   5   2.0000     -10.310903      -280.5739
   6   2.0000     -10.307349      -280.4772
   7   2.0000     -10.299729      -280.2699
   8   2.0000     -10.296186      -280.1735
   9   2.0000     -10.293060      -280.0884
  10   2.0000     -10.289067      -279.9797
  11   2.0000     -10.287442      -279.9355
  12   2.0000     -10.287334      -279.9326
  13   2.0000     -10.286298      -279.9044
  14   2.0000     -10.275180      -279.6019
  15   2.0000     -10.270672      -279.4792
  16   2.0000      -8.082954      -219.9484
  17   2.0000      -8.082552      -219.9374
  18   2.0000      -6.041241      -164.3905
  19   2.0000      -6.040992      -164.3838
  20   2.0000      -6.037320      -164.2838
  21   2.0000      -6.037138      -164.2789
  22   2.0000      -6.033865      -164.1898
  23   2.0000      -6.033253      -164.1732
  24   2.0000      -1.011739       -27.5308
  25   2.0000      -0.989466       -26.9247
  26   2.0000      -0.915058       -24.9000
  27   2.0000      -0.908803       -24.7298
  28   2.0000      -0.875625       -23.8270
  29   2.0000      -0.853907       -23.2360
  30   2.0000      -0.847687       -23.0667
  31   2.0000      -0.818983       -22.2857
  32   2.0000      -0.787789       -21.4368
  33   2.0000      -0.774196       -21.0670
  34   2.0000      -0.711232       -19.3536
  35   2.0000      -0.700132       -19.0516
  36   2.0000      -0.696519       -18.9532
  37   2.0000      -0.650759       -17.7080
  38   2.0000      -0.641990       -17.4694
  39   2.0000      -0.623167       -16.9572
  40   2.0000      -0.601704       -16.3732
  41   2.0000      -0.575056       -15.6481
  42   2.0000      -0.557772       -15.1777
  43   2.0000      -0.555447       -15.1145
  44   2.0000      -0.538241       -14.6463
  45   2.0000      -0.535113       -14.5612
  46   2.0000      -0.521711       -14.1965
  47   2.0000      -0.509092       -13.8531
  48   2.0000      -0.504751       -13.7350
  49   2.0000      -0.498379       -13.5616
  50   2.0000      -0.491375       -13.3710
  51   2.0000      -0.482543       -13.1307
  52   2.0000      -0.470317       -12.7980
  53   2.0000      -0.466324       -12.6893
  54   2.0000      -0.462464       -12.5843
  55   2.0000      -0.452855       -12.3228
  56   2.0000      -0.449882       -12.2419
  57   2.0000      -0.440412       -11.9842
  58   2.0000      -0.432049       -11.7566
  59   2.0000      -0.427929       -11.6445
  60   2.0000      -0.423252       -11.5173
  61   2.0000      -0.411086       -11.1862
  62   2.0000      -0.405075       -11.0227
  63   2.0000      -0.344390        -9.3713
  64   2.0000      -0.332732        -9.0541
  65   2.0000      -0.328669        -8.9435
  66   2.0000      -0.298660        -8.1270
  67   0.0000       0.036460         0.9921
  68   0.0000       0.066707         1.8152
  69   0.0000       0.117716         3.2032
  70   0.0000       0.120784         3.2867
  71   0.0000       0.131511         3.5786

MULLIKEN ATOMIC CHARGES
-----------------------
   0 S :    0.123269
   1 C :   -0.110616
   2 C :   -0.099027
   3 C :    0.018600
   4 C :   -0.166043
   5 H :    0.038561
   6 C :    0.135467
   7 H :   -0.004304
   8 H :    0.001707
   9 C :   -0.102211
  10 H :    0.033135
  11 H :    0.013883
  12 C :    0.006026
  13 H :    0.020021
  14 H :    0.006451
  15 H :    0.024156
  16 S :    0.129725
  17 C :   -0.071062
  18 C :   -0.078086
  19 C :   -0.030624
  20 C :   -0.182021
  21 H :    0.032551
  22 C :    0.076784
  23 H :    0.020180
  24 H :    0.027547
  25 C :   -0.065855
  26 H :    0.027236
  27 H :    0.024495
  28 C :   -0.049222
  29 H :    0.036505
  30 H :    0.032868
  31 H :    0.043584
  32 H :    0.047514
  33 H :    0.038805
Sum of atomic charges:   -0.0000000

LOEWDIN ATOMIC CHARGES
----------------------
   0 S :    0.408580
   1 C :   -0.203369
   2 C :   -0.062195
   3 C :   -0.061480
   4 C :   -0.188919
   5 H :    0.041388
   6 C :   -0.024817
   7 H :    0.020903
   8 H :    0.024892
   9 C :   -0.041549
  10 H :    0.022279
  11 H :    0.023468
  12 C :   -0.054184
  13 H :    0.012282
  14 H :    0.025231
  15 H :    0.023419
  16 S :    0.439535
  17 C :   -0.195327
  18 C :   -0.078678
  19 C :   -0.047698
  20 C :   -0.221177
  21 H :    0.036142
  22 C :   -0.037779
  23 H :    0.030173
  24 H :    0.030831
  25 C :   -0.040407
  26 H :    0.020087
  27 H :    0.026454
  28 C :   -0.062685
  29 H :    0.027403
  30 H :    0.020912
  31 H :    0.032579
  32 H :    0.032752
  33 H :    0.020952

  Mayer bond orders larger than 0.100000
B(  0-S ,  1-C ) :   1.1287 B(  0-S ,  4-C ) :   1.1500 B(  1-C ,  2-C ) :   1.6484
B(  1-C , 32-H ) :   0.9626 B(  2-C ,  3-C ) :   1.2130 B(  2-C ,  6-C ) :   1.0363
B(  3-C ,  4-C ) :   1.5968 B(  3-C ,  5-H ) :   0.9859 B(  4-C , 20-C ) :   1.0435
B(  6-C ,  7-H ) :   0.9374 B(  6-C ,  8-H ) :   0.9224 B(  6-C ,  9-C ) :   1.0450
B(  9-C , 10-H ) :   0.9633 B(  9-C , 11-H ) :   0.9537 B(  9-C , 12-C ) :   1.0827
B( 12-C , 13-H ) :   0.9749 B( 12-C , 14-H ) :   0.9705 B( 12-C , 15-H ) :   0.9753
B( 16-S , 17-C ) :   1.1643 B( 16-S , 20-C ) :   1.1680 B( 17-C , 18-C ) :   1.6361
B( 17-C , 33-H ) :   0.9623 B( 18-C , 19-C ) :   1.2390 B( 18-C , 21-H ) :   0.9812
B( 19-C , 20-C ) :   1.5517 B( 19-C , 22-C ) :   1.0342 B( 22-C , 23-H ) :   0.9262
B( 22-C , 24-H ) :   0.9275 B( 22-C , 25-C ) :   1.0654 B( 25-C , 26-H ) :   0.9533
B( 25-C , 27-H ) :   0.9594 B( 25-C , 28-C ) :   1.0647 B( 28-C , 29-H ) :   0.9801
B( 28-C , 30-H ) :   0.9774 B( 28-C , 31-H ) :   0.9744

Dispersion correction           -0.014633263
FINAL SINGLE POINT ENERGY     -1339.865170864770

DIPOLE MOMENT
-------------
                                X             Y             Z
Electronic contribution:    -14.92254      20.36781      14.69070
Nuclear contribution   :     15.41180     -20.78342     -14.95593
                        -----------------------------------------
Total Dipole Moment    :      0.48927      -0.41561      -0.26523
                        -----------------------------------------
Magnitude (a.u.)       :      0.69459
Magnitude (Debye)      :      1.76552

Rotational constants in cm-1:     0.018076     0.008929     0.007148
Rotational constants in MHz :   541.903917   267.678654   214.295816

                             ****ORCA TERMINATED NORMALLY****
TOTAL RUN TIME: 0 days 0 hours 0 minutes 35 seconds 848 msec
