                         Program Version 4.2.1 -  RELEASE  -
|  1> ! wB97X-D3 SP def2-SVP
|  2> %pal
|  3> nprocs 16
|  4> end
|  5>
|  6> * xyz 0 1
|  7> S 	 21.6844 	 2.00668 	 85.4577
|  8> C 	 23.2806 	 2.34103 	 86.0472
|  9> C 	 23.9579 	 3.29388 	 85.267
| 10> C 	 23.243 	 3.6533 	 84.1259
| 11> C 	 22.0011 	 3.0516 	 84.0789
| 12> H 	 23.4906 	 4.30315 	 83.3067
| 13> C 	 25.2049 	 3.94147 	 85.6565
| 14> H 	 25.3359 	 3.80814 	 86.747
| 15> H 	 25.2145 	 5.0087 	 85.3375
| 16> C 	 26.4518 	 3.37635 	 84.9775
| 17> H 	 26.5375 	 2.29914 	 85.0425
| 18> H 	 26.521 	 3.81381 	 83.9718
| 19> C 	 27.7599 	 3.89537 	 85.6882
| 20> H 	 27.7622 	 3.56521 	 86.7676
| 21> H 	 28.7011 	 3.51116 	 85.295
| 22> H 	 27.7949 	 4.95116 	 85.7377
| 23> S 	 21.0122 	 1.45452 	 82.0704
| 24> C 	 20.0172 	 2.17706 	 80.8859
| 25> C 	 19.8889 	 3.53333 	 80.9923
| 26> C 	 20.5557 	 4.01267 	 82.154
| 27> C 	 21.1448 	 3.01117 	 82.911
| 28> H 	 19.3929 	 4.00021 	 80.1524
| 29> C 	 20.6876 	 5.55229 	 82.4551
| 30> H 	 20.9426 	 6.02107 	 81.503
| 31> H 	 21.603 	 5.58358 	 82.9591
| 32> C 	 19.598 	 6.20499 	 83.249
| 33> H 	 19.6011 	 5.60767 	 84.2063
| 34> H 	 18.6027 	 5.91002 	 82.7841
| 35> C 	 19.6038 	 7.65959 	 83.4615
| 36> H 	 20.1269 	 8.19271 	 82.7376
| 37> H 	 19.9574 	 7.79375 	 84.4222
| 38> H 	 18.5773 	 8.00153 	 83.4319
| 39> H 	 23.6636 	 1.9101 	 86.9662
| 40> H 	 19.7746 	 1.65703 	 79.9617
| 41> *
| 42>
| 43>                          ****END OF INPUT****

CARTESIAN COORDINATES (ANGSTROEM)
---------------------------------
  S     21.684400    2.006680   85.457700
  C     23.280600    2.341030   86.047200
  C     23.957900    3.293880   85.267000
  C     23.243000    3.653300   84.125900
  C     22.001100    3.051600   84.078900
  H     23.490600    4.303150   83.306700
  C     25.204900    3.941470   85.656500
  H     25.335900    3.808140   86.747000
  H     25.214500    5.008700   85.337500
  C     26.451800    3.376350   84.977500
  H     26.537500    2.299140   85.042500
  H     26.521000    3.813810   83.971800
  C     27.759900    3.895370   85.688200
  H     27.762200    3.565210   86.767600
  H     28.701100    3.511160   85.295000
  H     27.794900    4.951160   85.737700
  S     21.012200    1.454520   82.070400
  C     20.017200    2.177060   80.885900
  C     19.888900    3.533330   80.992300
  C     20.555700    4.012670   82.154000
  C     21.144800    3.011170   82.911000
  H     19.392900    4.000210   80.152400
  C     20.687600    5.552290   82.455100
  H     20.942600    6.021070   81.503000
  H     21.603000    5.583580   82.959100
  C     19.598000    6.204990   83.249000
  H     19.601100    5.607670   84.206300
  H     18.602700    5.910020   82.784100
  C     19.603800    7.659590   83.461500
  H     20.126900    8.192710   82.737600
  H     19.957400    7.793750   84.422200
  H     18.577300    8.001530   83.431900
  H     23.663600    1.910100   86.966200
  H     19.774600    1.657030   79.961700

 Total Charge           Charge          ....    0
 Multiplicity           Mult            ....    1
 Number of Electrons    NEL             ....  134
 Basis Dimension        Dim             ....  322

ORBITAL ENERGIES
----------------

  NO   OCC          E(Eh)            E(eV)
   0   2.0000     -88.969348     -2420.9790
   1   2.0000     -88.962087     -2420.7815
   2   2.0000     -10.325355      -280.9672
   3   2.0000     -10.322771      -280.8969
   4   2.0000     -10.314552      -280.6732
   5   2.0000     -10.308572      -280.5105
   6   2.0000     -10.305016      -280.4138
   7   2.0000     -10.297578      -280.2113
   8   2.0000     -10.291544      -280.0471
   9   2.0000     -10.290738      -280.0252
  10   2.0000     -10.288836      -279.9735
  11   2.0000     -10.288348      -279.9602
  12   2.0000     -10.284268      -279.8491
  13   2.0000     -10.281834      -279.7829
  14   2.0000     -10.278731      -279.6985
  15   2.0000     -10.261212      -279.2218
  16   2.0000      -8.084069      -219.9787
  17   2.0000      -8.077536      -219.8009
  18   2.0000      -6.042370      -164.4212
  19   2.0000      -6.038583      -164.3182
  20   2.0000      -6.035873      -164.2445
  21   2.0000      -6.035058      -164.2223
  22   2.0000      -6.032015      -164.1395
  23   2.0000      -6.028349      -164.0397
  24   2.0000      -1.009147       -27.4603
  25   2.0000      -0.987123       -26.8610
  26   2.0000      -0.916217       -24.9315
  27   2.0000      -0.912238       -24.8233
  28   2.0000      -0.869070       -23.6486
  29   2.0000      -0.857299       -23.3283
  30   2.0000      -0.851752       -23.1773
  31   2.0000      -0.815089       -22.1797
  32   2.0000      -0.788333       -21.4516
  33   2.0000      -0.769301       -20.9338
  34   2.0000      -0.705050       -19.1854
  35   2.0000      -0.695994       -18.9390
  36   2.0000      -0.690154       -18.7800
  37   2.0000      -0.657647       -17.8955
  38   2.0000      -0.644826       -17.5466
  39   2.0000      -0.621533       -16.9128
  40   2.0000      -0.591732       -16.1018
  41   2.0000      -0.582414       -15.8483
  42   2.0000      -0.569188       -15.4884
  43   2.0000      -0.557953       -15.1827
  44   2.0000      -0.531881       -14.4732
  45   2.0000      -0.524138       -14.2625
  46   2.0000      -0.517114       -14.0714
  47   2.0000      -0.514401       -13.9976
  48   2.0000      -0.506282       -13.7766
  49   2.0000      -0.501001       -13.6329
  50   2.0000      -0.490267       -13.3408
  51   2.0000      -0.478898       -13.0315
  52   2.0000      -0.476752       -12.9731
  53   2.0000      -0.463539       -12.6135
  54   2.0000      -0.459041       -12.4911
  55   2.0000      -0.449485       -12.2311
  56   2.0000      -0.444598       -12.0981
  57   2.0000      -0.438195       -11.9239
  58   2.0000      -0.432901       -11.7798
  59   2.0000      -0.427865       -11.6428
  60   2.0000      -0.420845       -11.4518
  61   2.0000      -0.417911       -11.3719
  62   2.0000      -0.397064       -10.8047
  63   2.0000      -0.346763        -9.4359
  64   2.0000      -0.332533        -9.0487
  65   2.0000      -0.324959        -8.8426
  66   2.0000      -0.292673        -7.9640
  67   0.0000       0.034977         0.9518
  68   0.0000       0.063072         1.7163
  69   0.0000       0.107245         2.9183
  70   0.0000       0.116202         3.1620
  71   0.0000       0.137158         3.7323

MULLIKEN ATOMIC CHARGES
-----------------------
   0 S :    0.125633
   1 C :   -0.125590
   2 C :   -0.044165
   3 C :    0.050178
   4 C :   -0.194524
   5 H :    0.017409
   6 C :    0.041190
   7 H :    0.023485
   8 H :    0.035828
   9 C :   -0.074762
  10 H :    0.037139
  11 H :    0.036206
  12 C :   -0.061979
  13 H :    0.023495
  14 H :    0.037622
  15 H :    0.018299
  16 S :    0.114649
  17 C :   -0.097018
  18 C :   -0.044365
  19 C :   -0.058433
  20 C :   -0.160894
  21 H :    0.019791
  22 C :    0.132421
  23 H :    0.012458
  24 H :   -0.022600
  25 C :   -0.124948
  26 H :    0.034401
  27 H :    0.025303
  28 C :    0.064208
  29 H :    0.013745
  30 H :    0.019168
  31 H :    0.024127
  32 H :    0.046006
  33 H :    0.056519
Sum of atomic charges:    0.0000000

LOEWDIN ATOMIC CHARGES
----------------------
   0 S :    0.417329
   1 C :   -0.201932
   2 C :   -0.066051
   3 C :   -0.052762
   4 C :   -0.195867
   5 H :    0.032882
   6 C :   -0.037325
   7 H :    0.032356
   8 H :    0.039371
   9 C :   -0.033963
  10 H :    0.023694
  11 H :    0.025878
  12 C :   -0.069302
  13 H :    0.025570
  14 H :    0.024875
  15 H :    0.014373
  16 S :    0.413243
  17 C :   -0.196473
  18 C :   -0.078283
  19 C :   -0.046942
  20 C :   -0.201407
  21 H :    0.035830
  22 C :   -0.028090
  23 H :    0.025887
  24 H :    0.015147
  25 C :   -0.051385
  26 H :    0.033201
  27 H :    0.025233
  28 C :   -0.052533
  29 H :    0.018340
  30 H :    0.022495
  31 H :    0.033525
  32 H :    0.025019
  33 H :    0.028069

  Mayer bond orders larger than 0.100000
B(  0-S ,  1-C ) :   1.1501 B(  0-S ,  4-C ) :   1.1626 B(  1-C ,  2-C ) :   1.5725
B(  1-C ,  4-C ) :   0.1013 B(  1-C , 32-H ) :   0.9685 B(  2-C ,  3-C ) :   1.2498
B(  2-C ,  6-C ) :   1.0435 B(  3-C ,  4-C ) :   1.5671 B(  3-C ,  5-H ) :   0.9888
B(  4-C , 20-C ) :   1.0263 B(  6-C ,  7-H ) :   0.9417 B(  6-C ,  8-H ) :   0.9367
B(  6-C ,  9-C ) :   1.0633 B(  9-C , 10-H ) :   0.9603 B(  9-C , 11-H ) :   0.9562
B(  9-C , 12-C ) :   1.0786 B( 12-C , 13-H ) :   0.9751 B( 12-C , 14-H ) :   0.9769
B( 12-C , 15-H ) :   0.9746 B( 16-S , 17-C ) :   1.1702 B( 16-S , 20-C ) :   1.1424
B( 17-C , 18-C ) :   1.6230 B( 17-C , 33-H ) :   0.9591 B( 18-C , 19-C ) :   1.2265
B( 18-C , 21-H ) :   0.9982 B( 19-C , 20-C ) :   1.6141 B( 19-C , 22-C ) :   1.0185
B( 22-C , 23-H ) :   0.9306 B( 22-C , 24-H ) :   0.9189 B( 22-C , 25-C ) :   1.0721
B( 25-C , 26-H ) :   0.9529 B( 25-C , 27-H ) :   0.9634 B( 25-C , 28-C ) :   1.0709
B( 28-C , 29-H ) :   0.9728 B( 28-C , 30-H ) :   0.9715 B( 28-C , 31-H ) :   0.9710

Dispersion correction           -0.013578661
FINAL SINGLE POINT ENERGY     -1339.864617266626

DIPOLE MOMENT
-------------
                                X             Y             Z
Electronic contribution:    -13.43223     -21.77444      -3.86790
Nuclear contribution   :     13.81050      22.28170       3.71662
                        -----------------------------------------
Total Dipole Moment    :      0.37827       0.50727      -0.15128
                        -----------------------------------------
Magnitude (a.u.)       :      0.65061
Magnitude (Debye)      :      1.65371

Rotational constants in cm-1:     0.017501     0.007963     0.006652
Rotational constants in MHz :   524.654880   238.713676   199.422463

                             ****ORCA TERMINATED NORMALLY****
TOTAL RUN TIME: 0 days 0 hours 0 minutes 33 seconds 472 msec
