                         Program Version 4.2.1 -  RELEASE  -
|  1> ! wB97X-D3 SP def2-SVP
|  2> %pal
|  3> nprocs 16
|  4> end
|  5>
|  6> * xyz 0 1
|  7> S 	 57.2097 	 17.3496 	 51.249
|  8> C 	 56.8533 	 18.9617 	 50.6656
|  9> C 	 55.8311 	 19.5331 	 51.4147
| 10> C 	 55.225 	 18.6325 	 52.3456
| 11> C 	 55.7453 	 17.32 	 52.2699
| 12> H 	 54.416 	 18.9227 	 53.0105
| 13> C 	 55.4576 	 20.9961 	 51.2857
| 14> H 	 55.1471 	 21.2052 	 50.2548
| 15> H 	 56.4044 	 21.6093 	 51.3909
| 16> C 	 54.3852 	 21.6131 	 52.1429
| 17> H 	 53.58 	 20.755 	 52.3043
| 18> H 	 54.7751 	 21.8498 	 53.1048
| 19> C 	 53.8061 	 22.8841 	 51.5439
| 20> H 	 53.2093 	 22.7083 	 50.6745
| 21> H 	 53.1336 	 23.4441 	 52.2238
| 22> H 	 54.6056 	 23.5139 	 51.1395
| 23> S 	 56.4339 	 15.0324 	 53.7446
| 24> C 	 55.2185 	 14.0715 	 54.6043
| 25> C 	 53.9695 	 14.4674 	 54.1632
| 26> C 	 53.9869 	 15.5714 	 53.1786
| 27> C 	 55.2491 	 16.1183 	 52.9649
| 28> H 	 53.1173 	 13.9872 	 54.7103
| 29> C 	 52.7075 	 16.2552 	 52.657
| 30> H 	 52.9711 	 16.6339 	 51.608
| 31> H 	 52.5634 	 17.1181 	 53.3024
| 32> C 	 51.444 	 15.3388 	 52.6313
| 33> H 	 51.4452 	 15.0555 	 53.6433
| 34> H 	 51.6524 	 14.4478 	 52.0063
| 35> C 	 50.1241 	 16.0529 	 52.2602
| 36> H 	 49.9242 	 16.1942 	 51.1812
| 37> H 	 50.0371 	 17.0029 	 52.693
| 38> H 	 49.2921 	 15.4602 	 52.6411
| 39> H 	 57.4707 	 19.4428 	 49.9104
| 40> H 	 55.3119 	 13.5335 	 55.5048
| 41> *
| 42>
| 43>                          ****END OF INPUT****

CARTESIAN COORDINATES (ANGSTROEM)
---------------------------------
  S     57.209700   17.349600   51.249000
  C     56.853300   18.961700   50.665600
  C     55.831100   19.533100   51.414700
  C     55.225000   18.632500   52.345600
  C     55.745300   17.320000   52.269900
  H     54.416000   18.922700   53.010500
  C     55.457600   20.996100   51.285700
  H     55.147100   21.205200   50.254800
  H     56.404400   21.609300   51.390900
  C     54.385200   21.613100   52.142900
  H     53.580000   20.755000   52.304300
  H     54.775100   21.849800   53.104800
  C     53.806100   22.884100   51.543900
  H     53.209300   22.708300   50.674500
  H     53.133600   23.444100   52.223800
  H     54.605600   23.513900   51.139500
  S     56.433900   15.032400   53.744600
  C     55.218500   14.071500   54.604300
  C     53.969500   14.467400   54.163200
  C     53.986900   15.571400   53.178600
  C     55.249100   16.118300   52.964900
  H     53.117300   13.987200   54.710300
  C     52.707500   16.255200   52.657000
  H     52.971100   16.633900   51.608000
  H     52.563400   17.118100   53.302400
  C     51.444000   15.338800   52.631300
  H     51.445200   15.055500   53.643300
  H     51.652400   14.447800   52.006300
  C     50.124100   16.052900   52.260200
  H     49.924200   16.194200   51.181200
  H     50.037100   17.002900   52.693000
  H     49.292100   15.460200   52.641100
  H     57.470700   19.442800   49.910400
  H     55.311900   13.533500   55.504800

 Total Charge           Charge          ....    0
 Multiplicity           Mult            ....    1
 Number of Electrons    NEL             ....  134
 Basis Dimension        Dim             ....  322

ORBITAL ENERGIES
----------------

  NO   OCC          E(Eh)            E(eV)
   0   2.0000     -88.969097     -2420.9722
   1   2.0000     -88.959841     -2420.7203
   2   2.0000     -10.341754      -281.4134
   3   2.0000     -10.334868      -281.2261
   4   2.0000     -10.317799      -280.7616
   5   2.0000     -10.317722      -280.7595
   6   2.0000     -10.313302      -280.6392
   7   2.0000     -10.306178      -280.4454
   8   2.0000     -10.304229      -280.3923
   9   2.0000     -10.302663      -280.3497
  10   2.0000     -10.296487      -280.1817
  11   2.0000     -10.295646      -280.1588
  12   2.0000     -10.294537      -280.1286
  13   2.0000     -10.287558      -279.9387
  14   2.0000     -10.282256      -279.7944
  15   2.0000     -10.277586      -279.6673
  16   2.0000      -8.083123      -219.9530
  17   2.0000      -8.074019      -219.7052
  18   2.0000      -6.041717      -164.4035
  19   2.0000      -6.037688      -164.2939
  20   2.0000      -6.033871      -164.1900
  21   2.0000      -6.032728      -164.1589
  22   2.0000      -6.028584      -164.0461
  23   2.0000      -6.024585      -163.9373
  24   2.0000      -0.998869       -27.1806
  25   2.0000      -0.978245       -26.6194
  26   2.0000      -0.915836       -24.9212
  27   2.0000      -0.902093       -24.5472
  28   2.0000      -0.871187       -23.7062
  29   2.0000      -0.850105       -23.1325
  30   2.0000      -0.838706       -22.8223
  31   2.0000      -0.817868       -22.2553
  32   2.0000      -0.779462       -21.2102
  33   2.0000      -0.771162       -20.9844
  34   2.0000      -0.715074       -19.4581
  35   2.0000      -0.703507       -19.1434
  36   2.0000      -0.690629       -18.7930
  37   2.0000      -0.646594       -17.5947
  38   2.0000      -0.640253       -17.4222
  39   2.0000      -0.625053       -17.0086
  40   2.0000      -0.586019       -15.9464
  41   2.0000      -0.570423       -15.5220
  42   2.0000      -0.568172       -15.4607
  43   2.0000      -0.565930       -15.3997
  44   2.0000      -0.527967       -14.3667
  45   2.0000      -0.522325       -14.2132
  46   2.0000      -0.514193       -13.9919
  47   2.0000      -0.512605       -13.9487
  48   2.0000      -0.507316       -13.8048
  49   2.0000      -0.497725       -13.5438
  50   2.0000      -0.493625       -13.4322
  51   2.0000      -0.478495       -13.0205
  52   2.0000      -0.476443       -12.9647
  53   2.0000      -0.475165       -12.9299
  54   2.0000      -0.454488       -12.3673
  55   2.0000      -0.452112       -12.3026
  56   2.0000      -0.445321       -12.1178
  57   2.0000      -0.435976       -11.8635
  58   2.0000      -0.430380       -11.7112
  59   2.0000      -0.428565       -11.6618
  60   2.0000      -0.414656       -11.2834
  61   2.0000      -0.412688       -11.2298
  62   2.0000      -0.404999       -11.0206
  63   2.0000      -0.352131        -9.5820
  64   2.0000      -0.331699        -9.0260
  65   2.0000      -0.323479        -8.8023
  66   2.0000      -0.287393        -7.8204
  67   0.0000       0.019457         0.5294
  68   0.0000       0.059299         1.6136
  69   0.0000       0.104145         2.8339
  70   0.0000       0.119208         3.2438
  71   0.0000       0.136469         3.7135

MULLIKEN ATOMIC CHARGES
-----------------------
   0 S :    0.114507
   1 C :   -0.131417
   2 C :   -0.066894
   3 C :    0.016688
   4 C :   -0.138926
   5 H :    0.023139
   6 C :    0.022120
   7 H :    0.029971
   8 H :    0.043394
   9 C :   -0.089754
  10 H :    0.042352
  11 H :    0.030072
  12 C :   -0.043754
  13 H :    0.023699
  14 H :    0.041910
  15 H :    0.030978
  16 S :    0.074374
  17 C :   -0.068823
  18 C :   -0.084948
  19 C :   -0.043651
  20 C :   -0.134259
  21 H :    0.051065
  22 C :    0.001010
  23 H :    0.050708
  24 H :    0.041560
  25 C :   -0.075088
  26 H :    0.018225
  27 H :    0.045253
  28 C :   -0.013109
  29 H :    0.038727
  30 H :    0.013163
  31 H :    0.030097
  32 H :    0.054916
  33 H :    0.052694
Sum of atomic charges:    0.0000000

LOEWDIN ATOMIC CHARGES
----------------------
   0 S :    0.399572
   1 C :   -0.193746
   2 C :   -0.064807
   3 C :   -0.061610
   4 C :   -0.181196
   5 H :    0.031890
   6 C :   -0.044926
   7 H :    0.033009
   8 H :    0.039303
   9 C :   -0.048795
  10 H :    0.032701
  11 H :    0.019348
  12 C :   -0.066209
  13 H :    0.021953
  14 H :    0.032111
  15 H :    0.028385
  16 S :    0.369123
  17 C :   -0.175536
  18 C :   -0.081296
  19 C :   -0.058154
  20 C :   -0.183454
  21 H :    0.041330
  22 C :   -0.037708
  23 H :    0.037606
  24 H :    0.027915
  25 C :   -0.038793
  26 H :    0.015635
  27 H :    0.032229
  28 C :   -0.062323
  29 H :    0.030418
  30 H :    0.017220
  31 H :    0.029238
  32 H :    0.031022
  33 H :    0.028545

  Mayer bond orders larger than 0.100000
B(  0-S ,  1-C ) :   1.1438 B(  0-S ,  4-C ) :   1.1566 B(  1-C ,  2-C ) :   1.5831
B(  1-C ,  4-C ) :   0.1075 B(  1-C , 32-H ) :   0.9765 B(  2-C ,  3-C ) :   1.2753
B(  2-C ,  6-C ) :   1.0064 B(  3-C ,  4-C ) :   1.5250 B(  3-C ,  5-H ) :   0.9864
B(  4-C , 20-C ) :   1.0661 B(  6-C ,  7-H ) :   0.9459 B(  6-C ,  8-H ) :   0.9313
B(  6-C ,  9-C ) :   1.0727 B(  9-C , 10-H ) :   0.9493 B(  9-C , 11-H ) :   0.9506
B(  9-C , 12-C ) :   1.0847 B( 12-C , 13-H ) :   0.9716 B( 12-C , 14-H ) :   0.9724
B( 12-C , 15-H ) :   0.9715 B( 16-S , 17-C ) :   1.1386 B( 16-S , 20-C ) :   1.1140
B( 17-C , 18-C ) :   1.6624 B( 17-C , 33-H ) :   0.9650 B( 18-C , 19-C ) :   1.1866
B( 18-C , 21-H ) :   0.9750 B( 19-C , 20-C ) :   1.6200 B( 19-C , 22-C ) :   1.0360
B( 22-C , 23-H ) :   0.9372 B( 22-C , 24-H ) :   0.9395 B( 22-C , 25-C ) :   1.0617
B( 25-C , 26-H ) :   0.9467 B( 25-C , 27-H ) :   0.9621 B( 25-C , 28-C ) :   1.0846
B( 28-C , 29-H ) :   0.9756 B( 28-C , 30-H ) :   0.9721 B( 28-C , 31-H ) :   0.9739

Dispersion correction           -0.013191006
FINAL SINGLE POINT ENERGY     -1339.862432294844

DIPOLE MOMENT
-------------
                                X             Y             Z
Electronic contribution:     26.14570     -18.40928       2.63751
Nuclear contribution   :    -26.82082      19.01054      -2.49920
                        -----------------------------------------
Total Dipole Moment    :     -0.67512       0.60125       0.13831
                        -----------------------------------------
Magnitude (a.u.)       :      0.91456
Magnitude (Debye)      :      2.32463

Rotational constants in cm-1:     0.015629     0.008606     0.006103
Rotational constants in MHz :   468.556367   257.995757   182.954762

                             ****ORCA TERMINATED NORMALLY****
TOTAL RUN TIME: 0 days 0 hours 0 minutes 29 seconds 133 msec
