                         Program Version 4.2.1 -  RELEASE  -
|  1> ! wB97X-D3 SP def2-SVP
|  2> %pal
|  3> nprocs 16
|  4> end
|  5>
|  6> * xyz 0 1
|  7> S 	 -28.6597 	 62.3745 	 110.818
|  8> C 	 -28.5244 	 60.7518 	 110.117
|  9> C 	 -29.5083 	 59.8782 	 110.566
| 10> C 	 -30.2695 	 60.5037 	 111.658
| 11> C 	 -29.8069 	 61.7759 	 112.093
| 12> H 	 -31.0895 	 60.1036 	 112.148
| 13> C 	 -29.7078 	 58.4463 	 110.061
| 14> H 	 -28.975 	 57.8917 	 110.548
| 15> H 	 -29.3217 	 58.4599 	 109.08
| 16> C 	 -31.1211 	 57.8596 	 109.905
| 17> H 	 -31.6143 	 57.8584 	 110.876
| 18> H 	 -31.6272 	 58.5343 	 109.185
| 19> C 	 -31.1886 	 56.3046 	 109.602
| 20> H 	 -32.2209 	 56.0369 	 109.286
| 21> H 	 -30.6028 	 55.9759 	 108.763
| 22> H 	 -30.9648 	 55.6912 	 110.476
| 23> S 	 -31.929 	 62.0465 	 113.711
| 24> C 	 -32.3407 	 63.5782 	 114.461
| 25> C 	 -31.255 	 64.4023 	 114.423
| 26> C 	 -30.1952 	 63.8982 	 113.587
| 27> C 	 -30.4487 	 62.6414 	 113.091
| 28> H 	 -31.31 	 65.3866 	 114.938
| 29> C 	 -28.9649 	 64.7836 	 113.217
| 30> H 	 -28.8927 	 64.7959 	 112.13
| 31> H 	 -28.0579 	 64.2519 	 113.586
| 32> C 	 -29.0607 	 66.3178 	 113.648
| 33> H 	 -29.2615 	 66.3714 	 114.716
| 34> H 	 -29.7592 	 66.8037 	 113.109
| 35> C 	 -27.6645 	 66.9627 	 113.542
| 36> H 	 -26.9322 	 66.423 	 114.185
| 37> H 	 -27.6701 	 68.0076 	 113.833
| 38> H 	 -27.236 	 66.7911 	 112.549
| 39> H 	 -27.8176 	 60.5343 	 109.337
| 40> H 	 -33.2216 	 63.8565 	 114.991
| 41> *
| 42>
| 43>                          ****END OF INPUT****

CARTESIAN COORDINATES (ANGSTROEM)
---------------------------------
  S    -28.659700   62.374500  110.818000
  C    -28.524400   60.751800  110.117000
  C    -29.508300   59.878200  110.566000
  C    -30.269500   60.503700  111.658000
  C    -29.806900   61.775900  112.093000
  H    -31.089500   60.103600  112.148000
  C    -29.707800   58.446300  110.061000
  H    -28.975000   57.891700  110.548000
  H    -29.321700   58.459900  109.080000
  C    -31.121100   57.859600  109.905000
  H    -31.614300   57.858400  110.876000
  H    -31.627200   58.534300  109.185000
  C    -31.188600   56.304600  109.602000
  H    -32.220900   56.036900  109.286000
  H    -30.602800   55.975900  108.763000
  H    -30.964800   55.691200  110.476000
  S    -31.929000   62.046500  113.711000
  C    -32.340700   63.578200  114.461000
  C    -31.255000   64.402300  114.423000
  C    -30.195200   63.898200  113.587000
  C    -30.448700   62.641400  113.091000
  H    -31.310000   65.386600  114.938000
  C    -28.964900   64.783600  113.217000
  H    -28.892700   64.795900  112.130000
  H    -28.057900   64.251900  113.586000
  C    -29.060700   66.317800  113.648000
  H    -29.261500   66.371400  114.716000
  H    -29.759200   66.803700  113.109000
  C    -27.664500   66.962700  113.542000
  H    -26.932200   66.423000  114.185000
  H    -27.670100   68.007600  113.833000
  H    -27.236000   66.791100  112.549000
  H    -27.817600   60.534300  109.337000
  H    -33.221600   63.856500  114.991000

 Total Charge           Charge          ....    0
 Multiplicity           Mult            ....    1
 Number of Electrons    NEL             ....  134
 Basis Dimension        Dim             ....  322

ORBITAL ENERGIES
----------------

  NO   OCC          E(Eh)            E(eV)
   0   2.0000     -88.966071     -2420.8899
   1   2.0000     -88.962605     -2420.7955
   2   2.0000     -10.340372      -281.3758
   3   2.0000     -10.326235      -280.9912
   4   2.0000     -10.315286      -280.6932
   5   2.0000     -10.314841      -280.6811
   6   2.0000     -10.309760      -280.5428
   7   2.0000     -10.305973      -280.4398
   8   2.0000     -10.299149      -280.2541
   9   2.0000     -10.296996      -280.1955
  10   2.0000     -10.296109      -280.1714
  11   2.0000     -10.295268      -280.1485
  12   2.0000     -10.285903      -279.8936
  13   2.0000     -10.285523      -279.8833
  14   2.0000     -10.284515      -279.8559
  15   2.0000     -10.279524      -279.7201
  16   2.0000      -8.078839      -219.8364
  17   2.0000      -8.078119      -219.8168
  18   2.0000      -6.037607      -164.2916
  19   2.0000      -6.036768      -164.2688
  20   2.0000      -6.033843      -164.1892
  21   2.0000      -6.032545      -164.1539
  22   2.0000      -6.029249      -164.0642
  23   2.0000      -6.028665      -164.0483
  24   2.0000      -1.007211       -27.4076
  25   2.0000      -0.974216       -26.5098
  26   2.0000      -0.906406       -24.6646
  27   2.0000      -0.901951       -24.5433
  28   2.0000      -0.871691       -23.7199
  29   2.0000      -0.849751       -23.1229
  30   2.0000      -0.838487       -22.8164
  31   2.0000      -0.814674       -22.1684
  32   2.0000      -0.781368       -21.2621
  33   2.0000      -0.768594       -20.9145
  34   2.0000      -0.713136       -19.4054
  35   2.0000      -0.708781       -19.2869
  36   2.0000      -0.692150       -18.8344
  37   2.0000      -0.663878       -18.0650
  38   2.0000      -0.632298       -17.2057
  39   2.0000      -0.614062       -16.7095
  40   2.0000      -0.593792       -16.1579
  41   2.0000      -0.572579       -15.5807
  42   2.0000      -0.570993       -15.5375
  43   2.0000      -0.563041       -15.3211
  44   2.0000      -0.528164       -14.3721
  45   2.0000      -0.520176       -14.1547
  46   2.0000      -0.516004       -14.0412
  47   2.0000      -0.509902       -13.8751
  48   2.0000      -0.507109       -13.7991
  49   2.0000      -0.503546       -13.7022
  50   2.0000      -0.484404       -13.1813
  51   2.0000      -0.476570       -12.9681
  52   2.0000      -0.468346       -12.7443
  53   2.0000      -0.467208       -12.7134
  54   2.0000      -0.457518       -12.4497
  55   2.0000      -0.449989       -12.2448
  56   2.0000      -0.445507       -12.1229
  57   2.0000      -0.440049       -11.9743
  58   2.0000      -0.438825       -11.9410
  59   2.0000      -0.428755       -11.6670
  60   2.0000      -0.416815       -11.3421
  61   2.0000      -0.413477       -11.2513
  62   2.0000      -0.407460       -11.0875
  63   2.0000      -0.362652        -9.8682
  64   2.0000      -0.329213        -8.9583
  65   2.0000      -0.324015        -8.8169
  66   2.0000      -0.281259        -7.6534
  67   0.0000       0.016269         0.4427
  68   0.0000       0.083656         2.2764
  69   0.0000       0.101014         2.7487
  70   0.0000       0.119556         3.2533
  71   0.0000       0.136997         3.7279

MULLIKEN ATOMIC CHARGES
-----------------------
   0 S :    0.067950
   1 C :   -0.114452
   2 C :   -0.082826
   3 C :   -0.006979
   4 C :   -0.098508
   5 H :   -0.002928
   6 C :    0.119996
   7 H :    0.023239
   8 H :   -0.000496
   9 C :   -0.093384
  10 H :    0.039740
  11 H :    0.050292
  12 C :   -0.062520
  13 H :    0.035792
  14 H :    0.026986
  15 H :    0.043698
  16 S :    0.072845
  17 C :   -0.058901
  18 C :   -0.063824
  19 C :   -0.066961
  20 C :   -0.104794
  21 H :    0.035816
  22 C :    0.003357
  23 H :    0.043153
  24 H :    0.050008
  25 C :   -0.042180
  26 H :    0.037143
  27 H :    0.019215
  28 C :   -0.054366
  29 H :    0.028487
  30 H :    0.041134
  31 H :    0.026746
  32 H :    0.043474
  33 H :    0.044049
Sum of atomic charges:    0.0000000

LOEWDIN ATOMIC CHARGES
----------------------
   0 S :    0.369093
   1 C :   -0.188747
   2 C :   -0.050800
   3 C :   -0.064033
   4 C :   -0.164009
   5 H :    0.006175
   6 C :   -0.033384
   7 H :    0.026849
   8 H :    0.026837
   9 C :   -0.037217
  10 H :    0.025267
  11 H :    0.033387
  12 C :   -0.065315
  13 H :    0.032552
  14 H :    0.018344
  15 H :    0.028799
  16 S :    0.419848
  17 C :   -0.176936
  18 C :   -0.077824
  19 C :   -0.061865
  20 C :   -0.205890
  21 H :    0.039445
  22 C :   -0.033568
  23 H :    0.023446
  24 H :    0.037519
  25 C :   -0.025420
  26 H :    0.024607
  27 H :    0.008912
  28 C :   -0.064675
  29 H :    0.028320
  30 H :    0.025189
  31 H :    0.023163
  32 H :    0.023925
  33 H :    0.028008

  Mayer bond orders larger than 0.100000
B(  0-S ,  1-C ) :   1.1259 B(  0-S ,  4-C ) :   1.1207 B(  1-C ,  2-C ) :   1.6266
B(  1-C , 32-H ) :   0.9678 B(  2-C ,  3-C ) :   1.2242 B(  2-C ,  6-C ) :   1.0096
B(  3-C ,  4-C ) :   1.5719 B(  3-C ,  5-H ) :   0.9923 B(  4-C , 20-C ) :   1.0968
B(  6-C ,  7-H ) :   0.9362 B(  6-C ,  8-H ) :   0.9288 B(  6-C ,  9-C ) :   1.0539
B(  9-C , 10-H ) :   0.9578 B(  9-C , 11-H ) :   0.9620 B(  9-C , 12-C ) :   1.0702
B( 12-C , 13-H ) :   0.9750 B( 12-C , 14-H ) :   0.9789 B( 12-C , 15-H ) :   0.9780
B( 16-S , 17-C ) :   1.1469 B( 16-S , 20-C ) :   1.1335 B( 17-C , 18-C ) :   1.6276
B( 17-C , 33-H ) :   0.9668 B( 18-C , 19-C ) :   1.2454 B( 18-C , 21-H ) :   0.9787
B( 19-C , 20-C ) :   1.5926 B( 19-C , 22-C ) :   1.0088 B( 22-C , 23-H ) :   0.9370
B( 22-C , 24-H ) :   0.9421 B( 22-C , 25-C ) :   1.0733 B( 25-C , 26-H ) :   0.9522
B( 25-C , 27-H ) :   0.9579 B( 25-C , 28-C ) :   1.0800 B( 28-C , 29-H ) :   0.9768
B( 28-C , 30-H ) :   0.9735 B( 28-C , 31-H ) :   0.9742

Dispersion correction           -0.013027382
FINAL SINGLE POINT ENERGY     -1339.854553621476

DIPOLE MOMENT
-------------
                                X             Y             Z
Electronic contribution:     -4.39473       2.91929       4.63107
Nuclear contribution   :      4.31213      -2.94113      -4.71674
                        -----------------------------------------
Total Dipole Moment    :     -0.08260      -0.02184      -0.08567
                        -----------------------------------------
Magnitude (a.u.)       :      0.12099
Magnitude (Debye)      :      0.30754

Rotational constants in cm-1:     0.024972     0.006796     0.005414
Rotational constants in MHz :   748.632639   203.739319   162.318709

                             ****ORCA TERMINATED NORMALLY****
TOTAL RUN TIME: 0 days 0 hours 0 minutes 28 seconds 5 msec
