                         Program Version 4.2.1 -  RELEASE  -
|  1> ! wB97X-D3 SP def2-SVP
|  2> %pal
|  3> nprocs 16
|  4> end
|  5>
|  6> * xyz 0 1
|  7> S 	 -0.386616 	 -25.4856 	 60.2889
|  8> C 	 -1.7767 	 -24.7697 	 61.076
|  9> C 	 -2.9604 	 -25.1849 	 60.5189
| 10> C 	 -2.79136 	 -26.153 	 59.4376
| 11> C 	 -1.45362 	 -26.3558 	 59.1984
| 12> H 	 -3.51163 	 -26.7016 	 58.9092
| 13> C 	 -4.39052 	 -24.8377 	 61.0516
| 14> H 	 -4.95768 	 -24.5834 	 60.1686
| 15> H 	 -4.26335 	 -23.9666 	 61.6392
| 16> C 	 -5.00625 	 -25.8849 	 61.93
| 17> H 	 -5.45179 	 -26.5845 	 61.2382
| 18> H 	 -4.25423 	 -26.5198 	 62.4468
| 19> C 	 -6.08342 	 -25.2783 	 62.9024
| 20> H 	 -5.65678 	 -24.6436 	 63.6359
| 21> H 	 -6.73265 	 -24.6788 	 62.212
| 22> H 	 -6.69487 	 -26.0558 	 63.2515
| 23> S 	 0.295903 	 -28.3696 	 58.5049
| 24> C 	 0.53916 	 -28.7603 	 56.8964
| 25> C 	 -0.572453 	 -28.3926 	 56.1437
| 26> C 	 -1.43629 	 -27.4454 	 56.8026
| 27> C 	 -1.04937 	 -27.2621 	 58.1308
| 28> H 	 -0.518955 	 -28.6932 	 55.0998
| 29> C 	 -2.59343 	 -26.8646 	 56.0303
| 30> H 	 -2.8551 	 -25.9528 	 56.5832
| 31> H 	 -3.44688 	 -27.4561 	 56.0232
| 32> C 	 -2.36778 	 -26.4277 	 54.5712
| 33> H 	 -3.22621 	 -25.8119 	 54.1682
| 34> H 	 -2.25926 	 -27.3887 	 54.0315
| 35> C 	 -1.18158 	 -25.4623 	 54.3607
| 36> H 	 -1.10834 	 -25.1414 	 53.3137
| 37> H 	 -0.251659 	 -25.9721 	 54.5417
| 38> H 	 -1.24396 	 -24.6293 	 55.0658
| 39> H 	 -1.73065 	 -24.0588 	 61.932
| 40> H 	 1.27191 	 -29.4731 	 56.4802
| 41> *
| 42>
| 43>                          ****END OF INPUT****

CARTESIAN COORDINATES (ANGSTROEM)
---------------------------------
  S     -0.386616  -25.485600   60.288900
  C     -1.776700  -24.769700   61.076000
  C     -2.960400  -25.184900   60.518900
  C     -2.791360  -26.153000   59.437600
  C     -1.453620  -26.355800   59.198400
  H     -3.511630  -26.701600   58.909200
  C     -4.390520  -24.837700   61.051600
  H     -4.957680  -24.583400   60.168600
  H     -4.263350  -23.966600   61.639200
  C     -5.006250  -25.884900   61.930000
  H     -5.451790  -26.584500   61.238200
  H     -4.254230  -26.519800   62.446800
  C     -6.083420  -25.278300   62.902400
  H     -5.656780  -24.643600   63.635900
  H     -6.732650  -24.678800   62.212000
  H     -6.694870  -26.055800   63.251500
  S      0.295903  -28.369600   58.504900
  C      0.539160  -28.760300   56.896400
  C     -0.572453  -28.392600   56.143700
  C     -1.436290  -27.445400   56.802600
  C     -1.049370  -27.262100   58.130800
  H     -0.518955  -28.693200   55.099800
  C     -2.593430  -26.864600   56.030300
  H     -2.855100  -25.952800   56.583200
  H     -3.446880  -27.456100   56.023200
  C     -2.367780  -26.427700   54.571200
  H     -3.226210  -25.811900   54.168200
  H     -2.259260  -27.388700   54.031500
  C     -1.181580  -25.462300   54.360700
  H     -1.108340  -25.141400   53.313700
  H     -0.251659  -25.972100   54.541700
  H     -1.243960  -24.629300   55.065800
  H     -1.730650  -24.058800   61.932000
  H      1.271910  -29.473100   56.480200

 Total Charge           Charge          ....    0
 Multiplicity           Mult            ....    1
 Number of Electrons    NEL             ....  134
 Basis Dimension        Dim             ....  322

ORBITAL ENERGIES
----------------

  NO   OCC          E(Eh)            E(eV)
   0   2.0000     -88.969845     -2420.9926
   1   2.0000     -88.961360     -2420.7617
   2   2.0000     -10.329115      -281.0695
   3   2.0000     -10.328756      -281.0597
   4   2.0000     -10.316386      -280.7231
   5   2.0000     -10.312433      -280.6156
   6   2.0000     -10.308766      -280.5158
   7   2.0000     -10.303604      -280.3753
   8   2.0000     -10.291503      -280.0460
   9   2.0000     -10.291403      -280.0433
  10   2.0000     -10.290753      -280.0256
  11   2.0000     -10.286862      -279.9197
  12   2.0000     -10.286469      -279.9090
  13   2.0000     -10.285377      -279.8793
  14   2.0000     -10.279464      -279.7184
  15   2.0000     -10.272202      -279.5208
  16   2.0000      -8.084213      -219.9826
  17   2.0000      -8.077337      -219.7955
  18   2.0000      -6.042843      -164.4341
  19   2.0000      -6.038860      -164.3257
  20   2.0000      -6.035631      -164.2379
  21   2.0000      -6.034763      -164.2143
  22   2.0000      -6.031716      -164.1313
  23   2.0000      -6.028191      -164.0354
  24   2.0000      -1.007403       -27.4128
  25   2.0000      -0.985026       -26.8039
  26   2.0000      -0.911389       -24.8002
  27   2.0000      -0.910372       -24.7725
  28   2.0000      -0.871037       -23.7021
  29   2.0000      -0.849310       -23.1109
  30   2.0000      -0.842136       -22.9157
  31   2.0000      -0.811179       -22.0733
  32   2.0000      -0.786466       -21.4008
  33   2.0000      -0.775214       -21.0946
  34   2.0000      -0.706956       -19.2372
  35   2.0000      -0.697858       -18.9897
  36   2.0000      -0.689431       -18.7604
  37   2.0000      -0.655258       -17.8305
  38   2.0000      -0.639390       -17.3987
  39   2.0000      -0.619190       -16.8490
  40   2.0000      -0.594280       -16.1712
  41   2.0000      -0.571572       -15.5533
  42   2.0000      -0.560820       -15.2607
  43   2.0000      -0.559982       -15.2379
  44   2.0000      -0.538874       -14.6635
  45   2.0000      -0.523482       -14.2447
  46   2.0000      -0.518178       -14.1003
  47   2.0000      -0.513922       -13.9845
  48   2.0000      -0.502141       -13.6640
  49   2.0000      -0.500398       -13.6165
  50   2.0000      -0.493245       -13.4219
  51   2.0000      -0.482890       -13.1401
  52   2.0000      -0.477517       -12.9939
  53   2.0000      -0.460666       -12.5354
  54   2.0000      -0.455660       -12.3991
  55   2.0000      -0.451941       -12.2979
  56   2.0000      -0.440551       -11.9880
  57   2.0000      -0.439944       -11.9715
  58   2.0000      -0.433227       -11.7887
  59   2.0000      -0.422677       -11.5016
  60   2.0000      -0.416698       -11.3389
  61   2.0000      -0.410443       -11.1687
  62   2.0000      -0.408772       -11.1233
  63   2.0000      -0.350842        -9.5469
  64   2.0000      -0.332796        -9.0558
  65   2.0000      -0.325518        -8.8578
  66   2.0000      -0.290767        -7.9122
  67   0.0000       0.027036         0.7357
  68   0.0000       0.079485         2.1629
  69   0.0000       0.107564         2.9270
  70   0.0000       0.120091         3.2678
  71   0.0000       0.137575         3.7436

MULLIKEN ATOMIC CHARGES
-----------------------
   0 S :    0.125806
   1 C :   -0.137993
   2 C :   -0.104277
   3 C :    0.017846
   4 C :   -0.112424
   5 H :    0.003548
   6 C :    0.097754
   7 H :    0.031465
   8 H :   -0.002949
   9 C :   -0.082895
  10 H :    0.017420
  11 H :    0.041758
  12 C :   -0.027846
  13 H :    0.042381
  14 H :    0.028006
  15 H :    0.030224
  16 S :    0.107679
  17 C :   -0.104024
  18 C :   -0.064507
  19 C :   -0.024681
  20 C :   -0.185887
  21 H :    0.024571
  22 C :    0.094229
  23 H :    0.015171
  24 H :    0.031387
  25 C :   -0.127813
  26 H :    0.044242
  27 H :    0.034846
  28 C :   -0.039919
  29 H :    0.036109
  30 H :    0.024750
  31 H :    0.036825
  32 H :    0.060650
  33 H :    0.068551
Sum of atomic charges:   -0.0000000

LOEWDIN ATOMIC CHARGES
----------------------
   0 S :    0.402398
   1 C :   -0.207428
   2 C :   -0.055650
   3 C :   -0.053543
   4 C :   -0.191305
   5 H :    0.024811
   6 C :   -0.027589
   7 H :    0.030048
   8 H :    0.019042
   9 C :   -0.044060
  10 H :    0.020709
  11 H :    0.028043
  12 C :   -0.053035
  13 H :    0.021199
  14 H :    0.031463
  15 H :    0.021158
  16 S :    0.418001
  17 C :   -0.212862
  18 C :   -0.081731
  19 C :   -0.052172
  20 C :   -0.184942
  21 H :    0.029925
  22 C :   -0.034060
  23 H :    0.030429
  24 H :    0.025507
  25 C :   -0.045056
  26 H :    0.034195
  27 H :    0.021424
  28 C :   -0.067180
  29 H :    0.027876
  30 H :    0.020600
  31 H :    0.028138
  32 H :    0.037927
  33 H :    0.037720

  Mayer bond orders larger than 0.100000
B(  0-S ,  1-C ) :   1.1136 B(  0-S ,  4-C ) :   1.1396 B(  1-C ,  2-C ) :   1.6565
B(  1-C , 32-H ) :   0.9599 B(  2-C ,  3-C ) :   1.1930 B(  2-C ,  6-C ) :   1.0224
B(  3-C ,  4-C ) :   1.5753 B(  3-C ,  5-H ) :   1.0066 B(  4-C , 20-C ) :   1.0647
B(  6-C ,  7-H ) :   0.9356 B(  6-C ,  8-H ) :   0.9424 B(  6-C ,  9-C ) :   1.0527
B(  9-C , 10-H ) :   0.9523 B(  9-C , 11-H ) :   0.9605 B(  9-C , 12-C ) :   1.0760
B( 12-C , 13-H ) :   0.9793 B( 12-C , 14-H ) :   0.9746 B( 12-C , 15-H ) :   0.9750
B( 16-S , 17-C ) :   1.1758 B( 16-S , 20-C ) :   1.1428 B( 17-C , 18-C ) :   1.6065
B( 17-C , 33-H ) :   0.9603 B( 18-C , 19-C ) :   1.2306 B( 18-C , 21-H ) :   0.9823
B( 19-C , 20-C ) :   1.5847 B( 19-C , 22-C ) :   1.0377 B( 22-C , 23-H ) :   0.9223
B( 22-C , 24-H ) :   0.9368 B( 22-C , 25-C ) :   1.0728 B( 25-C , 26-H ) :   0.9580
B( 25-C , 27-H ) :   0.9511 B( 25-C , 28-C ) :   1.0791 B( 28-C , 29-H ) :   0.9748
B( 28-C , 30-H ) :   0.9704 B( 28-C , 31-H ) :   0.9741

Dispersion correction           -0.014003303
FINAL SINGLE POINT ENERGY     -1339.869033442113

DIPOLE MOMENT
-------------
                                X             Y             Z
Electronic contribution:     21.99353      -7.85113       5.73875
Nuclear contribution   :    -22.58516       7.87974      -5.92424
                        -----------------------------------------
Total Dipole Moment    :     -0.59163       0.02861      -0.18549
                        -----------------------------------------
Magnitude (a.u.)       :      0.62068
Magnitude (Debye)      :      1.57765

Rotational constants in cm-1:     0.020620     0.007475     0.006431
Rotational constants in MHz :   618.163965   224.103076   192.792322

                             ****ORCA TERMINATED NORMALLY****
TOTAL RUN TIME: 0 days 0 hours 0 minutes 32 seconds 394 msec
