                         Program Version 4.2.1 -  RELEASE  -
|  1> ! wB97X-D3 SP def2-SVP
|  2> %pal
|  3> nprocs 16
|  4> end
|  5>
|  6> * xyz 0 1
|  7> S 	 4.5006 	 18.7665 	 53.9328
|  8> C 	 3.86467 	 18.2318 	 55.4666
|  9> C 	 2.7139 	 17.5136 	 55.3976
| 10> C 	 2.39244 	 17.3426 	 53.9818
| 11> C 	 3.15225 	 18.1159 	 53.0986
| 12> H 	 1.56368 	 16.7516 	 53.536
| 13> C 	 2.1303 	 16.8297 	 56.5616
| 14> H 	 1.22918 	 16.2813 	 56.1364
| 15> H 	 1.81315 	 17.5778 	 57.3022
| 16> C 	 3.0787 	 15.788 	 57.1888
| 17> H 	 3.37919 	 14.9954 	 56.5257
| 18> H 	 4.02949 	 16.2762 	 57.445
| 19> C 	 2.39529 	 15.3046 	 58.471
| 20> H 	 2.99066 	 14.4845 	 59.0699
| 21> H 	 2.17407 	 16.0368 	 59.236
| 22> H 	 1.46793 	 14.8124 	 58.1859
| 23> S 	 4.56996 	 17.1097 	 50.9243
| 24> C 	 4.06725 	 17.7804 	 49.3292
| 25> C 	 2.93482 	 18.5249 	 49.347
| 26> C 	 2.48668 	 18.6827 	 50.6348
| 27> C 	 3.25377 	 18.0578 	 51.6232
| 28> H 	 2.47385 	 18.9445 	 48.4634
| 29> C 	 1.32994 	 19.5584 	 50.8882
| 30> H 	 1.05468 	 19.4338 	 51.9483
| 31> H 	 0.479568 	 19.03 	 50.3543
| 32> C 	 1.42399 	 21.0295 	 50.3387
| 33> H 	 0.52688 	 21.5169 	 50.5819
| 34> H 	 1.44237 	 20.9985 	 49.2304
| 35> C 	 2.67517 	 21.8069 	 50.8326
| 36> H 	 3.61517 	 21.5632 	 50.3468
| 37> H 	 2.83895 	 21.997 	 51.9331
| 38> H 	 2.50877 	 22.8095 	 50.4719
| 39> H 	 4.34567 	 18.4037 	 56.4741
| 40> H 	 4.47667 	 17.4986 	 48.3697
| 41> *
| 42>
| 43>                          ****END OF INPUT****

CARTESIAN COORDINATES (ANGSTROEM)
---------------------------------
  S      4.500600   18.766500   53.932800
  C      3.864670   18.231800   55.466600
  C      2.713900   17.513600   55.397600
  C      2.392440   17.342600   53.981800
  C      3.152250   18.115900   53.098600
  H      1.563680   16.751600   53.536000
  C      2.130300   16.829700   56.561600
  H      1.229180   16.281300   56.136400
  H      1.813150   17.577800   57.302200
  C      3.078700   15.788000   57.188800
  H      3.379190   14.995400   56.525700
  H      4.029490   16.276200   57.445000
  C      2.395290   15.304600   58.471000
  H      2.990660   14.484500   59.069900
  H      2.174070   16.036800   59.236000
  H      1.467930   14.812400   58.185900
  S      4.569960   17.109700   50.924300
  C      4.067250   17.780400   49.329200
  C      2.934820   18.524900   49.347000
  C      2.486680   18.682700   50.634800
  C      3.253770   18.057800   51.623200
  H      2.473850   18.944500   48.463400
  C      1.329940   19.558400   50.888200
  H      1.054680   19.433800   51.948300
  H      0.479568   19.030000   50.354300
  C      1.423990   21.029500   50.338700
  H      0.526880   21.516900   50.581900
  H      1.442370   20.998500   49.230400
  C      2.675170   21.806900   50.832600
  H      3.615170   21.563200   50.346800
  H      2.838950   21.997000   51.933100
  H      2.508770   22.809500   50.471900
  H      4.345670   18.403700   56.474100
  H      4.476670   17.498600   48.369700

 Total Charge           Charge          ....    0
 Multiplicity           Mult            ....    1
 Number of Electrons    NEL             ....  134
 Basis Dimension        Dim             ....  322

ORBITAL ENERGIES
----------------

  NO   OCC          E(Eh)            E(eV)
   0   2.0000     -88.967258     -2420.9222
   1   2.0000     -88.962295     -2420.7871
   2   2.0000     -10.324191      -280.9355
   3   2.0000     -10.323622      -280.9200
   4   2.0000     -10.315687      -280.7041
   5   2.0000     -10.310912      -280.5742
   6   2.0000     -10.299872      -280.2738
   7   2.0000     -10.297360      -280.2054
   8   2.0000     -10.296427      -280.1800
   9   2.0000     -10.291971      -280.0588
  10   2.0000     -10.291537      -280.0470
  11   2.0000     -10.290064      -280.0069
  12   2.0000     -10.287795      -279.9451
  13   2.0000     -10.285392      -279.8797
  14   2.0000     -10.284250      -279.8487
  15   2.0000     -10.275498      -279.6105
  16   2.0000      -8.080793      -219.8895
  17   2.0000      -8.077830      -219.8089
  18   2.0000      -6.039329      -164.3385
  19   2.0000      -6.036315      -164.2565
  20   2.0000      -6.035665      -164.2388
  21   2.0000      -6.032166      -164.1436
  22   2.0000      -6.031395      -164.1226
  23   2.0000      -6.028610      -164.0468
  24   2.0000      -1.006315       -27.3832
  25   2.0000      -0.985570       -26.8187
  26   2.0000      -0.918951       -25.0059
  27   2.0000      -0.901637       -24.5348
  28   2.0000      -0.868684       -23.6381
  29   2.0000      -0.846724       -23.0405
  30   2.0000      -0.842793       -22.9336
  31   2.0000      -0.812440       -22.1076
  32   2.0000      -0.778962       -21.1966
  33   2.0000      -0.765035       -20.8177
  34   2.0000      -0.708049       -19.2670
  35   2.0000      -0.705115       -19.1871
  36   2.0000      -0.693096       -18.8601
  37   2.0000      -0.660311       -17.9680
  38   2.0000      -0.636298       -17.3145
  39   2.0000      -0.610760       -16.6196
  40   2.0000      -0.587366       -15.9830
  41   2.0000      -0.573323       -15.6009
  42   2.0000      -0.560080       -15.2405
  43   2.0000      -0.542128       -14.7520
  44   2.0000      -0.538325       -14.6486
  45   2.0000      -0.521345       -14.1865
  46   2.0000      -0.514904       -14.0113
  47   2.0000      -0.510029       -13.8786
  48   2.0000      -0.500819       -13.6280
  49   2.0000      -0.492277       -13.3955
  50   2.0000      -0.485224       -13.2036
  51   2.0000      -0.470833       -12.8120
  52   2.0000      -0.462217       -12.5776
  53   2.0000      -0.459977       -12.5166
  54   2.0000      -0.455601       -12.3975
  55   2.0000      -0.455335       -12.3903
  56   2.0000      -0.449020       -12.2185
  57   2.0000      -0.437047       -11.8927
  58   2.0000      -0.425675       -11.5832
  59   2.0000      -0.422422       -11.4947
  60   2.0000      -0.421683       -11.4746
  61   2.0000      -0.419140       -11.4054
  62   2.0000      -0.417544       -11.3619
  63   2.0000      -0.341875        -9.3029
  64   2.0000      -0.325435        -8.8555
  65   2.0000      -0.323615        -8.8060
  66   2.0000      -0.297666        -8.0999
  67   0.0000       0.041576         1.1313
  68   0.0000       0.058840         1.6011
  69   0.0000       0.109159         2.9704
  70   0.0000       0.122645         3.3373
  71   0.0000       0.127352         3.4654

MULLIKEN ATOMIC CHARGES
-----------------------
   0 S :    0.115048
   1 C :   -0.146308
   2 C :   -0.071061
   3 C :    0.021406
   4 C :   -0.178229
   5 H :    0.024581
   6 C :    0.032758
   7 H :    0.034933
   8 H :    0.044735
   9 C :   -0.053819
  10 H :    0.036501
  11 H :    0.024099
  12 C :   -0.072754
  13 H :    0.040999
  14 H :    0.034499
  15 H :    0.028200
  16 S :    0.115448
  17 C :   -0.075016
  18 C :   -0.036857
  19 C :   -0.011554
  20 C :   -0.186998
  21 H :    0.017114
  22 C :    0.044201
  23 H :    0.025944
  24 H :    0.032276
  25 C :   -0.041802
  26 H :    0.022965
  27 H :    0.026440
  28 C :   -0.057724
  29 H :    0.039668
  30 H :    0.049381
  31 H :    0.015700
  32 H :    0.062054
  33 H :    0.043171
Sum of atomic charges:    0.0000000

LOEWDIN ATOMIC CHARGES
----------------------
   0 S :    0.424408
   1 C :   -0.201474
   2 C :   -0.076645
   3 C :   -0.061897
   4 C :   -0.217232
   5 H :    0.034074
   6 C :   -0.036075
   7 H :    0.038782
   8 H :    0.038440
   9 C :   -0.035068
  10 H :    0.028210
  11 H :    0.021972
  12 C :   -0.074586
  13 H :    0.033967
  14 H :    0.022743
  15 H :    0.022824
  16 S :    0.380856
  17 C :   -0.157578
  18 C :   -0.069350
  19 C :   -0.059934
  20 C :   -0.208074
  21 H :    0.036090
  22 C :   -0.040624
  23 H :    0.029838
  24 H :    0.038324
  25 C :   -0.030018
  26 H :    0.019648
  27 H :    0.026902
  28 C :   -0.076696
  29 H :    0.027683
  30 H :    0.035549
  31 H :    0.024764
  32 H :    0.035938
  33 H :    0.024237

  Mayer bond orders larger than 0.100000
B(  0-S ,  1-C ) :   1.1527 B(  0-S ,  4-C ) :   1.1593 B(  1-C ,  2-C ) :   1.6141
B(  1-C , 32-H ) :   0.9560 B(  2-C ,  3-C ) :   1.2321 B(  2-C ,  6-C ) :   1.0281
B(  3-C ,  4-C ) :   1.5909 B(  3-C ,  5-H ) :   0.9841 B(  4-C , 20-C ) :   1.0024
B(  6-C ,  7-H ) :   0.9398 B(  6-C ,  8-H ) :   0.9349 B(  6-C ,  9-C ) :   1.0636
B(  9-C , 10-H ) :   0.9554 B(  9-C , 11-H ) :   0.9552 B(  9-C , 12-C ) :   1.0723
B( 12-C , 13-H ) :   0.9736 B( 12-C , 14-H ) :   0.9763 B( 12-C , 15-H ) :   0.9734
B( 16-S , 17-C ) :   1.1413 B( 16-S , 20-C ) :   1.1328 B( 17-C , 18-C ) :   1.6268
B( 17-C , 33-H ) :   0.9596 B( 18-C , 19-C ) :   1.2459 B( 18-C , 21-H ) :   0.9922
B( 19-C , 20-C ) :   1.5974 B( 19-C , 22-C ) :   1.0557 B( 22-C , 23-H ) :   0.9299
B( 22-C , 24-H ) :   0.9289 B( 22-C , 25-C ) :   1.0643 B( 25-C , 26-H ) :   0.9573
B( 25-C , 27-H ) :   0.9496 B( 25-C , 28-C ) :   1.0730 B( 28-C , 29-H ) :   0.9734
B( 28-C , 30-H ) :   0.9766 B( 28-C , 31-H ) :   0.9692

Dispersion correction           -0.014260489
FINAL SINGLE POINT ENERGY     -1339.867062660579

DIPOLE MOMENT
-------------
                                X             Y             Z
Electronic contribution:     13.04087      -2.89215     -11.62612
Nuclear contribution   :    -13.48289       2.90894      11.66606
                        -----------------------------------------
Total Dipole Moment    :     -0.44202       0.01679       0.03995
                        -----------------------------------------
Magnitude (a.u.)       :      0.44414
Magnitude (Debye)      :      1.12892

Rotational constants in cm-1:     0.025584     0.006984     0.006376
Rotational constants in MHz :   766.999916   209.386635   191.138567

                             ****ORCA TERMINATED NORMALLY****
TOTAL RUN TIME: 0 days 0 hours 0 minutes 33 seconds 969 msec
