                         Program Version 4.2.1 -  RELEASE  -
|  1> ! wB97X-D3 SP def2-SVP
|  2> %pal
|  3> nprocs 16
|  4> end
|  5>
|  6> * xyz 0 1
|  7> S 	 -36.7953 	 67.4858 	 145.452
|  8> C 	 -36.0155 	 66.5865 	 144.177
|  9> C 	 -34.7371 	 66.0764 	 144.532
| 10> C 	 -34.5208 	 66.3132 	 145.933
| 11> C 	 -35.4677 	 67.0655 	 146.542
| 12> H 	 -33.5815 	 66.0105 	 146.489
| 13> C 	 -33.786 	 65.3794 	 143.583
| 14> H 	 -34.3224 	 64.9678 	 142.73
| 15> H 	 -33.2567 	 64.6203 	 144.164
| 16> C 	 -32.6691 	 66.2917 	 143.051
| 17> H 	 -32.1923 	 66.822 	 143.871
| 18> H 	 -31.8436 	 65.6479 	 142.662
| 19> C 	 -33.1334 	 67.3593 	 142.078
| 20> H 	 -33.5005 	 66.9628 	 141.096
| 21> H 	 -34.0009 	 67.8832 	 142.589
| 22> H 	 -32.3193 	 68.0749 	 141.884
| 23> S 	 -36.9085 	 67.4649 	 148.848
| 24> C 	 -36.1816 	 68.4526 	 150.137
| 25> C 	 -34.8624 	 68.7688 	 149.787
| 26> C 	 -34.5099 	 68.4702 	 148.459
| 27> C 	 -35.4161 	 67.6037 	 147.853
| 28> H 	 -34.3509 	 69.4199 	 150.503
| 29> C 	 -33.1315 	 68.7556 	 147.927
| 30> H 	 -33.1184 	 68.4212 	 146.873
| 31> H 	 -32.3853 	 68.1304 	 148.418
| 32> C 	 -32.5952 	 70.1408 	 148.048
| 33> H 	 -32.2978 	 70.3566 	 149.099
| 34> H 	 -33.3739 	 70.6972 	 147.533
| 35> C 	 -31.3518 	 70.4291 	 147.136
| 36> H 	 -31.1802 	 71.5001 	 147.287
| 37> H 	 -31.4556 	 70.196 	 146.104
| 38> H 	 -30.4199 	 69.9041 	 147.507
| 39> H 	 -36.3934 	 66.4591 	 143.134
| 40> H 	 -36.582 	 68.7105 	 151.044
| 41> *
| 42>
| 43>                          ****END OF INPUT****

CARTESIAN COORDINATES (ANGSTROEM)
---------------------------------
  S    -36.795300   67.485800  145.452000
  C    -36.015500   66.586500  144.177000
  C    -34.737100   66.076400  144.532000
  C    -34.520800   66.313200  145.933000
  C    -35.467700   67.065500  146.542000
  H    -33.581500   66.010500  146.489000
  C    -33.786000   65.379400  143.583000
  H    -34.322400   64.967800  142.730000
  H    -33.256700   64.620300  144.164000
  C    -32.669100   66.291700  143.051000
  H    -32.192300   66.822000  143.871000
  H    -31.843600   65.647900  142.662000
  C    -33.133400   67.359300  142.078000
  H    -33.500500   66.962800  141.096000
  H    -34.000900   67.883200  142.589000
  H    -32.319300   68.074900  141.884000
  S    -36.908500   67.464900  148.848000
  C    -36.181600   68.452600  150.137000
  C    -34.862400   68.768800  149.787000
  C    -34.509900   68.470200  148.459000
  C    -35.416100   67.603700  147.853000
  H    -34.350900   69.419900  150.503000
  C    -33.131500   68.755600  147.927000
  H    -33.118400   68.421200  146.873000
  H    -32.385300   68.130400  148.418000
  C    -32.595200   70.140800  148.048000
  H    -32.297800   70.356600  149.099000
  H    -33.373900   70.697200  147.533000
  C    -31.351800   70.429100  147.136000
  H    -31.180200   71.500100  147.287000
  H    -31.455600   70.196000  146.104000
  H    -30.419900   69.904100  147.507000
  H    -36.393400   66.459100  143.134000
  H    -36.582000   68.710500  151.044000

 Total Charge           Charge          ....    0
 Multiplicity           Mult            ....    1
 Number of Electrons    NEL             ....  134
 Basis Dimension        Dim             ....  322

ORBITAL ENERGIES
----------------

  NO   OCC          E(Eh)            E(eV)
   0   2.0000     -88.970033     -2420.9977
   1   2.0000     -88.965885     -2420.8848
   2   2.0000     -10.326935      -281.0102
   3   2.0000     -10.324927      -280.9555
   4   2.0000     -10.320917      -280.8464
   5   2.0000     -10.316897      -280.7370
   6   2.0000     -10.306583      -280.4564
   7   2.0000     -10.303566      -280.3743
   8   2.0000     -10.299382      -280.2604
   9   2.0000     -10.295820      -280.1635
  10   2.0000     -10.293971      -280.1132
  11   2.0000     -10.288209      -279.9564
  12   2.0000     -10.288067      -279.9525
  13   2.0000     -10.285254      -279.8760
  14   2.0000     -10.283334      -279.8237
  15   2.0000     -10.282046      -279.7887
  16   2.0000      -8.084386      -219.9873
  17   2.0000      -8.079372      -219.8509
  18   2.0000      -6.042890      -164.4354
  19   2.0000      -6.039061      -164.3312
  20   2.0000      -6.037919      -164.3001
  21   2.0000      -6.035042      -164.2218
  22   2.0000      -6.034024      -164.1941
  23   2.0000      -6.030194      -164.0899
  24   2.0000      -1.006194       -27.3799
  25   2.0000      -0.979509       -26.6538
  26   2.0000      -0.915176       -24.9032
  27   2.0000      -0.912274       -24.8242
  28   2.0000      -0.870503       -23.6876
  29   2.0000      -0.852130       -23.1876
  30   2.0000      -0.844881       -22.9904
  31   2.0000      -0.812683       -22.1142
  32   2.0000      -0.783407       -21.3176
  33   2.0000      -0.772466       -21.0199
  34   2.0000      -0.709568       -19.3083
  35   2.0000      -0.696360       -18.9489
  36   2.0000      -0.689167       -18.7532
  37   2.0000      -0.654504       -17.8099
  38   2.0000      -0.640592       -17.4314
  39   2.0000      -0.619559       -16.8591
  40   2.0000      -0.596428       -16.2296
  41   2.0000      -0.582795       -15.8587
  42   2.0000      -0.567527       -15.4432
  43   2.0000      -0.551243       -15.0001
  44   2.0000      -0.539358       -14.6767
  45   2.0000      -0.529030       -14.3956
  46   2.0000      -0.519023       -14.1233
  47   2.0000      -0.512030       -13.9330
  48   2.0000      -0.501749       -13.6533
  49   2.0000      -0.495182       -13.4746
  50   2.0000      -0.483896       -13.1675
  51   2.0000      -0.477985       -13.0066
  52   2.0000      -0.471207       -12.8222
  53   2.0000      -0.468536       -12.7495
  54   2.0000      -0.458987       -12.4897
  55   2.0000      -0.447376       -12.1737
  56   2.0000      -0.442211       -12.0332
  57   2.0000      -0.435393       -11.8477
  58   2.0000      -0.431613       -11.7448
  59   2.0000      -0.428439       -11.6584
  60   2.0000      -0.419155       -11.4058
  61   2.0000      -0.415866       -11.3163
  62   2.0000      -0.410212       -11.1624
  63   2.0000      -0.344754        -9.3812
  64   2.0000      -0.332823        -9.0566
  65   2.0000      -0.329872        -8.9763
  66   2.0000      -0.290957        -7.9173
  67   0.0000       0.025199         0.6857
  68   0.0000       0.063960         1.7404
  69   0.0000       0.106565         2.8998
  70   0.0000       0.115818         3.1516
  71   0.0000       0.122904         3.3444

MULLIKEN ATOMIC CHARGES
-----------------------
   0 S :    0.129266
   1 C :   -0.127386
   2 C :   -0.131078
   3 C :    0.004927
   4 C :   -0.136510
   5 H :    0.040347
   6 C :    0.097099
   7 H :    0.026507
   8 H :    0.027740
   9 C :   -0.082410
  10 H :    0.019097
  11 H :    0.033251
  12 C :   -0.081345
  13 H :    0.034295
  14 H :    0.048123
  15 H :    0.042707
  16 S :    0.091241
  17 C :   -0.060054
  18 C :   -0.037521
  19 C :    0.007171
  20 C :   -0.175962
  21 H :    0.027690
  22 C :    0.042380
  23 H :    0.019027
  24 H :    0.028330
  25 C :   -0.094829
  26 H :    0.046103
  27 H :    0.034224
  28 C :   -0.060849
  29 H :    0.039417
  30 H :    0.034092
  31 H :    0.029918
  32 H :    0.060764
  33 H :    0.024227
Sum of atomic charges:   -0.0000000

LOEWDIN ATOMIC CHARGES
----------------------
   0 S :    0.405459
   1 C :   -0.207644
   2 C :   -0.064061
   3 C :   -0.064928
   4 C :   -0.196977
   5 H :    0.043721
   6 C :   -0.028285
   7 H :    0.031392
   8 H :    0.035093
   9 C :   -0.047380
  10 H :    0.021737
  11 H :    0.025726
  12 C :   -0.076304
  13 H :    0.024351
  14 H :    0.034338
  15 H :    0.028465
  16 S :    0.375210
  17 C :   -0.158223
  18 C :   -0.070003
  19 C :   -0.052370
  20 C :   -0.184226
  21 H :    0.033219
  22 C :   -0.043178
  23 H :    0.030547
  24 H :    0.029900
  25 C :   -0.043293
  26 H :    0.030554
  27 H :    0.030467
  28 C :   -0.064474
  29 H :    0.029588
  30 H :    0.018820
  31 H :    0.026133
  32 H :    0.034491
  33 H :    0.012138

  Mayer bond orders larger than 0.100000
B(  0-S ,  1-C ) :   1.1427 B(  0-S ,  4-C ) :   1.1281 B(  1-C ,  2-C ) :   1.6022
B(  1-C , 32-H ) :   0.9585 B(  2-C ,  3-C ) :   1.2339 B(  2-C ,  6-C ) :   1.0373
B(  3-C ,  4-C ) :   1.5946 B(  3-C ,  5-H ) :   0.9819 B(  4-C , 20-C ) :   1.0725
B(  6-C ,  7-H ) :   0.9414 B(  6-C ,  8-H ) :   0.9341 B(  6-C ,  9-C ) :   1.0696
B(  9-C , 10-H ) :   0.9536 B(  9-C , 11-H ) :   0.9549 B(  9-C , 12-C ) :   1.0732
B( 12-C , 13-H ) :   0.9753 B( 12-C , 14-H ) :   0.9706 B( 12-C , 15-H ) :   0.9733
B( 16-S , 17-C ) :   1.1483 B( 16-S , 20-C ) :   1.1226 B( 17-C , 18-C ) :   1.6197
B( 17-C , 20-C ) :   0.1087 B( 17-C , 33-H ) :   0.9765 B( 18-C , 19-C ) :   1.2315
B( 18-C , 21-H ) :   0.9811 B( 19-C , 20-C ) :   1.5714 B( 19-C , 22-C ) :   1.0574
B( 22-C , 23-H ) :   0.9309 B( 22-C , 24-H ) :   0.9297 B( 22-C , 25-C ) :   1.0684
B( 25-C , 26-H ) :   0.9499 B( 25-C , 27-H ) :   0.9564 B( 25-C , 28-C ) :   1.0913
B( 28-C , 29-H ) :   0.9769 B( 28-C , 30-H ) :   0.9752 B( 28-C , 31-H ) :   0.9734

Dispersion correction           -0.014354244
FINAL SINGLE POINT ENERGY     -1339.875499599800

DIPOLE MOMENT
-------------
                                X             Y             Z
Electronic contribution:    -27.06671      -6.31520      13.49889
Nuclear contribution   :     27.80082       6.45079     -13.61774
                        -----------------------------------------
Total Dipole Moment    :      0.73412       0.13559      -0.11885
                        -----------------------------------------
Magnitude (a.u.)       :      0.75594
Magnitude (Debye)      :      1.92144

Rotational constants in cm-1:     0.017408     0.009665     0.006844
Rotational constants in MHz :   521.871138   289.735028   205.192683

                             ****ORCA TERMINATED NORMALLY****
TOTAL RUN TIME: 0 days 0 hours 0 minutes 33 seconds 612 msec
