                         Program Version 4.2.1 -  RELEASE  -
|  1> ! wB97X-D3 SP def2-SVP
|  2> %pal
|  3> nprocs 16
|  4> end
|  5>
|  6> * xyz 0 1
|  7> S 	 -33.05 	 78.0923 	 155.591
|  8> C 	 -32.9331 	 79.5755 	 156.614
|  9> C 	 -32.0875 	 79.3176 	 157.638
| 10> C 	 -31.7441 	 77.918 	 157.785
| 11> C 	 -32.2506 	 77.1074 	 156.803
| 12> H 	 -31.2519 	 77.3803 	 158.594
| 13> C 	 -31.7263 	 80.2375 	 158.826
| 14> H 	 -32.1978 	 79.8656 	 159.721
| 15> H 	 -32.13 	 81.1867 	 158.59
| 16> C 	 -30.2772 	 80.512 	 159.177
| 17> H 	 -29.6838 	 79.6051 	 159.144
| 18> H 	 -29.8679 	 81.0473 	 158.37
| 19> C 	 -29.995 	 81.1387 	 160.559
| 20> H 	 -30.6871 	 82.057 	 160.644
| 21> H 	 -30.0562 	 80.4776 	 161.407
| 22> H 	 -28.8953 	 81.4261 	 160.547
| 23> S 	 -31.3645 	 75.1437 	 155.055
| 24> C 	 -31.4194 	 73.4518 	 155.632
| 25> C 	 -31.784 	 73.3815 	 156.965
| 26> C 	 -32.0396 	 74.6687 	 157.526
| 27> C 	 -31.9666 	 75.7244 	 156.605
| 28> H 	 -31.7982 	 72.4692 	 157.455
| 29> C 	 -32.7607 	 74.7999 	 158.893
| 30> H 	 -32.4259 	 75.7612 	 159.314
| 31> H 	 -32.394 	 73.9303 	 159.533
| 32> C 	 -34.3027 	 74.5922 	 158.898
| 33> H 	 -34.6818 	 74.3989 	 159.933
| 34> H 	 -34.4639 	 73.7618 	 158.211
| 35> C 	 -35.0629 	 75.7797 	 158.383
| 36> H 	 -34.9668 	 76.6797 	 158.993
| 37> H 	 -36.0868 	 75.5449 	 158.336
| 38> H 	 -34.8438 	 76.1189 	 157.326
| 39> H 	 -33.3271 	 80.5213 	 156.267
| 40> H 	 -30.9829 	 72.6907 	 155.031
| 41> *
| 42>
| 43>                          ****END OF INPUT****

CARTESIAN COORDINATES (ANGSTROEM)
---------------------------------
  S    -33.050000   78.092300  155.591000
  C    -32.933100   79.575500  156.614000
  C    -32.087500   79.317600  157.638000
  C    -31.744100   77.918000  157.785000
  C    -32.250600   77.107400  156.803000
  H    -31.251900   77.380300  158.594000
  C    -31.726300   80.237500  158.826000
  H    -32.197800   79.865600  159.721000
  H    -32.130000   81.186700  158.590000
  C    -30.277200   80.512000  159.177000
  H    -29.683800   79.605100  159.144000
  H    -29.867900   81.047300  158.370000
  C    -29.995000   81.138700  160.559000
  H    -30.687100   82.057000  160.644000
  H    -30.056200   80.477600  161.407000
  H    -28.895300   81.426100  160.547000
  S    -31.364500   75.143700  155.055000
  C    -31.419400   73.451800  155.632000
  C    -31.784000   73.381500  156.965000
  C    -32.039600   74.668700  157.526000
  C    -31.966600   75.724400  156.605000
  H    -31.798200   72.469200  157.455000
  C    -32.760700   74.799900  158.893000
  H    -32.425900   75.761200  159.314000
  H    -32.394000   73.930300  159.533000
  C    -34.302700   74.592200  158.898000
  H    -34.681800   74.398900  159.933000
  H    -34.463900   73.761800  158.211000
  C    -35.062900   75.779700  158.383000
  H    -34.966800   76.679700  158.993000
  H    -36.086800   75.544900  158.336000
  H    -34.843800   76.118900  157.326000
  H    -33.327100   80.521300  156.267000
  H    -30.982900   72.690700  155.031000

 Total Charge           Charge          ....    0
 Multiplicity           Mult            ....    1
 Number of Electrons    NEL             ....  134
 Basis Dimension        Dim             ....  322

ORBITAL ENERGIES
----------------

  NO   OCC          E(Eh)            E(eV)
   0   2.0000     -88.967831     -2420.9377
   1   2.0000     -88.963688     -2420.8250
   2   2.0000     -10.330153      -281.0978
   3   2.0000     -10.328895      -281.0635
   4   2.0000     -10.321297      -280.8568
   5   2.0000     -10.320762      -280.8422
   6   2.0000     -10.308014      -280.4953
   7   2.0000     -10.306037      -280.4415
   8   2.0000     -10.297468      -280.2084
   9   2.0000     -10.294765      -280.1348
  10   2.0000     -10.294053      -280.1154
  11   2.0000     -10.291916      -280.0573
  12   2.0000     -10.287717      -279.9430
  13   2.0000     -10.287428      -279.9351
  14   2.0000     -10.279996      -279.7329
  15   2.0000     -10.264484      -279.3108
  16   2.0000      -8.081857      -219.9185
  17   2.0000      -8.077717      -219.8059
  18   2.0000      -6.040396      -164.3675
  19   2.0000      -6.036449      -164.2601
  20   2.0000      -6.036440      -164.2599
  21   2.0000      -6.032647      -164.1567
  22   2.0000      -6.032381      -164.1494
  23   2.0000      -6.028206      -164.0358
  24   2.0000      -1.006510       -27.3885
  25   2.0000      -0.980681       -26.6857
  26   2.0000      -0.912506       -24.8306
  27   2.0000      -0.902468       -24.5574
  28   2.0000      -0.876947       -23.8629
  29   2.0000      -0.848790       -23.0967
  30   2.0000      -0.841399       -22.8956
  31   2.0000      -0.816141       -22.2083
  32   2.0000      -0.782730       -21.2992
  33   2.0000      -0.771455       -20.9923
  34   2.0000      -0.709166       -19.2974
  35   2.0000      -0.699024       -19.0214
  36   2.0000      -0.691038       -18.8041
  37   2.0000      -0.664515       -18.0824
  38   2.0000      -0.648216       -17.6388
  39   2.0000      -0.618860       -16.8400
  40   2.0000      -0.593057       -16.1379
  41   2.0000      -0.570375       -15.5207
  42   2.0000      -0.564895       -15.3716
  43   2.0000      -0.549076       -14.9411
  44   2.0000      -0.542062       -14.7503
  45   2.0000      -0.525230       -14.2922
  46   2.0000      -0.518737       -14.1156
  47   2.0000      -0.513980       -13.9861
  48   2.0000      -0.510071       -13.8797
  49   2.0000      -0.500240       -13.6122
  50   2.0000      -0.493981       -13.4419
  51   2.0000      -0.480606       -13.0780
  52   2.0000      -0.471758       -12.8372
  53   2.0000      -0.458513       -12.4768
  54   2.0000      -0.457214       -12.4414
  55   2.0000      -0.446207       -12.1419
  56   2.0000      -0.440346       -11.9824
  57   2.0000      -0.432075       -11.7573
  58   2.0000      -0.426998       -11.6192
  59   2.0000      -0.422593       -11.4993
  60   2.0000      -0.421015       -11.4564
  61   2.0000      -0.409023       -11.1301
  62   2.0000      -0.406053       -11.0493
  63   2.0000      -0.355638        -9.6774
  64   2.0000      -0.334833        -9.1113
  65   2.0000      -0.329294        -8.9605
  66   2.0000      -0.291365        -7.9285
  67   0.0000       0.023473         0.6387
  68   0.0000       0.066899         1.8204
  69   0.0000       0.104681         2.8485
  70   0.0000       0.114255         3.1090
  71   0.0000       0.127023         3.4565

MULLIKEN ATOMIC CHARGES
-----------------------
   0 S :    0.079054
   1 C :   -0.128978
   2 C :   -0.039629
   3 C :    0.017228
   4 C :   -0.154750
   5 H :    0.027229
   6 C :    0.082934
   7 H :    0.030830
   8 H :   -0.000401
   9 C :   -0.065729
  10 H :    0.015547
  11 H :    0.014833
  12 C :   -0.080185
  13 H :    0.047085
  14 H :    0.040218
  15 H :    0.045194
  16 S :    0.100869
  17 C :   -0.093771
  18 C :    0.002514
  19 C :   -0.046685
  20 C :   -0.135774
  21 H :   -0.000386
  22 C :    0.030532
  23 H :    0.013891
  24 H :    0.030795
  25 C :   -0.035833
  26 H :    0.040185
  27 H :    0.026992
  28 C :   -0.055801
  29 H :    0.027556
  30 H :    0.016726
  31 H :    0.037429
  32 H :    0.054295
  33 H :    0.055989
Sum of atomic charges:   -0.0000000

LOEWDIN ATOMIC CHARGES
----------------------
   0 S :    0.370860
   1 C :   -0.170989
   2 C :   -0.057515
   3 C :   -0.063511
   4 C :   -0.183758
   5 H :    0.032661
   6 C :   -0.026276
   7 H :    0.030290
   8 H :    0.020684
   9 C :   -0.046247
  10 H :    0.020448
  11 H :    0.018759
  12 C :   -0.069317
  13 H :    0.033342
  14 H :    0.022207
  15 H :    0.038269
  16 S :    0.388232
  17 C :   -0.163666
  18 C :   -0.058250
  19 C :   -0.060230
  20 C :   -0.192621
  21 H :    0.023191
  22 C :   -0.035996
  23 H :    0.022537
  24 H :    0.035434
  25 C :   -0.037906
  26 H :    0.031823
  27 H :    0.027265
  28 C :   -0.073901
  29 H :    0.023611
  30 H :    0.018007
  31 H :    0.029404
  32 H :    0.030770
  33 H :    0.022393

  Mayer bond orders larger than 0.100000
B(  0-S ,  1-C ) :   1.1023 B(  0-S ,  4-C ) :   1.1216 B(  1-C ,  2-C ) :   1.6484
B(  1-C , 32-H ) :   0.9737 B(  2-C ,  3-C ) :   1.1790 B(  2-C ,  6-C ) :   1.0270
B(  3-C ,  4-C ) :   1.6181 B(  3-C ,  5-H ) :   0.9842 B(  4-C , 20-C ) :   1.0727
B(  6-C ,  7-H ) :   0.9496 B(  6-C ,  8-H ) :   0.9362 B(  6-C ,  9-C ) :   1.0597
B(  9-C , 10-H ) :   0.9542 B(  9-C , 11-H ) :   0.9524 B(  9-C , 12-C ) :   1.0804
B( 12-C , 13-H ) :   0.9755 B( 12-C , 14-H ) :   0.9749 B( 12-C , 15-H ) :   0.9720
B( 16-S , 17-C ) :   1.1452 B( 16-S , 20-C ) :   1.1422 B( 17-C , 18-C ) :   1.5955
B( 17-C , 20-C ) :   0.1021 B( 17-C , 33-H ) :   0.9718 B( 18-C , 19-C ) :   1.2432
B( 18-C , 21-H ) :   1.0034 B( 19-C , 20-C ) :   1.5683 B( 19-C , 22-C ) :   1.0534
B( 22-C , 23-H ) :   0.9333 B( 22-C , 24-H ) :   0.9357 B( 22-C , 25-C ) :   1.0613
B( 25-C , 26-H ) :   0.9528 B( 25-C , 27-H ) :   0.9487 B( 25-C , 28-C ) :   1.0958
B( 28-C , 29-H ) :   0.9741 B( 28-C , 30-H ) :   0.9692 B( 28-C , 31-H ) :   0.9651

Dispersion correction           -0.015111636
FINAL SINGLE POINT ENERGY     -1339.870508861762

DIPOLE MOMENT
-------------
                                X             Y             Z
Electronic contribution:      1.43585      -9.27132     -24.14266
Nuclear contribution   :     -1.32516       9.26936      24.73738
                        -----------------------------------------
Total Dipole Moment    :      0.11069      -0.00196       0.59473
                        -----------------------------------------
Magnitude (a.u.)       :      0.60494
Magnitude (Debye)      :      1.53765

Rotational constants in cm-1:     0.019595     0.008184     0.007561
Rotational constants in MHz :   587.440550   245.349199   226.662641

                             ****ORCA TERMINATED NORMALLY****
TOTAL RUN TIME: 0 days 0 hours 0 minutes 33 seconds 141 msec
