                         Program Version 4.2.1 -  RELEASE  -
|  1> ! wB97X-D3 SP def2-SVP
|  2> %pal
|  3> nprocs 16
|  4> end
|  5>
|  6> * xyz 0 1
|  7> S 	 35.105 	 3.57175 	 66.9559
|  8> C 	 34.8287 	 5.22155 	 66.4495
|  9> C 	 33.8351 	 5.33253 	 65.5367
| 10> C 	 33.2272 	 4.08235 	 65.2666
| 11> C 	 33.7645 	 2.9626 	 65.9127
| 12> H 	 32.3377 	 3.88493 	 64.6516
| 13> C 	 33.4981 	 6.65539 	 64.8414
| 14> H 	 34.0906 	 7.54592 	 65.1019
| 15> H 	 32.4742 	 6.94464 	 65.1444
| 16> C 	 33.5734 	 6.60791 	 63.2738
| 17> H 	 32.9083 	 5.76762 	 62.9229
| 18> H 	 33.2352 	 7.45985 	 62.7442
| 19> C 	 34.9693 	 6.24759 	 62.8082
| 20> H 	 35.6571 	 7.05886 	 63.1363
| 21> H 	 35.4064 	 5.32223 	 63.3197
| 22> H 	 34.8424 	 6.0954 	 61.7343
| 23> S 	 33.2574 	 0.634295 	 67.344
| 24> C 	 32.8034 	 -0.813307 	 66.5647
| 25> C 	 32.557 	 -0.616056 	 65.171
| 26> C 	 32.809 	 0.768186 	 64.8548
| 27> C 	 33.3863 	 1.5742 	 65.8459
| 28> H 	 32.126 	 -1.36785 	 64.506
| 29> C 	 32.5421 	 1.28807 	 63.4748
| 30> H 	 32.7671 	 0.535771 	 62.6662
| 31> H 	 33.1664 	 2.17204 	 63.2674
| 32> C 	 31.032 	 1.58562 	 63.2618
| 33> H 	 30.8707 	 2.26921 	 64.0825
| 34> H 	 30.4459 	 0.691727 	 63.4116
| 35> C 	 30.5798 	 2.07499 	 61.913
| 36> H 	 30.8659 	 1.49492 	 60.9991
| 37> H 	 31.1323 	 2.99625 	 61.6908
| 38> H 	 29.5134 	 2.19217 	 61.9433
| 39> H 	 35.5771 	 5.96728 	 66.6179
| 40> H 	 32.7079 	 -1.82198 	 67.0829
| 41> *
| 42>
| 43>                          ****END OF INPUT****

CARTESIAN COORDINATES (ANGSTROEM)
---------------------------------
  S     35.105000    3.571750   66.955900
  C     34.828700    5.221550   66.449500
  C     33.835100    5.332530   65.536700
  C     33.227200    4.082350   65.266600
  C     33.764500    2.962600   65.912700
  H     32.337700    3.884930   64.651600
  C     33.498100    6.655390   64.841400
  H     34.090600    7.545920   65.101900
  H     32.474200    6.944640   65.144400
  C     33.573400    6.607910   63.273800
  H     32.908300    5.767620   62.922900
  H     33.235200    7.459850   62.744200
  C     34.969300    6.247590   62.808200
  H     35.657100    7.058860   63.136300
  H     35.406400    5.322230   63.319700
  H     34.842400    6.095400   61.734300
  S     33.257400    0.634295   67.344000
  C     32.803400   -0.813307   66.564700
  C     32.557000   -0.616056   65.171000
  C     32.809000    0.768186   64.854800
  C     33.386300    1.574200   65.845900
  H     32.126000   -1.367850   64.506000
  C     32.542100    1.288070   63.474800
  H     32.767100    0.535771   62.666200
  H     33.166400    2.172040   63.267400
  C     31.032000    1.585620   63.261800
  H     30.870700    2.269210   64.082500
  H     30.445900    0.691727   63.411600
  C     30.579800    2.074990   61.913000
  H     30.865900    1.494920   60.999100
  H     31.132300    2.996250   61.690800
  H     29.513400    2.192170   61.943300
  H     35.577100    5.967280   66.617900
  H     32.707900   -1.821980   67.082900

 Total Charge           Charge          ....    0
 Multiplicity           Mult            ....    1
 Number of Electrons    NEL             ....  134
 Basis Dimension        Dim             ....  322

ORBITAL ENERGIES
----------------

  NO   OCC          E(Eh)            E(eV)
   0   2.0000     -88.968171     -2420.9470
   1   2.0000     -88.966301     -2420.8961
   2   2.0000     -10.340533      -281.3802
   3   2.0000     -10.332136      -281.1517
   4   2.0000     -10.329688      -281.0851
   5   2.0000     -10.313332      -280.6400
   6   2.0000     -10.309160      -280.5265
   7   2.0000     -10.305376      -280.4235
   8   2.0000     -10.304209      -280.3918
   9   2.0000     -10.302037      -280.3327
  10   2.0000     -10.300547      -280.2921
  11   2.0000     -10.291875      -280.0561
  12   2.0000     -10.287977      -279.9501
  13   2.0000     -10.283862      -279.8381
  14   2.0000     -10.280910      -279.7578
  15   2.0000     -10.280781      -279.7543
  16   2.0000      -8.083228      -219.9558
  17   2.0000      -8.080472      -219.8808
  18   2.0000      -6.041695      -164.4029
  19   2.0000      -6.039056      -164.3311
  20   2.0000      -6.037584      -164.2910
  21   2.0000      -6.035024      -164.2214
  22   2.0000      -6.034089      -164.1959
  23   2.0000      -6.031206      -164.1175
  24   2.0000      -1.006909       -27.3994
  25   2.0000      -0.986456       -26.8428
  26   2.0000      -0.912650       -24.8345
  27   2.0000      -0.909603       -24.7516
  28   2.0000      -0.873829       -23.7781
  29   2.0000      -0.854836       -23.2613
  30   2.0000      -0.844226       -22.9726
  31   2.0000      -0.814645       -22.1676
  32   2.0000      -0.782540       -21.2940
  33   2.0000      -0.771165       -20.9845
  34   2.0000      -0.708352       -19.2753
  35   2.0000      -0.693859       -18.8809
  36   2.0000      -0.689386       -18.7591
  37   2.0000      -0.663940       -18.0667
  38   2.0000      -0.643920       -17.5220
  39   2.0000      -0.623381       -16.9631
  40   2.0000      -0.595268       -16.1981
  41   2.0000      -0.572036       -15.5659
  42   2.0000      -0.565823       -15.3968
  43   2.0000      -0.555324       -15.1111
  44   2.0000      -0.540280       -14.7018
  45   2.0000      -0.533729       -14.5235
  46   2.0000      -0.519734       -14.1427
  47   2.0000      -0.516367       -14.0511
  48   2.0000      -0.507928       -13.8214
  49   2.0000      -0.502507       -13.6739
  50   2.0000      -0.491606       -13.3773
  51   2.0000      -0.485603       -13.2139
  52   2.0000      -0.468952       -12.7608
  53   2.0000      -0.465337       -12.6625
  54   2.0000      -0.458971       -12.4892
  55   2.0000      -0.452663       -12.3176
  56   2.0000      -0.440104       -11.9758
  57   2.0000      -0.430181       -11.7058
  58   2.0000      -0.427009       -11.6195
  59   2.0000      -0.424209       -11.5433
  60   2.0000      -0.415927       -11.3179
  61   2.0000      -0.413039       -11.2394
  62   2.0000      -0.408631       -11.1194
  63   2.0000      -0.357677        -9.7329
  64   2.0000      -0.333889        -9.0856
  65   2.0000      -0.328686        -8.9440
  66   2.0000      -0.288738        -7.8570
  67   0.0000       0.017766         0.4834
  68   0.0000       0.070764         1.9256
  69   0.0000       0.104010         2.8303
  70   0.0000       0.117023         3.1843
  71   0.0000       0.120313         3.2739

MULLIKEN ATOMIC CHARGES
-----------------------
   0 S :    0.095386
   1 C :   -0.113305
   2 C :   -0.063489
   3 C :    0.010807
   4 C :   -0.152085
   5 H :    0.013100
   6 C :    0.061991
   7 H :    0.023903
   8 H :    0.038272
   9 C :   -0.093473
  10 H :    0.027002
  11 H :    0.028094
  12 C :   -0.081820
  13 H :    0.030601
  14 H :    0.057091
  15 H :    0.044709
  16 S :    0.111151
  17 C :   -0.116529
  18 C :   -0.024815
  19 C :   -0.058313
  20 C :   -0.111595
  21 H :    0.033470
  22 C :    0.007077
  23 H :    0.023162
  24 H :    0.033368
  25 C :   -0.085300
  26 H :    0.025705
  27 H :    0.022564
  28 C :   -0.020162
  29 H :    0.032725
  30 H :    0.016605
  31 H :    0.043203
  32 H :    0.050968
  33 H :    0.089934
Sum of atomic charges:    0.0000000

LOEWDIN ATOMIC CHARGES
----------------------
   0 S :    0.382729
   1 C :   -0.184961
   2 C :   -0.068405
   3 C :   -0.063541
   4 C :   -0.173741
   5 H :    0.032514
   6 C :   -0.029935
   7 H :    0.030019
   8 H :    0.033920
   9 C :   -0.045461
  10 H :    0.022811
  11 H :    0.019330
  12 C :   -0.074168
  13 H :    0.024280
  14 H :    0.035370
  15 H :    0.028669
  16 S :    0.424071
  17 C :   -0.203520
  18 C :   -0.075766
  19 C :   -0.050956
  20 C :   -0.204583
  21 H :    0.037292
  22 C :   -0.040255
  23 H :    0.029812
  24 H :    0.027869
  25 C :   -0.042605
  26 H :    0.019505
  27 H :    0.022089
  28 C :   -0.068705
  29 H :    0.031297
  30 H :    0.023261
  31 H :    0.028350
  32 H :    0.026667
  33 H :    0.046745

  Mayer bond orders larger than 0.100000
B(  0-S ,  1-C ) :   1.1396 B(  0-S ,  4-C ) :   1.1362 B(  1-C ,  2-C ) :   1.6212
B(  1-C , 32-H ) :   0.9636 B(  2-C ,  3-C ) :   1.2359 B(  2-C ,  6-C ) :   1.0144
B(  3-C ,  4-C ) :   1.5666 B(  3-C ,  5-H ) :   0.9855 B(  4-C , 20-C ) :   1.0827
B(  6-C ,  7-H ) :   0.9532 B(  6-C ,  8-H ) :   0.9385 B(  6-C ,  9-C ) :   1.0630
B(  9-C , 10-H ) :   0.9560 B(  9-C , 11-H ) :   0.9587 B(  9-C , 12-C ) :   1.0678
B( 12-C , 13-H ) :   0.9742 B( 12-C , 14-H ) :   0.9726 B( 12-C , 15-H ) :   0.9741
B( 16-S , 17-C ) :   1.2015 B( 16-S , 20-C ) :   1.1221 B( 17-C , 18-C ) :   1.5410
B( 17-C , 20-C ) :   0.1034 B( 17-C , 33-H ) :   0.9576 B( 18-C , 19-C ) :   1.2737
B( 18-C , 21-H ) :   0.9907 B( 19-C , 20-C ) :   1.5475 B( 19-C , 22-C ) :   1.0694
B( 22-C , 23-H ) :   0.9355 B( 22-C , 24-H ) :   0.9384 B( 22-C , 25-C ) :   1.0469
B( 25-C , 26-H ) :   0.9514 B( 25-C , 27-H ) :   0.9549 B( 25-C , 28-C ) :   1.0871
B( 28-C , 29-H ) :   0.9694 B( 28-C , 30-H ) :   0.9690 B( 28-C , 31-H ) :   0.9726

Dispersion correction           -0.014981092
FINAL SINGLE POINT ENERGY     -1339.874632889006

DIPOLE MOMENT
-------------
                                X             Y             Z
Electronic contribution:      9.29018     -12.75320      26.62752
Nuclear contribution   :     -9.66650      12.88955     -27.23500
                        -----------------------------------------
Total Dipole Moment    :     -0.37632       0.13636      -0.60749
                        -----------------------------------------
Magnitude (a.u.)       :      0.72750
Magnitude (Debye)      :      1.84915

Rotational constants in cm-1:     0.017466     0.010125     0.006874
Rotational constants in MHz :   523.618839   303.542584   206.091097

                             ****ORCA TERMINATED NORMALLY****
TOTAL RUN TIME: 0 days 0 hours 0 minutes 31 seconds 470 msec
