                         Program Version 4.2.1 -  RELEASE  -
|  1> ! wB97X-D3 SP def2-SVP
|  2> %pal
|  3> nprocs 16
|  4> end
|  5>
|  6> * xyz 0 1
|  7> S 	 27.1538 	 -12.1964 	 77.2159
|  8> C 	 27.4533 	 -12.7037 	 75.5332
|  9> C 	 26.668 	 -11.898 	 74.7227
| 10> C 	 25.7913 	 -10.9979 	 75.4656
| 11> C 	 25.88 	 -11.1131 	 76.8384
| 12> H 	 25.0606 	 -10.3639 	 75.0831
| 13> C 	 26.6008 	 -11.8684 	 73.2159
| 14> H 	 27.6551 	 -11.7526 	 72.962
| 15> H 	 26.0583 	 -11.0324 	 72.722
| 16> C 	 26.1095 	 -13.1736 	 72.5777
| 17> H 	 26.3878 	 -13.2875 	 71.531
| 18> H 	 26.7554 	 -13.9025 	 73.0767
| 19> C 	 24.6057 	 -13.3195 	 72.7479
| 20> H 	 24.3577 	 -12.9162 	 73.7101
| 21> H 	 24.147 	 -12.6258 	 72.0543
| 22> H 	 24.1144 	 -14.3714 	 72.7236
| 23> S 	 24.221 	 -11.4303 	 79.1274
| 24> C 	 23.7168 	 -10.074 	 80.0514
| 25> C 	 24.0918 	 -8.90763 	 79.3977
| 26> C 	 24.8947 	 -9.12062 	 78.2385
| 27> C 	 25.0269 	 -10.4688 	 77.8679
| 28> H 	 23.7999 	 -8.03067 	 79.8711
| 29> C 	 25.5597 	 -7.95057 	 77.4902
| 30> H 	 26.0559 	 -8.407 	 76.6216
| 31> H 	 26.3883 	 -7.5595 	 78.2058
| 32> C 	 24.5954 	 -6.90814 	 76.8912
| 33> H 	 24.0623 	 -6.39248 	 77.6597
| 34> H 	 23.8795 	 -7.45735 	 76.3213
| 35> C 	 25.4055 	 -6.03029 	 75.8906
| 36> H 	 26.2552 	 -5.45273 	 76.3216
| 37> H 	 24.626 	 -5.30952 	 75.501
| 38> H 	 25.8009 	 -6.63904 	 75.1066
| 39> H 	 28.2327 	 -13.4271 	 75.2799
| 40> H 	 23.1884 	 -10.0674 	 80.9835
| 41> *
| 42>
| 43>                          ****END OF INPUT****

CARTESIAN COORDINATES (ANGSTROEM)
---------------------------------
  S     27.153800  -12.196400   77.215900
  C     27.453300  -12.703700   75.533200
  C     26.668000  -11.898000   74.722700
  C     25.791300  -10.997900   75.465600
  C     25.880000  -11.113100   76.838400
  H     25.060600  -10.363900   75.083100
  C     26.600800  -11.868400   73.215900
  H     27.655100  -11.752600   72.962000
  H     26.058300  -11.032400   72.722000
  C     26.109500  -13.173600   72.577700
  H     26.387800  -13.287500   71.531000
  H     26.755400  -13.902500   73.076700
  C     24.605700  -13.319500   72.747900
  H     24.357700  -12.916200   73.710100
  H     24.147000  -12.625800   72.054300
  H     24.114400  -14.371400   72.723600
  S     24.221000  -11.430300   79.127400
  C     23.716800  -10.074000   80.051400
  C     24.091800   -8.907630   79.397700
  C     24.894700   -9.120620   78.238500
  C     25.026900  -10.468800   77.867900
  H     23.799900   -8.030670   79.871100
  C     25.559700   -7.950570   77.490200
  H     26.055900   -8.407000   76.621600
  H     26.388300   -7.559500   78.205800
  C     24.595400   -6.908140   76.891200
  H     24.062300   -6.392480   77.659700
  H     23.879500   -7.457350   76.321300
  C     25.405500   -6.030290   75.890600
  H     26.255200   -5.452730   76.321600
  H     24.626000   -5.309520   75.501000
  H     25.800900   -6.639040   75.106600
  H     28.232700  -13.427100   75.279900
  H     23.188400  -10.067400   80.983500

 Total Charge           Charge          ....    0
 Multiplicity           Mult            ....    1
 Number of Electrons    NEL             ....  134
 Basis Dimension        Dim             ....  322

ORBITAL ENERGIES
----------------

  NO   OCC          E(Eh)            E(eV)
   0   2.0000     -88.965497     -2420.8742
   1   2.0000     -88.963960     -2420.8324
   2   2.0000     -10.332609      -281.1646
   3   2.0000     -10.332247      -281.1547
   4   2.0000     -10.323044      -280.9043
   5   2.0000     -10.317740      -280.7600
   6   2.0000     -10.310019      -280.5499
   7   2.0000     -10.307458      -280.4802
   8   2.0000     -10.296038      -280.1694
   9   2.0000     -10.293367      -280.0967
  10   2.0000     -10.291804      -280.0542
  11   2.0000     -10.288921      -279.9758
  12   2.0000     -10.286200      -279.9017
  13   2.0000     -10.284758      -279.8625
  14   2.0000     -10.284728      -279.8617
  15   2.0000     -10.278068      -279.6804
  16   2.0000      -8.080175      -219.8727
  17   2.0000      -8.078939      -219.8391
  18   2.0000      -6.038670      -164.3206
  19   2.0000      -6.037463      -164.2877
  20   2.0000      -6.034456      -164.2059
  21   2.0000      -6.033268      -164.1736
  22   2.0000      -6.031161      -164.1162
  23   2.0000      -6.029759      -164.0781
  24   2.0000      -1.005494       -27.3609
  25   2.0000      -0.985544       -26.8180
  26   2.0000      -0.916479       -24.9387
  27   2.0000      -0.906456       -24.6659
  28   2.0000      -0.868586       -23.6354
  29   2.0000      -0.847690       -23.0668
  30   2.0000      -0.841151       -22.8889
  31   2.0000      -0.817832       -22.2543
  32   2.0000      -0.779394       -21.2084
  33   2.0000      -0.767965       -20.8974
  34   2.0000      -0.705873       -19.2078
  35   2.0000      -0.703799       -19.1513
  36   2.0000      -0.697052       -18.9677
  37   2.0000      -0.657036       -17.8789
  38   2.0000      -0.647298       -17.6139
  39   2.0000      -0.614301       -16.7160
  40   2.0000      -0.592206       -16.1147
  41   2.0000      -0.581304       -15.8181
  42   2.0000      -0.566934       -15.4270
  43   2.0000      -0.552596       -15.0369
  44   2.0000      -0.545294       -14.8382
  45   2.0000      -0.525959       -14.3121
  46   2.0000      -0.520776       -14.1710
  47   2.0000      -0.512649       -13.9499
  48   2.0000      -0.504996       -13.7417
  49   2.0000      -0.496681       -13.5154
  50   2.0000      -0.485615       -13.2142
  51   2.0000      -0.480281       -13.0691
  52   2.0000      -0.476031       -12.9535
  53   2.0000      -0.467545       -12.7225
  54   2.0000      -0.462937       -12.5971
  55   2.0000      -0.437812       -11.9135
  56   2.0000      -0.437076       -11.8934
  57   2.0000      -0.436222       -11.8702
  58   2.0000      -0.430110       -11.7039
  59   2.0000      -0.428532       -11.6610
  60   2.0000      -0.420119       -11.4320
  61   2.0000      -0.411957       -11.2099
  62   2.0000      -0.405699       -11.0396
  63   2.0000      -0.343094        -9.3361
  64   2.0000      -0.331423        -9.0185
  65   2.0000      -0.324976        -8.8431
  66   2.0000      -0.301910        -8.2154
  67   0.0000       0.029808         0.8111
  68   0.0000       0.066693         1.8148
  69   0.0000       0.111910         3.0452
  70   0.0000       0.124887         3.3984
  71   0.0000       0.134693         3.6652

MULLIKEN ATOMIC CHARGES
-----------------------
   0 S :    0.107031
   1 C :   -0.143376
   2 C :   -0.070545
   3 C :    0.057282
   4 C :   -0.153364
   5 H :   -0.016041
   6 C :    0.025548
   7 H :    0.032099
   8 H :    0.030923
   9 C :   -0.054832
  10 H :    0.027225
  11 H :    0.014226
  12 C :   -0.043100
  13 H :    0.020683
  14 H :    0.022282
  15 H :    0.056399
  16 S :    0.109392
  17 C :   -0.092337
  18 C :   -0.012934
  19 C :   -0.037865
  20 C :   -0.155347
  21 H :   -0.007365
  22 C :    0.029716
  23 H :    0.014198
  24 H :    0.057800
  25 C :   -0.050495
  26 H :    0.029967
  27 H :    0.023467
  28 C :   -0.063080
  29 H :    0.042406
  30 H :    0.043337
  31 H :    0.032865
  32 H :    0.066238
  33 H :    0.057596
Sum of atomic charges:   -0.0000000

LOEWDIN ATOMIC CHARGES
----------------------
   0 S :    0.412595
   1 C :   -0.193475
   2 C :   -0.057434
   3 C :   -0.063441
   4 C :   -0.200575
   5 H :    0.018489
   6 C :   -0.036251
   7 H :    0.035391
   8 H :    0.030592
   9 C :   -0.042791
  10 H :    0.021303
  11 H :    0.019760
  12 C :   -0.072026
  13 H :    0.021883
  14 H :    0.024616
  15 H :    0.039585
  16 S :    0.414162
  17 C :   -0.185917
  18 C :   -0.073672
  19 C :   -0.051010
  20 C :   -0.205992
  21 H :    0.019668
  22 C :   -0.039249
  23 H :    0.026546
  24 H :    0.043239
  25 C :   -0.033192
  26 H :    0.017824
  27 H :    0.023959
  28 C :   -0.064798
  29 H :    0.028887
  30 H :    0.033188
  31 H :    0.021138
  32 H :    0.034927
  33 H :    0.032072

  Mayer bond orders larger than 0.100000
B(  0-S ,  1-C ) :   1.1302 B(  0-S ,  4-C ) :   1.1744 B(  1-C ,  2-C ) :   1.5897
B(  1-C , 32-H ) :   0.9743 B(  2-C ,  3-C ) :   1.2273 B(  2-C ,  6-C ) :   1.0136
B(  3-C ,  4-C ) :   1.5619 B(  3-C ,  5-H ) :   1.0077 B(  4-C , 20-C ) :   1.0225
B(  6-C ,  7-H ) :   0.9316 B(  6-C ,  8-H ) :   0.9548 B(  6-C ,  9-C ) :   1.0767
B(  9-C , 10-H ) :   0.9583 B(  9-C , 11-H ) :   0.9556 B(  9-C , 12-C ) :   1.0572
B( 12-C , 13-H ) :   0.9779 B( 12-C , 14-H ) :   0.9706 B( 12-C , 15-H ) :   0.9733
B( 16-S , 17-C ) :   1.1822 B( 16-S , 20-C ) :   1.1352 B( 17-C , 18-C ) :   1.5853
B( 17-C , 33-H ) :   0.9682 B( 18-C , 19-C ) :   1.2487 B( 18-C , 21-H ) :   1.0055
B( 19-C , 20-C ) :   1.5701 B( 19-C , 22-C ) :   1.0381 B( 22-C , 23-H ) :   0.9354
B( 22-C , 24-H ) :   0.9334 B( 22-C , 25-C ) :   1.0569 B( 25-C , 26-H ) :   0.9588
B( 25-C , 27-H ) :   0.9526 B( 25-C , 28-C ) :   1.0793 B( 28-C , 29-H ) :   0.9769
B( 28-C , 30-H ) :   0.9759 B( 28-C , 31-H ) :   0.9748

Dispersion correction           -0.014061335
FINAL SINGLE POINT ENERGY     -1339.871347420687

DIPOLE MOMENT
-------------
                                X             Y             Z
Electronic contribution:      2.19754     -11.98883      22.20735
Nuclear contribution   :     -2.22643      12.45376     -22.52390
                        -----------------------------------------
Total Dipole Moment    :     -0.02889       0.46493      -0.31655
                        -----------------------------------------
Magnitude (a.u.)       :      0.56320
Magnitude (Debye)      :      1.43154

Rotational constants in cm-1:     0.017589     0.008506     0.006808
Rotational constants in MHz :   527.307160   255.012220   204.088463

                             ****ORCA TERMINATED NORMALLY****
TOTAL RUN TIME: 0 days 0 hours 0 minutes 29 seconds 679 msec
