                         Program Version 4.2.1 -  RELEASE  -
|  1> ! wB97X-D3 SP def2-SVP
|  2> %pal
|  3> nprocs 16
|  4> end
|  5>
|  6> * xyz 0 1
|  7> S 	 -93.6624 	 54.9456 	 129.438
|  8> C 	 -92.994 	 53.3759 	 129.95
|  9> C 	 -91.8134 	 53.0508 	 129.224
| 10> C 	 -91.5767 	 53.9771 	 128.148
| 11> C 	 -92.5034 	 55.0523 	 128.154
| 12> H 	 -90.7802 	 53.9203 	 127.405
| 13> C 	 -90.773 	 51.973 	 129.518
| 14> H 	 -89.7833 	 52.3106 	 129.422
| 15> H 	 -90.7222 	 51.1977 	 128.742
| 16> C 	 -90.8536 	 51.3914 	 130.938
| 17> H 	 -90.7605 	 52.2188 	 131.645
| 18> H 	 -91.8346 	 50.8252 	 131.022
| 19> C 	 -89.7756 	 50.3463 	 131.219
| 20> H 	 -90.1139 	 49.6568 	 131.97
| 21> H 	 -89.6147 	 49.7892 	 130.309
| 22> H 	 -88.8836 	 50.8366 	 131.531
| 23> S 	 -92.2008 	 57.7695 	 128.136
| 24> C 	 -92.0333 	 58.6048 	 126.585
| 25> C 	 -92.1499 	 57.7114 	 125.526
| 26> C 	 -92.5415 	 56.3774 	 125.883
| 27> C 	 -92.4956 	 56.2264 	 127.279
| 28> H 	 -92.0374 	 58.1097 	 124.554
| 29> C 	 -92.4951 	 55.2482 	 124.92
| 30> H 	 -93.06 	 55.6659 	 124.06
| 31> H 	 -93.0586 	 54.3876 	 125.273
| 32> C 	 -91.1281 	 54.783 	 124.361
| 33> H 	 -91.211 	 53.737 	 124.227
| 34> H 	 -90.3274 	 54.9047 	 125.087
| 35> C 	 -90.7561 	 55.4357 	 123
| 36> H 	 -89.7489 	 55.0952 	 122.713
| 37> H 	 -90.6208 	 56.5204 	 123.06
| 38> H 	 -91.4357 	 55.2948 	 122.143
| 39> H 	 -93.3278 	 52.949 	 130.851
| 40> H 	 -91.6723 	 59.6451 	 126.447
| 41> *
| 42>
| 43>                          ****END OF INPUT****

CARTESIAN COORDINATES (ANGSTROEM)
---------------------------------
  S    -93.662400   54.945600  129.438000
  C    -92.994000   53.375900  129.950000
  C    -91.813400   53.050800  129.224000
  C    -91.576700   53.977100  128.148000
  C    -92.503400   55.052300  128.154000
  H    -90.780200   53.920300  127.405000
  C    -90.773000   51.973000  129.518000
  H    -89.783300   52.310600  129.422000
  H    -90.722200   51.197700  128.742000
  C    -90.853600   51.391400  130.938000
  H    -90.760500   52.218800  131.645000
  H    -91.834600   50.825200  131.022000
  C    -89.775600   50.346300  131.219000
  H    -90.113900   49.656800  131.970000
  H    -89.614700   49.789200  130.309000
  H    -88.883600   50.836600  131.531000
  S    -92.200800   57.769500  128.136000
  C    -92.033300   58.604800  126.585000
  C    -92.149900   57.711400  125.526000
  C    -92.541500   56.377400  125.883000
  C    -92.495600   56.226400  127.279000
  H    -92.037400   58.109700  124.554000
  C    -92.495100   55.248200  124.920000
  H    -93.060000   55.665900  124.060000
  H    -93.058600   54.387600  125.273000
  C    -91.128100   54.783000  124.361000
  H    -91.211000   53.737000  124.227000
  H    -90.327400   54.904700  125.087000
  C    -90.756100   55.435700  123.000000
  H    -89.748900   55.095200  122.713000
  H    -90.620800   56.520400  123.060000
  H    -91.435700   55.294800  122.143000
  H    -93.327800   52.949000  130.851000
  H    -91.672300   59.645100  126.447000

 Total Charge           Charge          ....    0
 Multiplicity           Mult            ....    1
 Number of Electrons    NEL             ....  134
 Basis Dimension        Dim             ....  322

ORBITAL ENERGIES
----------------

  NO   OCC          E(Eh)            E(eV)
   0   2.0000     -88.968537     -2420.9570
   1   2.0000     -88.964769     -2420.8544
   2   2.0000     -10.331770      -281.1417
   3   2.0000     -10.328954      -281.0651
   4   2.0000     -10.320666      -280.8396
   5   2.0000     -10.317356      -280.7495
   6   2.0000     -10.311454      -280.5889
   7   2.0000     -10.304074      -280.3881
   8   2.0000     -10.300168      -280.2818
   9   2.0000     -10.292407      -280.0706
  10   2.0000     -10.291376      -280.0426
  11   2.0000     -10.290119      -280.0084
  12   2.0000     -10.289360      -279.9877
  13   2.0000     -10.289261      -279.9850
  14   2.0000     -10.284076      -279.8439
  15   2.0000     -10.272965      -279.5416
  16   2.0000      -8.082882      -219.9464
  17   2.0000      -8.078667      -219.8317
  18   2.0000      -6.041278      -164.3915
  19   2.0000      -6.037417      -164.2865
  20   2.0000      -6.037221      -164.2811
  21   2.0000      -6.033824      -164.1887
  22   2.0000      -6.033317      -164.1749
  23   2.0000      -6.029395      -164.0682
  24   2.0000      -0.998700       -27.1760
  25   2.0000      -0.974645       -26.5215
  26   2.0000      -0.913645       -24.8615
  27   2.0000      -0.907453       -24.6931
  28   2.0000      -0.864329       -23.5196
  29   2.0000      -0.850414       -23.1410
  30   2.0000      -0.846228       -23.0270
  31   2.0000      -0.808826       -22.0093
  32   2.0000      -0.784661       -21.3517
  33   2.0000      -0.770696       -20.9717
  34   2.0000      -0.713164       -19.4062
  35   2.0000      -0.703042       -19.1307
  36   2.0000      -0.685475       -18.6527
  37   2.0000      -0.660891       -17.9838
  38   2.0000      -0.644941       -17.5497
  39   2.0000      -0.612141       -16.6572
  40   2.0000      -0.593602       -16.1527
  41   2.0000      -0.575327       -15.6555
  42   2.0000      -0.564761       -15.3679
  43   2.0000      -0.546990       -14.8844
  44   2.0000      -0.537319       -14.6212
  45   2.0000      -0.522739       -14.2244
  46   2.0000      -0.521057       -14.1787
  47   2.0000      -0.508960       -13.8495
  48   2.0000      -0.501870       -13.6566
  49   2.0000      -0.498082       -13.5535
  50   2.0000      -0.491840       -13.3836
  51   2.0000      -0.486076       -13.2268
  52   2.0000      -0.473779       -12.8922
  53   2.0000      -0.462075       -12.5737
  54   2.0000      -0.456554       -12.4235
  55   2.0000      -0.444556       -12.0970
  56   2.0000      -0.440333       -11.9821
  57   2.0000      -0.437585       -11.9073
  58   2.0000      -0.434410       -11.8209
  59   2.0000      -0.429595       -11.6899
  60   2.0000      -0.423782       -11.5317
  61   2.0000      -0.419434       -11.4134
  62   2.0000      -0.413486       -11.2515
  63   2.0000      -0.337871        -9.1939
  64   2.0000      -0.330293        -8.9877
  65   2.0000      -0.326661        -8.8889
  66   2.0000      -0.292383        -7.9562
  67   0.0000       0.030257         0.8233
  68   0.0000       0.059895         1.6298
  69   0.0000       0.106211         2.8902
  70   0.0000       0.120583         3.2812
  71   0.0000       0.123797         3.3687

MULLIKEN ATOMIC CHARGES
-----------------------
   0 S :    0.116464
   1 C :   -0.116327
   2 C :   -0.059902
   3 C :    0.031362
   4 C :   -0.157498
   5 H :    0.012023
   6 C :    0.067491
   7 H :    0.008758
   8 H :    0.026286
   9 C :   -0.139113
  10 H :    0.042448
  11 H :    0.041929
  12 C :   -0.004977
  13 H :    0.032087
  14 H :    0.020588
  15 H :    0.029426
  16 S :    0.099474
  17 C :   -0.106180
  18 C :   -0.045077
  19 C :    0.004040
  20 C :   -0.169002
  21 H :    0.008642
  22 C :    0.026264
  23 H :    0.027961
  24 H :    0.037146
  25 C :   -0.029242
  26 H :    0.021809
  27 H :    0.036463
  28 C :   -0.074424
  29 H :    0.028757
  30 H :    0.027325
  31 H :    0.042363
  32 H :    0.039976
  33 H :    0.072661
Sum of atomic charges:   -0.0000000

LOEWDIN ATOMIC CHARGES
----------------------
   0 S :    0.411255
   1 C :   -0.189646
   2 C :   -0.049488
   3 C :   -0.060254
   4 C :   -0.203106
   5 H :    0.031499
   6 C :   -0.036866
   7 H :    0.024664
   8 H :    0.032620
   9 C :   -0.043942
  10 H :    0.025698
  11 H :    0.028379
  12 C :   -0.057904
  13 H :    0.026818
  14 H :    0.023293
  15 H :    0.021440
  16 S :    0.381761
  17 C :   -0.187391
  18 C :   -0.066205
  19 C :   -0.058043
  20 C :   -0.185210
  21 H :    0.022964
  22 C :   -0.037601
  23 H :    0.037060
  24 H :    0.033853
  25 C :   -0.032683
  26 H :    0.022962
  27 H :    0.024794
  28 C :   -0.071900
  29 H :    0.028067
  30 H :    0.022862
  31 H :    0.027631
  32 H :    0.014093
  33 H :    0.038526

  Mayer bond orders larger than 0.100000
B(  0-S ,  1-C ) :   1.1359 B(  0-S ,  4-C ) :   1.1755 B(  1-C ,  2-C ) :   1.5918
B(  1-C ,  4-C ) :   0.1024 B(  1-C , 32-H ) :   0.9721 B(  2-C ,  3-C ) :   1.2524
B(  2-C ,  6-C ) :   1.0152 B(  3-C ,  4-C ) :   1.5495 B(  3-C ,  5-H ) :   0.9929
B(  4-C , 20-C ) :   1.0235 B(  6-C ,  7-H ) :   0.9442 B(  6-C ,  8-H ) :   0.9249
B(  6-C ,  9-C ) :   1.0746 B(  9-C , 10-H ) :   0.9602 B(  9-C , 11-H ) :   0.9533
B(  9-C , 12-C ) :   1.0843 B( 12-C , 13-H ) :   0.9747 B( 12-C , 14-H ) :   0.9730
B( 12-C , 15-H ) :   0.9751 B( 16-S , 17-C ) :   1.1367 B( 16-S , 20-C ) :   1.1449
B( 17-C , 18-C ) :   1.6394 B( 17-C , 33-H ) :   0.9613 B( 18-C , 19-C ) :   1.2049
B( 18-C , 21-H ) :   0.9898 B( 19-C , 20-C ) :   1.5845 B( 19-C , 22-C ) :   1.0846
B( 22-C , 23-H ) :   0.9302 B( 22-C , 24-H ) :   0.9352 B( 22-C , 25-C ) :   1.0424
B( 25-C , 26-H ) :   0.9555 B( 25-C , 27-H ) :   0.9566 B( 25-C , 28-C ) :   1.0805
B( 28-C , 29-H ) :   0.9711 B( 28-C , 30-H ) :   0.9751 B( 28-C , 31-H ) :   0.9753

Dispersion correction           -0.014090116
FINAL SINGLE POINT ENERGY     -1339.874247126921

DIPOLE MOMENT
-------------
                                X             Y             Z
Electronic contribution:    -14.94674      20.29732       9.00445
Nuclear contribution   :     15.55378     -20.68884      -9.33319
                        -----------------------------------------
Total Dipole Moment    :      0.60704      -0.39152      -0.32874
                        -----------------------------------------
Magnitude (a.u.)       :      0.79364
Magnitude (Debye)      :      2.01726

Rotational constants in cm-1:     0.020215     0.007541     0.006094
Rotational constants in MHz :   606.037578   226.084248   182.697829

                             ****ORCA TERMINATED NORMALLY****
TOTAL RUN TIME: 0 days 0 hours 0 minutes 34 seconds 401 msec
