                         Program Version 4.2.1 -  RELEASE  -
|  1> ! wB97X-D3 SP def2-SVP
|  2> %pal
|  3> nprocs 16
|  4> end
|  5>
|  6> * xyz 0 1
|  7> S 	 -101.71 	 46.8472 	 118.901
|  8> C 	 -103.355 	 46.3378 	 118.352
|  9> C 	 -103.925 	 47.2082 	 117.421
| 10> C 	 -103.05 	 48.3231 	 117.203
| 11> C 	 -101.894 	 48.2769 	 117.891
| 12> H 	 -103.198 	 49.1838 	 116.547
| 13> C 	 -105.218 	 47.1182 	 116.822
| 14> H 	 -105.889 	 47.7714 	 117.341
| 15> H 	 -105.447 	 46.0544 	 117.129
| 16> C 	 -105.365 	 47.178 	 115.237
| 17> H 	 -105.139 	 48.1888 	 114.931
| 18> H 	 -104.617 	 46.4096 	 114.811
| 19> C 	 -106.905 	 46.8933 	 114.9
| 20> H 	 -107.113 	 47.0632 	 113.863
| 21> H 	 -107.147 	 45.8522 	 115.247
| 22> H 	 -107.429 	 47.654 	 115.443
| 23> S 	 -99.0796 	 48.5068 	 117.34
| 24> C 	 -98.3983 	 50.1098 	 117.341
| 25> C 	 -99.3561 	 51.0988 	 117.515
| 26> C 	 -100.653 	 50.5461 	 117.626
| 27> C 	 -100.743 	 49.1543 	 117.677
| 28> H 	 -99.147 	 52.1377 	 117.698
| 29> C 	 -101.866 	 51.3915 	 117.936
| 30> H 	 -101.432 	 52.167 	 118.566
| 31> H 	 -102.461 	 50.7937 	 118.588
| 32> C 	 -102.761 	 52.0182 	 116.812
| 33> H 	 -103.743 	 52.3228 	 117.097
| 34> H 	 -102.784 	 51.1358 	 116.132
| 35> C 	 -102.095 	 53.1201 	 115.979
| 36> H 	 -101.748 	 53.9976 	 116.599
| 37> H 	 -102.767 	 53.4491 	 115.176
| 38> H 	 -101.222 	 52.7514 	 115.474
| 39> H 	 -103.82 	 45.4848 	 118.66
| 40> H 	 -97.3698 	 50.2954 	 117.213
| 41> *
| 42>
| 43>                          ****END OF INPUT****

CARTESIAN COORDINATES (ANGSTROEM)
---------------------------------
  S    -101.710000   46.847200  118.901000
  C    -103.355000   46.337800  118.352000
  C    -103.925000   47.208200  117.421000
  C    -103.050000   48.323100  117.203000
  C    -101.894000   48.276900  117.891000
  H    -103.198000   49.183800  116.547000
  C    -105.218000   47.118200  116.822000
  H    -105.889000   47.771400  117.341000
  H    -105.447000   46.054400  117.129000
  C    -105.365000   47.178000  115.237000
  H    -105.139000   48.188800  114.931000
  H    -104.617000   46.409600  114.811000
  C    -106.905000   46.893300  114.900000
  H    -107.113000   47.063200  113.863000
  H    -107.147000   45.852200  115.247000
  H    -107.429000   47.654000  115.443000
  S    -99.079600   48.506800  117.340000
  C    -98.398300   50.109800  117.341000
  C    -99.356100   51.098800  117.515000
  C    -100.653000   50.546100  117.626000
  C    -100.743000   49.154300  117.677000
  H    -99.147000   52.137700  117.698000
  C    -101.866000   51.391500  117.936000
  H    -101.432000   52.167000  118.566000
  H    -102.461000   50.793700  118.588000
  C    -102.761000   52.018200  116.812000
  H    -103.743000   52.322800  117.097000
  H    -102.784000   51.135800  116.132000
  C    -102.095000   53.120100  115.979000
  H    -101.748000   53.997600  116.599000
  H    -102.767000   53.449100  115.176000
  H    -101.222000   52.751400  115.474000
  H    -103.820000   45.484800  118.660000
  H    -97.369800   50.295400  117.213000

 Total Charge           Charge          ....    0
 Multiplicity           Mult            ....    1
 Number of Electrons    NEL             ....  134
 Basis Dimension        Dim             ....  322

ORBITAL ENERGIES
----------------

  NO   OCC          E(Eh)            E(eV)
   0   2.0000     -88.968913     -2420.9672
   1   2.0000     -88.965715     -2420.8802
   2   2.0000     -10.329102      -281.0692
   3   2.0000     -10.327474      -281.0249
   4   2.0000     -10.316525      -280.7269
   5   2.0000     -10.313909      -280.6557
   6   2.0000     -10.304392      -280.3968
   7   2.0000     -10.300544      -280.2920
   8   2.0000     -10.299816      -280.2722
   9   2.0000     -10.292899      -280.0840
  10   2.0000     -10.292325      -280.0684
  11   2.0000     -10.291111      -280.0354
  12   2.0000     -10.290093      -280.0077
  13   2.0000     -10.286776      -279.9174
  14   2.0000     -10.285195      -279.8744
  15   2.0000     -10.279564      -279.7212
  16   2.0000      -8.082593      -219.9385
  17   2.0000      -8.079491      -219.8541
  18   2.0000      -6.041162      -164.3884
  19   2.0000      -6.038050      -164.3037
  20   2.0000      -6.037464      -164.2877
  21   2.0000      -6.034116      -164.1967
  22   2.0000      -6.033135      -164.1699
  23   2.0000      -6.030277      -164.0922
  24   2.0000      -1.003003       -27.2931
  25   2.0000      -0.980805       -26.6891
  26   2.0000      -0.913887       -24.8681
  27   2.0000      -0.905046       -24.6276
  28   2.0000      -0.866513       -23.5790
  29   2.0000      -0.851955       -23.1829
  30   2.0000      -0.845459       -23.0061
  31   2.0000      -0.817778       -22.2529
  32   2.0000      -0.782404       -21.2903
  33   2.0000      -0.769497       -20.9391
  34   2.0000      -0.712450       -19.3868
  35   2.0000      -0.702755       -19.1229
  36   2.0000      -0.694346       -18.8941
  37   2.0000      -0.662628       -18.0310
  38   2.0000      -0.645722       -17.5710
  39   2.0000      -0.617107       -16.7923
  40   2.0000      -0.589482       -16.0406
  41   2.0000      -0.576864       -15.6973
  42   2.0000      -0.562167       -15.2974
  43   2.0000      -0.559142       -15.2150
  44   2.0000      -0.546097       -14.8601
  45   2.0000      -0.526201       -14.3186
  46   2.0000      -0.516142       -14.0449
  47   2.0000      -0.507395       -13.8069
  48   2.0000      -0.504806       -13.7365
  49   2.0000      -0.497664       -13.5421
  50   2.0000      -0.491472       -13.3736
  51   2.0000      -0.477682       -12.9984
  52   2.0000      -0.470986       -12.8162
  53   2.0000      -0.461237       -12.5509
  54   2.0000      -0.457185       -12.4406
  55   2.0000      -0.451675       -12.2907
  56   2.0000      -0.444957       -12.1079
  57   2.0000      -0.440241       -11.9796
  58   2.0000      -0.431709       -11.7474
  59   2.0000      -0.430698       -11.7199
  60   2.0000      -0.421358       -11.4657
  61   2.0000      -0.417661       -11.3651
  62   2.0000      -0.406907       -11.0725
  63   2.0000      -0.348159        -9.4739
  64   2.0000      -0.331766        -9.0278
  65   2.0000      -0.329750        -8.9730
  66   2.0000      -0.290052        -7.8927
  67   0.0000       0.026250         0.7143
  68   0.0000       0.066670         1.8142
  69   0.0000       0.106414         2.8957
  70   0.0000       0.123821         3.3693
  71   0.0000       0.125101         3.4042

MULLIKEN ATOMIC CHARGES
-----------------------
   0 S :    0.102439
   1 C :   -0.082006
   2 C :   -0.055497
   3 C :    0.023445
   4 C :   -0.143728
   5 H :   -0.001220
   6 C :    0.025844
   7 H :    0.041911
   8 H :    0.014558
   9 C :   -0.110513
  10 H :    0.036140
  11 H :    0.058526
  12 C :   -0.032828
  13 H :    0.037753
  14 H :    0.048053
  15 H :    0.026384
  16 S :    0.098711
  17 C :   -0.079745
  18 C :   -0.009766
  19 C :   -0.066400
  20 C :   -0.139101
  21 H :    0.018490
  22 C :    0.047086
  23 H :    0.012985
  24 H :    0.027167
  25 C :   -0.053880
  26 H :    0.035502
  27 H :    0.035369
  28 C :   -0.068474
  29 H :    0.035426
  30 H :    0.037621
  31 H :    0.029691
  32 H :    0.003876
  33 H :    0.046182
Sum of atomic charges:   -0.0000000

LOEWDIN ATOMIC CHARGES
----------------------
   0 S :    0.377600
   1 C :   -0.162601
   2 C :   -0.059441
   3 C :   -0.058533
   4 C :   -0.184528
   5 H :    0.031335
   6 C :   -0.043271
   7 H :    0.032267
   8 H :    0.037255
   9 C :   -0.033178
  10 H :    0.017618
  11 H :    0.036811
  12 C :   -0.059448
  13 H :    0.022691
  14 H :    0.032852
  15 H :    0.022929
  16 S :    0.381920
  17 C :   -0.173358
  18 C :   -0.072530
  19 C :   -0.060663
  20 C :   -0.181860
  21 H :    0.032230
  22 C :   -0.033151
  23 H :    0.025665
  24 H :    0.028159
  25 C :   -0.036732
  26 H :    0.021783
  27 H :    0.026340
  28 C :   -0.071105
  29 H :    0.026911
  30 H :    0.028756
  31 H :    0.022331
  32 H :    0.004219
  33 H :    0.020726

  Mayer bond orders larger than 0.100000
B(  0-S ,  1-C ) :   1.1142 B(  0-S ,  4-C ) :   1.1228 B(  1-C ,  2-C ) :   1.6322
B(  1-C , 32-H ) :   0.9737 B(  2-C ,  3-C ) :   1.1891 B(  2-C ,  6-C ) :   1.0387
B(  3-C ,  4-C ) :   1.6195 B(  3-C ,  5-H ) :   0.9845 B(  4-C , 20-C ) :   1.0444
B(  6-C ,  7-H ) :   0.9303 B(  6-C ,  8-H ) :   0.9379 B(  6-C ,  9-C ) :   1.0455
B(  9-C , 10-H ) :   0.9562 B(  9-C , 11-H ) :   0.9596 B(  9-C , 12-C ) :   1.0682
B( 12-C , 13-H ) :   0.9769 B( 12-C , 14-H ) :   0.9785 B( 12-C , 15-H ) :   0.9747
B( 16-S , 17-C ) :   1.1673 B( 16-S , 20-C ) :   1.1145 B( 17-C , 18-C ) :   1.5802
B( 17-C , 20-C ) :   0.1008 B( 17-C , 33-H ) :   0.9714 B( 18-C , 19-C ) :   1.2626
B( 18-C , 21-H ) :   0.9909 B( 19-C , 20-C ) :   1.5906 B( 19-C , 22-C ) :   1.0390
B( 22-C , 23-H ) :   0.9393 B( 22-C , 24-H ) :   0.9343 B( 22-C , 25-C ) :   1.0472
B( 25-C , 26-H ) :   0.9617 B( 25-C , 27-H ) :   0.9457 B( 25-C , 28-C ) :   1.0817
B( 28-C , 29-H ) :   0.9754 B( 28-C , 30-H ) :   0.9726 B( 28-C , 31-H ) :   0.9749

Dispersion correction           -0.014357484
FINAL SINGLE POINT ENERGY     -1339.862819300139

DIPOLE MOMENT
-------------
                                X             Y             Z
Electronic contribution:     23.37354     -12.50206      13.46829
Nuclear contribution   :    -23.93074      12.86292     -13.72409
                        -----------------------------------------
Total Dipole Moment    :     -0.55720       0.36086      -0.25580
                        -----------------------------------------
Magnitude (a.u.)       :      0.71143
Magnitude (Debye)      :      1.80831

Rotational constants in cm-1:     0.017460     0.008906     0.006595
Rotational constants in MHz :   523.435260   266.991042   197.721279

                             ****ORCA TERMINATED NORMALLY****
TOTAL RUN TIME: 0 days 0 hours 0 minutes 32 seconds 66 msec
