                         Program Version 4.2.1 -  RELEASE  -
|  1> ! wB97X-D3 SP def2-SVP
|  2> %pal
|  3> nprocs 16
|  4> end
|  5>
|  6> * xyz 0 1
|  7> S 	 -117.257 	 55.3827 	 109.85
|  8> C 	 -115.953 	 54.257 	 109.53
|  9> C 	 -114.981 	 54.3873 	 110.462
| 10> C 	 -115.263 	 55.3591 	 111.504
| 11> C 	 -116.56 	 55.8506 	 111.412
| 12> H 	 -114.685 	 55.6304 	 112.35
| 13> C 	 -113.693 	 53.5718 	 110.565
| 14> H 	 -113.879 	 52.5013 	 110.859
| 15> H 	 -113.148 	 53.9002 	 111.429
| 16> C 	 -112.829 	 53.7606 	 109.31
| 17> H 	 -111.971 	 53.0838 	 109.511
| 18> H 	 -113.376 	 53.3816 	 108.501
| 19> C 	 -112.181 	 55.1666 	 109.022
| 20> H 	 -111.908 	 55.2876 	 107.991
| 21> H 	 -112.809 	 56.0005 	 109.485
| 22> H 	 -111.21 	 55.2175 	 109.468
| 23> S 	 -117.613 	 58.3949 	 111.361
| 24> C 	 -117.946 	 59.2058 	 112.862
| 25> C 	 -117.802 	 58.2916 	 113.902
| 26> C 	 -117.318 	 57.006 	 113.618
| 27> C 	 -117.146 	 56.8532 	 112.2
| 28> H 	 -117.989 	 58.6237 	 114.913
| 29> C 	 -116.951 	 55.9324 	 114.684
| 30> H 	 -117.128 	 55.0614 	 114.142
| 31> H 	 -117.728 	 56.0542 	 115.478
| 32> C 	 -115.458 	 55.7615 	 115.235
| 33> H 	 -114.653 	 55.1985 	 114.608
| 34> H 	 -115.523 	 55.0629 	 116.069
| 35> C 	 -114.708 	 57.0664 	 115.61
| 36> H 	 -113.752 	 56.8151 	 115.987
| 37> H 	 -115.277 	 57.6156 	 116.407
| 38> H 	 -114.73 	 57.7806 	 114.794
| 39> H 	 -115.904 	 53.6624 	 108.66
| 40> H 	 -118.312 	 60.2206 	 112.924
| 41> *
| 42>
| 43>                          ****END OF INPUT****

CARTESIAN COORDINATES (ANGSTROEM)
---------------------------------
  S    -117.257000   55.382700  109.850000
  C    -115.953000   54.257000  109.530000
  C    -114.981000   54.387300  110.462000
  C    -115.263000   55.359100  111.504000
  C    -116.560000   55.850600  111.412000
  H    -114.685000   55.630400  112.350000
  C    -113.693000   53.571800  110.565000
  H    -113.879000   52.501300  110.859000
  H    -113.148000   53.900200  111.429000
  C    -112.829000   53.760600  109.310000
  H    -111.971000   53.083800  109.511000
  H    -113.376000   53.381600  108.501000
  C    -112.181000   55.166600  109.022000
  H    -111.908000   55.287600  107.991000
  H    -112.809000   56.000500  109.485000
  H    -111.210000   55.217500  109.468000
  S    -117.613000   58.394900  111.361000
  C    -117.946000   59.205800  112.862000
  C    -117.802000   58.291600  113.902000
  C    -117.318000   57.006000  113.618000
  C    -117.146000   56.853200  112.200000
  H    -117.989000   58.623700  114.913000
  C    -116.951000   55.932400  114.684000
  H    -117.128000   55.061400  114.142000
  H    -117.728000   56.054200  115.478000
  C    -115.458000   55.761500  115.235000
  H    -114.653000   55.198500  114.608000
  H    -115.523000   55.062900  116.069000
  C    -114.708000   57.066400  115.610000
  H    -113.752000   56.815100  115.987000
  H    -115.277000   57.615600  116.407000
  H    -114.730000   57.780600  114.794000
  H    -115.904000   53.662400  108.660000
  H    -118.312000   60.220600  112.924000

 Total Charge           Charge          ....    0
 Multiplicity           Mult            ....    1
 Number of Electrons    NEL             ....  134
 Basis Dimension        Dim             ....  322

ORBITAL ENERGIES
----------------

  NO   OCC          E(Eh)            E(eV)
   0   2.0000     -88.965846     -2420.8837
   1   2.0000     -88.962652     -2420.7968
   2   2.0000     -10.331105      -281.1237
   3   2.0000     -10.327227      -281.0181
   4   2.0000     -10.318867      -280.7906
   5   2.0000     -10.310952      -280.5753
   6   2.0000     -10.310361      -280.5592
   7   2.0000     -10.303780      -280.3801
   8   2.0000     -10.302128      -280.3352
   9   2.0000     -10.299897      -280.2744
  10   2.0000     -10.294473      -280.1269
  11   2.0000     -10.292949      -280.0854
  12   2.0000     -10.292333      -280.0686
  13   2.0000     -10.285554      -279.8841
  14   2.0000     -10.279807      -279.7278
  15   2.0000     -10.278243      -279.6852
  16   2.0000      -8.079761      -219.8615
  17   2.0000      -8.077339      -219.7956
  18   2.0000      -6.038239      -164.3088
  19   2.0000      -6.035916      -164.2456
  20   2.0000      -6.034263      -164.2006
  21   2.0000      -6.031911      -164.1366
  22   2.0000      -6.030709      -164.1039
  23   2.0000      -6.027959      -164.0291
  24   2.0000      -1.003594       -27.3092
  25   2.0000      -0.978829       -26.6353
  26   2.0000      -0.908129       -24.7114
  27   2.0000      -0.898176       -24.4406
  28   2.0000      -0.871472       -23.7139
  29   2.0000      -0.849607       -23.1190
  30   2.0000      -0.841148       -22.8888
  31   2.0000      -0.809688       -22.0327
  32   2.0000      -0.786703       -21.4073
  33   2.0000      -0.774954       -21.0876
  34   2.0000      -0.713490       -19.4151
  35   2.0000      -0.702380       -19.1127
  36   2.0000      -0.693495       -18.8709
  37   2.0000      -0.661469       -17.9995
  38   2.0000      -0.644811       -17.5462
  39   2.0000      -0.606774       -16.5112
  40   2.0000      -0.587639       -15.9905
  41   2.0000      -0.571214       -15.5435
  42   2.0000      -0.553643       -15.0654
  43   2.0000      -0.549890       -14.9633
  44   2.0000      -0.547004       -14.8847
  45   2.0000      -0.532282       -14.4841
  46   2.0000      -0.518415       -14.1068
  47   2.0000      -0.511752       -13.9255
  48   2.0000      -0.506295       -13.7770
  49   2.0000      -0.494122       -13.4458
  50   2.0000      -0.488895       -13.3035
  51   2.0000      -0.479530       -13.0487
  52   2.0000      -0.474418       -12.9096
  53   2.0000      -0.471228       -12.8228
  54   2.0000      -0.453281       -12.3344
  55   2.0000      -0.451595       -12.2885
  56   2.0000      -0.445167       -12.1136
  57   2.0000      -0.437090       -11.8938
  58   2.0000      -0.432718       -11.7748
  59   2.0000      -0.425284       -11.5726
  60   2.0000      -0.416126       -11.3234
  61   2.0000      -0.404978       -11.0200
  62   2.0000      -0.403158       -10.9705
  63   2.0000      -0.347368        -9.4524
  64   2.0000      -0.332942        -9.0598
  65   2.0000      -0.326910        -8.8957
  66   2.0000      -0.287983        -7.8364
  67   0.0000       0.020787         0.5656
  68   0.0000       0.060948         1.6585
  69   0.0000       0.110810         3.0153
  70   0.0000       0.125095         3.4040
  71   0.0000       0.126061         3.4303

MULLIKEN ATOMIC CHARGES
-----------------------
   0 S :    0.091641
   1 C :   -0.106712
   2 C :   -0.074901
   3 C :    0.052211
   4 C :   -0.161988
   5 H :   -0.005402
   6 C :    0.063690
   7 H :    0.049887
   8 H :    0.001675
   9 C :   -0.082423
  10 H :    0.028397
  11 H :    0.022431
  12 C :   -0.042251
  13 H :    0.032411
  14 H :    0.056026
  15 H :    0.018321
  16 S :    0.103148
  17 C :   -0.099536
  18 C :   -0.036779
  19 C :   -0.053604
  20 C :   -0.164391
  21 H :    0.008862
  22 C :    0.116142
  23 H :    0.024207
  24 H :    0.043512
  25 C :   -0.114218
  26 H :    0.036484
  27 H :    0.031662
  28 C :   -0.042950
  29 H :    0.032667
  30 H :    0.024003
  31 H :    0.045957
  32 H :    0.037108
  33 H :    0.064714
Sum of atomic charges:    0.0000000

LOEWDIN ATOMIC CHARGES
----------------------
   0 S :    0.389517
   1 C :   -0.183859
   2 C :   -0.063777
   3 C :   -0.049324
   4 C :   -0.190638
   5 H :    0.024344
   6 C :   -0.034543
   7 H :    0.041314
   8 H :    0.021951
   9 C :   -0.038936
  10 H :    0.027591
  11 H :    0.011637
  12 C :   -0.068536
  13 H :    0.027178
  14 H :    0.037529
  15 H :    0.021830
  16 S :    0.393551
  17 C :   -0.191723
  18 C :   -0.078368
  19 C :   -0.055383
  20 C :   -0.182615
  21 H :    0.026314
  22 C :   -0.024997
  23 H :    0.028857
  24 H :    0.041061
  25 C :   -0.046789
  26 H :    0.031452
  27 H :    0.024698
  28 C :   -0.067292
  29 H :    0.020768
  30 H :    0.025713
  31 H :    0.027057
  32 H :    0.022122
  33 H :    0.032298

  Mayer bond orders larger than 0.100000
B(  0-S ,  1-C ) :   1.1236 B(  0-S ,  4-C ) :   1.1328 B(  1-C ,  2-C ) :   1.6310
B(  1-C , 32-H ) :   0.9778 B(  2-C ,  3-C ) :   1.2141 B(  2-C ,  6-C ) :   1.0111
B(  3-C ,  4-C ) :   1.5712 B(  3-C ,  5-H ) :   0.9951 B(  4-C , 20-C ) :   1.0941
B(  6-C ,  7-H ) :   0.9428 B(  6-C ,  8-H ) :   0.9412 B(  6-C ,  9-C ) :   1.0687
B(  9-C , 10-H ) :   0.9589 B(  9-C , 11-H ) :   0.9675 B(  9-C , 12-C ) :   1.0595
B( 12-C , 13-H ) :   0.9744 B( 12-C , 14-H ) :   0.9783 B( 12-C , 15-H ) :   0.9766
B( 16-S , 17-C ) :   1.1625 B( 16-S , 20-C ) :   1.1473 B( 17-C , 18-C ) :   1.5660
B( 17-C , 20-C ) :   0.1171 B( 17-C , 33-H ) :   0.9713 B( 18-C , 19-C ) :   1.2801
B( 18-C , 21-H ) :   0.9880 B( 19-C , 20-C ) :   1.5286 B( 19-C , 22-C ) :   1.0321
B( 22-C , 23-H ) :   0.9261 B( 22-C , 24-H ) :   0.9404 B( 22-C , 25-C ) :   1.0471
B( 25-C , 26-H ) :   0.9569 B( 25-C , 27-H ) :   0.9530 B( 25-C , 28-C ) :   1.0755
B( 28-C , 29-H ) :   0.9753 B( 28-C , 30-H ) :   0.9758 B( 28-C , 31-H ) :   0.9726

Dispersion correction           -0.014956279
FINAL SINGLE POINT ENERGY     -1339.855948494250

DIPOLE MOMENT
-------------
                                X             Y             Z
Electronic contribution:    -22.42077       8.42212     -10.67506
Nuclear contribution   :     22.96653      -8.65418      11.13769
                        -----------------------------------------
Total Dipole Moment    :      0.54576      -0.23206       0.46264
                        -----------------------------------------
Magnitude (a.u.)       :      0.75215
Magnitude (Debye)      :      1.91183

Rotational constants in cm-1:     0.018835     0.008956     0.007173
Rotational constants in MHz :   564.665176   268.494257   215.043184

                             ****ORCA TERMINATED NORMALLY****
TOTAL RUN TIME: 0 days 0 hours 0 minutes 34 seconds 626 msec
