                         Program Version 4.2.1 -  RELEASE  -
|  1> ! wB97X-D3 SP def2-SVP
|  2> %pal
|  3> nprocs 16
|  4> end
|  5>
|  6> * xyz 0 1
|  7> S 	 -99.7213 	 40.6197 	 122.416
|  8> C 	 -100.877 	 41.2623 	 123.611
|  9> C 	 -100.244 	 42.1134 	 124.552
| 10> C 	 -98.8648 	 42.0811 	 124.407
| 11> C 	 -98.4037 	 41.3323 	 123.342
| 12> H 	 -98.2036 	 42.6778 	 125.04
| 13> C 	 -100.876 	 42.7438 	 125.701
| 14> H 	 -101.847 	 43.0883 	 125.462
| 15> H 	 -100.277 	 43.6615 	 125.837
| 16> C 	 -100.715 	 41.9043 	 126.993
| 17> H 	 -99.7036 	 41.6641 	 127.15
| 18> H 	 -101.039 	 42.5271 	 127.855
| 19> C 	 -101.427 	 40.5197 	 127.054
| 20> H 	 -101.184 	 39.8688 	 126.27
| 21> H 	 -101.206 	 40.1185 	 128.084
| 22> H 	 -102.495 	 40.6263 	 127.019
| 23> S 	 -96.0132 	 39.9074 	 123.4
| 24> C 	 -94.5588 	 40.7204 	 122.849
| 25> C 	 -94.847 	 42.0399 	 122.381
| 26> C 	 -96.2383 	 42.2998 	 122.404
| 27> C 	 -97.0221 	 41.2427 	 122.913
| 28> H 	 -94.0442 	 42.7261 	 122.265
| 29> C 	 -96.7221 	 43.6616 	 122.017
| 30> H 	 -97.6167 	 43.9929 	 122.621
| 31> H 	 -97.0804 	 43.5207 	 120.991
| 32> C 	 -95.6404 	 44.8123 	 121.964
| 33> H 	 -96.1326 	 45.6159 	 121.516
| 34> H 	 -94.8816 	 44.5533 	 121.286
| 35> C 	 -95.1756 	 45.2713 	 123.417
| 36> H 	 -94.5094 	 46.1914 	 123.382
| 37> H 	 -94.5703 	 44.4874 	 123.878
| 38> H 	 -96.0166 	 45.5437 	 124.038
| 39> H 	 -101.971 	 41.0225 	 123.537
| 40> H 	 -93.616 	 40.3456 	 123.08
| 41> *
| 42>
| 43>                          ****END OF INPUT****

CARTESIAN COORDINATES (ANGSTROEM)
---------------------------------
  S    -99.721300   40.619700  122.416000
  C    -100.877000   41.262300  123.611000
  C    -100.244000   42.113400  124.552000
  C    -98.864800   42.081100  124.407000
  C    -98.403700   41.332300  123.342000
  H    -98.203600   42.677800  125.040000
  C    -100.876000   42.743800  125.701000
  H    -101.847000   43.088300  125.462000
  H    -100.277000   43.661500  125.837000
  C    -100.715000   41.904300  126.993000
  H    -99.703600   41.664100  127.150000
  H    -101.039000   42.527100  127.855000
  C    -101.427000   40.519700  127.054000
  H    -101.184000   39.868800  126.270000
  H    -101.206000   40.118500  128.084000
  H    -102.495000   40.626300  127.019000
  S    -96.013200   39.907400  123.400000
  C    -94.558800   40.720400  122.849000
  C    -94.847000   42.039900  122.381000
  C    -96.238300   42.299800  122.404000
  C    -97.022100   41.242700  122.913000
  H    -94.044200   42.726100  122.265000
  C    -96.722100   43.661600  122.017000
  H    -97.616700   43.992900  122.621000
  H    -97.080400   43.520700  120.991000
  C    -95.640400   44.812300  121.964000
  H    -96.132600   45.615900  121.516000
  H    -94.881600   44.553300  121.286000
  C    -95.175600   45.271300  123.417000
  H    -94.509400   46.191400  123.382000
  H    -94.570300   44.487400  123.878000
  H    -96.016600   45.543700  124.038000
  H    -101.971000   41.022500  123.537000
  H    -93.616000   40.345600  123.080000

 Total Charge           Charge          ....    0
 Multiplicity           Mult            ....    1
 Number of Electrons    NEL             ....  134
 Basis Dimension        Dim             ....  322

ORBITAL ENERGIES
----------------

  NO   OCC          E(Eh)            E(eV)
   0   2.0000     -88.967030     -2420.9160
   1   2.0000     -88.966914     -2420.9128
   2   2.0000     -10.325898      -280.9820
   3   2.0000     -10.320857      -280.8448
   4   2.0000     -10.320416      -280.8328
   5   2.0000     -10.317913      -280.7647
   6   2.0000     -10.302367      -280.3417
   7   2.0000     -10.296038      -280.1694
   8   2.0000     -10.294450      -280.1262
   9   2.0000     -10.292976      -280.0861
  10   2.0000     -10.290420      -280.0166
  11   2.0000     -10.287607      -279.9400
  12   2.0000     -10.287342      -279.9328
  13   2.0000     -10.286746      -279.9166
  14   2.0000     -10.286497      -279.9098
  15   2.0000     -10.273621      -279.5594
  16   2.0000      -8.081483      -219.9083
  17   2.0000      -8.080855      -219.8912
  18   2.0000      -6.039815      -164.3517
  19   2.0000      -6.039240      -164.3361
  20   2.0000      -6.035909      -164.2454
  21   2.0000      -6.035490      -164.2340
  22   2.0000      -6.032585      -164.1550
  23   2.0000      -6.031802      -164.1337
  24   2.0000      -1.002291       -27.2737
  25   2.0000      -0.980221       -26.6732
  26   2.0000      -0.914520       -24.8854
  27   2.0000      -0.903437       -24.5838
  28   2.0000      -0.861614       -23.4457
  29   2.0000      -0.849330       -23.1115
  30   2.0000      -0.843157       -22.9435
  31   2.0000      -0.809600       -22.0303
  32   2.0000      -0.784182       -21.3387
  33   2.0000      -0.769041       -20.9267
  34   2.0000      -0.712624       -19.3915
  35   2.0000      -0.704473       -19.1697
  36   2.0000      -0.694279       -18.8923
  37   2.0000      -0.657840       -17.9007
  38   2.0000      -0.637885       -17.3577
  39   2.0000      -0.623679       -16.9712
  40   2.0000      -0.598293       -16.2804
  41   2.0000      -0.568093       -15.4586
  42   2.0000      -0.547690       -14.9034
  43   2.0000      -0.545372       -14.8403
  44   2.0000      -0.536673       -14.6036
  45   2.0000      -0.529780       -14.4161
  46   2.0000      -0.528735       -14.3876
  47   2.0000      -0.516737       -14.0611
  48   2.0000      -0.494626       -13.4595
  49   2.0000      -0.491392       -13.3715
  50   2.0000      -0.485994       -13.2246
  51   2.0000      -0.475569       -12.9409
  52   2.0000      -0.469790       -12.7836
  53   2.0000      -0.463258       -12.6059
  54   2.0000      -0.461523       -12.5587
  55   2.0000      -0.449883       -12.2419
  56   2.0000      -0.444239       -12.0884
  57   2.0000      -0.439449       -11.9580
  58   2.0000      -0.435334       -11.8460
  59   2.0000      -0.426936       -11.6175
  60   2.0000      -0.422099       -11.4859
  61   2.0000      -0.419239       -11.4081
  62   2.0000      -0.416863       -11.3434
  63   2.0000      -0.336248        -9.1498
  64   2.0000      -0.330048        -8.9811
  65   2.0000      -0.314544        -8.5592
  66   2.0000      -0.300681        -8.1820
  67   0.0000       0.038293         1.0420
  68   0.0000       0.048757         1.3267
  69   0.0000       0.109335         2.9752
  70   0.0000       0.118994         3.2380
  71   0.0000       0.131008         3.5649

MULLIKEN ATOMIC CHARGES
-----------------------
   0 S :    0.112133
   1 C :   -0.154723
   2 C :   -0.095224
   3 C :    0.037258
   4 C :   -0.186039
   5 H :    0.015499
   6 C :    0.101399
   7 H :    0.012509
   8 H :    0.019056
   9 C :   -0.062067
  10 H :    0.019129
  11 H :    0.034552
  12 C :   -0.049175
  13 H :    0.039890
  14 H :    0.040359
  15 H :    0.016878
  16 S :    0.117468
  17 C :   -0.081501
  18 C :   -0.040140
  19 C :   -0.030638
  20 C :   -0.156983
  21 H :    0.022561
  22 C :    0.037006
  23 H :    0.040005
  24 H :    0.041772
  25 C :   -0.038013
  26 H :    0.013826
  27 H :    0.023556
  28 C :   -0.070680
  29 H :    0.041675
  30 H :    0.038415
  31 H :    0.034780
  32 H :    0.066854
  33 H :    0.038603
Sum of atomic charges:    0.0000000

LOEWDIN ATOMIC CHARGES
----------------------
   0 S :    0.395477
   1 C :   -0.199062
   2 C :   -0.068124
   3 C :   -0.057086
   4 C :   -0.195988
   5 H :    0.034469
   6 C :   -0.032298
   7 H :    0.024033
   8 H :    0.037208
   9 C :   -0.030586
  10 H :    0.018387
  11 H :    0.027975
  12 C :   -0.062086
  13 H :    0.018409
  14 H :    0.035892
  15 H :    0.018114
  16 S :    0.422909
  17 C :   -0.172760
  18 C :   -0.069353
  19 C :   -0.050607
  20 C :   -0.226713
  21 H :    0.027523
  22 C :   -0.034964
  23 H :    0.035741
  24 H :    0.040141
  25 C :   -0.030731
  26 H :    0.019668
  27 H :    0.016276
  28 C :   -0.068322
  29 H :    0.032095
  30 H :    0.023227
  31 H :    0.024249
  32 H :    0.034184
  33 H :    0.012702

  Mayer bond orders larger than 0.100000
B(  0-S ,  1-C ) :   1.1489 B(  0-S ,  4-C ) :   1.1573 B(  1-C ,  2-C ) :   1.5579
B(  1-C ,  4-C ) :   0.1088 B(  1-C , 32-H ) :   0.9653 B(  2-C ,  3-C ) :   1.2691
B(  2-C ,  6-C ) :   1.0463 B(  3-C ,  4-C ) :   1.5625 B(  3-C ,  5-H ) :   0.9921
B(  4-C , 20-C ) :   1.0227 B(  6-C ,  7-H ) :   0.9368 B(  6-C ,  8-H ) :   0.9255
B(  6-C ,  9-C ) :   1.0657 B(  9-C , 10-H ) :   0.9557 B(  9-C , 11-H ) :   0.9565
B(  9-C , 12-C ) :   1.0744 B( 12-C , 13-H ) :   0.9754 B( 12-C , 14-H ) :   0.9735
B( 12-C , 15-H ) :   0.9764 B( 16-S , 17-C ) :   1.1961 B( 16-S , 20-C ) :   1.1542
B( 17-C , 18-C ) :   1.5444 B( 17-C , 20-C ) :   0.1091 B( 17-C , 33-H ) :   0.9739
B( 18-C , 19-C ) :   1.2943 B( 18-C , 21-H ) :   0.9848 B( 19-C , 20-C ) :   1.5484
B( 19-C , 22-C ) :   1.0310 B( 22-C , 23-H ) :   0.9347 B( 22-C , 24-H ) :   0.9214
B( 22-C , 25-C ) :   1.0927 B( 25-C , 26-H ) :   0.9503 B( 25-C , 27-H ) :   0.9474
B( 25-C , 28-C ) :   1.0628 B( 28-C , 29-H ) :   0.9768 B( 28-C , 30-H ) :   0.9786
B( 28-C , 31-H ) :   0.9755

Dispersion correction           -0.015075519
FINAL SINGLE POINT ENERGY     -1339.871753659952

DIPOLE MOMENT
-------------
                                X             Y             Z
Electronic contribution:      3.01629     -17.80746     -12.70354
Nuclear contribution   :     -2.97690      18.47925      13.06581
                        -----------------------------------------
Total Dipole Moment    :      0.03938       0.67179       0.36228
                        -----------------------------------------
Magnitude (a.u.)       :      0.76426
Magnitude (Debye)      :      1.94260

Rotational constants in cm-1:     0.019848     0.008271     0.007319
Rotational constants in MHz :   595.031184   247.957278   219.413407

                             ****ORCA TERMINATED NORMALLY****
TOTAL RUN TIME: 0 days 0 hours 0 minutes 35 seconds 93 msec
