                         Program Version 4.2.1 -  RELEASE  -
|  1> ! wB97X-D3 SP def2-SVP
|  2> %pal
|  3> nprocs 16
|  4> end
|  5>
|  6> * xyz 0 1
|  7> S 	 -53.4126 	 44.3106 	 106.223
|  8> C 	 -52.1913 	 45.4301 	 105.63
|  9> C 	 -51.8177 	 46.3489 	 106.575
| 10> C 	 -52.5486 	 46.1676 	 107.776
| 11> C 	 -53.3256 	 45.0163 	 107.817
| 12> H 	 -52.436 	 46.9056 	 108.582
| 13> C 	 -50.8848 	 47.5841 	 106.297
| 14> H 	 -50.3308 	 47.2557 	 105.424
| 15> H 	 -50.2917 	 47.6922 	 107.188
| 16> C 	 -51.5814 	 48.8914 	 106.095
| 17> H 	 -52.4429 	 48.7289 	 105.509
| 18> H 	 -51.9139 	 49.3332 	 107.032
| 19> C 	 -50.7165 	 49.8843 	 105.39
| 20> H 	 -51.383 	 50.5169 	 104.739
| 21> H 	 -49.9761 	 50.5223 	 105.974
| 22> H 	 -50.1616 	 49.334 	 104.621
| 23> S 	 -55.8447 	 44.5105 	 108.772
| 24> C 	 -56.1411 	 44.3508 	 110.421
| 25> C 	 -54.943 	 44.0178 	 111.075
| 26> C 	 -53.8037 	 44.1848 	 110.26
| 27> C 	 -54.1137 	 44.5499 	 108.961
| 28> H 	 -55.0552 	 43.7766 	 112.1
| 29> C 	 -52.4148 	 44.0502 	 110.904
| 30> H 	 -52.5533 	 43.7618 	 111.913
| 31> H 	 -51.985 	 45.0772 	 110.906
| 32> C 	 -51.4629 	 43.1133 	 110.204
| 33> H 	 -51.4527 	 43.309 	 109.197
| 34> H 	 -51.7887 	 42.0497 	 110.42
| 35> C 	 -50.0089 	 43.2706 	 110.665
| 36> H 	 -49.4636 	 42.4829 	 110.21
| 37> H 	 -49.9577 	 43.2059 	 111.719
| 38> H 	 -49.6128 	 44.257 	 110.334
| 39> H 	 -51.8361 	 45.4174 	 104.632
| 40> H 	 -57.1408 	 44.3015 	 110.776
| 41> *
| 42>
| 43>                          ****END OF INPUT****

CARTESIAN COORDINATES (ANGSTROEM)
---------------------------------
  S    -53.412600   44.310600  106.223000
  C    -52.191300   45.430100  105.630000
  C    -51.817700   46.348900  106.575000
  C    -52.548600   46.167600  107.776000
  C    -53.325600   45.016300  107.817000
  H    -52.436000   46.905600  108.582000
  C    -50.884800   47.584100  106.297000
  H    -50.330800   47.255700  105.424000
  H    -50.291700   47.692200  107.188000
  C    -51.581400   48.891400  106.095000
  H    -52.442900   48.728900  105.509000
  H    -51.913900   49.333200  107.032000
  C    -50.716500   49.884300  105.390000
  H    -51.383000   50.516900  104.739000
  H    -49.976100   50.522300  105.974000
  H    -50.161600   49.334000  104.621000
  S    -55.844700   44.510500  108.772000
  C    -56.141100   44.350800  110.421000
  C    -54.943000   44.017800  111.075000
  C    -53.803700   44.184800  110.260000
  C    -54.113700   44.549900  108.961000
  H    -55.055200   43.776600  112.100000
  C    -52.414800   44.050200  110.904000
  H    -52.553300   43.761800  111.913000
  H    -51.985000   45.077200  110.906000
  C    -51.462900   43.113300  110.204000
  H    -51.452700   43.309000  109.197000
  H    -51.788700   42.049700  110.420000
  C    -50.008900   43.270600  110.665000
  H    -49.463600   42.482900  110.210000
  H    -49.957700   43.205900  111.719000
  H    -49.612800   44.257000  110.334000
  H    -51.836100   45.417400  104.632000
  H    -57.140800   44.301500  110.776000

 Total Charge           Charge          ....    0
 Multiplicity           Mult            ....    1
 Number of Electrons    NEL             ....  134
 Basis Dimension        Dim             ....  322

ORBITAL ENERGIES
----------------

  NO   OCC          E(Eh)            E(eV)
   0   2.0000     -88.967523     -2420.9294
   1   2.0000     -88.960566     -2420.7401
   2   2.0000     -10.331976      -281.1474
   3   2.0000     -10.323276      -280.9106
   4   2.0000     -10.312055      -280.6053
   5   2.0000     -10.311094      -280.5791
   6   2.0000     -10.303027      -280.3596
   7   2.0000     -10.298276      -280.2303
   8   2.0000     -10.294060      -280.1156
   9   2.0000     -10.292625      -280.0766
  10   2.0000     -10.289706      -279.9971
  11   2.0000     -10.286036      -279.8973
  12   2.0000     -10.284669      -279.8601
  13   2.0000     -10.278827      -279.7011
  14   2.0000     -10.273945      -279.5683
  15   2.0000     -10.268821      -279.4288
  16   2.0000      -8.082154      -219.9266
  17   2.0000      -8.077108      -219.7893
  18   2.0000      -6.040701      -164.3758
  19   2.0000      -6.036713      -164.2673
  20   2.0000      -6.035286      -164.2285
  21   2.0000      -6.032853      -164.1623
  22   2.0000      -6.031260      -164.1189
  23   2.0000      -6.028203      -164.0358
  24   2.0000      -1.010593       -27.4996
  25   2.0000      -0.988816       -26.9070
  26   2.0000      -0.920089       -25.0369
  27   2.0000      -0.910854       -24.7856
  28   2.0000      -0.870391       -23.6846
  29   2.0000      -0.854107       -23.2414
  30   2.0000      -0.846826       -23.0433
  31   2.0000      -0.811312       -22.0769
  32   2.0000      -0.782455       -21.2917
  33   2.0000      -0.774247       -21.0683
  34   2.0000      -0.707352       -19.2480
  35   2.0000      -0.697312       -18.9748
  36   2.0000      -0.689044       -18.7498
  37   2.0000      -0.665674       -18.1139
  38   2.0000      -0.639086       -17.3904
  39   2.0000      -0.623060       -16.9543
  40   2.0000      -0.594996       -16.1907
  41   2.0000      -0.582114       -15.8401
  42   2.0000      -0.572683       -15.5835
  43   2.0000      -0.562442       -15.3048
  44   2.0000      -0.527842       -14.3633
  45   2.0000      -0.522350       -14.2139
  46   2.0000      -0.514819       -14.0089
  47   2.0000      -0.510915       -13.9027
  48   2.0000      -0.509617       -13.8674
  49   2.0000      -0.503237       -13.6938
  50   2.0000      -0.493834       -13.4379
  51   2.0000      -0.489006       -13.3065
  52   2.0000      -0.471715       -12.8360
  53   2.0000      -0.466633       -12.6977
  54   2.0000      -0.460697       -12.5362
  55   2.0000      -0.448810       -12.2127
  56   2.0000      -0.436393       -11.8749
  57   2.0000      -0.434002       -11.8098
  58   2.0000      -0.432770       -11.7763
  59   2.0000      -0.422421       -11.4947
  60   2.0000      -0.419354       -11.4112
  61   2.0000      -0.417767       -11.3680
  62   2.0000      -0.413209       -11.2440
  63   2.0000      -0.340160        -9.2562
  64   2.0000      -0.332976        -9.0607
  65   2.0000      -0.329317        -8.9612
  66   2.0000      -0.294318        -8.0088
  67   0.0000       0.034886         0.9493
  68   0.0000       0.061829         1.6824
  69   0.0000       0.114556         3.1172
  70   0.0000       0.126387         3.4392
  71   0.0000       0.135675         3.6919

MULLIKEN ATOMIC CHARGES
-----------------------
   0 S :    0.112282
   1 C :   -0.123299
   2 C :   -0.101397
   3 C :    0.023350
   4 C :   -0.153673
   5 H :    0.016490
   6 C :    0.085526
   7 H :    0.020502
   8 H :    0.023948
   9 C :   -0.029631
  10 H :    0.018324
  11 H :    0.027119
  12 C :   -0.071494
  13 H :    0.033650
  14 H :    0.053940
  15 H :    0.014013
  16 S :    0.112935
  17 C :   -0.096167
  18 C :   -0.050030
  19 C :   -0.010628
  20 C :   -0.169187
  21 H :    0.008411
  22 C :    0.103837
  23 H :    0.001376
  24 H :    0.028461
  25 C :   -0.077366
  26 H :    0.025276
  27 H :    0.033761
  28 C :   -0.022406
  29 H :    0.029143
  30 H :    0.017328
  31 H :    0.030503
  32 H :    0.032702
  33 H :    0.052401
Sum of atomic charges:   -0.0000000

LOEWDIN ATOMIC CHARGES
----------------------
   0 S :    0.403236
   1 C :   -0.190405
   2 C :   -0.065200
   3 C :   -0.065525
   4 C :   -0.198370
   5 H :    0.032286
   6 C :   -0.020293
   7 H :    0.028335
   8 H :    0.029382
   9 C :   -0.044870
  10 H :    0.022349
  11 H :    0.026627
  12 C :   -0.072901
  13 H :    0.033697
  14 H :    0.032910
  15 H :    0.021778
  16 S :    0.441569
  17 C :   -0.195933
  18 C :   -0.075782
  19 C :   -0.050386
  20 C :   -0.211515
  21 H :    0.025903
  22 C :   -0.025722
  23 H :    0.021841
  24 H :    0.035168
  25 C :   -0.034687
  26 H :    0.013584
  27 H :    0.029999
  28 C :   -0.054227
  29 H :    0.023125
  30 H :    0.015440
  31 H :    0.027170
  32 H :    0.019016
  33 H :    0.022403

  Mayer bond orders larger than 0.100000
B(  0-S ,  1-C ) :   1.1352 B(  0-S ,  4-C ) :   1.1521 B(  1-C ,  2-C ) :   1.6159
B(  1-C , 32-H ) :   0.9700 B(  2-C ,  3-C ) :   1.2578 B(  2-C ,  6-C ) :   1.0207
B(  3-C ,  4-C ) :   1.5651 B(  3-C ,  5-H ) :   0.9909 B(  4-C , 20-C ) :   1.0262
B(  6-C ,  7-H ) :   0.9418 B(  6-C ,  8-H ) :   0.9326 B(  6-C ,  9-C ) :   1.0819
B(  9-C , 10-H ) :   0.9528 B(  9-C , 11-H ) :   0.9445 B(  9-C , 12-C ) :   1.0891
B( 12-C , 13-H ) :   0.9740 B( 12-C , 14-H ) :   0.9748 B( 12-C , 15-H ) :   0.9732
B( 16-S , 17-C ) :   1.2109 B( 16-S , 20-C ) :   1.1605 B( 17-C , 18-C ) :   1.5396
B( 17-C , 20-C ) :   0.1109 B( 17-C , 33-H ) :   0.9744 B( 18-C , 19-C ) :   1.2718
B( 18-C , 21-H ) :   1.0042 B( 19-C , 20-C ) :   1.5626 B( 19-C , 22-C ) :   1.0328
B( 22-C , 23-H ) :   0.9277 B( 22-C , 24-H ) :   0.9324 B( 22-C , 25-C ) :   1.0735
B( 25-C , 26-H ) :   0.9579 B( 25-C , 27-H ) :   0.9529 B( 25-C , 28-C ) :   1.0901
B( 28-C , 29-H ) :   0.9737 B( 28-C , 30-H ) :   0.9751 B( 28-C , 31-H ) :   0.9746

Dispersion correction           -0.013909773
FINAL SINGLE POINT ENERGY     -1339.873027339607

DIPOLE MOMENT
-------------
                                X             Y             Z
Electronic contribution:    -23.01559     -12.28415      -3.39993
Nuclear contribution   :     23.31237      12.64169       3.62805
                        -----------------------------------------
Total Dipole Moment    :      0.29679       0.35754       0.22811
                        -----------------------------------------
Magnitude (a.u.)       :      0.51764
Magnitude (Debye)      :      1.31575

Rotational constants in cm-1:     0.018200     0.008109     0.006898
Rotational constants in MHz :   545.621700   243.111194   206.795958

                             ****ORCA TERMINATED NORMALLY****
TOTAL RUN TIME: 0 days 0 hours 0 minutes 29 seconds 658 msec
