                         Program Version 4.2.1 -  RELEASE  -
|  1> ! wB97X-D3 SP def2-SVP
|  2> %pal
|  3> nprocs 16
|  4> end
|  5>
|  6> * xyz 0 1
|  7> S 	 44.9465 	 23.6751 	 85.9682
|  8> C 	 43.9359 	 23.6387 	 87.4143
|  9> C 	 43.1869 	 24.7978 	 87.5392
| 10> C 	 43.266 	 25.5973 	 86.3216
| 11> C 	 44.109 	 25.1411 	 85.3303
| 12> H 	 42.8748 	 26.6405 	 86.193
| 13> C 	 42.355 	 25.1843 	 88.7454
| 14> H 	 41.8221 	 26.1411 	 88.5501
| 15> H 	 43.1538 	 25.446 	 89.5687
| 16> C 	 41.4791 	 24.0609 	 89.2776
| 17> H 	 40.6347 	 23.8078 	 88.5537
| 18> H 	 42.1154 	 23.1502 	 89.2756
| 19> C 	 40.8826 	 24.2696 	 90.7148
| 20> H 	 41.5938 	 24.3398 	 91.4916
| 21> H 	 40.3295 	 25.2497 	 90.6519
| 22> H 	 40.2274 	 23.5532 	 91.1403
| 23> S 	 46.1951 	 26.4993 	 84.102
| 24> C 	 45.8971 	 27.4605 	 82.6761
| 25> C 	 44.5774 	 27.35 	 82.3095
| 26> C 	 43.8433 	 26.6181 	 83.2889
| 27> C 	 44.6225 	 25.9595 	 84.2062
| 28> H 	 44.1652 	 27.8867 	 81.4174
| 29> C 	 42.3767 	 26.456 	 83.0634
| 30> H 	 41.9577 	 25.9739 	 83.9356
| 31> H 	 42.3609 	 25.7245 	 82.2292
| 32> C 	 41.5049 	 27.7838 	 82.8525
| 33> H 	 42.0217 	 28.3298 	 82.0554
| 34> H 	 41.7059 	 28.249 	 83.8468
| 35> C 	 40.0197 	 27.5916 	 82.5084
| 36> H 	 39.4976 	 28.5271 	 82.7011
| 37> H 	 39.662 	 26.7327 	 83.0707
| 38> H 	 39.8645 	 27.1618 	 81.4869
| 39> H 	 44.001 	 22.8614 	 88.2115
| 40> H 	 46.5968 	 27.9424 	 82.0558
| 41> *
| 42>
| 43>                          ****END OF INPUT****

CARTESIAN COORDINATES (ANGSTROEM)
---------------------------------
  S     44.946500   23.675100   85.968200
  C     43.935900   23.638700   87.414300
  C     43.186900   24.797800   87.539200
  C     43.266000   25.597300   86.321600
  C     44.109000   25.141100   85.330300
  H     42.874800   26.640500   86.193000
  C     42.355000   25.184300   88.745400
  H     41.822100   26.141100   88.550100
  H     43.153800   25.446000   89.568700
  C     41.479100   24.060900   89.277600
  H     40.634700   23.807800   88.553700
  H     42.115400   23.150200   89.275600
  C     40.882600   24.269600   90.714800
  H     41.593800   24.339800   91.491600
  H     40.329500   25.249700   90.651900
  H     40.227400   23.553200   91.140300
  S     46.195100   26.499300   84.102000
  C     45.897100   27.460500   82.676100
  C     44.577400   27.350000   82.309500
  C     43.843300   26.618100   83.288900
  C     44.622500   25.959500   84.206200
  H     44.165200   27.886700   81.417400
  C     42.376700   26.456000   83.063400
  H     41.957700   25.973900   83.935600
  H     42.360900   25.724500   82.229200
  C     41.504900   27.783800   82.852500
  H     42.021700   28.329800   82.055400
  H     41.705900   28.249000   83.846800
  C     40.019700   27.591600   82.508400
  H     39.497600   28.527100   82.701100
  H     39.662000   26.732700   83.070700
  H     39.864500   27.161800   81.486900
  H     44.001000   22.861400   88.211500
  H     46.596800   27.942400   82.055800

 Total Charge           Charge          ....    0
 Multiplicity           Mult            ....    1
 Number of Electrons    NEL             ....  134
 Basis Dimension        Dim             ....  322

ORBITAL ENERGIES
----------------

  NO   OCC          E(Eh)            E(eV)
   0   2.0000     -88.967582     -2420.9310
   1   2.0000     -88.965559     -2420.8759
   2   2.0000     -10.336265      -281.2641
   3   2.0000     -10.322965      -280.9022
   4   2.0000     -10.321279      -280.8563
   5   2.0000     -10.311991      -280.6035
   6   2.0000     -10.308960      -280.5211
   7   2.0000     -10.307335      -280.4769
   8   2.0000     -10.303079      -280.3610
   9   2.0000     -10.300867      -280.3008
  10   2.0000     -10.294728      -280.1338
  11   2.0000     -10.294297      -280.1221
  12   2.0000     -10.293786      -280.1082
  13   2.0000     -10.285939      -279.8946
  14   2.0000     -10.284087      -279.8442
  15   2.0000     -10.280686      -279.7517
  16   2.0000      -8.081799      -219.9169
  17   2.0000      -8.081132      -219.8988
  18   2.0000      -6.040240      -164.3633
  19   2.0000      -6.039806      -164.3515
  20   2.0000      -6.036043      -164.2491
  21   2.0000      -6.035858      -164.2441
  22   2.0000      -6.032556      -164.1542
  23   2.0000      -6.031714      -164.1313
  24   2.0000      -1.014634       -27.6096
  25   2.0000      -0.983851       -26.7719
  26   2.0000      -0.909298       -24.7433
  27   2.0000      -0.902989       -24.5716
  28   2.0000      -0.870428       -23.6856
  29   2.0000      -0.851929       -23.1822
  30   2.0000      -0.843189       -22.9443
  31   2.0000      -0.818482       -22.2720
  32   2.0000      -0.780197       -21.2302
  33   2.0000      -0.769190       -20.9307
  34   2.0000      -0.708826       -19.2881
  35   2.0000      -0.699870       -19.0444
  36   2.0000      -0.695661       -18.9299
  37   2.0000      -0.657901       -17.9024
  38   2.0000      -0.636541       -17.3212
  39   2.0000      -0.611934       -16.6516
  40   2.0000      -0.592218       -16.1151
  41   2.0000      -0.576564       -15.6891
  42   2.0000      -0.558631       -15.2011
  43   2.0000      -0.554874       -15.0989
  44   2.0000      -0.532502       -14.4901
  45   2.0000      -0.523616       -14.2483
  46   2.0000      -0.518164       -14.1000
  47   2.0000      -0.515149       -14.0179
  48   2.0000      -0.508302       -13.8316
  49   2.0000      -0.502784       -13.6815
  50   2.0000      -0.494721       -13.4620
  51   2.0000      -0.479969       -13.0606
  52   2.0000      -0.469628       -12.7792
  53   2.0000      -0.460010       -12.5175
  54   2.0000      -0.457117       -12.4388
  55   2.0000      -0.450496       -12.2586
  56   2.0000      -0.445931       -12.1344
  57   2.0000      -0.432876       -11.7792
  58   2.0000      -0.425230       -11.5711
  59   2.0000      -0.422841       -11.5061
  60   2.0000      -0.419701       -11.4207
  61   2.0000      -0.418469       -11.3871
  62   2.0000      -0.411728       -11.2037
  63   2.0000      -0.353176        -9.6104
  64   2.0000      -0.328564        -8.9407
  65   2.0000      -0.324636        -8.8338
  66   2.0000      -0.295987        -8.0542
  67   0.0000       0.031091         0.8460
  68   0.0000       0.068272         1.8578
  69   0.0000       0.111248         3.0272
  70   0.0000       0.118584         3.2268
  71   0.0000       0.131422         3.5762

MULLIKEN ATOMIC CHARGES
-----------------------
   0 S :    0.095350
   1 C :   -0.141028
   2 C :   -0.090213
   3 C :    0.017000
   4 C :   -0.165515
   5 H :    0.039351
   6 C :    0.044674
   7 H :    0.031453
   8 H :    0.055786
   9 C :   -0.106156
  10 H :    0.049586
  11 H :    0.026645
  12 C :   -0.034957
  13 H :    0.018170
  14 H :    0.034785
  15 H :    0.029165
  16 S :    0.119823
  17 C :   -0.076451
  18 C :   -0.043664
  19 C :   -0.094316
  20 C :   -0.099935
  21 H :    0.043401
  22 C :    0.027703
  23 H :    0.013951
  24 H :    0.043899
  25 C :   -0.106606
  26 H :    0.029065
  27 H :    0.038093
  28 C :   -0.020579
  29 H :    0.054706
  30 H :    0.022610
  31 H :    0.033522
  32 H :    0.072660
  33 H :    0.038021
Sum of atomic charges:   -0.0000000

LOEWDIN ATOMIC CHARGES
----------------------
   0 S :    0.377232
   1 C :   -0.195101
   2 C :   -0.067271
   3 C :   -0.063735
   4 C :   -0.177537
   5 H :    0.039372
   6 C :   -0.040888
   7 H :    0.030874
   8 H :    0.048008
   9 C :   -0.046765
  10 H :    0.034965
  11 H :    0.022060
  12 C :   -0.068920
  13 H :    0.018275
  14 H :    0.032450
  15 H :    0.023745
  16 S :    0.445930
  17 C :   -0.183955
  18 C :   -0.070840
  19 C :   -0.069028
  20 C :   -0.232997
  21 H :    0.040918
  22 C :   -0.041181
  23 H :    0.020554
  24 H :    0.035204
  25 C :   -0.040396
  26 H :    0.017527
  27 H :    0.029537
  28 C :   -0.069780
  29 H :    0.032347
  30 H :    0.026397
  31 H :    0.033758
  32 H :    0.037079
  33 H :    0.022162

  Mayer bond orders larger than 0.100000
B(  0-S ,  1-C ) :   1.1370 B(  0-S ,  4-C ) :   1.1280 B(  1-C ,  2-C ) :   1.6169
B(  1-C , 32-H ) :   0.9584 B(  2-C ,  3-C ) :   1.2439 B(  2-C ,  6-C ) :   1.0165
B(  3-C ,  4-C ) :   1.5988 B(  3-C ,  5-H ) :   0.9725 B(  4-C , 20-C ) :   1.0144
B(  6-C ,  7-H ) :   0.9445 B(  6-C ,  8-H ) :   0.9350 B(  6-C ,  9-C ) :   1.0530
B(  9-C , 10-H ) :   0.9561 B(  9-C , 11-H ) :   0.9568 B(  9-C , 12-C ) :   1.0688
B( 12-C , 13-H ) :   0.9754 B( 12-C , 14-H ) :   0.9763 B( 12-C , 15-H ) :   0.9765
B( 16-S , 17-C ) :   1.1632 B( 16-S , 20-C ) :   1.1541 B( 17-C , 18-C ) :   1.6023
B( 17-C , 33-H ) :   0.9719 B( 18-C , 19-C ) :   1.2526 B( 18-C , 21-H ) :   0.9807
B( 19-C , 20-C ) :   1.5763 B( 19-C , 22-C ) :   1.0541 B( 22-C , 23-H ) :   0.9302
B( 22-C , 24-H ) :   0.9390 B( 22-C , 25-C ) :   1.0376 B( 25-C , 26-H ) :   0.9602
B( 25-C , 27-H ) :   0.9582 B( 25-C , 28-C ) :   1.0789 B( 28-C , 29-H ) :   0.9739
B( 28-C , 30-H ) :   0.9722 B( 28-C , 31-H ) :   0.9703

Dispersion correction           -0.013497416
FINAL SINGLE POINT ENERGY     -1339.862247954131

DIPOLE MOMENT
-------------
                                X             Y             Z
Electronic contribution:     27.65885      -5.12492      -8.88960
Nuclear contribution   :    -28.17179       5.42813       9.10904
                        -----------------------------------------
Total Dipole Moment    :     -0.51294       0.30321       0.21944
                        -----------------------------------------
Magnitude (a.u.)       :      0.63498
Magnitude (Debye)      :      1.61398

Rotational constants in cm-1:     0.018000     0.007813     0.005898
Rotational constants in MHz :   539.630026   234.225601   176.831138

                             ****ORCA TERMINATED NORMALLY****
TOTAL RUN TIME: 0 days 0 hours 0 minutes 28 seconds 685 msec
