                         Program Version 4.2.1 -  RELEASE  -
|  1> ! wB97X-D3 SP def2-SVP
|  2> %pal
|  3> nprocs 16
|  4> end
|  5>
|  6> * xyz 0 1
|  7> S 	 -31.3395 	 30.2377 	 43.7979
|  8> C 	 -30.4081 	 30.1489 	 45.2867
|  9> C 	 -31.1452 	 30.5745 	 46.3841
| 10> C 	 -32.4276 	 31.0429 	 45.9551
| 11> C 	 -32.7776 	 30.7988 	 44.6737
| 12> H 	 -33.1836 	 31.4173 	 46.5709
| 13> C 	 -30.6327 	 30.5995 	 47.8319
| 14> H 	 -30.6131 	 29.5495 	 48.2357
| 15> H 	 -31.4271 	 31.0942 	 48.4687
| 16> C 	 -29.3484 	 31.4002 	 48.1414
| 17> H 	 -29.5357 	 32.5192 	 48.0415
| 18> H 	 -29.1445 	 31.0626 	 49.1112
| 19> C 	 -28.0949 	 30.9821 	 47.3438
| 20> H 	 -28.0498 	 31.4622 	 46.3201
| 21> H 	 -27.2894 	 31.3895 	 47.884
| 22> H 	 -27.9747 	 29.9197 	 47.1321
| 23> S 	 -34.1906 	 32.0313 	 42.5899
| 24> C 	 -35.935 	 31.894 	 42.4603
| 25> C 	 -36.4316 	 31.1227 	 43.4882
| 26> C 	 -35.343 	 30.6135 	 44.3605
| 27> C 	 -34.0562 	 30.9784 	 43.9713
| 28> H 	 -37.4716 	 30.9379 	 43.6664
| 29> C 	 -35.7707 	 29.7587 	 45.5351
| 30> H 	 -36.3977 	 30.33 	 46.2196
| 31> H 	 -34.8604 	 29.6582 	 46.1432
| 32> C 	 -36.1638 	 28.2974 	 45.0715
| 33> H 	 -35.2254 	 27.7373 	 44.9422
| 34> H 	 -36.6639 	 28.492 	 44.1259
| 35> C 	 -37.2581 	 27.7012 	 45.9088
| 36> H 	 -38.2178 	 28.2132 	 45.799
| 37> H 	 -36.9832 	 27.753 	 46.9526
| 38> H 	 -37.4057 	 26.5937 	 45.597
| 39> H 	 -29.4525 	 29.6976 	 45.3976
| 40> H 	 -36.5125 	 32.156 	 41.5847
| 41> *
| 42>
| 43>                          ****END OF INPUT****

CARTESIAN COORDINATES (ANGSTROEM)
---------------------------------
  S    -31.339500   30.237700   43.797900
  C    -30.408100   30.148900   45.286700
  C    -31.145200   30.574500   46.384100
  C    -32.427600   31.042900   45.955100
  C    -32.777600   30.798800   44.673700
  H    -33.183600   31.417300   46.570900
  C    -30.632700   30.599500   47.831900
  H    -30.613100   29.549500   48.235700
  H    -31.427100   31.094200   48.468700
  C    -29.348400   31.400200   48.141400
  H    -29.535700   32.519200   48.041500
  H    -29.144500   31.062600   49.111200
  C    -28.094900   30.982100   47.343800
  H    -28.049800   31.462200   46.320100
  H    -27.289400   31.389500   47.884000
  H    -27.974700   29.919700   47.132100
  S    -34.190600   32.031300   42.589900
  C    -35.935000   31.894000   42.460300
  C    -36.431600   31.122700   43.488200
  C    -35.343000   30.613500   44.360500
  C    -34.056200   30.978400   43.971300
  H    -37.471600   30.937900   43.666400
  C    -35.770700   29.758700   45.535100
  H    -36.397700   30.330000   46.219600
  H    -34.860400   29.658200   46.143200
  C    -36.163800   28.297400   45.071500
  H    -35.225400   27.737300   44.942200
  H    -36.663900   28.492000   44.125900
  C    -37.258100   27.701200   45.908800
  H    -38.217800   28.213200   45.799000
  H    -36.983200   27.753000   46.952600
  H    -37.405700   26.593700   45.597000
  H    -29.452500   29.697600   45.397600
  H    -36.512500   32.156000   41.584700

 Total Charge           Charge          ....    0
 Multiplicity           Mult            ....    1
 Number of Electrons    NEL             ....  134
 Basis Dimension        Dim             ....  322

ORBITAL ENERGIES
----------------

  NO   OCC          E(Eh)            E(eV)
   0   2.0000     -88.963511     -2420.8202
   1   2.0000     -88.961980     -2420.7785
   2   2.0000     -10.329899      -281.0908
   3   2.0000     -10.329736      -281.0864
   4   2.0000     -10.319749      -280.8147
   5   2.0000     -10.313648      -280.6486
   6   2.0000     -10.306271      -280.4479
   7   2.0000     -10.303254      -280.3658
   8   2.0000     -10.303163      -280.3633
   9   2.0000     -10.296915      -280.1933
  10   2.0000     -10.292859      -280.0829
  11   2.0000     -10.289291      -279.9858
  12   2.0000     -10.288539      -279.9654
  13   2.0000     -10.286672      -279.9146
  14   2.0000     -10.282129      -279.7910
  15   2.0000     -10.279346      -279.7152
  16   2.0000      -8.077953      -219.8123
  17   2.0000      -8.076947      -219.7849
  18   2.0000      -6.036516      -164.2619
  19   2.0000      -6.035661      -164.2387
  20   2.0000      -6.032513      -164.1530
  21   2.0000      -6.031284      -164.1196
  22   2.0000      -6.028650      -164.0479
  23   2.0000      -6.027597      -164.0192
  24   2.0000      -1.003859       -27.3164
  25   2.0000      -0.981712       -26.7137
  26   2.0000      -0.908871       -24.7316
  27   2.0000      -0.905470       -24.6391
  28   2.0000      -0.869106       -23.6496
  29   2.0000      -0.849599       -23.1188
  30   2.0000      -0.843098       -22.9419
  31   2.0000      -0.817919       -22.2567
  32   2.0000      -0.785344       -21.3703
  33   2.0000      -0.768505       -20.9121
  34   2.0000      -0.704024       -19.1575
  35   2.0000      -0.694968       -18.9111
  36   2.0000      -0.693264       -18.8647
  37   2.0000      -0.661526       -18.0010
  38   2.0000      -0.646217       -17.5845
  39   2.0000      -0.616880       -16.7862
  40   2.0000      -0.593776       -16.1575
  41   2.0000      -0.574359       -15.6291
  42   2.0000      -0.558384       -15.1944
  43   2.0000      -0.551234       -14.9998
  44   2.0000      -0.540202       -14.6997
  45   2.0000      -0.525947       -14.3117
  46   2.0000      -0.520831       -14.1725
  47   2.0000      -0.517883       -14.0923
  48   2.0000      -0.506762       -13.7897
  49   2.0000      -0.504875       -13.7384
  50   2.0000      -0.488076       -13.2812
  51   2.0000      -0.482250       -13.1227
  52   2.0000      -0.468357       -12.7447
  53   2.0000      -0.461651       -12.5621
  54   2.0000      -0.459736       -12.5100
  55   2.0000      -0.444264       -12.0890
  56   2.0000      -0.441384       -12.0107
  57   2.0000      -0.437793       -11.9130
  58   2.0000      -0.432489       -11.7686
  59   2.0000      -0.418262       -11.3815
  60   2.0000      -0.415261       -11.2998
  61   2.0000      -0.410103       -11.1595
  62   2.0000      -0.406555       -11.0629
  63   2.0000      -0.347849        -9.4654
  64   2.0000      -0.330623        -8.9967
  65   2.0000      -0.323393        -8.8000
  66   2.0000      -0.298619        -8.1258
  67   0.0000       0.032221         0.8768
  68   0.0000       0.068849         1.8735
  69   0.0000       0.113287         3.0827
  70   0.0000       0.117253         3.1906
  71   0.0000       0.134479         3.6593

MULLIKEN ATOMIC CHARGES
-----------------------
   0 S :    0.103393
   1 C :   -0.100388
   2 C :   -0.094980
   3 C :    0.072322
   4 C :   -0.178197
   5 H :   -0.013100
   6 C :    0.002802
   7 H :    0.051578
   8 H :    0.029320
   9 C :   -0.044930
  10 H :    0.057670
  11 H :    0.022353
  12 C :   -0.076973
  13 H :    0.044027
  14 H :    0.028868
  15 H :    0.035237
  16 S :    0.094334
  17 C :   -0.086284
  18 C :   -0.017923
  19 C :   -0.106003
  20 C :   -0.105173
  21 H :    0.019958
  22 C :    0.039414
  23 H :    0.034484
  24 H :    0.011387
  25 C :   -0.051247
  26 H :    0.051880
  27 H :    0.027776
  28 C :   -0.067110
  29 H :    0.036396
  30 H :    0.029367
  31 H :    0.047154
  32 H :    0.035158
  33 H :    0.067432
Sum of atomic charges:   -0.0000000

LOEWDIN ATOMIC CHARGES
----------------------
   0 S :    0.388991
   1 C :   -0.182798
   2 C :   -0.066879
   3 C :   -0.055108
   4 C :   -0.182651
   5 H :    0.021683
   6 C :   -0.042566
   7 H :    0.038268
   8 H :    0.036132
   9 C :   -0.035914
  10 H :    0.039713
  11 H :    0.020499
  12 C :   -0.072437
  13 H :    0.031804
  14 H :    0.021427
  15 H :    0.022286
  16 S :    0.401412
  17 C :   -0.181764
  18 C :   -0.067978
  19 C :   -0.052222
  20 C :   -0.210939
  21 H :    0.028512
  22 C :   -0.045306
  23 H :    0.030379
  24 H :    0.028022
  25 C :   -0.036479
  26 H :    0.033916
  27 H :    0.023388
  28 C :   -0.070140
  29 H :    0.025907
  30 H :    0.018893
  31 H :    0.036941
  32 H :    0.021496
  33 H :    0.033512

  Mayer bond orders larger than 0.100000
B(  0-S ,  1-C ) :   1.1411 B(  0-S ,  4-C ) :   1.1318 B(  1-C ,  2-C ) :   1.6248
B(  1-C , 32-H ) :   0.9651 B(  2-C ,  3-C ) :   1.2304 B(  2-C ,  6-C ) :   1.0067
B(  3-C ,  4-C ) :   1.6190 B(  3-C ,  5-H ) :   0.9956 B(  4-C , 20-C ) :   1.0104
B(  6-C ,  7-H ) :   0.9417 B(  6-C ,  8-H ) :   0.9442 B(  6-C ,  9-C ) :   1.0777
B(  9-C , 10-H ) :   0.9542 B(  9-C , 11-H ) :   0.9518 B(  9-C , 12-C ) :   1.0816
B( 12-C , 13-H ) :   0.9695 B( 12-C , 14-H ) :   0.9715 B( 12-C , 15-H ) :   0.9735
B( 16-S , 17-C ) :   1.1535 B( 16-S , 20-C ) :   1.1275 B( 17-C , 18-C ) :   1.6118
B( 17-C , 33-H ) :   0.9654 B( 18-C , 19-C ) :   1.2248 B( 18-C , 21-H ) :   0.9905
B( 19-C , 20-C ) :   1.6125 B( 19-C , 22-C ) :   1.0557 B( 22-C , 23-H ) :   0.9445
B( 22-C , 24-H ) :   0.9243 B( 22-C , 25-C ) :   1.0290 B( 25-C , 26-H ) :   0.9559
B( 25-C , 27-H ) :   0.9701 B( 25-C , 28-C ) :   1.0721 B( 28-C , 29-H ) :   0.9782
B( 28-C , 30-H ) :   0.9751 B( 28-C , 31-H ) :   0.9707

Dispersion correction           -0.013970815
FINAL SINGLE POINT ENERGY     -1339.866469433553

DIPOLE MOMENT
-------------
                                X             Y             Z
Electronic contribution:     -0.12203       9.55462     -21.31274
Nuclear contribution   :     -0.06096      -9.74194      22.02831
                        -----------------------------------------
Total Dipole Moment    :     -0.18299      -0.18731       0.71558
                        -----------------------------------------
Magnitude (a.u.)       :      0.76199
Magnitude (Debye)      :      1.93682

Rotational constants in cm-1:     0.020900     0.007494     0.006153
Rotational constants in MHz :   626.552153   224.676482   184.466539

                             ****ORCA TERMINATED NORMALLY****
TOTAL RUN TIME: 0 days 0 hours 0 minutes 32 seconds 266 msec
