                         Program Version 4.2.1 -  RELEASE  -
|  1> ! wB97X-D3 SP def2-SVP
|  2> %pal
|  3> nprocs 16
|  4> end
|  5>
|  6> * xyz 0 1
|  7> S 	 -1.73803 	 -10.9599 	 84.952
|  8> C 	 -1.29826 	 -10.9209 	 86.6494
|  9> C 	 -2.15018 	 -11.6728 	 87.4543
| 10> C 	 -3.08933 	 -12.4411 	 86.666
| 11> C 	 -2.99695 	 -12.1245 	 85.3177
| 12> H 	 -3.85497 	 -13.1413 	 87.0359
| 13> C 	 -2.16335 	 -11.7076 	 88.9421
| 14> H 	 -1.1994 	 -11.3334 	 89.2487
| 15> H 	 -2.3898 	 -12.6997 	 89.3873
| 16> C 	 -3.16329 	 -10.8135 	 89.6408
| 17> H 	 -3.10528 	 -9.75292 	 89.3144
| 18> H 	 -4.11441 	 -11.1054 	 89.2687
| 19> C 	 -3.16818 	 -10.8219 	 91.1699
| 20> H 	 -3.92451 	 -10.0477 	 91.4549
| 21> H 	 -3.50335 	 -11.7973 	 91.6104
| 22> H 	 -2.17371 	 -10.5895 	 91.4917
| 23> S 	 -4.56684 	 -11.0488 	 83.4433
| 24> C 	 -5.90337 	 -11.9852 	 82.8289
| 25> C 	 -5.97447 	 -13.2588 	 83.3686
| 26> C 	 -4.89604 	 -13.5199 	 84.2964
| 27> C 	 -4.03149 	 -12.4641 	 84.355
| 28> H 	 -6.69395 	 -13.9639 	 83.0383
| 29> C 	 -4.83316 	 -14.8395 	 85.0752
| 30> H 	 -5.81827 	 -15.2659 	 84.8925
| 31> H 	 -4.79129 	 -14.7602 	 86.1883
| 32> C 	 -3.76075 	 -15.7941 	 84.4853
| 33> H 	 -2.73916 	 -15.3637 	 84.4899
| 34> H 	 -4.0289 	 -16.0747 	 83.4501
| 35> C 	 -3.69077 	 -17.1012 	 85.2335
| 36> H 	 -4.66189 	 -17.697 	 85.1834
| 37> H 	 -3.46704 	 -16.9082 	 86.2858
| 38> H 	 -2.82908 	 -17.6235 	 84.9427
| 39> H 	 -0.606696 	 -10.1474 	 86.9837
| 40> H 	 -6.47211 	 -11.6949 	 81.9762
| 41> *
| 42>
| 43>                          ****END OF INPUT****

CARTESIAN COORDINATES (ANGSTROEM)
---------------------------------
  S     -1.738030  -10.959900   84.952000
  C     -1.298260  -10.920900   86.649400
  C     -2.150180  -11.672800   87.454300
  C     -3.089330  -12.441100   86.666000
  C     -2.996950  -12.124500   85.317700
  H     -3.854970  -13.141300   87.035900
  C     -2.163350  -11.707600   88.942100
  H     -1.199400  -11.333400   89.248700
  H     -2.389800  -12.699700   89.387300
  C     -3.163290  -10.813500   89.640800
  H     -3.105280   -9.752920   89.314400
  H     -4.114410  -11.105400   89.268700
  C     -3.168180  -10.821900   91.169900
  H     -3.924510  -10.047700   91.454900
  H     -3.503350  -11.797300   91.610400
  H     -2.173710  -10.589500   91.491700
  S     -4.566840  -11.048800   83.443300
  C     -5.903370  -11.985200   82.828900
  C     -5.974470  -13.258800   83.368600
  C     -4.896040  -13.519900   84.296400
  C     -4.031490  -12.464100   84.355000
  H     -6.693950  -13.963900   83.038300
  C     -4.833160  -14.839500   85.075200
  H     -5.818270  -15.265900   84.892500
  H     -4.791290  -14.760200   86.188300
  C     -3.760750  -15.794100   84.485300
  H     -2.739160  -15.363700   84.489900
  H     -4.028900  -16.074700   83.450100
  C     -3.690770  -17.101200   85.233500
  H     -4.661890  -17.697000   85.183400
  H     -3.467040  -16.908200   86.285800
  H     -2.829080  -17.623500   84.942700
  H     -0.606696  -10.147400   86.983700
  H     -6.472110  -11.694900   81.976200

 Total Charge           Charge          ....    0
 Multiplicity           Mult            ....    1
 Number of Electrons    NEL             ....  134
 Basis Dimension        Dim             ....  322

ORBITAL ENERGIES
----------------

  NO   OCC          E(Eh)            E(eV)
   0   2.0000     -88.968986     -2420.9692
   1   2.0000     -88.964083     -2420.8358
   2   2.0000     -10.328429      -281.0508
   3   2.0000     -10.322799      -280.8976
   4   2.0000     -10.315801      -280.7072
   5   2.0000     -10.312333      -280.6128
   6   2.0000     -10.305512      -280.4272
   7   2.0000     -10.302424      -280.3432
   8   2.0000     -10.299697      -280.2690
   9   2.0000     -10.296794      -280.1900
  10   2.0000     -10.293397      -280.0976
  11   2.0000     -10.289635      -279.9952
  12   2.0000     -10.287838      -279.9463
  13   2.0000     -10.284253      -279.8487
  14   2.0000     -10.280332      -279.7421
  15   2.0000     -10.274769      -279.5907
  16   2.0000      -8.083636      -219.9669
  17   2.0000      -8.078949      -219.8394
  18   2.0000      -6.042081      -164.4134
  19   2.0000      -6.038293      -164.3103
  20   2.0000      -6.037469      -164.2879
  21   2.0000      -6.034341      -164.2028
  22   2.0000      -6.033562      -164.1816
  23   2.0000      -6.029554      -164.0725
  24   2.0000      -1.007314       -27.4104
  25   2.0000      -0.980892       -26.6914
  26   2.0000      -0.916835       -24.9484
  27   2.0000      -0.908640       -24.7254
  28   2.0000      -0.869061       -23.6483
  29   2.0000      -0.856959       -23.3190
  30   2.0000      -0.847774       -23.0691
  31   2.0000      -0.811610       -22.0850
  32   2.0000      -0.782685       -21.2979
  33   2.0000      -0.771636       -20.9973
  34   2.0000      -0.701872       -19.0989
  35   2.0000      -0.695254       -18.9188
  36   2.0000      -0.688115       -18.7246
  37   2.0000      -0.669684       -18.2230
  38   2.0000      -0.640498       -17.4289
  39   2.0000      -0.620714       -16.8905
  40   2.0000      -0.596197       -16.2233
  41   2.0000      -0.575554       -15.6616
  42   2.0000      -0.566333       -15.4107
  43   2.0000      -0.555898       -15.1267
  44   2.0000      -0.531145       -14.4532
  45   2.0000      -0.522131       -14.2079
  46   2.0000      -0.515817       -14.0361
  47   2.0000      -0.510364       -13.8877
  48   2.0000      -0.503298       -13.6954
  49   2.0000      -0.498288       -13.5591
  50   2.0000      -0.494060       -13.4441
  51   2.0000      -0.487094       -13.2545
  52   2.0000      -0.469582       -12.7780
  53   2.0000      -0.460349       -12.5267
  54   2.0000      -0.457394       -12.4463
  55   2.0000      -0.451460       -12.2848
  56   2.0000      -0.444828       -12.1044
  57   2.0000      -0.436028       -11.8649
  58   2.0000      -0.428341       -11.6558
  59   2.0000      -0.426305       -11.6004
  60   2.0000      -0.425095       -11.5674
  61   2.0000      -0.417538       -11.3618
  62   2.0000      -0.414135       -11.2692
  63   2.0000      -0.351854        -9.5744
  64   2.0000      -0.332926        -9.0594
  65   2.0000      -0.328898        -8.9498
  66   2.0000      -0.285877        -7.7791
  67   0.0000       0.024968         0.6794
  68   0.0000       0.072744         1.9795
  69   0.0000       0.101983         2.7751
  70   0.0000       0.113514         3.0889
  71   0.0000       0.134580         3.6621

MULLIKEN ATOMIC CHARGES
-----------------------
   0 S :    0.102018
   1 C :   -0.124987
   2 C :   -0.073361
   3 C :    0.008688
   4 C :   -0.131529
   5 H :    0.015818
   6 C :    0.083769
   7 H :    0.006730
   8 H :    0.026803
   9 C :   -0.092364
  10 H :    0.023247
  11 H :    0.005192
  12 C :   -0.037738
  13 H :    0.047584
  14 H :    0.035884
  15 H :    0.028945
  16 S :    0.091076
  17 C :   -0.077997
  18 C :   -0.025252
  19 C :   -0.056886
  20 C :   -0.112723
  21 H :    0.008254
  22 C :    0.052026
  23 H :    0.008865
  24 H :    0.037403
  25 C :   -0.086020
  26 H :    0.047119
  27 H :    0.032534
  28 C :   -0.029547
  29 H :    0.042236
  30 H :    0.015584
  31 H :    0.023132
  32 H :    0.056184
  33 H :    0.049313
Sum of atomic charges:   -0.0000000

LOEWDIN ATOMIC CHARGES
----------------------
   0 S :    0.398429
   1 C :   -0.200637
   2 C :   -0.054000
   3 C :   -0.060332
   4 C :   -0.191650
   5 H :    0.034498
   6 C :   -0.035752
   7 H :    0.025982
   8 H :    0.035207
   9 C :   -0.045927
  10 H :    0.024857
  11 H :    0.013523
  12 C :   -0.062316
  13 H :    0.037324
  14 H :    0.026956
  15 H :    0.019896
  16 S :    0.396691
  17 C :   -0.183655
  18 C :   -0.062674
  19 C :   -0.059119
  20 C :   -0.184408
  21 H :    0.025885
  22 C :   -0.031365
  23 H :    0.029277
  24 H :    0.029323
  25 C :   -0.039758
  26 H :    0.031373
  27 H :    0.028126
  28 C :   -0.069923
  29 H :    0.031630
  30 H :    0.021739
  31 H :    0.020562
  32 H :    0.027719
  33 H :    0.022518

  Mayer bond orders larger than 0.100000
B(  0-S ,  1-C ) :   1.1245 B(  0-S ,  4-C ) :   1.1514 B(  1-C ,  2-C ) :   1.6196
B(  1-C , 32-H ) :   0.9639 B(  2-C ,  3-C ) :   1.2284 B(  2-C ,  6-C ) :   1.0476
B(  3-C ,  4-C ) :   1.5731 B(  3-C ,  5-H ) :   0.9840 B(  4-C , 20-C ) :   1.0418
B(  6-C ,  7-H ) :   0.9296 B(  6-C ,  8-H ) :   0.9380 B(  6-C ,  9-C ) :   1.0653
B(  9-C , 10-H ) :   0.9520 B(  9-C , 11-H ) :   0.9512 B(  9-C , 12-C ) :   1.0846
B( 12-C , 13-H ) :   0.9731 B( 12-C , 14-H ) :   0.9731 B( 12-C , 15-H ) :   0.9752
B( 16-S , 17-C ) :   1.1448 B( 16-S , 20-C ) :   1.1309 B( 17-C , 18-C ) :   1.6296
B( 17-C , 33-H ) :   0.9659 B( 18-C , 19-C ) :   1.2299 B( 18-C , 21-H ) :   0.9910
B( 19-C , 20-C ) :   1.6335 B( 19-C , 22-C ) :   1.0292 B( 22-C , 23-H ) :   0.9272
B( 22-C , 24-H ) :   0.9411 B( 22-C , 25-C ) :   1.0617 B( 25-C , 26-H ) :   0.9584
B( 25-C , 27-H ) :   0.9524 B( 25-C , 28-C ) :   1.0952 B( 28-C , 29-H ) :   0.9728
B( 28-C , 30-H ) :   0.9686 B( 28-C , 31-H ) :   0.9697

Dispersion correction           -0.013739482
FINAL SINGLE POINT ENERGY     -1339.881685021851

DIPOLE MOMENT
-------------
                                X             Y             Z
Electronic contribution:      2.45925      15.64985     -22.13138
Nuclear contribution   :     -2.74360     -15.95485      22.55307
                        -----------------------------------------
Total Dipole Moment    :     -0.28435      -0.30500       0.42169
                        -----------------------------------------
Magnitude (a.u.)       :      0.59304
Magnitude (Debye)      :      1.50740

Rotational constants in cm-1:     0.016591     0.008599     0.007030
Rotational constants in MHz :   497.397209   257.790845   210.754317

                             ****ORCA TERMINATED NORMALLY****
TOTAL RUN TIME: 0 days 0 hours 0 minutes 31 seconds 519 msec
