                         Program Version 4.2.1 -  RELEASE  -
|  1> ! wB97X-D3 SP def2-SVP
|  2> %pal
|  3> nprocs 16
|  4> end
|  5>
|  6> * xyz 0 1
|  7> S 	 6.75591 	 -5.64002 	 70.6892
|  8> C 	 5.94177 	 -4.08628 	 70.4831
|  9> C 	 4.83482 	 -4.1436 	 71.2957
| 10> C 	 4.80687 	 -5.22384 	 72.1767
| 11> C 	 5.90142 	 -6.1105 	 72.115
| 12> H 	 4.01677 	 -5.31051 	 72.9293
| 13> C 	 3.7958 	 -3.06828 	 71.2852
| 14> H 	 4.15911 	 -2.37079 	 70.4514
| 15> H 	 3.93502 	 -2.64839 	 72.2892
| 16> C 	 2.29392 	 -3.46012 	 71.1208
| 17> H 	 2.18752 	 -4.27011 	 71.8038
| 18> H 	 1.70079 	 -2.70388 	 71.6717
| 19> C 	 1.8133 	 -3.76678 	 69.7145
| 20> H 	 0.808562 	 -4.15739 	 69.8377
| 21> H 	 1.75791 	 -2.85749 	 69.165
| 22> H 	 2.41797 	 -4.50049 	 69.2798
| 23> S 	 5.1341 	 -7.98168 	 73.9391
| 24> C 	 6.287 	 -8.99282 	 74.7953
| 25> C 	 7.57102 	 -8.61596 	 74.4387
| 26> C 	 7.60428 	 -7.59703 	 73.4411
| 27> C 	 6.32939 	 -7.21057 	 72.9953
| 28> H 	 8.44255 	 -9.05271 	 74.9279
| 29> C 	 8.88485 	 -6.75087 	 73.3318
| 30> H 	 8.48424 	 -5.909 	 72.6838
| 31> H 	 9.65539 	 -7.21312 	 72.664
| 32> C 	 9.41504 	 -6.16705 	 74.6148
| 33> H 	 10.5362 	 -6.11439 	 74.4789
| 34> H 	 9.29221 	 -6.97137 	 75.3077
| 35> C 	 8.57749 	 -5.01353 	 75.0743
| 36> H 	 7.53321 	 -5.25753 	 75.0034
| 37> H 	 8.82732 	 -4.20335 	 74.4175
| 38> H 	 8.85787 	 -4.7547 	 76.073
| 39> H 	 6.22565 	 -3.26642 	 69.8094
| 40> H 	 6.13676 	 -9.9537 	 75.329
| 41> *
| 42>
| 43>                          ****END OF INPUT****

CARTESIAN COORDINATES (ANGSTROEM)
---------------------------------
  S      6.755910   -5.640020   70.689200
  C      5.941770   -4.086280   70.483100
  C      4.834820   -4.143600   71.295700
  C      4.806870   -5.223840   72.176700
  C      5.901420   -6.110500   72.115000
  H      4.016770   -5.310510   72.929300
  C      3.795800   -3.068280   71.285200
  H      4.159110   -2.370790   70.451400
  H      3.935020   -2.648390   72.289200
  C      2.293920   -3.460120   71.120800
  H      2.187520   -4.270110   71.803800
  H      1.700790   -2.703880   71.671700
  C      1.813300   -3.766780   69.714500
  H      0.808562   -4.157390   69.837700
  H      1.757910   -2.857490   69.165000
  H      2.417970   -4.500490   69.279800
  S      5.134100   -7.981680   73.939100
  C      6.287000   -8.992820   74.795300
  C      7.571020   -8.615960   74.438700
  C      7.604280   -7.597030   73.441100
  C      6.329390   -7.210570   72.995300
  H      8.442550   -9.052710   74.927900
  C      8.884850   -6.750870   73.331800
  H      8.484240   -5.909000   72.683800
  H      9.655390   -7.213120   72.664000
  C      9.415040   -6.167050   74.614800
  H     10.536200   -6.114390   74.478900
  H      9.292210   -6.971370   75.307700
  C      8.577490   -5.013530   75.074300
  H      7.533210   -5.257530   75.003400
  H      8.827320   -4.203350   74.417500
  H      8.857870   -4.754700   76.073000
  H      6.225650   -3.266420   69.809400
  H      6.136760   -9.953700   75.329000

 Total Charge           Charge          ....    0
 Multiplicity           Mult            ....    1
 Number of Electrons    NEL             ....  134
 Basis Dimension        Dim             ....  322

ORBITAL ENERGIES
----------------

  NO   OCC          E(Eh)            E(eV)
   0   2.0000     -88.970867     -2421.0204
   1   2.0000     -88.965092     -2420.8632
   2   2.0000     -10.338736      -281.3313
   3   2.0000     -10.335509      -281.2435
   4   2.0000     -10.323426      -280.9147
   5   2.0000     -10.315037      -280.6864
   6   2.0000     -10.305596      -280.4295
   7   2.0000     -10.295858      -280.1645
   8   2.0000     -10.295173      -280.1459
   9   2.0000     -10.294720      -280.1336
  10   2.0000     -10.294113      -280.1170
  11   2.0000     -10.287137      -279.9272
  12   2.0000     -10.286542      -279.9110
  13   2.0000     -10.279238      -279.7123
  14   2.0000     -10.271255      -279.4950
  15   2.0000     -10.266651      -279.3698
  16   2.0000      -8.085901      -220.0286
  17   2.0000      -8.079385      -219.8512
  18   2.0000      -6.044400      -164.4765
  19   2.0000      -6.040285      -164.3645
  20   2.0000      -6.037911      -164.2999
  21   2.0000      -6.036724      -164.2676
  22   2.0000      -6.033809      -164.1883
  23   2.0000      -6.030233      -164.0910
  24   2.0000      -1.013299       -27.5733
  25   2.0000      -0.992244       -27.0003
  26   2.0000      -0.913965       -24.8703
  27   2.0000      -0.912487       -24.8300
  28   2.0000      -0.874165       -23.7872
  29   2.0000      -0.853051       -23.2127
  30   2.0000      -0.842783       -22.9333
  31   2.0000      -0.817802       -22.2535
  32   2.0000      -0.783194       -21.3118
  33   2.0000      -0.772017       -21.0076
  34   2.0000      -0.715280       -19.4638
  35   2.0000      -0.700453       -19.0603
  36   2.0000      -0.689389       -18.7592
  37   2.0000      -0.661448       -17.9989
  38   2.0000      -0.630340       -17.1524
  39   2.0000      -0.621028       -16.8990
  40   2.0000      -0.594382       -16.1739
  41   2.0000      -0.570570       -15.5260
  42   2.0000      -0.559040       -15.2123
  43   2.0000      -0.556959       -15.1556
  44   2.0000      -0.541853       -14.7446
  45   2.0000      -0.534573       -14.5465
  46   2.0000      -0.523990       -14.2585
  47   2.0000      -0.518398       -14.1063
  48   2.0000      -0.513181       -13.9644
  49   2.0000      -0.495829       -13.4922
  50   2.0000      -0.489302       -13.3146
  51   2.0000      -0.480206       -13.0671
  52   2.0000      -0.479191       -13.0394
  53   2.0000      -0.466828       -12.7030
  54   2.0000      -0.450137       -12.2489
  55   2.0000      -0.447679       -12.1820
  56   2.0000      -0.442032       -12.0283
  57   2.0000      -0.440857       -11.9963
  58   2.0000      -0.434647       -11.8274
  59   2.0000      -0.422285       -11.4909
  60   2.0000      -0.416139       -11.3237
  61   2.0000      -0.406271       -11.0552
  62   2.0000      -0.398868       -10.8538
  63   2.0000      -0.357922        -9.7396
  64   2.0000      -0.331496        -9.0205
  65   2.0000      -0.323946        -8.8150
  66   2.0000      -0.287514        -7.8236
  67   0.0000       0.013688         0.3725
  68   0.0000       0.078577         2.1382
  69   0.0000       0.109888         2.9902
  70   0.0000       0.119124         3.2415
  71   0.0000       0.132449         3.6041

MULLIKEN ATOMIC CHARGES
-----------------------
   0 S :    0.104526
   1 C :   -0.150770
   2 C :   -0.087950
   3 C :    0.008133
   4 C :   -0.132855
   5 H :    0.013149
   6 C :    0.024836
   7 H :    0.023073
   8 H :    0.040277
   9 C :   -0.072385
  10 H :    0.002401
  11 H :    0.023546
  12 C :    0.017906
  13 H :    0.031720
  14 H :    0.030509
  15 H :    0.033214
  16 S :    0.106644
  17 C :   -0.101492
  18 C :   -0.053273
  19 C :   -0.063118
  20 C :   -0.116090
  21 H :    0.037433
  22 C :   -0.010604
  23 H :    0.020620
  24 H :    0.039926
  25 C :   -0.046747
  26 H :    0.036665
  27 H :    0.001569
  28 C :   -0.000027
  29 H :    0.044013
  30 H :    0.029943
  31 H :    0.025218
  32 H :    0.062206
  33 H :    0.077785
Sum of atomic charges:   -0.0000000

LOEWDIN ATOMIC CHARGES
----------------------
   0 S :    0.425795
   1 C :   -0.205196
   2 C :   -0.075846
   3 C :   -0.084826
   4 C :   -0.191398
   5 H :    0.025361
   6 C :   -0.035872
   7 H :    0.032454
   8 H :    0.037536
   9 C :   -0.042302
  10 H :    0.016029
  11 H :    0.027853
  12 C :   -0.050194
  13 H :    0.031836
  14 H :    0.024492
  15 H :    0.023008
  16 S :    0.431084
  17 C :   -0.196761
  18 C :   -0.070642
  19 C :   -0.064839
  20 C :   -0.211724
  21 H :    0.034904
  22 C :   -0.047104
  23 H :    0.020289
  24 H :    0.032523
  25 C :   -0.047408
  26 H :    0.033925
  27 H :    0.013917
  28 C :   -0.049529
  29 H :    0.031104
  30 H :    0.026208
  31 H :    0.023058
  32 H :    0.037834
  33 H :    0.044428

  Mayer bond orders larger than 0.100000
B(  0-S ,  1-C ) :   1.1338 B(  0-S ,  4-C ) :   1.1779 B(  1-C ,  2-C ) :   1.5584
B(  1-C ,  4-C ) :   0.1078 B(  1-C , 32-H ) :   0.9711 B(  2-C ,  3-C ) :   1.2979
B(  2-C ,  6-C ) :   1.0176 B(  3-C ,  4-C ) :   1.5045 B(  3-C ,  5-H ) :   0.9830
B(  4-C , 20-C ) :   1.0472 B(  6-C ,  7-H ) :   0.9464 B(  6-C ,  8-H ) :   0.9334
B(  6-C ,  9-C ) :   1.0723 B(  9-C , 10-H ) :   0.9513 B(  9-C , 11-H ) :   0.9524
B(  9-C , 12-C ) :   1.0713 B( 12-C , 13-H ) :   0.9693 B( 12-C , 14-H ) :   0.9747
B( 12-C , 15-H ) :   0.9771 B( 16-S , 17-C ) :   1.1550 B( 16-S , 20-C ) :   1.1619
B( 17-C , 18-C ) :   1.5939 B( 17-C , 33-H ) :   0.9609 B( 18-C , 19-C ) :   1.2745
B( 18-C , 21-H ) :   0.9802 B( 19-C , 20-C ) :   1.5334 B( 19-C , 22-C ) :   1.0364
B( 22-C , 23-H ) :   0.9331 B( 22-C , 24-H ) :   0.9336 B( 22-C , 25-C ) :   1.0597
B( 25-C , 26-H ) :   0.9505 B( 25-C , 27-H ) :   0.9509 B( 25-C , 28-C ) :   1.0685
B( 28-C , 29-H ) :   0.9749 B( 28-C , 30-H ) :   0.9737 B( 28-C , 31-H ) :   0.9707

Dispersion correction           -0.014879155
FINAL SINGLE POINT ENERGY     -1339.853617192829

DIPOLE MOMENT
-------------
                                X             Y             Z
Electronic contribution:      2.39853     -14.59197      -1.72819
Nuclear contribution   :     -2.43884      14.82834       2.01016
                        -----------------------------------------
Total Dipole Moment    :     -0.04031       0.23636       0.28198
                        -----------------------------------------
Magnitude (a.u.)       :      0.37014
Magnitude (Debye)      :      0.94082

Rotational constants in cm-1:     0.023438     0.008031     0.006992
Rotational constants in MHz :   702.641687   240.749972   209.612441

                             ****ORCA TERMINATED NORMALLY****
TOTAL RUN TIME: 0 days 0 hours 0 minutes 35 seconds 935 msec
